          AutoDock 4.2 Release 4.2.6   
         (C) 1989-2012 The Scripps Research Institute
        AutoDock comes with ABSOLUTELY NO WARRANTY.
        AutoDock is free software, and you are welcome
        to redistribute it under certain conditions;
        for details type 'autodock4 -C'

                     main.cc  $Revision: 1.213 $

                   Compiled on Jul 18 2014 at 15:34:58


This file was created at:			5:03 55" p.m., 10/15/2025
                   on host:		"ACER"
Current Working Directory = "D:\Protein_go_brrr\autodock\final\1A3N\heme_Co"

      ________________________________________________________________

                   SETTING UP DEFAULT PARAMETER LIBRARY
      ________________________________________________________________


Random number generator was seeded with values 25700, 1760540635.
Docking parameter file (DPF) used for this docking:		D:/Protein_go_brrr/autodock/final/1A3N/heme_Co/dock.dpf
DPF> autodock_parameter_version 4.2       # used by autodock to validate parameter set

	Autodock parameter version 4.2.
DPF> outlev 1                             # diagnostic output level

Output Level = 1  ADT-COMPATIBLE OUTPUT DURING DOCKING.
DPF> intelec                              # calculate internal electrostatics

Electrostatic energies will be calculated for all non-bonds between moving atoms.
DPF> seed pid time                        # seeds for random generator

Random number generator was seeded with values 25700, 1760540635.
DPF> ligand_types A C OA N Fe HD          # atoms types in ligand

DPF> fld opt_1A3N_fin.maps.fld            # grid_data_file

Opening Grid Map Dimensions file:		opt_1A3N_fin.maps.fld
Grid Point Spacing =				0.614 Angstroms

Even Number of User-specified Grid Points =	120 x-points
						126 y-points
						126 z-points

Coordinates of Central Grid Point of Maps =	(14.481, 2.083, 13.105)
Macromolecule file used to create Grid Maps =	opt_1A3N_fin.pdbqt
Grid Parameter file used to create Grid Maps =	D:/Protein_go_brrr/autodock/final/1A3N/heme_Co/grid.gpf
Minimum coordinates in grid = (-22.359, -36.599, -25.577)
Maximum coordinates in grid = (51.321, 40.765, 51.787)

DPF> map opt_1A3N_fin.A.map               # atom-specific affinity map

DPF> map opt_1A3N_fin.C.map               # atom-specific affinity map

DPF> map opt_1A3N_fin.OA.map              # atom-specific affinity map

DPF> map opt_1A3N_fin.N.map               # atom-specific affinity map

DPF> map opt_1A3N_fin.Fe.map              # atom-specific affinity map

DPF> map opt_1A3N_fin.HD.map              # atom-specific affinity map

DPF> elecmap opt_1A3N_fin.e.map           # electrostatics map

DPF> desolvmap opt_1A3N_fin.d.map         # desolvation map

DPF> move heme_Co_opt.pdbqt               # small molecule

1,4-interactions will be _ignored_ in the non-bonded internal energy calculation.

Ligand PDBQT file = "heme_Co_opt.pdbqt"

INPUT LIGAND PDBQT FILE:
________________________

INPUT-LIGAND-PDBQT: REMARK  12 active torsions:
INPUT-LIGAND-PDBQT: REMARK  status: ('A' for Active; 'I' for Inactive)
INPUT-LIGAND-PDBQT: REMARK    1  A    between atoms: C_6  and  C_10 
INPUT-LIGAND-PDBQT: REMARK    2  A    between atoms: C_10  and  C_11 
INPUT-LIGAND-PDBQT: REMARK    3  A    between atoms: C_11  and  C_12 
INPUT-LIGAND-PDBQT: REMARK    4  A    between atoms: C_12  and  O_14 
INPUT-LIGAND-PDBQT: REMARK    5  A    between atoms: C_17  and  C_20 
INPUT-LIGAND-PDBQT: REMARK    6  A    between atoms: C_24  and  C_27 
INPUT-LIGAND-PDBQT: REMARK    7  A    between atoms: C_31  and  C_34 
INPUT-LIGAND-PDBQT: REMARK    8  A    between atoms: C_34  and  C_35 
INPUT-LIGAND-PDBQT: REMARK    9  A    between atoms: C_35  and  C_36 
INPUT-LIGAND-PDBQT: REMARK   10  A    between atoms: C_36  and  O_38 
INPUT-LIGAND-PDBQT: REMARK   11  A    between atoms: FE_43  and  C_44 
INPUT-LIGAND-PDBQT: REMARK   12  A    between atoms: C_44  and  O_45 
INPUT-LIGAND-PDBQT: ROOT
INPUT-LIGAND-PDBQT: ATOM      1  C   UNL d   1       6.846  35.483  -1.586  0.00  0.00     0.064 A 
INPUT-LIGAND-PDBQT: ATOM      2  C   UNL d   1       8.105  32.823   2.149  0.00  0.00     0.064 C 
INPUT-LIGAND-PDBQT: ATOM      3  C   UNL d   1      12.720  33.414   1.062  0.00  0.00     0.064 A 
INPUT-LIGAND-PDBQT: ATOM      4  C   UNL d   1      11.472  36.449  -2.529  0.00  0.00     0.064 A 
INPUT-LIGAND-PDBQT: ATOM      5  C   UNL d   1       6.850  34.683  -0.507  0.00  0.00     0.066 A 
INPUT-LIGAND-PDBQT: ATOM      6  C   UNL d   1       5.664  34.330   0.166  0.00  0.00    -0.021 A 
INPUT-LIGAND-PDBQT: ATOM      7  C   UNL d   1       6.037  33.577   1.262  0.00  0.00    -0.025 A 
INPUT-LIGAND-PDBQT: ATOM      8  C   UNL d   1       7.432  33.489   1.202  0.00  0.00     0.066 A 
INPUT-LIGAND-PDBQT: ATOM      9  C   UNL d   1       5.127  32.958   2.334  0.00  0.00     0.051 C 
INPUT-LIGAND-PDBQT: ATOM     10  C   UNL d   1       9.537  32.657   2.156  0.00  0.00     0.066 A 
INPUT-LIGAND-PDBQT: ATOM     11  C   UNL d   1      10.289  31.854   3.041  0.00  0.00    -0.021 A 
INPUT-LIGAND-PDBQT: ATOM     12  C   UNL d   1      11.631  32.042   2.699  0.00  0.00     0.000 A 
INPUT-LIGAND-PDBQT: ATOM     13  C   UNL d   1      11.598  32.933   1.626  0.00  0.00     0.070 A 
INPUT-LIGAND-PDBQT: ATOM     14  C   UNL d   1       9.736  30.905   4.073  0.00  0.00     0.052 C 
INPUT-LIGAND-PDBQT: ATOM     15  C   UNL d   1      12.870  34.375  -0.013  0.00  0.00     0.066 A 
INPUT-LIGAND-PDBQT: ATOM     16  C   UNL d   1      14.059  34.940  -0.452  0.00  0.00    -0.021 A 
INPUT-LIGAND-PDBQT: ATOM     17  C   UNL d   1      13.704  35.818  -1.486  0.00  0.00     0.000 A 
INPUT-LIGAND-PDBQT: ATOM     18  C   UNL d   1      12.323  35.706  -1.608  0.00  0.00     0.070 A 
INPUT-LIGAND-PDBQT: ATOM     19  C   UNL d   1      15.432  34.638   0.106  0.00  0.00     0.052 C 
INPUT-LIGAND-PDBQT: ATOM     20  C   UNL d   1      10.120  36.421  -2.607  0.00  0.00     0.066 A 
INPUT-LIGAND-PDBQT: ATOM     21  C   UNL d   1       9.411  37.209  -3.511  0.00  0.00    -0.025 A 
INPUT-LIGAND-PDBQT: ATOM     22  C   UNL d   1       8.076  36.930  -3.282  0.00  0.00    -0.021 A 
INPUT-LIGAND-PDBQT: ATOM     23  C   UNL d   1       8.036  35.987  -2.233  0.00  0.00     0.066 A 
INPUT-LIGAND-PDBQT: ATOM     24  C   UNL d   1       9.976  38.195  -4.530  0.00  0.00     0.051 C 
INPUT-LIGAND-PDBQT: ATOM     25  N   UNL d   1       7.962  34.160   0.113  0.00  0.00    -0.248 N 
INPUT-LIGAND-PDBQT: ATOM     26  N   UNL d   1      10.329  33.260   1.263  0.00  0.00    -0.248 N 
INPUT-LIGAND-PDBQT: ATOM     27  N   UNL d   1      11.857  34.861  -0.695  0.00  0.00    -0.248 N 
INPUT-LIGAND-PDBQT: ATOM     28  N   UNL d   1       9.271  35.678  -1.820  0.00  0.00    -0.248 N 
INPUT-LIGAND-PDBQT: ATOM     29 FE   UNL d   1      10.024  34.533  -0.318  0.00  0.00     0.000 Fe
INPUT-LIGAND-PDBQT: ENDROOT
INPUT-LIGAND-PDBQT: BRANCH   6  30
INPUT-LIGAND-PDBQT: ATOM     30  C   UNL d   1       4.249  34.772  -0.192  0.00  0.00     0.052 C 
INPUT-LIGAND-PDBQT: BRANCH  30  31
INPUT-LIGAND-PDBQT: ATOM     31  C   UNL d   1       3.660  33.865  -1.272  0.00  0.00     0.115 C 
INPUT-LIGAND-PDBQT: BRANCH  31  32
INPUT-LIGAND-PDBQT: ATOM     32  C   UNL d   1       2.237  34.239  -1.627  0.00  0.00     0.139 C 
INPUT-LIGAND-PDBQT: ATOM     33  O   UNL d   1       1.374  33.374  -1.641  0.00  0.00    -0.650 OA
INPUT-LIGAND-PDBQT: BRANCH  32  34
INPUT-LIGAND-PDBQT: ATOM     34  O   UNL d   1       1.874  35.517  -1.885  0.00  0.00    -0.776 OA
INPUT-LIGAND-PDBQT: ATOM     35  H   UNL d   1       2.467  36.277  -1.807  0.00  0.00     0.167 HD
INPUT-LIGAND-PDBQT: ENDBRANCH  32  34
INPUT-LIGAND-PDBQT: ENDBRANCH  31  32
INPUT-LIGAND-PDBQT: ENDBRANCH  30  31
INPUT-LIGAND-PDBQT: ENDBRANCH   6  30
INPUT-LIGAND-PDBQT: BRANCH  29  36
INPUT-LIGAND-PDBQT: ATOM     36  C   UNL d   1       9.893  36.149   1.011  0.00  0.00     0.190 C 
INPUT-LIGAND-PDBQT: BRANCH  36  37
INPUT-LIGAND-PDBQT: ATOM     37  O   UNL d   1      10.463  37.389   1.317  0.00  0.00    -0.399 OA
INPUT-LIGAND-PDBQT: ATOM     38  H   UNL d   1      10.901  37.258   2.204  0.00  0.00     0.209 HD
INPUT-LIGAND-PDBQT: ENDBRANCH  36  37
INPUT-LIGAND-PDBQT: ENDBRANCH  29  36
INPUT-LIGAND-PDBQT: BRANCH  22  39
INPUT-LIGAND-PDBQT: ATOM     39  C   UNL d   1       6.906  37.586  -3.991  0.00  0.00     0.052 C 
INPUT-LIGAND-PDBQT: BRANCH  39  40
INPUT-LIGAND-PDBQT: ATOM     40  C   UNL d   1       6.343  36.659  -5.081  0.00  0.00     0.115 C 
INPUT-LIGAND-PDBQT: BRANCH  40  41
INPUT-LIGAND-PDBQT: ATOM     41  C   UNL d   1       5.088  37.175  -5.753  0.00  0.00     0.139 C 
INPUT-LIGAND-PDBQT: ATOM     42  O   UNL d   1       4.969  37.063  -6.965  0.00  0.00    -0.650 OA
INPUT-LIGAND-PDBQT: BRANCH  41  43
INPUT-LIGAND-PDBQT: ATOM     43  O   UNL d   1       4.056  37.678  -5.040  0.00  0.00    -0.776 OA
INPUT-LIGAND-PDBQT: ATOM     44  H   UNL d   1       4.103  37.816  -4.085  0.00  0.00     0.167 HD
INPUT-LIGAND-PDBQT: ENDBRANCH  41  43
INPUT-LIGAND-PDBQT: ENDBRANCH  40  41
INPUT-LIGAND-PDBQT: ENDBRANCH  39  40
INPUT-LIGAND-PDBQT: ENDBRANCH  22  39
INPUT-LIGAND-PDBQT: BRANCH  12  45
INPUT-LIGAND-PDBQT: ATOM     45  C   UNL d   1      12.932  31.471   3.247  0.00  0.00     0.004 C 
INPUT-LIGAND-PDBQT: ATOM     46  C   UNL d   1      13.165  30.727   4.325  0.00  0.00     0.012 C 
INPUT-LIGAND-PDBQT: ENDBRANCH  12  45
INPUT-LIGAND-PDBQT: BRANCH  17  47
INPUT-LIGAND-PDBQT: ATOM     47  C   UNL d   1      14.559  36.745  -2.286  0.00  0.00     0.004 C 
INPUT-LIGAND-PDBQT: ATOM     48  C   UNL d   1      15.750  37.188  -1.876  0.00  0.00     0.012 C 
INPUT-LIGAND-PDBQT: ENDBRANCH  17  47
INPUT-LIGAND-PDBQT: TORSDOF 12
________________________________________________________________________________

Total charge on ligand                               =	-2.002 e
REMARK  12 active torsions:
REMARK  status: ('A' for Active; 'I' for Inactive)
REMARK    1  A    between atoms: C_6  and  C_10 
REMARK    2  A    between atoms: C_10  and  C_11 
REMARK    3  A    between atoms: C_11  and  C_12 
REMARK    4  A    between atoms: C_12  and  O_14 
REMARK    5  A    between atoms: C_17  and  C_20 
REMARK    6  A    between atoms: C_24  and  C_27 
REMARK    7  A    between atoms: C_31  and  C_34 
REMARK    8  A    between atoms: C_34  and  C_35 
REMARK    9  A    between atoms: C_35  and  C_36 
REMARK   10  A    between atoms: C_36  and  O_38 
REMARK   11  A    between atoms: FE_43  and  C_44 
REMARK   12  A    between atoms: C_44  and  O_45 


Number of Rotatable Bonds in Small Molecule =	12 torsions
Number of atoms in ligand:  48

Number of non-hydrogen atoms in ligand:  45

Number of vibrational degrees of freedom of ligand:  138


Number of torsional degrees of freedom = 12
Estimated loss of torsional free energy upon binding = +3.5796 kcal/mol


DPF> about 8.781 34.984 -0.736            # small molecule center

Small molecule center of rotation =	(+8.781, +34.984, -0.736)

DPF> tran0 random                         # initial coordinates/A or random

Initial translation =			(17.270, 13.895, -0.355) Angstroms
DPF> quaternion0 random                   # initial orientation

Each run will begin with a new, random initial orientation.
Initial quaternion,  (x,y,z,w) =	( 0.648, 0.501, -0.248, -0.517 ),
DPF> dihe0 random                         # initial dihedrals (relative) or random

DPF> torsdof 12                            # torsional degrees of freedom

Number of torsional degrees of freedom = 12
Free energy coefficient for torsional degrees of freedom = 0.2983, the factory default value.

Estimated loss of torsional free energy upon binding = +3.5796 kcal/mol

DPF> rmstol 2.0                           # cluster_tolerance/A

Maximum RMS tolerance for conformational cluster analysis = 2.00 Angstroms
DPF> extnrg 1000.0                        # external grid energy

External grid energy (beyond grid map walls) = 1000.00

DPF> e0max 0.0 10000                      # max initial energy; max number of retries

Using user-specified maximum number of retries for simanneal initialization, 10000 retries.
If the simanneal initial energy is greater than e0max, 0.000,
then a new, random initial state will be created.

DPF> ga_pop_size 150                      # number of individuals in population

A population of 150 individuals will be used
DPF> ga_num_evals 25000000                # maximum number of energy evaluations

There will be at most 25000000 function evaluations used.
DPF> ga_num_generations 27000             # maximum number of generations

The GA will run for at most 27000 generations.
DPF> ga_elitism 1                         # number of top individuals to survive to next generation

The 1 best will be preserved each GA generation.
DPF> ga_mutation_rate 0.02                # rate of gene mutation

The mutation rate is 0.020000.
DPF> ga_crossover_rate 0.8                # rate of crossover

The crossover rate is 0.800000.
DPF> ga_window_size 10                    # 

The GA's selection window is 10 generations.
DPF> ga_cauchy_alpha 0.0                  # Alpha parameter of Cauchy distribution

The alpha parameter (for the Cauchy distribution) is being set to 0.000000.
DPF> ga_cauchy_beta 1.0                   # Beta parameter Cauchy distribution

The beta parameter (for the Cauchy distribution) is being set to 1.000000.
DPF> set_ga                               # set the above parameters for GA or LGA

DPF> sw_max_its 300                       # iterations of Solis & Wets local search

Solis & Wets algorithms will perform at most 300 iterations.
DPF> sw_max_succ 4                        # consecutive successes before changing rho

Solis & Wets algorithms expand rho every 4 in a row successes.
DPF> sw_max_fail 4                        # consecutive failures before changing rho

Solis & Wets algorithms contract rho every 4 in a row failures.
DPF> sw_rho 1.0                           # size of local search space to sample

rho is set to 1.000000.
DPF> sw_lb_rho 0.01                       # lower bound on rho

rho will never get smaller than 0.010000.
DPF> ls_search_freq 0.06                  # probability of performing local search on individual

Local search will be performed with frequency 0.060000.
DPF> set_psw1                             # set the above pseudo-Solis & Wets parameters

Creating a new Local Search object using the pseudo-Solis-Wets algorithm (pSW1) with the current settings.

DPF> unbound_model bound                  # state of unbound ligand

DPF> ga_run 100                           # do this many hybrid GA-LS runs

centering ligand on specified point: 8.781 34.984 -0.736
Furthest true ligand atom from "about" center is 7.934 Angstroms (maxrad).
Number of requested GA dockings = 100 runs
Unbound model to be used is 'same as bound' [AutoDock 4.2 default].

	BEGINNING GENETIC ALGORITHM DOCKING 1 of 100
Run: 1 Seed: 270973134 616706216 [ Run 1 of 100 GA/GALS ]
Beginning LAMARCKIAN GENETIC ALGORITHM (LGA), with a maximum of 25000000 energy evaluations.

Final-Value: -16.723


	FINAL GENETIC ALGORITHM DOCKED STATE
	_______________________________________________


Detailed state:  trans 23.245 6.799 -3.368 quatxyzw -0.601105 0.078995 -0.780958 -0.150123 center 8.781 34.984 -0.736 ntor 12 -180.0000 119.0536 161.6377 -97.8880 -90.7449 -12.7579 88.7116 -52.0055 -3.2218 77.2813 26.9269 -162.4550
State:	 23.245   6.799  -3.368  -0.608  0.080 -0.790 -162.732   -180.00  119.05  161.64  -97.89  -90.74  -12.76   88.71  -52.01   -3.22   77.28   26.93 -162.45

DOCKED: MODEL        1
DOCKED: USER    Run = 1
DOCKED: USER    DPF = D:/Protein_go_brrr/autodock/final/1A3N/heme_Co/dock.dpf
DOCKED: USER  
DOCKED: USER    Estimated Free Energy of Binding    =  -12.46 kcal/mol  [=(1)+(2)+(3)-(4)]
DOCKED: USER    Estimated Inhibition Constant, Ki   =  731.82 pM (picomolar)  [Temperature = 298.15 K]
DOCKED: USER    
DOCKED: USER    (1) Final Intermolecular Energy     =  -16.04 kcal/mol
DOCKED: USER        vdW + Hbond + desolv Energy     =  -14.60 kcal/mol
DOCKED: USER        Electrostatic Energy            =   -1.45 kcal/mol
DOCKED: USER    (2) Final Total Internal Energy     =   -0.68 kcal/mol
DOCKED: USER    (3) Torsional Free Energy           =   +3.58 kcal/mol
DOCKED: USER    (4) Unbound System's Energy  [=(2)] =   -0.68 kcal/mol
DOCKED: USER    
DOCKED: USER    
DOCKED: USER    NEWDPF move heme_Co_opt.pdbqt
DOCKED: USER    NEWDPF about 8.781000 34.984000 -0.736000
DOCKED: USER    NEWDPF tran0 23.244976 6.798665 -3.367527
DOCKED: USER    NEWDPF quaternion0 -0.601105 0.078995 -0.780958 -0.150123
DOCKED: USER    NEWDPF axisangle0 -0.607995 0.079901 -0.789910 -162.731880
DOCKED: USER    NEWDPF quat0 -0.607995 0.079901 -0.789910 -162.731880
DOCKED: USER    NEWDPF dihe0 -180.00 119.05 161.64 -97.89 -90.74 -12.76 88.71 -52.01 -3.22 77.28 26.93 -162.45 
DOCKED: USER  keepresnum = 1 
DOCKED: USER  
DOCKED: REMARK  12 active torsions:
DOCKED: REMARK  status: ('A' for Active; 'I' for Inactive)
DOCKED: REMARK    1  A    between atoms: C_6  and  C_10 
DOCKED: REMARK    2  A    between atoms: C_10  and  C_11 
DOCKED: REMARK    3  A    between atoms: C_11  and  C_12 
DOCKED: REMARK    4  A    between atoms: C_12  and  O_14 
DOCKED: REMARK    5  A    between atoms: C_17  and  C_20 
DOCKED: REMARK    6  A    between atoms: C_24  and  C_27 
DOCKED: REMARK    7  A    between atoms: C_31  and  C_34 
DOCKED: REMARK    8  A    between atoms: C_34  and  C_35 
DOCKED: REMARK    9  A    between atoms: C_35  and  C_36 
DOCKED: REMARK   10  A    between atoms: C_36  and  O_38 
DOCKED: REMARK   11  A    between atoms: FE_43  and  C_44 
DOCKED: REMARK   12  A    between atoms: C_44  and  O_45 
DOCKED: USER                              x       y       z     vdW  Elec       q    Type
DOCKED: USER                           _______ _______ _______ _____ _____    ______ ____
DOCKED: ROOT
DOCKED: ATOM      1  C   UNL d   1      22.946   6.917  -5.515 -0.21 +0.01    +0.064 A 
DOCKED: ATOM      2  C   UNL d   1      25.878   9.223  -2.565 -0.46 +0.01    +0.064 C 
DOCKED: ATOM      3  C   UNL d   1      23.842   7.083   1.191 -0.33 +0.00    +0.064 A 
DOCKED: ATOM      4  C   UNL d   1      21.098   4.429  -1.825 -0.36 +0.01    +0.064 A 
DOCKED: ATOM      5  C   UNL d   1      23.872   7.732  -4.983 -0.27 +0.01    +0.066 A 
DOCKED: ATOM      6  C   UNL d   1      24.746   8.493  -5.782 -0.35 -0.01    -0.021 A 
DOCKED: ATOM      7  C   UNL d   1      25.609   9.143  -4.922 -0.42 -0.01    -0.025 A 
DOCKED: ATOM      8  C   UNL d   1      25.215   8.763  -3.634 -0.39 +0.01    +0.066 A 
DOCKED: ATOM      9  C   UNL d   1      26.766  10.087  -5.283 -0.48 +0.01    +0.051 C 
DOCKED: ATOM     10  C   UNL d   1      25.529   8.908  -1.203 -0.39 +0.00    +0.066 A 
DOCKED: ATOM     11  C   UNL d   1      26.094   9.467  -0.036 -0.46 -0.00    -0.021 A 
DOCKED: ATOM     12  C   UNL d   1      25.479   8.829   1.044 -0.41 +0.00    +0.000 A 
DOCKED: ATOM     13  C   UNL d   1      24.578   7.938   0.459 -0.34 +0.00    +0.070 A 
DOCKED: ATOM     14  C   UNL d   1      27.083  10.603   0.020 -0.54 +0.00    +0.052 C 
DOCKED: ATOM     15  C   UNL d   1      22.906   6.067   0.751 -0.30 +0.00    +0.066 A 
DOCKED: ATOM     16  C   UNL d   1      22.286   5.118   1.551 -0.48 -0.00    -0.021 A 
DOCKED: ATOM     17  C   UNL d   1      21.496   4.348   0.686 -0.53 +0.00    +0.000 A 
DOCKED: ATOM     18  C   UNL d   1      21.684   4.902  -0.576 -0.38 +0.00    +0.070 A 
DOCKED: ATOM     19  C   UNL d   1      22.462   4.982   3.047 +0.00 +0.00    +0.052 C 
DOCKED: ATOM     20  C   UNL d   1      21.333   4.896  -3.074 -0.38 +0.01    +0.066 A 
DOCKED: ATOM     21  C   UNL d   1      20.738   4.336  -4.202 -0.43 -0.00    -0.025 A 
DOCKED: ATOM     22  C   UNL d   1      21.229   5.052  -5.278 -0.37 -0.00    -0.021 A 
DOCKED: ATOM     23  C   UNL d   1      22.117   6.013  -4.751 -0.28 +0.01    +0.066 A 
DOCKED: ATOM     24  C   UNL d   1      19.763   3.162  -4.255 -0.42 +0.01    +0.051 C 
DOCKED: ATOM     25  N   UNL d   1      24.137   7.894  -3.642 -0.22 -0.02    -0.248 N 
DOCKED: ATOM     26  N   UNL d   1      24.569   8.028  -0.898 -0.23 -0.01    -0.248 N 
DOCKED: ATOM     27  N   UNL d   1      22.553   5.904  -0.504 -0.22 -0.01    -0.248 N 
DOCKED: ATOM     28  N   UNL d   1      22.185   5.921  -3.417 -0.21 -0.01    -0.248 N 
DOCKED: ATOM     29 FE   UNL d   1      23.296   6.838  -1.982 -0.08 +0.00    +0.000 Fe
DOCKED: ENDROOT
DOCKED: BRANCH   6  30
DOCKED: ATOM     30  C   UNL d   1      24.792   8.523  -7.307 -0.34 +0.03    +0.052 C 
DOCKED: BRANCH  30  31
DOCKED: ATOM     31  C   UNL d   1      24.318   9.877  -7.832 -0.24 +0.06    +0.115 C 
DOCKED: BRANCH  31  32
DOCKED: ATOM     32  C   UNL d   1      24.463   9.996  -9.334 -0.19 +0.11    +0.139 C 
DOCKED: ATOM     33  O   UNL d   1      25.464   9.555  -9.878 +0.01 -1.02    -0.650 OA
DOCKED: BRANCH  32  34
DOCKED: ATOM     34  O   UNL d   1      23.493  10.536 -10.108 +0.03 -0.42    -0.776 OA
DOCKED: ATOM     35  H   UNL d   1      23.574  10.680 -11.061 +0.03 +0.09    +0.167 HD
DOCKED: ENDBRANCH  32  34
DOCKED: ENDBRANCH  31  32
DOCKED: ENDBRANCH  30  31
DOCKED: ENDBRANCH   6  30
DOCKED: BRANCH  29  36
DOCKED: ATOM     36  C   UNL d   1      24.831   5.434  -2.241 +0.11 +0.03    +0.190 C 
DOCKED: BRANCH  36  37
DOCKED: ATOM     37  O   UNL d   1      25.248   4.155  -1.857 -0.41 -0.08    -0.399 OA
DOCKED: ATOM     38  H   UNL d   1      24.491   3.789  -1.320 +0.13 +0.03    +0.209 HD
DOCKED: ENDBRANCH  36  37
DOCKED: ENDBRANCH  29  36
DOCKED: BRANCH  22  39
DOCKED: ATOM     39  C   UNL d   1      20.910   4.778  -6.736 -0.23 +0.01    +0.052 C 
DOCKED: BRANCH  39  40
DOCKED: ATOM     40  C   UNL d   1      21.369   3.366  -7.137 -0.41 +0.02    +0.115 C 
DOCKED: BRANCH  40  41
DOCKED: ATOM     41  C   UNL d   1      22.579   3.337  -8.048 -0.41 +0.03    +0.139 C 
DOCKED: ATOM     42  O   UNL d   1      23.698   3.365  -7.556 -0.04 -0.11    -0.650 OA
DOCKED: BRANCH  41  43
DOCKED: ATOM     43  O   UNL d   1      22.457   3.194  -9.386 -0.41 -0.30    -0.776 OA
DOCKED: ATOM     44  H   UNL d   1      23.194   3.341  -9.993 +0.08 +0.06    +0.167 HD
DOCKED: ENDBRANCH  41  43
DOCKED: ENDBRANCH  40  41
DOCKED: ENDBRANCH  39  40
DOCKED: ENDBRANCH  22  39
DOCKED: BRANCH  12  45
DOCKED: ATOM     45  C   UNL d   1      25.625   8.969   2.554 -0.53 +0.00    +0.004 C 
DOCKED: ATOM     46  C   UNL d   1      26.205   8.171   3.446 -0.59 -0.00    +0.012 C 
DOCKED: ENDBRANCH  12  45
DOCKED: BRANCH  17  47
DOCKED: ATOM     47  C   UNL d   1      20.657   3.147   0.975 -0.63 +0.00    +0.004 C 
DOCKED: ATOM     48  C   UNL d   1      20.938   1.924   0.519 -0.65 +0.00    +0.012 C 
DOCKED: ENDBRANCH  17  47
DOCKED: TORSDOF 12
DOCKED: TER
DOCKED: ENDMDL
________________________________________________________________________________


	BEGINNING GENETIC ALGORITHM DOCKING 2 of 100
Run: 2 Seed: 1155031183 1401613360 [ Run 2 of 100 GA/GALS ]
Beginning LAMARCKIAN GENETIC ALGORITHM (LGA), with a maximum of 25000000 energy evaluations.

Final-Value: -11.242


	FINAL GENETIC ALGORITHM DOCKED STATE
	_______________________________________________


Detailed state:  trans 19.624 5.818 38.178 quatxyzw 0.556959 -0.402993 0.164760 -0.707282 center 8.781 34.984 -0.736 ntor 12 6.7775 106.6391 -39.3716 86.5513 132.7212 90.9943 -160.5688 147.7795 -1.8185 27.2684 -145.4644 -178.6959
State:	 19.624   5.818  38.178   0.788 -0.570  0.233 -89.972      6.78  106.64  -39.37   86.55  132.72   90.99 -160.57  147.78   -1.82   27.27 -145.46 -178.70

DOCKED: MODEL        2
DOCKED: USER    Run = 2
DOCKED: USER    DPF = D:/Protein_go_brrr/autodock/final/1A3N/heme_Co/dock.dpf
DOCKED: USER  
DOCKED: USER    Estimated Free Energy of Binding    =   -6.02 kcal/mol  [=(1)+(2)+(3)-(4)]
DOCKED: USER    Estimated Inhibition Constant, Ki   =   38.67 uM (micromolar)  [Temperature = 298.15 K]
DOCKED: USER    
DOCKED: USER    (1) Final Intermolecular Energy     =   -9.60 kcal/mol
DOCKED: USER        vdW + Hbond + desolv Energy     =   -6.52 kcal/mol
DOCKED: USER        Electrostatic Energy            =   -3.08 kcal/mol
DOCKED: USER    (2) Final Total Internal Energy     =   -1.64 kcal/mol
DOCKED: USER    (3) Torsional Free Energy           =   +3.58 kcal/mol
DOCKED: USER    (4) Unbound System's Energy  [=(2)] =   -1.64 kcal/mol
DOCKED: USER    
DOCKED: USER    
DOCKED: USER    NEWDPF move heme_Co_opt.pdbqt
DOCKED: USER    NEWDPF about 8.781000 34.984000 -0.736000
DOCKED: USER    NEWDPF tran0 19.624091 5.818474 38.178267
DOCKED: USER    NEWDPF quaternion0 0.556959 -0.402993 0.164760 -0.707282
DOCKED: USER    NEWDPF axisangle0 0.787854 -0.570060 0.233063 -89.971610
DOCKED: USER    NEWDPF quat0 0.787854 -0.570060 0.233063 -89.971610
DOCKED: USER    NEWDPF dihe0 6.78 106.64 -39.37 86.55 132.72 90.99 -160.57 147.78 -1.82 27.27 -145.46 -178.70 
DOCKED: USER  keepresnum = 1 
DOCKED: USER  
DOCKED: REMARK  12 active torsions:
DOCKED: REMARK  status: ('A' for Active; 'I' for Inactive)
DOCKED: REMARK    1  A    between atoms: C_6  and  C_10 
DOCKED: REMARK    2  A    between atoms: C_10  and  C_11 
DOCKED: REMARK    3  A    between atoms: C_11  and  C_12 
DOCKED: REMARK    4  A    between atoms: C_12  and  O_14 
DOCKED: REMARK    5  A    between atoms: C_17  and  C_20 
DOCKED: REMARK    6  A    between atoms: C_24  and  C_27 
DOCKED: REMARK    7  A    between atoms: C_31  and  C_34 
DOCKED: REMARK    8  A    between atoms: C_34  and  C_35 
DOCKED: REMARK    9  A    between atoms: C_35  and  C_36 
DOCKED: REMARK   10  A    between atoms: C_36  and  O_38 
DOCKED: REMARK   11  A    between atoms: FE_43  and  C_44 
DOCKED: REMARK   12  A    between atoms: C_44  and  O_45 
DOCKED: USER                              x       y       z     vdW  Elec       q    Type
DOCKED: USER                           _______ _______ _______ _____ _____    ______ ____
DOCKED: ROOT
DOCKED: ATOM      1  C   UNL d   1      18.411   7.181  37.000 -0.14 -0.00    +0.064 A 
DOCKED: ATOM      2  C   UNL d   1      19.563   2.605  36.411 -0.32 +0.00    +0.064 C 
DOCKED: ATOM      3  C   UNL d   1      22.446   2.802  40.217 -0.20 +0.01    +0.064 A 
DOCKED: ATOM      4  C   UNL d   1      20.989   7.365  41.068 -0.09 -0.01    +0.064 A 
DOCKED: ATOM      5  C   UNL d   1      18.542   5.927  36.538 -0.17 +0.00    +0.066 A 
DOCKED: ATOM      6  C   UNL d   1      17.786   5.448  35.450 -0.25 -0.01    -0.021 A 
DOCKED: ATOM      7  C   UNL d   1      18.108   4.114  35.298 -0.32 -0.01    -0.025 A 
DOCKED: ATOM      8  C   UNL d   1      19.057   3.839  36.289 -0.12 +0.00    +0.066 A 
DOCKED: ATOM      9  C   UNL d   1      17.550   3.122  34.266 -0.31 +0.03    +0.051 C 
DOCKED: ATOM     10  C   UNL d   1      20.563   2.236  37.382 -0.23 +0.00    +0.066 A 
DOCKED: ATOM     11  C   UNL d   1      21.235   0.998  37.471 -0.14 +0.00    -0.021 A 
DOCKED: ATOM     12  C   UNL d   1      22.072   1.084  38.587 -0.19 -0.00    +0.000 A 
DOCKED: ATOM     13  C   UNL d   1      21.859   2.369  39.087 -0.20 +0.00    +0.070 A 
DOCKED: ATOM     14  C   UNL d   1      21.140  -0.142  36.489 -0.28 -0.00    +0.052 C 
DOCKED: ATOM     15  C   UNL d   1      22.299   4.072  40.900 -0.17 +0.01    +0.066 A 
DOCKED: ATOM     16  C   UNL d   1      22.821   4.404  42.142 -0.14 -0.00    -0.021 A 
DOCKED: ATOM     17  C   UNL d   1      22.402   5.718  42.393 -0.11 +0.00    +0.000 A 
DOCKED: ATOM     18  C   UNL d   1      21.668   6.092  41.273 -0.11 +0.00    +0.070 A 
DOCKED: ATOM     19  C   UNL d   1      23.664   3.495  43.010 -0.07 +0.01    +0.052 C 
DOCKED: ATOM     20  C   UNL d   1      20.199   7.719  40.026 -0.10 -0.02    +0.066 A 
DOCKED: ATOM     21  C   UNL d   1      19.571   8.961  39.959 -0.08 +0.01    -0.025 A 
DOCKED: ATOM     22  C   UNL d   1      18.843   8.948  38.782 -0.07 +0.01    -0.021 A 
DOCKED: ATOM     23  C   UNL d   1      19.056   7.684  38.192 -0.06 -0.02    +0.066 A 
DOCKED: ATOM     24  C   UNL d   1      19.643  10.098  40.974 -0.04 -0.01    +0.051 C 
DOCKED: ATOM     25  N   UNL d   1      19.349   4.946  37.068 -0.12 +0.01    -0.248 N 
DOCKED: ATOM     26  N   UNL d   1      20.988   3.083  38.325 -0.14 -0.01    -0.248 N 
DOCKED: ATOM     27  N   UNL d   1      21.602   5.077  40.418 -0.10 -0.01    -0.248 N 
DOCKED: ATOM     28  N   UNL d   1      19.874   6.936  38.943 -0.09 +0.07    -0.248 N 
DOCKED: ATOM     29 FE   UNL d   1      20.542   5.019  38.842 -0.04 -0.00    +0.000 Fe
DOCKED: ENDROOT
DOCKED: BRANCH   6  30
DOCKED: ATOM     30  C   UNL d   1      16.744   6.227  34.654 -0.31 +0.04    +0.052 C 
DOCKED: BRANCH  30  31
DOCKED: ATOM     31  C   UNL d   1      15.596   6.670  35.560 -0.17 +0.08    +0.115 C 
DOCKED: BRANCH  31  32
DOCKED: ATOM     32  C   UNL d   1      14.582   7.524  34.831 -0.27 +0.14    +0.139 C 
DOCKED: ATOM     33  O   UNL d   1      13.863   7.012  33.985 -0.05 -0.67    -0.650 OA
DOCKED: BRANCH  32  34
DOCKED: ATOM     34  O   UNL d   1      14.408   8.835  35.119 -0.23 -1.44    -0.776 OA
DOCKED: ATOM     35  H   UNL d   1      14.931   9.322  35.770 +0.05 +0.35    +0.167 HD
DOCKED: ENDBRANCH  32  34
DOCKED: ENDBRANCH  31  32
DOCKED: ENDBRANCH  30  31
DOCKED: ENDBRANCH   6  30
DOCKED: BRANCH  29  36
DOCKED: ATOM     36  C   UNL d   1      18.845   4.349  39.875 -0.02 +0.01    +0.190 C 
DOCKED: BRANCH  36  37
DOCKED: ATOM     37  O   UNL d   1      17.536   4.705  40.218 +0.00 -0.03    -0.399 OA
DOCKED: ATOM     38  H   UNL d   1      17.436   5.646  39.902 +0.01 +0.02    +0.209 HD
DOCKED: ENDBRANCH  36  37
DOCKED: ENDBRANCH  29  36
DOCKED: BRANCH  22  39
DOCKED: ATOM     39  C   UNL d   1      17.944  10.066  38.291 -0.13 +0.00    +0.052 C 
DOCKED: BRANCH  39  40
DOCKED: ATOM     40  C   UNL d   1      16.608  10.063  39.054 -0.07 +0.04    +0.115 C 
DOCKED: BRANCH  40  41
DOCKED: ATOM     41  C   UNL d   1      15.475  10.760  38.332 -0.07 +0.13    +0.139 C 
DOCKED: ATOM     42  O   UNL d   1      15.462  11.981  38.276 -0.03 -0.64    -0.650 OA
DOCKED: BRANCH  41  43
DOCKED: ATOM     43  O   UNL d   1      14.521  10.066  37.671 -0.23 -1.40    -0.776 OA
DOCKED: ATOM     44  H   UNL d   1      14.703   9.229  37.225 +0.03 +0.23    +0.167 HD
DOCKED: ENDBRANCH  41  43
DOCKED: ENDBRANCH  40  41
DOCKED: ENDBRANCH  39  40
DOCKED: ENDBRANCH  22  39
DOCKED: BRANCH  12  45
DOCKED: ATOM     45  C   UNL d   1      23.058   0.113  39.223 -0.22 +0.00    +0.004 C 
DOCKED: ATOM     46  C   UNL d   1      24.295  -0.222  38.868 -0.31 +0.00    +0.012 C 
DOCKED: ENDBRANCH  12  45
DOCKED: BRANCH  17  47
DOCKED: ATOM     47  C   UNL d   1      22.610   6.571  43.601 -0.05 +0.00    +0.004 C 
DOCKED: ATOM     48  C   UNL d   1      23.392   7.653  43.613 -0.06 +0.00    +0.012 C 
DOCKED: ENDBRANCH  17  47
DOCKED: TORSDOF 12
DOCKED: TER
DOCKED: ENDMDL
________________________________________________________________________________


	BEGINNING GENETIC ALGORITHM DOCKING 3 of 100
Run: 3 Seed: 700116654 312010255 [ Run 3 of 100 GA/GALS ]
Beginning LAMARCKIAN GENETIC ALGORITHM (LGA), with a maximum of 25000000 energy evaluations.

Final-Value: -14.124


	FINAL GENETIC ALGORITHM DOCKED STATE
	_______________________________________________


Detailed state:  trans 8.440 14.347 33.686 quatxyzw -0.727084 0.362830 0.578201 0.073400 center 8.781 34.984 -0.736 ntor 12 129.3656 74.3942 -7.2130 115.6588 132.7198 105.8176 -165.7487 -69.3351 -69.0795 171.0520 158.3874 156.3099
State:	  8.440  14.347  33.686  -0.729  0.364  0.580 171.581    129.37   74.39   -7.21  115.66  132.72  105.82 -165.75  -69.34  -69.08  171.05  158.39  156.31

DOCKED: MODEL        3
DOCKED: USER    Run = 3
DOCKED: USER    DPF = D:/Protein_go_brrr/autodock/final/1A3N/heme_Co/dock.dpf
DOCKED: USER  
DOCKED: USER    Estimated Free Energy of Binding    =   -8.21 kcal/mol  [=(1)+(2)+(3)-(4)]
DOCKED: USER    Estimated Inhibition Constant, Ki   =  957.78 nM (nanomolar)  [Temperature = 298.15 K]
DOCKED: USER    
DOCKED: USER    (1) Final Intermolecular Energy     =  -11.79 kcal/mol
DOCKED: USER        vdW + Hbond + desolv Energy     =   -9.36 kcal/mol
DOCKED: USER        Electrostatic Energy            =   -2.43 kcal/mol
DOCKED: USER    (2) Final Total Internal Energy     =   -2.33 kcal/mol
DOCKED: USER    (3) Torsional Free Energy           =   +3.58 kcal/mol
DOCKED: USER    (4) Unbound System's Energy  [=(2)] =   -2.33 kcal/mol
DOCKED: USER    
DOCKED: USER    
DOCKED: USER    NEWDPF move heme_Co_opt.pdbqt
DOCKED: USER    NEWDPF about 8.781000 34.984000 -0.736000
DOCKED: USER    NEWDPF tran0 8.439781 14.347479 33.685605
DOCKED: USER    NEWDPF quaternion0 -0.727084 0.362830 0.578201 0.073400
DOCKED: USER    NEWDPF axisangle0 -0.729050 0.363812 0.579765 171.581402
DOCKED: USER    NEWDPF quat0 -0.729050 0.363812 0.579765 171.581402
DOCKED: USER    NEWDPF dihe0 129.37 74.39 -7.21 115.66 132.72 105.82 -165.75 -69.34 -69.08 171.05 158.39 156.31 
DOCKED: USER  keepresnum = 1 
DOCKED: USER  
DOCKED: REMARK  12 active torsions:
DOCKED: REMARK  status: ('A' for Active; 'I' for Inactive)
DOCKED: REMARK    1  A    between atoms: C_6  and  C_10 
DOCKED: REMARK    2  A    between atoms: C_10  and  C_11 
DOCKED: REMARK    3  A    between atoms: C_11  and  C_12 
DOCKED: REMARK    4  A    between atoms: C_12  and  O_14 
DOCKED: REMARK    5  A    between atoms: C_17  and  C_20 
DOCKED: REMARK    6  A    between atoms: C_24  and  C_27 
DOCKED: REMARK    7  A    between atoms: C_31  and  C_34 
DOCKED: REMARK    8  A    between atoms: C_34  and  C_35 
DOCKED: REMARK    9  A    between atoms: C_35  and  C_36 
DOCKED: REMARK   10  A    between atoms: C_36  and  O_38 
DOCKED: REMARK   11  A    between atoms: FE_43  and  C_44 
DOCKED: REMARK   12  A    between atoms: C_44  and  O_45 
DOCKED: USER                              x       y       z     vdW  Elec       q    Type
DOCKED: USER                           _______ _______ _______ _____ _____    ______ ____
DOCKED: ROOT
DOCKED: ATOM      1  C   UNL d   1       8.847  14.905  35.745 -0.08 +0.05    +0.064 A 
DOCKED: ATOM      2  C   UNL d   1       6.771  17.233  32.156 -0.22 +0.03    +0.064 C 
DOCKED: ATOM      3  C   UNL d   1       7.796  13.637  29.181 -0.27 +0.01    +0.064 A 
DOCKED: ATOM      4  C   UNL d   1       9.577  11.075  32.912 -0.17 +0.04    +0.064 A 
DOCKED: ATOM      5  C   UNL d   1       8.237  15.820  34.975 -0.11 +0.06    +0.066 A 
DOCKED: ATOM      6  C   UNL d   1       7.711  17.014  35.507 -0.09 -0.02    -0.021 A 
DOCKED: ATOM      7  C   UNL d   1       7.090  17.675  34.466 -0.12 -0.02    -0.025 A 
DOCKED: ATOM      8  C   UNL d   1       7.277  16.865  33.340 -0.16 +0.05    +0.066 A 
DOCKED: ATOM      9  C   UNL d   1       6.343  19.017  34.513 -0.12 +0.03    +0.051 C 
DOCKED: ATOM     10  C   UNL d   1       6.936  16.478  30.938 -0.27 +0.02    +0.066 A 
DOCKED: ATOM     11  C   UNL d   1       6.551  16.878  29.640 -0.33 -0.00    -0.021 A 
DOCKED: ATOM     12  C   UNL d   1       6.865  15.812  28.791 -0.41 +0.00    +0.000 A 
DOCKED: ATOM     13  C   UNL d   1       7.428  14.850  29.630 -0.33 +0.02    +0.070 A 
DOCKED: ATOM     14  C   UNL d   1       6.011  18.228  29.245 -0.35 +0.01    +0.052 C 
DOCKED: ATOM     15  C   UNL d   1       8.341  12.511  29.913 -0.22 +0.02    +0.066 A 
DOCKED: ATOM     16  C   UNL d   1       8.565  11.236  29.415 -0.29 -0.00    -0.021 A 
DOCKED: ATOM     17  C   UNL d   1       9.076  10.492  30.488 -0.39 +0.00    +0.000 A 
DOCKED: ATOM     18  C   UNL d   1       9.141  11.381  31.556 -0.20 +0.03    +0.070 A 
DOCKED: ATOM     19  C   UNL d   1       8.293  10.788  27.996 -0.39 +0.01    +0.052 C 
DOCKED: ATOM     20  C   UNL d   1       9.568  11.899  33.987 -0.20 +0.05    +0.066 A 
DOCKED: ATOM     21  C   UNL d   1       9.979  11.478  35.250 -0.20 -0.03    -0.025 A 
DOCKED: ATOM     22  C   UNL d   1       9.807  12.570  36.081 -0.13 -0.02    -0.021 A 
DOCKED: ATOM     23  C   UNL d   1       9.283  13.607  35.280 -0.11 +0.05    +0.066 A 
DOCKED: ATOM     24  C   UNL d   1      10.492  10.098  35.651 -0.24 +0.06    +0.051 C 
DOCKED: ATOM     25  N   UNL d   1       7.990  15.713  33.625 -0.11 -0.20    -0.248 N 
DOCKED: ATOM     26  N   UNL d   1       7.521  15.276  30.918 -0.18 -0.09    -0.248 N 
DOCKED: ATOM     27  N   UNL d   1       8.667  12.566  31.185 -0.19 -0.09    -0.248 N 
DOCKED: ATOM     28  N   UNL d   1       9.135  13.204  34.012 -0.10 -0.17    -0.248 N 
DOCKED: ATOM     29 FE   UNL d   1       8.350  14.044  32.335 -0.05 +0.00    +0.000 Fe
DOCKED: ENDROOT
DOCKED: BRANCH   6  30
DOCKED: ATOM     30  C   UNL d   1       7.739  17.447  36.969 -0.07 +0.04    +0.052 C 
DOCKED: BRANCH  30  31
DOCKED: ATOM     31  C   UNL d   1       6.318  17.575  37.519 -0.06 +0.11    +0.115 C 
DOCKED: BRANCH  31  32
DOCKED: ATOM     32  C   UNL d   1       5.981  16.480  38.507 -0.04 +0.14    +0.139 C 
DOCKED: ATOM     33  O   UNL d   1       6.591  16.416  39.565 +0.00 -0.35    -0.650 OA
DOCKED: BRANCH  32  34
DOCKED: ATOM     34  O   UNL d   1       4.988  15.590  38.281 -0.33 -1.33    -0.776 OA
DOCKED: ATOM     35  H   UNL d   1       5.104  14.630  38.297 +0.01 +0.28    +0.167 HD
DOCKED: ENDBRANCH  32  34
DOCKED: ENDBRANCH  31  32
DOCKED: ENDBRANCH  30  31
DOCKED: ENDBRANCH   6  30
DOCKED: BRANCH  29  36
DOCKED: ATOM     36  C   UNL d   1       6.438  13.367  32.863 -0.07 +0.14    +0.190 C 
DOCKED: BRANCH  36  37
DOCKED: ATOM     37  O   UNL d   1       5.604  13.127  33.960 -0.67 -0.61    -0.399 OA
DOCKED: ATOM     38  H   UNL d   1       6.206  12.748  34.661 +0.08 +0.28    +0.209 HD
DOCKED: ENDBRANCH  36  37
DOCKED: ENDBRANCH  29  36
DOCKED: BRANCH  22  39
DOCKED: ATOM     39  C   UNL d   1      10.070  12.589  37.575 -0.08 +0.04    +0.052 C 
DOCKED: BRANCH  39  40
DOCKED: ATOM     40  C   UNL d   1       8.752  12.493  38.360 -0.03 +0.06    +0.115 C 
DOCKED: BRANCH  40  41
DOCKED: ATOM     41  C   UNL d   1       7.511  12.751  37.532 -0.07 +0.10    +0.139 C 
DOCKED: ATOM     42  O   UNL d   1       7.183  11.940  36.677 +0.04 -0.49    -0.650 OA
DOCKED: BRANCH  41  43
DOCKED: ATOM     43  O   UNL d   1       6.706  13.810  37.769 +0.01 -0.89    -0.776 OA
DOCKED: ATOM     44  H   UNL d   1       6.875  14.442  38.479 +0.01 +0.15    +0.167 HD
DOCKED: ENDBRANCH  41  43
DOCKED: ENDBRANCH  40  41
DOCKED: ENDBRANCH  39  40
DOCKED: ENDBRANCH  22  39
DOCKED: BRANCH  12  45
DOCKED: ATOM     45  C   UNL d   1       6.717  15.601  27.291 -0.52 +0.00    +0.004 C 
DOCKED: ATOM     46  C   UNL d   1       7.631  15.580  26.325 -0.50 +0.00    +0.012 C 
DOCKED: ENDBRANCH  12  45
DOCKED: BRANCH  17  47
DOCKED: ATOM     47  C   UNL d   1       9.439   9.045  30.559 -0.47 +0.00    +0.004 C 
DOCKED: ATOM     48  C   UNL d   1      10.694   8.605  30.678 -0.56 +0.00    +0.012 C 
DOCKED: ENDBRANCH  17  47
DOCKED: TORSDOF 12
DOCKED: TER
DOCKED: ENDMDL
________________________________________________________________________________


	BEGINNING GENETIC ALGORITHM DOCKING 4 of 100
Run: 4 Seed: 706122035 1226735096 [ Run 4 of 100 GA/GALS ]
Beginning LAMARCKIAN GENETIC ALGORITHM (LGA), with a maximum of 25000000 energy evaluations.

Final-Value: -10.088


	FINAL GENETIC ALGORITHM DOCKED STATE
	_______________________________________________


Detailed state:  trans 10.430 -20.095 25.261 quatxyzw 0.464445 -0.332852 0.737692 -0.359599 center 8.781 34.984 -0.736 ntor 12 35.1556 108.5719 180.0000 125.8435 132.9942 132.7580 -28.8690 65.9834 33.1850 -72.2868 40.9069 17.6585
State:	 10.430 -20.095  25.261   0.498 -0.357  0.791 -137.849     35.16  108.57  180.00  125.84  132.99  132.76  -28.87   65.98   33.19  -72.29   40.91   17.66

DOCKED: MODEL        4
DOCKED: USER    Run = 4
DOCKED: USER    DPF = D:/Protein_go_brrr/autodock/final/1A3N/heme_Co/dock.dpf
DOCKED: USER  
DOCKED: USER    Estimated Free Energy of Binding    =   -4.26 kcal/mol  [=(1)+(2)+(3)-(4)]
DOCKED: USER    Estimated Inhibition Constant, Ki   =  758.69 uM (micromolar)  [Temperature = 298.15 K]
DOCKED: USER    
DOCKED: USER    (1) Final Intermolecular Energy     =   -7.84 kcal/mol
DOCKED: USER        vdW + Hbond + desolv Energy     =   -4.89 kcal/mol
DOCKED: USER        Electrostatic Energy            =   -2.95 kcal/mol
DOCKED: USER    (2) Final Total Internal Energy     =   -2.25 kcal/mol
DOCKED: USER    (3) Torsional Free Energy           =   +3.58 kcal/mol
DOCKED: USER    (4) Unbound System's Energy  [=(2)] =   -2.25 kcal/mol
DOCKED: USER    
DOCKED: USER    
DOCKED: USER    NEWDPF move heme_Co_opt.pdbqt
DOCKED: USER    NEWDPF about 8.781000 34.984000 -0.736000
DOCKED: USER    NEWDPF tran0 10.430082 -20.094807 25.261018
DOCKED: USER    NEWDPF quaternion0 0.464445 -0.332852 0.737692 -0.359599
DOCKED: USER    NEWDPF axisangle0 0.497740 -0.356713 0.790576 -137.848893
DOCKED: USER    NEWDPF quat0 0.497740 -0.356713 0.790576 -137.848893
DOCKED: USER    NEWDPF dihe0 35.16 108.57 180.00 125.84 132.99 132.76 -28.87 65.98 33.19 -72.29 40.91 17.66 
DOCKED: USER  keepresnum = 1 
DOCKED: USER  
DOCKED: REMARK  12 active torsions:
DOCKED: REMARK  status: ('A' for Active; 'I' for Inactive)
DOCKED: REMARK    1  A    between atoms: C_6  and  C_10 
DOCKED: REMARK    2  A    between atoms: C_10  and  C_11 
DOCKED: REMARK    3  A    between atoms: C_11  and  C_12 
DOCKED: REMARK    4  A    between atoms: C_12  and  O_14 
DOCKED: REMARK    5  A    between atoms: C_17  and  C_20 
DOCKED: REMARK    6  A    between atoms: C_24  and  C_27 
DOCKED: REMARK    7  A    between atoms: C_31  and  C_34 
DOCKED: REMARK    8  A    between atoms: C_34  and  C_35 
DOCKED: REMARK    9  A    between atoms: C_35  and  C_36 
DOCKED: REMARK   10  A    between atoms: C_36  and  O_38 
DOCKED: REMARK   11  A    between atoms: FE_43  and  C_44 
DOCKED: REMARK   12  A    between atoms: C_44  and  O_45 
DOCKED: USER                              x       y       z     vdW  Elec       q    Type
DOCKED: USER                           _______ _______ _______ _____ _____    ______ ____
DOCKED: ROOT
DOCKED: ATOM      1  C   UNL d   1      10.232 -20.081  23.099 -0.11 +0.02    +0.064 A 
DOCKED: ATOM      2  C   UNL d   1      13.741 -21.502  25.976 -0.20 +0.01    +0.064 C 
DOCKED: ATOM      3  C   UNL d   1      11.329 -19.890  29.774 -0.13 +0.00    +0.064 A 
DOCKED: ATOM      4  C   UNL d   1       7.566 -18.781  26.897 -0.07 +0.02    +0.064 A 
DOCKED: ATOM      5  C   UNL d   1      11.383 -20.555  23.602 -0.13 +0.02    +0.066 A 
DOCKED: ATOM      6  C   UNL d   1      12.348 -21.189  22.795 -0.15 -0.01    -0.021 A 
DOCKED: ATOM      7  C   UNL d   1      13.353 -21.619  23.638 -0.19 -0.01    -0.025 A 
DOCKED: ATOM      8  C   UNL d   1      12.968 -21.215  24.921 -0.16 +0.01    +0.066 A 
DOCKED: ATOM      9  C   UNL d   1      14.633 -22.384  23.266 -0.22 +0.01    +0.051 C 
DOCKED: ATOM     10  C   UNL d   1      13.439 -21.104  27.329 -0.14 +0.01    +0.066 A 
DOCKED: ATOM     11  C   UNL d   1      14.275 -21.250  28.458 -0.14 -0.00    -0.021 A 
DOCKED: ATOM     12  C   UNL d   1      13.549 -20.769  29.550 -0.10 -0.00    +0.000 A 
DOCKED: ATOM     13  C   UNL d   1      12.332 -20.354  29.007 -0.12 +0.00    +0.070 A 
DOCKED: ATOM     14  C   UNL d   1      15.703 -21.731  28.453 -0.16 -0.00    +0.052 C 
DOCKED: ATOM     15  C   UNL d   1       9.996 -19.470  29.388 -0.05 +0.03    +0.066 A 
DOCKED: ATOM     16  C   UNL d   1       8.958 -19.138  30.247 -0.09 -0.01    -0.021 A 
DOCKED: ATOM     17  C   UNL d   1       7.869 -18.820  29.422 -0.08 +0.00    +0.000 A 
DOCKED: ATOM     18  C   UNL d   1       8.337 -18.967  28.120 -0.08 +0.04    +0.070 A 
DOCKED: ATOM     19  C   UNL d   1       9.034 -19.137  31.757 -0.10 -0.00    +0.052 C 
DOCKED: ATOM     20  C   UNL d   1       7.974 -19.002  25.624 -0.08 +0.02    +0.066 A 
DOCKED: ATOM     21  C   UNL d   1       7.129 -18.822  24.531 -0.06 -0.01    -0.025 A 
DOCKED: ATOM     22  C   UNL d   1       7.879 -19.162  23.420 -0.08 -0.01    -0.021 A 
DOCKED: ATOM     23  C   UNL d   1       9.151 -19.546  23.895 -0.09 +0.02    +0.066 A 
DOCKED: ATOM     24  C   UNL d   1       5.672 -18.369  24.545 -0.10 +0.01    +0.051 C 
DOCKED: ATOM     25  N   UNL d   1      11.754 -20.548  24.928 -0.07 -0.06    -0.248 N 
DOCKED: ATOM     26  N   UNL d   1      12.289 -20.505  27.657 -0.07 -0.04    -0.248 N 
DOCKED: ATOM     27  N   UNL d   1       9.598 -19.384  28.139 -0.04 -0.13    -0.248 N 
DOCKED: ATOM     28  N   UNL d   1       9.212 -19.453  25.229 -0.06 -0.08    -0.248 N 
DOCKED: ATOM     29 FE   UNL d   1      10.610 -19.930  26.626 -0.03 +0.00    +0.000 Fe
DOCKED: ENDROOT
DOCKED: BRANCH   6  30
DOCKED: ATOM     30  C   UNL d   1      12.255 -21.437  21.293 -0.13 +0.02    +0.052 C 
DOCKED: BRANCH  30  31
DOCKED: ATOM     31  C   UNL d   1      13.474 -20.856  20.577 -0.12 +0.07    +0.115 C 
DOCKED: BRANCH  31  32
DOCKED: ATOM     32  C   UNL d   1      13.150 -20.383  19.176 +0.12 +0.16    +0.139 C 
DOCKED: ATOM     33  O   UNL d   1      14.049 -20.270  18.357 -0.15 -0.63    -0.650 OA
DOCKED: BRANCH  32  34
DOCKED: ATOM     34  O   UNL d   1      11.882 -20.123  18.782 -0.40 -1.25    -0.776 OA
DOCKED: ATOM     35  H   UNL d   1      11.185 -19.798  19.370 +0.01 +0.27    +0.167 HD
DOCKED: ENDBRANCH  32  34
DOCKED: ENDBRANCH  31  32
DOCKED: ENDBRANCH  30  31
DOCKED: ENDBRANCH   6  30
DOCKED: BRANCH  29  36
DOCKED: ATOM     36  C   UNL d   1       9.886 -21.896  26.712 -0.01 +0.03    +0.190 C 
DOCKED: BRANCH  36  37
DOCKED: ATOM     37  O   UNL d   1       9.696 -23.048  25.943 +0.00 -0.04    -0.399 OA
DOCKED: ATOM     38  H   UNL d   1       9.967 -22.786  25.019 +0.01 +0.03    +0.209 HD
DOCKED: ENDBRANCH  36  37
DOCKED: ENDBRANCH  29  36
DOCKED: BRANCH  22  39
DOCKED: ATOM     39  C   UNL d   1       7.375 -19.177  21.989 -0.09 +0.02    +0.052 C 
DOCKED: BRANCH  39  40
DOCKED: ATOM     40  C   UNL d   1       8.173 -18.189  21.122 -0.12 +0.07    +0.115 C 
DOCKED: BRANCH  40  41
DOCKED: ATOM     41  C   UNL d   1       9.219 -18.837  20.239 -0.15 +0.13    +0.139 C 
DOCKED: ATOM     42  O   UNL d   1      10.177 -18.176  19.863 -0.22 -1.34    -0.650 OA
DOCKED: BRANCH  41  43
DOCKED: ATOM     43  O   UNL d   1       9.169 -20.150  19.926 +0.03 -0.47    -0.776 OA
DOCKED: ATOM     44  H   UNL d   1       9.875 -20.596  19.440 +0.02 +0.11    +0.167 HD
DOCKED: ENDBRANCH  41  43
DOCKED: ENDBRANCH  40  41
DOCKED: ENDBRANCH  39  40
DOCKED: ENDBRANCH  22  39
DOCKED: BRANCH  12  45
DOCKED: ATOM     45  C   UNL d   1      13.869 -20.636  31.033 -0.19 -0.00    +0.004 C 
DOCKED: ATOM     46  C   UNL d   1      13.959 -19.558  31.806 -0.29 -0.01    +0.012 C 
DOCKED: ENDBRANCH  12  45
DOCKED: BRANCH  17  47
DOCKED: ATOM     47  C   UNL d   1       6.469 -18.452  29.789 -0.05 +0.00    +0.004 C 
DOCKED: ATOM     48  C   UNL d   1       5.954 -17.235  29.603 -0.06 +0.00    +0.012 C 
DOCKED: ENDBRANCH  17  47
DOCKED: TORSDOF 12
DOCKED: TER
DOCKED: ENDMDL
________________________________________________________________________________


	BEGINNING GENETIC ALGORITHM DOCKING 5 of 100
Run: 5 Seed: 256404607 562825140 [ Run 5 of 100 GA/GALS ]
Beginning LAMARCKIAN GENETIC ALGORITHM (LGA), with a maximum of 25000000 energy evaluations.

Final-Value: -11.508


	FINAL GENETIC ALGORITHM DOCKED STATE
	_______________________________________________


Detailed state:  trans 7.778 15.506 33.827 quatxyzw 0.548072 0.796904 0.242819 -0.074828 center 8.781 34.984 -0.736 ntor 12 -43.0323 139.6081 27.7953 132.2016 -87.5870 -50.6240 40.1345 177.2348 -1.4879 -63.9806 -6.2493 63.5237
State:	  7.778  15.506  33.827   0.550  0.799  0.244 -171.417    -43.03  139.61   27.80  132.20  -87.59  -50.62   40.13  177.23   -1.49  -63.98   -6.25   63.52

DOCKED: MODEL        5
DOCKED: USER    Run = 5
DOCKED: USER    DPF = D:/Protein_go_brrr/autodock/final/1A3N/heme_Co/dock.dpf
DOCKED: USER  
DOCKED: USER    Estimated Free Energy of Binding    =   -6.34 kcal/mol  [=(1)+(2)+(3)-(4)]
DOCKED: USER    Estimated Inhibition Constant, Ki   =   22.72 uM (micromolar)  [Temperature = 298.15 K]
DOCKED: USER    
DOCKED: USER    (1) Final Intermolecular Energy     =   -9.91 kcal/mol
DOCKED: USER        vdW + Hbond + desolv Energy     =   -7.19 kcal/mol
DOCKED: USER        Electrostatic Energy            =   -2.73 kcal/mol
DOCKED: USER    (2) Final Total Internal Energy     =   -1.59 kcal/mol
DOCKED: USER    (3) Torsional Free Energy           =   +3.58 kcal/mol
DOCKED: USER    (4) Unbound System's Energy  [=(2)] =   -1.59 kcal/mol
DOCKED: USER    
DOCKED: USER    
DOCKED: USER    NEWDPF move heme_Co_opt.pdbqt
DOCKED: USER    NEWDPF about 8.781000 34.984000 -0.736000
DOCKED: USER    NEWDPF tran0 7.778340 15.506129 33.826765
DOCKED: USER    NEWDPF quaternion0 0.548072 0.796904 0.242819 -0.074828
DOCKED: USER    NEWDPF axisangle0 0.549613 0.799145 0.243502 -171.417352
DOCKED: USER    NEWDPF quat0 0.549613 0.799145 0.243502 -171.417352
DOCKED: USER    NEWDPF dihe0 -43.03 139.61 27.80 132.20 -87.59 -50.62 40.13 177.23 -1.49 -63.98 -6.25 63.52 
DOCKED: USER  keepresnum = 1 
DOCKED: USER  
DOCKED: REMARK  12 active torsions:
DOCKED: REMARK  status: ('A' for Active; 'I' for Inactive)
DOCKED: REMARK    1  A    between atoms: C_6  and  C_10 
DOCKED: REMARK    2  A    between atoms: C_10  and  C_11 
DOCKED: REMARK    3  A    between atoms: C_11  and  C_12 
DOCKED: REMARK    4  A    between atoms: C_12  and  O_14 
DOCKED: REMARK    5  A    between atoms: C_17  and  C_20 
DOCKED: REMARK    6  A    between atoms: C_24  and  C_27 
DOCKED: REMARK    7  A    between atoms: C_31  and  C_34 
DOCKED: REMARK    8  A    between atoms: C_34  and  C_35 
DOCKED: REMARK    9  A    between atoms: C_35  and  C_36 
DOCKED: REMARK   10  A    between atoms: C_36  and  O_38 
DOCKED: REMARK   11  A    between atoms: FE_43  and  C_44 
DOCKED: REMARK   12  A    between atoms: C_44  and  O_45 
DOCKED: USER                              x       y       z     vdW  Elec       q    Type
DOCKED: USER                           _______ _______ _______ _____ _____    ______ ____
DOCKED: ROOT
DOCKED: ATOM      1  C   UNL d   1       8.619  13.627  34.517 -0.14 +0.05    +0.064 A 
DOCKED: ATOM      2  C   UNL d   1       7.343  15.163  30.201 -0.37 +0.02    +0.064 C 
DOCKED: ATOM      3  C   UNL d   1       5.628  19.197  32.103 -0.17 +0.02    +0.064 A 
DOCKED: ATOM      4  C   UNL d   1       7.270  17.820  36.471 -0.07 +0.05    +0.064 A 
DOCKED: ATOM      5  C   UNL d   1       8.364  13.734  33.202 -0.19 +0.04    +0.066 A 
DOCKED: ATOM      6  C   UNL d   1       8.788  12.761  32.277 -0.27 -0.01    -0.021 A 
DOCKED: ATOM      7  C   UNL d   1       8.435  13.223  31.024 -0.30 -0.01    -0.025 A 
DOCKED: ATOM      8  C   UNL d   1       7.797  14.449  31.240 -0.28 +0.03    +0.066 A 
DOCKED: ATOM      9  C   UNL d   1       8.683  12.548  29.666 -0.29 +0.01    +0.051 C 
DOCKED: ATOM     10  C   UNL d   1       6.652  16.421  30.328 -0.32 +0.02    +0.066 A 
DOCKED: ATOM     11  C   UNL d   1       6.029  17.150  29.291 -0.39 -0.00    -0.021 A 
DOCKED: ATOM     12  C   UNL d   1       5.533  18.319  29.874 -0.35 +0.00    +0.000 A 
DOCKED: ATOM     13  C   UNL d   1       5.879  18.213  31.222 -0.24 +0.02    +0.070 A 
DOCKED: ATOM     14  C   UNL d   1       5.846  16.694  27.866 -0.42 +0.00    +0.052 C 
DOCKED: ATOM     15  C   UNL d   1       5.960  19.276  33.512 -0.12 +0.03    +0.066 A 
DOCKED: ATOM     16  C   UNL d   1       5.803  20.383  34.334 -0.06 -0.01    -0.021 A 
DOCKED: ATOM     17  C   UNL d   1       6.277  19.991  35.594 -0.05 +0.00    +0.000 A 
DOCKED: ATOM     18  C   UNL d   1       6.672  18.666  35.445 -0.09 +0.05    +0.070 A 
DOCKED: ATOM     19  C   UNL d   1       5.232  21.717  33.908 -0.03 +0.01    +0.052 C 
DOCKED: ATOM     20  C   UNL d   1       7.741  16.558  36.327 -0.07 +0.07    +0.066 A 
DOCKED: ATOM     21  C   UNL d   1       8.327  15.859  37.380 -0.04 -0.02    -0.025 A 
DOCKED: ATOM     22  C   UNL d   1       8.700  14.636  36.853 -0.05 -0.02    -0.021 A 
DOCKED: ATOM     23  C   UNL d   1       8.330  14.654  35.491 -0.10 +0.06    +0.066 A 
DOCKED: ATOM     24  C   UNL d   1       8.541  16.340  38.812 -0.01 +0.02    +0.051 C 
DOCKED: ATOM     25  N   UNL d   1       7.734  14.788  32.581 -0.14 -0.16    -0.248 N 
DOCKED: ATOM     26  N   UNL d   1       6.505  17.039  31.505 -0.17 -0.11    -0.248 N 
DOCKED: ATOM     27  N   UNL d   1       6.498  18.283  34.185 -0.10 -0.18    -0.248 N 
DOCKED: ATOM     28  N   UNL d   1       7.751  15.817  35.168 -0.08 -0.32    -0.248 N 
DOCKED: ATOM     29 FE   UNL d   1       7.080  16.638  33.434 -0.04 +0.00    +0.000 Fe
DOCKED: ENDROOT
DOCKED: BRANCH   6  30
DOCKED: ATOM     30  C   UNL d   1       9.569  11.489  32.588 -0.21 +0.03    +0.052 C 
DOCKED: BRANCH  30  31
DOCKED: ATOM     31  C   UNL d   1       8.643  10.417  33.163 -0.34 +0.05    +0.115 C 
DOCKED: BRANCH  31  32
DOCKED: ATOM     32  C   UNL d   1       9.360   9.108  33.411 -0.37 +0.07    +0.139 C 
DOCKED: ATOM     33  O   UNL d   1       9.411   8.272  32.521 -0.06 -0.20    -0.650 OA
DOCKED: BRANCH  32  34
DOCKED: ATOM     34  O   UNL d   1       9.994   8.846  34.578 +0.09 -0.51    -0.776 OA
DOCKED: ATOM     35  H   UNL d   1      10.598   9.460  35.019 +0.07 +0.16    +0.167 HD
DOCKED: ENDBRANCH  32  34
DOCKED: ENDBRANCH  31  32
DOCKED: ENDBRANCH  30  31
DOCKED: ENDBRANCH   6  30
DOCKED: BRANCH  29  36
DOCKED: ATOM     36  C   UNL d   1       8.996  17.378  33.015 -0.11 +0.08    +0.190 C 
DOCKED: BRANCH  36  37
DOCKED: ATOM     37  O   UNL d   1       9.704  18.558  32.763 -0.08 -0.11    -0.399 OA
DOCKED: ATOM     38  H   UNL d   1       9.178  19.274  33.218 +0.05 +0.05    +0.209 HD
DOCKED: ENDBRANCH  36  37
DOCKED: ENDBRANCH  29  36
DOCKED: BRANCH  22  39
DOCKED: ATOM     39  C   UNL d   1       9.430  13.539  37.606 -0.04 +0.03    +0.052 C 
DOCKED: BRANCH  39  40
DOCKED: ATOM     40  C   UNL d   1       9.351  12.209  36.840 -0.10 +0.09    +0.115 C 
DOCKED: BRANCH  40  41
DOCKED: ATOM     41  C   UNL d   1      10.666  11.749  36.248 -0.07 +0.19    +0.139 C 
DOCKED: ATOM     42  O   UNL d   1      11.374  12.558  35.663 -0.34 -1.30    -0.650 OA
DOCKED: BRANCH  41  43
DOCKED: ATOM     43  O   UNL d   1      11.123  10.489  36.423 +0.05 -1.19    -0.776 OA
DOCKED: ATOM     44  H   UNL d   1      10.533   9.726  36.473 +0.04 +0.16    +0.167 HD
DOCKED: ENDBRANCH  41  43
DOCKED: ENDBRANCH  40  41
DOCKED: ENDBRANCH  39  40
DOCKED: ENDBRANCH  22  39
DOCKED: BRANCH  12  45
DOCKED: ATOM     45  C   UNL d   1       4.762  19.509  29.320 -0.38 -0.00    +0.004 C 
DOCKED: ATOM     46  C   UNL d   1       3.592  20.028  29.684 -0.41 -0.00    +0.012 C 
DOCKED: ENDBRANCH  12  45
DOCKED: BRANCH  17  47
DOCKED: ATOM     47  C   UNL d   1       6.413  20.786  36.851 -0.02 +0.00    +0.004 C 
DOCKED: ATOM     48  C   UNL d   1       7.588  21.164  37.361 -0.00 +0.00    +0.012 C 
DOCKED: ENDBRANCH  17  47
DOCKED: TORSDOF 12
DOCKED: TER
DOCKED: ENDMDL
________________________________________________________________________________


	BEGINNING GENETIC ALGORITHM DOCKING 6 of 100
Run: 6 Seed: 954240592 1056177972 [ Run 6 of 100 GA/GALS ]
Beginning LAMARCKIAN GENETIC ALGORITHM (LGA), with a maximum of 25000000 energy evaluations.

Final-Value: -12.285


	FINAL GENETIC ALGORITHM DOCKED STATE
	_______________________________________________


Detailed state:  trans 4.778 -2.235 -12.995 quatxyzw -0.163087 -0.018453 0.307334 -0.937341 center 8.781 34.984 -0.736 ntor 12 -175.2208 80.4769 96.3982 97.0983 -92.7905 131.8759 179.4035 22.2765 -70.2514 59.1571 -165.4450 -164.4277
State:	  4.778  -2.235 -12.995  -0.468 -0.053  0.882 -40.781   -175.22   80.48   96.40   97.10  -92.79  131.88  179.40   22.28  -70.25   59.16 -165.45 -164.43

DOCKED: MODEL        6
DOCKED: USER    Run = 6
DOCKED: USER    DPF = D:/Protein_go_brrr/autodock/final/1A3N/heme_Co/dock.dpf
DOCKED: USER  
DOCKED: USER    Estimated Free Energy of Binding    =   -6.07 kcal/mol  [=(1)+(2)+(3)-(4)]
DOCKED: USER    Estimated Inhibition Constant, Ki   =   35.53 uM (micromolar)  [Temperature = 298.15 K]
DOCKED: USER    
DOCKED: USER    (1) Final Intermolecular Energy     =   -9.65 kcal/mol
DOCKED: USER        vdW + Hbond + desolv Energy     =   -7.86 kcal/mol
DOCKED: USER        Electrostatic Energy            =   -1.79 kcal/mol
DOCKED: USER    (2) Final Total Internal Energy     =   -2.64 kcal/mol
DOCKED: USER    (3) Torsional Free Energy           =   +3.58 kcal/mol
DOCKED: USER    (4) Unbound System's Energy  [=(2)] =   -2.64 kcal/mol
DOCKED: USER    
DOCKED: USER    
DOCKED: USER    NEWDPF move heme_Co_opt.pdbqt
DOCKED: USER    NEWDPF about 8.781000 34.984000 -0.736000
DOCKED: USER    NEWDPF tran0 4.777517 -2.235354 -12.994812
DOCKED: USER    NEWDPF quaternion0 -0.163087 -0.018453 0.307334 -0.937341
DOCKED: USER    NEWDPF axisangle0 -0.468084 -0.052962 0.882095 -40.780680
DOCKED: USER    NEWDPF quat0 -0.468084 -0.052962 0.882095 -40.780680
DOCKED: USER    NEWDPF dihe0 -175.22 80.48 96.40 97.10 -92.79 131.88 179.40 22.28 -70.25 59.16 -165.45 -164.43 
DOCKED: USER  keepresnum = 1 
DOCKED: USER  
DOCKED: REMARK  12 active torsions:
DOCKED: REMARK  status: ('A' for Active; 'I' for Inactive)
DOCKED: REMARK    1  A    between atoms: C_6  and  C_10 
DOCKED: REMARK    2  A    between atoms: C_10  and  C_11 
DOCKED: REMARK    3  A    between atoms: C_11  and  C_12 
DOCKED: REMARK    4  A    between atoms: C_12  and  O_14 
DOCKED: REMARK    5  A    between atoms: C_17  and  C_20 
DOCKED: REMARK    6  A    between atoms: C_24  and  C_27 
DOCKED: REMARK    7  A    between atoms: C_31  and  C_34 
DOCKED: REMARK    8  A    between atoms: C_34  and  C_35 
DOCKED: REMARK    9  A    between atoms: C_35  and  C_36 
DOCKED: REMARK   10  A    between atoms: C_36  and  O_38 
DOCKED: REMARK   11  A    between atoms: FE_43  and  C_44 
DOCKED: REMARK   12  A    between atoms: C_44  and  O_45 
DOCKED: USER                              x       y       z     vdW  Elec       q    Type
DOCKED: USER                           _______ _______ _______ _____ _____    ______ ____
DOCKED: ROOT
DOCKED: ATOM      1  C   UNL d   1       3.039  -3.234 -13.830 -0.08 +0.02    +0.064 A 
DOCKED: ATOM      2  C   UNL d   1       5.073  -3.417  -9.536 -0.26 +0.00    +0.064 C 
DOCKED: ATOM      3  C   UNL d   1       8.622  -0.603 -11.054 -0.19 +0.00    +0.064 A 
DOCKED: ATOM      4  C   UNL d   1       6.365  -0.086 -15.332 -0.11 +0.01    +0.064 A 
DOCKED: ATOM      5  C   UNL d   1       3.353  -3.520 -12.556 -0.09 +0.01    +0.066 A 
DOCKED: ATOM      6  C   UNL d   1       2.503  -4.280 -11.729 -0.10 -0.01    -0.021 A 
DOCKED: ATOM      7  C   UNL d   1       3.087  -4.311 -10.478 -0.15 -0.01    -0.025 A 
DOCKED: ATOM      8  C   UNL d   1       4.275  -3.583 -10.599 -0.15 +0.01    +0.066 A 
DOCKED: ATOM      9  C   UNL d   1       2.557  -4.994  -9.208 -0.25 +0.02    +0.051 C 
DOCKED: ATOM     10  C   UNL d   1       6.327  -2.707  -9.570 -0.16 -0.00    +0.066 A 
DOCKED: ATOM     11  C   UNL d   1       7.275  -2.618  -8.528 -0.39 +0.00    -0.021 A 
DOCKED: ATOM     12  C   UNL d   1       8.301  -1.795  -8.999 -0.39 -0.00    +0.000 A 
DOCKED: ATOM     13  C   UNL d   1       7.911  -1.454 -10.295 -0.23 -0.00    +0.070 A 
DOCKED: ATOM     14  C   UNL d   1       7.229  -3.355  -7.214 -0.52 -0.00    +0.052 C 
DOCKED: ATOM     15  C   UNL d   1       8.341  -0.104 -12.386 -0.13 +0.00    +0.066 A 
DOCKED: ATOM     16  C   UNL d   1       9.042   0.888 -13.059 -0.12 -0.00    -0.021 A 
DOCKED: ATOM     17  C   UNL d   1       8.393   1.042 -14.292 -0.11 +0.00    +0.000 A 
DOCKED: ATOM     18  C   UNL d   1       7.354   0.117 -14.281 -0.11 +0.01    +0.070 A 
DOCKED: ATOM     19  C   UNL d   1      10.251   1.622 -12.525 -0.12 -0.00    +0.052 C 
DOCKED: ATOM     20  C   UNL d   1       5.296  -0.918 -15.309 -0.10 +0.01    +0.066 A 
DOCKED: ATOM     21  C   UNL d   1       4.394  -0.999 -16.367 -0.04 -0.01    -0.025 A 
DOCKED: ATOM     22  C   UNL d   1       3.440  -1.920 -15.974 -0.03 -0.01    -0.021 A 
DOCKED: ATOM     23  C   UNL d   1       3.804  -2.350 -14.680 -0.04 +0.02    +0.066 A 
DOCKED: ATOM     24  C   UNL d   1       4.427  -0.223 -17.681 -0.07 +0.01    +0.051 C 
DOCKED: ATOM     25  N   UNL d   1       4.469  -3.087 -11.877 -0.06 -0.03    -0.248 N 
DOCKED: ATOM     26  N   UNL d   1       6.745  -2.052 -10.658 -0.11 +0.01    -0.248 N 
DOCKED: ATOM     27  N   UNL d   1       7.335  -0.526 -13.119 -0.06 -0.02    -0.248 N 
DOCKED: ATOM     28  N   UNL d   1       4.925  -1.743 -14.273 -0.08 -0.05    -0.248 N 
DOCKED: ATOM     29 FE   UNL d   1       5.986  -1.730 -12.538 -0.03 +0.00    +0.000 Fe
DOCKED: ENDROOT
DOCKED: BRANCH   6  30
DOCKED: ATOM     30  C   UNL d   1       1.152  -4.874 -12.115 -0.10 +0.02    +0.052 C 
DOCKED: BRANCH  30  31
DOCKED: ATOM     31  C   UNL d   1       0.054  -3.815 -12.028 -0.16 +0.07    +0.115 C 
DOCKED: BRANCH  31  32
DOCKED: ATOM     32  C   UNL d   1      -0.433  -3.374 -13.391 -0.12 +0.07    +0.139 C 
DOCKED: ATOM     33  O   UNL d   1      -0.748  -4.217 -14.218 +0.04 -0.30    -0.650 OA
DOCKED: BRANCH  32  34
DOCKED: ATOM     34  O   UNL d   1      -0.578  -2.067 -13.714 +0.03 -0.47    -0.776 OA
DOCKED: ATOM     35  H   UNL d   1      -0.894  -1.751 -14.571 +0.05 +0.13    +0.167 HD
DOCKED: ENDBRANCH  32  34
DOCKED: ENDBRANCH  31  32
DOCKED: ENDBRANCH  30  31
DOCKED: ENDBRANCH   6  30
DOCKED: BRANCH  29  36
DOCKED: ATOM     36  C   UNL d   1       4.779  -0.191 -11.784 -0.37 +0.02    +0.190 C 
DOCKED: BRANCH  36  37
DOCKED: ATOM     37  O   UNL d   1       3.459   0.128 -11.449 -0.75 -0.04    -0.399 OA
DOCKED: ATOM     38  H   UNL d   1       2.899  -0.382 -12.099 -0.38 -0.02    +0.209 HD
DOCKED: ENDBRANCH  36  37
DOCKED: ENDBRANCH  29  36
DOCKED: BRANCH  22  39
DOCKED: ATOM     39  C   UNL d   1       2.213  -2.313 -16.776 -0.07 +0.02    +0.052 C 
DOCKED: BRANCH  39  40
DOCKED: ATOM     40  C   UNL d   1       1.284  -1.104 -16.973 -0.10 +0.06    +0.115 C 
DOCKED: BRANCH  40  41
DOCKED: ATOM     41  C   UNL d   1      -0.147  -1.339 -16.537 -0.15 +0.11    +0.139 C 
DOCKED: ATOM     42  O   UNL d   1      -0.868  -0.377 -16.309 -0.48 -1.13    -0.650 OA
DOCKED: BRANCH  41  43
DOCKED: ATOM     43  O   UNL d   1      -0.677  -2.580 -16.477 +0.03 -0.42    -0.776 OA
DOCKED: ATOM     44  H   UNL d   1      -0.797  -3.054 -15.644 +0.03 +0.08    +0.167 HD
DOCKED: ENDBRANCH  41  43
DOCKED: ENDBRANCH  40  41
DOCKED: ENDBRANCH  39  40
DOCKED: ENDBRANCH  22  39
DOCKED: BRANCH  12  45
DOCKED: ATOM     45  C   UNL d   1       9.607  -1.309  -8.385 -0.40 +0.00    +0.004 C 
DOCKED: ATOM     46  C   UNL d   1      10.821  -1.853  -8.388 -0.44 -0.00    +0.012 C 
DOCKED: ENDBRANCH  12  45
DOCKED: BRANCH  17  47
DOCKED: ATOM     47  C   UNL d   1       8.665   2.007 -15.399 -0.10 +0.00    +0.004 C 
DOCKED: ATOM     48  C   UNL d   1       7.814   2.968 -15.765 -0.15 -0.00    +0.012 C 
DOCKED: ENDBRANCH  17  47
DOCKED: TORSDOF 12
DOCKED: TER
DOCKED: ENDMDL
________________________________________________________________________________


	BEGINNING GENETIC ALGORITHM DOCKING 7 of 100
Run: 7 Seed: 1139759630 1014968728 [ Run 7 of 100 GA/GALS ]
Beginning LAMARCKIAN GENETIC ALGORITHM (LGA), with a maximum of 25000000 energy evaluations.

Final-Value: -11.193


	FINAL GENETIC ALGORITHM DOCKED STATE
	_______________________________________________


Detailed state:  trans 0.984 -7.293 -8.757 quatxyzw 0.897723 0.326774 0.289996 -0.056689 center 8.781 34.984 -0.736 ntor 12 -107.8491 101.7353 113.9890 93.7503 81.8473 96.3274 -56.9331 -75.9872 -54.9455 125.7743 -179.8043 -179.1823
State:	  0.984  -7.293  -8.757   0.899  0.327  0.290 -173.500   -107.85  101.74  113.99   93.75   81.85   96.33  -56.93  -75.99  -54.95  125.77 -179.80 -179.18

DOCKED: MODEL        7
DOCKED: USER    Run = 7
DOCKED: USER    DPF = D:/Protein_go_brrr/autodock/final/1A3N/heme_Co/dock.dpf
DOCKED: USER  
DOCKED: USER    Estimated Free Energy of Binding    =   -4.85 kcal/mol  [=(1)+(2)+(3)-(4)]
DOCKED: USER    Estimated Inhibition Constant, Ki   =  277.26 uM (micromolar)  [Temperature = 298.15 K]
DOCKED: USER    
DOCKED: USER    (1) Final Intermolecular Energy     =   -8.43 kcal/mol
DOCKED: USER        vdW + Hbond + desolv Energy     =   -8.01 kcal/mol
DOCKED: USER        Electrostatic Energy            =   -0.42 kcal/mol
DOCKED: USER    (2) Final Total Internal Energy     =   -2.76 kcal/mol
DOCKED: USER    (3) Torsional Free Energy           =   +3.58 kcal/mol
DOCKED: USER    (4) Unbound System's Energy  [=(2)] =   -2.76 kcal/mol
DOCKED: USER    
DOCKED: USER    
DOCKED: USER    NEWDPF move heme_Co_opt.pdbqt
DOCKED: USER    NEWDPF about 8.781000 34.984000 -0.736000
DOCKED: USER    NEWDPF tran0 0.983896 -7.293204 -8.756923
DOCKED: USER    NEWDPF quaternion0 0.897723 0.326774 0.289996 -0.056689
DOCKED: USER    NEWDPF axisangle0 0.899169 0.327300 0.290464 -173.500387
DOCKED: USER    NEWDPF quat0 0.899169 0.327300 0.290464 -173.500387
DOCKED: USER    NEWDPF dihe0 -107.85 101.74 113.99 93.75 81.85 96.33 -56.93 -75.99 -54.95 125.77 -179.80 -179.18 
DOCKED: USER  keepresnum = 1 
DOCKED: USER  
DOCKED: REMARK  12 active torsions:
DOCKED: REMARK  status: ('A' for Active; 'I' for Inactive)
DOCKED: REMARK    1  A    between atoms: C_6  and  C_10 
DOCKED: REMARK    2  A    between atoms: C_10  and  C_11 
DOCKED: REMARK    3  A    between atoms: C_11  and  C_12 
DOCKED: REMARK    4  A    between atoms: C_12  and  O_14 
DOCKED: REMARK    5  A    between atoms: C_17  and  C_20 
DOCKED: REMARK    6  A    between atoms: C_24  and  C_27 
DOCKED: REMARK    7  A    between atoms: C_31  and  C_34 
DOCKED: REMARK    8  A    between atoms: C_34  and  C_35 
DOCKED: REMARK    9  A    between atoms: C_35  and  C_36 
DOCKED: REMARK   10  A    between atoms: C_36  and  O_38 
DOCKED: REMARK   11  A    between atoms: FE_43  and  C_44 
DOCKED: REMARK   12  A    between atoms: C_44  and  O_45 
DOCKED: USER                              x       y       z     vdW  Elec       q    Type
DOCKED: USER                           _______ _______ _______ _____ _____    ______ ____
DOCKED: ROOT
DOCKED: ATOM      1  C   UNL d   1      -0.410  -8.956  -8.846 -0.10 +0.04    +0.064 A 
DOCKED: ATOM      2  C   UNL d   1       0.978  -5.773 -12.095 -0.07 +0.03    +0.064 C 
DOCKED: ATOM      3  C   UNL d   1       3.552  -3.470  -8.793 -0.30 +0.01    +0.064 A 
DOCKED: ATOM      4  C   UNL d   1       2.459  -6.926  -5.549 -0.28 +0.01    +0.064 A 
DOCKED: ATOM      5  C   UNL d   1      -0.249  -8.235  -9.967 -0.11 +0.06    +0.066 A 
DOCKED: ATOM      6  C   UNL d   1      -0.802  -8.635 -11.199 -0.08 -0.01    -0.021 A 
DOCKED: ATOM      7  C   UNL d   1      -0.377  -7.721 -12.143 -0.06 -0.01    -0.025 A 
DOCKED: ATOM      8  C   UNL d   1       0.403  -6.793 -11.444 -0.08 +0.05    +0.066 A 
DOCKED: ATOM      9  C   UNL d   1      -0.685  -7.707 -13.648 -0.01 +0.02    +0.051 C 
DOCKED: ATOM     10  C   UNL d   1       1.775  -4.756 -11.456 -0.10 +0.03    +0.066 A 
DOCKED: ATOM     11  C   UNL d   1       2.289  -3.586 -12.057 -0.14 -0.01    -0.021 A 
DOCKED: ATOM     12  C   UNL d   1       3.032  -2.931 -11.071 -0.23 +0.00    +0.000 A 
DOCKED: ATOM     13  C   UNL d   1       2.907  -3.741  -9.942 -0.21 +0.02    +0.070 A 
DOCKED: ATOM     14  C   UNL d   1       1.997  -3.098 -13.453 -0.14 +0.02    +0.052 C 
DOCKED: ATOM     15  C   UNL d   1       3.578  -4.221  -7.554 -0.33 +0.01    +0.066 A 
DOCKED: ATOM     16  C   UNL d   1       4.381  -3.964  -6.452 -0.43 -0.00    -0.021 A 
DOCKED: ATOM     17  C   UNL d   1       4.071  -4.959  -5.514 -0.42 +0.00    +0.000 A 
DOCKED: ATOM     18  C   UNL d   1       3.087  -5.738  -6.114 -0.26 +0.02    +0.070 A 
DOCKED: ATOM     19  C   UNL d   1       5.374  -2.829  -6.336 -0.45 +0.00    +0.052 C 
DOCKED: ATOM     20  C   UNL d   1       1.564  -7.749  -6.146 -0.28 +0.02    +0.066 A 
DOCKED: ATOM     21  C   UNL d   1       1.058  -8.882  -5.514 -0.32 -0.01    -0.025 A 
DOCKED: ATOM     22  C   UNL d   1       0.206  -9.471  -6.430 -0.24 -0.01    -0.021 A 
DOCKED: ATOM     23  C   UNL d   1       0.244  -8.668  -7.589 -0.17 +0.04    +0.066 A 
DOCKED: ATOM     24  C   UNL d   1       1.385  -9.390  -4.112 -0.32 +0.01    +0.051 C 
DOCKED: ATOM     25  N   UNL d   1       0.495  -7.083 -10.094 -0.10 -0.24    -0.248 N 
DOCKED: ATOM     26  N   UNL d   1       2.101  -4.814 -10.160 -0.09 -0.10    -0.248 N 
DOCKED: ATOM     27  N   UNL d   1       2.840  -5.288  -7.339 -0.19 -0.07    -0.248 N 
DOCKED: ATOM     28  N   UNL d   1       1.067  -7.626  -7.423 -0.13 -0.13    -0.248 N 
DOCKED: ATOM     29 FE   UNL d   1       1.736  -6.135  -8.632 -0.05 +0.00    +0.000 Fe
DOCKED: ENDROOT
DOCKED: BRANCH   6  30
DOCKED: ATOM     30  C   UNL d   1      -1.632  -9.888 -11.459 -0.05 +0.02    +0.052 C 
DOCKED: BRANCH  30  31
DOCKED: ATOM     31  C   UNL d   1      -0.747 -11.020 -11.980 -0.01 +0.02    +0.115 C 
DOCKED: BRANCH  31  32
DOCKED: ATOM     32  C   UNL d   1      -0.831 -12.262 -11.119 -0.01 +0.02    +0.139 C 
DOCKED: ATOM     33  O   UNL d   1      -0.270 -13.284 -11.483 +0.01 -0.07    -0.650 OA
DOCKED: BRANCH  32  34
DOCKED: ATOM     34  O   UNL d   1      -1.472 -12.266  -9.928 +0.02 -0.13    -0.776 OA
DOCKED: ATOM     35  H   UNL d   1      -1.031 -12.365  -9.073 +0.02 +0.03    +0.167 HD
DOCKED: ENDBRANCH  32  34
DOCKED: ENDBRANCH  31  32
DOCKED: ENDBRANCH  30  31
DOCKED: ENDBRANCH   6  30
DOCKED: BRANCH  29  36
DOCKED: ATOM     36  C   UNL d   1       3.291  -7.360  -9.322 -0.11 +0.05    +0.190 C 
DOCKED: BRANCH  36  37
DOCKED: ATOM     37  O   UNL d   1       3.660  -8.697  -9.501 -0.08 -0.07    -0.399 OA
DOCKED: ATOM     38  H   UNL d   1       2.973  -9.222  -9.004 +0.06 +0.04    +0.209 HD
DOCKED: ENDBRANCH  36  37
DOCKED: ENDBRANCH  29  36
DOCKED: BRANCH  22  39
DOCKED: ATOM     39  C   UNL d   1      -0.550 -10.770  -6.219 -0.22 +0.01    +0.052 C 
DOCKED: BRANCH  39  40
DOCKED: ATOM     40  C   UNL d   1       0.384 -11.977  -6.406 -0.16 +0.01    +0.115 C 
DOCKED: BRANCH  40  41
DOCKED: ATOM     41  C   UNL d   1       1.020 -12.069  -7.777 -0.12 +0.02    +0.139 C 
DOCKED: ATOM     42  O   UNL d   1       1.762 -11.173  -8.153 +0.04 -0.10    -0.650 OA
DOCKED: BRANCH  41  43
DOCKED: ATOM     43  O   UNL d   1       0.860 -13.157  -8.563 +0.02 -0.07    -0.776 OA
DOCKED: ATOM     44  H   UNL d   1       0.459 -13.109  -9.441 +0.02 +0.02    +0.167 HD
DOCKED: ENDBRANCH  41  43
DOCKED: ENDBRANCH  40  41
DOCKED: ENDBRANCH  39  40
DOCKED: ENDBRANCH  22  39
DOCKED: BRANCH  12  45
DOCKED: ATOM     45  C   UNL d   1       3.826  -1.632 -11.060 -0.40 +0.00    +0.004 C 
DOCKED: ATOM     46  C   UNL d   1       3.433  -0.379 -10.847 -0.55 +0.00    +0.012 C 
DOCKED: ENDBRANCH  12  45
DOCKED: BRANCH  17  47
DOCKED: ATOM     47  C   UNL d   1       4.667  -5.223  -4.170 -0.32 +0.00    +0.004 C 
DOCKED: ATOM     48  C   UNL d   1       4.645  -4.340  -3.168 -0.49 +0.00    +0.012 C 
DOCKED: ENDBRANCH  17  47
DOCKED: TORSDOF 12
DOCKED: TER
DOCKED: ENDMDL
________________________________________________________________________________


	BEGINNING GENETIC ALGORITHM DOCKING 8 of 100
Run: 8 Seed: 156498999 126019486 [ Run 8 of 100 GA/GALS ]
Beginning LAMARCKIAN GENETIC ALGORITHM (LGA), with a maximum of 25000000 energy evaluations.

Final-Value: -11.630


	FINAL GENETIC ALGORITHM DOCKED STATE
	_______________________________________________


Detailed state:  trans 12.559 1.762 10.853 quatxyzw -0.132549 -0.497938 -0.761388 0.393416 center 8.781 34.984 -0.736 ntor 12 13.3632 130.6953 140.5878 5.5492 -80.5723 115.8822 25.9747 -52.5531 -166.0486 127.8592 179.8903 -179.9015
State:	 12.559   1.762  10.853  -0.144 -0.542 -0.828 133.666     13.36  130.70  140.59    5.55  -80.57  115.88   25.97  -52.55 -166.05  127.86  179.89 -179.90

DOCKED: MODEL        8
DOCKED: USER    Run = 8
DOCKED: USER    DPF = D:/Protein_go_brrr/autodock/final/1A3N/heme_Co/dock.dpf
DOCKED: USER  
DOCKED: USER    Estimated Free Energy of Binding    =   -4.93 kcal/mol  [=(1)+(2)+(3)-(4)]
DOCKED: USER    Estimated Inhibition Constant, Ki   =  242.68 uM (micromolar)  [Temperature = 298.15 K]
DOCKED: USER    
DOCKED: USER    (1) Final Intermolecular Energy     =   -8.51 kcal/mol
DOCKED: USER        vdW + Hbond + desolv Energy     =   -7.13 kcal/mol
DOCKED: USER        Electrostatic Energy            =   -1.38 kcal/mol
DOCKED: USER    (2) Final Total Internal Energy     =   -3.12 kcal/mol
DOCKED: USER    (3) Torsional Free Energy           =   +3.58 kcal/mol
DOCKED: USER    (4) Unbound System's Energy  [=(2)] =   -3.12 kcal/mol
DOCKED: USER    
DOCKED: USER    
DOCKED: USER    NEWDPF move heme_Co_opt.pdbqt
DOCKED: USER    NEWDPF about 8.781000 34.984000 -0.736000
DOCKED: USER    NEWDPF tran0 12.559072 1.762215 10.853367
DOCKED: USER    NEWDPF quaternion0 -0.132549 -0.497938 -0.761388 0.393416
DOCKED: USER    NEWDPF axisangle0 -0.144175 -0.541614 -0.828172 133.665563
DOCKED: USER    NEWDPF quat0 -0.144175 -0.541614 -0.828172 133.665563
DOCKED: USER    NEWDPF dihe0 13.36 130.70 140.59 5.55 -80.57 115.88 25.97 -52.55 -166.05 127.86 179.89 -179.90 
DOCKED: USER  keepresnum = 1 
DOCKED: USER  
DOCKED: REMARK  12 active torsions:
DOCKED: REMARK  status: ('A' for Active; 'I' for Inactive)
DOCKED: REMARK    1  A    between atoms: C_6  and  C_10 
DOCKED: REMARK    2  A    between atoms: C_10  and  C_11 
DOCKED: REMARK    3  A    between atoms: C_11  and  C_12 
DOCKED: REMARK    4  A    between atoms: C_12  and  O_14 
DOCKED: REMARK    5  A    between atoms: C_17  and  C_20 
DOCKED: REMARK    6  A    between atoms: C_24  and  C_27 
DOCKED: REMARK    7  A    between atoms: C_31  and  C_34 
DOCKED: REMARK    8  A    between atoms: C_34  and  C_35 
DOCKED: REMARK    9  A    between atoms: C_35  and  C_36 
DOCKED: REMARK   10  A    between atoms: C_36  and  O_38 
DOCKED: REMARK   11  A    between atoms: FE_43  and  C_44 
DOCKED: REMARK   12  A    between atoms: C_44  and  O_45 
DOCKED: USER                              x       y       z     vdW  Elec       q    Type
DOCKED: USER                           _______ _______ _______ _____ _____    ______ ____
DOCKED: ROOT
DOCKED: ATOM      1  C   UNL d   1      13.089  -0.305  11.253 -0.15 -0.01    +0.064 A 
DOCKED: ATOM      2  C   UNL d   1      15.724   3.575  10.471 -0.27 +0.04    +0.064 C 
DOCKED: ATOM      3  C   UNL d   1      11.778   6.123   9.594 -0.14 -0.00    +0.064 A 
DOCKED: ATOM      4  C   UNL d   1       9.047   2.272  10.765 -0.25 -0.02    +0.064 A 
DOCKED: ATOM      5  C   UNL d   1      14.101   0.559  11.068 -0.14 -0.01    +0.066 A 
DOCKED: ATOM      6  C   UNL d   1      15.443   0.201  11.304 -0.14 -0.00    -0.021 A 
DOCKED: ATOM      7  C   UNL d   1      16.201   1.336  11.098 -0.23 -0.00    -0.025 A 
DOCKED: ATOM      8  C   UNL d   1      15.292   2.334  10.729 -0.16 +0.02    +0.066 A 
DOCKED: ATOM      9  C   UNL d   1      17.722   1.493  11.240 -0.29 +0.01    +0.051 C 
DOCKED: ATOM     10  C   UNL d   1      14.867   4.659  10.059 -0.26 +0.04    +0.066 A 
DOCKED: ATOM     11  C   UNL d   1      15.275   5.944   9.638 -0.32 -0.01    -0.021 A 
DOCKED: ATOM     12  C   UNL d   1      14.105   6.665   9.385 -0.27 +0.00    +0.000 A 
DOCKED: ATOM     13  C   UNL d   1      13.073   5.765   9.657 -0.21 +0.01    +0.070 A 
DOCKED: ATOM     14  C   UNL d   1      16.693   6.399   9.409 -0.35 +0.04    +0.052 C 
DOCKED: ATOM     15  C   UNL d   1      10.593   5.343   9.890 -0.13 -0.01    +0.066 A 
DOCKED: ATOM     16  C   UNL d   1       9.289   5.815   9.946 -0.16 +0.00    -0.021 A 
DOCKED: ATOM     17  C   UNL d   1       8.498   4.709  10.286 -0.22 -0.00    +0.000 A 
DOCKED: ATOM     18  C   UNL d   1       9.383   3.641  10.394 -0.21 -0.02    +0.070 A 
DOCKED: ATOM     19  C   UNL d   1       8.862   7.243   9.686 -0.21 -0.00    +0.052 C 
DOCKED: ATOM     20  C   UNL d   1       9.900   1.238  10.961 -0.13 -0.03    +0.066 A 
DOCKED: ATOM     21  C   UNL d   1       9.460  -0.025  11.351 -0.28 +0.00    -0.025 A 
DOCKED: ATOM     22  C   UNL d   1      10.601  -0.797  11.472 -0.23 +0.00    -0.021 A 
DOCKED: ATOM     23  C   UNL d   1      11.690   0.043  11.158 -0.19 -0.02    +0.066 A 
DOCKED: ATOM     24  C   UNL d   1       8.024  -0.470  11.617 -0.32 +0.01    +0.051 C 
DOCKED: ATOM     25  N   UNL d   1      13.985   1.879  10.696 +0.07 +0.01    -0.248 N 
DOCKED: ATOM     26  N   UNL d   1      13.537   4.537  10.010 -0.08 -0.04    -0.248 N 
DOCKED: ATOM     27  N   UNL d   1      10.625   4.062  10.182 -0.12 +0.07    -0.248 N 
DOCKED: ATOM     28  N   UNL d   1      11.270   1.277  10.851 -0.15 +0.13    -0.248 N 
DOCKED: ATOM     29 FE   UNL d   1      12.203   3.032  10.424 -0.05 -0.00    +0.000 Fe
DOCKED: ENDROOT
DOCKED: BRANCH   6  30
DOCKED: ATOM     30  C   UNL d   1      15.951  -1.154  11.786 -0.07 +0.00    +0.052 C 
DOCKED: BRANCH  30  31
DOCKED: ATOM     31  C   UNL d   1      16.143  -1.147  13.303 -0.04 +0.00    +0.115 C 
DOCKED: BRANCH  31  32
DOCKED: ATOM     32  C   UNL d   1      15.517   0.065  13.958 -0.07 +0.01    +0.139 C 
DOCKED: ATOM     33  O   UNL d   1      16.232   0.985  14.328 +0.04 +0.02    -0.650 OA
DOCKED: BRANCH  32  34
DOCKED: ATOM     34  O   UNL d   1      14.178   0.189  14.108 +0.07 -0.26    -0.776 OA
DOCKED: ATOM     35  H   UNL d   1      13.544  -0.520  13.933 +0.04 +0.07    +0.167 HD
DOCKED: ENDBRANCH  32  34
DOCKED: ENDBRANCH  31  32
DOCKED: ENDBRANCH  30  31
DOCKED: ENDBRANCH   6  30
DOCKED: BRANCH  29  36
DOCKED: ATOM     36  C   UNL d   1      12.323   3.491  12.466 -0.14 +0.13    +0.190 C 
DOCKED: BRANCH  36  37
DOCKED: ATOM     37  O   UNL d   1      12.640   2.945  13.714 -0.37 -0.49    -0.399 OA
DOCKED: ATOM     38  H   UNL d   1      13.161   2.119  13.508 +0.06 +0.20    +0.209 HD
DOCKED: ENDBRANCH  36  37
DOCKED: ENDBRANCH  29  36
DOCKED: BRANCH  22  39
DOCKED: ATOM     39  C   UNL d   1      10.640  -2.243  11.927 -0.17 +0.01    +0.052 C 
DOCKED: BRANCH  39  40
DOCKED: ATOM     40  C   UNL d   1      10.511  -2.334  13.457 -0.09 +0.06    +0.115 C 
DOCKED: BRANCH  40  41
DOCKED: ATOM     41  C   UNL d   1      11.575  -1.574  14.220 -0.08 +0.10    +0.139 C 
DOCKED: ATOM     42  O   UNL d   1      11.411  -0.384  14.450 +0.30 -1.17    -0.650 OA
DOCKED: BRANCH  41  43
DOCKED: ATOM     43  O   UNL d   1      12.662  -2.193  14.731 +0.08 -0.33    -0.776 OA
DOCKED: ATOM     44  H   UNL d   1      13.524  -1.761  14.794 +0.04 +0.05    +0.167 HD
DOCKED: ENDBRANCH  41  43
DOCKED: ENDBRANCH  40  41
DOCKED: ENDBRANCH  39  40
DOCKED: ENDBRANCH  22  39
DOCKED: BRANCH  12  45
DOCKED: ATOM     45  C   UNL d   1      13.844   8.085   8.903 -0.21 +0.00    +0.004 C 
DOCKED: ATOM     46  C   UNL d   1      14.689   9.076   8.630 -0.23 +0.00    +0.012 C 
DOCKED: ENDBRANCH  12  45
DOCKED: BRANCH  17  47
DOCKED: ATOM     47  C   UNL d   1       7.030   4.630  10.548 -0.35 -0.00    +0.004 C 
DOCKED: ATOM     48  C   UNL d   1       6.502   4.561  11.772 -0.36 +0.00    +0.012 C 
DOCKED: ENDBRANCH  17  47
DOCKED: TORSDOF 12
DOCKED: TER
DOCKED: ENDMDL
________________________________________________________________________________


	BEGINNING GENETIC ALGORITHM DOCKING 9 of 100
Run: 9 Seed: 722378074 1995029552 [ Run 9 of 100 GA/GALS ]
Beginning LAMARCKIAN GENETIC ALGORITHM (LGA), with a maximum of 25000000 energy evaluations.

Final-Value: -13.578


	FINAL GENETIC ALGORITHM DOCKED STATE
	_______________________________________________


Detailed state:  trans 23.357 -7.293 36.839 quatxyzw 0.425488 0.737241 0.072258 -0.519822 center 8.781 34.984 -0.736 ntor 12 114.2159 83.3419 -45.8553 30.1503 162.0316 120.2144 25.7862 -32.6597 165.1509 -132.7377 -162.7057 139.7959
State:	 23.357  -7.293  36.839   0.498  0.863  0.085 -117.359    114.22   83.34  -45.86   30.15  162.03  120.21   25.79  -32.66  165.15 -132.74 -162.71  139.80

DOCKED: MODEL        9
DOCKED: USER    Run = 9
DOCKED: USER    DPF = D:/Protein_go_brrr/autodock/final/1A3N/heme_Co/dock.dpf
DOCKED: USER  
DOCKED: USER    Estimated Free Energy of Binding    =   -6.60 kcal/mol  [=(1)+(2)+(3)-(4)]
DOCKED: USER    Estimated Inhibition Constant, Ki   =   14.45 uM (micromolar)  [Temperature = 298.15 K]
DOCKED: USER    
DOCKED: USER    (1) Final Intermolecular Energy     =  -10.18 kcal/mol
DOCKED: USER        vdW + Hbond + desolv Energy     =   -7.84 kcal/mol
DOCKED: USER        Electrostatic Energy            =   -2.34 kcal/mol
DOCKED: USER    (2) Final Total Internal Energy     =   -3.40 kcal/mol
DOCKED: USER    (3) Torsional Free Energy           =   +3.58 kcal/mol
DOCKED: USER    (4) Unbound System's Energy  [=(2)] =   -3.40 kcal/mol
DOCKED: USER    
DOCKED: USER    
DOCKED: USER    NEWDPF move heme_Co_opt.pdbqt
DOCKED: USER    NEWDPF about 8.781000 34.984000 -0.736000
DOCKED: USER    NEWDPF tran0 23.357054 -7.292927 36.839461
DOCKED: USER    NEWDPF quaternion0 0.425488 0.737241 0.072258 -0.519822
DOCKED: USER    NEWDPF axisangle0 0.498069 0.863002 0.084584 -117.359326
DOCKED: USER    NEWDPF quat0 0.498069 0.863002 0.084584 -117.359326
DOCKED: USER    NEWDPF dihe0 114.22 83.34 -45.86 30.15 162.03 120.21 25.79 -32.66 165.15 -132.74 -162.71 139.80 
DOCKED: USER  keepresnum = 1 
DOCKED: USER  
DOCKED: REMARK  12 active torsions:
DOCKED: REMARK  status: ('A' for Active; 'I' for Inactive)
DOCKED: REMARK    1  A    between atoms: C_6  and  C_10 
DOCKED: REMARK    2  A    between atoms: C_10  and  C_11 
DOCKED: REMARK    3  A    between atoms: C_11  and  C_12 
DOCKED: REMARK    4  A    between atoms: C_12  and  O_14 
DOCKED: REMARK    5  A    between atoms: C_17  and  C_20 
DOCKED: REMARK    6  A    between atoms: C_24  and  C_27 
DOCKED: REMARK    7  A    between atoms: C_31  and  C_34 
DOCKED: REMARK    8  A    between atoms: C_34  and  C_35 
DOCKED: REMARK    9  A    between atoms: C_35  and  C_36 
DOCKED: REMARK   10  A    between atoms: C_36  and  O_38 
DOCKED: REMARK   11  A    between atoms: FE_43  and  C_44 
DOCKED: REMARK   12  A    between atoms: C_44  and  O_45 
DOCKED: USER                              x       y       z     vdW  Elec       q    Type
DOCKED: USER                           _______ _______ _______ _____ _____    ______ ____
DOCKED: ROOT
DOCKED: ATOM      1  C   UNL d   1      23.118  -8.054  38.859 -0.08 +0.02    +0.064 A 
DOCKED: ATOM      2  C   UNL d   1      24.618 -10.093  34.834 -0.24 +0.02    +0.064 C 
DOCKED: ATOM      3  C   UNL d   1      23.595  -6.115  32.393 -0.20 +0.01    +0.064 A 
DOCKED: ATOM      4  C   UNL d   1      22.419  -3.881  36.552 -0.12 +0.01    +0.064 A 
DOCKED: ATOM      5  C   UNL d   1      23.569  -8.915  37.933 -0.11 +0.03    +0.066 A 
DOCKED: ATOM      6  C   UNL d   1      24.047 -10.196  38.273 -0.09 -0.01    -0.021 A 
DOCKED: ATOM      7  C   UNL d   1      24.502 -10.774  37.104 -0.12 -0.01    -0.025 A 
DOCKED: ATOM      8  C   UNL d   1      24.268  -9.829  36.099 -0.17 +0.03    +0.066 A 
DOCKED: ATOM      9  C   UNL d   1      25.136 -12.162  36.925 -0.10 +0.01    +0.051 C 
DOCKED: ATOM     10  C   UNL d   1      24.393  -9.193  33.730 -0.29 +0.02    +0.066 A 
DOCKED: ATOM     11  C   UNL d   1      24.609  -9.466  32.362 -0.37 -0.00    -0.021 A 
DOCKED: ATOM     12  C   UNL d   1      24.299  -8.290  31.673 -0.35 +0.00    +0.000 A 
DOCKED: ATOM     13  C   UNL d   1      23.905  -7.394  32.667 -0.27 +0.01    +0.070 A 
DOCKED: ATOM     14  C   UNL d   1      24.993 -10.796  31.767 -0.40 +0.00    +0.052 C 
DOCKED: ATOM     15  C   UNL d   1      23.221  -5.045  33.298 -0.27 +0.01    +0.066 A 
DOCKED: ATOM     16  C   UNL d   1      23.053  -3.708  32.967 -0.42 -0.00    -0.021 A 
DOCKED: ATOM     17  C   UNL d   1      22.717  -3.059  34.163 -0.43 +0.00    +0.000 A 
DOCKED: ATOM     18  C   UNL d   1      22.688  -4.059  35.130 -0.27 +0.01    +0.070 A 
DOCKED: ATOM     19  C   UNL d   1      23.215  -3.120  31.583 -0.47 +0.01    +0.052 C 
DOCKED: ATOM     20  C   UNL d   1      22.471  -4.822  37.525 -0.07 +0.01    +0.066 A 
DOCKED: ATOM     21  C   UNL d   1      22.227  -4.522  38.863 -0.08 -0.00    -0.025 A 
DOCKED: ATOM     22  C   UNL d   1      22.392  -5.712  39.548 -0.07 -0.00    -0.021 A 
DOCKED: ATOM     23  C   UNL d   1      22.744  -6.684  38.588 -0.10 +0.02    +0.066 A 
DOCKED: ATOM     24  C   UNL d   1      21.873  -3.165  39.464 -0.07 +0.01    +0.051 C 
DOCKED: ATOM     25  N   UNL d   1      23.685  -8.670  36.583 -0.10 -0.10    -0.248 N 
DOCKED: ATOM     26  N   UNL d   1      23.909  -7.959  33.904 -0.20 -0.06    -0.248 N 
DOCKED: ATOM     27  N   UNL d   1      23.023  -5.223  34.585 -0.19 -0.04    -0.248 N 
DOCKED: ATOM     28  N   UNL d   1      22.795  -6.149  37.362 -0.09 -0.06    -0.248 N 
DOCKED: ATOM     29 FE   UNL d   1      23.333  -6.843  35.528 -0.05 +0.00    +0.000 Fe
DOCKED: ENDROOT
DOCKED: BRANCH   6  30
DOCKED: ATOM     30  C   UNL d   1      24.132 -10.792  39.674 -0.04 +0.02    +0.052 C 
DOCKED: BRANCH  30  31
DOCKED: ATOM     31  C   UNL d   1      25.346 -10.239  40.420 -0.03 +0.05    +0.115 C 
DOCKED: BRANCH  31  32
DOCKED: ATOM     32  C   UNL d   1      26.349  -9.590  39.490 -0.03 +0.15    +0.139 C 
DOCKED: ATOM     33  O   UNL d   1      27.378 -10.185  39.207 +0.00 -0.80    -0.650 OA
DOCKED: BRANCH  32  34
DOCKED: ATOM     34  O   UNL d   1      26.122  -8.384  38.919 -0.34 -1.40    -0.776 OA
DOCKED: ATOM     35  H   UNL d   1      26.598  -7.575  39.149 +0.03 +0.36    +0.167 HD
DOCKED: ENDBRANCH  32  34
DOCKED: ENDBRANCH  31  32
DOCKED: ENDBRANCH  30  31
DOCKED: ENDBRANCH   6  30
DOCKED: BRANCH  29  36
DOCKED: ATOM     36  C   UNL d   1      25.338  -6.367  35.910 +0.06 +0.13    +0.190 C 
DOCKED: BRANCH  36  37
DOCKED: ATOM     37  O   UNL d   1      26.355  -6.506  36.861 -0.01 -0.63    -0.399 OA
DOCKED: ATOM     38  H   UNL d   1      25.882  -6.544  37.739 +0.04 +0.28    +0.209 HD
DOCKED: ENDBRANCH  36  37
DOCKED: ENDBRANCH  29  36
DOCKED: BRANCH  22  39
DOCKED: ATOM     39  C   UNL d   1      22.282  -5.884  41.051 -0.03 +0.01    +0.052 C 
DOCKED: BRANCH  39  40
DOCKED: ATOM     40  C   UNL d   1      23.614  -6.378  41.641 -0.00 +0.03    +0.115 C 
DOCKED: BRANCH  40  41
DOCKED: ATOM     41  C   UNL d   1      24.841  -5.710  41.057 -0.00 +0.05    +0.139 C 
DOCKED: ATOM     42  O   UNL d   1      25.440  -4.876  41.721 +0.02 -0.19    -0.650 OA
DOCKED: BRANCH  41  43
DOCKED: ATOM     43  O   UNL d   1      25.344  -6.072  39.857 +0.03 -0.45    -0.776 OA
DOCKED: ATOM     44  H   UNL d   1      25.384  -6.993  39.567 +0.02 +0.13    +0.167 HD
DOCKED: ENDBRANCH  41  43
DOCKED: ENDBRANCH  40  41
DOCKED: ENDBRANCH  39  40
DOCKED: ENDBRANCH  22  39
DOCKED: BRANCH  12  45
DOCKED: ATOM     45  C   UNL d   1      24.310  -7.919  30.196 -0.38 +0.00    +0.004 C 
DOCKED: ATOM     46  C   UNL d   1      24.254  -8.685  29.110 -0.50 +0.00    +0.012 C 
DOCKED: ENDBRANCH  12  45
DOCKED: BRANCH  17  47
DOCKED: ATOM     47  C   UNL d   1      22.483  -1.608  34.429 -0.46 +0.00    +0.004 C 
DOCKED: ATOM     48  C   UNL d   1      21.525  -1.152  35.240 -0.42 +0.00    +0.012 C 
DOCKED: ENDBRANCH  17  47
DOCKED: TORSDOF 12
DOCKED: TER
DOCKED: ENDMDL
________________________________________________________________________________


	BEGINNING GENETIC ALGORITHM DOCKING 10 of 100
Run: 10 Seed: 660626852 1801750480 [ Run 10 of 100 GA/GALS ]
Beginning LAMARCKIAN GENETIC ALGORITHM (LGA), with a maximum of 25000000 energy evaluations.

Final-Value: -10.613


	FINAL GENETIC ALGORITHM DOCKED STATE
	_______________________________________________


Detailed state:  trans 9.275 -9.211 16.638 quatxyzw -0.311935 -0.690652 -0.590096 0.278358 center 8.781 34.984 -0.736 ntor 12 -63.4930 127.7623 129.2254 131.7412 140.5517 -150.3143 77.5967 -56.0826 20.9621 -63.9046 -0.2475 -2.1139
State:	  9.275  -9.211  16.638  -0.325 -0.719 -0.614 147.676    -63.49  127.76  129.23  131.74  140.55 -150.31   77.60  -56.08   20.96  -63.90   -0.25   -2.11

DOCKED: MODEL       10
DOCKED: USER    Run = 10
DOCKED: USER    DPF = D:/Protein_go_brrr/autodock/final/1A3N/heme_Co/dock.dpf
DOCKED: USER  
DOCKED: USER    Estimated Free Energy of Binding    =   -4.82 kcal/mol  [=(1)+(2)+(3)-(4)]
DOCKED: USER    Estimated Inhibition Constant, Ki   =  290.63 uM (micromolar)  [Temperature = 298.15 K]
DOCKED: USER    
DOCKED: USER    (1) Final Intermolecular Energy     =   -8.40 kcal/mol
DOCKED: USER        vdW + Hbond + desolv Energy     =   -5.41 kcal/mol
DOCKED: USER        Electrostatic Energy            =   -3.00 kcal/mol
DOCKED: USER    (2) Final Total Internal Energy     =   -2.21 kcal/mol
DOCKED: USER    (3) Torsional Free Energy           =   +3.58 kcal/mol
DOCKED: USER    (4) Unbound System's Energy  [=(2)] =   -2.21 kcal/mol
DOCKED: USER    
DOCKED: USER    
DOCKED: USER    NEWDPF move heme_Co_opt.pdbqt
DOCKED: USER    NEWDPF about 8.781000 34.984000 -0.736000
DOCKED: USER    NEWDPF tran0 9.275325 -9.211150 16.638494
DOCKED: USER    NEWDPF quaternion0 -0.311935 -0.690652 -0.590096 0.278358
DOCKED: USER    NEWDPF axisangle0 -0.324771 -0.719072 -0.614377 147.675559
DOCKED: USER    NEWDPF quat0 -0.324771 -0.719072 -0.614377 147.675559
DOCKED: USER    NEWDPF dihe0 -63.49 127.76 129.23 131.74 140.55 -150.31 77.60 -56.08 20.96 -63.90 -0.25 -2.11 
DOCKED: USER  keepresnum = 1 
DOCKED: USER  
DOCKED: REMARK  12 active torsions:
DOCKED: REMARK  status: ('A' for Active; 'I' for Inactive)
DOCKED: REMARK    1  A    between atoms: C_6  and  C_10 
DOCKED: REMARK    2  A    between atoms: C_10  and  C_11 
DOCKED: REMARK    3  A    between atoms: C_11  and  C_12 
DOCKED: REMARK    4  A    between atoms: C_12  and  O_14 
DOCKED: REMARK    5  A    between atoms: C_17  and  C_20 
DOCKED: REMARK    6  A    between atoms: C_24  and  C_27 
DOCKED: REMARK    7  A    between atoms: C_31  and  C_34 
DOCKED: REMARK    8  A    between atoms: C_34  and  C_35 
DOCKED: REMARK    9  A    between atoms: C_35  and  C_36 
DOCKED: REMARK   10  A    between atoms: C_36  and  O_38 
DOCKED: REMARK   11  A    between atoms: FE_43  and  C_44 
DOCKED: REMARK   12  A    between atoms: C_44  and  O_45 
DOCKED: USER                              x       y       z     vdW  Elec       q    Type
DOCKED: USER                           _______ _______ _______ _____ _____    ______ ____
DOCKED: ROOT
DOCKED: ATOM      1  C   UNL d   1       9.945 -11.171  17.290 -0.02 +0.03    +0.064 A 
DOCKED: ATOM      2  C   UNL d   1      11.665  -8.109  14.084 -0.10 +0.03    +0.064 C 
DOCKED: ATOM      3  C   UNL d   1       7.906  -5.238  14.755 -0.09 +0.02    +0.064 A 
DOCKED: ATOM      4  C   UNL d   1       6.326  -8.158  18.309 -0.10 +0.01    +0.064 A 
DOCKED: ATOM      5  C   UNL d   1      10.673 -10.563  16.338 -0.03 +0.03    +0.066 A 
DOCKED: ATOM      6  C   UNL d   1      11.915 -11.071  15.909 -0.06 -0.01    -0.021 A 
DOCKED: ATOM      7  C   UNL d   1      12.420 -10.167  14.995 -0.08 -0.01    -0.025 A 
DOCKED: ATOM      8  C   UNL d   1      11.458  -9.155  14.894 -0.06 +0.03    +0.066 A 
DOCKED: ATOM      9  C   UNL d   1      13.755 -10.238  14.239 -0.10 +0.02    +0.051 C 
DOCKED: ATOM     10  C   UNL d   1      10.722  -7.036  13.896 -0.11 +0.03    +0.066 A 
DOCKED: ATOM     11  C   UNL d   1      10.817  -5.984  12.958 -0.16 -0.01    -0.021 A 
DOCKED: ATOM     12  C   UNL d   1       9.706  -5.164  13.172 -0.18 +0.00    +0.000 A 
DOCKED: ATOM     13  C   UNL d   1       9.011  -5.780  14.213 -0.12 +0.03    +0.070 A 
DOCKED: ATOM     14  C   UNL d   1      11.856  -5.846  11.875 -0.15 +0.03    +0.052 C 
DOCKED: ATOM     15  C   UNL d   1       7.098  -5.709  15.862 -0.03 +0.02    +0.066 A 
DOCKED: ATOM     16  C   UNL d   1       6.052  -5.026  16.466 -0.21 -0.00    -0.021 A 
DOCKED: ATOM     17  C   UNL d   1       5.594  -5.863  17.494 -0.27 +0.00    +0.000 A 
DOCKED: ATOM     18  C   UNL d   1       6.389  -7.002  17.424 -0.12 +0.01    +0.070 A 
DOCKED: ATOM     19  C   UNL d   1       5.548  -3.658  16.062 -0.24 +0.01    +0.052 C 
DOCKED: ATOM     20  C   UNL d   1       7.143  -9.238  18.315 -0.04 +0.02    +0.066 A 
DOCKED: ATOM     21  C   UNL d   1       7.005 -10.270  19.241 -0.06 -0.01    -0.025 A 
DOCKED: ATOM     22  C   UNL d   1       8.017 -11.168  18.953 -0.05 -0.01    -0.021 A 
DOCKED: ATOM     23  C   UNL d   1       8.736 -10.628  17.865 -0.02 +0.02    +0.066 A 
DOCKED: ATOM     24  C   UNL d   1       5.971 -10.387  20.358 -0.15 +0.02    +0.051 C 
DOCKED: ATOM     25  N   UNL d   1      10.363  -9.378  15.711 -0.03 -0.10    -0.248 N 
DOCKED: ATOM     26  N   UNL d   1       9.597  -6.941  14.611 -0.07 -0.11    -0.248 N 
DOCKED: ATOM     27  N   UNL d   1       7.293  -6.862  16.460 -0.05 -0.06    -0.248 N 
DOCKED: ATOM     28  N   UNL d   1       8.212  -9.459  17.478 -0.01 -0.07    -0.248 N 
DOCKED: ATOM     29 FE   UNL d   1       8.735  -8.048  16.110 -0.02 +0.00    +0.000 Fe
DOCKED: ENDROOT
DOCKED: BRANCH   6  30
DOCKED: ATOM     30  C   UNL d   1      12.611 -12.327  16.422 -0.12 +0.03    +0.052 C 
DOCKED: BRANCH  30  31
DOCKED: ATOM     31  C   UNL d   1      12.084 -13.566  15.700 -0.05 +0.08    +0.115 C 
DOCKED: BRANCH  31  32
DOCKED: ATOM     32  C   UNL d   1      12.377 -14.844  16.456 -0.01 +0.18    +0.139 C 
DOCKED: ATOM     33  O   UNL d   1      13.520 -15.078  16.821 -0.09 -0.82    -0.650 OA
DOCKED: BRANCH  32  34
DOCKED: ATOM     34  O   UNL d   1      11.402 -15.721  16.789 -0.38 -1.67    -0.776 OA
DOCKED: ATOM     35  H   UNL d   1      10.701 -15.539  17.430 +0.02 +0.32    +0.167 HD
DOCKED: ENDBRANCH  32  34
DOCKED: ENDBRANCH  31  32
DOCKED: ENDBRANCH  30  31
DOCKED: ENDBRANCH   6  30
DOCKED: BRANCH  29  36
DOCKED: ATOM     36  C   UNL d   1       9.986  -7.119  17.513 -0.01 +0.06    +0.190 C 
DOCKED: BRANCH  36  37
DOCKED: ATOM     37  O   UNL d   1      11.236  -6.510  17.659 -0.10 -0.20    -0.399 OA
DOCKED: ATOM     38  H   UNL d   1      11.546  -6.332  16.727 +0.03 +0.11    +0.209 HD
DOCKED: ENDBRANCH  36  37
DOCKED: ENDBRANCH  29  36
DOCKED: BRANCH  22  39
DOCKED: ATOM     39  C   UNL d   1       8.311 -12.439  19.726 -0.12 +0.02    +0.052 C 
DOCKED: BRANCH  39  40
DOCKED: ATOM     40  C   UNL d   1       7.717 -13.662  19.007 -0.11 +0.06    +0.115 C 
DOCKED: BRANCH  40  41
DOCKED: ATOM     41  C   UNL d   1       8.746 -14.593  18.402 -0.11 +0.10    +0.139 C 
DOCKED: ATOM     42  O   UNL d   1       9.296 -15.421  19.115 -0.31 -0.77    -0.650 OA
DOCKED: BRANCH  41  43
DOCKED: ATOM     43  O   UNL d   1       9.012 -14.594  17.077 +0.06 -0.61    -0.776 OA
DOCKED: ATOM     44  H   UNL d   1       9.913 -14.621  16.728 +0.03 +0.16    +0.167 HD
DOCKED: ENDBRANCH  41  43
DOCKED: ENDBRANCH  40  41
DOCKED: ENDBRANCH  39  40
DOCKED: ENDBRANCH  22  39
DOCKED: BRANCH  12  45
DOCKED: ATOM     45  C   UNL d   1       9.214  -3.887  12.505 -0.22 +0.00    +0.004 C 
DOCKED: ATOM     46  C   UNL d   1       8.053  -3.609  11.917 -0.24 +0.01    +0.012 C 
DOCKED: ENDBRANCH  12  45
DOCKED: BRANCH  17  47
DOCKED: ATOM     47  C   UNL d   1       4.531  -5.626  18.516 -0.46 +0.00    +0.004 C 
DOCKED: ATOM     48  C   UNL d   1       3.433  -6.378  18.625 -0.46 +0.00    +0.012 C 
DOCKED: ENDBRANCH  17  47
DOCKED: TORSDOF 12
DOCKED: TER
DOCKED: ENDMDL
________________________________________________________________________________


	BEGINNING GENETIC ALGORITHM DOCKING 11 of 100
Run: 11 Seed: 556133694 1051390956 [ Run 11 of 100 GA/GALS ]
Beginning LAMARCKIAN GENETIC ALGORITHM (LGA), with a maximum of 25000000 energy evaluations.

Final-Value: -12.909


	FINAL GENETIC ALGORITHM DOCKED STATE
	_______________________________________________


Detailed state:  trans 18.659 -14.280 5.165 quatxyzw -0.803123 -0.170300 -0.317073 0.474822 center 8.781 34.984 -0.736 ntor 12 49.7152 140.6809 -129.3982 67.4308 62.6544 93.9152 28.5657 119.0411 180.0000 133.4463 -172.8754 -180.0000
State:	 18.659 -14.280   5.165  -0.913 -0.194 -0.360 123.304     49.72  140.68 -129.40   67.43   62.65   93.92   28.57  119.04  180.00  133.45 -172.88 -180.00

DOCKED: MODEL       11
DOCKED: USER    Run = 11
DOCKED: USER    DPF = D:/Protein_go_brrr/autodock/final/1A3N/heme_Co/dock.dpf
DOCKED: USER  
DOCKED: USER    Estimated Free Energy of Binding    =   -5.60 kcal/mol  [=(1)+(2)+(3)-(4)]
DOCKED: USER    Estimated Inhibition Constant, Ki   =   78.09 uM (micromolar)  [Temperature = 298.15 K]
DOCKED: USER    
DOCKED: USER    (1) Final Intermolecular Energy     =   -9.18 kcal/mol
DOCKED: USER        vdW + Hbond + desolv Energy     =   -8.63 kcal/mol
DOCKED: USER        Electrostatic Energy            =   -0.55 kcal/mol
DOCKED: USER    (2) Final Total Internal Energy     =   -3.73 kcal/mol
DOCKED: USER    (3) Torsional Free Energy           =   +3.58 kcal/mol
DOCKED: USER    (4) Unbound System's Energy  [=(2)] =   -3.73 kcal/mol
DOCKED: USER    
DOCKED: USER    
DOCKED: USER    NEWDPF move heme_Co_opt.pdbqt
DOCKED: USER    NEWDPF about 8.781000 34.984000 -0.736000
DOCKED: USER    NEWDPF tran0 18.658886 -14.280315 5.164964
DOCKED: USER    NEWDPF quaternion0 -0.803123 -0.170300 -0.317073 0.474822
DOCKED: USER    NEWDPF axisangle0 -0.912555 -0.193505 -0.360277 123.304428
DOCKED: USER    NEWDPF quat0 -0.912555 -0.193505 -0.360277 123.304428
DOCKED: USER    NEWDPF dihe0 49.72 140.68 -129.40 67.43 62.65 93.92 28.57 119.04 180.00 133.45 -172.88 -180.00 
DOCKED: USER  keepresnum = 1 
DOCKED: USER  
DOCKED: REMARK  12 active torsions:
DOCKED: REMARK  status: ('A' for Active; 'I' for Inactive)
DOCKED: REMARK    1  A    between atoms: C_6  and  C_10 
DOCKED: REMARK    2  A    between atoms: C_10  and  C_11 
DOCKED: REMARK    3  A    between atoms: C_11  and  C_12 
DOCKED: REMARK    4  A    between atoms: C_12  and  O_14 
DOCKED: REMARK    5  A    between atoms: C_17  and  C_20 
DOCKED: REMARK    6  A    between atoms: C_24  and  C_27 
DOCKED: REMARK    7  A    between atoms: C_31  and  C_34 
DOCKED: REMARK    8  A    between atoms: C_34  and  C_35 
DOCKED: REMARK    9  A    between atoms: C_35  and  C_36 
DOCKED: REMARK   10  A    between atoms: C_36  and  O_38 
DOCKED: REMARK   11  A    between atoms: FE_43  and  C_44 
DOCKED: REMARK   12  A    between atoms: C_44  and  O_45 
DOCKED: USER                              x       y       z     vdW  Elec       q    Type
DOCKED: USER                           _______ _______ _______ _____ _____    ______ ____
DOCKED: ROOT
DOCKED: ATOM      1  C   UNL d   1      16.641 -15.081   5.223 -0.21 -0.01    +0.064 A 
DOCKED: ATOM      2  C   UNL d   1      20.153 -15.496   2.044 -0.13 -0.01    +0.064 C 
DOCKED: ATOM      3  C   UNL d   1      22.827 -12.423   4.541 -0.20 -0.00    +0.064 A 
DOCKED: ATOM      4  C   UNL d   1      19.409 -12.280   8.000 -0.12 +0.01    +0.064 A 
DOCKED: ATOM      5  C   UNL d   1      17.390 -15.392   4.152 -0.18 -0.01    +0.066 A 
DOCKED: ATOM      6  C   UNL d   1      16.973 -16.341   3.198 -0.30 +0.00    -0.021 A 
DOCKED: ATOM      7  C   UNL d   1      18.005 -16.474   2.291 -0.20 +0.00    -0.025 A 
DOCKED: ATOM      8  C   UNL d   1      19.001 -15.590   2.720 -0.17 -0.01    +0.066 A 
DOCKED: ATOM      9  C   UNL d   1      18.067 -17.395   1.063 -0.14 -0.01    +0.051 C 
DOCKED: ATOM     10  C   UNL d   1      21.224 -14.596   2.395 -0.17 -0.01    +0.066 A 
DOCKED: ATOM     11  C   UNL d   1      22.397 -14.349   1.649 -0.17 +0.00    -0.021 A 
DOCKED: ATOM     12  C   UNL d   1      23.157 -13.447   2.399 -0.21 -0.00    +0.000 A 
DOCKED: ATOM     13  C   UNL d   1      22.388 -13.201   3.536 -0.18 +0.00    +0.070 A 
DOCKED: ATOM     14  C   UNL d   1      22.706 -14.877   0.272 -0.15 -0.01    +0.052 C 
DOCKED: ATOM     15  C   UNL d   1      22.190 -12.105   5.804 -0.26 +0.01    +0.066 A 
DOCKED: ATOM     16  C   UNL d   1      22.761 -11.412   6.862 -0.41 -0.00    -0.021 A 
DOCKED: ATOM     17  C   UNL d   1      21.780 -11.370   7.863 -0.30 +0.00    +0.000 A 
DOCKED: ATOM     18  C   UNL d   1      20.678 -12.029   7.328 -0.20 +0.01    +0.070 A 
DOCKED: ATOM     19  C   UNL d   1      24.161 -10.840   6.882 -0.49 -0.01    +0.052 C 
DOCKED: ATOM     20  C   UNL d   1      18.356 -12.992   7.533 -0.08 +0.01    +0.066 A 
DOCKED: ATOM     21  C   UNL d   1      17.202 -13.194   8.287 -0.07 -0.00    -0.025 A 
DOCKED: ATOM     22  C   UNL d   1      16.374 -13.974   7.500 -0.14 -0.00    -0.021 A 
DOCKED: ATOM     23  C   UNL d   1      17.075 -14.221   6.300 -0.15 -0.00    +0.066 A 
DOCKED: ATOM     24  C   UNL d   1      16.910 -12.687   9.696 -0.04 +0.01    +0.051 C 
DOCKED: ATOM     25  N   UNL d   1      18.644 -14.902   3.867 -0.12 +0.04    -0.248 N 
DOCKED: ATOM     26  N   UNL d   1      21.195 -13.853   3.506 -0.11 -0.00    -0.248 N 
DOCKED: ATOM     27  N   UNL d   1      20.969 -12.479   6.113 -0.13 -0.06    -0.248 N 
DOCKED: ATOM     28  N   UNL d   1      18.275 -13.630   6.317 -0.04 -0.02    -0.248 N 
DOCKED: ATOM     29 FE   UNL d   1      19.873 -13.618   5.059 -0.04 +0.00    +0.000 Fe
DOCKED: ENDROOT
DOCKED: BRANCH   6  30
DOCKED: ATOM     30  C   UNL d   1      15.672 -17.137   3.216 -0.36 -0.01    +0.052 C 
DOCKED: BRANCH  30  31
DOCKED: ATOM     31  C   UNL d   1      15.848 -18.436   4.002 -0.24 +0.01    +0.115 C 
DOCKED: BRANCH  31  32
DOCKED: ATOM     32  C   UNL d   1      17.261 -18.615   4.512 -0.12 +0.01    +0.139 C 
DOCKED: ATOM     33  O   UNL d   1      18.024 -19.362   3.918 -0.20 -0.09    -0.650 OA
DOCKED: BRANCH  32  34
DOCKED: ATOM     34  O   UNL d   1      17.728 -17.935   5.585 +0.07 -0.07    -0.776 OA
DOCKED: ATOM     35  H   UNL d   1      17.242 -17.827   6.415 +0.05 +0.02    +0.167 HD
DOCKED: ENDBRANCH  32  34
DOCKED: ENDBRANCH  31  32
DOCKED: ENDBRANCH  30  31
DOCKED: ENDBRANCH   6  30
DOCKED: BRANCH  29  36
DOCKED: ATOM     36  C   UNL d   1      20.623 -15.357   5.958 -0.06 +0.14    +0.190 C 
DOCKED: BRANCH  36  37
DOCKED: ATOM     37  O   UNL d   1      20.245 -16.476   6.707 -0.28 -0.26    -0.399 OA
DOCKED: ATOM     38  H   UNL d   1      19.290 -16.635   6.467 +0.07 +0.07    +0.209 HD
DOCKED: ENDBRANCH  36  37
DOCKED: ENDBRANCH  29  36
DOCKED: BRANCH  22  39
DOCKED: ATOM     39  C   UNL d   1      15.014 -14.505   7.912 -0.20 +0.01    +0.052 C 
DOCKED: BRANCH  39  40
DOCKED: ATOM     40  C   UNL d   1      15.163 -15.729   8.829 -0.12 +0.03    +0.115 C 
DOCKED: BRANCH  40  41
DOCKED: ATOM     41  C   UNL d   1      16.058 -16.819   8.276 -0.25 +0.03    +0.139 C 
DOCKED: ATOM     42  O   UNL d   1      15.551 -17.822   7.795 -0.09 -0.17    -0.650 OA
DOCKED: BRANCH  41  43
DOCKED: ATOM     43  O   UNL d   1      17.401 -16.675   8.221 -0.21 -0.25    -0.776 OA
DOCKED: ATOM     44  H   UNL d   1      17.897 -16.752   7.396 +0.04 +0.05    +0.167 HD
DOCKED: ENDBRANCH  41  43
DOCKED: ENDBRANCH  40  41
DOCKED: ENDBRANCH  39  40
DOCKED: ENDBRANCH  22  39
DOCKED: BRANCH  12  45
DOCKED: ATOM     45  C   UNL d   1      24.504 -12.777   2.163 -0.31 -0.00    +0.004 C 
DOCKED: ATOM     46  C   UNL d   1      24.916 -11.983   1.178 -0.37 -0.00    +0.012 C 
DOCKED: ENDBRANCH  12  45
DOCKED: BRANCH  17  47
DOCKED: ATOM     47  C   UNL d   1      21.851 -10.810   9.246 -0.38 +0.00    +0.004 C 
DOCKED: ATOM     48  C   UNL d   1      22.452  -9.655   9.544 -0.54 -0.00    +0.012 C 
DOCKED: ENDBRANCH  17  47
DOCKED: TORSDOF 12
DOCKED: TER
DOCKED: ENDMDL
________________________________________________________________________________


	BEGINNING GENETIC ALGORITHM DOCKING 12 of 100
Run: 12 Seed: 577186381 1375994455 [ Run 12 of 100 GA/GALS ]
Beginning LAMARCKIAN GENETIC ALGORITHM (LGA), with a maximum of 25000000 energy evaluations.

Final-Value: -12.254


	FINAL GENETIC ALGORITHM DOCKED STATE
	_______________________________________________


Detailed state:  trans 25.155 9.821 -9.311 quatxyzw 0.142475 0.311220 -0.277905 0.897559 center 8.781 34.984 -0.736 ntor 12 -176.1964 124.6371 -6.5642 -41.1109 132.6416 40.9903 -128.9278 177.1673 116.9091 157.0276 5.5828 16.6875
State:	 25.155   9.821  -9.311   0.323  0.706 -0.630 52.322   -176.20  124.64   -6.56  -41.11  132.64   40.99 -128.93  177.17  116.91  157.03    5.58   16.69

DOCKED: MODEL       12
DOCKED: USER    Run = 12
DOCKED: USER    DPF = D:/Protein_go_brrr/autodock/final/1A3N/heme_Co/dock.dpf
DOCKED: USER  
DOCKED: USER    Estimated Free Energy of Binding    =   -6.34 kcal/mol  [=(1)+(2)+(3)-(4)]
DOCKED: USER    Estimated Inhibition Constant, Ki   =   22.57 uM (micromolar)  [Temperature = 298.15 K]
DOCKED: USER    
DOCKED: USER    (1) Final Intermolecular Energy     =   -9.92 kcal/mol
DOCKED: USER        vdW + Hbond + desolv Energy     =   -7.02 kcal/mol
DOCKED: USER        Electrostatic Energy            =   -2.90 kcal/mol
DOCKED: USER    (2) Final Total Internal Energy     =   -2.34 kcal/mol
DOCKED: USER    (3) Torsional Free Energy           =   +3.58 kcal/mol
DOCKED: USER    (4) Unbound System's Energy  [=(2)] =   -2.34 kcal/mol
DOCKED: USER    
DOCKED: USER    
DOCKED: USER    NEWDPF move heme_Co_opt.pdbqt
DOCKED: USER    NEWDPF about 8.781000 34.984000 -0.736000
DOCKED: USER    NEWDPF tran0 25.155406 9.820766 -9.310833
DOCKED: USER    NEWDPF quaternion0 0.142475 0.311220 -0.277905 0.897559
DOCKED: USER    NEWDPF axisangle0 0.323150 0.705882 -0.630321 52.321993
DOCKED: USER    NEWDPF quat0 0.323150 0.705882 -0.630321 52.321993
DOCKED: USER    NEWDPF dihe0 -176.20 124.64 -6.56 -41.11 132.64 40.99 -128.93 177.17 116.91 157.03 5.58 16.69 
DOCKED: USER  keepresnum = 1 
DOCKED: USER  
DOCKED: REMARK  12 active torsions:
DOCKED: REMARK  status: ('A' for Active; 'I' for Inactive)
DOCKED: REMARK    1  A    between atoms: C_6  and  C_10 
DOCKED: REMARK    2  A    between atoms: C_10  and  C_11 
DOCKED: REMARK    3  A    between atoms: C_11  and  C_12 
DOCKED: REMARK    4  A    between atoms: C_12  and  O_14 
DOCKED: REMARK    5  A    between atoms: C_17  and  C_20 
DOCKED: REMARK    6  A    between atoms: C_24  and  C_27 
DOCKED: REMARK    7  A    between atoms: C_31  and  C_34 
DOCKED: REMARK    8  A    between atoms: C_34  and  C_35 
DOCKED: REMARK    9  A    between atoms: C_35  and  C_36 
DOCKED: REMARK   10  A    between atoms: C_36  and  O_38 
DOCKED: REMARK   11  A    between atoms: FE_43  and  C_44 
DOCKED: REMARK   12  A    between atoms: C_44  and  O_45 
DOCKED: USER                              x       y       z     vdW  Elec       q    Type
DOCKED: USER                           _______ _______ _______ _____ _____    ______ ____
DOCKED: ROOT
DOCKED: ATOM      1  C   UNL d   1      24.232   9.015 -11.103 -0.04 +0.08    +0.064 A 
DOCKED: ATOM      2  C   UNL d   1      23.761   7.923  -6.499 -0.33 +0.02    +0.064 C 
DOCKED: ATOM      3  C   UNL d   1      27.220  11.020  -5.372 -0.35 +0.01    +0.064 A 
DOCKED: ATOM      4  C   UNL d   1      27.452  12.433 -10.022 -0.09 +0.02    +0.064 A 
DOCKED: ATOM      5  C   UNL d   1      23.874   8.463  -9.932 -0.12 +0.07    +0.066 A 
DOCKED: ATOM      6  C   UNL d   1      22.817   7.538  -9.834 -0.16 -0.01    -0.021 A 
DOCKED: ATOM      7  C   UNL d   1      22.669   7.241  -8.493 -0.23 -0.01    -0.025 A 
DOCKED: ATOM      8  C   UNL d   1      23.653   7.985  -7.833 -0.25 +0.03    +0.066 A 
DOCKED: ATOM      9  C   UNL d   1      21.646   6.297  -7.844 -0.13 +0.02    +0.051 C 
DOCKED: ATOM     10  C   UNL d   1      24.758   8.631  -5.736 -0.33 +0.02    +0.066 A 
DOCKED: ATOM     11  C   UNL d   1      25.013   8.500  -4.354 -0.40 -0.00    -0.021 A 
DOCKED: ATOM     12  C   UNL d   1      26.029   9.412  -4.053 -0.48 +0.00    +0.000 A 
DOCKED: ATOM     13  C   UNL d   1      26.326  10.021  -5.272 -0.39 +0.01    +0.070 A 
DOCKED: ATOM     14  C   UNL d   1      24.384   7.497  -3.422 -0.39 +0.01    +0.052 C 
DOCKED: ATOM     15  C   UNL d   1      27.609  11.793  -6.536 -0.30 +0.01    +0.066 A 
DOCKED: ATOM     16  C   UNL d   1      28.433  12.910  -6.544 -0.28 -0.00    -0.021 A 
DOCKED: ATOM     17  C   UNL d   1      28.501  13.323  -7.882 -0.14 +0.00    +0.000 A 
DOCKED: ATOM     18  C   UNL d   1      27.724  12.411  -8.590 -0.14 +0.02    +0.070 A 
DOCKED: ATOM     19  C   UNL d   1      29.096  13.520  -5.329 -0.34 +0.00    +0.052 C 
DOCKED: ATOM     20  C   UNL d   1      26.632  11.609 -10.717 -0.09 +0.04    +0.066 A 
DOCKED: ATOM     21  C   UNL d   1      26.423  11.752 -12.087 -0.07 -0.01    -0.025 A 
DOCKED: ATOM     22  C   UNL d   1      25.522  10.762 -12.433 -0.08 -0.02    -0.021 A 
DOCKED: ATOM     23  C   UNL d   1      25.213  10.066 -11.244 +0.09 +0.08    +0.066 A 
DOCKED: ATOM     24  C   UNL d   1      27.037  12.793 -13.020 -0.02 +0.02    +0.051 C 
DOCKED: ATOM     25  N   UNL d   1      24.418   8.747  -8.700 -0.15 -0.22    -0.248 N 
DOCKED: ATOM     26  N   UNL d   1      25.597   9.508  -6.299 -0.21 -0.09    -0.248 N 
DOCKED: ATOM     27  N   UNL d   1      27.185  11.532  -7.752 -0.15 -0.09    -0.248 N 
DOCKED: ATOM     28  N   UNL d   1      25.882  10.578 -10.203 -0.06 -0.26    -0.248 N 
DOCKED: ATOM     29 FE   UNL d   1      25.884  10.223  -8.201 -0.05 +0.00    +0.000 Fe
DOCKED: ENDROOT
DOCKED: BRANCH   6  30
DOCKED: ATOM     30  C   UNL d   1      21.941   7.032 -10.976 -0.11 +0.02    +0.052 C 
DOCKED: BRANCH  30  31
DOCKED: ATOM     31  C   UNL d   1      22.552   5.782 -11.609 -0.08 +0.06    +0.115 C 
DOCKED: BRANCH  31  32
DOCKED: ATOM     32  C   UNL d   1      23.878   6.064 -12.281 -0.08 +0.12    +0.139 C 
DOCKED: ATOM     33  O   UNL d   1      24.917   5.763 -11.711 -0.04 -0.94    -0.650 OA
DOCKED: BRANCH  32  34
DOCKED: ATOM     34  O   UNL d   1      23.954   6.598 -13.522 +0.02 -0.51    -0.776 OA
DOCKED: ATOM     35  H   UNL d   1      24.783   6.796 -13.979 +0.01 +0.13    +0.167 HD
DOCKED: ENDBRANCH  32  34
DOCKED: ENDBRANCH  31  32
DOCKED: ENDBRANCH  30  31
DOCKED: ENDBRANCH   6  30
DOCKED: BRANCH  29  36
DOCKED: ATOM     36  C   UNL d   1      24.288  11.556  -7.939 -0.01 +0.06    +0.190 C 
DOCKED: BRANCH  36  37
DOCKED: ATOM     37  O   UNL d   1      23.708  12.716  -8.463 -0.10 -0.11    -0.399 OA
DOCKED: ATOM     38  H   UNL d   1      24.167  12.861  -9.337 +0.06 +0.06    +0.209 HD
DOCKED: ENDBRANCH  36  37
DOCKED: ENDBRANCH  29  36
DOCKED: BRANCH  22  39
DOCKED: ATOM     39  C   UNL d   1      24.942  10.544 -13.818 -0.03 +0.03    +0.052 C 
DOCKED: BRANCH  39  40
DOCKED: ATOM     40  C   UNL d   1      25.335   9.159 -14.359 -0.04 +0.07    +0.115 C 
DOCKED: BRANCH  40  41
DOCKED: ATOM     41  C   UNL d   1      26.650   8.631 -13.825 +0.04 +0.16    +0.139 C 
DOCKED: ATOM     42  O   UNL d   1      27.618   9.377 -13.772 -0.06 -0.57    -0.650 OA
DOCKED: BRANCH  41  43
DOCKED: ATOM     43  O   UNL d   1      26.762   7.380 -13.325 +0.18 -1.51    -0.776 OA
DOCKED: ATOM     44  H   UNL d   1      26.015   6.769 -13.282 +0.01 +0.28    +0.167 HD
DOCKED: ENDBRANCH  41  43
DOCKED: ENDBRANCH  40  41
DOCKED: ENDBRANCH  39  40
DOCKED: ENDBRANCH  22  39
DOCKED: BRANCH  12  45
DOCKED: ATOM     45  C   UNL d   1      26.761   9.762  -2.765 -0.42 +0.00    +0.004 C 
DOCKED: ATOM     46  C   UNL d   1      26.293  10.056  -1.555 -0.53 +0.00    +0.012 C 
DOCKED: ENDBRANCH  12  45
DOCKED: BRANCH  17  47
DOCKED: ATOM     47  C   UNL d   1      29.188  14.505  -8.482 -0.07 +0.00    +0.004 C 
DOCKED: ATOM     48  C   UNL d   1      30.259  14.411  -9.275 -0.05 +0.00    +0.012 C 
DOCKED: ENDBRANCH  17  47
DOCKED: TORSDOF 12
DOCKED: TER
DOCKED: ENDMDL
________________________________________________________________________________


	BEGINNING GENETIC ALGORITHM DOCKING 13 of 100
Run: 13 Seed: 815585986 1889075160 [ Run 13 of 100 GA/GALS ]
Beginning LAMARCKIAN GENETIC ALGORITHM (LGA), with a maximum of 25000000 energy evaluations.

Final-Value: -12.053


	FINAL GENETIC ALGORITHM DOCKED STATE
	_______________________________________________


Detailed state:  trans 6.396 -13.861 19.960 quatxyzw 0.632266 0.562133 0.516772 0.131122 center 8.781 34.984 -0.736 ntor 12 -14.3897 173.7658 30.5322 57.1689 -87.9083 -15.8439 -164.1723 -74.3499 63.7052 90.0219 179.6353 -178.5539
State:	  6.396 -13.861  19.960   0.638  0.567  0.521 164.931    -14.39  173.77   30.53   57.17  -87.91  -15.84 -164.17  -74.35   63.71   90.02  179.64 -178.55

DOCKED: MODEL       13
DOCKED: USER    Run = 13
DOCKED: USER    DPF = D:/Protein_go_brrr/autodock/final/1A3N/heme_Co/dock.dpf
DOCKED: USER  
DOCKED: USER    Estimated Free Energy of Binding    =   -7.63 kcal/mol  [=(1)+(2)+(3)-(4)]
DOCKED: USER    Estimated Inhibition Constant, Ki   =    2.54 uM (micromolar)  [Temperature = 298.15 K]
DOCKED: USER    
DOCKED: USER    (1) Final Intermolecular Energy     =  -11.21 kcal/mol
DOCKED: USER        vdW + Hbond + desolv Energy     =   -7.07 kcal/mol
DOCKED: USER        Electrostatic Energy            =   -4.14 kcal/mol
DOCKED: USER    (2) Final Total Internal Energy     =   -0.84 kcal/mol
DOCKED: USER    (3) Torsional Free Energy           =   +3.58 kcal/mol
DOCKED: USER    (4) Unbound System's Energy  [=(2)] =   -0.84 kcal/mol
DOCKED: USER    
DOCKED: USER    
DOCKED: USER    NEWDPF move heme_Co_opt.pdbqt
DOCKED: USER    NEWDPF about 8.781000 34.984000 -0.736000
DOCKED: USER    NEWDPF tran0 6.395595 -13.860647 19.959695
DOCKED: USER    NEWDPF quaternion0 0.632266 0.562133 0.516772 0.131122
DOCKED: USER    NEWDPF axisangle0 0.637773 0.567028 0.521272 164.931082
DOCKED: USER    NEWDPF quat0 0.637773 0.567028 0.521272 164.931082
DOCKED: USER    NEWDPF dihe0 -14.39 173.77 30.53 57.17 -87.91 -15.84 -164.17 -74.35 63.71 90.02 179.64 -178.55 
DOCKED: USER  keepresnum = 1 
DOCKED: USER  
DOCKED: REMARK  12 active torsions:
DOCKED: REMARK  status: ('A' for Active; 'I' for Inactive)
DOCKED: REMARK    1  A    between atoms: C_6  and  C_10 
DOCKED: REMARK    2  A    between atoms: C_10  and  C_11 
DOCKED: REMARK    3  A    between atoms: C_11  and  C_12 
DOCKED: REMARK    4  A    between atoms: C_12  and  O_14 
DOCKED: REMARK    5  A    between atoms: C_17  and  C_20 
DOCKED: REMARK    6  A    between atoms: C_24  and  C_27 
DOCKED: REMARK    7  A    between atoms: C_31  and  C_34 
DOCKED: REMARK    8  A    between atoms: C_34  and  C_35 
DOCKED: REMARK    9  A    between atoms: C_35  and  C_36 
DOCKED: REMARK   10  A    between atoms: C_36  and  O_38 
DOCKED: REMARK   11  A    between atoms: FE_43  and  C_44 
DOCKED: REMARK   12  A    between atoms: C_44  and  O_45 
DOCKED: USER                              x       y       z     vdW  Elec       q    Type
DOCKED: USER                           _______ _______ _______ _____ _____    ______ ____
DOCKED: ROOT
DOCKED: ATOM      1  C   UNL d   1       6.709 -15.775  18.984 -0.12 +0.03    +0.064 A 
DOCKED: ATOM      2  C   UNL d   1       6.139 -11.374  17.276 -0.13 +0.02    +0.064 C 
DOCKED: ATOM      3  C   UNL d   1       5.322  -9.728  21.687 -0.15 +0.02    +0.064 A 
DOCKED: ATOM      4  C   UNL d   1       6.281 -14.140  23.497 -0.18 +0.01    +0.064 A 
DOCKED: ATOM      5  C   UNL d   1       6.577 -14.700  18.189 -0.09 +0.03    +0.066 A 
DOCKED: ATOM      6  C   UNL d   1       6.816 -14.762  16.803 -0.05 -0.01    -0.021 A 
DOCKED: ATOM      7  C   UNL d   1       6.672 -13.478  16.316 -0.06 -0.01    -0.025 A 
DOCKED: ATOM      8  C   UNL d   1       6.335 -12.691  17.422 -0.07 +0.02    +0.066 A 
DOCKED: ATOM      9  C   UNL d   1       6.841 -12.994  14.867 -0.13 +0.03    +0.051 C 
DOCKED: ATOM     10  C   UNL d   1       5.764 -10.490  18.351 -0.14 +0.02    +0.066 A 
DOCKED: ATOM     11  C   UNL d   1       5.407  -9.128  18.238 -0.20 -0.01    -0.021 A 
DOCKED: ATOM     12  C   UNL d   1       5.171  -8.674  19.539 -0.19 +0.00    +0.000 A 
DOCKED: ATOM     13  C   UNL d   1       5.387  -9.792  20.345 -0.16 +0.03    +0.070 A 
DOCKED: ATOM     14  C   UNL d   1       5.218  -8.359  16.956 -0.29 +0.01    +0.052 C 
DOCKED: ATOM     15  C   UNL d   1       5.567 -10.765  22.670 -0.15 +0.02    +0.066 A 
DOCKED: ATOM     16  C   UNL d   1       5.625 -10.597  24.046 -0.19 -0.00    -0.021 A 
DOCKED: ATOM     17  C   UNL d   1       5.904 -11.867  24.572 -0.19 +0.00    +0.000 A 
DOCKED: ATOM     18  C   UNL d   1       5.977 -12.715  23.472 -0.15 +0.02    +0.070 A 
DOCKED: ATOM     19  C   UNL d   1       5.424  -9.290  24.779 -0.29 -0.00    +0.052 C 
DOCKED: ATOM     20  C   UNL d   1       6.443 -14.967  22.436 -0.20 +0.02    +0.066 A 
DOCKED: ATOM     21  C   UNL d   1       6.770 -16.313  22.585 -0.19 -0.01    -0.025 A 
DOCKED: ATOM     22  C   UNL d   1       6.871 -16.817  21.302 -0.18 -0.01    -0.021 A 
DOCKED: ATOM     23  C   UNL d   1       6.611 -15.742  20.425 -0.16 +0.03    +0.066 A 
DOCKED: ATOM     24  C   UNL d   1       6.995 -17.078  23.887 -0.16 +0.01    +0.051 C 
DOCKED: ATOM     25  N   UNL d   1       6.264 -13.423  18.595 +0.14 -0.10    -0.248 N 
DOCKED: ATOM     26  N   UNL d   1       5.691 -10.902  19.621 -0.10 -0.09    -0.248 N 
DOCKED: ATOM     27  N   UNL d   1       5.801 -12.019  22.354 -0.10 -0.09    -0.248 N 
DOCKED: ATOM     28  N   UNL d   1       6.353 -14.620  21.108 -0.11 -0.12    -0.248 N 
DOCKED: ATOM     29 FE   UNL d   1       6.019 -12.683  20.588 -0.04 +0.00    +0.000 Fe
DOCKED: ENDROOT
DOCKED: BRANCH   6  30
DOCKED: ATOM     30  C   UNL d   1       7.244 -15.991  16.007 -0.03 +0.04    +0.052 C 
DOCKED: BRANCH  30  31
DOCKED: ATOM     31  C   UNL d   1       8.761 -16.009  15.822 -0.04 +0.11    +0.115 C 
DOCKED: BRANCH  31  32
DOCKED: ATOM     32  C   UNL d   1       9.165 -15.945  14.364 +0.07 +0.22    +0.139 C 
DOCKED: ATOM     33  O   UNL d   1       8.930 -14.934  13.720 -0.40 -1.19    -0.650 OA
DOCKED: BRANCH  32  34
DOCKED: ATOM     34  O   UNL d   1       9.826 -16.958  13.758 -0.22 -1.45    -0.776 OA
DOCKED: ATOM     35  H   UNL d   1      10.306 -17.653  14.229 +0.01 +0.21    +0.167 HD
DOCKED: ENDBRANCH  32  34
DOCKED: ENDBRANCH  31  32
DOCKED: ENDBRANCH  30  31
DOCKED: ENDBRANCH   6  30
DOCKED: BRANCH  29  36
DOCKED: ATOM     36  C   UNL d   1       8.081 -12.305  20.580 -0.12 +0.06    +0.190 C 
DOCKED: BRANCH  36  37
DOCKED: ATOM     37  O   UNL d   1       9.149 -11.933  21.404 -0.13 -0.08    -0.399 OA
DOCKED: ATOM     38  H   UNL d   1       9.199 -12.649  22.097 -0.07 +0.03    +0.209 HD
DOCKED: ENDBRANCH  36  37
DOCKED: ENDBRANCH  29  36
DOCKED: BRANCH  22  39
DOCKED: ATOM     39  C   UNL d   1       7.262 -18.238  20.943 -0.13 +0.02    +0.052 C 
DOCKED: BRANCH  39  40
DOCKED: ATOM     40  C   UNL d   1       8.780 -18.436  21.086 -0.04 +0.08    +0.115 C 
DOCKED: BRANCH  40  41
DOCKED: ATOM     41  C   UNL d   1       9.557 -18.267  19.798 -0.07 +0.19    +0.139 C 
DOCKED: ATOM     42  O   UNL d   1       9.567 -17.176  19.244 -0.51 -1.20    -0.650 OA
DOCKED: BRANCH  41  43
DOCKED: ATOM     43  O   UNL d   1      10.312 -19.264  19.287 +0.04 -1.20    -0.776 OA
DOCKED: ATOM     44  H   UNL d   1      10.049 -20.192  19.336 +0.02 +0.15    +0.167 HD
DOCKED: ENDBRANCH  41  43
DOCKED: ENDBRANCH  40  41
DOCKED: ENDBRANCH  39  40
DOCKED: ENDBRANCH  22  39
DOCKED: BRANCH  12  45
DOCKED: ATOM     45  C   UNL d   1       4.749  -7.326  20.107 -0.32 +0.00    +0.004 C 
DOCKED: ATOM     46  C   UNL d   1       3.763  -6.507  19.751 -0.44 +0.00    +0.012 C 
DOCKED: ENDBRANCH  12  45
DOCKED: BRANCH  17  47
DOCKED: ATOM     47  C   UNL d   1       6.142 -12.282  25.987 -0.27 -0.00    +0.004 C 
DOCKED: ATOM     48  C   UNL d   1       7.334 -12.659  26.454 -0.40 -0.00    +0.012 C 
DOCKED: ENDBRANCH  17  47
DOCKED: TORSDOF 12
DOCKED: TER
DOCKED: ENDMDL
________________________________________________________________________________


	BEGINNING GENETIC ALGORITHM DOCKING 14 of 100
Run: 14 Seed: 1471196429 1045088270 [ Run 14 of 100 GA/GALS ]
Beginning LAMARCKIAN GENETIC ALGORITHM (LGA), with a maximum of 25000000 energy evaluations.

Final-Value: -9.936


	FINAL GENETIC ALGORITHM DOCKED STATE
	_______________________________________________


Detailed state:  trans 5.771 17.324 -2.060 quatxyzw -0.313123 -0.236717 0.749249 0.533428 center 8.781 34.984 -0.736 ntor 12 -7.2992 -75.3478 161.4962 -88.5747 -89.1000 -10.4457 147.9427 -126.8539 5.1286 -44.8981 180.0000 -167.5999
State:	  5.771  17.324  -2.060  -0.370 -0.280  0.886 115.525     -7.30  -75.35  161.50  -88.57  -89.10  -10.45  147.94 -126.85    5.13  -44.90  180.00 -167.60

DOCKED: MODEL       14
DOCKED: USER    Run = 14
DOCKED: USER    DPF = D:/Protein_go_brrr/autodock/final/1A3N/heme_Co/dock.dpf
DOCKED: USER  
DOCKED: USER    Estimated Free Energy of Binding    =   -5.64 kcal/mol  [=(1)+(2)+(3)-(4)]
DOCKED: USER    Estimated Inhibition Constant, Ki   =   72.87 uM (micromolar)  [Temperature = 298.15 K]
DOCKED: USER    
DOCKED: USER    (1) Final Intermolecular Energy     =   -9.22 kcal/mol
DOCKED: USER        vdW + Hbond + desolv Energy     =   -7.87 kcal/mol
DOCKED: USER        Electrostatic Energy            =   -1.35 kcal/mol
DOCKED: USER    (2) Final Total Internal Energy     =   -0.71 kcal/mol
DOCKED: USER    (3) Torsional Free Energy           =   +3.58 kcal/mol
DOCKED: USER    (4) Unbound System's Energy  [=(2)] =   -0.71 kcal/mol
DOCKED: USER    
DOCKED: USER    
DOCKED: USER    NEWDPF move heme_Co_opt.pdbqt
DOCKED: USER    NEWDPF about 8.781000 34.984000 -0.736000
DOCKED: USER    NEWDPF tran0 5.771189 17.323835 -2.060175
DOCKED: USER    NEWDPF quaternion0 -0.313123 -0.236717 0.749249 0.533428
DOCKED: USER    NEWDPF axisangle0 -0.370190 -0.279859 0.885798 115.525272
DOCKED: USER    NEWDPF quat0 -0.370190 -0.279859 0.885798 115.525272
DOCKED: USER    NEWDPF dihe0 -7.30 -75.35 161.50 -88.57 -89.10 -10.45 147.94 -126.85 5.13 -44.90 180.00 -167.60 
DOCKED: USER  keepresnum = 1 
DOCKED: USER  
DOCKED: REMARK  12 active torsions:
DOCKED: REMARK  status: ('A' for Active; 'I' for Inactive)
DOCKED: REMARK    1  A    between atoms: C_6  and  C_10 
DOCKED: REMARK    2  A    between atoms: C_10  and  C_11 
DOCKED: REMARK    3  A    between atoms: C_11  and  C_12 
DOCKED: REMARK    4  A    between atoms: C_12  and  O_14 
DOCKED: REMARK    5  A    between atoms: C_17  and  C_20 
DOCKED: REMARK    6  A    between atoms: C_24  and  C_27 
DOCKED: REMARK    7  A    between atoms: C_31  and  C_34 
DOCKED: REMARK    8  A    between atoms: C_34  and  C_35 
DOCKED: REMARK    9  A    between atoms: C_35  and  C_36 
DOCKED: REMARK   10  A    between atoms: C_36  and  O_38 
DOCKED: REMARK   11  A    between atoms: FE_43  and  C_44 
DOCKED: REMARK   12  A    between atoms: C_44  and  O_45 
DOCKED: USER                              x       y       z     vdW  Elec       q    Type
DOCKED: USER                           _______ _______ _______ _____ _____    ______ ____
DOCKED: ROOT
DOCKED: ATOM      1  C   UNL d   1       6.883  19.010  -1.262 -0.04 -0.01    +0.064 A 
DOCKED: ATOM      2  C   UNL d   1       3.257  16.466   0.468 -0.14 -0.02    +0.064 C 
DOCKED: ATOM      3  C   UNL d   1       2.969  14.021  -3.627 -0.22 -0.01    +0.064 A 
DOCKED: ATOM      4  C   UNL d   1       6.916  16.340  -5.273 -0.07 -0.01    +0.064 A 
DOCKED: ATOM      5  C   UNL d   1       5.890  18.519  -0.502 -0.07 -0.02    +0.066 A 
DOCKED: ATOM      6  C   UNL d   1       5.688  18.941   0.827 -0.14 +0.01    -0.021 A 
DOCKED: ATOM      7  C   UNL d   1       4.649  18.183   1.332 -0.15 +0.01    -0.025 A 
DOCKED: ATOM      8  C   UNL d   1       4.251  17.344   0.285 -0.10 -0.02    +0.066 A 
DOCKED: ATOM      9  C   UNL d   1       4.044  18.234   2.743 -0.29 -0.02    +0.051 C 
DOCKED: ATOM     10  C   UNL d   1       2.762  15.582  -0.557 -0.11 -0.01    +0.066 A 
DOCKED: ATOM     11  C   UNL d   1       1.633  14.738  -0.471 -0.24 +0.00    -0.021 A 
DOCKED: ATOM     12  C   UNL d   1       1.570  14.040  -1.680 -0.33 -0.00    +0.000 A 
DOCKED: ATOM     13  C   UNL d   1       2.654  14.517  -2.417 -0.17 -0.01    +0.070 A 
DOCKED: ATOM     14  C   UNL d   1       0.640  14.690   0.662 -0.34 -0.01    +0.052 C 
DOCKED: ATOM     15  C   UNL d   1       4.077  14.358  -4.499 -0.13 -0.01    +0.066 A 
DOCKED: ATOM     16  C   UNL d   1       4.429  13.706  -5.672 -0.18 +0.00    -0.021 A 
DOCKED: ATOM     17  C   UNL d   1       5.568  14.369  -6.149 -0.08 -0.00    +0.000 A 
DOCKED: ATOM     18  C   UNL d   1       5.813  15.388  -5.235 -0.05 -0.01    +0.070 A 
DOCKED: ATOM     19  C   UNL d   1       3.699  12.524  -6.271 -0.28 -0.02    +0.052 C 
DOCKED: ATOM     20  C   UNL d   1       7.224  17.283  -4.351 -0.07 -0.01    +0.066 A 
DOCKED: ATOM     21  C   UNL d   1       8.333  18.116  -4.481 -0.10 +0.00    -0.025 A 
DOCKED: ATOM     22  C   UNL d   1       8.332  18.916  -3.353 -0.08 +0.00    -0.021 A 
DOCKED: ATOM     23  C   UNL d   1       7.221  18.520  -2.579 -0.04 -0.01    +0.066 A 
DOCKED: ATOM     24  C   UNL d   1       9.355  18.135  -5.614 +0.13 -0.00    +0.051 C 
DOCKED: ATOM     25  N   UNL d   1       4.999  17.535  -0.865 -0.03 +0.06    -0.248 N 
DOCKED: ATOM     26  N   UNL d   1       3.341  15.489  -1.759 -0.04 +0.04    -0.248 N 
DOCKED: ATOM     27  N   UNL d   1       4.923  15.332  -4.249 -0.02 +0.03    -0.248 N 
DOCKED: ATOM     28  N   UNL d   1       6.549  17.530  -3.178 -0.01 +0.03    -0.248 N 
DOCKED: ATOM     29 FE   UNL d   1       4.961  16.370  -2.659 -0.02 -0.00    +0.000 Fe
DOCKED: ENDROOT
DOCKED: BRANCH   6  30
DOCKED: ATOM     30  C   UNL d   1       6.517  19.968   1.592 -0.24 +0.00    +0.052 C 
DOCKED: BRANCH  30  31
DOCKED: ATOM     31  C   UNL d   1       7.588  19.274   2.433 -0.18 +0.01    +0.115 C 
DOCKED: BRANCH  31  32
DOCKED: ATOM     32  C   UNL d   1       8.385  20.251   3.271 -0.29 +0.08    +0.139 C 
DOCKED: ATOM     33  O   UNL d   1       7.936  21.367   3.483 -0.13 -0.37    -0.650 OA
DOCKED: BRANCH  32  34
DOCKED: ATOM     34  O   UNL d   1       9.566  19.912   3.838 -0.25 -1.15    -0.776 OA
DOCKED: ATOM     35  H   UNL d   1       9.905  19.008   3.890 -0.07 +0.23    +0.167 HD
DOCKED: ENDBRANCH  32  34
DOCKED: ENDBRANCH  31  32
DOCKED: ENDBRANCH  30  31
DOCKED: ENDBRANCH   6  30
DOCKED: BRANCH  29  36
DOCKED: ATOM     36  C   UNL d   1       6.235  15.025  -1.678 -0.21 -0.04    +0.190 C 
DOCKED: BRANCH  36  37
DOCKED: ATOM     37  O   UNL d   1       7.096  13.945  -1.897 -0.17 +0.10    -0.399 OA
DOCKED: ATOM     38  H   UNL d   1       7.549  13.796  -1.020 -0.25 -0.10    +0.209 HD
DOCKED: ENDBRANCH  36  37
DOCKED: ENDBRANCH  29  36
DOCKED: BRANCH  22  39
DOCKED: ATOM     39  C   UNL d   1       9.382  19.957  -3.013 -0.09 -0.00    +0.052 C 
DOCKED: BRANCH  39  40
DOCKED: ATOM     40  C   UNL d   1      10.739  19.289  -2.736 -0.18 +0.00    +0.115 C 
DOCKED: BRANCH  40  41
DOCKED: ATOM     41  C   UNL d   1      11.899  19.888  -3.503 -0.17 +0.01    +0.139 C 
DOCKED: ATOM     42  O   UNL d   1      11.741  20.946  -4.097 -0.01 -0.01    -0.650 OA
DOCKED: BRANCH  41  43
DOCKED: ATOM     43  O   UNL d   1      13.130  19.332  -3.479 -0.53 -0.04    -0.776 OA
DOCKED: ATOM     44  H   UNL d   1      13.832  19.596  -4.089 -0.14 -0.07    +0.167 HD
DOCKED: ENDBRANCH  41  43
DOCKED: ENDBRANCH  40  41
DOCKED: ENDBRANCH  39  40
DOCKED: ENDBRANCH  22  39
DOCKED: BRANCH  12  45
DOCKED: ATOM     45  C   UNL d   1       0.605  12.998  -2.228 -0.62 -0.00    +0.004 C 
DOCKED: ATOM     46  C   UNL d   1       0.687  11.670  -2.254 -0.66 -0.00    +0.012 C 
DOCKED: ENDBRANCH  12  45
DOCKED: BRANCH  17  47
DOCKED: ATOM     47  C   UNL d   1       6.419  14.068  -7.339 -0.09 -0.00    +0.004 C 
DOCKED: ATOM     48  C   UNL d   1       7.670  13.610  -7.254 -0.17 -0.00    +0.012 C 
DOCKED: ENDBRANCH  17  47
DOCKED: TORSDOF 12
DOCKED: TER
DOCKED: ENDMDL
________________________________________________________________________________


	BEGINNING GENETIC ALGORITHM DOCKING 15 of 100
Run: 15 Seed: 1187400391 1270495193 [ Run 15 of 100 GA/GALS ]
Beginning LAMARCKIAN GENETIC ALGORITHM (LGA), with a maximum of 25000000 energy evaluations.

Final-Value: -13.855


	FINAL GENETIC ALGORITHM DOCKED STATE
	_______________________________________________


Detailed state:  trans 23.454 -7.356 36.875 quatxyzw -0.369033 -0.745364 -0.022870 0.554728 center 8.781 34.984 -0.736 ntor 12 53.5778 137.8667 -133.9961 4.8288 157.7421 88.4444 28.7355 118.5243 173.0001 136.2838 -165.3369 -180.0000
State:	 23.454  -7.356  36.875  -0.444 -0.896 -0.027 112.616     53.58  137.87 -134.00    4.83  157.74   88.44   28.74  118.52  173.00  136.28 -165.34 -180.00

DOCKED: MODEL       15
DOCKED: USER    Run = 15
DOCKED: USER    DPF = D:/Protein_go_brrr/autodock/final/1A3N/heme_Co/dock.dpf
DOCKED: USER  
DOCKED: USER    Estimated Free Energy of Binding    =   -6.50 kcal/mol  [=(1)+(2)+(3)-(4)]
DOCKED: USER    Estimated Inhibition Constant, Ki   =   17.14 uM (micromolar)  [Temperature = 298.15 K]
DOCKED: USER    
DOCKED: USER    (1) Final Intermolecular Energy     =  -10.08 kcal/mol
DOCKED: USER        vdW + Hbond + desolv Energy     =   -7.74 kcal/mol
DOCKED: USER        Electrostatic Energy            =   -2.34 kcal/mol
DOCKED: USER    (2) Final Total Internal Energy     =   -3.77 kcal/mol
DOCKED: USER    (3) Torsional Free Energy           =   +3.58 kcal/mol
DOCKED: USER    (4) Unbound System's Energy  [=(2)] =   -3.77 kcal/mol
DOCKED: USER    
DOCKED: USER    
DOCKED: USER    NEWDPF move heme_Co_opt.pdbqt
DOCKED: USER    NEWDPF about 8.781000 34.984000 -0.736000
DOCKED: USER    NEWDPF tran0 23.454112 -7.356308 36.875259
DOCKED: USER    NEWDPF quaternion0 -0.369033 -0.745364 -0.022870 0.554728
DOCKED: USER    NEWDPF axisangle0 -0.443532 -0.895837 -0.027487 112.615974
DOCKED: USER    NEWDPF quat0 -0.443532 -0.895837 -0.027487 112.615974
DOCKED: USER    NEWDPF dihe0 53.58 137.87 -134.00 4.83 157.74 88.44 28.74 118.52 173.00 136.28 -165.34 -180.00 
DOCKED: USER  keepresnum = 1 
DOCKED: USER  
DOCKED: REMARK  12 active torsions:
DOCKED: REMARK  status: ('A' for Active; 'I' for Inactive)
DOCKED: REMARK    1  A    between atoms: C_6  and  C_10 
DOCKED: REMARK    2  A    between atoms: C_10  and  C_11 
DOCKED: REMARK    3  A    between atoms: C_11  and  C_12 
DOCKED: REMARK    4  A    between atoms: C_12  and  O_14 
DOCKED: REMARK    5  A    between atoms: C_17  and  C_20 
DOCKED: REMARK    6  A    between atoms: C_24  and  C_27 
DOCKED: REMARK    7  A    between atoms: C_31  and  C_34 
DOCKED: REMARK    8  A    between atoms: C_34  and  C_35 
DOCKED: REMARK    9  A    between atoms: C_35  and  C_36 
DOCKED: REMARK   10  A    between atoms: C_36  and  O_38 
DOCKED: REMARK   11  A    between atoms: FE_43  and  C_44 
DOCKED: REMARK   12  A    between atoms: C_44  and  O_45 
DOCKED: USER                              x       y       z     vdW  Elec       q    Type
DOCKED: USER                           _______ _______ _______ _____ _____    ______ ____
DOCKED: ROOT
DOCKED: ATOM      1  C   UNL d   1      23.216  -7.788  38.990 -0.07 +0.02    +0.064 A 
DOCKED: ATOM      2  C   UNL d   1      24.830 -10.398  35.358 -0.21 +0.02    +0.064 C 
DOCKED: ATOM      3  C   UNL d   1      23.706  -6.905  32.299 -0.18 +0.00    +0.064 A 
DOCKED: ATOM      4  C   UNL d   1      22.408  -4.070  36.033 -0.14 +0.01    +0.064 A 
DOCKED: ATOM      5  C   UNL d   1      23.706  -8.772  38.218 -0.10 +0.03    +0.066 A 
DOCKED: ATOM      6  C   UNL d   1      24.222  -9.964  38.764 -0.07 -0.01    -0.021 A 
DOCKED: ATOM      7  C   UNL d   1      24.710 -10.708  37.708 -0.11 -0.01    -0.025 A 
DOCKED: ATOM      8  C   UNL d   1      24.456  -9.946  36.562 -0.15 +0.03    +0.066 A 
DOCKED: ATOM      9  C   UNL d   1      25.391 -12.084  37.759 -0.08 +0.02    +0.051 C 
DOCKED: ATOM     10  C   UNL d   1      24.589  -9.697  34.122 -0.25 +0.02    +0.066 A 
DOCKED: ATOM     11  C   UNL d   1      24.830 -10.180  32.817 -0.33 -0.00    -0.021 A 
DOCKED: ATOM     12  C   UNL d   1      24.489  -9.143  31.944 -0.39 +0.00    +0.000 A 
DOCKED: ATOM     13  C   UNL d   1      24.055  -8.112  32.778 -0.30 +0.01    +0.070 A 
DOCKED: ATOM     14  C   UNL d   1      25.264 -11.575  32.448 -0.31 +0.00    +0.052 C 
DOCKED: ATOM     15  C   UNL d   1      23.286  -5.717  33.016 -0.27 +0.01    +0.066 A 
DOCKED: ATOM     16  C   UNL d   1      23.079  -4.457  32.471 -0.41 -0.00    -0.021 A 
DOCKED: ATOM     17  C   UNL d   1      22.707  -3.636  33.545 -0.43 +0.00    +0.000 A 
DOCKED: ATOM     18  C   UNL d   1      22.700  -4.466  34.661 -0.28 +0.01    +0.070 A 
DOCKED: ATOM     19  C   UNL d   1      23.237  -4.096  31.011 -0.42 +0.01    +0.052 C 
DOCKED: ATOM     20  C   UNL d   1      22.479  -4.839  37.145 -0.04 +0.01    +0.066 A 
DOCKED: ATOM     21  C   UNL d   1      22.209  -4.336  38.416 -0.06 -0.00    -0.025 A 
DOCKED: ATOM     22  C   UNL d   1      22.406  -5.393  39.286 -0.07 -0.00    -0.021 A 
DOCKED: ATOM     23  C   UNL d   1      22.801  -6.494  38.498 -0.10 +0.02    +0.066 A 
DOCKED: ATOM     24  C   UNL d   1      21.804  -2.912  38.786 -0.10 +0.01    +0.051 C 
DOCKED: ATOM     25  N   UNL d   1      23.830  -8.745  36.848 -0.10 -0.11    -0.248 N 
DOCKED: ATOM     26  N   UNL d   1      24.063  -8.468  34.090 -0.19 -0.06    -0.248 N 
DOCKED: ATOM     27  N   UNL d   1      23.079  -5.691  34.313 -0.20 -0.04    -0.248 N 
DOCKED: ATOM     28  N   UNL d   1      22.849  -6.163  37.202 -0.09 -0.07    -0.248 N 
DOCKED: ATOM     29 FE   UNL d   1      23.431  -7.126  35.508 -0.05 +0.00    +0.000 Fe
DOCKED: ENDROOT
DOCKED: BRANCH   6  30
DOCKED: ATOM     30  C   UNL d   1      24.310 -10.323  40.244 -0.03 +0.02    +0.052 C 
DOCKED: BRANCH  30  31
DOCKED: ATOM     31  C   UNL d   1      25.533  -9.666  40.883 -0.02 +0.05    +0.115 C 
DOCKED: BRANCH  31  32
DOCKED: ATOM     32  C   UNL d   1      26.444  -9.022  39.860 +0.06 +0.16    +0.139 C 
DOCKED: ATOM     33  O   UNL d   1      27.459  -9.604  39.507 +0.02 -0.99    -0.650 OA
DOCKED: BRANCH  32  34
DOCKED: ATOM     34  O   UNL d   1      26.147  -7.835  39.282 -0.27 -1.19    -0.776 OA
DOCKED: ATOM     35  H   UNL d   1      25.882  -7.043  39.771 +0.01 +0.16    +0.167 HD
DOCKED: ENDBRANCH  32  34
DOCKED: ENDBRANCH  31  32
DOCKED: ENDBRANCH  30  31
DOCKED: ENDBRANCH   6  30
DOCKED: BRANCH  29  36
DOCKED: ATOM     36  C   UNL d   1      25.415  -6.526  35.821 +0.02 +0.13    +0.190 C 
DOCKED: BRANCH  36  37
DOCKED: ATOM     37  O   UNL d   1      26.289  -6.031  36.795 -0.15 -0.47    -0.399 OA
DOCKED: ATOM     38  H   UNL d   1      25.896  -6.324  37.664 +0.04 +0.26    +0.209 HD
DOCKED: ENDBRANCH  36  37
DOCKED: ENDBRANCH  29  36
DOCKED: BRANCH  22  39
DOCKED: ATOM     39  C   UNL d   1      22.283  -5.323  40.796 -0.04 +0.01    +0.052 C 
DOCKED: BRANCH  39  40
DOCKED: ATOM     40  C   UNL d   1      23.538  -4.685  41.414 -0.00 +0.02    +0.115 C 
DOCKED: BRANCH  40  41
DOCKED: ATOM     41  C   UNL d   1      24.844  -5.274  40.924 -0.00 +0.05    +0.139 C 
DOCKED: ATOM     42  O   UNL d   1      25.460  -6.047  41.644 +0.01 -0.23    -0.650 OA
DOCKED: BRANCH  41  43
DOCKED: ATOM     43  O   UNL d   1      25.306  -5.037  39.676 +0.05 -0.35    -0.776 OA
DOCKED: ATOM     44  H   UNL d   1      25.567  -5.747  39.075 +0.03 +0.12    +0.167 HD
DOCKED: ENDBRANCH  41  43
DOCKED: ENDBRANCH  40  41
DOCKED: ENDBRANCH  39  40
DOCKED: ENDBRANCH  22  39
DOCKED: BRANCH  12  45
DOCKED: ATOM     45  C   UNL d   1      24.506  -9.015  30.427 -0.46 +0.00    +0.004 C 
DOCKED: ATOM     46  C   UNL d   1      24.923  -9.863  29.491 -0.54 +0.00    +0.012 C 
DOCKED: ENDBRANCH  12  45
DOCKED: BRANCH  17  47
DOCKED: ATOM     47  C   UNL d   1      22.422  -2.170  33.570 -0.53 +0.00    +0.004 C 
DOCKED: ATOM     48  C   UNL d   1      21.390  -1.630  34.224 -0.43 +0.00    +0.012 C 
DOCKED: ENDBRANCH  17  47
DOCKED: TORSDOF 12
DOCKED: TER
DOCKED: ENDMDL
________________________________________________________________________________


	BEGINNING GENETIC ALGORITHM DOCKING 16 of 100
Run: 16 Seed: 1772413159 1731730369 [ Run 16 of 100 GA/GALS ]
Beginning LAMARCKIAN GENETIC ALGORITHM (LGA), with a maximum of 25000000 energy evaluations.

Final-Value: -11.697


	FINAL GENETIC ALGORITHM DOCKED STATE
	_______________________________________________


Detailed state:  trans 6.933 17.386 33.529 quatxyzw 0.317076 0.861409 0.033215 -0.395391 center 8.781 34.984 -0.736 ntor 12 -19.6836 103.4563 48.0758 -5.5327 86.8311 138.8213 127.7740 88.9852 -68.2998 -104.8967 55.8571 -6.9842
State:	  6.933  17.386  33.529   0.345  0.938  0.036 -133.419    -19.68  103.46   48.08   -5.53   86.83  138.82  127.77   88.99  -68.30 -104.90   55.86   -6.98

DOCKED: MODEL       16
DOCKED: USER    Run = 16
DOCKED: USER    DPF = D:/Protein_go_brrr/autodock/final/1A3N/heme_Co/dock.dpf
DOCKED: USER  
DOCKED: USER    Estimated Free Energy of Binding    =   -7.42 kcal/mol  [=(1)+(2)+(3)-(4)]
DOCKED: USER    Estimated Inhibition Constant, Ki   =    3.65 uM (micromolar)  [Temperature = 298.15 K]
DOCKED: USER    
DOCKED: USER    (1) Final Intermolecular Energy     =  -11.00 kcal/mol
DOCKED: USER        vdW + Hbond + desolv Energy     =   -7.55 kcal/mol
DOCKED: USER        Electrostatic Energy            =   -3.45 kcal/mol
DOCKED: USER    (2) Final Total Internal Energy     =   -0.70 kcal/mol
DOCKED: USER    (3) Torsional Free Energy           =   +3.58 kcal/mol
DOCKED: USER    (4) Unbound System's Energy  [=(2)] =   -0.70 kcal/mol
DOCKED: USER    
DOCKED: USER    
DOCKED: USER    NEWDPF move heme_Co_opt.pdbqt
DOCKED: USER    NEWDPF about 8.781000 34.984000 -0.736000
DOCKED: USER    NEWDPF tran0 6.933440 17.385569 33.528802
DOCKED: USER    NEWDPF quaternion0 0.317076 0.861409 0.033215 -0.395391
DOCKED: USER    NEWDPF axisangle0 0.345206 0.937830 0.036162 -133.419288
DOCKED: USER    NEWDPF quat0 0.345206 0.937830 0.036162 -133.419288
DOCKED: USER    NEWDPF dihe0 -19.68 103.46 48.08 -5.53 86.83 138.82 127.77 88.99 -68.30 -104.90 55.86 -6.98 
DOCKED: USER  keepresnum = 1 
DOCKED: USER  
DOCKED: REMARK  12 active torsions:
DOCKED: REMARK  status: ('A' for Active; 'I' for Inactive)
DOCKED: REMARK    1  A    between atoms: C_6  and  C_10 
DOCKED: REMARK    2  A    between atoms: C_10  and  C_11 
DOCKED: REMARK    3  A    between atoms: C_11  and  C_12 
DOCKED: REMARK    4  A    between atoms: C_12  and  O_14 
DOCKED: REMARK    5  A    between atoms: C_17  and  C_20 
DOCKED: REMARK    6  A    between atoms: C_24  and  C_27 
DOCKED: REMARK    7  A    between atoms: C_31  and  C_34 
DOCKED: REMARK    8  A    between atoms: C_34  and  C_35 
DOCKED: REMARK    9  A    between atoms: C_35  and  C_36 
DOCKED: REMARK   10  A    between atoms: C_36  and  O_38 
DOCKED: REMARK   11  A    between atoms: FE_43  and  C_44 
DOCKED: REMARK   12  A    between atoms: C_44  and  O_45 
DOCKED: USER                              x       y       z     vdW  Elec       q    Type
DOCKED: USER                           _______ _______ _______ _____ _____    ______ ____
DOCKED: ROOT
DOCKED: ATOM      1  C   UNL d   1       7.537  16.840  35.542 +0.05 +0.08    +0.064 A 
DOCKED: ATOM      2  C   UNL d   1       8.164  14.719  31.333 -0.31 +0.02    +0.064 C 
DOCKED: ATOM      3  C   UNL d   1       5.464  18.042  29.213 -0.22 +0.00    +0.064 A 
DOCKED: ATOM      4  C   UNL d   1       5.128  20.440  33.432 -0.09 +0.01    +0.064 A 
DOCKED: ATOM      5  C   UNL d   1       7.877  15.996  34.554 -0.12 +0.07    +0.066 A 
DOCKED: ATOM      6  C   UNL d   1       8.742  14.905  34.767 -0.13 -0.02    -0.021 A 
DOCKED: ATOM      7  C   UNL d   1       8.939  14.307  33.538 -0.19 -0.02    -0.025 A 
DOCKED: ATOM      8  C   UNL d   1       8.173  15.047  32.631 -0.21 +0.04    +0.066 A 
DOCKED: ATOM      9  C   UNL d   1       9.813  13.085  33.214 -0.23 +0.03    +0.051 C 
DOCKED: ATOM     10  C   UNL d   1       7.387  15.405  30.332 -0.31 +0.02    +0.066 A 
DOCKED: ATOM     11  C   UNL d   1       7.225  15.024  28.982 -0.38 -0.00    -0.021 A 
DOCKED: ATOM     12  C   UNL d   1       6.430  16.009  28.388 -0.47 +0.00    +0.000 A 
DOCKED: ATOM     13  C   UNL d   1       6.156  16.907  29.419 -0.36 +0.01    +0.070 A 
DOCKED: ATOM     14  C   UNL d   1       7.725  13.752  28.347 -0.35 +0.01    +0.052 C 
DOCKED: ATOM     15  C   UNL d   1       5.136  19.102  30.147 -0.30 +0.01    +0.066 A 
DOCKED: ATOM     16  C   UNL d   1       4.544  20.317  29.837 -0.32 +0.00    -0.021 A 
DOCKED: ATOM     17  C   UNL d   1       4.447  21.014  31.050 -0.17 +0.00    +0.000 A 
DOCKED: ATOM     18  C   UNL d   1       4.974  20.157  32.010 -0.14 +0.01    +0.070 A 
DOCKED: ATOM     19  C   UNL d   1       4.111  20.755  28.455 -0.24 -0.00    +0.052 C 
DOCKED: ATOM     20  C   UNL d   1       5.716  19.659  34.369 -0.09 +0.03    +0.066 A 
DOCKED: ATOM     21  C   UNL d   1       5.835  20.056  35.699 -0.06 -0.01    -0.025 A 
DOCKED: ATOM     22  C   UNL d   1       6.500  19.025  36.338 -0.07 -0.01    -0.021 A 
DOCKED: ATOM     23  C   UNL d   1       6.766  18.048  35.355 -0.10 +0.06    +0.066 A 
DOCKED: ATOM     24  C   UNL d   1       5.358  21.362  36.328 -0.02 +0.01    +0.051 C 
DOCKED: ATOM     25  N   UNL d   1       7.499  16.096  33.234 -0.13 -0.20    -0.248 N 
DOCKED: ATOM     26  N   UNL d   1       6.688  16.511  30.606 -0.20 -0.08    -0.248 N 
DOCKED: ATOM     27  N   UNL d   1       5.403  19.041  31.432 -0.15 -0.06    -0.248 N 
DOCKED: ATOM     28  N   UNL d   1       6.295  18.429  34.162 -0.08 -0.18    -0.248 N 
DOCKED: ATOM     29 FE   UNL d   1       6.388  17.657  32.283 -0.05 +0.00    +0.000 Fe
DOCKED: ENDROOT
DOCKED: BRANCH   6  30
DOCKED: ATOM     30  C   UNL d   1       9.409  14.517  36.082 -0.09 +0.04    +0.052 C 
DOCKED: BRANCH  30  31
DOCKED: ATOM     31  C   UNL d   1       9.411  12.998  36.256 -0.09 +0.09    +0.115 C 
DOCKED: BRANCH  31  32
DOCKED: ATOM     32  C   UNL d   1      10.797  12.404  36.128 -0.08 +0.19    +0.139 C 
DOCKED: ATOM     33  O   UNL d   1      11.743  13.135  35.877 -0.14 -1.18    -0.650 OA
DOCKED: BRANCH  32  34
DOCKED: ATOM     34  O   UNL d   1      11.035  11.087  36.331 +0.03 -1.29    -0.776 OA
DOCKED: ATOM     35  H   UNL d   1      10.474  10.510  36.867 +0.04 +0.17    +0.167 HD
DOCKED: ENDBRANCH  32  34
DOCKED: ENDBRANCH  31  32
DOCKED: ENDBRANCH  30  31
DOCKED: ENDBRANCH   6  30
DOCKED: BRANCH  29  36
DOCKED: ATOM     36  C   UNL d   1       8.225  18.612  31.957 -0.12 +0.05    +0.190 C 
DOCKED: BRANCH  36  37
DOCKED: ATOM     37  O   UNL d   1       9.566  18.616  32.356 -0.09 -0.10    -0.399 OA
DOCKED: ATOM     38  H   UNL d   1       9.599  18.010  33.148 +0.06 +0.07    +0.209 HD
DOCKED: ENDBRANCH  36  37
DOCKED: ENDBRANCH  29  36
DOCKED: BRANCH  22  39
DOCKED: ATOM     39  C   UNL d   1       6.912  19.015  37.798 -0.03 +0.02    +0.052 C 
DOCKED: BRANCH  39  40
DOCKED: ATOM     40  C   UNL d   1       5.848  18.313  38.657 -0.04 +0.06    +0.115 C 
DOCKED: BRANCH  40  41
DOCKED: ATOM     41  C   UNL d   1       5.751  16.818  38.434 -0.05 +0.13    +0.139 C 
DOCKED: ATOM     42  O   UNL d   1       4.652  16.306  38.279 -0.25 -0.92    -0.650 OA
DOCKED: BRANCH  41  43
DOCKED: ATOM     43  O   UNL d   1       6.853  16.045  38.315 -0.02 -0.72    -0.776 OA
DOCKED: ATOM     44  H   UNL d   1       7.553  16.032  38.981 +0.01 +0.10    +0.167 HD
DOCKED: ENDBRANCH  41  43
DOCKED: ENDBRANCH  40  41
DOCKED: ENDBRANCH  39  40
DOCKED: ENDBRANCH  22  39
DOCKED: BRANCH  12  45
DOCKED: ATOM     45  C   UNL d   1       5.885  16.193  26.978 -0.47 +0.00    +0.004 C 
DOCKED: ATOM     46  C   UNL d   1       6.212  15.590  25.838 -0.54 +0.00    +0.012 C 
DOCKED: ENDBRANCH  12  45
DOCKED: BRANCH  17  47
DOCKED: ATOM     47  C   UNL d   1       3.951  22.397  31.319 -0.10 -0.00    +0.004 C 
DOCKED: ATOM     48  C   UNL d   1       2.684  22.775  31.133 -0.13 -0.00    +0.012 C 
DOCKED: ENDBRANCH  17  47
DOCKED: TORSDOF 12
DOCKED: TER
DOCKED: ENDMDL
________________________________________________________________________________


	BEGINNING GENETIC ALGORITHM DOCKING 17 of 100
Run: 17 Seed: 1577452596 2027155450 [ Run 17 of 100 GA/GALS ]
Beginning LAMARCKIAN GENETIC ALGORITHM (LGA), with a maximum of 25000000 energy evaluations.

Final-Value: -10.539


	FINAL GENETIC ALGORITHM DOCKED STATE
	_______________________________________________


Detailed state:  trans 15.696 8.775 14.832 quatxyzw -0.910920 -0.052044 -0.256799 -0.318702 center 8.781 34.984 -0.736 ntor 12 140.6533 152.1866 86.7386 101.4831 151.1558 151.8005 13.1004 128.4920 -161.9545 -44.5448 -1.2548 -179.9637
State:	 15.696   8.775  14.832  -0.961 -0.055 -0.271 -142.831    140.65  152.19   86.74  101.48  151.16  151.80   13.10  128.49 -161.95  -44.54   -1.25 -179.96

DOCKED: MODEL       17
DOCKED: USER    Run = 17
DOCKED: USER    DPF = D:/Protein_go_brrr/autodock/final/1A3N/heme_Co/dock.dpf
DOCKED: USER  
DOCKED: USER    Estimated Free Energy of Binding    =   -6.11 kcal/mol  [=(1)+(2)+(3)-(4)]
DOCKED: USER    Estimated Inhibition Constant, Ki   =   33.41 uM (micromolar)  [Temperature = 298.15 K]
DOCKED: USER    
DOCKED: USER    (1) Final Intermolecular Energy     =   -9.69 kcal/mol
DOCKED: USER        vdW + Hbond + desolv Energy     =   -8.12 kcal/mol
DOCKED: USER        Electrostatic Energy            =   -1.57 kcal/mol
DOCKED: USER    (2) Final Total Internal Energy     =   -0.85 kcal/mol
DOCKED: USER    (3) Torsional Free Energy           =   +3.58 kcal/mol
DOCKED: USER    (4) Unbound System's Energy  [=(2)] =   -0.85 kcal/mol
DOCKED: USER    
DOCKED: USER    
DOCKED: USER    NEWDPF move heme_Co_opt.pdbqt
DOCKED: USER    NEWDPF about 8.781000 34.984000 -0.736000
DOCKED: USER    NEWDPF tran0 15.695673 8.774505 14.831539
DOCKED: USER    NEWDPF quaternion0 -0.910920 -0.052044 -0.256799 -0.318702
DOCKED: USER    NEWDPF axisangle0 -0.961033 -0.054907 -0.270926 -142.831124
DOCKED: USER    NEWDPF quat0 -0.961033 -0.054907 -0.270926 -142.831124
DOCKED: USER    NEWDPF dihe0 140.65 152.19 86.74 101.48 151.16 151.80 13.10 128.49 -161.95 -44.54 -1.25 -179.96 
DOCKED: USER  keepresnum = 1 
DOCKED: USER  
DOCKED: REMARK  12 active torsions:
DOCKED: REMARK  status: ('A' for Active; 'I' for Inactive)
DOCKED: REMARK    1  A    between atoms: C_6  and  C_10 
DOCKED: REMARK    2  A    between atoms: C_10  and  C_11 
DOCKED: REMARK    3  A    between atoms: C_11  and  C_12 
DOCKED: REMARK    4  A    between atoms: C_12  and  O_14 
DOCKED: REMARK    5  A    between atoms: C_17  and  C_20 
DOCKED: REMARK    6  A    between atoms: C_24  and  C_27 
DOCKED: REMARK    7  A    between atoms: C_31  and  C_34 
DOCKED: REMARK    8  A    between atoms: C_34  and  C_35 
DOCKED: REMARK    9  A    between atoms: C_35  and  C_36 
DOCKED: REMARK   10  A    between atoms: C_36  and  O_38 
DOCKED: REMARK   11  A    between atoms: FE_43  and  C_44 
DOCKED: REMARK   12  A    between atoms: C_44  and  O_45 
DOCKED: USER                              x       y       z     vdW  Elec       q    Type
DOCKED: USER                           _______ _______ _______ _____ _____    ______ ____
DOCKED: ROOT
DOCKED: ATOM      1  C   UNL d   1      13.786   7.997  14.151 -0.13 +0.03    +0.064 A 
DOCKED: ATOM      2  C   UNL d   1      15.808  12.284  13.771 -0.18 +0.00    +0.064 C 
DOCKED: ATOM      3  C   UNL d   1      19.470  10.838  16.479 -0.15 +0.02    +0.064 A 
DOCKED: ATOM      4  C   UNL d   1      17.617   6.341  16.561 -0.27 +0.02    +0.064 A 
DOCKED: ATOM      5  C   UNL d   1      14.052   9.285  13.879 -0.09 +0.03    +0.066 A 
DOCKED: ATOM      6  C   UNL d   1      13.230  10.055  13.032 -0.09 -0.01    -0.021 A 
DOCKED: ATOM      7  C   UNL d   1      13.833  11.291  12.907 -0.13 -0.00    -0.025 A 
DOCKED: ATOM      8  C   UNL d   1      14.988  11.228  13.695 -0.12 +0.01    +0.066 A 
DOCKED: ATOM      9  C   UNL d   1      13.354  12.494  12.082 +0.03 -0.00    +0.051 C 
DOCKED: ATOM     10  C   UNL d   1      17.003  12.321  14.576 -0.16 +0.01    +0.066 A 
DOCKED: ATOM     11  C   UNL d   1      17.829  13.442  14.809 -0.18 -0.00    -0.021 A 
DOCKED: ATOM     12  C   UNL d   1      18.887  12.993  15.605 -0.16 +0.00    +0.000 A 
DOCKED: ATOM     13  C   UNL d   1      18.622  11.638  15.808 -0.12 +0.01    +0.070 A 
DOCKED: ATOM     14  C   UNL d   1      17.555  14.858  14.372 +0.08 +0.01    +0.052 C 
DOCKED: ATOM     15  C   UNL d   1      19.380   9.414  16.737 -0.17 +0.02    +0.066 A 
DOCKED: ATOM     16  C   UNL d   1      20.361   8.618  17.311 -0.29 -0.01    -0.021 A 
DOCKED: ATOM     17  C   UNL d   1      19.832   7.320  17.335 -0.30 +0.00    +0.000 A 
DOCKED: ATOM     18  C   UNL d   1      18.559   7.430  16.786 -0.20 +0.02    +0.070 A 
DOCKED: ATOM     19  C   UNL d   1      21.710   9.102  17.796 -0.24 +0.03    +0.052 C 
DOCKED: ATOM     20  C   UNL d   1      16.409   6.409  15.951 -0.26 +0.04    +0.066 A 
DOCKED: ATOM     21  C   UNL d   1      15.608   5.285  15.760 -0.29 -0.02    -0.025 A 
DOCKED: ATOM     22  C   UNL d   1      14.484   5.737  15.093 -0.29 -0.02    -0.021 A 
DOCKED: ATOM     23  C   UNL d   1      14.662   7.123  14.898 -0.20 +0.05    +0.066 A 
DOCKED: ATOM     24  C   UNL d   1      15.907   3.847  16.175 -0.11 +0.00    +0.051 C 
DOCKED: ATOM     25  N   UNL d   1      15.145   9.999  14.313 -0.04 -0.09    -0.248 N 
DOCKED: ATOM     26  N   UNL d   1      17.454  11.246  15.233 -0.06 -0.04    -0.248 N 
DOCKED: ATOM     27  N   UNL d   1      18.335   8.685  16.414 -0.10 -0.08    -0.248 N 
DOCKED: ATOM     28  N   UNL d   1      15.827   7.533  15.413 -0.14 -0.19    -0.248 N 
DOCKED: ATOM     29 FE   UNL d   1      16.833   9.300  15.426 -0.04 +0.00    +0.000 Fe
DOCKED: ENDROOT
DOCKED: BRANCH   6  30
DOCKED: ATOM     30  C   UNL d   1      11.968   9.585  12.317 -0.10 +0.01    +0.052 C 
DOCKED: BRANCH  30  31
DOCKED: ATOM     31  C   UNL d   1      10.761   9.658  13.252 -0.18 +0.02    +0.115 C 
DOCKED: BRANCH  31  32
DOCKED: ATOM     32  C   UNL d   1      11.026  10.517  14.470 -0.31 +0.02    +0.139 C 
DOCKED: ATOM     33  O   UNL d   1      11.010  10.006  15.580 -0.01 -0.12    -0.650 OA
DOCKED: BRANCH  32  34
DOCKED: ATOM     34  O   UNL d   1      11.330  11.831  14.368 +0.04 -0.09    -0.776 OA
DOCKED: ATOM     35  H   UNL d   1      10.955  12.521  14.933 -0.49 +0.01    +0.167 HD
DOCKED: ENDBRANCH  32  34
DOCKED: ENDBRANCH  31  32
DOCKED: ENDBRANCH  30  31
DOCKED: ENDBRANCH   6  30
DOCKED: BRANCH  29  36
DOCKED: ATOM     36  C   UNL d   1      17.716   8.837  13.582 +0.08 +0.21    +0.190 C 
DOCKED: BRANCH  36  37
DOCKED: ATOM     37  O   UNL d   1      17.481   8.837  12.203 -0.19 -0.49    -0.399 OA
DOCKED: ATOM     38  H   UNL d   1      16.968   9.676  12.030 +0.05 +0.14    +0.209 HD
DOCKED: ENDBRANCH  36  37
DOCKED: ENDBRANCH  29  36
DOCKED: BRANCH  22  39
DOCKED: ATOM     39  C   UNL d   1      13.336   4.867  14.615 -0.33 +0.04    +0.052 C 
DOCKED: BRANCH  39  40
DOCKED: ATOM     40  C   UNL d   1      13.714   4.134  13.318 -0.20 +0.09    +0.115 C 
DOCKED: BRANCH  40  41
DOCKED: ATOM     41  C   UNL d   1      13.448   2.644  13.342 -0.17 +0.11    +0.139 C 
DOCKED: ATOM     42  O   UNL d   1      14.344   1.881  13.673 +0.02 -0.33    -0.650 OA
DOCKED: BRANCH  41  43
DOCKED: ATOM     43  O   UNL d   1      12.220   2.138  13.091 -0.41 -1.17    -0.776 OA
DOCKED: ATOM     44  H   UNL d   1      11.945   1.857  12.208 +0.04 +0.13    +0.167 HD
DOCKED: ENDBRANCH  41  43
DOCKED: ENDBRANCH  40  41
DOCKED: ENDBRANCH  39  40
DOCKED: ENDBRANCH  22  39
DOCKED: BRANCH  12  45
DOCKED: ATOM     45  C   UNL d   1      20.100  13.688  16.209 -0.23 +0.00    +0.004 C 
DOCKED: ATOM     46  C   UNL d   1      20.271  14.250  17.402 -0.38 +0.00    +0.012 C 
DOCKED: ENDBRANCH  12  45
DOCKED: BRANCH  17  47
DOCKED: ATOM     47  C   UNL d   1      20.462   6.041  17.782 -0.41 -0.00    +0.004 C 
DOCKED: ATOM     48  C   UNL d   1      19.882   5.193  18.634 -0.56 -0.01    +0.012 C 
DOCKED: ENDBRANCH  17  47
DOCKED: TORSDOF 12
DOCKED: TER
DOCKED: ENDMDL
________________________________________________________________________________


	BEGINNING GENETIC ALGORITHM DOCKING 18 of 100
Run: 18 Seed: 526008588 862330827 [ Run 18 of 100 GA/GALS ]
Beginning LAMARCKIAN GENETIC ALGORITHM (LGA), with a maximum of 25000000 energy evaluations.

Final-Value: -12.601


	FINAL GENETIC ALGORITHM DOCKED STATE
	_______________________________________________


Detailed state:  trans 6.359 -13.671 18.875 quatxyzw 0.612521 0.407905 0.567404 0.369438 center 8.781 34.984 -0.736 ntor 12 -105.2387 101.1842 106.1547 118.1350 -44.5513 89.2749 -51.5556 -63.0332 -63.1717 126.9854 180.0000 -171.7213
State:	  6.359 -13.671  18.875   0.659  0.439  0.611 136.638   -105.24  101.18  106.15  118.14  -44.55   89.27  -51.56  -63.03  -63.17  126.99  180.00 -171.72

DOCKED: MODEL       18
DOCKED: USER    Run = 18
DOCKED: USER    DPF = D:/Protein_go_brrr/autodock/final/1A3N/heme_Co/dock.dpf
DOCKED: USER  
DOCKED: USER    Estimated Free Energy of Binding    =   -6.35 kcal/mol  [=(1)+(2)+(3)-(4)]
DOCKED: USER    Estimated Inhibition Constant, Ki   =   22.23 uM (micromolar)  [Temperature = 298.15 K]
DOCKED: USER    
DOCKED: USER    (1) Final Intermolecular Energy     =   -9.93 kcal/mol
DOCKED: USER        vdW + Hbond + desolv Energy     =   -6.56 kcal/mol
DOCKED: USER        Electrostatic Energy            =   -3.37 kcal/mol
DOCKED: USER    (2) Final Total Internal Energy     =   -2.67 kcal/mol
DOCKED: USER    (3) Torsional Free Energy           =   +3.58 kcal/mol
DOCKED: USER    (4) Unbound System's Energy  [=(2)] =   -2.67 kcal/mol
DOCKED: USER    
DOCKED: USER    
DOCKED: USER    NEWDPF move heme_Co_opt.pdbqt
DOCKED: USER    NEWDPF about 8.781000 34.984000 -0.736000
DOCKED: USER    NEWDPF tran0 6.359143 -13.671498 18.874988
DOCKED: USER    NEWDPF quaternion0 0.612521 0.407905 0.567404 0.369438
DOCKED: USER    NEWDPF axisangle0 0.659152 0.438959 0.610600 136.638089
DOCKED: USER    NEWDPF quat0 0.659152 0.438959 0.610600 136.638089
DOCKED: USER    NEWDPF dihe0 -105.24 101.18 106.15 118.14 -44.55 89.27 -51.56 -63.03 -63.17 126.99 180.00 -171.72 
DOCKED: USER  keepresnum = 1 
DOCKED: USER  
DOCKED: REMARK  12 active torsions:
DOCKED: REMARK  status: ('A' for Active; 'I' for Inactive)
DOCKED: REMARK    1  A    between atoms: C_6  and  C_10 
DOCKED: REMARK    2  A    between atoms: C_10  and  C_11 
DOCKED: REMARK    3  A    between atoms: C_11  and  C_12 
DOCKED: REMARK    4  A    between atoms: C_12  and  O_14 
DOCKED: REMARK    5  A    between atoms: C_17  and  C_20 
DOCKED: REMARK    6  A    between atoms: C_24  and  C_27 
DOCKED: REMARK    7  A    between atoms: C_31  and  C_34 
DOCKED: REMARK    8  A    between atoms: C_34  and  C_35 
DOCKED: REMARK    9  A    between atoms: C_35  and  C_36 
DOCKED: REMARK   10  A    between atoms: C_36  and  O_38 
DOCKED: REMARK   11  A    between atoms: FE_43  and  C_44 
DOCKED: REMARK   12  A    between atoms: C_44  and  O_45 
DOCKED: USER                              x       y       z     vdW  Elec       q    Type
DOCKED: USER                           _______ _______ _______ _____ _____    ______ ____
DOCKED: ROOT
DOCKED: ATOM      1  C   UNL d   1       6.438 -14.802  17.023 -0.06 +0.03    +0.064 A 
DOCKED: ATOM      2  C   UNL d   1       5.493 -10.233  17.939 -0.20 +0.02    +0.064 C 
DOCKED: ATOM      3  C   UNL d   1       5.716 -11.090  22.634 -0.15 +0.02    +0.064 A 
DOCKED: ATOM      4  C   UNL d   1       7.062 -15.674  21.721 -0.18 +0.03    +0.064 A 
DOCKED: ATOM      5  C   UNL d   1       6.128 -13.499  16.929 -0.07 +0.02    +0.066 A 
DOCKED: ATOM      6  C   UNL d   1       6.041 -12.839  15.687 -0.11 -0.01    -0.021 A 
DOCKED: ATOM      7  C   UNL d   1       5.789 -11.508  15.960 -0.18 -0.01    -0.025 A 
DOCKED: ATOM      8  C   UNL d   1       5.717 -11.416  17.354 -0.13 +0.02    +0.066 A 
DOCKED: ATOM      9  C   UNL d   1       5.621 -10.356  14.958 -0.33 +0.02    +0.051 C 
DOCKED: ATOM     10  C   UNL d   1       5.377 -10.046  19.364 -0.16 +0.02    +0.066 A 
DOCKED: ATOM     11  C   UNL d   1       5.005  -8.858  20.031 -0.18 -0.01    -0.021 A 
DOCKED: ATOM     12  C   UNL d   1       5.074  -9.138  21.399 -0.18 +0.00    +0.000 A 
DOCKED: ATOM     13  C   UNL d   1       5.470 -10.474  21.465 -0.16 +0.03    +0.070 A 
DOCKED: ATOM     14  C   UNL d   1       4.526  -7.584  19.385 -0.25 +0.01    +0.052 C 
DOCKED: ATOM     15  C   UNL d   1       6.180 -12.441  22.883 -0.16 +0.02    +0.066 A 
DOCKED: ATOM     16  C   UNL d   1       6.554 -12.969  24.110 -0.19 -0.00    -0.021 A 
DOCKED: ATOM     17  C   UNL d   1       6.945 -14.291  23.852 -0.22 +0.00    +0.000 A 
DOCKED: ATOM     18  C   UNL d   1       6.762 -14.469  22.484 -0.21 +0.02    +0.070 A 
DOCKED: ATOM     19  C   UNL d   1       6.528 -12.229  25.429 -0.26 -0.00    +0.052 C 
DOCKED: ATOM     20  C   UNL d   1       6.974 -15.843  20.380 -0.17 +0.04    +0.066 A 
DOCKED: ATOM     21  C   UNL d   1       7.326 -17.038  19.756 -0.14 -0.01    -0.025 A 
DOCKED: ATOM     22  C   UNL d   1       7.129 -16.826  18.404 -0.08 -0.01    -0.021 A 
DOCKED: ATOM     23  C   UNL d   1       6.674 -15.497  18.267 -0.09 +0.03    +0.066 A 
DOCKED: ATOM     24  C   UNL d   1       7.844 -18.315  20.414 -0.13 +0.03    +0.051 C 
DOCKED: ATOM     25  N   UNL d   1       5.917 -12.635  17.980 -0.04 -0.08    -0.248 N 
DOCKED: ATOM     26  N   UNL d   1       5.598 -11.037  20.234 -0.11 -0.11    -0.248 N 
DOCKED: ATOM     27  N   UNL d   1       6.334 -13.338  21.935 -0.12 -0.10    -0.248 N 
DOCKED: ATOM     28  N   UNL d   1       6.582 -14.898  19.461 -0.10 -0.13    -0.248 N 
DOCKED: ATOM     29 FE   UNL d   1       6.138 -13.011  20.074 -0.04 +0.00    +0.000 Fe
DOCKED: ENDROOT
DOCKED: BRANCH   6  30
DOCKED: ATOM     30  C   UNL d   1       6.273 -13.455  14.312 -0.17 +0.03    +0.052 C 
DOCKED: BRANCH  30  31
DOCKED: ATOM     31  C   UNL d   1       7.709 -13.210  13.849 -0.17 +0.10    +0.115 C 
DOCKED: BRANCH  31  32
DOCKED: ATOM     32  C   UNL d   1       8.500 -14.493  13.720 -0.03 +0.21    +0.139 C 
DOCKED: ATOM     33  O   UNL d   1       9.660 -14.448  13.338 -0.25 -1.02    -0.650 OA
DOCKED: BRANCH  32  34
DOCKED: ATOM     34  O   UNL d   1       7.980 -15.695  14.062 -0.16 -1.33    -0.776 OA
DOCKED: ATOM     35  H   UNL d   1       8.256 -16.208  14.834 +0.02 +0.20    +0.167 HD
DOCKED: ENDBRANCH  32  34
DOCKED: ENDBRANCH  31  32
DOCKED: ENDBRANCH  30  31
DOCKED: ENDBRANCH   6  30
DOCKED: BRANCH  29  36
DOCKED: ATOM     36  C   UNL d   1       8.143 -12.442  19.850 -0.09 +0.07    +0.190 C 
DOCKED: BRANCH  36  37
DOCKED: ATOM     37  O   UNL d   1       9.345 -12.813  19.238 -0.05 -0.19    -0.399 OA
DOCKED: ATOM     38  H   UNL d   1       9.190 -13.743  18.910 +0.05 +0.13    +0.209 HD
DOCKED: ENDBRANCH  36  37
DOCKED: ENDBRANCH  29  36
DOCKED: BRANCH  22  39
DOCKED: ATOM     39  C   UNL d   1       7.425 -17.828  17.304 -0.03 +0.03    +0.052 C 
DOCKED: BRANCH  39  40
DOCKED: ATOM     40  C   UNL d   1       8.942 -18.019  17.138 -0.06 +0.11    +0.115 C 
DOCKED: BRANCH  40  41
DOCKED: ATOM     41  C   UNL d   1       9.699 -16.750  16.809 -0.01 +0.19    +0.139 C 
DOCKED: ATOM     42  O   UNL d   1       9.896 -15.925  17.691 -0.03 -1.04    -0.650 OA
DOCKED: BRANCH  41  43
DOCKED: ATOM     43  O   UNL d   1      10.240 -16.541  15.589 -0.03 -0.97    -0.776 OA
DOCKED: ATOM     44  H   UNL d   1       9.914 -15.860  14.986 +0.02 +0.20    +0.167 HD
DOCKED: ENDBRANCH  41  43
DOCKED: ENDBRANCH  40  41
DOCKED: ENDBRANCH  39  40
DOCKED: ENDBRANCH  22  39
DOCKED: BRANCH  12  45
DOCKED: ATOM     45  C   UNL d   1       4.796  -8.306  22.644 -0.25 +0.00    +0.004 C 
DOCKED: ATOM     46  C   UNL d   1       3.811  -8.384  23.535 -0.25 +0.00    +0.012 C 
DOCKED: ENDBRANCH  12  45
DOCKED: BRANCH  17  47
DOCKED: ATOM     47  C   UNL d   1       7.502 -15.320  24.780 -0.29 +0.00    +0.004 C 
DOCKED: ATOM     48  C   UNL d   1       8.695 -15.212  25.370 -0.36 +0.00    +0.012 C 
DOCKED: ENDBRANCH  17  47
DOCKED: TORSDOF 12
DOCKED: TER
DOCKED: ENDMDL
________________________________________________________________________________


	BEGINNING GENETIC ALGORITHM DOCKING 19 of 100
Run: 19 Seed: 629718143 587080309 [ Run 19 of 100 GA/GALS ]
Beginning LAMARCKIAN GENETIC ALGORITHM (LGA), with a maximum of 25000000 energy evaluations.

Final-Value: -12.813


	FINAL GENETIC ALGORITHM DOCKED STATE
	_______________________________________________


Detailed state:  trans 8.236 15.212 32.675 quatxyzw -0.730546 0.469961 0.423574 0.256952 center 8.781 34.984 -0.736 ntor 12 -16.9895 -48.6009 -45.5172 -96.9880 61.2120 53.4735 81.5058 -51.4845 -81.3585 179.9506 179.7816 -20.5081
State:	  8.236  15.212  32.675  -0.756  0.486  0.438 150.221    -16.99  -48.60  -45.52  -96.99   61.21   53.47   81.51  -51.48  -81.36  179.95  179.78  -20.51

DOCKED: MODEL       19
DOCKED: USER    Run = 19
DOCKED: USER    DPF = D:/Protein_go_brrr/autodock/final/1A3N/heme_Co/dock.dpf
DOCKED: USER  
DOCKED: USER    Estimated Free Energy of Binding    =   -8.51 kcal/mol  [=(1)+(2)+(3)-(4)]
DOCKED: USER    Estimated Inhibition Constant, Ki   =  576.15 nM (nanomolar)  [Temperature = 298.15 K]
DOCKED: USER    
DOCKED: USER    (1) Final Intermolecular Energy     =  -12.09 kcal/mol
DOCKED: USER        vdW + Hbond + desolv Energy     =   -9.89 kcal/mol
DOCKED: USER        Electrostatic Energy            =   -2.20 kcal/mol
DOCKED: USER    (2) Final Total Internal Energy     =   -0.72 kcal/mol
DOCKED: USER    (3) Torsional Free Energy           =   +3.58 kcal/mol
DOCKED: USER    (4) Unbound System's Energy  [=(2)] =   -0.72 kcal/mol
DOCKED: USER    
DOCKED: USER    
DOCKED: USER    NEWDPF move heme_Co_opt.pdbqt
DOCKED: USER    NEWDPF about 8.781000 34.984000 -0.736000
DOCKED: USER    NEWDPF tran0 8.235928 15.212274 32.675475
DOCKED: USER    NEWDPF quaternion0 -0.730546 0.469961 0.423574 0.256952
DOCKED: USER    NEWDPF axisangle0 -0.755927 0.486288 0.438290 150.221461
DOCKED: USER    NEWDPF quat0 -0.755927 0.486288 0.438290 150.221461
DOCKED: USER    NEWDPF dihe0 -16.99 -48.60 -45.52 -96.99 61.21 53.47 81.51 -51.48 -81.36 179.95 179.78 -20.51 
DOCKED: USER  keepresnum = 1 
DOCKED: USER  
DOCKED: REMARK  12 active torsions:
DOCKED: REMARK  status: ('A' for Active; 'I' for Inactive)
DOCKED: REMARK    1  A    between atoms: C_6  and  C_10 
DOCKED: REMARK    2  A    between atoms: C_10  and  C_11 
DOCKED: REMARK    3  A    between atoms: C_11  and  C_12 
DOCKED: REMARK    4  A    between atoms: C_12  and  O_14 
DOCKED: REMARK    5  A    between atoms: C_17  and  C_20 
DOCKED: REMARK    6  A    between atoms: C_24  and  C_27 
DOCKED: REMARK    7  A    between atoms: C_31  and  C_34 
DOCKED: REMARK    8  A    between atoms: C_34  and  C_35 
DOCKED: REMARK    9  A    between atoms: C_35  and  C_36 
DOCKED: REMARK   10  A    between atoms: C_36  and  O_38 
DOCKED: REMARK   11  A    between atoms: FE_43  and  C_44 
DOCKED: REMARK   12  A    between atoms: C_44  and  O_45 
DOCKED: USER                              x       y       z     vdW  Elec       q    Type
DOCKED: USER                           _______ _______ _______ _____ _____    ______ ____
DOCKED: ROOT
DOCKED: ATOM      1  C   UNL d   1       8.347  16.730  34.224 -0.14 +0.04    +0.064 A 
DOCKED: ATOM      2  C   UNL d   1       6.632  16.810  29.790 -0.33 +0.01    +0.064 C 
DOCKED: ATOM      3  C   UNL d   1       8.211  12.360  29.059 -0.12 +0.01    +0.064 A 
DOCKED: ATOM      4  C   UNL d   1       9.628  12.114  33.706 -0.17 +0.05    +0.064 A 
DOCKED: ATOM      5  C   UNL d   1       7.795  17.092  33.055 -0.17 +0.04    +0.066 A 
DOCKED: ATOM      6  C   UNL d   1       7.145  18.330  32.887 -0.16 -0.01    -0.021 A 
DOCKED: ATOM      7  C   UNL d   1       6.629  18.339  31.605 -0.22 -0.01    -0.025 A 
DOCKED: ATOM      8  C   UNL d   1       7.001  17.113  31.041 -0.24 +0.02    +0.066 A 
DOCKED: ATOM      9  C   UNL d   1       5.816  19.450  30.924 -0.26 +0.01    +0.051 C 
DOCKED: ATOM     10  C   UNL d   1       6.990  15.586  29.118 -0.37 +0.01    +0.066 A 
DOCKED: ATOM     11  C   UNL d   1       6.755  15.268  27.762 -0.44 -0.00    -0.021 A 
DOCKED: ATOM     12  C   UNL d   1       7.229  13.967  27.575 -0.38 +0.00    +0.000 A 
DOCKED: ATOM     13  C   UNL d   1       7.727  13.593  28.823 -0.29 +0.01    +0.070 A 
DOCKED: ATOM     14  C   UNL d   1       6.202  16.196  26.711 -0.43 +0.01    +0.052 C 
DOCKED: ATOM     15  C   UNL d   1       8.715  11.790  30.293 -0.21 +0.02    +0.066 A 
DOCKED: ATOM     16  C   UNL d   1       9.065  10.464  30.505 -0.38 -0.01    -0.021 A 
DOCKED: ATOM     17  C   UNL d   1       9.472  10.388  31.845 -0.32 +0.00    +0.000 A 
DOCKED: ATOM     18  C   UNL d   1       9.354  11.682  32.341 -0.17 +0.04    +0.070 A 
DOCKED: ATOM     19  C   UNL d   1       9.000   9.364  29.469 -0.43 +0.01    +0.052 C 
DOCKED: ATOM     20  C   UNL d   1       9.439  13.346  34.234 -0.17 +0.05    +0.066 A 
DOCKED: ATOM     21  C   UNL d   1       9.706  13.631  35.572 -0.12 -0.02    -0.025 A 
DOCKED: ATOM     22  C   UNL d   1       9.373  14.963  35.743 -0.09 -0.01    -0.021 A 
DOCKED: ATOM     23  C   UNL d   1       8.905  15.425  34.495 -0.13 +0.05    +0.066 A 
DOCKED: ATOM     24  C   UNL d   1      10.233  12.677  36.640 -0.13 +0.05    +0.051 C 
DOCKED: ATOM     25  N   UNL d   1       7.729  16.323  31.915 -0.14 -0.11    -0.248 N 
DOCKED: ATOM     26  N   UNL d   1       7.633  14.593  29.740 -0.21 -0.06    -0.248 N 
DOCKED: ATOM     27  N   UNL d   1       8.872  12.484  31.399 -0.19 -0.09    -0.248 N 
DOCKED: ATOM     28  N   UNL d   1       8.941  14.449  33.579 -0.10 -0.16    -0.248 N 
DOCKED: ATOM     29 FE   UNL d   1       8.336  14.290  31.645 -0.06 +0.00    +0.000 Fe
DOCKED: ENDROOT
DOCKED: BRANCH   6  30
DOCKED: ATOM     30  C   UNL d   1       6.963  19.413  33.945 -0.10 +0.02    +0.052 C 
DOCKED: BRANCH  30  31
DOCKED: ATOM     31  C   UNL d   1       5.596  19.285  34.616 -0.11 +0.06    +0.115 C 
DOCKED: BRANCH  31  32
DOCKED: ATOM     32  C   UNL d   1       5.664  18.523  35.922 -0.04 +0.12    +0.139 C 
DOCKED: ATOM     33  O   UNL d   1       6.264  17.460  35.967 -0.30 -1.02    -0.650 OA
DOCKED: BRANCH  32  34
DOCKED: ATOM     34  O   UNL d   1       5.118  19.005  37.063 -0.01 -0.47    -0.776 OA
DOCKED: ATOM     35  H   UNL d   1       4.921  19.939  37.219 +0.01 +0.06    +0.167 HD
DOCKED: ENDBRANCH  32  34
DOCKED: ENDBRANCH  31  32
DOCKED: ENDBRANCH  30  31
DOCKED: ENDBRANCH   6  30
DOCKED: BRANCH  29  36
DOCKED: ATOM     36  C   UNL d   1       6.408  13.750  32.268 -0.02 +0.12    +0.190 C 
DOCKED: BRANCH  36  37
DOCKED: ATOM     37  O   UNL d   1       5.684  13.276  33.367 -0.50 -0.44    -0.399 OA
DOCKED: ATOM     38  H   UNL d   1       4.834  12.924  32.981 -0.29 +0.14    +0.209 HD
DOCKED: ENDBRANCH  36  37
DOCKED: ENDBRANCH  29  36
DOCKED: BRANCH  22  39
DOCKED: ATOM     39  C   UNL d   1       9.442  15.725  37.053 -0.04 +0.03    +0.052 C 
DOCKED: BRANCH  39  40
DOCKED: ATOM     40  C   UNL d   1      10.881  16.186  37.338 -0.04 +0.05    +0.115 C 
DOCKED: BRANCH  40  41
DOCKED: ATOM     41  C   UNL d   1      11.908  15.675  36.349 -0.13 +0.08    +0.139 C 
DOCKED: ATOM     42  O   UNL d   1      12.113  16.304  35.320 +0.04 -0.31    -0.650 OA
DOCKED: BRANCH  41  43
DOCKED: ATOM     43  O   UNL d   1      12.668  14.589  36.611 +0.01 -0.72    -0.776 OA
DOCKED: ATOM     44  H   UNL d   1      13.033  14.409  37.487 +0.02 +0.14    +0.167 HD
DOCKED: ENDBRANCH  41  43
DOCKED: ENDBRANCH  40  41
DOCKED: ENDBRANCH  39  40
DOCKED: ENDBRANCH  22  39
DOCKED: BRANCH  12  45
DOCKED: ATOM     45  C   UNL d   1       7.284  13.046  26.364 -0.43 +0.00    +0.004 C 
DOCKED: ATOM     46  C   UNL d   1       6.554  11.979  26.053 -0.42 +0.00    +0.012 C 
DOCKED: ENDBRANCH  12  45
DOCKED: BRANCH  17  47
DOCKED: ATOM     47  C   UNL d   1       9.896   9.201  32.646 -0.44 +0.00    +0.004 C 
DOCKED: ATOM     48  C   UNL d   1      10.660   8.219  32.162 -0.56 +0.00    +0.012 C 
DOCKED: ENDBRANCH  17  47
DOCKED: TORSDOF 12
DOCKED: TER
DOCKED: ENDMDL
________________________________________________________________________________


	BEGINNING GENETIC ALGORITHM DOCKING 20 of 100
Run: 20 Seed: 1054038 533183722 [ Run 20 of 100 GA/GALS ]
Beginning LAMARCKIAN GENETIC ALGORITHM (LGA), with a maximum of 25000000 energy evaluations.

Final-Value: -10.695


	FINAL GENETIC ALGORITHM DOCKED STATE
	_______________________________________________


Detailed state:  trans 11.398 8.496 11.654 quatxyzw -0.769097 -0.033762 -0.417822 0.482468 center 8.781 34.984 -0.736 ntor 12 -176.9134 122.3978 -173.8661 46.7064 -78.0205 125.0364 43.6081 -154.8073 160.2150 -3.6280 -152.0497 151.0753
State:	 11.398   8.496  11.654  -0.878 -0.039 -0.477 122.307   -176.91  122.40 -173.87   46.71  -78.02  125.04   43.61 -154.81  160.21   -3.63 -152.05  151.08

DOCKED: MODEL       20
DOCKED: USER    Run = 20
DOCKED: USER    DPF = D:/Protein_go_brrr/autodock/final/1A3N/heme_Co/dock.dpf
DOCKED: USER  
DOCKED: USER    Estimated Free Energy of Binding    =   -4.95 kcal/mol  [=(1)+(2)+(3)-(4)]
DOCKED: USER    Estimated Inhibition Constant, Ki   =  233.54 uM (micromolar)  [Temperature = 298.15 K]
DOCKED: USER    
DOCKED: USER    (1) Final Intermolecular Energy     =   -8.53 kcal/mol
DOCKED: USER        vdW + Hbond + desolv Energy     =   -8.85 kcal/mol
DOCKED: USER        Electrostatic Energy            =   +0.32 kcal/mol
DOCKED: USER    (2) Final Total Internal Energy     =   -2.16 kcal/mol
DOCKED: USER    (3) Torsional Free Energy           =   +3.58 kcal/mol
DOCKED: USER    (4) Unbound System's Energy  [=(2)] =   -2.16 kcal/mol
DOCKED: USER    
DOCKED: USER    
DOCKED: USER    NEWDPF move heme_Co_opt.pdbqt
DOCKED: USER    NEWDPF about 8.781000 34.984000 -0.736000
DOCKED: USER    NEWDPF tran0 11.398067 8.496195 11.653977
DOCKED: USER    NEWDPF quaternion0 -0.769097 -0.033762 -0.417822 0.482468
DOCKED: USER    NEWDPF axisangle0 -0.878051 -0.038545 -0.477013 122.306630
DOCKED: USER    NEWDPF quat0 -0.878051 -0.038545 -0.477013 122.306630
DOCKED: USER    NEWDPF dihe0 -176.91 122.40 -173.87 46.71 -78.02 125.04 43.61 -154.81 160.21 -3.63 -152.05 151.08 
DOCKED: USER  keepresnum = 1 
DOCKED: USER  
DOCKED: REMARK  12 active torsions:
DOCKED: REMARK  status: ('A' for Active; 'I' for Inactive)
DOCKED: REMARK    1  A    between atoms: C_6  and  C_10 
DOCKED: REMARK    2  A    between atoms: C_10  and  C_11 
DOCKED: REMARK    3  A    between atoms: C_11  and  C_12 
DOCKED: REMARK    4  A    between atoms: C_12  and  O_14 
DOCKED: REMARK    5  A    between atoms: C_17  and  C_20 
DOCKED: REMARK    6  A    between atoms: C_24  and  C_27 
DOCKED: REMARK    7  A    between atoms: C_31  and  C_34 
DOCKED: REMARK    8  A    between atoms: C_34  and  C_35 
DOCKED: REMARK    9  A    between atoms: C_35  and  C_36 
DOCKED: REMARK   10  A    between atoms: C_36  and  O_38 
DOCKED: REMARK   11  A    between atoms: FE_43  and  C_44 
DOCKED: REMARK   12  A    between atoms: C_44  and  O_45 
DOCKED: USER                              x       y       z     vdW  Elec       q    Type
DOCKED: USER                           _______ _______ _______ _____ _____    ______ ____
DOCKED: ROOT
DOCKED: ATOM      1  C   UNL d   1       9.394   7.957  11.015 -0.10 +0.00    +0.064 A 
DOCKED: ATOM      2  C   UNL d   1      13.667   7.279   9.042 -0.22 +0.01    +0.064 C 
DOCKED: ATOM      3  C   UNL d   1      15.718   9.841  12.515 -0.07 +0.04    +0.064 A 
DOCKED: ATOM      4  C   UNL d   1      11.418  10.221  14.757 -0.30 +0.01    +0.064 A 
DOCKED: ATOM      5  C   UNL d   1      10.406   7.614  10.202 -0.07 +0.01    +0.066 A 
DOCKED: ATOM      6  C   UNL d   1      10.215   6.782   9.081 -0.16 +0.00    -0.021 A 
DOCKED: ATOM      7  C   UNL d   1      11.462   6.570   8.526 -0.23 +0.00    -0.025 A 
DOCKED: ATOM      8  C   UNL d   1      12.357   7.294   9.320 -0.13 +0.01    +0.066 A 
DOCKED: ATOM      9  C   UNL d   1      11.813   5.720   7.295 -0.43 -0.03    +0.051 C 
DOCKED: ATOM     10  C   UNL d   1      14.659   8.014   9.787 -0.16 +0.03    +0.066 A 
DOCKED: ATOM     11  C   UNL d   1      16.026   8.152   9.463 -0.26 -0.01    -0.021 A 
DOCKED: ATOM     12  C   UNL d   1      16.599   8.907  10.490 -0.17 +0.00    +0.000 A 
DOCKED: ATOM     13  C   UNL d   1      15.540   9.183  11.355 -0.08 +0.05    +0.070 A 
DOCKED: ATOM     14  C   UNL d   1      16.698   7.668   8.203 -0.41 +0.01    +0.052 C 
DOCKED: ATOM     15  C   UNL d   1      14.752  10.165  13.546 -0.08 +0.02    +0.066 A 
DOCKED: ATOM     16  C   UNL d   1      15.028  10.719  14.788 -0.17 -0.00    -0.021 A 
DOCKED: ATOM     17  C   UNL d   1      13.792  10.828  15.439 -0.33 +0.00    +0.000 A 
DOCKED: ATOM     18  C   UNL d   1      12.853  10.346  14.533 -0.20 +0.01    +0.070 A 
DOCKED: ATOM     19  C   UNL d   1      16.402  11.106  15.289 -0.20 +0.01    +0.052 C 
DOCKED: ATOM     20  C   UNL d   1      10.498   9.677  13.925 -0.24 +0.01    +0.066 A 
DOCKED: ATOM     21  C   UNL d   1       9.151   9.580  14.267 -0.38 -0.00    -0.025 A 
DOCKED: ATOM     22  C   UNL d   1       8.538   8.957  13.195 -0.27 -0.00    -0.021 A 
DOCKED: ATOM     23  C   UNL d   1       9.552   8.692  12.249 -0.13 +0.01    +0.066 A 
DOCKED: ATOM     24  C   UNL d   1       8.483  10.040  15.560 -0.45 -0.00    +0.051 C 
DOCKED: ATOM     25  N   UNL d   1      11.730   7.956  10.362 -0.01 -0.04    -0.248 N 
DOCKED: ATOM     26  N   UNL d   1      14.357   8.691  10.900 -0.04 -0.12    -0.248 N 
DOCKED: ATOM     27  N   UNL d   1      13.464   9.932  13.428 -0.03 -0.07    -0.248 N 
DOCKED: ATOM     28  N   UNL d   1      10.740   9.124  12.688 -0.06 -0.05    -0.248 N 
DOCKED: ATOM     29 FE   UNL d   1      12.645   9.003  11.987 -0.02 +0.00    +0.000 Fe
DOCKED: ENDROOT
DOCKED: BRANCH   6  30
DOCKED: ATOM     30  C   UNL d   1       8.901   6.158   8.625 -0.30 -0.01    +0.052 C 
DOCKED: BRANCH  30  31
DOCKED: ATOM     31  C   UNL d   1       8.426   5.109   9.630 -0.21 -0.02    +0.115 C 
DOCKED: BRANCH  31  32
DOCKED: ATOM     32  C   UNL d   1       9.554   4.582  10.490 -0.17 -0.01    +0.139 C 
DOCKED: ATOM     33  O   UNL d   1      10.235   3.652  10.084 +0.02 +0.29    -0.650 OA
DOCKED: BRANCH  32  34
DOCKED: ATOM     34  O   UNL d   1       9.869   5.140  11.682 +0.10 -0.18    -0.776 OA
DOCKED: ATOM     35  H   UNL d   1      10.573   4.820  12.263 +0.05 +0.08    +0.167 HD
DOCKED: ENDBRANCH  32  34
DOCKED: ENDBRANCH  31  32
DOCKED: ENDBRANCH  30  31
DOCKED: ENDBRANCH   6  30
DOCKED: BRANCH  29  36
DOCKED: ATOM     36  C   UNL d   1      12.890   7.135  12.906 -0.10 +0.10    +0.190 C 
DOCKED: BRANCH  36  37
DOCKED: ATOM     37  O   UNL d   1      12.326   5.859  13.003 -0.07 -0.21    -0.399 OA
DOCKED: ATOM     38  H   UNL d   1      11.620   5.836  12.298 +0.06 +0.08    +0.209 HD
DOCKED: ENDBRANCH  36  37
DOCKED: ENDBRANCH  29  36
DOCKED: BRANCH  22  39
DOCKED: ATOM     39  C   UNL d   1       7.070   8.582  13.118 -0.40 -0.01    +0.052 C 
DOCKED: BRANCH  39  40
DOCKED: ATOM     40  C   UNL d   1       6.892   7.060  13.247 -0.31 -0.01    +0.115 C 
DOCKED: BRANCH  40  41
DOCKED: ATOM     41  C   UNL d   1       5.454   6.611  13.401 -0.40 -0.04    +0.139 C 
DOCKED: ATOM     42  O   UNL d   1       4.602   7.429  13.720 -0.04 +0.30    -0.650 OA
DOCKED: BRANCH  41  43
DOCKED: ATOM     43  O   UNL d   1       5.070   5.348  13.112 +0.08 +0.09    -0.776 OA
DOCKED: ATOM     44  H   UNL d   1       4.141   5.092  13.035 +0.10 -0.02    +0.167 HD
DOCKED: ENDBRANCH  41  43
DOCKED: ENDBRANCH  40  41
DOCKED: ENDBRANCH  39  40
DOCKED: ENDBRANCH  22  39
DOCKED: BRANCH  12  45
DOCKED: ATOM     45  C   UNL d   1      18.014   9.411  10.742 -0.25 +0.00    +0.004 C 
DOCKED: ATOM     46  C   UNL d   1      18.929   9.882   9.899 -0.42 +0.00    +0.012 C 
DOCKED: ENDBRANCH  12  45
DOCKED: BRANCH  17  47
DOCKED: ATOM     47  C   UNL d   1      13.480  11.295  16.823 -0.54 +0.00    +0.004 C 
DOCKED: ATOM     48  C   UNL d   1      13.253  10.468  17.846 -0.64 +0.00    +0.012 C 
DOCKED: ENDBRANCH  17  47
DOCKED: TORSDOF 12
DOCKED: TER
DOCKED: ENDMDL
________________________________________________________________________________


	BEGINNING GENETIC ALGORITHM DOCKING 21 of 100
Run: 21 Seed: 1292294139 799763681 [ Run 21 of 100 GA/GALS ]
Beginning LAMARCKIAN GENETIC ALGORITHM (LGA), with a maximum of 25000000 energy evaluations.

Final-Value: -13.680


	FINAL GENETIC ALGORITHM DOCKED STATE
	_______________________________________________


Detailed state:  trans 8.359 14.669 33.244 quatxyzw 0.736454 -0.462745 -0.433035 -0.236607 center 8.781 34.984 -0.736 ntor 12 34.6800 -110.2388 -41.7135 -107.1767 110.5005 147.1156 -169.7817 -11.6115 -23.0380 135.8867 179.6391 175.6775
State:	  8.359  14.669  33.244   0.758 -0.476 -0.446 -152.627     34.68 -110.24  -41.71 -107.18  110.50  147.12 -169.78  -11.61  -23.04  135.89  179.64  175.68

DOCKED: MODEL       21
DOCKED: USER    Run = 21
DOCKED: USER    DPF = D:/Protein_go_brrr/autodock/final/1A3N/heme_Co/dock.dpf
DOCKED: USER  
DOCKED: USER    Estimated Free Energy of Binding    =   -8.32 kcal/mol  [=(1)+(2)+(3)-(4)]
DOCKED: USER    Estimated Inhibition Constant, Ki   =  802.00 nM (nanomolar)  [Temperature = 298.15 K]
DOCKED: USER    
DOCKED: USER    (1) Final Intermolecular Energy     =  -11.90 kcal/mol
DOCKED: USER        vdW + Hbond + desolv Energy     =   -9.27 kcal/mol
DOCKED: USER        Electrostatic Energy            =   -2.63 kcal/mol
DOCKED: USER    (2) Final Total Internal Energy     =   -1.78 kcal/mol
DOCKED: USER    (3) Torsional Free Energy           =   +3.58 kcal/mol
DOCKED: USER    (4) Unbound System's Energy  [=(2)] =   -1.78 kcal/mol
DOCKED: USER    
DOCKED: USER    
DOCKED: USER    NEWDPF move heme_Co_opt.pdbqt
DOCKED: USER    NEWDPF about 8.781000 34.984000 -0.736000
DOCKED: USER    NEWDPF tran0 8.358817 14.668891 33.243545
DOCKED: USER    NEWDPF quaternion0 0.736454 -0.462745 -0.433035 -0.236607
DOCKED: USER    NEWDPF axisangle0 0.757977 -0.476268 -0.445690 -152.627234
DOCKED: USER    NEWDPF quat0 0.757977 -0.476268 -0.445690 -152.627234
DOCKED: USER    NEWDPF dihe0 34.68 -110.24 -41.71 -107.18 110.50 147.12 -169.78 -11.61 -23.04 135.89 179.64 175.68 
DOCKED: USER  keepresnum = 1 
DOCKED: USER  
DOCKED: REMARK  12 active torsions:
DOCKED: REMARK  status: ('A' for Active; 'I' for Inactive)
DOCKED: REMARK    1  A    between atoms: C_6  and  C_10 
DOCKED: REMARK    2  A    between atoms: C_10  and  C_11 
DOCKED: REMARK    3  A    between atoms: C_11  and  C_12 
DOCKED: REMARK    4  A    between atoms: C_12  and  O_14 
DOCKED: REMARK    5  A    between atoms: C_17  and  C_20 
DOCKED: REMARK    6  A    between atoms: C_24  and  C_27 
DOCKED: REMARK    7  A    between atoms: C_31  and  C_34 
DOCKED: REMARK    8  A    between atoms: C_34  and  C_35 
DOCKED: REMARK    9  A    between atoms: C_35  and  C_36 
DOCKED: REMARK   10  A    between atoms: C_36  and  O_38 
DOCKED: REMARK   11  A    between atoms: FE_43  and  C_44 
DOCKED: REMARK   12  A    between atoms: C_44  and  O_45 
DOCKED: USER                              x       y       z     vdW  Elec       q    Type
DOCKED: USER                           _______ _______ _______ _____ _____    ______ ____
DOCKED: ROOT
DOCKED: ATOM      1  C   UNL d   1       8.469  16.110  34.864 -0.12 +0.05    +0.064 A 
DOCKED: ATOM      2  C   UNL d   1       6.784  16.413  30.428 -0.35 +0.02    +0.064 C 
DOCKED: ATOM      3  C   UNL d   1       8.341  11.993  29.495 -0.20 +0.01    +0.064 A 
DOCKED: ATOM      4  C   UNL d   1       9.726  11.516  34.134 -0.15 +0.05    +0.064 A 
DOCKED: ATOM      5  C   UNL d   1       7.926  16.531  33.709 -0.16 +0.05    +0.066 A 
DOCKED: ATOM      6  C   UNL d   1       7.285  17.780  33.596 -0.16 -0.01    -0.021 A 
DOCKED: ATOM      7  C   UNL d   1       6.778  17.853  32.314 -0.20 -0.01    -0.025 A 
DOCKED: ATOM      8  C   UNL d   1       7.146  16.653  31.694 -0.24 +0.03    +0.066 A 
DOCKED: ATOM      9  C   UNL d   1       5.975  19.000  31.681 -0.23 +0.01    +0.051 C 
DOCKED: ATOM     10  C   UNL d   1       7.139  15.220  29.700 -0.34 +0.02    +0.066 A 
DOCKED: ATOM     11  C   UNL d   1       6.911  14.969  28.329 -0.42 -0.00    -0.021 A 
DOCKED: ATOM     12  C   UNL d   1       7.379  13.675  28.083 -0.34 +0.00    +0.000 A 
DOCKED: ATOM     13  C   UNL d   1       7.867  13.238  29.315 -0.15 +0.01    +0.070 A 
DOCKED: ATOM     14  C   UNL d   1       6.371  15.949  27.320 -0.49 +0.01    +0.052 C 
DOCKED: ATOM     15  C   UNL d   1       8.834  11.362  30.704 -0.27 +0.02    +0.066 A 
DOCKED: ATOM     16  C   UNL d   1       9.175  10.025  30.854 -0.39 -0.01    -0.021 A 
DOCKED: ATOM     17  C   UNL d   1       9.572   9.882  32.191 -0.36 +0.00    +0.000 A 
DOCKED: ATOM     18  C   UNL d   1       9.458  11.151  32.748 -0.19 +0.04    +0.070 A 
DOCKED: ATOM     19  C   UNL d   1       9.111   8.976  29.767 -0.31 +0.01    +0.052 C 
DOCKED: ATOM     20  C   UNL d   1       9.540  12.723  34.719 -0.16 +0.05    +0.066 A 
DOCKED: ATOM     21  C   UNL d   1       9.800  12.942  36.070 -0.12 -0.02    -0.025 A 
DOCKED: ATOM     22  C   UNL d   1       9.474  14.266  36.303 -0.07 -0.02    -0.021 A 
DOCKED: ATOM     23  C   UNL d   1       9.017  14.790  35.075 -0.11 +0.05    +0.066 A 
DOCKED: ATOM     24  C   UNL d   1      10.314  11.935  37.095 -0.13 +0.05    +0.051 C 
DOCKED: ATOM     25  N   UNL d   1       7.863  15.818  32.534 -0.13 -0.14    -0.248 N 
DOCKED: ATOM     26  N   UNL d   1       7.772  14.194  30.278 -0.20 -0.07    -0.248 N 
DOCKED: ATOM     27  N   UNL d   1       8.987  12.001  31.842 -0.17 -0.10    -0.248 N 
DOCKED: ATOM     28  N   UNL d   1       9.053  13.859  34.114 -0.09 -0.18    -0.248 N 
DOCKED: ATOM     29 FE   UNL d   1       8.460  13.796  32.171 -0.06 +0.00    +0.000 Fe
DOCKED: ENDROOT
DOCKED: BRANCH   6  30
DOCKED: ATOM     30  C   UNL d   1       7.102  18.812  34.704 -0.11 +0.03    +0.052 C 
DOCKED: BRANCH  30  31
DOCKED: ATOM     31  C   UNL d   1       5.729  18.663  35.357 -0.09 +0.09    +0.115 C 
DOCKED: BRANCH  31  32
DOCKED: ATOM     32  C   UNL d   1       5.703  19.191  36.775 -0.07 +0.08    +0.139 C 
DOCKED: ATOM     33  O   UNL d   1       5.954  20.369  36.982 +0.01 -0.20    -0.650 OA
DOCKED: BRANCH  32  34
DOCKED: ATOM     34  O   UNL d   1       5.361  18.410  37.826 -0.01 -0.52    -0.776 OA
DOCKED: ATOM     35  H   UNL d   1       5.518  17.457  37.868 +0.00 +0.17    +0.167 HD
DOCKED: ENDBRANCH  32  34
DOCKED: ENDBRANCH  31  32
DOCKED: ENDBRANCH  30  31
DOCKED: ENDBRANCH   6  30
DOCKED: BRANCH  29  36
DOCKED: ATOM     36  C   UNL d   1       6.525  13.239  32.754 -0.07 +0.13    +0.190 C 
DOCKED: BRANCH  36  37
DOCKED: ATOM     37  O   UNL d   1       5.339  13.739  33.301 -0.44 -0.56    -0.399 OA
DOCKED: ATOM     38  H   UNL d   1       4.612  13.329  32.754 -0.37 +0.15    +0.209 HD
DOCKED: ENDBRANCH  36  37
DOCKED: ENDBRANCH  29  36
DOCKED: BRANCH  22  39
DOCKED: ATOM     39  C   UNL d   1       9.539  14.965  37.648 -0.03 +0.03    +0.052 C 
DOCKED: BRANCH  39  40
DOCKED: ATOM     40  C   UNL d   1       8.269  14.682  38.468 -0.02 +0.07    +0.115 C 
DOCKED: BRANCH  40  41
DOCKED: ATOM     41  C   UNL d   1       6.975  14.915  37.717 +0.03 +0.17    +0.139 C 
DOCKED: ATOM     42  O   UNL d   1       6.143  14.020  37.666 -0.03 -1.03    -0.650 OA
DOCKED: BRANCH  41  43
DOCKED: ATOM     43  O   UNL d   1       6.676  16.116  37.173 +0.02 -1.33    -0.776 OA
DOCKED: ATOM     44  H   UNL d   1       6.928  16.951  37.587 +0.00 +0.16    +0.167 HD
DOCKED: ENDBRANCH  41  43
DOCKED: ENDBRANCH  40  41
DOCKED: ENDBRANCH  39  40
DOCKED: ENDBRANCH  22  39
DOCKED: BRANCH  12  45
DOCKED: ATOM     45  C   UNL d   1       7.437  12.812  26.829 -0.40 +0.00    +0.004 C 
DOCKED: ATOM     46  C   UNL d   1       6.830  11.665  26.539 -0.42 +0.00    +0.012 C 
DOCKED: ENDBRANCH  12  45
DOCKED: BRANCH  17  47
DOCKED: ATOM     47  C   UNL d   1       9.984   8.656  32.938 -0.50 +0.00    +0.004 C 
DOCKED: ATOM     48  C   UNL d   1      11.243   8.216  32.996 -0.48 +0.01    +0.012 C 
DOCKED: ENDBRANCH  17  47
DOCKED: TORSDOF 12
DOCKED: TER
DOCKED: ENDMDL
________________________________________________________________________________


	BEGINNING GENETIC ALGORITHM DOCKING 22 of 100
Run: 22 Seed: 1397850847 624069193 [ Run 22 of 100 GA/GALS ]
Beginning LAMARCKIAN GENETIC ALGORITHM (LGA), with a maximum of 25000000 energy evaluations.

Final-Value: -13.517


	FINAL GENETIC ALGORITHM DOCKED STATE
	_______________________________________________


Detailed state:  trans 8.858 12.739 33.040 quatxyzw 0.496769 -0.106183 -0.801954 0.314348 center 8.781 34.984 -0.736 ntor 12 -23.2853 -108.5633 -144.9960 -108.6208 82.3649 -125.8909 -154.3174 -33.5704 -150.8684 -50.1183 173.7728 -27.1253
State:	  8.858  12.739  33.040   0.523 -0.112 -0.845 143.357    -23.29 -108.56 -145.00 -108.62   82.36 -125.89 -154.32  -33.57 -150.87  -50.12  173.77  -27.13

DOCKED: MODEL       22
DOCKED: USER    Run = 22
DOCKED: USER    DPF = D:/Protein_go_brrr/autodock/final/1A3N/heme_Co/dock.dpf
DOCKED: USER  
DOCKED: USER    Estimated Free Energy of Binding    =   -9.16 kcal/mol  [=(1)+(2)+(3)-(4)]
DOCKED: USER    Estimated Inhibition Constant, Ki   =  192.83 nM (nanomolar)  [Temperature = 298.15 K]
DOCKED: USER    
DOCKED: USER    (1) Final Intermolecular Energy     =  -12.74 kcal/mol
DOCKED: USER        vdW + Hbond + desolv Energy     =  -10.49 kcal/mol
DOCKED: USER        Electrostatic Energy            =   -2.25 kcal/mol
DOCKED: USER    (2) Final Total Internal Energy     =   -0.78 kcal/mol
DOCKED: USER    (3) Torsional Free Energy           =   +3.58 kcal/mol
DOCKED: USER    (4) Unbound System's Energy  [=(2)] =   -0.78 kcal/mol
DOCKED: USER    
DOCKED: USER    
DOCKED: USER    NEWDPF move heme_Co_opt.pdbqt
DOCKED: USER    NEWDPF about 8.781000 34.984000 -0.736000
DOCKED: USER    NEWDPF tran0 8.857990 12.739187 33.040068
DOCKED: USER    NEWDPF quaternion0 0.496769 -0.106183 -0.801954 0.314348
DOCKED: USER    NEWDPF axisangle0 0.523296 -0.111853 -0.844778 143.357037
DOCKED: USER    NEWDPF quat0 0.523296 -0.111853 -0.844778 143.357037
DOCKED: USER    NEWDPF dihe0 -23.29 -108.56 -145.00 -108.62 82.36 -125.89 -154.32 -33.57 -150.87 -50.12 173.77 -27.13 
DOCKED: USER  keepresnum = 1 
DOCKED: USER  
DOCKED: REMARK  12 active torsions:
DOCKED: REMARK  status: ('A' for Active; 'I' for Inactive)
DOCKED: REMARK    1  A    between atoms: C_6  and  C_10 
DOCKED: REMARK    2  A    between atoms: C_10  and  C_11 
DOCKED: REMARK    3  A    between atoms: C_11  and  C_12 
DOCKED: REMARK    4  A    between atoms: C_12  and  O_14 
DOCKED: REMARK    5  A    between atoms: C_17  and  C_20 
DOCKED: REMARK    6  A    between atoms: C_24  and  C_27 
DOCKED: REMARK    7  A    between atoms: C_31  and  C_34 
DOCKED: REMARK    8  A    between atoms: C_34  and  C_35 
DOCKED: REMARK    9  A    between atoms: C_35  and  C_36 
DOCKED: REMARK   10  A    between atoms: C_36  and  O_38 
DOCKED: REMARK   11  A    between atoms: FE_43  and  C_44 
DOCKED: REMARK   12  A    between atoms: C_44  and  O_45 
DOCKED: USER                              x       y       z     vdW  Elec       q    Type
DOCKED: USER                           _______ _______ _______ _____ _____    ______ ____
DOCKED: ROOT
DOCKED: ATOM      1  C   UNL d   1       9.772  11.168  34.229 -0.15 +0.05    +0.064 A 
DOCKED: ATOM      2  C   UNL d   1       8.278  15.547  35.327 -0.11 +0.06    +0.064 C 
DOCKED: ATOM      3  C   UNL d   1       7.286  16.402  30.732 -0.24 +0.02    +0.064 A 
DOCKED: ATOM      4  C   UNL d   1       8.443  11.804  29.641 -0.19 +0.01    +0.064 A 
DOCKED: ATOM      5  C   UNL d   1       9.471  12.315  34.861 -0.16 +0.05    +0.066 A 
DOCKED: ATOM      6  C   UNL d   1       9.561  12.442  36.261 -0.12 -0.02    -0.021 A 
DOCKED: ATOM      7  C   UNL d   1       9.105  13.707  36.576 -0.06 -0.02    -0.025 A 
DOCKED: ATOM      8  C   UNL d   1       8.771  14.303  35.355 -0.10 +0.06    +0.066 A 
DOCKED: ATOM      9  C   UNL d   1       8.980  14.344  37.969 -0.02 +0.03    +0.051 C 
DOCKED: ATOM     10  C   UNL d   1       7.932  16.251  34.117 -0.15 +0.06    +0.066 A 
DOCKED: ATOM     11  C   UNL d   1       7.543  17.604  34.010 -0.14 -0.01    -0.021 A 
DOCKED: ATOM     12  C   UNL d   1       7.264  17.827  32.659 -0.19 +0.00    +0.000 A 
DOCKED: ATOM     13  C   UNL d   1       7.514  16.602  32.042 -0.22 +0.03    +0.070 A 
DOCKED: ATOM     14  C   UNL d   1       7.539  18.622  35.122 -0.09 +0.03    +0.052 C 
DOCKED: ATOM     15  C   UNL d   1       7.439  15.193  29.945 -0.32 +0.02    +0.066 A 
DOCKED: ATOM     16  C   UNL d   1       7.048  15.015  28.626 -0.40 -0.00    -0.021 A 
DOCKED: ATOM     17  C   UNL d   1       7.377  13.690  28.308 -0.35 +0.00    +0.000 A 
DOCKED: ATOM     18  C   UNL d   1       7.961  13.167  29.457 -0.13 +0.01    +0.070 A 
DOCKED: ATOM     19  C   UNL d   1       6.400  16.067  27.753 -0.50 +0.01    +0.052 C 
DOCKED: ATOM     20  C   UNL d   1       8.934  11.249  30.774 -0.31 +0.02    +0.066 A 
DOCKED: ATOM     21  C   UNL d   1       9.333   9.916  30.837 -0.39 -0.01    -0.025 A 
DOCKED: ATOM     22  C   UNL d   1       9.748   9.712  32.141 -0.30 -0.01    -0.021 A 
DOCKED: ATOM     23  C   UNL d   1       9.569  10.938  32.817 -0.19 +0.04    +0.066 A 
DOCKED: ATOM     24  C   UNL d   1       9.301   8.881  29.716 -0.36 +0.01    +0.051 C 
DOCKED: ATOM     25  N   UNL d   1       8.994  13.465  34.275 -0.08 -0.18    -0.248 N 
DOCKED: ATOM     26  N   UNL d   1       7.972  15.666  32.915 -0.12 -0.16    -0.248 N 
DOCKED: ATOM     27  N   UNL d   1       7.953  14.081  30.421 -0.20 -0.07    -0.248 N 
DOCKED: ATOM     28  N   UNL d   1       9.075  11.870  31.994 -0.16 -0.11    -0.248 N 
DOCKED: ATOM     29 FE   UNL d   1       8.444  13.788  32.233 -0.06 +0.00    +0.000 Fe
DOCKED: ENDROOT
DOCKED: BRANCH   6  30
DOCKED: ATOM     30  C   UNL d   1       9.990  11.360  37.247 -0.16 +0.04    +0.052 C 
DOCKED: BRANCH  30  31
DOCKED: ATOM     31  C   UNL d   1       8.771  10.752  37.941 -0.13 +0.06    +0.115 C 
DOCKED: BRANCH  31  32
DOCKED: ATOM     32  C   UNL d   1       7.521  10.839  37.093 -0.18 +0.08    +0.139 C 
DOCKED: ATOM     33  O   UNL d   1       7.377  10.072  36.153 -0.38 -0.40    -0.650 OA
DOCKED: BRANCH  32  34
DOCKED: ATOM     34  O   UNL d   1       6.525  11.713  37.370 +0.07 -0.54    -0.776 OA
DOCKED: ATOM     35  H   UNL d   1       6.328  12.050  38.255 +0.04 +0.11    +0.167 HD
DOCKED: ENDBRANCH  32  34
DOCKED: ENDBRANCH  31  32
DOCKED: ENDBRANCH  30  31
DOCKED: ENDBRANCH   6  30
DOCKED: BRANCH  29  36
DOCKED: ATOM     36  C   UNL d   1       6.529  13.117  32.760 -0.02 +0.12    +0.190 C 
DOCKED: BRANCH  36  37
DOCKED: ATOM     37  O   UNL d   1       5.336  13.519  33.370 -0.51 -0.53    -0.399 OA
DOCKED: ATOM     38  H   UNL d   1       4.614  13.135  32.799 -0.43 +0.14    +0.209 HD
DOCKED: ENDBRANCH  36  37
DOCKED: ENDBRANCH  29  36
DOCKED: BRANCH  22  39
DOCKED: ATOM     39  C   UNL d   1      10.227   8.392  32.715 -0.49 +0.02    +0.052 C 
DOCKED: BRANCH  39  40
DOCKED: ATOM     40  C   UNL d   1      11.643   8.063  32.213 -0.43 +0.06    +0.115 C 
DOCKED: BRANCH  40  41
DOCKED: ATOM     41  C   UNL d   1      12.655   7.820  33.313 -0.39 +0.12    +0.139 C 
DOCKED: ATOM     42  O   UNL d   1      13.009   6.675  33.557 -0.16 -0.55    -0.650 OA
DOCKED: BRANCH  41  43
DOCKED: ATOM     43  O   UNL d   1      13.244   8.840  33.975 -0.26 -1.20    -0.776 OA
DOCKED: ATOM     44  H   UNL d   1      14.183   8.838  34.202 +0.07 +0.29    +0.167 HD
DOCKED: ENDBRANCH  41  43
DOCKED: ENDBRANCH  40  41
DOCKED: ENDBRANCH  39  40
DOCKED: ENDBRANCH  22  39
DOCKED: BRANCH  12  45
DOCKED: ATOM     45  C   UNL d   1       6.810  19.056  31.882 -0.21 +0.00    +0.004 C 
DOCKED: ATOM     46  C   UNL d   1       5.696  19.280  31.190 -0.27 +0.00    +0.012 C 
DOCKED: ENDBRANCH  12  45
DOCKED: BRANCH  17  47
DOCKED: ATOM     47  C   UNL d   1       7.132  12.921  27.050 -0.44 +0.00    +0.004 C 
DOCKED: ATOM     48  C   UNL d   1       7.630  13.273  25.863 -0.42 +0.00    +0.012 C 
DOCKED: ENDBRANCH  17  47
DOCKED: TORSDOF 12
DOCKED: TER
DOCKED: ENDMDL
________________________________________________________________________________


	BEGINNING GENETIC ALGORITHM DOCKING 23 of 100
Run: 23 Seed: 1932067311 101742740 [ Run 23 of 100 GA/GALS ]
Beginning LAMARCKIAN GENETIC ALGORITHM (LGA), with a maximum of 25000000 energy evaluations.

Final-Value: -10.702


	FINAL GENETIC ALGORITHM DOCKED STATE
	_______________________________________________


Detailed state:  trans 10.955 -0.494 13.816 quatxyzw -0.913173 -0.348967 0.206227 -0.042516 center 8.781 34.984 -0.736 ntor 12 11.0362 -127.3255 180.0000 -90.5800 -54.9330 -173.7044 11.9804 -29.1678 -120.5812 32.2355 159.6417 162.1528
State:	 10.955  -0.494  13.816  -0.914 -0.349  0.206 -175.127     11.04 -127.33  180.00  -90.58  -54.93 -173.70   11.98  -29.17 -120.58   32.24  159.64  162.15

DOCKED: MODEL       23
DOCKED: USER    Run = 23
DOCKED: USER    DPF = D:/Protein_go_brrr/autodock/final/1A3N/heme_Co/dock.dpf
DOCKED: USER  
DOCKED: USER    Estimated Free Energy of Binding    =   -5.93 kcal/mol  [=(1)+(2)+(3)-(4)]
DOCKED: USER    Estimated Inhibition Constant, Ki   =   44.74 uM (micromolar)  [Temperature = 298.15 K]
DOCKED: USER    
DOCKED: USER    (1) Final Intermolecular Energy     =   -9.51 kcal/mol
DOCKED: USER        vdW + Hbond + desolv Energy     =   -7.23 kcal/mol
DOCKED: USER        Electrostatic Energy            =   -2.28 kcal/mol
DOCKED: USER    (2) Final Total Internal Energy     =   -1.19 kcal/mol
DOCKED: USER    (3) Torsional Free Energy           =   +3.58 kcal/mol
DOCKED: USER    (4) Unbound System's Energy  [=(2)] =   -1.19 kcal/mol
DOCKED: USER    
DOCKED: USER    
DOCKED: USER    NEWDPF move heme_Co_opt.pdbqt
DOCKED: USER    NEWDPF about 8.781000 34.984000 -0.736000
DOCKED: USER    NEWDPF tran0 10.955178 -0.494348 13.816428
DOCKED: USER    NEWDPF quaternion0 -0.913173 -0.348967 0.206227 -0.042516
DOCKED: USER    NEWDPF axisangle0 -0.913999 -0.349283 0.206414 -175.126521
DOCKED: USER    NEWDPF quat0 -0.913999 -0.349283 0.206414 -175.126521
DOCKED: USER    NEWDPF dihe0 11.04 -127.33 180.00 -90.58 -54.93 -173.70 11.98 -29.17 -120.58 32.24 159.64 162.15 
DOCKED: USER  keepresnum = 1 
DOCKED: USER  
DOCKED: REMARK  12 active torsions:
DOCKED: REMARK  status: ('A' for Active; 'I' for Inactive)
DOCKED: REMARK    1  A    between atoms: C_6  and  C_10 
DOCKED: REMARK    2  A    between atoms: C_10  and  C_11 
DOCKED: REMARK    3  A    between atoms: C_11  and  C_12 
DOCKED: REMARK    4  A    between atoms: C_12  and  O_14 
DOCKED: REMARK    5  A    between atoms: C_17  and  C_20 
DOCKED: REMARK    6  A    between atoms: C_24  and  C_27 
DOCKED: REMARK    7  A    between atoms: C_31  and  C_34 
DOCKED: REMARK    8  A    between atoms: C_34  and  C_35 
DOCKED: REMARK    9  A    between atoms: C_35  and  C_36 
DOCKED: REMARK   10  A    between atoms: C_36  and  O_38 
DOCKED: REMARK   11  A    between atoms: FE_43  and  C_44 
DOCKED: REMARK   12  A    between atoms: C_44  and  O_45 
DOCKED: USER                              x       y       z     vdW  Elec       q    Type
DOCKED: USER                           _______ _______ _______ _____ _____    ______ ____
DOCKED: ROOT
DOCKED: ATOM      1  C   UNL d   1      10.311  -2.081  15.152 -0.08 +0.05    +0.064 A 
DOCKED: ATOM      2  C   UNL d   1       7.990   0.499  11.901 -0.28 +0.02    +0.064 C 
DOCKED: ATOM      3  C   UNL d   1      11.896   3.148  11.159 -0.18 +0.01    +0.064 A 
DOCKED: ATOM      4  C   UNL d   1      14.398   0.284  14.192 -0.09 +0.02    +0.064 A 
DOCKED: ATOM      5  C   UNL d   1       9.379  -1.547  14.344 -0.09 +0.06    +0.066 A 
DOCKED: ATOM      6  C   UNL d   1       8.091  -2.103  14.221 -0.14 -0.01    -0.021 A 
DOCKED: ATOM      7  C   UNL d   1       7.429  -1.365  13.259 -0.21 -0.01    -0.025 A 
DOCKED: ATOM      8  C   UNL d   1       8.335  -0.381  12.850 -0.18 +0.04    +0.066 A 
DOCKED: ATOM      9  C   UNL d   1       5.999  -1.566  12.735 -0.34 +0.01    +0.051 C 
DOCKED: ATOM     10  C   UNL d   1       8.845   1.561  11.434 -0.19 +0.01    +0.066 A 
DOCKED: ATOM     11  C   UNL d   1       8.493   2.599  10.545 -0.30 +0.01    -0.021 A 
DOCKED: ATOM     12  C   UNL d   1       9.649   3.359  10.349 -0.25 -0.00    +0.000 A 
DOCKED: ATOM     13  C   UNL d   1      10.616   2.738  11.141 -0.20 -0.00    +0.070 A 
DOCKED: ATOM     14  C   UNL d   1       7.114   2.883  10.006 -0.15 -0.01    +0.052 C 
DOCKED: ATOM     15  C   UNL d   1      13.029   2.594  11.874 -0.16 +0.03    +0.066 A 
DOCKED: ATOM     16  C   UNL d   1      14.356   2.976  11.736 -0.18 -0.01    -0.021 A 
DOCKED: ATOM     17  C   UNL d   1      15.082   2.151  12.607 -0.15 +0.00    +0.000 A 
DOCKED: ATOM     18  C   UNL d   1      14.135   1.339  13.222 -0.11 +0.03    +0.070 A 
DOCKED: ATOM     19  C   UNL d   1      14.864   4.066  10.818 -0.24 +0.04    +0.052 C 
DOCKED: ATOM     20  C   UNL d   1      13.505  -0.575  14.739 -0.10 +0.03    +0.066 A 
DOCKED: ATOM     21  C   UNL d   1      13.885  -1.573  15.634 -0.12 -0.00    -0.025 A 
DOCKED: ATOM     22  C   UNL d   1      12.722  -2.252  15.950 -0.09 -0.01    -0.021 A 
DOCKED: ATOM     23  C   UNL d   1      11.685  -1.638  15.217 -0.09 +0.05    +0.066 A 
DOCKED: ATOM     24  C   UNL d   1      15.289  -1.878  16.148 -0.20 -0.01    +0.051 C 
DOCKED: ATOM     25  N   UNL d   1       9.550  -0.467  13.509 +0.14 -0.32    -0.248 N 
DOCKED: ATOM     26  N   UNL d   1      10.114   1.685  11.840 -0.11 -0.13    -0.248 N 
DOCKED: ATOM     27  N   UNL d   1      12.927   1.610  12.739 -0.09 -0.18    -0.248 N 
DOCKED: ATOM     28  N   UNL d   1      12.155  -0.624  14.481 -0.04 -0.26    -0.248 N 
DOCKED: ATOM     29 FE   UNL d   1      11.340   0.631  13.104 -0.05 +0.00    +0.000 Fe
DOCKED: ENDROOT
DOCKED: BRANCH   6  30
DOCKED: ATOM     30  C   UNL d   1       7.560  -3.339  14.940 -0.15 +0.02    +0.052 C 
DOCKED: BRANCH  30  31
DOCKED: ATOM     31  C   UNL d   1       7.232  -4.445  13.937 -0.14 +0.04    +0.115 C 
DOCKED: BRANCH  31  32
DOCKED: ATOM     32  C   UNL d   1       8.427  -4.832  13.093 -0.20 +0.07    +0.139 C 
DOCKED: ATOM     33  O   UNL d   1       8.387  -4.668  11.883 -0.32 -0.57    -0.650 OA
DOCKED: BRANCH  32  34
DOCKED: ATOM     34  O   UNL d   1       9.568  -5.312  13.642 +0.07 -0.36    -0.776 OA
DOCKED: ATOM     35  H   UNL d   1       9.671  -5.530  14.578 +0.04 +0.06    +0.167 HD
DOCKED: ENDBRANCH  32  34
DOCKED: ENDBRANCH  31  32
DOCKED: ENDBRANCH  30  31
DOCKED: ENDBRANCH   6  30
DOCKED: BRANCH  29  36
DOCKED: ATOM     36  C   UNL d   1      11.714  -0.759  11.580 -0.16 -0.01    +0.190 C 
DOCKED: BRANCH  36  37
DOCKED: ATOM     37  O   UNL d   1      11.081  -1.588  10.649 -0.11 +0.17    -0.399 OA
DOCKED: ATOM     38  H   UNL d   1      11.403  -1.268   9.760 -0.43 -0.39    +0.209 HD
DOCKED: ENDBRANCH  36  37
DOCKED: ENDBRANCH  29  36
DOCKED: BRANCH  22  39
DOCKED: ATOM     39  C   UNL d   1      12.632  -3.465  16.857 -0.07 +0.03    +0.052 C 
DOCKED: BRANCH  39  40
DOCKED: ATOM     40  C   UNL d   1      12.638  -4.762  16.031 -0.04 +0.06    +0.115 C 
DOCKED: BRANCH  40  41
DOCKED: ATOM     41  C   UNL d   1      11.943  -5.931  16.697 -0.05 +0.08    +0.139 C 
DOCKED: ATOM     42  O   UNL d   1      10.871  -6.321  16.254 +0.05 -0.26    -0.650 OA
DOCKED: BRANCH  41  43
DOCKED: ATOM     43  O   UNL d   1      12.515  -6.612  17.714 -0.38 -0.77    -0.776 OA
DOCKED: ATOM     44  H   UNL d   1      12.124  -7.412  18.088 +0.04 +0.12    +0.167 HD
DOCKED: ENDBRANCH  41  43
DOCKED: ENDBRANCH  40  41
DOCKED: ENDBRANCH  39  40
DOCKED: ENDBRANCH  22  39
DOCKED: BRANCH  12  45
DOCKED: ATOM     45  C   UNL d   1       9.946   4.605   9.525 -0.27 -0.00    +0.004 C 
DOCKED: ATOM     46  C   UNL d   1      10.512   4.737   8.328 -0.40 -0.01    +0.012 C 
DOCKED: ENDBRANCH  12  45
DOCKED: BRANCH  17  47
DOCKED: ATOM     47  C   UNL d   1      16.556   2.066  12.834 -0.19 +0.00    +0.004 C 
DOCKED: ATOM     48  C   UNL d   1      17.398   1.462  11.992 -0.23 +0.00    +0.012 C 
DOCKED: ENDBRANCH  17  47
DOCKED: TORSDOF 12
DOCKED: TER
DOCKED: ENDMDL
________________________________________________________________________________


	BEGINNING GENETIC ALGORITHM DOCKING 24 of 100
Run: 24 Seed: 619439316 1272787514 [ Run 24 of 100 GA/GALS ]
Beginning LAMARCKIAN GENETIC ALGORITHM (LGA), with a maximum of 25000000 energy evaluations.

Final-Value: -13.001


	FINAL GENETIC ALGORITHM DOCKED STATE
	_______________________________________________


Detailed state:  trans 23.046 -6.877 35.983 quatxyzw -0.558707 -0.720950 -0.361879 0.192668 center 8.781 34.984 -0.736 ntor 12 20.4512 84.4486 -127.3470 -8.4537 -39.9992 88.8154 170.3805 117.5575 -8.5844 153.7097 -154.3902 166.3652
State:	 23.046  -6.877  35.983  -0.569 -0.735 -0.369 157.783     20.45   84.45 -127.35   -8.45  -40.00   88.82  170.38  117.56   -8.58  153.71 -154.39  166.37

DOCKED: MODEL       24
DOCKED: USER    Run = 24
DOCKED: USER    DPF = D:/Protein_go_brrr/autodock/final/1A3N/heme_Co/dock.dpf
DOCKED: USER  
DOCKED: USER    Estimated Free Energy of Binding    =   -7.03 kcal/mol  [=(1)+(2)+(3)-(4)]
DOCKED: USER    Estimated Inhibition Constant, Ki   =    7.09 uM (micromolar)  [Temperature = 298.15 K]
DOCKED: USER    
DOCKED: USER    (1) Final Intermolecular Energy     =  -10.60 kcal/mol
DOCKED: USER        vdW + Hbond + desolv Energy     =   -8.85 kcal/mol
DOCKED: USER        Electrostatic Energy            =   -1.76 kcal/mol
DOCKED: USER    (2) Final Total Internal Energy     =   -2.40 kcal/mol
DOCKED: USER    (3) Torsional Free Energy           =   +3.58 kcal/mol
DOCKED: USER    (4) Unbound System's Energy  [=(2)] =   -2.40 kcal/mol
DOCKED: USER    
DOCKED: USER    
DOCKED: USER    NEWDPF move heme_Co_opt.pdbqt
DOCKED: USER    NEWDPF about 8.781000 34.984000 -0.736000
DOCKED: USER    NEWDPF tran0 23.045917 -6.877327 35.983343
DOCKED: USER    NEWDPF quaternion0 -0.558707 -0.720950 -0.361879 0.192668
DOCKED: USER    NEWDPF axisangle0 -0.569374 -0.734716 -0.368789 157.782993
DOCKED: USER    NEWDPF quat0 -0.569374 -0.734716 -0.368789 157.782993
DOCKED: USER    NEWDPF dihe0 20.45 84.45 -127.35 -8.45 -40.00 88.82 170.38 117.56 -8.58 153.71 -154.39 166.37 
DOCKED: USER  keepresnum = 1 
DOCKED: USER  
DOCKED: REMARK  12 active torsions:
DOCKED: REMARK  status: ('A' for Active; 'I' for Inactive)
DOCKED: REMARK    1  A    between atoms: C_6  and  C_10 
DOCKED: REMARK    2  A    between atoms: C_10  and  C_11 
DOCKED: REMARK    3  A    between atoms: C_11  and  C_12 
DOCKED: REMARK    4  A    between atoms: C_12  and  O_14 
DOCKED: REMARK    5  A    between atoms: C_17  and  C_20 
DOCKED: REMARK    6  A    between atoms: C_24  and  C_27 
DOCKED: REMARK    7  A    between atoms: C_31  and  C_34 
DOCKED: REMARK    8  A    between atoms: C_34  and  C_35 
DOCKED: REMARK    9  A    between atoms: C_35  and  C_36 
DOCKED: REMARK   10  A    between atoms: C_36  and  O_38 
DOCKED: REMARK   11  A    between atoms: FE_43  and  C_44 
DOCKED: REMARK   12  A    between atoms: C_44  and  O_45 
DOCKED: USER                              x       y       z     vdW  Elec       q    Type
DOCKED: USER                           _______ _______ _______ _____ _____    ______ ____
DOCKED: ROOT
DOCKED: ATOM      1  C   UNL d   1      23.382  -8.910  36.671 -0.17 +0.02    +0.064 A 
DOCKED: ATOM      2  C   UNL d   1      23.778  -6.878  32.390 -0.26 +0.01    +0.064 C 
DOCKED: ATOM      3  C   UNL d   1      22.039  -2.782  34.131 -0.41 +0.01    +0.064 A 
DOCKED: ATOM      4  C   UNL d   1      21.987  -4.717  38.594 -0.01 +0.01    +0.064 A 
DOCKED: ATOM      5  C   UNL d   1      23.584  -8.666  35.365 -0.23 +0.02    +0.066 A 
DOCKED: ATOM      6  C   UNL d   1      24.165  -9.621  34.508 -0.26 -0.01    -0.021 A 
DOCKED: ATOM      7  C   UNL d   1      24.299  -9.018  33.273 -0.34 -0.00    -0.025 A 
DOCKED: ATOM      8  C   UNL d   1      23.779  -7.728  33.424 -0.32 +0.01    +0.066 A 
DOCKED: ATOM      9  C   UNL d   1      24.892  -9.620  31.990 -0.43 +0.01    +0.051 C 
DOCKED: ATOM     10  C   UNL d   1      23.241  -5.541  32.444 -0.24 +0.01    +0.066 A 
DOCKED: ATOM     11  C   UNL d   1      23.083  -4.651  31.360 -0.41 -0.00    -0.021 A 
DOCKED: ATOM     12  C   UNL d   1      22.570  -3.466  31.895 -0.48 +0.00    +0.000 A 
DOCKED: ATOM     13  C   UNL d   1      22.442  -3.725  33.260 -0.41 +0.01    +0.070 A 
DOCKED: ATOM     14  C   UNL d   1      23.321  -4.965  29.905 -0.43 +0.00    +0.052 C 
DOCKED: ATOM     15  C   UNL d   1      21.901  -2.861  35.572 -0.29 +0.01    +0.066 A 
DOCKED: ATOM     16  C   UNL d   1      21.619  -1.807  36.430 -0.28 -0.00    -0.021 A 
DOCKED: ATOM     17  C   UNL d   1      21.606  -2.360  37.719 -0.15 +0.00    +0.000 A 
DOCKED: ATOM     18  C   UNL d   1      21.864  -3.715  37.543 +0.05 +0.01    +0.070 A 
DOCKED: ATOM     19  C   UNL d   1      21.385  -0.373  36.011 -0.27 -0.00    +0.052 C 
DOCKED: ATOM     20  C   UNL d   1      22.323  -6.022  38.454 -0.07 +0.01    +0.066 A 
DOCKED: ATOM     21  C   UNL d   1      22.445  -6.879  39.545 -0.08 -0.01    -0.025 A 
DOCKED: ATOM     22  C   UNL d   1      22.818  -8.103  39.019 -0.09 -0.01    -0.021 A 
DOCKED: ATOM     23  C   UNL d   1      22.917  -7.926  37.622 -0.15 +0.02    +0.066 A 
DOCKED: ATOM     24  C   UNL d   1      22.237  -6.546  41.020 -0.04 +0.01    +0.051 C 
DOCKED: ATOM     25  N   UNL d   1      23.323  -7.485  34.709 -0.18 -0.06    -0.248 N 
DOCKED: ATOM     26  N   UNL d   1      22.794  -4.998  33.582 -0.23 -0.03    -0.248 N 
DOCKED: ATOM     27  N   UNL d   1      22.065  -3.972  36.255 +0.01 -0.04    -0.248 N 
DOCKED: ATOM     28  N   UNL d   1      22.621  -6.668  37.277 -0.10 -0.06    -0.248 N 
DOCKED: ATOM     29 FE   UNL d   1      22.656  -5.626  35.531 -0.06 +0.00    +0.000 Fe
DOCKED: ENDROOT
DOCKED: BRANCH   6  30
DOCKED: ATOM     30  C   UNL d   1      24.642 -11.018  34.892 -0.22 +0.01    +0.052 C 
DOCKED: BRANCH  30  31
DOCKED: ATOM     31  C   UNL d   1      25.892 -10.936  35.768 -0.03 +0.06    +0.115 C 
DOCKED: BRANCH  31  32
DOCKED: ATOM     32  C   UNL d   1      26.255 -12.272  36.381 -0.11 +0.05    +0.139 C 
DOCKED: ATOM     33  O   UNL d   1      26.163 -13.287  35.708 +0.02 -0.10    -0.650 OA
DOCKED: BRANCH  32  34
DOCKED: ATOM     34  O   UNL d   1      26.728 -12.376  37.645 +0.00 -0.30    -0.776 OA
DOCKED: ATOM     35  H   UNL d   1      26.659 -11.678  38.311 +0.01 +0.09    +0.167 HD
DOCKED: ENDBRANCH  32  34
DOCKED: ENDBRANCH  31  32
DOCKED: ENDBRANCH  30  31
DOCKED: ENDBRANCH   6  30
DOCKED: BRANCH  29  36
DOCKED: ATOM     36  C   UNL d   1      24.679  -5.158  35.823 +0.01 +0.07    +0.190 C 
DOCKED: BRANCH  36  37
DOCKED: ATOM     37  O   UNL d   1      25.816  -5.534  36.545 -0.13 -0.28    -0.399 OA
DOCKED: ATOM     38  H   UNL d   1      25.464  -5.919  37.396 +0.06 +0.17    +0.209 HD
DOCKED: ENDBRANCH  36  37
DOCKED: ENDBRANCH  29  36
DOCKED: BRANCH  22  39
DOCKED: ATOM     39  C   UNL d   1      23.124  -9.351  39.825 -0.05 +0.01    +0.052 C 
DOCKED: BRANCH  39  40
DOCKED: ATOM     40  C   UNL d   1      24.625  -9.435  40.146 -0.03 +0.05    +0.115 C 
DOCKED: BRANCH  40  41
DOCKED: ATOM     41  C   UNL d   1      25.526  -8.834  39.087 -0.06 +0.14    +0.139 C 
DOCKED: ATOM     42  O   UNL d   1      26.144  -9.576  38.336 -0.32 -0.91    -0.650 OA
DOCKED: BRANCH  41  43
DOCKED: ATOM     43  O   UNL d   1      25.598  -7.499  38.891 -0.37 -0.94    -0.776 OA
DOCKED: ATOM     44  H   UNL d   1      25.385  -7.086  38.044 +0.02 +0.19    +0.167 HD
DOCKED: ENDBRANCH  41  43
DOCKED: ENDBRANCH  40  41
DOCKED: ENDBRANCH  39  40
DOCKED: ENDBRANCH  22  39
DOCKED: BRANCH  12  45
DOCKED: ATOM     45  C   UNL d   1      22.171  -2.133  31.275 -0.49 +0.00    +0.004 C 
DOCKED: ATOM     46  C   UNL d   1      22.468  -1.607  30.090 -0.60 +0.00    +0.012 C 
DOCKED: ENDBRANCH  12  45
DOCKED: BRANCH  17  47
DOCKED: ATOM     47  C   UNL d   1      21.420  -1.692  39.042 -0.10 +0.00    +0.004 C 
DOCKED: ATOM     48  C   UNL d   1      22.246  -0.757  39.518 -0.10 +0.00    +0.012 C 
DOCKED: ENDBRANCH  17  47
DOCKED: TORSDOF 12
DOCKED: TER
DOCKED: ENDMDL
________________________________________________________________________________


	BEGINNING GENETIC ALGORITHM DOCKING 25 of 100
Run: 25 Seed: 1000887191 1465130837 [ Run 25 of 100 GA/GALS ]
Beginning LAMARCKIAN GENETIC ALGORITHM (LGA), with a maximum of 25000000 energy evaluations.

Final-Value: -10.603


	FINAL GENETIC ALGORITHM DOCKED STATE
	_______________________________________________


Detailed state:  trans 6.290 -15.166 14.965 quatxyzw 0.818596 0.062985 -0.012439 0.570770 center 8.781 34.984 -0.736 ntor 12 174.5259 5.2857 -4.3291 -97.3039 -70.0487 -134.4749 -177.7654 -24.6992 78.4036 153.3520 22.8565 -179.9751
State:	  6.290 -15.166  14.965   0.997  0.077 -0.015 110.392    174.53    5.29   -4.33  -97.30  -70.05 -134.47 -177.77  -24.70   78.40  153.35   22.86 -179.98

DOCKED: MODEL       25
DOCKED: USER    Run = 25
DOCKED: USER    DPF = D:/Protein_go_brrr/autodock/final/1A3N/heme_Co/dock.dpf
DOCKED: USER  
DOCKED: USER    Estimated Free Energy of Binding    =   -6.07 kcal/mol  [=(1)+(2)+(3)-(4)]
DOCKED: USER    Estimated Inhibition Constant, Ki   =   35.64 uM (micromolar)  [Temperature = 298.15 K]
DOCKED: USER    
DOCKED: USER    (1) Final Intermolecular Energy     =   -9.65 kcal/mol
DOCKED: USER        vdW + Hbond + desolv Energy     =   -7.67 kcal/mol
DOCKED: USER        Electrostatic Energy            =   -1.98 kcal/mol
DOCKED: USER    (2) Final Total Internal Energy     =   -0.96 kcal/mol
DOCKED: USER    (3) Torsional Free Energy           =   +3.58 kcal/mol
DOCKED: USER    (4) Unbound System's Energy  [=(2)] =   -0.96 kcal/mol
DOCKED: USER    
DOCKED: USER    
DOCKED: USER    NEWDPF move heme_Co_opt.pdbqt
DOCKED: USER    NEWDPF about 8.781000 34.984000 -0.736000
DOCKED: USER    NEWDPF tran0 6.290473 -15.165693 14.964921
DOCKED: USER    NEWDPF quaternion0 0.818596 0.062985 -0.012439 0.570770
DOCKED: USER    NEWDPF axisangle0 0.996939 0.076707 -0.015149 110.392135
DOCKED: USER    NEWDPF quat0 0.996939 0.076707 -0.015149 110.392135
DOCKED: USER    NEWDPF dihe0 174.53 5.29 -4.33 -97.30 -70.05 -134.47 -177.77 -24.70 78.40 153.35 22.86 -179.98 
DOCKED: USER  keepresnum = 1 
DOCKED: USER  
DOCKED: REMARK  12 active torsions:
DOCKED: REMARK  status: ('A' for Active; 'I' for Inactive)
DOCKED: REMARK    1  A    between atoms: C_6  and  C_10 
DOCKED: REMARK    2  A    between atoms: C_10  and  C_11 
DOCKED: REMARK    3  A    between atoms: C_11  and  C_12 
DOCKED: REMARK    4  A    between atoms: C_12  and  O_14 
DOCKED: REMARK    5  A    between atoms: C_17  and  C_20 
DOCKED: REMARK    6  A    between atoms: C_24  and  C_27 
DOCKED: REMARK    7  A    between atoms: C_31  and  C_34 
DOCKED: REMARK    8  A    between atoms: C_34  and  C_35 
DOCKED: REMARK    9  A    between atoms: C_35  and  C_36 
DOCKED: REMARK   10  A    between atoms: C_36  and  O_38 
DOCKED: REMARK   11  A    between atoms: FE_43  and  C_44 
DOCKED: REMARK   12  A    between atoms: C_44  and  O_45 
DOCKED: USER                              x       y       z     vdW  Elec       q    Type
DOCKED: USER                           _______ _______ _______ _____ _____    ______ ____
DOCKED: ROOT
DOCKED: ATOM      1  C   UNL d   1       4.494 -16.356  14.694 -0.12 +0.03    +0.064 A 
DOCKED: ATOM      2  C   UNL d   1       5.162 -11.818  15.948 -0.24 +0.02    +0.064 C 
DOCKED: ATOM      3  C   UNL d   1       9.892 -12.492  16.012 -0.02 +0.04    +0.064 A 
DOCKED: ATOM      4  C   UNL d   1       9.255 -17.022  14.357 -0.00 +0.10    +0.064 A 
DOCKED: ATOM      5  C   UNL d   1       4.327 -15.076  15.067 -0.13 +0.02    +0.066 A 
DOCKED: ATOM      6  C   UNL d   1       3.058 -14.467  15.102 -0.27 -0.01    -0.021 A 
DOCKED: ATOM      7  C   UNL d   1       3.260 -13.145  15.445 -0.33 -0.01    -0.025 A 
DOCKED: ATOM      8  C   UNL d   1       4.641 -13.007  15.620 -0.18 +0.02    +0.066 A 
DOCKED: ATOM      9  C   UNL d   1       2.203 -12.041  15.604 -0.40 +0.01    +0.051 C 
DOCKED: ATOM     10  C   UNL d   1       6.566 -11.587  16.175 -0.10 +0.02    +0.066 A 
DOCKED: ATOM     11  C   UNL d   1       7.159 -10.399  16.657 -0.10 -0.01    -0.021 A 
DOCKED: ATOM     12  C   UNL d   1       8.538 -10.625  16.670 -0.05 +0.00    +0.000 A 
DOCKED: ATOM     13  C   UNL d   1       8.684 -11.933  16.208 -0.03 +0.03    +0.070 A 
DOCKED: ATOM     14  C   UNL d   1       6.431  -9.178  17.158 -0.15 +0.01    +0.052 C 
DOCKED: ATOM     15  C   UNL d   1      10.225 -13.804  15.494 -0.02 +0.05    +0.066 A 
DOCKED: ATOM     16  C   UNL d   1      11.495 -14.267  15.179 -0.04 -0.02    -0.021 A 
DOCKED: ATOM     17  C   UNL d   1      11.316 -15.572  14.699 -0.07 +0.00    +0.000 A 
DOCKED: ATOM     18  C   UNL d   1       9.948 -15.809  14.775 -0.05 +0.09    +0.070 A 
DOCKED: ATOM     19  C   UNL d   1      12.778 -13.482  15.338 -0.07 +0.03    +0.052 C 
DOCKED: ATOM     20  C   UNL d   1       7.919 -17.243  14.340 -0.04 +0.09    +0.066 A 
DOCKED: ATOM     21  C   UNL d   1       7.369 -18.438  13.881 -0.09 -0.03    -0.025 A 
DOCKED: ATOM     22  C   UNL d   1       5.999 -18.286  13.993 -0.12 -0.01    -0.021 A 
DOCKED: ATOM     23  C   UNL d   1       5.779 -16.991  14.509 -0.08 +0.05    +0.066 A 
DOCKED: ATOM     24  C   UNL d   1       8.111 -19.658  13.342 -0.11 +0.04    +0.051 C 
DOCKED: ATOM     25  N   UNL d   1       5.327 -14.189  15.398 -0.04 -0.11    -0.248 N 
DOCKED: ATOM     26  N   UNL d   1       7.488 -12.532  15.962 -0.02 -0.12    -0.248 N 
DOCKED: ATOM     27  N   UNL d   1       9.326 -14.725  15.224 -0.02 -0.24    -0.248 N 
DOCKED: ATOM     28  N   UNL d   1       6.938 -16.356  14.718 -0.03 -0.24    -0.248 N 
DOCKED: ATOM     29 FE   UNL d   1       7.445 -14.476  15.306 -0.02 +0.00    +0.000 Fe
DOCKED: ENDROOT
DOCKED: BRANCH   6  30
DOCKED: ATOM     30  C   UNL d   1       1.727 -15.118  14.740 -0.32 +0.00    +0.052 C 
DOCKED: BRANCH  30  31
DOCKED: ATOM     31  C   UNL d   1       0.900 -15.386  15.998 -0.41 +0.03    +0.115 C 
DOCKED: BRANCH  31  32
DOCKED: ATOM     32  C   UNL d   1       0.921 -16.845  16.402 -0.44 +0.02    +0.139 C 
DOCKED: ATOM     33  O   UNL d   1       1.993 -17.415  16.538 -0.03 -0.07    -0.650 OA
DOCKED: BRANCH  32  34
DOCKED: ATOM     34  O   UNL d   1      -0.214 -17.532  16.666 -0.32 -0.32    -0.776 OA
DOCKED: ATOM     35  H   UNL d   1      -0.253 -18.490  16.796 -0.43 -0.11    +0.167 HD
DOCKED: ENDBRANCH  32  34
DOCKED: ENDBRANCH  31  32
DOCKED: ENDBRANCH  30  31
DOCKED: ENDBRANCH   6  30
DOCKED: BRANCH  29  36
DOCKED: ATOM     36  C   UNL d   1       7.336 -13.802  13.324 -0.18 +0.21    +0.190 C 
DOCKED: BRANCH  36  37
DOCKED: ATOM     37  O   UNL d   1       7.115 -12.661  12.545 -0.67 -0.39    -0.399 OA
DOCKED: ATOM     38  H   UNL d   1       6.212 -12.796  12.143 +0.05 +0.17    +0.209 HD
DOCKED: ENDBRANCH  36  37
DOCKED: ENDBRANCH  29  36
DOCKED: BRANCH  22  39
DOCKED: ATOM     39  C   UNL d   1       4.963 -19.308  13.566 -0.18 +0.02    +0.052 C 
DOCKED: BRANCH  39  40
DOCKED: ATOM     40  C   UNL d   1       4.762 -19.273  12.042 -0.29 +0.06    +0.115 C 
DOCKED: BRANCH  40  41
DOCKED: ATOM     41  C   UNL d   1       4.944 -17.904  11.419 -0.37 +0.14    +0.139 C 
DOCKED: ATOM     42  O   UNL d   1       5.885 -17.713  10.661 -0.74 -1.12    -0.650 OA
DOCKED: BRANCH  41  43
DOCKED: ATOM     43  O   UNL d   1       4.047 -16.912  11.610 -0.17 -0.60    -0.776 OA
DOCKED: ATOM     44  H   UNL d   1       3.268 -17.017  12.171 +0.04 +0.08    +0.167 HD
DOCKED: ENDBRANCH  41  43
DOCKED: ENDBRANCH  40  41
DOCKED: ENDBRANCH  39  40
DOCKED: ENDBRANCH  22  39
DOCKED: BRANCH  12  45
DOCKED: ATOM     45  C   UNL d   1       9.727  -9.767  17.080 -0.04 +0.00    +0.004 C 
DOCKED: ATOM     46  C   UNL d   1      10.639  -9.140  16.342 -0.06 +0.00    +0.012 C 
DOCKED: ENDBRANCH  12  45
DOCKED: BRANCH  17  47
DOCKED: ATOM     47  C   UNL d   1      12.320 -16.533  14.154 -0.08 +0.00    +0.004 C 
DOCKED: ATOM     48  C   UNL d   1      12.623 -16.627  12.857 -0.10 +0.01    +0.012 C 
DOCKED: ENDBRANCH  17  47
DOCKED: TORSDOF 12
DOCKED: TER
DOCKED: ENDMDL
________________________________________________________________________________


	BEGINNING GENETIC ALGORITHM DOCKING 26 of 100
Run: 26 Seed: 458998062 532032177 [ Run 26 of 100 GA/GALS ]
Beginning LAMARCKIAN GENETIC ALGORITHM (LGA), with a maximum of 25000000 energy evaluations.

Final-Value: -10.713


	FINAL GENETIC ALGORITHM DOCKED STATE
	_______________________________________________


Detailed state:  trans 12.469 -9.702 12.176 quatxyzw -0.573480 -0.587846 -0.065878 0.566761 center 8.781 34.984 -0.736 ntor 12 -4.0204 105.6525 54.5235 -43.5426 97.9550 87.2577 46.8119 21.8905 7.5205 -61.4916 159.7044 161.9822
State:	 12.469  -9.702  12.176  -0.696 -0.714 -0.080 110.951     -4.02  105.65   54.52  -43.54   97.96   87.26   46.81   21.89    7.52  -61.49  159.70  161.98

DOCKED: MODEL       26
DOCKED: USER    Run = 26
DOCKED: USER    DPF = D:/Protein_go_brrr/autodock/final/1A3N/heme_Co/dock.dpf
DOCKED: USER  
DOCKED: USER    Estimated Free Energy of Binding    =   -6.41 kcal/mol  [=(1)+(2)+(3)-(4)]
DOCKED: USER    Estimated Inhibition Constant, Ki   =   19.87 uM (micromolar)  [Temperature = 298.15 K]
DOCKED: USER    
DOCKED: USER    (1) Final Intermolecular Energy     =   -9.99 kcal/mol
DOCKED: USER        vdW + Hbond + desolv Energy     =   -6.79 kcal/mol
DOCKED: USER        Electrostatic Energy            =   -3.21 kcal/mol
DOCKED: USER    (2) Final Total Internal Energy     =   -0.72 kcal/mol
DOCKED: USER    (3) Torsional Free Energy           =   +3.58 kcal/mol
DOCKED: USER    (4) Unbound System's Energy  [=(2)] =   -0.72 kcal/mol
DOCKED: USER    
DOCKED: USER    
DOCKED: USER    NEWDPF move heme_Co_opt.pdbqt
DOCKED: USER    NEWDPF about 8.781000 34.984000 -0.736000
DOCKED: USER    NEWDPF tran0 12.469278 -9.702435 12.175718
DOCKED: USER    NEWDPF quaternion0 -0.573480 -0.587846 -0.065878 0.566761
DOCKED: USER    NEWDPF axisangle0 -0.696070 -0.713507 -0.079960 110.950684
DOCKED: USER    NEWDPF quat0 -0.696070 -0.713507 -0.079960 110.950684
DOCKED: USER    NEWDPF dihe0 -4.02 105.65 54.52 -43.54 97.96 87.26 46.81 21.89 7.52 -61.49 159.70 161.98 
DOCKED: USER  keepresnum = 1 
DOCKED: USER  
DOCKED: REMARK  12 active torsions:
DOCKED: REMARK  status: ('A' for Active; 'I' for Inactive)
DOCKED: REMARK    1  A    between atoms: C_6  and  C_10 
DOCKED: REMARK    2  A    between atoms: C_10  and  C_11 
DOCKED: REMARK    3  A    between atoms: C_11  and  C_12 
DOCKED: REMARK    4  A    between atoms: C_12  and  O_14 
DOCKED: REMARK    5  A    between atoms: C_17  and  C_20 
DOCKED: REMARK    6  A    between atoms: C_24  and  C_27 
DOCKED: REMARK    7  A    between atoms: C_31  and  C_34 
DOCKED: REMARK    8  A    between atoms: C_34  and  C_35 
DOCKED: REMARK    9  A    between atoms: C_35  and  C_36 
DOCKED: REMARK   10  A    between atoms: C_36  and  O_38 
DOCKED: REMARK   11  A    between atoms: FE_43  and  C_44 
DOCKED: REMARK   12  A    between atoms: C_44  and  O_45 
DOCKED: USER                              x       y       z     vdW  Elec       q    Type
DOCKED: USER                           _______ _______ _______ _____ _____    ______ ____
DOCKED: ROOT
DOCKED: ATOM      1  C   UNL d   1      11.557 -10.498  13.978 -0.08 +0.03    +0.064 A 
DOCKED: ATOM      2  C   UNL d   1      13.111 -12.581   9.996 -0.17 +0.03    +0.064 C 
DOCKED: ATOM      3  C   UNL d   1      14.044  -8.306   8.079 -0.15 +0.03    +0.064 A 
DOCKED: ATOM      4  C   UNL d   1      12.825  -6.172  12.277 -0.09 +0.03    +0.064 A 
DOCKED: ATOM      5  C   UNL d   1      11.879 -11.380  13.018 -0.09 +0.03    +0.066 A 
DOCKED: ATOM      6  C   UNL d   1      11.811 -12.771  13.227 -0.08 -0.01    -0.021 A 
DOCKED: ATOM      7  C   UNL d   1      12.284 -13.371  12.076 -0.10 -0.02    -0.025 A 
DOCKED: ATOM      8  C   UNL d   1      12.606 -12.321  11.209 -0.11 +0.03    +0.066 A 
DOCKED: ATOM      9  C   UNL d   1      12.435 -14.873  11.789 -0.13 +0.04    +0.051 C 
DOCKED: ATOM     10  C   UNL d   1      13.447 -11.568   9.027 -0.17 +0.02    +0.066 A 
DOCKED: ATOM     11  C   UNL d   1      13.847 -11.780   7.690 -0.29 -0.00    -0.021 A 
DOCKED: ATOM     12  C   UNL d   1      14.109 -10.516   7.153 -0.26 +0.00    +0.000 A 
DOCKED: ATOM     13  C   UNL d   1      13.838  -9.629   8.195 -0.17 +0.02    +0.070 A 
DOCKED: ATOM     14  C   UNL d   1      13.878 -13.101   6.966 -0.20 +0.01    +0.052 C 
DOCKED: ATOM     15  C   UNL d   1      13.868  -7.257   9.065 -0.08 +0.04    +0.066 A 
DOCKED: ATOM     16  C   UNL d   1      14.238  -5.927   8.927 -0.13 -0.01    -0.021 A 
DOCKED: ATOM     17  C   UNL d   1      13.891  -5.308  10.136 -0.13 +0.00    +0.000 A 
DOCKED: ATOM     18  C   UNL d   1      13.319  -6.310  10.913 -0.11 +0.04    +0.070 A 
DOCKED: ATOM     19  C   UNL d   1      14.883  -5.319   7.701 -0.21 +0.01    +0.052 C 
DOCKED: ATOM     20  C   UNL d   1      12.345  -7.149  13.083 -0.09 +0.03    +0.066 A 
DOCKED: ATOM     21  C   UNL d   1      11.934  -6.899  14.390 -0.05 -0.01    -0.025 A 
DOCKED: ATOM     22  C   UNL d   1      11.536  -8.123  14.896 -0.06 -0.01    -0.021 A 
DOCKED: ATOM     23  C   UNL d   1      11.736  -9.069  13.868 -0.09 +0.03    +0.066 A 
DOCKED: ATOM     24  C   UNL d   1      11.938  -5.564  15.129 -0.03 +0.02    +0.051 C 
DOCKED: ATOM     25  N   UNL d   1      12.359 -11.077  11.764 -0.08 -0.11    -0.248 N 
DOCKED: ATOM     26  N   UNL d   1      13.383 -10.263   9.310 -0.09 -0.09    -0.248 N 
DOCKED: ATOM     27  N   UNL d   1      13.349  -7.463  10.255 -0.09 -0.14    -0.248 N 
DOCKED: ATOM     28  N   UNL d   1      12.228  -8.483  12.769 -0.09 -0.09    -0.248 N 
DOCKED: ATOM     29 FE   UNL d   1      12.882  -9.161  10.967 -0.03 +0.00    +0.000 Fe
DOCKED: ENDROOT
DOCKED: BRANCH   6  30
DOCKED: ATOM     30  C   UNL d   1      11.385 -13.479  14.509 -0.05 +0.04    +0.052 C 
DOCKED: BRANCH  30  31
DOCKED: ATOM     31  C   UNL d   1      12.548 -14.282  15.091 -0.05 +0.09    +0.115 C 
DOCKED: BRANCH  31  32
DOCKED: ATOM     32  C   UNL d   1      12.136 -15.109  16.289 -0.01 +0.19    +0.139 C 
DOCKED: ATOM     33  O   UNL d   1      12.084 -14.586  17.392 -0.16 -0.93    -0.650 OA
DOCKED: BRANCH  32  34
DOCKED: ATOM     34  O   UNL d   1      11.774 -16.408  16.173 -0.45 -1.55    -0.776 OA
DOCKED: ATOM     35  H   UNL d   1      11.642 -16.863  15.330 +0.02 +0.23    +0.167 HD
DOCKED: ENDBRANCH  32  34
DOCKED: ENDBRANCH  31  32
DOCKED: ENDBRANCH  30  31
DOCKED: ENDBRANCH   6  30
DOCKED: BRANCH  29  36
DOCKED: ATOM     36  C   UNL d   1      14.798  -9.481  11.757 -0.02 +0.06    +0.190 C 
DOCKED: BRANCH  36  37
DOCKED: ATOM     37  O   UNL d   1      15.502  -9.601  12.960 -0.22 -0.14    -0.399 OA
DOCKED: ATOM     38  H   UNL d   1      14.840  -9.364  13.668 +0.04 +0.08    +0.209 HD
DOCKED: ENDBRANCH  36  37
DOCKED: ENDBRANCH  29  36
DOCKED: BRANCH  22  39
DOCKED: ATOM     39  C   UNL d   1      11.052  -8.375  16.312 -0.05 +0.02    +0.052 C 
DOCKED: BRANCH  39  40
DOCKED: ATOM     40  C   UNL d   1      12.201  -8.888  17.195 -0.12 +0.05    +0.115 C 
DOCKED: BRANCH  40  41
DOCKED: ATOM     41  C   UNL d   1      12.627  -7.928  18.286 -0.16 +0.11    +0.139 C 
DOCKED: ATOM     42  O   UNL d   1      13.248  -8.354  19.250 -0.56 -0.66    -0.650 OA
DOCKED: BRANCH  41  43
DOCKED: ATOM     43  O   UNL d   1      12.415  -6.597  18.184 -0.42 -0.81    -0.776 OA
DOCKED: ATOM     44  H   UNL d   1      11.531  -6.216  18.105 +0.03 +0.10    +0.167 HD
DOCKED: ENDBRANCH  41  43
DOCKED: ENDBRANCH  40  41
DOCKED: ENDBRANCH  39  40
DOCKED: ENDBRANCH  22  39
DOCKED: BRANCH  12  45
DOCKED: ATOM     45  C   UNL d   1      14.564 -10.046   5.778 -0.39 +0.00    +0.004 C 
DOCKED: ATOM     46  C   UNL d   1      15.597 -10.427   5.030 -0.44 -0.00    +0.012 C 
DOCKED: ENDBRANCH  12  45
DOCKED: BRANCH  17  47
DOCKED: ATOM     47  C   UNL d   1      14.110  -3.900  10.584 -0.12 +0.00    +0.004 C 
DOCKED: ATOM     48  C   UNL d   1      13.376  -2.869  10.160 -0.20 -0.00    +0.012 C 
DOCKED: ENDBRANCH  17  47
DOCKED: TORSDOF 12
DOCKED: TER
DOCKED: ENDMDL
________________________________________________________________________________


	BEGINNING GENETIC ALGORITHM DOCKING 27 of 100
Run: 27 Seed: 1490115205 387426763 [ Run 27 of 100 GA/GALS ]
Beginning LAMARCKIAN GENETIC ALGORITHM (LGA), with a maximum of 25000000 energy evaluations.

Final-Value: -10.859


	FINAL GENETIC ALGORITHM DOCKED STATE
	_______________________________________________


Detailed state:  trans 13.805 -13.946 11.443 quatxyzw -0.794961 0.214305 0.507940 -0.253193 center 8.781 34.984 -0.736 ntor 12 -174.0092 -140.9318 -114.3381 68.0802 -7.9716 -169.2033 -178.8870 178.3846 -77.9079 41.4090 -175.8227 -179.6988
State:	 13.805 -13.946  11.443  -0.822  0.222  0.525 -150.667   -174.01 -140.93 -114.34   68.08   -7.97 -169.20 -178.89  178.38  -77.91   41.41 -175.82 -179.70

DOCKED: MODEL       27
DOCKED: USER    Run = 27
DOCKED: USER    DPF = D:/Protein_go_brrr/autodock/final/1A3N/heme_Co/dock.dpf
DOCKED: USER  
DOCKED: USER    Estimated Free Energy of Binding    =   -5.27 kcal/mol  [=(1)+(2)+(3)-(4)]
DOCKED: USER    Estimated Inhibition Constant, Ki   =  135.98 uM (micromolar)  [Temperature = 298.15 K]
DOCKED: USER    
DOCKED: USER    (1) Final Intermolecular Energy     =   -8.85 kcal/mol
DOCKED: USER        vdW + Hbond + desolv Energy     =   -5.95 kcal/mol
DOCKED: USER        Electrostatic Energy            =   -2.91 kcal/mol
DOCKED: USER    (2) Final Total Internal Energy     =   -2.00 kcal/mol
DOCKED: USER    (3) Torsional Free Energy           =   +3.58 kcal/mol
DOCKED: USER    (4) Unbound System's Energy  [=(2)] =   -2.00 kcal/mol
DOCKED: USER    
DOCKED: USER    
DOCKED: USER    NEWDPF move heme_Co_opt.pdbqt
DOCKED: USER    NEWDPF about 8.781000 34.984000 -0.736000
DOCKED: USER    NEWDPF tran0 13.804622 -13.946132 11.443087
DOCKED: USER    NEWDPF quaternion0 -0.794961 0.214305 0.507940 -0.253193
DOCKED: USER    NEWDPF axisangle0 -0.821737 0.221523 0.525048 -150.666896
DOCKED: USER    NEWDPF quat0 -0.821737 0.221523 0.525048 -150.666896
DOCKED: USER    NEWDPF dihe0 -174.01 -140.93 -114.34 68.08 -7.97 -169.20 -178.89 178.38 -77.91 41.41 -175.82 -179.70 
DOCKED: USER  keepresnum = 1 
DOCKED: USER  
DOCKED: REMARK  12 active torsions:
DOCKED: REMARK  status: ('A' for Active; 'I' for Inactive)
DOCKED: REMARK    1  A    between atoms: C_6  and  C_10 
DOCKED: REMARK    2  A    between atoms: C_10  and  C_11 
DOCKED: REMARK    3  A    between atoms: C_11  and  C_12 
DOCKED: REMARK    4  A    between atoms: C_12  and  O_14 
DOCKED: REMARK    5  A    between atoms: C_17  and  C_20 
DOCKED: REMARK    6  A    between atoms: C_24  and  C_27 
DOCKED: REMARK    7  A    between atoms: C_31  and  C_34 
DOCKED: REMARK    8  A    between atoms: C_34  and  C_35 
DOCKED: REMARK    9  A    between atoms: C_35  and  C_36 
DOCKED: REMARK   10  A    between atoms: C_36  and  O_38 
DOCKED: REMARK   11  A    between atoms: FE_43  and  C_44 
DOCKED: REMARK   12  A    between atoms: C_44  and  O_45 
DOCKED: USER                              x       y       z     vdW  Elec       q    Type
DOCKED: USER                           _______ _______ _______ _____ _____    ______ ____
DOCKED: ROOT
DOCKED: ATOM      1  C   UNL d   1      13.342 -14.701  13.426 -0.02 +0.04    +0.064 A 
DOCKED: ATOM      2  C   UNL d   1      12.815 -10.415  11.435 -0.13 +0.02    +0.064 C 
DOCKED: ATOM      3  C   UNL d   1      15.031 -11.935   7.485 -0.17 +0.01    +0.064 A 
DOCKED: ATOM      4  C   UNL d   1      15.237 -16.426   9.345 -0.14 +0.02    +0.064 A 
DOCKED: ATOM      5  C   UNL d   1      13.067 -13.408  13.186 -0.03 +0.04    +0.066 A 
DOCKED: ATOM      6  C   UNL d   1      12.343 -12.616  14.099 -0.04 -0.01    -0.021 A 
DOCKED: ATOM      7  C   UNL d   1      12.173 -11.380  13.506 -0.08 -0.01    -0.025 A 
DOCKED: ATOM      8  C   UNL d   1      12.815 -11.465  12.266 -0.07 +0.03    +0.066 A 
DOCKED: ATOM      9  C   UNL d   1      11.437 -10.157  14.073 -0.11 +0.02    +0.051 C 
DOCKED: ATOM     10  C   UNL d   1      13.471 -10.401  10.152 -0.11 +0.02    +0.066 A 
DOCKED: ATOM     11  C   UNL d   1      13.627  -9.288   9.296 -0.15 -0.01    -0.021 A 
DOCKED: ATOM     12  C   UNL d   1      14.280  -9.759   8.154 -0.16 +0.00    +0.000 A 
DOCKED: ATOM     13  C   UNL d   1      14.484 -11.117   8.401 -0.11 +0.02    +0.070 A 
DOCKED: ATOM     14  C   UNL d   1      13.256  -7.862   9.611 +0.09 +0.03    +0.052 C 
DOCKED: ATOM     15  C   UNL d   1      15.267 -13.364   7.552 -0.19 +0.01    +0.066 A 
DOCKED: ATOM     16  C   UNL d   1      15.702 -14.176   6.515 -0.25 +0.00    -0.021 A 
DOCKED: ATOM     17  C   UNL d   1      15.761 -15.473   7.046 -0.27 +0.00    +0.000 A 
DOCKED: ATOM     18  C   UNL d   1      15.371 -15.346   8.375 -0.13 +0.01    +0.070 A 
DOCKED: ATOM     19  C   UNL d   1      16.031 -13.709   5.114 -0.28 -0.02    +0.052 C 
DOCKED: ATOM     20  C   UNL d   1      14.778 -16.339  10.616 -0.13 +0.03    +0.066 A 
DOCKED: ATOM     21  C   UNL d   1      14.661 -17.455  11.442 -0.12 -0.01    -0.025 A 
DOCKED: ATOM     22  C   UNL d   1      14.144 -16.984  12.635 -0.05 -0.01    -0.021 A 
DOCKED: ATOM     23  C   UNL d   1      13.959 -15.595  12.473 -0.04 +0.03    +0.066 A 
DOCKED: ATOM     24  C   UNL d   1      15.005 -18.904  11.105 -0.17 +0.02    +0.051 C 
DOCKED: ATOM     25  N   UNL d   1      13.383 -12.708  12.044 -0.01 -0.11    -0.248 N 
DOCKED: ATOM     26  N   UNL d   1      14.045 -11.491   9.632 -0.03 -0.07    -0.248 N 
DOCKED: ATOM     27  N   UNL d   1      15.056 -14.082   8.633 -0.09 -0.05    -0.248 N 
DOCKED: ATOM     28  N   UNL d   1      14.340 -15.201  11.252 -0.04 -0.11    -0.248 N 
DOCKED: ATOM     29 FE   UNL d   1      14.270 -13.439  10.239 -0.03 +0.00    +0.000 Fe
DOCKED: ENDROOT
DOCKED: BRANCH   6  30
DOCKED: ATOM     30  C   UNL d   1      11.774 -13.065  15.441 -0.05 +0.03    +0.052 C 
DOCKED: BRANCH  30  31
DOCKED: ATOM     31  C   UNL d   1      10.339 -13.565  15.276 -0.03 +0.09    +0.115 C 
DOCKED: BRANCH  31  32
DOCKED: ATOM     32  C   UNL d   1      10.256 -15.076  15.230 -0.05 +0.15    +0.139 C 
DOCKED: ATOM     33  O   UNL d   1      10.792 -15.734  16.109 -0.33 -0.91    -0.650 OA
DOCKED: BRANCH  32  34
DOCKED: ATOM     34  O   UNL d   1       9.562 -15.727  14.267 -0.54 -1.23    -0.776 OA
DOCKED: ATOM     35  H   UNL d   1       9.467 -16.688  14.222 +0.01 +0.28    +0.167 HD
DOCKED: ENDBRANCH  32  34
DOCKED: ENDBRANCH  31  32
DOCKED: ENDBRANCH  30  31
DOCKED: ENDBRANCH   6  30
DOCKED: BRANCH  29  36
DOCKED: ATOM     36  C   UNL d   1      12.323 -13.864   9.587 -0.17 +0.11    +0.190 C 
DOCKED: BRANCH  36  37
DOCKED: ATOM     37  O   UNL d   1      11.006 -13.395   9.630 -0.25 -0.30    -0.399 OA
DOCKED: ATOM     38  H   UNL d   1      10.837 -13.021   8.721 -0.19 +0.09    +0.209 HD
DOCKED: ENDBRANCH  36  37
DOCKED: ENDBRANCH  29  36
DOCKED: BRANCH  22  39
DOCKED: ATOM     39  C   UNL d   1      13.789 -17.838  13.838 -0.04 +0.03    +0.052 C 
DOCKED: BRANCH  39  40
DOCKED: ATOM     40  C   UNL d   1      12.443 -18.548  13.620 -0.05 +0.08    +0.115 C 
DOCKED: BRANCH  40  41
DOCKED: ATOM     41  C   UNL d   1      11.600 -18.687  14.871 -0.06 +0.13    +0.139 C 
DOCKED: ATOM     42  O   UNL d   1      12.134 -19.028  15.917 -0.05 -0.81    -0.650 OA
DOCKED: BRANCH  41  43
DOCKED: ATOM     43  O   UNL d   1      10.289 -18.361  14.884 +0.02 -0.80    -0.776 OA
DOCKED: ATOM     44  H   UNL d   1       9.954 -17.575  15.334 +0.02 +0.19    +0.167 HD
DOCKED: ENDBRANCH  41  43
DOCKED: ENDBRANCH  40  41
DOCKED: ENDBRANCH  39  40
DOCKED: ENDBRANCH  22  39
DOCKED: BRANCH  12  45
DOCKED: ATOM     45  C   UNL d   1      14.749  -9.082   6.873 -0.27 +0.00    +0.004 C 
DOCKED: ATOM     46  C   UNL d   1      15.605  -8.081   6.685 -0.21 +0.00    +0.012 C 
DOCKED: ENDBRANCH  12  45
DOCKED: BRANCH  17  47
DOCKED: ATOM     47  C   UNL d   1      16.101 -16.764   6.376 -0.34 +0.00    +0.004 C 
DOCKED: ATOM     48  C   UNL d   1      15.873 -17.005   5.083 -0.32 -0.00    +0.012 C 
DOCKED: ENDBRANCH  17  47
DOCKED: TORSDOF 12
DOCKED: TER
DOCKED: ENDMDL
________________________________________________________________________________


	BEGINNING GENETIC ALGORITHM DOCKING 28 of 100
Run: 28 Seed: 574197698 1009451773 [ Run 28 of 100 GA/GALS ]
Beginning LAMARCKIAN GENETIC ALGORITHM (LGA), with a maximum of 25000000 energy evaluations.

Final-Value: -10.805


	FINAL GENETIC ALGORITHM DOCKED STATE
	_______________________________________________


Detailed state:  trans 4.456 -2.548 -13.086 quatxyzw 0.050649 0.451597 0.028623 0.890323 center 8.781 34.984 -0.736 ntor 12 47.4887 -174.5397 80.2919 -100.9869 52.7539 57.1506 -137.8910 102.9949 91.9176 -65.7662 -162.7147 19.7677
State:	  4.456  -2.548 -13.086   0.111  0.992  0.063 54.172     47.49 -174.54   80.29 -100.99   52.75   57.15 -137.89  102.99   91.92  -65.77 -162.71   19.77

DOCKED: MODEL       28
DOCKED: USER    Run = 28
DOCKED: USER    DPF = D:/Protein_go_brrr/autodock/final/1A3N/heme_Co/dock.dpf
DOCKED: USER  
DOCKED: USER    Estimated Free Energy of Binding    =   -6.28 kcal/mol  [=(1)+(2)+(3)-(4)]
DOCKED: USER    Estimated Inhibition Constant, Ki   =   24.76 uM (micromolar)  [Temperature = 298.15 K]
DOCKED: USER    
DOCKED: USER    (1) Final Intermolecular Energy     =   -9.86 kcal/mol
DOCKED: USER        vdW + Hbond + desolv Energy     =   -8.29 kcal/mol
DOCKED: USER        Electrostatic Energy            =   -1.58 kcal/mol
DOCKED: USER    (2) Final Total Internal Energy     =   -0.94 kcal/mol
DOCKED: USER    (3) Torsional Free Energy           =   +3.58 kcal/mol
DOCKED: USER    (4) Unbound System's Energy  [=(2)] =   -0.94 kcal/mol
DOCKED: USER    
DOCKED: USER    
DOCKED: USER    NEWDPF move heme_Co_opt.pdbqt
DOCKED: USER    NEWDPF about 8.781000 34.984000 -0.736000
DOCKED: USER    NEWDPF tran0 4.456277 -2.548438 -13.086465
DOCKED: USER    NEWDPF quaternion0 0.050649 0.451597 0.028623 0.890323
DOCKED: USER    NEWDPF axisangle0 0.111236 0.991804 0.062861 54.172157
DOCKED: USER    NEWDPF quat0 0.111236 0.991804 0.062861 54.172157
DOCKED: USER    NEWDPF dihe0 47.49 -174.54 80.29 -100.99 52.75 57.15 -137.89 102.99 91.92 -65.77 -162.71 19.77 
DOCKED: USER  keepresnum = 1 
DOCKED: USER  
DOCKED: REMARK  12 active torsions:
DOCKED: REMARK  status: ('A' for Active; 'I' for Inactive)
DOCKED: REMARK    1  A    between atoms: C_6  and  C_10 
DOCKED: REMARK    2  A    between atoms: C_10  and  C_11 
DOCKED: REMARK    3  A    between atoms: C_11  and  C_12 
DOCKED: REMARK    4  A    between atoms: C_12  and  O_14 
DOCKED: REMARK    5  A    between atoms: C_17  and  C_20 
DOCKED: REMARK    6  A    between atoms: C_24  and  C_27 
DOCKED: REMARK    7  A    between atoms: C_31  and  C_34 
DOCKED: REMARK    8  A    between atoms: C_34  and  C_35 
DOCKED: REMARK    9  A    between atoms: C_35  and  C_36 
DOCKED: REMARK   10  A    between atoms: C_36  and  O_38 
DOCKED: REMARK   11  A    between atoms: FE_43  and  C_44 
DOCKED: REMARK   12  A    between atoms: C_44  and  O_45 
DOCKED: USER                              x       y       z     vdW  Elec       q    Type
DOCKED: USER                           _______ _______ _______ _____ _____    ______ ____
DOCKED: ROOT
DOCKED: ATOM      1  C   UNL d   1       4.043  -2.141 -15.179 -0.07 +0.02    +0.064 A 
DOCKED: ATOM      2  C   UNL d   1       1.537  -4.357 -11.800 -0.13 +0.03    +0.064 C 
DOCKED: ATOM      3  C   UNL d   1       5.190  -3.920  -8.751 -0.27 +0.00    +0.064 A 
DOCKED: ATOM      4  C   UNL d   1       7.624  -1.315 -12.061 -0.11 +0.00    +0.064 A 
DOCKED: ATOM      5  C   UNL d   1       3.103  -2.811 -14.491 -0.05 +0.02    +0.066 A 
DOCKED: ATOM      6  C   UNL d   1       1.830  -3.077 -15.030 -0.08 -0.01    -0.021 A 
DOCKED: ATOM      7  C   UNL d   1       1.099  -3.700 -14.038 -0.08 -0.01    -0.025 A 
DOCKED: ATOM      8  C   UNL d   1       1.962  -3.801 -12.941 -0.09 +0.02    +0.066 A 
DOCKED: ATOM      9  C   UNL d   1      -0.357  -4.185 -14.103 -0.06 +0.02    +0.051 C 
DOCKED: ATOM     10  C   UNL d   1       2.360  -4.528 -10.629 -0.13 +0.02    +0.066 A 
DOCKED: ATOM     11  C   UNL d   1       2.018  -5.227  -9.451 -0.22 -0.01    -0.021 A 
DOCKED: ATOM     12  C   UNL d   1       3.102  -5.087  -8.581 -0.26 +0.00    +0.000 A 
DOCKED: ATOM     13  C   UNL d   1       4.029  -4.326  -9.295 -0.20 +0.01    +0.070 A 
DOCKED: ATOM     14  C   UNL d   1       0.773  -6.047  -9.230 -0.07 +0.06    +0.052 C 
DOCKED: ATOM     15  C   UNL d   1       6.233  -3.091  -9.323 -0.25 -0.00    +0.066 A 
DOCKED: ATOM     16  C   UNL d   1       7.341  -2.587  -8.657 -0.38 +0.00    -0.021 A 
DOCKED: ATOM     17  C   UNL d   1       8.045  -1.833  -9.607 -0.32 -0.00    +0.000 A 
DOCKED: ATOM     18  C   UNL d   1       7.316  -1.951 -10.786 -0.18 -0.00    +0.070 A 
DOCKED: ATOM     19  C   UNL d   1       7.675  -2.829  -7.202 -0.25 -0.00    +0.052 C 
DOCKED: ATOM     20  C   UNL d   1       6.885  -1.345 -13.197 -0.08 +0.01    +0.066 A 
DOCKED: ATOM     21  C   UNL d   1       7.267  -0.664 -14.350 -0.08 -0.00    -0.025 A 
DOCKED: ATOM     22  C   UNL d   1       6.268  -0.907 -15.275 -0.09 -0.00    -0.021 A 
DOCKED: ATOM     23  C   UNL d   1       5.313  -1.722 -14.631 -0.09 +0.01    +0.066 A 
DOCKED: ATOM     24  C   UNL d   1       8.512   0.194 -14.556 -0.07 +0.00    +0.051 C 
DOCKED: ATOM     25  N   UNL d   1       3.213  -3.264 -13.196 -0.05 -0.06    -0.248 N 
DOCKED: ATOM     26  N   UNL d   1       3.602  -4.037 -10.553 -0.07 -0.04    -0.248 N 
DOCKED: ATOM     27  N   UNL d   1       6.228  -2.682 -10.572 -0.10 +0.01    -0.248 N 
DOCKED: ATOM     28  N   UNL d   1       5.681  -1.987 -13.372 -0.05 -0.03    -0.248 N 
DOCKED: ATOM     29 FE   UNL d   1       4.812  -2.954 -11.809 -0.03 +0.00    +0.000 Fe
DOCKED: ENDROOT
DOCKED: BRANCH   6  30
DOCKED: ATOM     30  C   UNL d   1       1.324  -2.672 -16.411 -0.08 +0.02    +0.052 C 
DOCKED: BRANCH  30  31
DOCKED: ATOM     31  C   UNL d   1       0.923  -1.197 -16.425 -0.12 +0.07    +0.115 C 
DOCKED: BRANCH  31  32
DOCKED: ATOM     32  C   UNL d   1      -0.530  -0.990 -16.055 -0.17 +0.15    +0.139 C 
DOCKED: ATOM     33  O   UNL d   1      -0.829  -0.778 -14.890 -0.21 -0.76    -0.650 OA
DOCKED: BRANCH  32  34
DOCKED: ATOM     34  O   UNL d   1      -1.513  -0.985 -16.985 -0.56 -1.04    -0.776 OA
DOCKED: ATOM     35  H   UNL d   1      -1.575  -1.616 -17.715 +0.02 +0.12    +0.167 HD
DOCKED: ENDBRANCH  32  34
DOCKED: ENDBRANCH  31  32
DOCKED: ENDBRANCH  30  31
DOCKED: ENDBRANCH   6  30
DOCKED: BRANCH  29  36
DOCKED: ATOM     36  C   UNL d   1       3.826  -1.194 -11.239 -0.33 +0.01    +0.190 C 
DOCKED: BRANCH  36  37
DOCKED: ATOM     37  O   UNL d   1       3.807   0.189 -11.445 -0.84 -0.05    -0.399 OA
DOCKED: ATOM     38  H   UNL d   1       3.429   0.306 -12.361 -0.48 -0.00    +0.209 HD
DOCKED: ENDBRANCH  36  37
DOCKED: ENDBRANCH  29  36
DOCKED: BRANCH  22  39
DOCKED: ATOM     39  C   UNL d   1       6.209  -0.332 -16.678 -0.07 +0.01    +0.052 C 
DOCKED: BRANCH  39  40
DOCKED: ATOM     40  C   UNL d   1       6.173  -1.457 -17.725 -0.02 +0.01    +0.115 C 
DOCKED: BRANCH  40  41
DOCKED: ATOM     41  C   UNL d   1       4.838  -1.621 -18.421 -0.01 +0.02    +0.139 C 
DOCKED: ATOM     42  O   UNL d   1       4.234  -2.679 -18.315 +0.01 -0.10    -0.650 OA
DOCKED: BRANCH  41  43
DOCKED: ATOM     43  O   UNL d   1       4.253  -0.600 -19.085 +0.02 -0.12    -0.776 OA
DOCKED: ATOM     44  H   UNL d   1       4.447  -0.404 -20.010 +0.01 +0.02    +0.167 HD
DOCKED: ENDBRANCH  41  43
DOCKED: ENDBRANCH  40  41
DOCKED: ENDBRANCH  39  40
DOCKED: ENDBRANCH  22  39
DOCKED: BRANCH  12  45
DOCKED: ATOM     45  C   UNL d   1       3.376  -5.597  -7.172 -0.34 +0.00    +0.004 C 
DOCKED: ATOM     46  C   UNL d   1       3.441  -4.947  -6.013 -0.44 +0.00    +0.012 C 
DOCKED: ENDBRANCH  12  45
DOCKED: BRANCH  17  47
DOCKED: ATOM     47  C   UNL d   1       9.280  -1.009  -9.447 -0.37 +0.00    +0.004 C 
DOCKED: ATOM     48  C   UNL d   1      10.248  -1.295  -8.571 -0.42 +0.00    +0.012 C 
DOCKED: ENDBRANCH  17  47
DOCKED: TORSDOF 12
DOCKED: TER
DOCKED: ENDMDL
________________________________________________________________________________


	BEGINNING GENETIC ALGORITHM DOCKING 29 of 100
Run: 29 Seed: 823840083 2049145906 [ Run 29 of 100 GA/GALS ]
Beginning LAMARCKIAN GENETIC ALGORITHM (LGA), with a maximum of 25000000 energy evaluations.

Final-Value: -10.779


	FINAL GENETIC ALGORITHM DOCKED STATE
	_______________________________________________


Detailed state:  trans 17.231 -23.425 17.187 quatxyzw 0.756273 -0.458814 -0.299838 0.357265 center 8.781 34.984 -0.736 ntor 12 52.2380 82.9642 -132.6024 99.2470 134.8738 120.2931 36.5676 116.5805 170.2531 135.4697 -164.4930 -180.0000
State:	 17.231 -23.425  17.187   0.810 -0.491 -0.321 138.135     52.24   82.96 -132.60   99.25  134.87  120.29   36.57  116.58  170.25  135.47 -164.49 -180.00

DOCKED: MODEL       29
DOCKED: USER    Run = 29
DOCKED: USER    DPF = D:/Protein_go_brrr/autodock/final/1A3N/heme_Co/dock.dpf
DOCKED: USER  
DOCKED: USER    Estimated Free Energy of Binding    =   -3.47 kcal/mol  [=(1)+(2)+(3)-(4)]
DOCKED: USER    Estimated Inhibition Constant, Ki   =    2.85 mM (millimolar)  [Temperature = 298.15 K]
DOCKED: USER    
DOCKED: USER    (1) Final Intermolecular Energy     =   -7.05 kcal/mol
DOCKED: USER        vdW + Hbond + desolv Energy     =   -5.84 kcal/mol
DOCKED: USER        Electrostatic Energy            =   -1.21 kcal/mol
DOCKED: USER    (2) Final Total Internal Energy     =   -3.73 kcal/mol
DOCKED: USER    (3) Torsional Free Energy           =   +3.58 kcal/mol
DOCKED: USER    (4) Unbound System's Energy  [=(2)] =   -3.73 kcal/mol
DOCKED: USER    
DOCKED: USER    
DOCKED: USER    NEWDPF move heme_Co_opt.pdbqt
DOCKED: USER    NEWDPF about 8.781000 34.984000 -0.736000
DOCKED: USER    NEWDPF tran0 17.231347 -23.424821 17.186721
DOCKED: USER    NEWDPF quaternion0 0.756273 -0.458814 -0.299838 0.357265
DOCKED: USER    NEWDPF axisangle0 0.809711 -0.491234 -0.321025 138.135407
DOCKED: USER    NEWDPF quat0 0.809711 -0.491234 -0.321025 138.135407
DOCKED: USER    NEWDPF dihe0 52.24 82.96 -132.60 99.25 134.87 120.29 36.57 116.58 170.25 135.47 -164.49 -180.00 
DOCKED: USER  keepresnum = 1 
DOCKED: USER  
DOCKED: REMARK  12 active torsions:
DOCKED: REMARK  status: ('A' for Active; 'I' for Inactive)
DOCKED: REMARK    1  A    between atoms: C_6  and  C_10 
DOCKED: REMARK    2  A    between atoms: C_10  and  C_11 
DOCKED: REMARK    3  A    between atoms: C_11  and  C_12 
DOCKED: REMARK    4  A    between atoms: C_12  and  O_14 
DOCKED: REMARK    5  A    between atoms: C_17  and  C_20 
DOCKED: REMARK    6  A    between atoms: C_24  and  C_27 
DOCKED: REMARK    7  A    between atoms: C_31  and  C_34 
DOCKED: REMARK    8  A    between atoms: C_34  and  C_35 
DOCKED: REMARK    9  A    between atoms: C_35  and  C_36 
DOCKED: REMARK   10  A    between atoms: C_36  and  O_38 
DOCKED: REMARK   11  A    between atoms: FE_43  and  C_44 
DOCKED: REMARK   12  A    between atoms: C_44  and  O_45 
DOCKED: USER                              x       y       z     vdW  Elec       q    Type
DOCKED: USER                           _______ _______ _______ _____ _____    ______ ____
DOCKED: ROOT
DOCKED: ATOM      1  C   UNL d   1      16.113 -23.351  19.046 -0.17 +0.00    +0.064 A 
DOCKED: ATOM      2  C   UNL d   1      18.562 -20.048  16.658 -0.30 +0.00    +0.064 C 
DOCKED: ATOM      3  C   UNL d   1      20.004 -23.340  13.510 -0.01 -0.05    +0.064 A 
DOCKED: ATOM      4  C   UNL d   1      17.200 -26.652  15.708 -0.04 -0.01    +0.064 A 
DOCKED: ATOM      5  C   UNL d   1      16.705 -22.214  18.646 -0.20 +0.00    +0.066 A 
DOCKED: ATOM      6  C   UNL d   1      16.468 -20.982  19.286 -0.37 -0.01    -0.021 A 
DOCKED: ATOM      7  C   UNL d   1      17.163 -20.024  18.575 -0.39 -0.01    -0.025 A 
DOCKED: ATOM      8  C   UNL d   1      17.807 -20.713  17.542 -0.27 +0.01    +0.066 A 
DOCKED: ATOM      9  C   UNL d   1      17.227 -18.512  18.845 -0.32 +0.03    +0.051 C 
DOCKED: ATOM     10  C   UNL d   1      19.283 -20.676  15.579 -0.24 -0.01    +0.066 A 
DOCKED: ATOM     11  C   UNL d   1      20.201 -20.055  14.705 -0.28 +0.00    -0.021 A 
DOCKED: ATOM     12  C   UNL d   1      20.609 -21.038  13.800 -0.32 -0.00    +0.000 A 
DOCKED: ATOM     13  C   UNL d   1      19.922 -22.186  14.195 -0.14 -0.04    +0.070 A 
DOCKED: ATOM     14  C   UNL d   1      20.713 -18.641  14.806 -0.33 +0.00    +0.052 C 
DOCKED: ATOM     15  C   UNL d   1      19.326 -24.600  13.745 -0.11 -0.04    +0.066 A 
DOCKED: ATOM     16  C   UNL d   1      19.342 -25.711  12.914 -0.07 +0.01    -0.021 A 
DOCKED: ATOM     17  C   UNL d   1      18.533 -26.668  13.543 -0.04 -0.00    +0.000 A 
DOCKED: ATOM     18  C   UNL d   1      18.099 -26.069  14.720 -0.06 -0.02    +0.070 A 
DOCKED: ATOM     19  C   UNL d   1      20.095 -25.817  11.606 -0.06 -0.01    +0.052 C 
DOCKED: ATOM     20  C   UNL d   1      16.696 -26.058  16.816 -0.05 -0.01    +0.066 A 
DOCKED: ATOM     21  C   UNL d   1      15.811 -26.710  17.672 -0.03 +0.00    -0.025 A 
DOCKED: ATOM     22  C   UNL d   1      15.503 -25.793  18.660 -0.04 +0.00    -0.021 A 
DOCKED: ATOM     23  C   UNL d   1      16.211 -24.613  18.348 -0.10 -0.00    +0.066 A 
DOCKED: ATOM     24  C   UNL d   1      15.269 -28.132  17.545 -0.01 -0.00    +0.051 C 
DOCKED: ATOM     25  N   UNL d   1      17.546 -22.073  17.566 -0.07 +0.02    -0.248 N 
DOCKED: ATOM     26  N   UNL d   1      19.164 -21.979  15.305 -0.17 +0.08    -0.248 N 
DOCKED: ATOM     27  N   UNL d   1      18.566 -24.827  14.793 -0.10 +0.09    -0.248 N 
DOCKED: ATOM     28  N   UNL d   1      16.933 -24.769  17.232 -0.07 +0.04    -0.248 N 
DOCKED: ATOM     29 FE   UNL d   1      18.085 -23.534  16.099 -0.04 -0.00    +0.000 Fe
DOCKED: ENDROOT
DOCKED: BRANCH   6  30
DOCKED: ATOM     30  C   UNL d   1      15.546 -20.738  20.477 -0.26 +0.03    +0.052 C 
DOCKED: BRANCH  30  31
DOCKED: ATOM     31  C   UNL d   1      14.092 -20.639  20.019 -0.13 +0.08    +0.115 C 
DOCKED: BRANCH  31  32
DOCKED: ATOM     32  C   UNL d   1      13.966 -20.524  18.515 -0.12 +0.12    +0.139 C 
DOCKED: ATOM     33  O   UNL d   1      13.909 -19.417  18.000 -0.18 -1.02    -0.650 OA
DOCKED: BRANCH  32  34
DOCKED: ATOM     34  O   UNL d   1      13.964 -21.611  17.709 +0.05 -0.36    -0.776 OA
DOCKED: ATOM     35  H   UNL d   1      13.422 -22.398  17.860 +0.02 +0.06    +0.167 HD
DOCKED: ENDBRANCH  32  34
DOCKED: ENDBRANCH  31  32
DOCKED: ENDBRANCH  30  31
DOCKED: ENDBRANCH   6  30
DOCKED: BRANCH  29  36
DOCKED: ATOM     36  C   UNL d   1      16.398 -22.911  15.022 -0.03 +0.00    +0.190 C 
DOCKED: BRANCH  36  37
DOCKED: ATOM     37  O   UNL d   1      15.089 -22.440  15.175 +0.01 -0.06    -0.399 OA
DOCKED: ATOM     38  H   UNL d   1      14.767 -22.851  16.025 +0.02 +0.03    +0.209 HD
DOCKED: ENDBRANCH  36  37
DOCKED: ENDBRANCH  29  36
DOCKED: BRANCH  22  39
DOCKED: ATOM     39  C   UNL d   1      14.529 -26.022  19.800 -0.03 +0.00    +0.052 C 
DOCKED: BRANCH  39  40
DOCKED: ATOM     40  C   UNL d   1      13.078 -25.867  19.315 -0.00 +0.01    +0.115 C 
DOCKED: BRANCH  40  41
DOCKED: ATOM     41  C   UNL d   1      12.812 -24.596  18.536 -0.00 +0.02    +0.139 C 
DOCKED: ATOM     42  O   UNL d   1      12.197 -23.685  19.071 +0.02 -0.14    -0.650 OA
DOCKED: BRANCH  41  43
DOCKED: ATOM     43  O   UNL d   1      13.311 -24.407  17.295 +0.02 -0.10    -0.776 OA
DOCKED: ATOM     44  H   UNL d   1      13.834 -23.629  17.058 +0.01 +0.03    +0.167 HD
DOCKED: ENDBRANCH  41  43
DOCKED: ENDBRANCH  40  41
DOCKED: ENDBRANCH  39  40
DOCKED: ENDBRANCH  22  39
DOCKED: BRANCH  12  45
DOCKED: ATOM     45  C   UNL d   1      21.578 -21.031  12.625 -0.31 -0.00    +0.004 C 
DOCKED: ATOM     46  C   UNL d   1      22.881 -21.297  12.575 -0.53 -0.00    +0.012 C 
DOCKED: ENDBRANCH  12  45
DOCKED: BRANCH  17  47
DOCKED: ATOM     47  C   UNL d   1      18.133 -28.031  13.081 -0.01 -0.00    +0.004 C 
DOCKED: ATOM     48  C   UNL d   1      18.525 -29.157  13.681 -0.01 -0.00    +0.012 C 
DOCKED: ENDBRANCH  17  47
DOCKED: TORSDOF 12
DOCKED: TER
DOCKED: ENDMDL
________________________________________________________________________________


	BEGINNING GENETIC ALGORITHM DOCKING 30 of 100
Run: 30 Seed: 956492320 139432651 [ Run 30 of 100 GA/GALS ]
Beginning LAMARCKIAN GENETIC ALGORITHM (LGA), with a maximum of 25000000 energy evaluations.

Final-Value: -11.011


	FINAL GENETIC ALGORITHM DOCKED STATE
	_______________________________________________


Detailed state:  trans -10.265 14.586 30.191 quatxyzw -0.273346 0.473879 0.800715 0.244082 center 8.781 34.984 -0.736 ntor 12 138.8747 130.4531 92.0508 117.1469 138.1072 129.3779 -104.6296 -43.2063 -124.6768 174.8025 163.4195 -177.5819
State:	-10.265  14.586  30.191  -0.282  0.489  0.826 151.745    138.87  130.45   92.05  117.15  138.11  129.38 -104.63  -43.21 -124.68  174.80  163.42 -177.58

DOCKED: MODEL       30
DOCKED: USER    Run = 30
DOCKED: USER    DPF = D:/Protein_go_brrr/autodock/final/1A3N/heme_Co/dock.dpf
DOCKED: USER  
DOCKED: USER    Estimated Free Energy of Binding    =   -5.58 kcal/mol  [=(1)+(2)+(3)-(4)]
DOCKED: USER    Estimated Inhibition Constant, Ki   =   81.69 uM (micromolar)  [Temperature = 298.15 K]
DOCKED: USER    
DOCKED: USER    (1) Final Intermolecular Energy     =   -9.16 kcal/mol
DOCKED: USER        vdW + Hbond + desolv Energy     =   -6.35 kcal/mol
DOCKED: USER        Electrostatic Energy            =   -2.81 kcal/mol
DOCKED: USER    (2) Final Total Internal Energy     =   -1.86 kcal/mol
DOCKED: USER    (3) Torsional Free Energy           =   +3.58 kcal/mol
DOCKED: USER    (4) Unbound System's Energy  [=(2)] =   -1.86 kcal/mol
DOCKED: USER    
DOCKED: USER    
DOCKED: USER    NEWDPF move heme_Co_opt.pdbqt
DOCKED: USER    NEWDPF about 8.781000 34.984000 -0.736000
DOCKED: USER    NEWDPF tran0 -10.265314 14.585536 30.191321
DOCKED: USER    NEWDPF quaternion0 -0.273346 0.473879 0.800715 0.244082
DOCKED: USER    NEWDPF axisangle0 -0.281871 0.488659 0.825688 151.744869
DOCKED: USER    NEWDPF quat0 -0.281871 0.488659 0.825688 151.744869
DOCKED: USER    NEWDPF dihe0 138.87 130.45 92.05 117.15 138.11 129.38 -104.63 -43.21 -124.68 174.80 163.42 -177.58 
DOCKED: USER  keepresnum = 1 
DOCKED: USER  
DOCKED: REMARK  12 active torsions:
DOCKED: REMARK  status: ('A' for Active; 'I' for Inactive)
DOCKED: REMARK    1  A    between atoms: C_6  and  C_10 
DOCKED: REMARK    2  A    between atoms: C_10  and  C_11 
DOCKED: REMARK    3  A    between atoms: C_11  and  C_12 
DOCKED: REMARK    4  A    between atoms: C_12  and  O_14 
DOCKED: REMARK    5  A    between atoms: C_17  and  C_20 
DOCKED: REMARK    6  A    between atoms: C_24  and  C_27 
DOCKED: REMARK    7  A    between atoms: C_31  and  C_34 
DOCKED: REMARK    8  A    between atoms: C_34  and  C_35 
DOCKED: REMARK    9  A    between atoms: C_35  and  C_36 
DOCKED: REMARK   10  A    between atoms: C_36  and  O_38 
DOCKED: REMARK   11  A    between atoms: FE_43  and  C_44 
DOCKED: REMARK   12  A    between atoms: C_44  and  O_45 
DOCKED: USER                              x       y       z     vdW  Elec       q    Type
DOCKED: USER                           _______ _______ _______ _____ _____    ______ ____
DOCKED: ROOT
DOCKED: ATOM      1  C   UNL d   1      -8.216  15.096  30.695 -0.26 +0.03    +0.064 A 
DOCKED: ATOM      2  C   UNL d   1     -11.986  17.762  29.561 -0.16 -0.01    +0.064 C 
DOCKED: ATOM      3  C   UNL d   1     -14.556  13.828  28.699 -0.10 -0.03    +0.064 A 
DOCKED: ATOM      4  C   UNL d   1     -10.841  11.083  30.223 -0.12 -0.01    +0.064 A 
DOCKED: ATOM      5  C   UNL d   1      -9.046  16.114  30.413 -0.21 +0.01    +0.066 A 
DOCKED: ATOM      6  C   UNL d   1      -8.675  17.458  30.613 -0.18 -0.00    -0.021 A 
DOCKED: ATOM      7  C   UNL d   1      -9.781  18.226  30.304 -0.13 +0.00    -0.025 A 
DOCKED: ATOM      8  C   UNL d   1     -10.772  17.320  29.914 -0.12 -0.01    +0.066 A 
DOCKED: ATOM      9  C   UNL d   1      -9.914  19.755  30.370 -0.12 +0.00    +0.051 C 
DOCKED: ATOM     10  C   UNL d   1     -13.060  16.908  29.120 -0.14 -0.01    +0.066 A 
DOCKED: ATOM     11  C   UNL d   1     -14.308  17.319  28.603 -0.11 +0.00    -0.021 A 
DOCKED: ATOM     12  C   UNL d   1     -15.036  16.152  28.357 -0.10 -0.00    +0.000 A 
DOCKED: ATOM     13  C   UNL d   1     -14.176  15.117  28.728 -0.11 -0.02    +0.070 A 
DOCKED: ATOM     14  C   UNL d   1     -14.719  18.734  28.285 -0.10 -0.00    +0.052 C 
DOCKED: ATOM     15  C   UNL d   1     -13.820  12.643  29.094 -0.10 -0.04    +0.066 A 
DOCKED: ATOM     16  C   UNL d   1     -14.322  11.352  29.177 -0.08 +0.01    -0.021 A 
DOCKED: ATOM     17  C   UNL d   1     -13.254  10.557  29.618 -0.10 -0.00    +0.000 A 
DOCKED: ATOM     18  C   UNL d   1     -12.177  11.426  29.754 -0.10 -0.04    +0.070 A 
DOCKED: ATOM     19  C   UNL d   1     -15.739  10.939  28.848 -0.03 -0.01    +0.052 C 
DOCKED: ATOM     20  C   UNL d   1      -9.803  11.925  30.446 -0.09 +0.00    +0.066 A 
DOCKED: ATOM     21  C   UNL d   1      -8.576  11.480  30.933 -0.29 -0.01    -0.025 A 
DOCKED: ATOM     22  C   UNL d   1      -7.790  12.611  31.051 -0.30 -0.01    -0.021 A 
DOCKED: ATOM     23  C   UNL d   1      -8.587  13.700  30.639 -0.18 +0.02    +0.066 A 
DOCKED: ATOM     24  C   UNL d   1      -8.178  10.050  31.287 -0.23 +0.04    +0.051 C 
DOCKED: ATOM     25  N   UNL d   1     -10.343  16.005  29.966 -0.10 +0.01    -0.248 N 
DOCKED: ATOM     26  N   UNL d   1     -12.962  15.574  29.136 -0.09 +0.07    -0.248 N 
DOCKED: ATOM     27  N   UNL d   1     -12.559  12.665  29.463 -0.05 +0.19    -0.248 N 
DOCKED: ATOM     28  N   UNL d   1      -9.807  13.289  30.274 -0.11 +0.00    -0.248 N 
DOCKED: ATOM     29 FE   UNL d   1     -11.514  14.234  29.700 -0.04 -0.00    +0.000 Fe
DOCKED: ENDROOT
DOCKED: BRANCH   6  30
DOCKED: ATOM     30  C   UNL d   1      -7.342  17.963  31.156 -0.19 +0.02    +0.052 C 
DOCKED: BRANCH  30  31
DOCKED: ATOM     31  C   UNL d   1      -7.530  18.601  32.532 -0.09 +0.07    +0.115 C 
DOCKED: BRANCH  31  32
DOCKED: ATOM     32  C   UNL d   1      -8.238  17.681  33.503 -0.00 +0.15    +0.139 C 
DOCKED: ATOM     33  O   UNL d   1      -7.720  17.433  34.582 -0.38 -1.20    -0.650 OA
DOCKED: BRANCH  32  34
DOCKED: ATOM     34  O   UNL d   1      -9.457  17.157  33.237 +0.01 -0.44    -0.776 OA
DOCKED: ATOM     35  H   UNL d   1      -9.693  16.230  33.380 +0.02 +0.10    +0.167 HD
DOCKED: ENDBRANCH  32  34
DOCKED: ENDBRANCH  31  32
DOCKED: ENDBRANCH  30  31
DOCKED: ENDBRANCH   6  30
DOCKED: BRANCH  29  36
DOCKED: ATOM     36  C   UNL d   1     -12.094  14.452  31.703 -0.01 +0.01    +0.190 C 
DOCKED: BRANCH  36  37
DOCKED: ATOM     37  O   UNL d   1     -11.690  14.995  32.927 +0.01 -0.08    -0.399 OA
DOCKED: ATOM     38  H   UNL d   1     -10.976  15.652  32.693 +0.03 +0.06    +0.209 HD
DOCKED: ENDBRANCH  36  37
DOCKED: ENDBRANCH  29  36
DOCKED: BRANCH  22  39
DOCKED: ATOM     39  C   UNL d   1      -6.373  12.645  31.593 -0.50 +0.04    +0.052 C 
DOCKED: BRANCH  39  40
DOCKED: ATOM     40  C   UNL d   1      -6.376  12.524  33.126 -0.27 +0.14    +0.115 C 
DOCKED: BRANCH  40  41
DOCKED: ATOM     41  C   UNL d   1      -7.744  12.660  33.761 -0.20 +0.18    +0.139 C 
DOCKED: ATOM     42  O   UNL d   1      -8.389  11.652  34.012 -0.35 -1.08    -0.650 OA
DOCKED: BRANCH  41  43
DOCKED: ATOM     43  O   UNL d   1      -8.235  13.860  34.140 -0.31 -1.12    -0.776 OA
DOCKED: ATOM     44  H   UNL d   1      -8.854  14.363  33.594 +0.03 +0.18    +0.167 HD
DOCKED: ENDBRANCH  41  43
DOCKED: ENDBRANCH  40  41
DOCKED: ENDBRANCH  39  40
DOCKED: ENDBRANCH  22  39
DOCKED: BRANCH  12  45
DOCKED: ATOM     45  C   UNL d   1     -16.429  15.895  27.799 -0.07 -0.00    +0.004 C 
DOCKED: ATOM     46  C   UNL d   1     -16.815  15.393  26.628 -0.08 -0.00    +0.012 C 
DOCKED: ENDBRANCH  12  45
DOCKED: BRANCH  17  47
DOCKED: ATOM     47  C   UNL d   1     -13.222   9.100  29.948 -0.06 -0.00    +0.004 C 
DOCKED: ATOM     48  C   UNL d   1     -12.485   8.209  29.280 -0.09 -0.00    +0.012 C 
DOCKED: ENDBRANCH  17  47
DOCKED: TORSDOF 12
DOCKED: TER
DOCKED: ENDMDL
________________________________________________________________________________


	BEGINNING GENETIC ALGORITHM DOCKING 31 of 100
Run: 31 Seed: 1944500241 364704765 [ Run 31 of 100 GA/GALS ]
Beginning LAMARCKIAN GENETIC ALGORITHM (LGA), with a maximum of 25000000 energy evaluations.

Final-Value: -13.208


	FINAL GENETIC ALGORITHM DOCKED STATE
	_______________________________________________


Detailed state:  trans 12.600 7.725 11.378 quatxyzw -0.862169 -0.476567 -0.118590 0.124436 center 8.781 34.984 -0.736 ntor 12 34.2031 121.7853 -29.2175 67.1965 132.3705 89.1773 169.1977 -45.6724 -63.3656 -156.6832 -163.9889 158.2167
State:	 12.600   7.725  11.378  -0.869 -0.480 -0.120 165.704     34.20  121.79  -29.22   67.20  132.37   89.18  169.20  -45.67  -63.37 -156.68 -163.99  158.22

DOCKED: MODEL       31
DOCKED: USER    Run = 31
DOCKED: USER    DPF = D:/Protein_go_brrr/autodock/final/1A3N/heme_Co/dock.dpf
DOCKED: USER  
DOCKED: USER    Estimated Free Energy of Binding    =   -6.80 kcal/mol  [=(1)+(2)+(3)-(4)]
DOCKED: USER    Estimated Inhibition Constant, Ki   =   10.34 uM (micromolar)  [Temperature = 298.15 K]
DOCKED: USER    
DOCKED: USER    (1) Final Intermolecular Energy     =  -10.38 kcal/mol
DOCKED: USER        vdW + Hbond + desolv Energy     =   -7.45 kcal/mol
DOCKED: USER        Electrostatic Energy            =   -2.93 kcal/mol
DOCKED: USER    (2) Final Total Internal Energy     =   -2.83 kcal/mol
DOCKED: USER    (3) Torsional Free Energy           =   +3.58 kcal/mol
DOCKED: USER    (4) Unbound System's Energy  [=(2)] =   -2.83 kcal/mol
DOCKED: USER    
DOCKED: USER    
DOCKED: USER    NEWDPF move heme_Co_opt.pdbqt
DOCKED: USER    NEWDPF about 8.781000 34.984000 -0.736000
DOCKED: USER    NEWDPF tran0 12.599883 7.725479 11.378109
DOCKED: USER    NEWDPF quaternion0 -0.862169 -0.476567 -0.118590 0.124436
DOCKED: USER    NEWDPF axisangle0 -0.868923 -0.480300 -0.119519 165.703577
DOCKED: USER    NEWDPF quat0 -0.868923 -0.480300 -0.119519 165.703577
DOCKED: USER    NEWDPF dihe0 34.20 121.79 -29.22 67.20 132.37 89.18 169.20 -45.67 -63.37 -156.68 -163.99 158.22 
DOCKED: USER  keepresnum = 1 
DOCKED: USER  
DOCKED: REMARK  12 active torsions:
DOCKED: REMARK  status: ('A' for Active; 'I' for Inactive)
DOCKED: REMARK    1  A    between atoms: C_6  and  C_10 
DOCKED: REMARK    2  A    between atoms: C_10  and  C_11 
DOCKED: REMARK    3  A    between atoms: C_11  and  C_12 
DOCKED: REMARK    4  A    between atoms: C_12  and  O_14 
DOCKED: REMARK    5  A    between atoms: C_17  and  C_20 
DOCKED: REMARK    6  A    between atoms: C_24  and  C_27 
DOCKED: REMARK    7  A    between atoms: C_31  and  C_34 
DOCKED: REMARK    8  A    between atoms: C_34  and  C_35 
DOCKED: REMARK    9  A    between atoms: C_35  and  C_36 
DOCKED: REMARK   10  A    between atoms: C_36  and  O_38 
DOCKED: REMARK   11  A    between atoms: FE_43  and  C_44 
DOCKED: REMARK   12  A    between atoms: C_44  and  O_45 
DOCKED: USER                              x       y       z     vdW  Elec       q    Type
DOCKED: USER                           _______ _______ _______ _____ _____    ______ ____
DOCKED: ROOT
DOCKED: ATOM      1  C   UNL d   1      11.719   5.908  12.175 -0.12 +0.02    +0.064 A 
DOCKED: ATOM      2  C   UNL d   1      11.470   7.970   7.898 -0.25 +0.00    +0.064 C 
DOCKED: ATOM      3  C   UNL d   1      13.976  11.704   9.510 -0.08 +0.01    +0.064 A 
DOCKED: ATOM      4  C   UNL d   1      14.574   9.444  13.776 -0.08 +0.03    +0.064 A 
DOCKED: ATOM      5  C   UNL d   1      11.436   6.213  10.898 -0.09 +0.01    +0.066 A 
DOCKED: ATOM      6  C   UNL d   1      10.760   5.317  10.047 -0.15 +0.00    -0.021 A 
DOCKED: ATOM      7  C   UNL d   1      10.710   5.911   8.802 -0.21 +0.01    -0.025 A 
DOCKED: ATOM      8  C   UNL d   1      11.343   7.150   8.949 -0.14 -0.00    +0.066 A 
DOCKED: ATOM      9  C   UNL d   1      10.095   5.346   7.512 -0.46 -0.03    +0.051 C 
DOCKED: ATOM     10  C   UNL d   1      12.082   9.273   7.960 -0.16 +0.01    +0.066 A 
DOCKED: ATOM     11  C   UNL d   1      12.121  10.237   6.928 -0.28 -0.00    -0.021 A 
DOCKED: ATOM     12  C   UNL d   1      12.854  11.317   7.427 -0.24 +0.00    +0.000 A 
DOCKED: ATOM     13  C   UNL d   1      13.196  10.940   8.726 -0.10 +0.01    +0.070 A 
DOCKED: ATOM     14  C   UNL d   1      11.416  10.150   5.599 -0.43 +0.01    +0.052 C 
DOCKED: ATOM     15  C   UNL d   1      14.468  11.446  10.850 -0.07 +0.01    +0.066 A 
DOCKED: ATOM     16  C   UNL d   1      15.389  12.212  11.550 -0.13 -0.00    -0.021 A 
DOCKED: ATOM     17  C   UNL d   1      15.567  11.563  12.780 -0.12 +0.00    +0.000 A 
DOCKED: ATOM     18  C   UNL d   1      14.724  10.458  12.739 -0.06 +0.02    +0.070 A 
DOCKED: ATOM     19  C   UNL d   1      16.041  13.480  11.044 -0.18 +0.00    +0.052 C 
DOCKED: ATOM     20  C   UNL d   1      13.827   8.316  13.724 -0.10 +0.04    +0.066 A 
DOCKED: ATOM     21  C   UNL d   1      13.792   7.398  14.772 -0.22 -0.01    -0.025 A 
DOCKED: ATOM     22  C   UNL d   1      12.954   6.382  14.351 -0.24 -0.01    -0.021 A 
DOCKED: ATOM     23  C   UNL d   1      12.525   6.727  13.051 -0.13 +0.03    +0.066 A 
DOCKED: ATOM     24  C   UNL d   1      14.537   7.475  16.102 -0.34 +0.02    +0.051 C 
DOCKED: ATOM     25  N   UNL d   1      11.797   7.366  10.239 -0.02 -0.04    -0.248 N 
DOCKED: ATOM     26  N   UNL d   1      12.681   9.728   9.065 -0.04 -0.04    -0.248 N 
DOCKED: ATOM     27  N   UNL d   1      14.108  10.403  11.563 -0.01 -0.06    -0.248 N 
DOCKED: ATOM     28  N   UNL d   1      13.053   7.895  12.667 -0.04 -0.12    -0.248 N 
DOCKED: ATOM     29 FE   UNL d   1      13.021   8.973  10.944 -0.02 +0.00    +0.000 Fe
DOCKED: ENDROOT
DOCKED: BRANCH   6  30
DOCKED: ATOM     30  C   UNL d   1      10.262   3.921  10.408 -0.24 -0.01    +0.052 C 
DOCKED: BRANCH  30  31
DOCKED: ATOM     31  C   UNL d   1      11.411   2.914  10.367 -0.15 -0.05    +0.115 C 
DOCKED: BRANCH  31  32
DOCKED: ATOM     32  C   UNL d   1      11.719   2.335  11.731 -0.19 +0.05    +0.139 C 
DOCKED: ATOM     33  O   UNL d   1      10.801   2.059  12.488 -0.09 -0.90    -0.650 OA
DOCKED: BRANCH  32  34
DOCKED: ATOM     34  O   UNL d   1      12.985   2.066  12.126 -0.04 -0.35    -0.776 OA
DOCKED: ATOM     35  H   UNL d   1      13.764   2.553  11.826 +0.06 +0.06    +0.167 HD
DOCKED: ENDBRANCH  32  34
DOCKED: ENDBRANCH  31  32
DOCKED: ENDBRANCH  30  31
DOCKED: ENDBRANCH   6  30
DOCKED: BRANCH  29  36
DOCKED: ATOM     36  C   UNL d   1      14.663   7.895  10.212 -0.13 +0.11    +0.190 C 
DOCKED: BRANCH  36  37
DOCKED: ATOM     37  O   UNL d   1      15.392   6.716  10.394 -0.29 -0.50    -0.399 OA
DOCKED: ATOM     38  H   UNL d   1      14.860   6.184  11.049 +0.06 +0.31    +0.209 HD
DOCKED: ENDBRANCH  36  37
DOCKED: ENDBRANCH  29  36
DOCKED: BRANCH  22  39
DOCKED: ATOM     39  C   UNL d   1      12.639   5.120  15.132 -0.24 +0.03    +0.052 C 
DOCKED: BRANCH  39  40
DOCKED: ATOM     40  C   UNL d   1      13.473   3.938  14.612 -0.26 +0.09    +0.115 C 
DOCKED: BRANCH  40  41
DOCKED: ATOM     41  C   UNL d   1      14.676   4.337  13.784 -0.11 +0.15    +0.139 C 
DOCKED: ATOM     42  O   UNL d   1      15.758   4.484  14.334 -0.20 -0.99    -0.650 OA
DOCKED: BRANCH  41  43
DOCKED: ATOM     43  O   UNL d   1      14.606   4.452  12.439 +0.03 -0.95    -0.776 OA
DOCKED: ATOM     44  H   UNL d   1      13.935   3.998  11.914 +0.06 +0.11    +0.167 HD
DOCKED: ENDBRANCH  41  43
DOCKED: ENDBRANCH  40  41
DOCKED: ENDBRANCH  39  40
DOCKED: ENDBRANCH  22  39
DOCKED: BRANCH  12  45
DOCKED: ATOM     45  C   UNL d   1      13.252  12.663   6.836 -0.34 +0.00    +0.004 C 
DOCKED: ATOM     46  C   UNL d   1      12.504  13.656   6.362 -0.37 +0.00    +0.012 C 
DOCKED: ENDBRANCH  12  45
DOCKED: BRANCH  17  47
DOCKED: ATOM     47  C   UNL d   1      16.485  11.895  13.910 -0.18 +0.00    +0.004 C 
DOCKED: ATOM     48  C   UNL d   1      16.064  12.345  15.094 -0.30 +0.00    +0.012 C 
DOCKED: ENDBRANCH  17  47
DOCKED: TORSDOF 12
DOCKED: TER
DOCKED: ENDMDL
________________________________________________________________________________


	BEGINNING GENETIC ALGORITHM DOCKING 32 of 100
Run: 32 Seed: 1399074563 910731726 [ Run 32 of 100 GA/GALS ]
Beginning LAMARCKIAN GENETIC ALGORITHM (LGA), with a maximum of 25000000 energy evaluations.

Final-Value: -19.184


	FINAL GENETIC ALGORITHM DOCKED STATE
	_______________________________________________


Detailed state:  trans 8.147 12.067 28.120 quatxyzw -0.746957 0.370684 0.544981 0.087429 center 8.781 34.984 -0.736 ntor 12 119.1524 95.2753 -49.0307 103.1481 -89.4808 -10.8885 165.5352 -179.4980 -37.6080 14.5543 -161.2153 -179.5514
State:	  8.147  12.067  28.120  -0.750  0.372  0.547 169.969    119.15   95.28  -49.03  103.15  -89.48  -10.89  165.54 -179.50  -37.61   14.55 -161.22 -179.55

DOCKED: MODEL       32
DOCKED: USER    Run = 32
DOCKED: USER    DPF = D:/Protein_go_brrr/autodock/final/1A3N/heme_Co/dock.dpf
DOCKED: USER  
DOCKED: USER    Estimated Free Energy of Binding    =  -13.89 kcal/mol  [=(1)+(2)+(3)-(4)]
DOCKED: USER    Estimated Inhibition Constant, Ki   =   65.62 pM (picomolar)  [Temperature = 298.15 K]
DOCKED: USER    
DOCKED: USER    (1) Final Intermolecular Energy     =  -17.47 kcal/mol
DOCKED: USER        vdW + Hbond + desolv Energy     =  -15.25 kcal/mol
DOCKED: USER        Electrostatic Energy            =   -2.22 kcal/mol
DOCKED: USER    (2) Final Total Internal Energy     =   -1.71 kcal/mol
DOCKED: USER    (3) Torsional Free Energy           =   +3.58 kcal/mol
DOCKED: USER    (4) Unbound System's Energy  [=(2)] =   -1.71 kcal/mol
DOCKED: USER    
DOCKED: USER    
DOCKED: USER    NEWDPF move heme_Co_opt.pdbqt
DOCKED: USER    NEWDPF about 8.781000 34.984000 -0.736000
DOCKED: USER    NEWDPF tran0 8.146539 12.067484 28.119770
DOCKED: USER    NEWDPF quaternion0 -0.746957 0.370684 0.544981 0.087429
DOCKED: USER    NEWDPF axisangle0 -0.749828 0.372109 0.547076 169.968569
DOCKED: USER    NEWDPF quat0 -0.749828 0.372109 0.547076 169.968569
DOCKED: USER    NEWDPF dihe0 119.15 95.28 -49.03 103.15 -89.48 -10.89 165.54 -179.50 -37.61 14.55 -161.22 -179.55 
DOCKED: USER  keepresnum = 1 
DOCKED: USER  
DOCKED: REMARK  12 active torsions:
DOCKED: REMARK  status: ('A' for Active; 'I' for Inactive)
DOCKED: REMARK    1  A    between atoms: C_6  and  C_10 
DOCKED: REMARK    2  A    between atoms: C_10  and  C_11 
DOCKED: REMARK    3  A    between atoms: C_11  and  C_12 
DOCKED: REMARK    4  A    between atoms: C_12  and  O_14 
DOCKED: REMARK    5  A    between atoms: C_17  and  C_20 
DOCKED: REMARK    6  A    between atoms: C_24  and  C_27 
DOCKED: REMARK    7  A    between atoms: C_31  and  C_34 
DOCKED: REMARK    8  A    between atoms: C_34  and  C_35 
DOCKED: REMARK    9  A    between atoms: C_35  and  C_36 
DOCKED: REMARK   10  A    between atoms: C_36  and  O_38 
DOCKED: REMARK   11  A    between atoms: FE_43  and  C_44 
DOCKED: REMARK   12  A    between atoms: C_44  and  O_45 
DOCKED: USER                              x       y       z     vdW  Elec       q    Type
DOCKED: USER                           _______ _______ _______ _____ _____    ______ ____
DOCKED: ROOT
DOCKED: ATOM      1  C   UNL d   1       8.411  12.737  30.169 -0.24 +0.02    +0.064 A 
DOCKED: ATOM      2  C   UNL d   1       6.513  14.829  26.344 -0.47 +0.01    +0.064 C 
DOCKED: ATOM      3  C   UNL d   1       7.803  11.117  23.626 -0.28 +0.00    +0.064 A 
DOCKED: ATOM      4  C   UNL d   1       9.404   8.791  27.587 -0.37 +0.01    +0.064 A 
DOCKED: ATOM      5  C   UNL d   1       7.830  13.597  29.316 -0.25 +0.01    +0.066 A 
DOCKED: ATOM      6  C   UNL d   1       7.245  14.802  29.753 -0.36 -0.01    -0.021 A 
DOCKED: ATOM      7  C   UNL d   1       6.675  15.394  28.643 -0.43 -0.00    -0.025 A 
DOCKED: ATOM      8  C   UNL d   1       6.952  14.534  27.574 -0.38 +0.01    +0.066 A 
DOCKED: ATOM      9  C   UNL d   1       5.898  16.717  28.575 -0.49 +0.01    +0.051 C 
DOCKED: ATOM     10  C   UNL d   1       6.771  14.019  25.179 -0.36 +0.00    +0.066 A 
DOCKED: ATOM     11  C   UNL d   1       6.460  14.343  23.841 -0.39 -0.00    -0.021 A 
DOCKED: ATOM     12  C   UNL d   1       6.850  13.245  23.069 -0.38 +0.00    +0.000 A 
DOCKED: ATOM     13  C   UNL d   1       7.380  12.341  23.989 -0.34 +0.00    +0.070 A 
DOCKED: ATOM     14  C   UNL d   1       5.915  15.658  23.344 -0.53 +0.00    +0.052 C 
DOCKED: ATOM     15  C   UNL d   1       8.327  10.043  24.448 -0.38 +0.00    +0.066 A 
DOCKED: ATOM     16  C   UNL d   1       8.609   8.751  24.030 -0.55 -0.00    -0.021 A 
DOCKED: ATOM     17  C   UNL d   1       9.069   8.075  25.170 -0.50 +0.00    +0.000 A 
DOCKED: ATOM     18  C   UNL d   1       9.047   9.018  26.192 -0.38 +0.01    +0.070 A 
DOCKED: ATOM     19  C   UNL d   1       8.438   8.226  22.622 -0.22 +0.00    +0.052 C 
DOCKED: ATOM     20  C   UNL d   1       9.308   9.667  28.616 -0.39 +0.01    +0.066 A 
DOCKED: ATOM     21  C   UNL d   1       9.648   9.320  29.921 -0.44 -0.01    -0.025 A 
DOCKED: ATOM     22  C   UNL d   1       9.400  10.447  30.683 -0.33 -0.01    -0.021 A 
DOCKED: ATOM     23  C   UNL d   1       8.905  11.430  29.799 -0.31 +0.01    +0.066 A 
DOCKED: ATOM     24  C   UNL d   1      10.166   7.975  30.423 -0.52 +0.01    +0.051 C 
DOCKED: ATOM     25  N   UNL d   1       7.671  13.416  27.961 -0.21 -0.03    -0.248 N 
DOCKED: ATOM     26  N   UNL d   1       7.383  12.833  25.257 -0.23 -0.01    -0.248 N 
DOCKED: ATOM     27  N   UNL d   1       8.570  10.169  25.733 -0.23 -0.02    -0.248 N 
DOCKED: ATOM     28  N   UNL d   1       8.845  10.960  28.547 -0.22 -0.03    -0.248 N 
DOCKED: ATOM     29 FE   UNL d   1       8.149  11.695  26.784 -0.08 +0.00    +0.000 Fe
DOCKED: ENDROOT
DOCKED: BRANCH   6  30
DOCKED: ATOM     30  C   UNL d   1       7.171  15.308  31.190 -0.34 +0.02    +0.052 C 
DOCKED: BRANCH  30  31
DOCKED: ATOM     31  C   UNL d   1       6.083  14.567  31.966 -0.17 +0.07    +0.115 C 
DOCKED: BRANCH  31  32
DOCKED: ATOM     32  C   UNL d   1       6.499  14.253  33.387 -0.16 +0.17    +0.139 C 
DOCKED: ATOM     33  O   UNL d   1       7.189  15.052  34.001 -0.10 -0.87    -0.650 OA
DOCKED: BRANCH  32  34
DOCKED: ATOM     34  O   UNL d   1       6.090  13.130  34.022 -0.35 -1.06    -0.776 OA
DOCKED: ATOM     35  H   UNL d   1       6.682  12.419  34.304 +0.07 +0.15    +0.167 HD
DOCKED: ENDBRANCH  32  34
DOCKED: ENDBRANCH  31  32
DOCKED: ENDBRANCH  30  31
DOCKED: ENDBRANCH   6  30
DOCKED: BRANCH  29  36
DOCKED: ATOM     36  C   UNL d   1       6.223  10.996  27.227 +0.11 +0.04    +0.190 C 
DOCKED: BRANCH  36  37
DOCKED: ATOM     37  O   UNL d   1       5.416   9.854  27.191 -0.35 -0.10    -0.399 OA
DOCKED: ATOM     38  H   UNL d   1       5.877   9.235  26.558 +0.13 +0.04    +0.209 HD
DOCKED: ENDBRANCH  36  37
DOCKED: ENDBRANCH  29  36
DOCKED: BRANCH  22  39
DOCKED: ATOM     39  C   UNL d   1       9.569  10.547  32.188 -0.30 +0.02    +0.052 C 
DOCKED: BRANCH  39  40
DOCKED: ATOM     40  C   UNL d   1       8.386   9.883  32.912 -0.39 +0.05    +0.115 C 
DOCKED: BRANCH  40  41
DOCKED: ATOM     41  C   UNL d   1       8.357  10.119  34.407 -0.29 +0.08    +0.139 C 
DOCKED: ATOM     42  O   UNL d   1       9.402  10.066  35.041 -0.36 -0.52    -0.650 OA
DOCKED: BRANCH  41  43
DOCKED: ATOM     43  O   UNL d   1       7.222  10.472  35.049 -0.08 -0.44    -0.776 OA
DOCKED: ATOM     44  H   UNL d   1       6.607  11.127  34.695 +0.08 +0.10    +0.167 HD
DOCKED: ENDBRANCH  41  43
DOCKED: ENDBRANCH  40  41
DOCKED: ENDBRANCH  39  40
DOCKED: ENDBRANCH  22  39
DOCKED: BRANCH  12  45
DOCKED: ATOM     45  C   UNL d   1       6.801  12.956  21.575 -0.56 +0.00    +0.004 C 
DOCKED: ATOM     46  C   UNL d   1       7.723  13.120  20.630 -0.67 -0.00    +0.012 C 
DOCKED: ENDBRANCH  12  45
DOCKED: BRANCH  17  47
DOCKED: ATOM     47  C   UNL d   1       9.460   6.643  25.337 -0.57 +0.00    +0.004 C 
DOCKED: ATOM     48  C   UNL d   1       8.755   5.767  26.057 -0.70 +0.00    +0.012 C 
DOCKED: ENDBRANCH  17  47
DOCKED: TORSDOF 12
DOCKED: TER
DOCKED: ENDMDL
________________________________________________________________________________


	BEGINNING GENETIC ALGORITHM DOCKING 33 of 100
Run: 33 Seed: 1680860810 1383552056 [ Run 33 of 100 GA/GALS ]
Beginning LAMARCKIAN GENETIC ALGORITHM (LGA), with a maximum of 25000000 energy evaluations.

Final-Value: -12.500


	FINAL GENETIC ALGORITHM DOCKED STATE
	_______________________________________________


Detailed state:  trans 21.435 -5.089 38.449 quatxyzw 0.174144 0.613647 0.765729 0.082285 center 8.781 34.984 -0.736 ntor 12 39.5217 124.3207 -158.0466 58.7021 156.5055 94.5258 -163.0424 178.6447 -14.7613 93.7933 177.1940 163.0668
State:	 21.435  -5.089  38.449   0.175  0.616  0.768 170.560     39.52  124.32 -158.05   58.70  156.51   94.53 -163.04  178.64  -14.76   93.79  177.19  163.07

DOCKED: MODEL       33
DOCKED: USER    Run = 33
DOCKED: USER    DPF = D:/Protein_go_brrr/autodock/final/1A3N/heme_Co/dock.dpf
DOCKED: USER  
DOCKED: USER    Estimated Free Energy of Binding    =   -6.68 kcal/mol  [=(1)+(2)+(3)-(4)]
DOCKED: USER    Estimated Inhibition Constant, Ki   =   12.69 uM (micromolar)  [Temperature = 298.15 K]
DOCKED: USER    
DOCKED: USER    (1) Final Intermolecular Energy     =  -10.26 kcal/mol
DOCKED: USER        vdW + Hbond + desolv Energy     =   -7.14 kcal/mol
DOCKED: USER        Electrostatic Energy            =   -3.12 kcal/mol
DOCKED: USER    (2) Final Total Internal Energy     =   -2.24 kcal/mol
DOCKED: USER    (3) Torsional Free Energy           =   +3.58 kcal/mol
DOCKED: USER    (4) Unbound System's Energy  [=(2)] =   -2.24 kcal/mol
DOCKED: USER    
DOCKED: USER    
DOCKED: USER    NEWDPF move heme_Co_opt.pdbqt
DOCKED: USER    NEWDPF about 8.781000 34.984000 -0.736000
DOCKED: USER    NEWDPF tran0 21.434594 -5.089140 38.449346
DOCKED: USER    NEWDPF quaternion0 0.174144 0.613647 0.765729 0.082285
DOCKED: USER    NEWDPF axisangle0 0.174736 0.615735 0.768334 170.560110
DOCKED: USER    NEWDPF quat0 0.174736 0.615735 0.768334 170.560110
DOCKED: USER    NEWDPF dihe0 39.52 124.32 -158.05 58.70 156.51 94.53 -163.04 178.64 -14.76 93.79 177.19 163.07 
DOCKED: USER  keepresnum = 1 
DOCKED: USER  
DOCKED: REMARK  12 active torsions:
DOCKED: REMARK  status: ('A' for Active; 'I' for Inactive)
DOCKED: REMARK    1  A    between atoms: C_6  and  C_10 
DOCKED: REMARK    2  A    between atoms: C_10  and  C_11 
DOCKED: REMARK    3  A    between atoms: C_11  and  C_12 
DOCKED: REMARK    4  A    between atoms: C_12  and  O_14 
DOCKED: REMARK    5  A    between atoms: C_17  and  C_20 
DOCKED: REMARK    6  A    between atoms: C_24  and  C_27 
DOCKED: REMARK    7  A    between atoms: C_31  and  C_34 
DOCKED: REMARK    8  A    between atoms: C_34  and  C_35 
DOCKED: REMARK    9  A    between atoms: C_35  and  C_36 
DOCKED: REMARK   10  A    between atoms: C_36  and  O_38 
DOCKED: REMARK   11  A    between atoms: FE_43  and  C_44 
DOCKED: REMARK   12  A    between atoms: C_44  and  O_45 
DOCKED: USER                              x       y       z     vdW  Elec       q    Type
DOCKED: USER                           _______ _______ _______ _____ _____    ______ ____
DOCKED: ROOT
DOCKED: ATOM      1  C   UNL d   1      23.255  -6.198  38.034 -0.10 +0.02    +0.064 A 
DOCKED: ATOM      2  C   UNL d   1      21.804  -1.850  36.769 -0.26 +0.00    +0.064 C 
DOCKED: ATOM      3  C   UNL d   1      17.552  -2.636  38.802 -0.20 -0.00    +0.064 A 
DOCKED: ATOM      4  C   UNL d   1      19.144  -6.931  40.440 -0.17 +0.01    +0.064 A 
DOCKED: ATOM      5  C   UNL d   1      23.158  -4.967  37.508 -0.12 +0.02    +0.066 A 
DOCKED: ATOM      6  C   UNL d   1      24.248  -4.336  36.875 -0.18 -0.01    -0.021 A 
DOCKED: ATOM      7  C   UNL d   1      23.828  -3.067  36.531 -0.23 -0.00    -0.025 A 
DOCKED: ATOM      8  C   UNL d   1      22.497  -2.982  36.952 -0.16 +0.01    +0.066 A 
DOCKED: ATOM      9  C   UNL d   1      24.638  -1.964  35.832 -0.42 +0.00    +0.051 C 
DOCKED: ATOM     10  C   UNL d   1      20.423  -1.679  37.146 -0.22 +0.00    +0.066 A 
DOCKED: ATOM     11  C   UNL d   1      19.601  -0.569  36.855 -0.28 -0.00    -0.021 A 
DOCKED: ATOM     12  C   UNL d   1      18.366  -0.826  37.456 -0.28 -0.00    +0.000 A 
DOCKED: ATOM     13  C   UNL d   1      18.521  -2.076  38.056 -0.26 +0.00    +0.070 A 
DOCKED: ATOM     14  C   UNL d   1      19.962   0.604  35.980 -0.34 +0.00    +0.052 C 
DOCKED: ATOM     15  C   UNL d   1      17.562  -3.888  39.533 -0.24 +0.00    +0.066 A 
DOCKED: ATOM     16  C   UNL d   1      16.580  -4.341  40.403 -0.21 -0.00    -0.021 A 
DOCKED: ATOM     17  C   UNL d   1      17.036  -5.578  40.880 -0.22 +0.00    +0.000 A 
DOCKED: ATOM     18  C   UNL d   1      18.256  -5.791  40.247 -0.22 +0.01    +0.070 A 
DOCKED: ATOM     19  C   UNL d   1      15.299  -3.610  40.736 -0.23 +0.01    +0.052 C 
DOCKED: ATOM     20  C   UNL d   1      20.373  -7.119  39.903 -0.14 +0.01    +0.066 A 
DOCKED: ATOM     21  C   UNL d   1      21.147  -8.240  40.191 -0.10 -0.00    -0.025 A 
DOCKED: ATOM     22  C   UNL d   1      22.327  -8.071  39.489 -0.09 -0.00    -0.021 A 
DOCKED: ATOM     23  C   UNL d   1      22.217  -6.838  38.810 -0.10 +0.02    +0.066 A 
DOCKED: ATOM     24  C   UNL d   1      20.790  -9.408  41.108 -0.07 +0.01    +0.051 C 
DOCKED: ATOM     25  N   UNL d   1      22.054  -4.147  37.556 +0.03 -0.04    -0.248 N 
DOCKED: ATOM     26  N   UNL d   1      19.747  -2.615  37.820 -0.05 -0.02    -0.248 N 
DOCKED: ATOM     27  N   UNL d   1      18.552  -4.751  39.476 -0.12 -0.02    -0.248 N 
DOCKED: ATOM     28  N   UNL d   1      21.037  -6.258  39.060 +0.01 -0.04    -0.248 N 
DOCKED: ATOM     29 FE   UNL d   1      20.200  -4.470  38.573 -0.03 +0.00    +0.000 Fe
DOCKED: ENDROOT
DOCKED: BRANCH   6  30
DOCKED: ATOM     30  C   UNL d   1      25.648  -4.910  36.691 -0.20 +0.03    +0.052 C 
DOCKED: BRANCH  30  31
DOCKED: ATOM     31  C   UNL d   1      26.594  -4.374  37.765 -0.23 +0.07    +0.115 C 
DOCKED: BRANCH  31  32
DOCKED: ATOM     32  C   UNL d   1      27.860  -5.195  37.882 +0.16 +0.19    +0.139 C 
DOCKED: ATOM     33  O   UNL d   1      28.664  -5.194  36.962 -0.59 -0.92    -0.650 OA
DOCKED: BRANCH  32  34
DOCKED: ATOM     34  O   UNL d   1      28.159  -5.899  38.999 +0.19 -1.34    -0.776 OA
DOCKED: ATOM     35  H   UNL d   1      27.503  -6.343  39.553 +0.02 +0.25    +0.167 HD
DOCKED: ENDBRANCH  32  34
DOCKED: ENDBRANCH  31  32
DOCKED: ENDBRANCH  30  31
DOCKED: ENDBRANCH   6  30
DOCKED: BRANCH  29  36
DOCKED: ATOM     36  C   UNL d   1      21.090  -3.572  40.245 -0.05 +0.02    +0.190 C 
DOCKED: BRANCH  36  37
DOCKED: ATOM     37  O   UNL d   1      22.157  -3.696  41.141 -0.00 -0.06    -0.399 OA
DOCKED: ATOM     38  H   UNL d   1      22.744  -4.398  40.744 +0.01 +0.04    +0.209 HD
DOCKED: ENDBRANCH  36  37
DOCKED: ENDBRANCH  29  36
DOCKED: BRANCH  22  39
DOCKED: ATOM     39  C   UNL d   1      23.515  -9.013  39.525 -0.06 +0.02    +0.052 C 
DOCKED: BRANCH  39  40
DOCKED: ATOM     40  C   UNL d   1      24.555  -8.536  40.551 -0.03 +0.05    +0.115 C 
DOCKED: BRANCH  40  41
DOCKED: ATOM     41  C   UNL d   1      25.625  -7.628  39.982 -0.05 +0.11    +0.139 C 
DOCKED: ATOM     42  O   UNL d   1      26.134  -7.906  38.905 -0.31 -1.20    -0.650 OA
DOCKED: BRANCH  41  43
DOCKED: ATOM     43  O   UNL d   1      25.972  -6.472  40.588 +0.02 -0.48    -0.776 OA
DOCKED: ATOM     44  H   UNL d   1      26.318  -5.713  40.101 +0.02 +0.11    +0.167 HD
DOCKED: ENDBRANCH  41  43
DOCKED: ENDBRANCH  40  41
DOCKED: ENDBRANCH  39  40
DOCKED: ENDBRANCH  22  39
DOCKED: BRANCH  12  45
DOCKED: ATOM     45  C   UNL d   1      17.058  -0.048  37.517 -0.31 +0.00    +0.004 C 
DOCKED: ATOM     46  C   UNL d   1      16.337   0.511  36.548 -0.35 +0.00    +0.012 C 
DOCKED: ENDBRANCH  12  45
DOCKED: BRANCH  17  47
DOCKED: ATOM     47  C   UNL d   1      16.427  -6.494  41.890 -0.18 +0.00    +0.004 C 
DOCKED: ATOM     48  C   UNL d   1      16.329  -7.815  41.723 -0.16 +0.01    +0.012 C 
DOCKED: ENDBRANCH  17  47
DOCKED: TORSDOF 12
DOCKED: TER
DOCKED: ENDMDL
________________________________________________________________________________


	BEGINNING GENETIC ALGORITHM DOCKING 34 of 100
Run: 34 Seed: 143403237 1375751703 [ Run 34 of 100 GA/GALS ]
Beginning LAMARCKIAN GENETIC ALGORITHM (LGA), with a maximum of 25000000 energy evaluations.

Final-Value: -13.107


	FINAL GENETIC ALGORITHM DOCKED STATE
	_______________________________________________


Detailed state:  trans 4.250 -5.195 -9.045 quatxyzw 0.012652 0.690168 -0.065914 0.720530 center 8.781 34.984 -0.736 ntor 12 133.6070 87.4859 172.9514 -55.5622 -32.4286 145.4905 -96.2277 -0.6036 -102.0276 110.1050 163.4798 -180.0000
State:	  4.250  -5.195  -9.045   0.018  0.995 -0.095 87.803    133.61   87.49  172.95  -55.56  -32.43  145.49  -96.23   -0.60 -102.03  110.10  163.48 -180.00

DOCKED: MODEL       34
DOCKED: USER    Run = 34
DOCKED: USER    DPF = D:/Protein_go_brrr/autodock/final/1A3N/heme_Co/dock.dpf
DOCKED: USER  
DOCKED: USER    Estimated Free Energy of Binding    =   -6.70 kcal/mol  [=(1)+(2)+(3)-(4)]
DOCKED: USER    Estimated Inhibition Constant, Ki   =   12.33 uM (micromolar)  [Temperature = 298.15 K]
DOCKED: USER    
DOCKED: USER    (1) Final Intermolecular Energy     =  -10.28 kcal/mol
DOCKED: USER        vdW + Hbond + desolv Energy     =   -9.73 kcal/mol
DOCKED: USER        Electrostatic Energy            =   -0.54 kcal/mol
DOCKED: USER    (2) Final Total Internal Energy     =   -2.83 kcal/mol
DOCKED: USER    (3) Torsional Free Energy           =   +3.58 kcal/mol
DOCKED: USER    (4) Unbound System's Energy  [=(2)] =   -2.83 kcal/mol
DOCKED: USER    
DOCKED: USER    
DOCKED: USER    NEWDPF move heme_Co_opt.pdbqt
DOCKED: USER    NEWDPF about 8.781000 34.984000 -0.736000
DOCKED: USER    NEWDPF tran0 4.250384 -5.194604 -9.045281
DOCKED: USER    NEWDPF quaternion0 0.012652 0.690168 -0.065914 0.720530
DOCKED: USER    NEWDPF axisangle0 0.018246 0.995305 -0.095056 87.803452
DOCKED: USER    NEWDPF quat0 0.018246 0.995305 -0.095056 87.803452
DOCKED: USER    NEWDPF dihe0 133.61 87.49 172.95 -55.56 -32.43 145.49 -96.23 -0.60 -102.03 110.10 163.48 -180.00 
DOCKED: USER  keepresnum = 1 
DOCKED: USER  
DOCKED: REMARK  12 active torsions:
DOCKED: REMARK  status: ('A' for Active; 'I' for Inactive)
DOCKED: REMARK    1  A    between atoms: C_6  and  C_10 
DOCKED: REMARK    2  A    between atoms: C_10  and  C_11 
DOCKED: REMARK    3  A    between atoms: C_11  and  C_12 
DOCKED: REMARK    4  A    between atoms: C_12  and  O_14 
DOCKED: REMARK    5  A    between atoms: C_17  and  C_20 
DOCKED: REMARK    6  A    between atoms: C_24  and  C_27 
DOCKED: REMARK    7  A    between atoms: C_31  and  C_34 
DOCKED: REMARK    8  A    between atoms: C_34  and  C_35 
DOCKED: REMARK    9  A    between atoms: C_35  and  C_36 
DOCKED: REMARK   10  A    between atoms: C_36  and  O_38 
DOCKED: REMARK   11  A    between atoms: FE_43  and  C_44 
DOCKED: REMARK   12  A    between atoms: C_44  and  O_45 
DOCKED: USER                              x       y       z     vdW  Elec       q    Type
DOCKED: USER                           _______ _______ _______ _____ _____    ______ ____
DOCKED: ROOT
DOCKED: ATOM      1  C   UNL d   1       4.984  -4.856 -11.061 -0.09 +0.01    +0.064 A 
DOCKED: ATOM      2  C   UNL d   1       1.518  -7.622  -9.345 -0.18 +0.03    +0.064 C 
DOCKED: ATOM      3  C   UNL d   1       2.733  -6.438  -4.878 -0.26 +0.01    +0.064 A 
DOCKED: ATOM      4  C   UNL d   1       6.027  -3.310  -6.618 -0.43 +0.00    +0.064 A 
DOCKED: ATOM      5  C   UNL d   1       3.971  -5.727 -10.919 -0.08 +0.01    +0.066 A 
DOCKED: ATOM      6  C   UNL d   1       3.282  -6.259 -12.026 -0.04 -0.00    -0.021 A 
DOCKED: ATOM      7  C   UNL d   1       2.263  -7.043 -11.522 -0.05 -0.01    -0.025 A 
DOCKED: ATOM      8  C   UNL d   1       2.383  -6.969 -10.130 -0.11 +0.02    +0.066 A 
DOCKED: ATOM      9  C   UNL d   1       1.208  -7.837 -12.308 -0.03 +0.02    +0.051 C 
DOCKED: ATOM     10  C   UNL d   1       1.579  -7.626  -7.905 -0.22 +0.03    +0.066 A 
DOCKED: ATOM     11  C   UNL d   1       0.789  -8.402  -7.029 -0.26 -0.01    -0.021 A 
DOCKED: ATOM     12  C   UNL d   1       1.167  -8.040  -5.733 -0.31 +0.00    +0.000 A 
DOCKED: ATOM     13  C   UNL d   1       2.165  -7.082  -5.913 -0.26 +0.02    +0.070 A 
DOCKED: ATOM     14  C   UNL d   1      -0.187  -9.479  -7.425 -0.21 +0.02    +0.052 C 
DOCKED: ATOM     15  C   UNL d   1       3.735  -5.391  -4.885 -0.34 +0.01    +0.066 A 
DOCKED: ATOM     16  C   UNL d   1       4.175  -4.665  -3.787 -0.42 -0.00    -0.021 A 
DOCKED: ATOM     17  C   UNL d   1       5.123  -3.760  -4.284 -0.40 +0.00    +0.000 A 
DOCKED: ATOM     18  C   UNL d   1       5.200  -4.017  -5.648 -0.42 +0.01    +0.070 A 
DOCKED: ATOM     19  C   UNL d   1       3.695  -4.851  -2.364 -0.37 +0.00    +0.052 C 
DOCKED: ATOM     20  C   UNL d   1       6.055  -3.484  -7.961 -0.40 +0.00    +0.066 A 
DOCKED: ATOM     21  C   UNL d   1       6.867  -2.717  -8.793 -0.31 +0.00    -0.025 A 
DOCKED: ATOM     22  C   UNL d   1       6.609  -3.160 -10.078 -0.23 +0.00    -0.021 A 
DOCKED: ATOM     23  C   UNL d   1       5.635  -4.176  -9.965 -0.17 +0.00    +0.066 A 
DOCKED: ATOM     24  C   UNL d   1       7.827  -1.602  -8.388 -0.14 +0.00    +0.051 C 
DOCKED: ATOM     25  N   UNL d   1       3.437  -6.165  -9.729 -0.08 -0.06    -0.248 N 
DOCKED: ATOM     26  N   UNL d   1       2.452  -6.874  -7.226 -0.17 -0.08    -0.248 N 
DOCKED: ATOM     27  N   UNL d   1       4.338  -4.974  -5.976 -0.23 -0.03    -0.248 N 
DOCKED: ATOM     28  N   UNL d   1       5.295  -4.373  -8.686 -0.16 -0.02    -0.248 N 
DOCKED: ATOM     29 FE   UNL d   1       3.917  -5.532  -7.742 -0.07 +0.00    +0.000 Fe
DOCKED: ENDROOT
DOCKED: BRANCH   6  30
DOCKED: ATOM     30  C   UNL d   1       3.550  -5.954 -13.496 -0.02 +0.01    +0.052 C 
DOCKED: BRANCH  30  31
DOCKED: ATOM     31  C   UNL d   1       2.384  -5.175 -14.104 -0.01 +0.03    +0.115 C 
DOCKED: BRANCH  31  32
DOCKED: ATOM     32  C   UNL d   1       2.381  -3.720 -13.687 -0.07 +0.04    +0.139 C 
DOCKED: ATOM     33  O   UNL d   1       2.200  -2.853 -14.529 -0.40 -0.28    -0.650 OA
DOCKED: BRANCH  32  34
DOCKED: ATOM     34  O   UNL d   1       2.526  -3.344 -12.395 +0.07 -0.22    -0.776 OA
DOCKED: ATOM     35  H   UNL d   1       3.162  -2.683 -12.089 +0.06 +0.03    +0.167 HD
DOCKED: ENDBRANCH  32  34
DOCKED: ENDBRANCH  31  32
DOCKED: ENDBRANCH  30  31
DOCKED: ENDBRANCH   6  30
DOCKED: BRANCH  29  36
DOCKED: ATOM     36  C   UNL d   1       2.463  -4.042  -7.986 -0.26 +0.05    +0.190 C 
DOCKED: BRANCH  36  37
DOCKED: ATOM     37  O   UNL d   1       1.628  -3.445  -8.936 -0.23 -0.16    -0.399 OA
DOCKED: ATOM     38  H   UNL d   1       2.089  -3.590  -9.810 +0.10 +0.07    +0.209 HD
DOCKED: ENDBRANCH  36  37
DOCKED: ENDBRANCH  29  36
DOCKED: BRANCH  22  39
DOCKED: ATOM     39  C   UNL d   1       7.219  -2.590 -11.344 -0.14 +0.00    +0.052 C 
DOCKED: BRANCH  39  40
DOCKED: ATOM     40  C   UNL d   1       6.520  -1.280 -11.741 -0.20 +0.00    +0.115 C 
DOCKED: BRANCH  40  41
DOCKED: ATOM     41  C   UNL d   1       5.150  -1.465 -12.361 -0.22 +0.01    +0.139 C 
DOCKED: ATOM     42  O   UNL d   1       4.238  -0.721 -12.030 -0.18 -0.06    -0.650 OA
DOCKED: BRANCH  41  43
DOCKED: ATOM     43  O   UNL d   1       4.929  -2.375 -13.336 +0.06 -0.12    -0.776 OA
DOCKED: ATOM     44  H   UNL d   1       4.059  -2.509 -13.733 +0.04 +0.04    +0.167 HD
DOCKED: ENDBRANCH  41  43
DOCKED: ENDBRANCH  40  41
DOCKED: ENDBRANCH  39  40
DOCKED: ENDBRANCH  22  39
DOCKED: BRANCH  12  45
DOCKED: ATOM     45  C   UNL d   1       0.715  -8.499  -4.353 -0.43 +0.00    +0.004 C 
DOCKED: ATOM     46  C   UNL d   1      -0.466  -8.395  -3.749 -0.49 +0.00    +0.012 C 
DOCKED: ENDBRANCH  12  45
DOCKED: BRANCH  17  47
DOCKED: ATOM     47  C   UNL d   1       5.881  -2.687  -3.573 -0.36 +0.00    +0.004 C 
DOCKED: ATOM     48  C   UNL d   1       5.299  -1.731  -2.846 -0.61 +0.00    +0.012 C 
DOCKED: ENDBRANCH  17  47
DOCKED: TORSDOF 12
DOCKED: TER
DOCKED: ENDMDL
________________________________________________________________________________


	BEGINNING GENETIC ALGORITHM DOCKING 35 of 100
Run: 35 Seed: 911836669 470039600 [ Run 35 of 100 GA/GALS ]
Beginning LAMARCKIAN GENETIC ALGORITHM (LGA), with a maximum of 25000000 energy evaluations.

Final-Value: -18.482


	FINAL GENETIC ALGORITHM DOCKED STATE
	_______________________________________________


Detailed state:  trans 8.160 12.015 27.994 quatxyzw 0.750966 -0.399783 -0.511649 -0.120166 center 8.781 34.984 -0.736 ntor 12 25.2423 91.1080 156.4388 -98.5092 -86.5630 -9.4919 153.2859 23.4253 -57.1432 -12.6314 -166.3648 180.0000
State:	  8.160  12.015  27.994   0.756 -0.403 -0.515 -166.197     25.24   91.11  156.44  -98.51  -86.56   -9.49  153.29   23.43  -57.14  -12.63 -166.36  180.00

DOCKED: MODEL       35
DOCKED: USER    Run = 35
DOCKED: USER    DPF = D:/Protein_go_brrr/autodock/final/1A3N/heme_Co/dock.dpf
DOCKED: USER  
DOCKED: USER    Estimated Free Energy of Binding    =  -14.28 kcal/mol  [=(1)+(2)+(3)-(4)]
DOCKED: USER    Estimated Inhibition Constant, Ki   =   34.00 pM (picomolar)  [Temperature = 298.15 K]
DOCKED: USER    
DOCKED: USER    (1) Final Intermolecular Energy     =  -17.86 kcal/mol
DOCKED: USER        vdW + Hbond + desolv Energy     =  -15.89 kcal/mol
DOCKED: USER        Electrostatic Energy            =   -1.98 kcal/mol
DOCKED: USER    (2) Final Total Internal Energy     =   -0.62 kcal/mol
DOCKED: USER    (3) Torsional Free Energy           =   +3.58 kcal/mol
DOCKED: USER    (4) Unbound System's Energy  [=(2)] =   -0.62 kcal/mol
DOCKED: USER    
DOCKED: USER    
DOCKED: USER    NEWDPF move heme_Co_opt.pdbqt
DOCKED: USER    NEWDPF about 8.781000 34.984000 -0.736000
DOCKED: USER    NEWDPF tran0 8.160317 12.014518 27.993758
DOCKED: USER    NEWDPF quaternion0 0.750966 -0.399783 -0.511649 -0.120166
DOCKED: USER    NEWDPF axisangle0 0.756447 -0.402701 -0.515383 -166.196658
DOCKED: USER    NEWDPF quat0 0.756447 -0.402701 -0.515383 -166.196658
DOCKED: USER    NEWDPF dihe0 25.24 91.11 156.44 -98.51 -86.56 -9.49 153.29 23.43 -57.14 -12.63 -166.36 180.00 
DOCKED: USER  keepresnum = 1 
DOCKED: USER  
DOCKED: REMARK  12 active torsions:
DOCKED: REMARK  status: ('A' for Active; 'I' for Inactive)
DOCKED: REMARK    1  A    between atoms: C_6  and  C_10 
DOCKED: REMARK    2  A    between atoms: C_10  and  C_11 
DOCKED: REMARK    3  A    between atoms: C_11  and  C_12 
DOCKED: REMARK    4  A    between atoms: C_12  and  O_14 
DOCKED: REMARK    5  A    between atoms: C_17  and  C_20 
DOCKED: REMARK    6  A    between atoms: C_24  and  C_27 
DOCKED: REMARK    7  A    between atoms: C_31  and  C_34 
DOCKED: REMARK    8  A    between atoms: C_34  and  C_35 
DOCKED: REMARK    9  A    between atoms: C_35  and  C_36 
DOCKED: REMARK   10  A    between atoms: C_36  and  O_38 
DOCKED: REMARK   11  A    between atoms: FE_43  and  C_44 
DOCKED: REMARK   12  A    between atoms: C_44  and  O_45 
DOCKED: USER                              x       y       z     vdW  Elec       q    Type
DOCKED: USER                           _______ _______ _______ _____ _____    ______ ____
DOCKED: ROOT
DOCKED: ATOM      1  C   UNL d   1       8.354  12.895  29.969 -0.27 +0.02    +0.064 A 
DOCKED: ATOM      2  C   UNL d   1       6.592  14.571  25.883 -0.45 +0.01    +0.064 C 
DOCKED: ATOM      3  C   UNL d   1       7.973  10.599  23.615 -0.21 +0.00    +0.064 A 
DOCKED: ATOM      4  C   UNL d   1       9.433   8.704  27.851 -0.37 +0.01    +0.064 A 
DOCKED: ATOM      5  C   UNL d   1       7.803  13.660  29.012 -0.27 +0.01    +0.066 A 
DOCKED: ATOM      6  C   UNL d   1       7.204  14.902  29.300 -0.38 -0.00    -0.021 A 
DOCKED: ATOM      7  C   UNL d   1       6.675  15.373  28.115 -0.44 -0.00    -0.025 A 
DOCKED: ATOM      8  C   UNL d   1       6.987  14.407  27.152 -0.38 +0.01    +0.066 A 
DOCKED: ATOM      9  C   UNL d   1       5.901  16.680  27.882 -0.45 +0.00    +0.051 C 
DOCKED: ATOM     10  C   UNL d   1       6.890  13.645  24.819 -0.35 +0.00    +0.066 A 
DOCKED: ATOM     11  C   UNL d   1       6.626  13.826  23.444 -0.35 -0.00    -0.021 A 
DOCKED: ATOM     12  C   UNL d   1       7.042  12.655  22.806 -0.41 +0.00    +0.000 A 
DOCKED: ATOM     13  C   UNL d   1       7.539  11.853  23.833 -0.32 +0.00    +0.070 A 
DOCKED: ATOM     14  C   UNL d   1       6.100  15.080  22.794 -0.45 +0.00    +0.052 C 
DOCKED: ATOM     15  C   UNL d   1       8.467   9.619  24.562 -0.40 +0.01    +0.066 A 
DOCKED: ATOM     16  C   UNL d   1       8.763   8.290  24.292 -0.56 -0.00    -0.021 A 
DOCKED: ATOM     17  C   UNL d   1       9.182   7.738  25.511 -0.46 +0.00    +0.000 A 
DOCKED: ATOM     18  C   UNL d   1       9.125   8.782  26.428 -0.37 +0.01    +0.070 A 
DOCKED: ATOM     19  C   UNL d   1       8.640   7.621  22.941 -0.25 +0.00    +0.052 C 
DOCKED: ATOM     20  C   UNL d   1       9.302   9.682  28.778 -0.40 +0.01    +0.066 A 
DOCKED: ATOM     21  C   UNL d   1       9.596   9.475  30.124 -0.44 -0.01    -0.025 A 
DOCKED: ATOM     22  C   UNL d   1       9.322  10.675  30.755 -0.31 -0.01    -0.021 A 
DOCKED: ATOM     23  C   UNL d   1       8.859  11.558  29.756 -0.29 +0.01    +0.066 A 
DOCKED: ATOM     24  C   UNL d   1      10.095   8.191  30.781 -0.54 +0.02    +0.051 C 
DOCKED: ATOM     25  N   UNL d   1       7.691  13.338  27.679 -0.21 -0.02    -0.248 N 
DOCKED: ATOM     26  N   UNL d   1       7.498  12.475  25.042 -0.23 -0.01    -0.248 N 
DOCKED: ATOM     27  N   UNL d   1       8.666   9.879  25.835 -0.23 -0.02    -0.248 N 
DOCKED: ATOM     28  N   UNL d   1       8.843  10.960  28.559 -0.22 -0.03    -0.248 N 
DOCKED: ATOM     29 FE   UNL d   1       8.209  11.505  26.705 -0.08 +0.00    +0.000 Fe
DOCKED: ENDROOT
DOCKED: BRANCH   6  30
DOCKED: ATOM     30  C   UNL d   1       7.081  15.555  30.673 -0.36 +0.02    +0.052 C 
DOCKED: BRANCH  30  31
DOCKED: ATOM     31  C   UNL d   1       5.885  14.984  31.434 -0.23 +0.06    +0.115 C 
DOCKED: BRANCH  31  32
DOCKED: ATOM     32  C   UNL d   1       6.287  14.349  32.748 -0.16 +0.13    +0.139 C 
DOCKED: ATOM     33  O   UNL d   1       7.325  14.697  33.291 -0.01 -0.60    -0.650 OA
DOCKED: BRANCH  32  34
DOCKED: ATOM     34  O   UNL d   1       5.508  13.435  33.371 -0.29 -0.96    -0.776 OA
DOCKED: ATOM     35  H   UNL d   1       4.825  12.911  32.930 -0.34 +0.11    +0.167 HD
DOCKED: ENDBRANCH  32  34
DOCKED: ENDBRANCH  31  32
DOCKED: ENDBRANCH  30  31
DOCKED: ENDBRANCH   6  30
DOCKED: BRANCH  29  36
DOCKED: ATOM     36  C   UNL d   1       6.268  10.851  27.151 +0.02 +0.04    +0.190 C 
DOCKED: BRANCH  36  37
DOCKED: ATOM     37  O   UNL d   1       5.468   9.706  27.226 -0.37 -0.10    -0.399 OA
DOCKED: ATOM     38  H   UNL d   1       5.921   9.037  26.641 +0.13 +0.04    +0.209 HD
DOCKED: ENDBRANCH  36  37
DOCKED: ENDBRANCH  29  36
DOCKED: BRANCH  22  39
DOCKED: ATOM     39  C   UNL d   1       9.438  10.932  32.245 -0.27 +0.02    +0.052 C 
DOCKED: BRANCH  39  40
DOCKED: ATOM     40  C   UNL d   1       8.225  10.353  32.992 -0.37 +0.05    +0.115 C 
DOCKED: BRANCH  40  41
DOCKED: ATOM     41  C   UNL d   1       8.437  10.167  34.480 -0.28 +0.08    +0.139 C 
DOCKED: ATOM     42  O   UNL d   1       7.465  10.045  35.212 -0.43 -0.39    -0.650 OA
DOCKED: BRANCH  41  43
DOCKED: ATOM     43  O   UNL d   1       9.674  10.044  35.011 -0.21 -0.64    -0.776 OA
DOCKED: ATOM     44  H   UNL d   1       9.849  10.167  35.953 +0.05 +0.15    +0.167 HD
DOCKED: ENDBRANCH  41  43
DOCKED: ENDBRANCH  40  41
DOCKED: ENDBRANCH  39  40
DOCKED: ENDBRANCH  22  39
DOCKED: BRANCH  12  45
DOCKED: ATOM     45  C   UNL d   1       7.045  12.211  21.349 -0.62 -0.00    +0.004 C 
DOCKED: ATOM     46  C   UNL d   1       6.284  11.325  20.712 -0.70 -0.00    +0.012 C 
DOCKED: ENDBRANCH  12  45
DOCKED: BRANCH  17  47
DOCKED: ATOM     47  C   UNL d   1       9.565   6.333  25.841 -0.63 +0.00    +0.004 C 
DOCKED: ATOM     48  C   UNL d   1       8.808   5.516  26.577 -0.73 +0.00    +0.012 C 
DOCKED: ENDBRANCH  17  47
DOCKED: TORSDOF 12
DOCKED: TER
DOCKED: ENDMDL
________________________________________________________________________________


	BEGINNING GENETIC ALGORITHM DOCKING 36 of 100
Run: 36 Seed: 219883441 1789283340 [ Run 36 of 100 GA/GALS ]
Beginning LAMARCKIAN GENETIC ALGORITHM (LGA), with a maximum of 25000000 energy evaluations.

Final-Value: -11.455


	FINAL GENETIC ALGORITHM DOCKED STATE
	_______________________________________________


Detailed state:  trans 25.177 -5.196 38.347 quatxyzw 0.568802 -0.536846 -0.615371 -0.097874 center 8.781 34.984 -0.736 ntor 12 110.1926 105.0724 -45.1427 46.4380 78.8735 143.4586 151.7018 -25.3897 -15.9226 172.5860 12.8162 -4.9548
State:	 25.177  -5.196  38.347   0.572 -0.539 -0.618 -168.766    110.19  105.07  -45.14   46.44   78.87  143.46  151.70  -25.39  -15.92  172.59   12.82   -4.95

DOCKED: MODEL       36
DOCKED: USER    Run = 36
DOCKED: USER    DPF = D:/Protein_go_brrr/autodock/final/1A3N/heme_Co/dock.dpf
DOCKED: USER  
DOCKED: USER    Estimated Free Energy of Binding    =   -7.08 kcal/mol  [=(1)+(2)+(3)-(4)]
DOCKED: USER    Estimated Inhibition Constant, Ki   =    6.47 uM (micromolar)  [Temperature = 298.15 K]
DOCKED: USER    
DOCKED: USER    (1) Final Intermolecular Energy     =  -10.66 kcal/mol
DOCKED: USER        vdW + Hbond + desolv Energy     =   -8.16 kcal/mol
DOCKED: USER        Electrostatic Energy            =   -2.50 kcal/mol
DOCKED: USER    (2) Final Total Internal Energy     =   -0.80 kcal/mol
DOCKED: USER    (3) Torsional Free Energy           =   +3.58 kcal/mol
DOCKED: USER    (4) Unbound System's Energy  [=(2)] =   -0.80 kcal/mol
DOCKED: USER    
DOCKED: USER    
DOCKED: USER    NEWDPF move heme_Co_opt.pdbqt
DOCKED: USER    NEWDPF about 8.781000 34.984000 -0.736000
DOCKED: USER    NEWDPF tran0 25.177034 -5.195917 38.346591
DOCKED: USER    NEWDPF quaternion0 0.568802 -0.536846 -0.615371 -0.097874
DOCKED: USER    NEWDPF axisangle0 0.571546 -0.539436 -0.618340 -168.766469
DOCKED: USER    NEWDPF quat0 0.571546 -0.539436 -0.618340 -168.766469
DOCKED: USER    NEWDPF dihe0 110.19 105.07 -45.14 46.44 78.87 143.46 151.70 -25.39 -15.92 172.59 12.82 -4.95 
DOCKED: USER  keepresnum = 1 
DOCKED: USER  
DOCKED: REMARK  12 active torsions:
DOCKED: REMARK  status: ('A' for Active; 'I' for Inactive)
DOCKED: REMARK    1  A    between atoms: C_6  and  C_10 
DOCKED: REMARK    2  A    between atoms: C_10  and  C_11 
DOCKED: REMARK    3  A    between atoms: C_11  and  C_12 
DOCKED: REMARK    4  A    between atoms: C_12  and  O_14 
DOCKED: REMARK    5  A    between atoms: C_17  and  C_20 
DOCKED: REMARK    6  A    between atoms: C_24  and  C_27 
DOCKED: REMARK    7  A    between atoms: C_31  and  C_34 
DOCKED: REMARK    8  A    between atoms: C_34  and  C_35 
DOCKED: REMARK    9  A    between atoms: C_35  and  C_36 
DOCKED: REMARK   10  A    between atoms: C_36  and  O_38 
DOCKED: REMARK   11  A    between atoms: FE_43  and  C_44 
DOCKED: REMARK   12  A    between atoms: C_44  and  O_45 
DOCKED: USER                              x       y       z     vdW  Elec       q    Type
DOCKED: USER                           _______ _______ _______ _____ _____    ______ ____
DOCKED: ROOT
DOCKED: ATOM      1  C   UNL d   1      26.263  -4.450  40.073 -0.04 +0.03    +0.064 A 
DOCKED: ATOM      2  C   UNL d   1      24.139  -2.243  36.436 -0.33 +0.01    +0.064 C 
DOCKED: ATOM      3  C   UNL d   1      23.184  -6.453  34.389 -0.25 +0.01    +0.064 A 
DOCKED: ATOM      4  C   UNL d   1      25.004  -8.741  38.277 -0.07 +0.06    +0.064 A 
DOCKED: ATOM      5  C   UNL d   1      25.785  -3.536  39.212 -0.08 +0.02    +0.066 A 
DOCKED: ATOM      6  C   UNL d   1      25.812  -2.157  39.495 -0.15 -0.01    -0.021 A 
DOCKED: ATOM      7  C   UNL d   1      25.174  -1.523  38.446 -0.18 -0.00    -0.025 A 
DOCKED: ATOM      8  C   UNL d   1      24.800  -2.540  37.562 -0.20 +0.01    +0.066 A 
DOCKED: ATOM      9  C   UNL d   1      24.918  -0.018  38.270 -0.35 +0.00    +0.051 C 
DOCKED: ATOM     10  C   UNL d   1      23.737  -3.219  35.454 -0.29 +0.01    +0.066 A 
DOCKED: ATOM     11  C   UNL d   1      23.167  -2.958  34.189 -0.41 -0.00    -0.021 A 
DOCKED: ATOM     12  C   UNL d   1      22.902  -4.203  33.612 -0.40 +0.00    +0.000 A 
DOCKED: ATOM     13  C   UNL d   1      23.341  -5.129  34.559 -0.24 +0.01    +0.070 A 
DOCKED: ATOM     14  C   UNL d   1      22.986  -1.603  33.554 -0.32 +0.01    +0.052 C 
DOCKED: ATOM     15  C   UNL d   1      23.529  -7.542  35.282 -0.24 +0.02    +0.066 A 
DOCKED: ATOM     16  C   UNL d   1      23.208  -8.881  35.109 -0.27 -0.01    -0.021 A 
DOCKED: ATOM     17  C   UNL d   1      23.729  -9.545  36.229 -0.19 +0.00    +0.000 A 
DOCKED: ATOM     18  C   UNL d   1      24.343  -8.557  36.992 -0.15 +0.04    +0.070 A 
DOCKED: ATOM     19  C   UNL d   1      22.449  -9.456  33.934 -0.27 +0.01    +0.052 C 
DOCKED: ATOM     20  C   UNL d   1      25.532  -7.784  39.078 -0.02 +0.07    +0.066 A 
DOCKED: ATOM     21  C   UNL d   1      26.110  -8.081  40.310 -0.06 -0.02    -0.025 A 
DOCKED: ATOM     22  C   UNL d   1      26.508  -6.866  40.837 -0.04 -0.01    -0.021 A 
DOCKED: ATOM     23  C   UNL d   1      26.139  -5.879  39.899 -0.06 +0.05    +0.066 A 
DOCKED: ATOM     24  C   UNL d   1      26.259  -9.453  40.963 -0.04 +0.03    +0.051 C 
DOCKED: ATOM     25  N   UNL d   1      25.171  -3.797  38.008 -0.07 -0.08    -0.248 N 
DOCKED: ATOM     26  N   UNL d   1      23.896  -4.532  35.648 -0.14 -0.06    -0.248 N 
DOCKED: ATOM     27  N   UNL d   1      24.178  -7.373  36.412 -0.12 -0.12    -0.248 N 
DOCKED: ATOM     28  N   UNL d   1      25.546  -6.430  38.833 -0.07 -0.22    -0.248 N 
DOCKED: ATOM     29 FE   UNL d   1      24.647  -5.693  37.165 -0.03 +0.00    +0.000 Fe
DOCKED: ENDROOT
DOCKED: BRANCH   6  30
DOCKED: ATOM     30  C   UNL d   1      26.356  -1.498  40.758 -0.16 +0.02    +0.052 C 
DOCKED: BRANCH  30  31
DOCKED: ATOM     31  C   UNL d   1      27.786  -1.007  40.534 -0.16 +0.04    +0.115 C 
DOCKED: BRANCH  31  32
DOCKED: ATOM     32  C   UNL d   1      28.215   0.011  41.569 -0.24 +0.08    +0.139 C 
DOCKED: ATOM     33  O   UNL d   1      27.641   0.051  42.647 -0.02 -0.33    -0.650 OA
DOCKED: BRANCH  32  34
DOCKED: ATOM     34  O   UNL d   1      29.252   0.854  41.359 -0.41 -0.78    -0.776 OA
DOCKED: ATOM     35  H   UNL d   1      29.156   1.797  41.167 -0.09 +0.15    +0.167 HD
DOCKED: ENDBRANCH  32  34
DOCKED: ENDBRANCH  31  32
DOCKED: ENDBRANCH  30  31
DOCKED: ENDBRANCH   6  30
DOCKED: BRANCH  29  36
DOCKED: ATOM     36  C   UNL d   1      22.828  -5.520  38.194 -0.08 +0.05    +0.190 C 
DOCKED: BRANCH  36  37
DOCKED: ATOM     37  O   UNL d   1      22.170  -4.774  39.177 -0.03 -0.07    -0.399 OA
DOCKED: ATOM     38  H   UNL d   1      22.874  -4.180  39.562 +0.03 +0.04    +0.209 HD
DOCKED: ENDBRANCH  36  37
DOCKED: ENDBRANCH  29  36
DOCKED: BRANCH  22  39
DOCKED: ATOM     39  C   UNL d   1      27.148  -6.666  42.198 -0.01 +0.02    +0.052 C 
DOCKED: BRANCH  39  40
DOCKED: ATOM     40  C   UNL d   1      28.679  -6.601  42.074 -0.01 +0.06    +0.115 C 
DOCKED: BRANCH  40  41
DOCKED: ATOM     41  C   UNL d   1      29.217  -7.051  40.732 -0.05 +0.14    +0.139 C 
DOCKED: ATOM     42  O   UNL d   1      29.747  -6.232  39.995 -0.04 -0.70    -0.650 OA
DOCKED: BRANCH  41  43
DOCKED: ATOM     43  O   UNL d   1      29.205  -8.351  40.362 -0.47 -1.21    -0.776 OA
DOCKED: ATOM     44  H   UNL d   1      29.394  -9.069  40.980 +0.01 +0.14    +0.167 HD
DOCKED: ENDBRANCH  41  43
DOCKED: ENDBRANCH  40  41
DOCKED: ENDBRANCH  39  40
DOCKED: ENDBRANCH  22  39
DOCKED: BRANCH  12  45
DOCKED: ATOM     45  C   UNL d   1      22.307  -4.622  32.275 -0.48 +0.00    +0.004 C 
DOCKED: ATOM     46  C   UNL d   1      22.452  -4.099  31.060 -0.50 +0.00    +0.012 C 
DOCKED: ENDBRANCH  12  45
DOCKED: BRANCH  17  47
DOCKED: ATOM     47  C   UNL d   1      23.633 -10.984  36.615 -0.16 +0.00    +0.004 C 
DOCKED: ATOM     48  C   UNL d   1      24.055 -11.985  35.838 -0.16 +0.00    +0.012 C 
DOCKED: ENDBRANCH  17  47
DOCKED: TORSDOF 12
DOCKED: TER
DOCKED: ENDMDL
________________________________________________________________________________


	BEGINNING GENETIC ALGORITHM DOCKING 37 of 100
Run: 37 Seed: 1325164228 1339007925 [ Run 37 of 100 GA/GALS ]
Beginning LAMARCKIAN GENETIC ALGORITHM (LGA), with a maximum of 25000000 energy evaluations.

Final-Value: -12.533


	FINAL GENETIC ALGORITHM DOCKED STATE
	_______________________________________________


Detailed state:  trans 1.105 -7.440 -8.448 quatxyzw 0.652347 -0.041644 0.744859 0.133773 center 8.781 34.984 -0.736 ntor 12 -23.6038 128.2270 26.4610 24.0655 135.1757 112.2105 -127.3898 180.0000 166.0544 118.1083 2.8317 32.7153
State:	  1.105  -7.440  -8.448   0.658 -0.042  0.752 164.625    -23.60  128.23   26.46   24.07  135.18  112.21 -127.39  180.00  166.05  118.11    2.83   32.72

DOCKED: MODEL       37
DOCKED: USER    Run = 37
DOCKED: USER    DPF = D:/Protein_go_brrr/autodock/final/1A3N/heme_Co/dock.dpf
DOCKED: USER  
DOCKED: USER    Estimated Free Energy of Binding    =   -7.23 kcal/mol  [=(1)+(2)+(3)-(4)]
DOCKED: USER    Estimated Inhibition Constant, Ki   =    5.02 uM (micromolar)  [Temperature = 298.15 K]
DOCKED: USER    
DOCKED: USER    (1) Final Intermolecular Energy     =  -10.81 kcal/mol
DOCKED: USER        vdW + Hbond + desolv Energy     =   -8.46 kcal/mol
DOCKED: USER        Electrostatic Energy            =   -2.35 kcal/mol
DOCKED: USER    (2) Final Total Internal Energy     =   -1.72 kcal/mol
DOCKED: USER    (3) Torsional Free Energy           =   +3.58 kcal/mol
DOCKED: USER    (4) Unbound System's Energy  [=(2)] =   -1.72 kcal/mol
DOCKED: USER    
DOCKED: USER    
DOCKED: USER    NEWDPF move heme_Co_opt.pdbqt
DOCKED: USER    NEWDPF about 8.781000 34.984000 -0.736000
DOCKED: USER    NEWDPF tran0 1.105441 -7.439825 -8.447740
DOCKED: USER    NEWDPF quaternion0 0.652347 -0.041644 0.744859 0.133773
DOCKED: USER    NEWDPF axisangle0 0.658263 -0.042022 0.751614 164.624655
DOCKED: USER    NEWDPF quat0 0.658263 -0.042022 0.751614 164.624655
DOCKED: USER    NEWDPF dihe0 -23.60 128.23 26.46 24.07 135.18 112.21 -127.39 180.00 166.05 118.11 2.83 32.72 
DOCKED: USER  keepresnum = 1 
DOCKED: USER  
DOCKED: REMARK  12 active torsions:
DOCKED: REMARK  status: ('A' for Active; 'I' for Inactive)
DOCKED: REMARK    1  A    between atoms: C_6  and  C_10 
DOCKED: REMARK    2  A    between atoms: C_10  and  C_11 
DOCKED: REMARK    3  A    between atoms: C_11  and  C_12 
DOCKED: REMARK    4  A    between atoms: C_12  and  O_14 
DOCKED: REMARK    5  A    between atoms: C_17  and  C_20 
DOCKED: REMARK    6  A    between atoms: C_24  and  C_27 
DOCKED: REMARK    7  A    between atoms: C_31  and  C_34 
DOCKED: REMARK    8  A    between atoms: C_34  and  C_35 
DOCKED: REMARK    9  A    between atoms: C_35  and  C_36 
DOCKED: REMARK   10  A    between atoms: C_36  and  O_38 
DOCKED: REMARK   11  A    between atoms: FE_43  and  C_44 
DOCKED: REMARK   12  A    between atoms: C_44  and  O_45 
DOCKED: USER                              x       y       z     vdW  Elec       q    Type
DOCKED: USER                           _______ _______ _______ _____ _____    ______ ____
DOCKED: ROOT
DOCKED: ATOM      1  C   UNL d   1       0.561  -7.524 -10.548 -0.11 +0.05    +0.064 A 
DOCKED: ATOM      2  C   UNL d   1       3.704  -4.868  -8.166 -0.30 +0.01    +0.064 C 
DOCKED: ATOM      3  C   UNL d   1       2.200  -6.728  -4.031 -0.21 +0.01    +0.064 A 
DOCKED: ATOM      4  C   UNL d   1      -0.749  -9.731  -6.470 -0.11 +0.02    +0.064 A 
DOCKED: ATOM      5  C   UNL d   1       1.505  -6.635 -10.198 -0.13 +0.04    +0.066 A 
DOCKED: ATOM      6  C   UNL d   1       2.250  -5.920 -11.156 -0.07 -0.01    -0.021 A 
DOCKED: ATOM      7  C   UNL d   1       3.176  -5.167 -10.460 -0.12 -0.01    -0.025 A 
DOCKED: ATOM      8  C   UNL d   1       2.946  -5.443  -9.108 -0.19 +0.02    +0.066 A 
DOCKED: ATOM      9  C   UNL d   1       4.243  -4.221 -11.032 -0.13 +0.01    +0.051 C 
DOCKED: ATOM     10  C   UNL d   1       3.525  -5.071  -6.750 -0.32 +0.01    +0.066 A 
DOCKED: ATOM     11  C   UNL d   1       4.194  -4.390  -5.709 -0.43 -0.00    -0.021 A 
DOCKED: ATOM     12  C   UNL d   1       3.733  -4.950  -4.514 -0.42 +0.00    +0.000 A 
DOCKED: ATOM     13  C   UNL d   1       2.811  -5.918  -4.913 -0.28 +0.01    +0.070 A 
DOCKED: ATOM     14  C   UNL d   1       5.133  -3.222  -5.866 -0.51 +0.00    +0.052 C 
DOCKED: ATOM     15  C   UNL d   1       1.265  -7.810  -4.270 -0.34 +0.01    +0.066 A 
DOCKED: ATOM     16  C   UNL d   1       0.781  -8.704  -3.326 -0.38 -0.00    -0.021 A 
DOCKED: ATOM     17  C   UNL d   1      -0.068  -9.574  -4.025 -0.38 +0.00    +0.000 A 
DOCKED: ATOM     18  C   UNL d   1      -0.048  -9.130  -5.343 -0.28 +0.02    +0.070 A 
DOCKED: ATOM     19  C   UNL d   1       1.131  -8.699  -1.854 -0.40 +0.00    +0.052 C 
DOCKED: ATOM     20  C   UNL d   1      -0.677  -9.370  -7.773 +0.01 +0.04    +0.066 A 
DOCKED: ATOM     21  C   UNL d   1      -1.371 -10.049  -8.772 -0.10 -0.01    -0.025 A 
DOCKED: ATOM     22  C   UNL d   1      -1.035  -9.417  -9.956 -0.09 -0.01    -0.021 A 
DOCKED: ATOM     23  C   UNL d   1      -0.136  -8.383  -9.618 -0.13 +0.05    +0.066 A 
DOCKED: ATOM     24  C   UNL d   1      -2.294 -11.255  -8.611 -0.10 +0.01    +0.051 C 
DOCKED: ATOM     25  N   UNL d   1       1.913  -6.345  -8.916 -0.13 -0.12    -0.248 N 
DOCKED: ATOM     26  N   UNL d   1       2.645  -5.951  -6.262 -0.12 -0.07    -0.248 N 
DOCKED: ATOM     27  N   UNL d   1       0.780  -8.097  -5.458 -0.20 -0.07    -0.248 N 
DOCKED: ATOM     28  N   UNL d   1       0.085  -8.353  -8.299 -0.13 -0.18    -0.248 N 
DOCKED: ATOM     29 FE   UNL d   1       1.310  -7.275  -7.086 -0.06 +0.00    +0.000 Fe
DOCKED: ENDROOT
DOCKED: BRANCH   6  30
DOCKED: ATOM     30  C   UNL d   1       2.122  -6.026 -12.672 -0.03 +0.02    +0.052 C 
DOCKED: BRANCH  30  31
DOCKED: ATOM     31  C   UNL d   1       1.043  -5.074 -13.188 -0.03 +0.04    +0.115 C 
DOCKED: BRANCH  31  32
DOCKED: ATOM     32  C   UNL d   1       0.137  -4.575 -12.083 -0.12 +0.09    +0.139 C 
DOCKED: ATOM     33  O   UNL d   1       0.288  -3.443 -11.648 +0.03 -0.38    -0.650 OA
DOCKED: BRANCH  32  34
DOCKED: ATOM     34  O   UNL d   1      -0.874  -5.327 -11.589 -0.08 -0.97    -0.776 OA
DOCKED: ATOM     35  H   UNL d   1      -1.342  -6.007 -12.093 +0.03 +0.17    +0.167 HD
DOCKED: ENDBRANCH  32  34
DOCKED: ENDBRANCH  31  32
DOCKED: ENDBRANCH  30  31
DOCKED: ENDBRANCH   6  30
DOCKED: BRANCH  29  36
DOCKED: ATOM     36  C   UNL d   1       2.866  -8.645  -7.401 -0.14 +0.04    +0.190 C 
DOCKED: BRANCH  36  37
DOCKED: ATOM     37  O   UNL d   1       3.486  -9.419  -8.387 -0.14 -0.06    -0.399 OA
DOCKED: ATOM     38  H   UNL d   1       3.157  -9.045  -9.251 +0.06 +0.04    +0.209 HD
DOCKED: ENDBRANCH  36  37
DOCKED: ENDBRANCH  29  36
DOCKED: BRANCH  22  39
DOCKED: ATOM     39  C   UNL d   1      -1.505  -9.830 -11.338 -0.06 +0.02    +0.052 C 
DOCKED: BRANCH  39  40
DOCKED: ATOM     40  C   UNL d   1      -1.973  -8.605 -12.141 -0.06 +0.06    +0.115 C 
DOCKED: BRANCH  40  41
DOCKED: ATOM     41  C   UNL d   1      -3.232  -7.953 -11.608 -0.03 +0.12    +0.139 C 
DOCKED: ATOM     42  O   UNL d   1      -4.157  -8.658 -11.230 -0.00 -0.42    -0.650 OA
DOCKED: BRANCH  41  43
DOCKED: ATOM     43  O   UNL d   1      -3.328  -6.614 -11.456 -0.02 -1.15    -0.776 OA
DOCKED: ATOM     44  H   UNL d   1      -2.882  -5.991 -12.045 +0.03 +0.20    +0.167 HD
DOCKED: ENDBRANCH  41  43
DOCKED: ENDBRANCH  40  41
DOCKED: ENDBRANCH  39  40
DOCKED: ENDBRANCH  22  39
DOCKED: BRANCH  12  45
DOCKED: ATOM     45  C   UNL d   1       4.042  -4.669  -3.050 -0.48 +0.00    +0.004 C 
DOCKED: ATOM     46  C   UNL d   1       4.639  -3.629  -2.474 -0.51 +0.00    +0.012 C 
DOCKED: ENDBRANCH  12  45
DOCKED: BRANCH  17  47
DOCKED: ATOM     47  C   UNL d   1      -0.816 -10.771  -3.539 -0.39 +0.00    +0.004 C 
DOCKED: ATOM     48  C   UNL d   1      -2.149 -10.834  -3.480 -0.36 -0.00    +0.012 C 
DOCKED: ENDBRANCH  17  47
DOCKED: TORSDOF 12
DOCKED: TER
DOCKED: ENDMDL
________________________________________________________________________________


	BEGINNING GENETIC ALGORITHM DOCKING 38 of 100
Run: 38 Seed: 318857906 524137700 [ Run 38 of 100 GA/GALS ]
Beginning LAMARCKIAN GENETIC ALGORITHM (LGA), with a maximum of 25000000 energy evaluations.

Final-Value: -10.949


	FINAL GENETIC ALGORITHM DOCKED STATE
	_______________________________________________


Detailed state:  trans 13.918 17.338 35.437 quatxyzw -0.087282 -0.363646 -0.259379 0.890430 center 8.781 34.984 -0.736 ntor 12 27.7341 111.3869 21.5326 120.8389 -56.5071 153.0661 1.7458 -48.1579 -122.4639 1.3953 -15.4670 10.7508
State:	 13.918  17.338  35.437  -0.192 -0.799 -0.570 54.145     27.73  111.39   21.53  120.84  -56.51  153.07    1.75  -48.16 -122.46    1.40  -15.47   10.75

DOCKED: MODEL       38
DOCKED: USER    Run = 38
DOCKED: USER    DPF = D:/Protein_go_brrr/autodock/final/1A3N/heme_Co/dock.dpf
DOCKED: USER  
DOCKED: USER    Estimated Free Energy of Binding    =   -6.52 kcal/mol  [=(1)+(2)+(3)-(4)]
DOCKED: USER    Estimated Inhibition Constant, Ki   =   16.49 uM (micromolar)  [Temperature = 298.15 K]
DOCKED: USER    
DOCKED: USER    (1) Final Intermolecular Energy     =  -10.10 kcal/mol
DOCKED: USER        vdW + Hbond + desolv Energy     =   -6.18 kcal/mol
DOCKED: USER        Electrostatic Energy            =   -3.93 kcal/mol
DOCKED: USER    (2) Final Total Internal Energy     =   -0.84 kcal/mol
DOCKED: USER    (3) Torsional Free Energy           =   +3.58 kcal/mol
DOCKED: USER    (4) Unbound System's Energy  [=(2)] =   -0.84 kcal/mol
DOCKED: USER    
DOCKED: USER    
DOCKED: USER    NEWDPF move heme_Co_opt.pdbqt
DOCKED: USER    NEWDPF about 8.781000 34.984000 -0.736000
DOCKED: USER    NEWDPF tran0 13.917580 17.338276 35.437108
DOCKED: USER    NEWDPF quaternion0 -0.087282 -0.363646 -0.259379 0.890430
DOCKED: USER    NEWDPF axisangle0 -0.191779 -0.799011 -0.569914 54.145286
DOCKED: USER    NEWDPF quat0 -0.191779 -0.799011 -0.569914 54.145286
DOCKED: USER    NEWDPF dihe0 27.73 111.39 21.53 120.84 -56.51 153.07 1.75 -48.16 -122.46 1.40 -15.47 10.75 
DOCKED: USER  keepresnum = 1 
DOCKED: USER  
DOCKED: REMARK  12 active torsions:
DOCKED: REMARK  status: ('A' for Active; 'I' for Inactive)
DOCKED: REMARK    1  A    between atoms: C_6  and  C_10 
DOCKED: REMARK    2  A    between atoms: C_10  and  C_11 
DOCKED: REMARK    3  A    between atoms: C_11  and  C_12 
DOCKED: REMARK    4  A    between atoms: C_12  and  O_14 
DOCKED: REMARK    5  A    between atoms: C_17  and  C_20 
DOCKED: REMARK    6  A    between atoms: C_24  and  C_27 
DOCKED: REMARK    7  A    between atoms: C_31  and  C_34 
DOCKED: REMARK    8  A    between atoms: C_34  and  C_35 
DOCKED: REMARK    9  A    between atoms: C_35  and  C_36 
DOCKED: REMARK   10  A    between atoms: C_36  and  O_38 
DOCKED: REMARK   11  A    between atoms: FE_43  and  C_44 
DOCKED: REMARK   12  A    between atoms: C_44  and  O_45 
DOCKED: USER                              x       y       z     vdW  Elec       q    Type
DOCKED: USER                           _______ _______ _______ _____ _____    ______ ____
DOCKED: ROOT
DOCKED: ATOM      1  C   UNL d   1      11.967  16.718  36.162 -0.10 +0.03    +0.064 A 
DOCKED: ATOM      2  C   UNL d   1      16.371  15.242  37.179 -0.12 +0.03    +0.064 C 
DOCKED: ATOM      3  C   UNL d   1      18.156  18.133  33.819 -0.18 +0.00    +0.064 A 
DOCKED: ATOM      4  C   UNL d   1      13.709  19.938  33.029 -0.24 +0.00    +0.064 A 
DOCKED: ATOM      5  C   UNL d   1      13.036  16.075  36.662 -0.13 +0.03    +0.066 A 
DOCKED: ATOM      6  C   UNL d   1      12.930  15.175  37.739 -0.11 -0.01    -0.021 A 
DOCKED: ATOM      7  C   UNL d   1      14.214  14.767  38.045 -0.10 -0.02    -0.025 A 
DOCKED: ATOM      8  C   UNL d   1      15.045  15.423  37.131 -0.13 +0.04    +0.066 A 
DOCKED: ATOM      9  C   UNL d   1      14.656  13.798  39.152 -0.09 +0.03    +0.051 C 
DOCKED: ATOM     10  C   UNL d   1      17.303  15.853  36.264 -0.09 +0.02    +0.066 A 
DOCKED: ATOM     11  C   UNL d   1      18.688  15.595  36.172 -0.15 -0.00    -0.021 A 
DOCKED: ATOM     12  C   UNL d   1      19.183  16.448  35.182 -0.18 +0.00    +0.000 A 
DOCKED: ATOM     13  C   UNL d   1      18.064  17.153  34.736 -0.18 +0.01    +0.070 A 
DOCKED: ATOM     14  C   UNL d   1      19.449  14.532  36.922 -0.14 +0.00    +0.052 C 
DOCKED: ATOM     15  C   UNL d   1      17.119  18.993  33.285 -0.22 +0.00    +0.066 A 
DOCKED: ATOM     16  C   UNL d   1      17.304  20.083  32.447 -0.24 +0.00    -0.021 A 
DOCKED: ATOM     17  C   UNL d   1      16.024  20.609  32.219 -0.31 -0.00    +0.000 A 
DOCKED: ATOM     18  C   UNL d   1      15.154  19.784  32.924 -0.25 +0.00    +0.070 A 
DOCKED: ATOM     19  C   UNL d   1      18.636  20.566  31.918 -0.14 -0.02    +0.052 C 
DOCKED: ATOM     20  C   UNL d   1      12.853  19.201  33.777 -0.13 +0.01    +0.066 A 
DOCKED: ATOM     21  C   UNL d   1      11.487  19.469  33.824 -0.15 -0.00    -0.025 A 
DOCKED: ATOM     22  C   UNL d   1      10.954  18.538  34.697 -0.12 -0.01    -0.021 A 
DOCKED: ATOM     23  C   UNL d   1      12.033  17.750  35.153 -0.07 +0.02    +0.066 A 
DOCKED: ATOM     24  C   UNL d   1      10.728  20.570  33.089 -0.14 +0.01    +0.051 C 
DOCKED: ATOM     25  N   UNL d   1      14.342  16.236  36.258 -0.10 -0.11    -0.248 N 
DOCKED: ATOM     26  N   UNL d   1      16.920  16.752  35.351 -0.13 -0.06    -0.248 N 
DOCKED: ATOM     27  N   UNL d   1      15.844  18.851  33.572 -0.14 -0.02    -0.248 N 
DOCKED: ATOM     28  N   UNL d   1      13.184  18.150  34.600 +0.21 -0.06    -0.248 N 
DOCKED: ATOM     29 FE   UNL d   1      15.134  17.622  34.834 -0.05 +0.00    +0.000 Fe
DOCKED: ENDROOT
DOCKED: BRANCH   6  30
DOCKED: ATOM     30  C   UNL d   1      11.655  14.795  38.486 -0.05 +0.03    +0.052 C 
DOCKED: BRANCH  30  31
DOCKED: ATOM     31  C   UNL d   1      10.731  13.975  37.587 -0.06 +0.08    +0.115 C 
DOCKED: BRANCH  31  32
DOCKED: ATOM     32  C   UNL d   1      11.411  12.744  37.028 -0.05 +0.18    +0.139 C 
DOCKED: ATOM     33  O   UNL d   1      11.388  12.539  35.824 -0.31 -1.30    -0.650 OA
DOCKED: BRANCH  32  34
DOCKED: ATOM     34  O   UNL d   1      12.092  11.880  37.817 -0.02 -1.18    -0.776 OA
DOCKED: ATOM     35  H   UNL d   1      11.939  11.774  38.766 +0.02 +0.15    +0.167 HD
DOCKED: ENDBRANCH  32  34
DOCKED: ENDBRANCH  31  32
DOCKED: ENDBRANCH  30  31
DOCKED: ENDBRANCH   6  30
DOCKED: BRANCH  29  36
DOCKED: ATOM     36  C   UNL d   1      15.332  18.971  36.427 -0.05 +0.03    +0.190 C 
DOCKED: BRANCH  36  37
DOCKED: ATOM     37  O   UNL d   1      15.097  19.119  37.797 -0.00 -0.05    -0.399 OA
DOCKED: ATOM     38  H   UNL d   1      14.661  18.266  38.076 +0.02 +0.04    +0.209 HD
DOCKED: ENDBRANCH  36  37
DOCKED: ENDBRANCH  29  36
DOCKED: BRANCH  22  39
DOCKED: ATOM     39  C   UNL d   1       9.499  18.457  35.117 -0.07 +0.02    +0.052 C 
DOCKED: BRANCH  39  40
DOCKED: ATOM     40  C   UNL d   1       8.843  17.182  34.562 -0.11 +0.06    +0.115 C 
DOCKED: BRANCH  40  41
DOCKED: ATOM     41  C   UNL d   1       7.414  16.966  35.013 +0.03 +0.16    +0.139 C 
DOCKED: ATOM     42  O   UNL d   1       6.500  17.430  34.347 -0.33 -0.77    -0.650 OA
DOCKED: BRANCH  41  43
DOCKED: ATOM     43  O   UNL d   1       7.117  16.201  36.087 -0.37 -1.45    -0.776 OA
DOCKED: ATOM     44  H   UNL d   1       7.728  16.082  36.825 +0.01 +0.18    +0.167 HD
DOCKED: ENDBRANCH  41  43
DOCKED: ENDBRANCH  40  41
DOCKED: ENDBRANCH  39  40
DOCKED: ENDBRANCH  22  39
DOCKED: BRANCH  12  45
DOCKED: ATOM     45  C   UNL d   1      20.572  16.665  34.597 -0.19 +0.00    +0.004 C 
DOCKED: ATOM     46  C   UNL d   1      21.050  16.406  33.383 -0.25 +0.00    +0.012 C 
DOCKED: ENDBRANCH  12  45
DOCKED: BRANCH  17  47
DOCKED: ATOM     47  C   UNL d   1      15.614  21.820  31.446 -0.29 -0.00    +0.004 C 
DOCKED: ATOM     48  C   UNL d   1      15.722  23.065  31.916 -0.19 -0.00    +0.012 C 
DOCKED: ENDBRANCH  17  47
DOCKED: TORSDOF 12
DOCKED: TER
DOCKED: ENDMDL
________________________________________________________________________________


	BEGINNING GENETIC ALGORITHM DOCKING 39 of 100
Run: 39 Seed: 324158417 1344034982 [ Run 39 of 100 GA/GALS ]
Beginning LAMARCKIAN GENETIC ALGORITHM (LGA), with a maximum of 25000000 energy evaluations.

Final-Value: -10.991


	FINAL GENETIC ALGORITHM DOCKED STATE
	_______________________________________________


Detailed state:  trans 9.377 -5.033 15.729 quatxyzw -0.138781 -0.480386 -0.447385 -0.741496 center 8.781 34.984 -0.736 ntor 12 102.7127 78.5959 140.2379 0.7813 123.5655 145.7277 -131.1941 134.7115 -136.4481 148.9076 -176.9611 21.3698
State:	  9.377  -5.033  15.729  -0.207 -0.716 -0.667 -84.282    102.71   78.60  140.24    0.78  123.57  145.73 -131.19  134.71 -136.45  148.91 -176.96   21.37

DOCKED: MODEL       39
DOCKED: USER    Run = 39
DOCKED: USER    DPF = D:/Protein_go_brrr/autodock/final/1A3N/heme_Co/dock.dpf
DOCKED: USER  
DOCKED: USER    Estimated Free Energy of Binding    =   -5.23 kcal/mol  [=(1)+(2)+(3)-(4)]
DOCKED: USER    Estimated Inhibition Constant, Ki   =  145.69 uM (micromolar)  [Temperature = 298.15 K]
DOCKED: USER    
DOCKED: USER    (1) Final Intermolecular Energy     =   -8.81 kcal/mol
DOCKED: USER        vdW + Hbond + desolv Energy     =   -6.92 kcal/mol
DOCKED: USER        Electrostatic Energy            =   -1.89 kcal/mol
DOCKED: USER    (2) Final Total Internal Energy     =   -2.18 kcal/mol
DOCKED: USER    (3) Torsional Free Energy           =   +3.58 kcal/mol
DOCKED: USER    (4) Unbound System's Energy  [=(2)] =   -2.18 kcal/mol
DOCKED: USER    
DOCKED: USER    
DOCKED: USER    NEWDPF move heme_Co_opt.pdbqt
DOCKED: USER    NEWDPF about 8.781000 34.984000 -0.736000
DOCKED: USER    NEWDPF tran0 9.376635 -5.033439 15.729073
DOCKED: USER    NEWDPF quaternion0 -0.138781 -0.480386 -0.447385 -0.741496
DOCKED: USER    NEWDPF axisangle0 -0.206840 -0.715971 -0.666786 -84.282064
DOCKED: USER    NEWDPF quat0 -0.206840 -0.715971 -0.666786 -84.282064
DOCKED: USER    NEWDPF dihe0 102.71 78.60 140.24 0.78 123.57 145.73 -131.19 134.71 -136.45 148.91 -176.96 21.37 
DOCKED: USER  keepresnum = 1 
DOCKED: USER  
DOCKED: REMARK  12 active torsions:
DOCKED: REMARK  status: ('A' for Active; 'I' for Inactive)
DOCKED: REMARK    1  A    between atoms: C_6  and  C_10 
DOCKED: REMARK    2  A    between atoms: C_10  and  C_11 
DOCKED: REMARK    3  A    between atoms: C_11  and  C_12 
DOCKED: REMARK    4  A    between atoms: C_12  and  O_14 
DOCKED: REMARK    5  A    between atoms: C_17  and  C_20 
DOCKED: REMARK    6  A    between atoms: C_24  and  C_27 
DOCKED: REMARK    7  A    between atoms: C_31  and  C_34 
DOCKED: REMARK    8  A    between atoms: C_34  and  C_35 
DOCKED: REMARK    9  A    between atoms: C_35  and  C_36 
DOCKED: REMARK   10  A    between atoms: C_36  and  O_38 
DOCKED: REMARK   11  A    between atoms: FE_43  and  C_44 
DOCKED: REMARK   12  A    between atoms: C_44  and  O_45 
DOCKED: USER                              x       y       z     vdW  Elec       q    Type
DOCKED: USER                           _______ _______ _______ _____ _____    ______ ____
DOCKED: ROOT
DOCKED: ATOM      1  C   UNL d   1      10.007  -4.268  13.797 -0.07 +0.03    +0.064 A 
DOCKED: ATOM      2  C   UNL d   1       5.864  -4.054  16.122 -0.28 +0.01    +0.064 C 
DOCKED: ATOM      3  C   UNL d   1       7.612  -6.860  19.572 -0.08 +0.01    +0.064 A 
DOCKED: ATOM      4  C   UNL d   1      11.970  -6.778  17.412 -0.07 +0.04    +0.064 A 
DOCKED: ATOM      5  C   UNL d   1       8.735  -4.033  14.161 -0.07 +0.03    +0.066 A 
DOCKED: ATOM      6  C   UNL d   1       7.894  -3.175  13.426 -0.14 -0.01    -0.021 A 
DOCKED: ATOM      7  C   UNL d   1       6.701  -3.098  14.117 -0.18 -0.01    -0.025 A 
DOCKED: ATOM      8  C   UNL d   1       6.859  -3.925  15.234 -0.15 +0.02    +0.066 A 
DOCKED: ATOM      9  C   UNL d   1       5.452  -2.282  13.753 -0.35 +0.01    +0.051 C 
DOCKED: ATOM     10  C   UNL d   1       5.926  -4.902  17.286 -0.23 +0.01    +0.066 A 
DOCKED: ATOM     11  C   UNL d   1       4.869  -5.189  18.178 -0.38 -0.00    -0.021 A 
DOCKED: ATOM     12  C   UNL d   1       5.406  -6.012  19.172 -0.29 +0.00    +0.000 A 
DOCKED: ATOM     13  C   UNL d   1       6.742  -6.176  18.807 -0.13 +0.01    +0.070 A 
DOCKED: ATOM     14  C   UNL d   1       3.430  -4.772  18.018 -0.41 +0.00    +0.052 C 
DOCKED: ATOM     15  C   UNL d   1       9.031  -7.083  19.375 -0.04 +0.01    +0.066 A 
DOCKED: ATOM     16  C   UNL d   1       9.904  -7.676  20.277 -0.09 -0.01    -0.021 A 
DOCKED: ATOM     17  C   UNL d   1      11.162  -7.652  19.659 -0.14 +0.00    +0.000 A 
DOCKED: ATOM     18  C   UNL d   1      10.954  -7.060  18.418 -0.06 +0.03    +0.070 A 
DOCKED: ATOM     19  C   UNL d   1       9.524  -8.218  21.637 -0.20 +0.01    +0.052 C 
DOCKED: ATOM     20  C   UNL d   1      11.807  -6.126  16.236 -0.04 +0.03    +0.066 A 
DOCKED: ATOM     21  C   UNL d   1      12.869  -5.883  15.367 -0.06 -0.01    -0.025 A 
DOCKED: ATOM     22  C   UNL d   1      12.327  -5.186  14.302 -0.02 -0.01    -0.021 A 
DOCKED: ATOM     23  C   UNL d   1      10.953  -5.027  14.582 -0.02 +0.03    +0.066 A 
DOCKED: ATOM     24  C   UNL d   1      14.332  -6.277  15.551 -0.13 +0.03    +0.051 C 
DOCKED: ATOM     25  N   UNL d   1       8.108  -4.522  15.284 -0.03 -0.08    -0.248 N 
DOCKED: ATOM     26  N   UNL d   1       7.041  -5.551  17.637 -0.06 -0.04    -0.248 N 
DOCKED: ATOM     27  N   UNL d   1       9.679  -6.707  18.295 -0.00 -0.07    -0.248 N 
DOCKED: ATOM     28  N   UNL d   1      10.635  -5.593  15.753 +0.00 -0.09    -0.248 N 
DOCKED: ATOM     29 FE   UNL d   1       8.943  -5.680  16.877 -0.02 +0.00    +0.000 Fe
DOCKED: ENDROOT
DOCKED: BRANCH   6  30
DOCKED: ATOM     30  C   UNL d   1       8.262  -2.404  12.162 -0.22 +0.02    +0.052 C 
DOCKED: BRANCH  30  31
DOCKED: ATOM     31  C   UNL d   1       8.761  -1.003  12.513 -0.20 +0.05    +0.115 C 
DOCKED: BRANCH  31  32
DOCKED: ATOM     32  C   UNL d   1       9.678  -1.002  13.717 -0.05 +0.15    +0.139 C 
DOCKED: ATOM     33  O   UNL d   1      10.888  -0.969  13.550 -0.04 -0.64    -0.650 OA
DOCKED: BRANCH  32  34
DOCKED: ATOM     34  O   UNL d   1       9.201  -0.988  14.983 -0.42 -1.05    -0.776 OA
DOCKED: ATOM     35  H   UNL d   1       9.114  -1.773  15.540 +0.05 +0.13    +0.167 HD
DOCKED: ENDBRANCH  32  34
DOCKED: ENDBRANCH  31  32
DOCKED: ENDBRANCH  30  31
DOCKED: ENDBRANCH   6  30
DOCKED: BRANCH  29  36
DOCKED: ATOM     36  C   UNL d   1       9.431  -3.859  17.794 -0.06 +0.05    +0.190 C 
DOCKED: BRANCH  36  37
DOCKED: ATOM     37  O   UNL d   1       9.471  -2.478  17.577 -0.05 -0.15    -0.399 OA
DOCKED: ATOM     38  H   UNL d   1       9.716  -2.376  16.615 +0.06 +0.11    +0.209 HD
DOCKED: ENDBRANCH  36  37
DOCKED: ENDBRANCH  29  36
DOCKED: BRANCH  22  39
DOCKED: ATOM     39  C   UNL d   1      13.106  -4.648  13.116 -0.03 +0.02    +0.052 C 
DOCKED: BRANCH  39  40
DOCKED: ATOM     40  C   UNL d   1      12.543  -5.208  11.799 -0.12 +0.05    +0.115 C 
DOCKED: BRANCH  40  41
DOCKED: ATOM     41  C   UNL d   1      12.073  -6.645  11.881 -0.16 +0.08    +0.139 C 
DOCKED: ATOM     42  O   UNL d   1      12.875  -7.549  11.691 -0.01 -0.29    -0.650 OA
DOCKED: BRANCH  41  43
DOCKED: ATOM     43  O   UNL d   1      10.811  -6.960  12.246 +0.05 -0.46    -0.776 OA
DOCKED: ATOM     44  H   UNL d   1      10.342  -7.725  11.887 -0.54 +0.06    +0.167 HD
DOCKED: ENDBRANCH  41  43
DOCKED: ENDBRANCH  40  41
DOCKED: ENDBRANCH  39  40
DOCKED: ENDBRANCH  22  39
DOCKED: BRANCH  12  45
DOCKED: ATOM     45  C   UNL d   1       4.808  -6.674  20.406 -0.36 +0.00    +0.004 C 
DOCKED: ATOM     46  C   UNL d   1       3.608  -6.540  20.965 -0.43 +0.00    +0.012 C 
DOCKED: ENDBRANCH  12  45
DOCKED: BRANCH  17  47
DOCKED: ATOM     47  C   UNL d   1      12.490  -8.094  20.182 -0.24 +0.00    +0.004 C 
DOCKED: ATOM     48  C   UNL d   1      13.070  -9.247  19.842 -0.39 +0.01    +0.012 C 
DOCKED: ENDBRANCH  17  47
DOCKED: TORSDOF 12
DOCKED: TER
DOCKED: ENDMDL
________________________________________________________________________________


	BEGINNING GENETIC ALGORITHM DOCKING 40 of 100
Run: 40 Seed: 1311358833 448988558 [ Run 40 of 100 GA/GALS ]
Beginning LAMARCKIAN GENETIC ALGORITHM (LGA), with a maximum of 25000000 energy evaluations.

Final-Value: -17.591


	FINAL GENETIC ALGORITHM DOCKED STATE
	_______________________________________________


Detailed state:  trans 8.150 12.127 28.098 quatxyzw -0.752811 0.392382 0.516577 0.111624 center 8.781 34.984 -0.736 ntor 12 -61.1532 98.3597 -122.2588 -108.8173 -90.0031 -13.0465 -86.7705 -164.9682 39.6295 -16.4704 -44.0129 -179.3869
State:	  8.150  12.127  28.098  -0.758  0.395  0.520 167.182    -61.15   98.36 -122.26 -108.82  -90.00  -13.05  -86.77 -164.97   39.63  -16.47  -44.01 -179.39

DOCKED: MODEL       40
DOCKED: USER    Run = 40
DOCKED: USER    DPF = D:/Protein_go_brrr/autodock/final/1A3N/heme_Co/dock.dpf
DOCKED: USER  
DOCKED: USER    Estimated Free Energy of Binding    =  -13.56 kcal/mol  [=(1)+(2)+(3)-(4)]
DOCKED: USER    Estimated Inhibition Constant, Ki   =  114.01 pM (picomolar)  [Temperature = 298.15 K]
DOCKED: USER    
DOCKED: USER    (1) Final Intermolecular Energy     =  -17.14 kcal/mol
DOCKED: USER        vdW + Hbond + desolv Energy     =  -15.34 kcal/mol
DOCKED: USER        Electrostatic Energy            =   -1.81 kcal/mol
DOCKED: USER    (2) Final Total Internal Energy     =   -0.45 kcal/mol
DOCKED: USER    (3) Torsional Free Energy           =   +3.58 kcal/mol
DOCKED: USER    (4) Unbound System's Energy  [=(2)] =   -0.45 kcal/mol
DOCKED: USER    
DOCKED: USER    
DOCKED: USER    NEWDPF move heme_Co_opt.pdbqt
DOCKED: USER    NEWDPF about 8.781000 34.984000 -0.736000
DOCKED: USER    NEWDPF tran0 8.149794 12.126876 28.097624
DOCKED: USER    NEWDPF quaternion0 -0.752811 0.392382 0.516577 0.111624
DOCKED: USER    NEWDPF axisangle0 -0.757546 0.394849 0.519825 167.182110
DOCKED: USER    NEWDPF quat0 -0.757546 0.394849 0.519825 167.182110
DOCKED: USER    NEWDPF dihe0 -61.15 98.36 -122.26 -108.82 -90.00 -13.05 -86.77 -164.97 39.63 -16.47 -44.01 -179.39 
DOCKED: USER  keepresnum = 1 
DOCKED: USER  
DOCKED: REMARK  12 active torsions:
DOCKED: REMARK  status: ('A' for Active; 'I' for Inactive)
DOCKED: REMARK    1  A    between atoms: C_6  and  C_10 
DOCKED: REMARK    2  A    between atoms: C_10  and  C_11 
DOCKED: REMARK    3  A    between atoms: C_11  and  C_12 
DOCKED: REMARK    4  A    between atoms: C_12  and  O_14 
DOCKED: REMARK    5  A    between atoms: C_17  and  C_20 
DOCKED: REMARK    6  A    between atoms: C_24  and  C_27 
DOCKED: REMARK    7  A    between atoms: C_31  and  C_34 
DOCKED: REMARK    8  A    between atoms: C_34  and  C_35 
DOCKED: REMARK    9  A    between atoms: C_35  and  C_36 
DOCKED: REMARK   10  A    between atoms: C_36  and  O_38 
DOCKED: REMARK   11  A    between atoms: FE_43  and  C_44 
DOCKED: REMARK   12  A    between atoms: C_44  and  O_45 
DOCKED: USER                              x       y       z     vdW  Elec       q    Type
DOCKED: USER                           _______ _______ _______ _____ _____    ______ ____
DOCKED: ROOT
DOCKED: ATOM      1  C   UNL d   1       8.342  12.959  30.094 -0.27 +0.02    +0.064 A 
DOCKED: ATOM      2  C   UNL d   1       6.574  14.731  26.052 -0.46 +0.01    +0.064 C 
DOCKED: ATOM      3  C   UNL d   1       7.964  10.820  23.685 -0.24 +0.00    +0.064 A 
DOCKED: ATOM      4  C   UNL d   1       9.431   8.824  27.872 -0.37 +0.01    +0.064 A 
DOCKED: ATOM      5  C   UNL d   1       7.789  13.746  29.157 -0.30 +0.01    +0.066 A 
DOCKED: ATOM      6  C   UNL d   1       7.187  14.978  29.476 -0.37 -0.00    -0.021 A 
DOCKED: ATOM      7  C   UNL d   1       6.655  15.477  28.303 -0.44 -0.00    -0.025 A 
DOCKED: ATOM      8  C   UNL d   1       6.970  14.537  27.316 -0.38 +0.01    +0.066 A 
DOCKED: ATOM      9  C   UNL d   1       5.878  16.787  28.103 -0.45 +0.00    +0.051 C 
DOCKED: ATOM     10  C   UNL d   1       6.873  13.832  24.965 -0.36 +0.00    +0.066 A 
DOCKED: ATOM     11  C   UNL d   1       6.608  14.047  23.595 -0.34 -0.00    -0.021 A 
DOCKED: ATOM     12  C   UNL d   1       7.027  12.892  22.927 -0.40 +0.00    +0.000 A 
DOCKED: ATOM     13  C   UNL d   1       7.527  12.067  23.935 -0.34 +0.00    +0.070 A 
DOCKED: ATOM     14  C   UNL d   1       6.079  15.315  22.977 -0.47 +0.00    +0.052 C 
DOCKED: ATOM     15  C   UNL d   1       8.461   9.818  24.607 -0.39 +0.00    +0.066 A 
DOCKED: ATOM     16  C   UNL d   1       8.761   8.497  24.304 -0.55 -0.00    -0.021 A 
DOCKED: ATOM     17  C   UNL d   1       9.182   7.916  25.509 -0.46 +0.00    +0.000 A 
DOCKED: ATOM     18  C   UNL d   1       9.122   8.937  26.452 -0.37 +0.01    +0.070 A 
DOCKED: ATOM     19  C   UNL d   1       8.639   7.861  22.937 -0.39 +0.00    +0.052 C 
DOCKED: ATOM     20  C   UNL d   1       9.298   9.779  28.823 -0.39 +0.01    +0.066 A 
DOCKED: ATOM     21  C   UNL d   1       9.593   9.539  30.164 -0.43 -0.01    -0.025 A 
DOCKED: ATOM     22  C   UNL d   1       9.316  10.722  30.824 -0.29 -0.01    -0.021 A 
DOCKED: ATOM     23  C   UNL d   1       8.850  11.628  29.848 -0.28 +0.01    +0.066 A 
DOCKED: ATOM     24  C   UNL d   1      10.096   8.240  30.789 -0.54 +0.02    +0.051 C 
DOCKED: ATOM     25  N   UNL d   1       7.677  13.456  27.816 -0.21 -0.02    -0.248 N 
DOCKED: ATOM     26  N   UNL d   1       7.485  12.658  25.158 -0.23 -0.01    -0.248 N 
DOCKED: ATOM     27  N   UNL d   1       8.660  10.047  25.886 -0.23 -0.02    -0.248 N 
DOCKED: ATOM     28  N   UNL d   1       8.835  11.061  28.636 -0.22 -0.03    -0.248 N 
DOCKED: ATOM     29 FE   UNL d   1       8.199  11.649  26.797 -0.08 +0.00    +0.000 Fe
DOCKED: ENDROOT
DOCKED: BRANCH   6  30
DOCKED: ATOM     30  C   UNL d   1       7.062  15.597  30.864 -0.35 +0.02    +0.052 C 
DOCKED: BRANCH  30  31
DOCKED: ATOM     31  C   UNL d   1       8.346  15.383  31.665 -0.25 +0.05    +0.115 C 
DOCKED: BRANCH  31  32
DOCKED: ATOM     32  C   UNL d   1       8.074  15.102  33.127 -0.19 +0.10    +0.139 C 
DOCKED: ATOM     33  O   UNL d   1       8.783  14.308  33.728 +0.03 -0.44    -0.650 OA
DOCKED: BRANCH  32  34
DOCKED: ATOM     34  O   UNL d   1       7.096  15.740  33.810 -0.15 -0.98    -0.776 OA
DOCKED: ATOM     35  H   UNL d   1       7.093  16.688  33.998 +0.03 +0.19    +0.167 HD
DOCKED: ENDBRANCH  32  34
DOCKED: ENDBRANCH  31  32
DOCKED: ENDBRANCH  30  31
DOCKED: ENDBRANCH   6  30
DOCKED: BRANCH  29  36
DOCKED: ATOM     36  C   UNL d   1       6.260  10.979  27.227 +0.08 +0.04    +0.190 C 
DOCKED: BRANCH  36  37
DOCKED: ATOM     37  O   UNL d   1       5.449   9.840  27.224 -0.36 -0.10    -0.399 OA
DOCKED: ATOM     38  H   UNL d   1       5.945   9.173  26.673 +0.13 +0.04    +0.209 HD
DOCKED: ENDBRANCH  36  37
DOCKED: ENDBRANCH  29  36
DOCKED: BRANCH  22  39
DOCKED: ATOM     39  C   UNL d   1       9.432  10.942  32.321 -0.27 +0.03    +0.052 C 
DOCKED: BRANCH  39  40
DOCKED: ATOM     40  C   UNL d   1       8.228  10.329  33.055 -0.37 +0.05    +0.115 C 
DOCKED: BRANCH  40  41
DOCKED: ATOM     41  C   UNL d   1       8.478  10.023  34.516 -0.26 +0.08    +0.139 C 
DOCKED: ATOM     42  O   UNL d   1       9.618   9.790  34.893 -0.23 -0.51    -0.650 OA
DOCKED: BRANCH  41  43
DOCKED: ATOM     43  O   UNL d   1       7.488  10.085  35.434 -0.37 -0.48    -0.776 OA
DOCKED: ATOM     44  H   UNL d   1       7.493  10.720  36.162 +0.06 +0.10    +0.167 HD
DOCKED: ENDBRANCH  41  43
DOCKED: ENDBRANCH  40  41
DOCKED: ENDBRANCH  39  40
DOCKED: ENDBRANCH  22  39
DOCKED: BRANCH  12  45
DOCKED: ATOM     45  C   UNL d   1       7.031  12.485  21.460 -0.59 -0.00    +0.004 C 
DOCKED: ATOM     46  C   UNL d   1       6.403  11.492  20.836 -0.69 -0.00    +0.012 C 
DOCKED: ENDBRANCH  12  45
DOCKED: BRANCH  17  47
DOCKED: ATOM     47  C   UNL d   1       9.569   6.504  25.804 -0.60 +0.00    +0.004 C 
DOCKED: ATOM     48  C   UNL d   1       8.847   5.688  26.575 -0.71 +0.00    +0.012 C 
DOCKED: ENDBRANCH  17  47
DOCKED: TORSDOF 12
DOCKED: TER
DOCKED: ENDMDL
________________________________________________________________________________


	BEGINNING GENETIC ALGORITHM DOCKING 41 of 100
Run: 41 Seed: 1059873328 1073542051 [ Run 41 of 100 GA/GALS ]
Beginning LAMARCKIAN GENETIC ALGORITHM (LGA), with a maximum of 25000000 energy evaluations.

Final-Value: -12.019


	FINAL GENETIC ALGORITHM DOCKED STATE
	_______________________________________________


Detailed state:  trans 1.110 -7.591 -8.417 quatxyzw 0.652147 -0.031427 0.748433 0.116468 center 8.781 34.984 -0.736 ntor 12 153.3935 127.8763 38.5533 25.1150 142.4631 130.0442 -136.7280 160.2549 -133.4212 129.2771 -176.2697 49.6510
State:	  1.110  -7.591  -8.417   0.657 -0.032  0.754 166.623    153.39  127.88   38.55   25.11  142.46  130.04 -136.73  160.25 -133.42  129.28 -176.27   49.65

DOCKED: MODEL       41
DOCKED: USER    Run = 41
DOCKED: USER    DPF = D:/Protein_go_brrr/autodock/final/1A3N/heme_Co/dock.dpf
DOCKED: USER  
DOCKED: USER    Estimated Free Energy of Binding    =   -6.36 kcal/mol  [=(1)+(2)+(3)-(4)]
DOCKED: USER    Estimated Inhibition Constant, Ki   =   21.60 uM (micromolar)  [Temperature = 298.15 K]
DOCKED: USER    
DOCKED: USER    (1) Final Intermolecular Energy     =   -9.94 kcal/mol
DOCKED: USER        vdW + Hbond + desolv Energy     =   -8.25 kcal/mol
DOCKED: USER        Electrostatic Energy            =   -1.70 kcal/mol
DOCKED: USER    (2) Final Total Internal Energy     =   -2.07 kcal/mol
DOCKED: USER    (3) Torsional Free Energy           =   +3.58 kcal/mol
DOCKED: USER    (4) Unbound System's Energy  [=(2)] =   -2.07 kcal/mol
DOCKED: USER    
DOCKED: USER    
DOCKED: USER    NEWDPF move heme_Co_opt.pdbqt
DOCKED: USER    NEWDPF about 8.781000 34.984000 -0.736000
DOCKED: USER    NEWDPF tran0 1.110252 -7.591457 -8.417080
DOCKED: USER    NEWDPF quaternion0 0.652147 -0.031427 0.748433 0.116468
DOCKED: USER    NEWDPF axisangle0 0.656615 -0.031642 0.753562 166.623447
DOCKED: USER    NEWDPF quat0 0.656615 -0.031642 0.753562 166.623447
DOCKED: USER    NEWDPF dihe0 153.39 127.88 38.55 25.11 142.46 130.04 -136.73 160.25 -133.42 129.28 -176.27 49.65 
DOCKED: USER  keepresnum = 1 
DOCKED: USER  
DOCKED: REMARK  12 active torsions:
DOCKED: REMARK  status: ('A' for Active; 'I' for Inactive)
DOCKED: REMARK    1  A    between atoms: C_6  and  C_10 
DOCKED: REMARK    2  A    between atoms: C_10  and  C_11 
DOCKED: REMARK    3  A    between atoms: C_11  and  C_12 
DOCKED: REMARK    4  A    between atoms: C_12  and  O_14 
DOCKED: REMARK    5  A    between atoms: C_17  and  C_20 
DOCKED: REMARK    6  A    between atoms: C_24  and  C_27 
DOCKED: REMARK    7  A    between atoms: C_31  and  C_34 
DOCKED: REMARK    8  A    between atoms: C_34  and  C_35 
DOCKED: REMARK    9  A    between atoms: C_35  and  C_36 
DOCKED: REMARK   10  A    between atoms: C_36  and  O_38 
DOCKED: REMARK   11  A    between atoms: FE_43  and  C_44 
DOCKED: REMARK   12  A    between atoms: C_44  and  O_45 
DOCKED: USER                              x       y       z     vdW  Elec       q    Type
DOCKED: USER                           _______ _______ _______ _____ _____    ______ ____
DOCKED: ROOT
DOCKED: ATOM      1  C   UNL d   1       0.577  -7.748 -10.516 -0.10 +0.04    +0.064 A 
DOCKED: ATOM      2  C   UNL d   1       3.742  -5.045  -8.217 -0.29 +0.01    +0.064 C 
DOCKED: ATOM      3  C   UNL d   1       2.188  -6.727  -4.023 -0.21 +0.01    +0.064 A 
DOCKED: ATOM      4  C   UNL d   1      -0.787  -9.781  -6.366 -0.11 +0.02    +0.064 A 
DOCKED: ATOM      5  C   UNL d   1       1.531  -6.859 -10.194 -0.12 +0.04    +0.066 A 
DOCKED: ATOM      6  C   UNL d   1       2.291  -6.191 -11.174 -0.07 -0.01    -0.021 A 
DOCKED: ATOM      7  C   UNL d   1       3.223  -5.425 -10.501 -0.11 -0.01    -0.025 A 
DOCKED: ATOM      8  C   UNL d   1       2.982  -5.646  -9.141 -0.18 +0.02    +0.066 A 
DOCKED: ATOM      9  C   UNL d   1       4.306  -4.516 -11.102 -0.11 +0.01    +0.051 C 
DOCKED: ATOM     10  C   UNL d   1       3.552  -5.192  -6.795 -0.31 +0.01    +0.066 A 
DOCKED: ATOM     11  C   UNL d   1       4.223  -4.481  -5.776 -0.43 -0.00    -0.021 A 
DOCKED: ATOM     12  C   UNL d   1       3.748  -4.989  -4.564 -0.42 +0.00    +0.000 A 
DOCKED: ATOM     13  C   UNL d   1       2.815  -5.959  -4.932 -0.29 +0.01    +0.070 A 
DOCKED: ATOM     14  C   UNL d   1       5.179  -3.333  -5.971 -0.52 +0.00    +0.052 C 
DOCKED: ATOM     15  C   UNL d   1       1.240  -7.805  -4.228 -0.34 +0.01    +0.066 A 
DOCKED: ATOM     16  C   UNL d   1       0.738  -8.655  -3.253 -0.39 -0.00    -0.021 A 
DOCKED: ATOM     17  C   UNL d   1      -0.118  -9.540  -3.924 -0.39 +0.00    +0.000 A 
DOCKED: ATOM     18  C   UNL d   1      -0.084  -9.147  -5.258 -0.28 +0.02    +0.070 A 
DOCKED: ATOM     19  C   UNL d   1       1.079  -8.599  -1.780 -0.42 +0.00    +0.052 C 
DOCKED: ATOM     20  C   UNL d   1      -0.702  -9.471  -7.682 -0.04 +0.03    +0.066 A 
DOCKED: ATOM     21  C   UNL d   1      -1.399 -10.178  -8.658 -0.12 -0.01    -0.025 A 
DOCKED: ATOM     22  C   UNL d   1      -1.048  -9.596  -9.863 -0.10 -0.01    -0.021 A 
DOCKED: ATOM     23  C   UNL d   1      -0.137  -8.562  -9.559 -0.12 +0.05    +0.066 A 
DOCKED: ATOM     24  C   UNL d   1      -2.339 -11.364  -8.457 -0.11 +0.01    +0.051 C 
DOCKED: ATOM     25  N   UNL d   1       1.936  -6.526  -8.921 -0.13 -0.12    -0.248 N 
DOCKED: ATOM     26  N   UNL d   1       2.657  -6.041  -6.280 -0.14 -0.07    -0.248 N 
DOCKED: ATOM     27  N   UNL d   1       0.758  -8.130  -5.406 -0.21 -0.07    -0.248 N 
DOCKED: ATOM     28  N   UNL d   1       0.077  -8.484  -8.240 -0.12 -0.17    -0.248 N 
DOCKED: ATOM     29 FE   UNL d   1       1.309  -7.377  -7.061 -0.06 +0.00    +0.000 Fe
DOCKED: ENDROOT
DOCKED: BRANCH   6  30
DOCKED: ATOM     30  C   UNL d   1       2.171  -6.353 -12.686 -0.02 +0.01    +0.052 C 
DOCKED: BRANCH  30  31
DOCKED: ATOM     31  C   UNL d   1       3.134  -7.428 -13.189 -0.01 +0.02    +0.115 C 
DOCKED: BRANCH  31  32
DOCKED: ATOM     32  C   UNL d   1       3.120  -8.667 -12.320 -0.04 +0.02    +0.139 C 
DOCKED: ATOM     33  O   UNL d   1       2.389  -9.600 -12.616 +0.01 -0.11    -0.650 OA
DOCKED: BRANCH  32  34
DOCKED: ATOM     34  O   UNL d   1       3.932  -8.799 -11.245 +0.03 -0.12    -0.776 OA
DOCKED: ATOM     35  H   UNL d   1       3.707  -9.305 -10.452 +0.04 +0.03    +0.167 HD
DOCKED: ENDBRANCH  32  34
DOCKED: ENDBRANCH  31  32
DOCKED: ENDBRANCH  30  31
DOCKED: ENDBRANCH   6  30
DOCKED: BRANCH  29  36
DOCKED: ATOM     36  C   UNL d   1       2.848  -8.779  -7.314 -0.16 +0.04    +0.190 C 
DOCKED: BRANCH  36  37
DOCKED: ATOM     37  O   UNL d   1       3.638  -9.404  -8.284 -0.10 -0.06    -0.399 OA
DOCKED: ATOM     38  H   UNL d   1       3.510  -8.857  -9.110 +0.06 +0.04    +0.209 HD
DOCKED: ENDBRANCH  36  37
DOCKED: ENDBRANCH  29  36
DOCKED: BRANCH  22  39
DOCKED: ATOM     39  C   UNL d   1      -1.515 -10.055 -11.231 -0.05 +0.02    +0.052 C 
DOCKED: BRANCH  39  40
DOCKED: ATOM     40  C   UNL d   1      -1.559  -8.874 -12.214 -0.04 +0.05    +0.115 C 
DOCKED: BRANCH  40  41
DOCKED: ATOM     41  C   UNL d   1      -2.422  -7.715 -11.760 -0.04 +0.13    +0.139 C 
DOCKED: ATOM     42  O   UNL d   1      -3.619  -7.893 -11.584 -0.01 -0.54    -0.650 OA
DOCKED: BRANCH  41  43
DOCKED: ATOM     43  O   UNL d   1      -1.891  -6.509 -11.459 +0.06 -1.23    -0.776 OA
DOCKED: ATOM     44  H   UNL d   1      -1.226  -6.081 -12.015 +0.03 +0.18    +0.167 HD
DOCKED: ENDBRANCH  41  43
DOCKED: ENDBRANCH  40  41
DOCKED: ENDBRANCH  39  40
DOCKED: ENDBRANCH  22  39
DOCKED: BRANCH  12  45
DOCKED: ATOM     45  C   UNL d   1       4.051  -4.657  -3.109 -0.48 +0.00    +0.004 C 
DOCKED: ATOM     46  C   UNL d   1       4.643  -3.595  -2.568 -0.52 +0.00    +0.012 C 
DOCKED: ENDBRANCH  12  45
DOCKED: BRANCH  17  47
DOCKED: ATOM     47  C   UNL d   1      -0.886 -10.708  -3.398 -0.40 +0.00    +0.004 C 
DOCKED: ATOM     48  C   UNL d   1      -2.215 -10.811  -3.473 -0.35 -0.00    +0.012 C 
DOCKED: ENDBRANCH  17  47
DOCKED: TORSDOF 12
DOCKED: TER
DOCKED: ENDMDL
________________________________________________________________________________


	BEGINNING GENETIC ALGORITHM DOCKING 42 of 100
Run: 42 Seed: 44504153 358102742 [ Run 42 of 100 GA/GALS ]
Beginning LAMARCKIAN GENETIC ALGORITHM (LGA), with a maximum of 25000000 energy evaluations.

Final-Value: -12.634


	FINAL GENETIC ALGORITHM DOCKED STATE
	_______________________________________________


Detailed state:  trans 8.432 14.416 33.649 quatxyzw 0.725825 -0.375778 -0.569260 -0.088951 center 8.781 34.984 -0.736 ntor 12 168.6771 -19.5343 -130.2266 13.5426 120.2120 98.4960 -171.3723 161.8544 -77.7336 87.6470 -175.3264 -161.1602
State:	  8.432  14.416  33.649   0.729 -0.377 -0.572 -169.794    168.68  -19.53 -130.23   13.54  120.21   98.50 -171.37  161.85  -77.73   87.65 -175.33 -161.16

DOCKED: MODEL       42
DOCKED: USER    Run = 42
DOCKED: USER    DPF = D:/Protein_go_brrr/autodock/final/1A3N/heme_Co/dock.dpf
DOCKED: USER  
DOCKED: USER    Estimated Free Energy of Binding    =   -7.33 kcal/mol  [=(1)+(2)+(3)-(4)]
DOCKED: USER    Estimated Inhibition Constant, Ki   =    4.21 uM (micromolar)  [Temperature = 298.15 K]
DOCKED: USER    
DOCKED: USER    (1) Final Intermolecular Energy     =  -10.91 kcal/mol
DOCKED: USER        vdW + Hbond + desolv Energy     =   -9.15 kcal/mol
DOCKED: USER        Electrostatic Energy            =   -1.76 kcal/mol
DOCKED: USER    (2) Final Total Internal Energy     =   -1.72 kcal/mol
DOCKED: USER    (3) Torsional Free Energy           =   +3.58 kcal/mol
DOCKED: USER    (4) Unbound System's Energy  [=(2)] =   -1.72 kcal/mol
DOCKED: USER    
DOCKED: USER    
DOCKED: USER    NEWDPF move heme_Co_opt.pdbqt
DOCKED: USER    NEWDPF about 8.781000 34.984000 -0.736000
DOCKED: USER    NEWDPF tran0 8.431757 14.416246 33.649290
DOCKED: USER    NEWDPF quaternion0 0.725825 -0.375778 -0.569260 -0.088951
DOCKED: USER    NEWDPF axisangle0 0.728713 -0.377274 -0.571526 -169.793526
DOCKED: USER    NEWDPF quat0 0.728713 -0.377274 -0.571526 -169.793526
DOCKED: USER    NEWDPF dihe0 168.68 -19.53 -130.23 13.54 120.21 98.50 -171.37 161.85 -77.73 87.65 -175.33 -161.16 
DOCKED: USER  keepresnum = 1 
DOCKED: USER  
DOCKED: REMARK  12 active torsions:
DOCKED: REMARK  status: ('A' for Active; 'I' for Inactive)
DOCKED: REMARK    1  A    between atoms: C_6  and  C_10 
DOCKED: REMARK    2  A    between atoms: C_10  and  C_11 
DOCKED: REMARK    3  A    between atoms: C_11  and  C_12 
DOCKED: REMARK    4  A    between atoms: C_12  and  O_14 
DOCKED: REMARK    5  A    between atoms: C_17  and  C_20 
DOCKED: REMARK    6  A    between atoms: C_24  and  C_27 
DOCKED: REMARK    7  A    between atoms: C_31  and  C_34 
DOCKED: REMARK    8  A    between atoms: C_34  and  C_35 
DOCKED: REMARK    9  A    between atoms: C_35  and  C_36 
DOCKED: REMARK   10  A    between atoms: C_36  and  O_38 
DOCKED: REMARK   11  A    between atoms: FE_43  and  C_44 
DOCKED: REMARK   12  A    between atoms: C_44  and  O_45 
DOCKED: USER                              x       y       z     vdW  Elec       q    Type
DOCKED: USER                           _______ _______ _______ _____ _____    ______ ____
DOCKED: ROOT
DOCKED: ATOM      1  C   UNL d   1       8.835  15.064  35.683 -0.09 +0.05    +0.064 A 
DOCKED: ATOM      2  C   UNL d   1       6.768  17.232  31.990 -0.24 +0.03    +0.064 C 
DOCKED: ATOM      3  C   UNL d   1       7.797  13.507  29.179 -0.24 +0.01    +0.064 A 
DOCKED: ATOM      4  C   UNL d   1       9.569  11.112  33.024 -0.19 +0.04    +0.064 A 
DOCKED: ATOM      5  C   UNL d   1       8.227  15.945  34.871 -0.11 +0.06    +0.066 A 
DOCKED: ATOM      6  C   UNL d   1       7.700  17.161  35.349 -0.09 -0.02    -0.021 A 
DOCKED: ATOM      7  C   UNL d   1       7.082  17.775  34.278 -0.13 -0.02    -0.025 A 
DOCKED: ATOM      8  C   UNL d   1       7.271  16.917  33.190 -0.17 +0.05    +0.066 A 
DOCKED: ATOM      9  C   UNL d   1       6.336  19.118  34.264 -0.12 +0.03    +0.051 C 
DOCKED: ATOM     10  C   UNL d   1       6.935  16.424  30.807 -0.28 +0.02    +0.066 A 
DOCKED: ATOM     11  C   UNL d   1       6.553  16.766  29.491 -0.34 -0.00    -0.021 A 
DOCKED: ATOM     12  C   UNL d   1       6.868  15.664  28.692 -0.42 +0.00    +0.000 A 
DOCKED: ATOM     13  C   UNL d   1       7.429  14.739  29.574 -0.33 +0.02    +0.070 A 
DOCKED: ATOM     14  C   UNL d   1       6.015  18.098  29.036 -0.34 +0.00    +0.052 C 
DOCKED: ATOM     15  C   UNL d   1       8.341  12.415  29.961 -0.20 +0.02    +0.066 A 
DOCKED: ATOM     16  C   UNL d   1       8.564  11.118  29.521 -0.29 -0.00    -0.021 A 
DOCKED: ATOM     17  C   UNL d   1       9.073  10.423  30.627 -0.39 +0.00    +0.000 A 
DOCKED: ATOM     18  C   UNL d   1       9.136  11.358  31.654 -0.21 +0.03    +0.070 A 
DOCKED: ATOM     19  C   UNL d   1       8.295  10.609  28.122 -0.40 +0.01    +0.052 C 
DOCKED: ATOM     20  C   UNL d   1       9.558  11.983  34.061 -0.19 +0.05    +0.066 A 
DOCKED: ATOM     21  C   UNL d   1       9.966  11.618  35.343 -0.19 -0.03    -0.025 A 
DOCKED: ATOM     22  C   UNL d   1       9.792  12.746  36.124 -0.12 -0.02    -0.021 A 
DOCKED: ATOM     23  C   UNL d   1       9.272  13.747  35.277 -0.11 +0.05    +0.066 A 
DOCKED: ATOM     24  C   UNL d   1      10.477  10.257  35.805 -0.22 +0.06    +0.051 C 
DOCKED: ATOM     25  N   UNL d   1       7.983  15.778  33.527 -0.12 -0.19    -0.248 N 
DOCKED: ATOM     26  N   UNL d   1       7.520  15.222  30.842 -0.18 -0.09    -0.248 N 
DOCKED: ATOM     27  N   UNL d   1       8.663  12.525  31.231 -0.19 -0.09    -0.248 N 
DOCKED: ATOM     28  N   UNL d   1       9.126  13.289  34.028 -0.10 -0.17    -0.248 N 
DOCKED: ATOM     29 FE   UNL d   1       8.345  14.054  32.314 -0.05 +0.00    +0.000 Fe
DOCKED: ENDROOT
DOCKED: BRANCH   6  30
DOCKED: ATOM     30  C   UNL d   1       7.725  17.659  36.791 -0.07 +0.04    +0.052 C 
DOCKED: BRANCH  30  31
DOCKED: ATOM     31  C   UNL d   1       6.466  17.215  37.534 -0.03 +0.12    +0.115 C 
DOCKED: BRANCH  31  32
DOCKED: ATOM     32  C   UNL d   1       6.710  16.006  38.412 -0.05 +0.13    +0.139 C 
DOCKED: ATOM     33  O   UNL d   1       7.548  16.067  39.299 +0.01 -0.34    -0.650 OA
DOCKED: BRANCH  32  34
DOCKED: ATOM     34  O   UNL d   1       5.993  14.866  38.279 -0.22 -1.07    -0.776 OA
DOCKED: ATOM     35  H   UNL d   1       6.249  14.015  38.660 +0.01 +0.15    +0.167 HD
DOCKED: ENDBRANCH  32  34
DOCKED: ENDBRANCH  31  32
DOCKED: ENDBRANCH  30  31
DOCKED: ENDBRANCH   6  30
DOCKED: BRANCH  29  36
DOCKED: ATOM     36  C   UNL d   1       6.431  13.401  32.866 -0.08 +0.14    +0.190 C 
DOCKED: BRANCH  36  37
DOCKED: ATOM     37  O   UNL d   1       5.631  13.108  33.976 -0.67 -0.61    -0.399 OA
DOCKED: ATOM     38  H   UNL d   1       5.213  12.227  33.765 +0.01 +0.18    +0.209 HD
DOCKED: ENDBRANCH  36  37
DOCKED: ENDBRANCH  29  36
DOCKED: BRANCH  22  39
DOCKED: ATOM     39  C   UNL d   1      10.053  12.831  37.616 -0.07 +0.04    +0.052 C 
DOCKED: BRANCH  39  40
DOCKED: ATOM     40  C   UNL d   1       9.174  11.825  38.379 -0.06 +0.06    +0.115 C 
DOCKED: BRANCH  40  41
DOCKED: ATOM     41  C   UNL d   1       7.914  12.420  38.971 -0.02 +0.07    +0.139 C 
DOCKED: ATOM     42  O   UNL d   1       8.006  13.324  39.789 +0.03 -0.27    -0.650 OA
DOCKED: BRANCH  41  43
DOCKED: ATOM     43  O   UNL d   1       6.686  12.039  38.555 +0.07 -0.44    -0.776 OA
DOCKED: ATOM     44  H   UNL d   1       6.033  12.667  38.219 +0.04 +0.13    +0.167 HD
DOCKED: ENDBRANCH  41  43
DOCKED: ENDBRANCH  40  41
DOCKED: ENDBRANCH  39  40
DOCKED: ENDBRANCH  22  39
DOCKED: BRANCH  12  45
DOCKED: ATOM     45  C   UNL d   1       6.723  15.387  27.201 -0.52 +0.00    +0.004 C 
DOCKED: ATOM     46  C   UNL d   1       6.321  16.176  26.209 -0.43 +0.00    +0.012 C 
DOCKED: ENDBRANCH  12  45
DOCKED: BRANCH  17  47
DOCKED: ATOM     47  C   UNL d   1       9.435   8.980  30.763 -0.47 +0.00    +0.004 C 
DOCKED: ATOM     48  C   UNL d   1      10.685   8.522  30.662 -0.57 +0.00    +0.012 C 
DOCKED: ENDBRANCH  17  47
DOCKED: TORSDOF 12
DOCKED: TER
DOCKED: ENDMDL
________________________________________________________________________________


	BEGINNING GENETIC ALGORITHM DOCKING 43 of 100
Run: 43 Seed: 8738784 287128492 [ Run 43 of 100 GA/GALS ]
Beginning LAMARCKIAN GENETIC ALGORITHM (LGA), with a maximum of 25000000 energy evaluations.

Final-Value: -13.226


	FINAL GENETIC ALGORITHM DOCKED STATE
	_______________________________________________


Detailed state:  trans 9.002 13.305 34.394 quatxyzw 0.716121 -0.330182 -0.613899 -0.035751 center 8.781 34.984 -0.736 ntor 12 172.9668 100.2929 69.9823 -40.6635 146.6007 139.9487 -130.8486 -111.9867 -136.2308 74.5687 -169.8894 30.6846
State:	  9.002  13.305  34.394   0.717 -0.330 -0.614 -175.902    172.97  100.29   69.98  -40.66  146.60  139.95 -130.85 -111.99 -136.23   74.57 -169.89   30.68

DOCKED: MODEL       43
DOCKED: USER    Run = 43
DOCKED: USER    DPF = D:/Protein_go_brrr/autodock/final/1A3N/heme_Co/dock.dpf
DOCKED: USER  
DOCKED: USER    Estimated Free Energy of Binding    =   -7.51 kcal/mol  [=(1)+(2)+(3)-(4)]
DOCKED: USER    Estimated Inhibition Constant, Ki   =    3.15 uM (micromolar)  [Temperature = 298.15 K]
DOCKED: USER    
DOCKED: USER    (1) Final Intermolecular Energy     =  -11.09 kcal/mol
DOCKED: USER        vdW + Hbond + desolv Energy     =   -8.54 kcal/mol
DOCKED: USER        Electrostatic Energy            =   -2.55 kcal/mol
DOCKED: USER    (2) Final Total Internal Energy     =   -2.14 kcal/mol
DOCKED: USER    (3) Torsional Free Energy           =   +3.58 kcal/mol
DOCKED: USER    (4) Unbound System's Energy  [=(2)] =   -2.14 kcal/mol
DOCKED: USER    
DOCKED: USER    
DOCKED: USER    NEWDPF move heme_Co_opt.pdbqt
DOCKED: USER    NEWDPF about 8.781000 34.984000 -0.736000
DOCKED: USER    NEWDPF tran0 9.002458 13.305203 34.393531
DOCKED: USER    NEWDPF quaternion0 0.716121 -0.330182 -0.613899 -0.035751
DOCKED: USER    NEWDPF axisangle0 0.716579 -0.330394 -0.614291 -175.902308
DOCKED: USER    NEWDPF quat0 0.716579 -0.330394 -0.614291 -175.902308
DOCKED: USER    NEWDPF dihe0 172.97 100.29 69.98 -40.66 146.60 139.95 -130.85 -111.99 -136.23 74.57 -169.89 30.68 
DOCKED: USER  keepresnum = 1 
DOCKED: USER  
DOCKED: REMARK  12 active torsions:
DOCKED: REMARK  status: ('A' for Active; 'I' for Inactive)
DOCKED: REMARK    1  A    between atoms: C_6  and  C_10 
DOCKED: REMARK    2  A    between atoms: C_10  and  C_11 
DOCKED: REMARK    3  A    between atoms: C_11  and  C_12 
DOCKED: REMARK    4  A    between atoms: C_12  and  O_14 
DOCKED: REMARK    5  A    between atoms: C_17  and  C_20 
DOCKED: REMARK    6  A    between atoms: C_24  and  C_27 
DOCKED: REMARK    7  A    between atoms: C_31  and  C_34 
DOCKED: REMARK    8  A    between atoms: C_34  and  C_35 
DOCKED: REMARK    9  A    between atoms: C_35  and  C_36 
DOCKED: REMARK   10  A    between atoms: C_36  and  O_38 
DOCKED: REMARK   11  A    between atoms: FE_43  and  C_44 
DOCKED: REMARK   12  A    between atoms: C_44  and  O_45 
DOCKED: USER                              x       y       z     vdW  Elec       q    Type
DOCKED: USER                           _______ _______ _______ _____ _____    ______ ____
DOCKED: ROOT
DOCKED: ATOM      1  C   UNL d   1       9.501  13.615  36.484 -0.06 +0.05    +0.064 A 
DOCKED: ATOM      2  C   UNL d   1       7.306  16.361  33.282 -0.20 +0.05    +0.064 C 
DOCKED: ATOM      3  C   UNL d   1       8.164  13.130  29.868 -0.18 +0.02    +0.064 A 
DOCKED: ATOM      4  C   UNL d   1      10.069  10.138  33.197 +0.04 +0.04    +0.064 A 
DOCKED: ATOM      5  C   UNL d   1       8.870  14.619  35.853 -0.08 +0.05    +0.066 A 
DOCKED: ATOM      6  C   UNL d   1       8.381  15.745  36.542 -0.07 -0.02    -0.021 A 
DOCKED: ATOM      7  C   UNL d   1       7.725  16.528  35.612 -0.07 -0.03    -0.025 A 
DOCKED: ATOM      8  C   UNL d   1       7.856  15.854  34.393 -0.13 +0.07    +0.066 A 
DOCKED: ATOM      9  C   UNL d   1       6.997  17.860  35.847 -0.07 +0.05    +0.051 C 
DOCKED: ATOM     10  C   UNL d   1       7.411  15.752  31.979 -0.24 +0.03    +0.066 A 
DOCKED: ATOM     11  C   UNL d   1       6.978  16.303  30.754 -0.31 -0.01    -0.021 A 
DOCKED: ATOM     12  C   UNL d   1       7.244  15.342  29.775 -0.37 +0.00    +0.000 A 
DOCKED: ATOM     13  C   UNL d   1       7.829  14.285  30.471 -0.30 +0.02    +0.070 A 
DOCKED: ATOM     14  C   UNL d   1       6.437  17.694  30.542 -0.33 +0.01    +0.052 C 
DOCKED: ATOM     15  C   UNL d   1       8.726  11.923  30.441 -0.21 +0.02    +0.066 A 
DOCKED: ATOM     16  C   UNL d   1       8.914  10.712  29.788 -0.39 -0.00    -0.021 A 
DOCKED: ATOM     17  C   UNL d   1       9.461   9.845  30.745 -0.42 +0.00    +0.000 A 
DOCKED: ATOM     18  C   UNL d   1       9.580  10.603  31.905 -0.22 +0.03    +0.070 A 
DOCKED: ATOM     19  C   UNL d   1       8.578  10.436  28.339 -0.42 +0.01    +0.052 C 
DOCKED: ATOM     20  C   UNL d   1      10.113  10.831  34.360 -0.13 +0.06    +0.066 A 
DOCKED: ATOM     21  C   UNL d   1      10.571  10.263  35.547 -0.21 -0.03    -0.025 A 
DOCKED: ATOM     22  C   UNL d   1      10.446  11.251  36.506 -0.16 -0.02    -0.021 A 
DOCKED: ATOM     23  C   UNL d   1       9.903  12.378  35.854 -0.13 +0.06    +0.066 A 
DOCKED: ATOM     24  C   UNL d   1      11.084   8.841  35.762 +0.11 +0.05    +0.051 C 
DOCKED: ATOM     25  N   UNL d   1       8.566  14.671  34.511 -0.08 -0.20    -0.248 N 
DOCKED: ATOM     26  N   UNL d   1       7.981  14.557  31.795 -0.15 -0.11    -0.248 N 
DOCKED: ATOM     27  N   UNL d   1       9.105  11.826  31.695 -0.15 -0.10    -0.248 N 
DOCKED: ATOM     28  N   UNL d   1       9.697  12.127  34.555 -0.11 -0.21    -0.248 N 
DOCKED: ATOM     29 FE   UNL d   1       8.854  13.162  33.022 -0.05 +0.00    +0.000 Fe
DOCKED: ENDROOT
DOCKED: BRANCH   6  30
DOCKED: ATOM     30  C   UNL d   1       8.474  16.005  38.042 -0.03 +0.03    +0.052 C 
DOCKED: BRANCH  30  31
DOCKED: ATOM     31  C   UNL d   1       7.311  15.339  38.776 -0.03 +0.08    +0.115 C 
DOCKED: BRANCH  31  32
DOCKED: ATOM     32  C   UNL d   1       7.015  13.951  38.250 -0.05 +0.12    +0.139 C 
DOCKED: ATOM     33  O   UNL d   1       7.438  12.977  38.854 +0.03 -0.37    -0.650 OA
DOCKED: BRANCH  32  34
DOCKED: ATOM     34  O   UNL d   1       6.252  13.748  37.151 +0.20 -1.34    -0.776 OA
DOCKED: ATOM     35  H   UNL d   1       6.167  12.898  36.697 +0.04 +0.23    +0.167 HD
DOCKED: ENDBRANCH  32  34
DOCKED: ENDBRANCH  31  32
DOCKED: ENDBRANCH  30  31
DOCKED: ENDBRANCH   6  30
DOCKED: BRANCH  29  36
DOCKED: ATOM     36  C   UNL d   1       6.957  12.441  33.548 -0.23 +0.13    +0.190 C 
DOCKED: BRANCH  36  37
DOCKED: ATOM     37  O   UNL d   1       5.968  12.521  34.535 -0.59 -0.49    -0.399 OA
DOCKED: ATOM     38  H   UNL d   1       6.411  12.978  35.304 +0.07 +0.33    +0.209 HD
DOCKED: ENDBRANCH  36  37
DOCKED: ENDBRANCH  29  36
DOCKED: BRANCH  22  39
DOCKED: ATOM     39  C   UNL d   1      10.772  11.093  37.979 -0.14 +0.04    +0.052 C 
DOCKED: BRANCH  39  40
DOCKED: ATOM     40  C   UNL d   1      11.635  12.266  38.473 -0.08 +0.10    +0.115 C 
DOCKED: BRANCH  40  41
DOCKED: ATOM     41  C   UNL d   1      13.060  11.891  38.821 -0.04 +0.14    +0.139 C 
DOCKED: ATOM     42  O   UNL d   1      13.573  10.922  38.279 -0.50 -1.07    -0.650 OA
DOCKED: BRANCH  41  43
DOCKED: ATOM     43  O   UNL d   1      13.812  12.648  39.651 +0.00 -0.45    -0.776 OA
DOCKED: ATOM     44  H   UNL d   1      13.692  12.643  40.609 +0.01 +0.06    +0.167 HD
DOCKED: ENDBRANCH  41  43
DOCKED: ENDBRANCH  40  41
DOCKED: ENDBRANCH  39  40
DOCKED: ENDBRANCH  22  39
DOCKED: BRANCH  12  45
DOCKED: ATOM     45  C   UNL d   1       7.031  15.309  28.267 -0.48 +0.00    +0.004 C 
DOCKED: ATOM     46  C   UNL d   1       5.956  15.598  27.538 -0.54 +0.00    +0.012 C 
DOCKED: ENDBRANCH  12  45
DOCKED: BRANCH  17  47
DOCKED: ATOM     47  C   UNL d   1       9.809   8.398  30.631 -0.52 +0.00    +0.004 C 
DOCKED: ATOM     48  C   UNL d   1      11.020   7.907  30.908 -0.59 +0.00    +0.012 C 
DOCKED: ENDBRANCH  17  47
DOCKED: TORSDOF 12
DOCKED: TER
DOCKED: ENDMDL
________________________________________________________________________________


	BEGINNING GENETIC ALGORITHM DOCKING 44 of 100
Run: 44 Seed: 1623399804 1120392265 [ Run 44 of 100 GA/GALS ]
Beginning LAMARCKIAN GENETIC ALGORITHM (LGA), with a maximum of 25000000 energy evaluations.

Final-Value: -12.660


	FINAL GENETIC ALGORITHM DOCKED STATE
	_______________________________________________


Detailed state:  trans 0.737 -6.048 -10.186 quatxyzw 0.660048 -0.165040 0.659674 0.319264 center 8.781 34.984 -0.736 ntor 12 -4.4882 96.6111 19.5651 71.3062 86.8734 160.4244 -98.2275 142.7657 -36.5919 172.5506 -23.2677 6.3664
State:	  0.737  -6.048 -10.186   0.696 -0.174  0.696 142.763     -4.49   96.61   19.57   71.31   86.87  160.42  -98.23  142.77  -36.59  172.55  -23.27    6.37

DOCKED: MODEL       44
DOCKED: USER    Run = 44
DOCKED: USER    DPF = D:/Protein_go_brrr/autodock/final/1A3N/heme_Co/dock.dpf
DOCKED: USER  
DOCKED: USER    Estimated Free Energy of Binding    =   -8.28 kcal/mol  [=(1)+(2)+(3)-(4)]
DOCKED: USER    Estimated Inhibition Constant, Ki   =  858.55 nM (nanomolar)  [Temperature = 298.15 K]
DOCKED: USER    
DOCKED: USER    (1) Final Intermolecular Energy     =  -11.86 kcal/mol
DOCKED: USER        vdW + Hbond + desolv Energy     =   -8.79 kcal/mol
DOCKED: USER        Electrostatic Energy            =   -3.07 kcal/mol
DOCKED: USER    (2) Final Total Internal Energy     =   -0.80 kcal/mol
DOCKED: USER    (3) Torsional Free Energy           =   +3.58 kcal/mol
DOCKED: USER    (4) Unbound System's Energy  [=(2)] =   -0.80 kcal/mol
DOCKED: USER    
DOCKED: USER    
DOCKED: USER    NEWDPF move heme_Co_opt.pdbqt
DOCKED: USER    NEWDPF about 8.781000 34.984000 -0.736000
DOCKED: USER    NEWDPF tran0 0.736845 -6.048337 -10.186485
DOCKED: USER    NEWDPF quaternion0 0.660048 -0.165040 0.659674 0.319264
DOCKED: USER    NEWDPF axisangle0 0.696499 -0.174154 0.696103 142.763192
DOCKED: USER    NEWDPF quat0 0.696499 -0.174154 0.696103 142.763192
DOCKED: USER    NEWDPF dihe0 -4.49 96.61 19.57 71.31 86.87 160.42 -98.23 142.77 -36.59 172.55 -23.27 6.37 
DOCKED: USER  keepresnum = 1 
DOCKED: USER  
DOCKED: REMARK  12 active torsions:
DOCKED: REMARK  status: ('A' for Active; 'I' for Inactive)
DOCKED: REMARK    1  A    between atoms: C_6  and  C_10 
DOCKED: REMARK    2  A    between atoms: C_10  and  C_11 
DOCKED: REMARK    3  A    between atoms: C_11  and  C_12 
DOCKED: REMARK    4  A    between atoms: C_12  and  O_14 
DOCKED: REMARK    5  A    between atoms: C_17  and  C_20 
DOCKED: REMARK    6  A    between atoms: C_24  and  C_27 
DOCKED: REMARK    7  A    between atoms: C_31  and  C_34 
DOCKED: REMARK    8  A    between atoms: C_34  and  C_35 
DOCKED: REMARK    9  A    between atoms: C_35  and  C_36 
DOCKED: REMARK   10  A    between atoms: C_36  and  O_38 
DOCKED: REMARK   11  A    between atoms: FE_43  and  C_44 
DOCKED: REMARK   12  A    between atoms: C_44  and  O_45 
DOCKED: USER                              x       y       z     vdW  Elec       q    Type
DOCKED: USER                           _______ _______ _______ _____ _____    ______ ____
DOCKED: ROOT
DOCKED: ATOM      1  C   UNL d   1      -0.137  -5.355 -12.050 -0.10 +0.05    +0.064 A 
DOCKED: ATOM      2  C   UNL d   1       3.063  -3.426  -9.109 -0.35 +0.01    +0.064 C 
DOCKED: ATOM      3  C   UNL d   1       2.469  -7.035  -6.034 -0.26 +0.01    +0.064 A 
DOCKED: ATOM      4  C   UNL d   1      -0.513  -9.220  -9.196 -0.10 +0.04    +0.064 A 
DOCKED: ATOM      5  C   UNL d   1       0.754  -4.544 -11.455 -0.14 +0.04    +0.066 A 
DOCKED: ATOM      6  C   UNL d   1       1.250  -3.388 -12.087 -0.16 -0.01    -0.021 A 
DOCKED: ATOM      7  C   UNL d   1       2.195  -2.844 -11.239 -0.19 -0.01    -0.025 A 
DOCKED: ATOM      8  C   UNL d   1       2.223  -3.683 -10.120 -0.22 +0.02    +0.066 A 
DOCKED: ATOM      9  C   UNL d   1       3.047  -1.585 -11.461 -0.33 +0.01    +0.051 C 
DOCKED: ATOM     10  C   UNL d   1       3.144  -4.216  -7.906 -0.32 +0.01    +0.066 A 
DOCKED: ATOM     11  C   UNL d   1       3.901  -3.921  -6.751 -0.41 -0.00    -0.021 A 
DOCKED: ATOM     12  C   UNL d   1       3.706  -4.988  -5.870 -0.40 +0.00    +0.000 A 
DOCKED: ATOM     13  C   UNL d   1       2.837  -5.846  -6.544 -0.26 +0.02    +0.070 A 
DOCKED: ATOM     14  C   UNL d   1       4.674  -2.654  -6.491 -0.41 +0.00    +0.052 C 
DOCKED: ATOM     15  C   UNL d   1       1.626  -8.063  -6.614 -0.27 +0.02    +0.066 A 
DOCKED: ATOM     16  C   UNL d   1       1.402  -9.331  -6.097 -0.29 -0.00    -0.021 A 
DOCKED: ATOM     17  C   UNL d   1       0.544  -9.966  -7.007 -0.21 +0.00    +0.000 A 
DOCKED: ATOM     18  C   UNL d   1       0.299  -9.025  -8.001 -0.18 +0.03    +0.070 A 
DOCKED: ATOM     19  C   UNL d   1       1.989  -9.871  -4.812 -0.25 +0.01    +0.052 C 
DOCKED: ATOM     20  C   UNL d   1      -0.697  -8.351 -10.219 -0.06 +0.06    +0.066 A 
DOCKED: ATOM     21  C   UNL d   1      -1.472  -8.666 -11.332 -0.07 -0.02    -0.025 A 
DOCKED: ATOM     22  C   UNL d   1      -1.406  -7.560 -12.159 -0.07 -0.02    -0.021 A 
DOCKED: ATOM     23  C   UNL d   1      -0.577  -6.621 -11.509 -0.05 +0.07    +0.066 A 
DOCKED: ATOM     24  C   UNL d   1      -2.224  -9.966 -11.606 -0.05 +0.02    +0.051 C 
DOCKED: ATOM     25  N   UNL d   1       1.337  -4.741 -10.224 -0.14 -0.15    -0.248 N 
DOCKED: ATOM     26  N   UNL d   1       2.454  -5.352  -7.751 -0.14 -0.09    -0.248 N 
DOCKED: ATOM     27  N   UNL d   1       0.983  -7.915  -7.750 -0.16 -0.13    -0.248 N 
DOCKED: ATOM     28  N   UNL d   1      -0.143  -7.097 -10.335 -0.00 -0.33    -0.248 N 
DOCKED: ATOM     29 FE   UNL d   1       1.147  -6.423  -8.916 -0.05 +0.00    +0.000 Fe
DOCKED: ENDROOT
DOCKED: BRANCH   6  30
DOCKED: ATOM     30  C   UNL d   1       0.884  -2.884 -13.480 -0.18 +0.02    +0.052 C 
DOCKED: BRANCH  30  31
DOCKED: ATOM     31  C   UNL d   1      -0.610  -2.575 -13.563 -0.20 +0.06    +0.115 C 
DOCKED: BRANCH  31  32
DOCKED: ATOM     32  C   UNL d   1      -0.899  -1.337 -14.385 -0.29 +0.12    +0.139 C 
DOCKED: ATOM     33  O   UNL d   1      -1.769  -1.375 -15.243 -0.14 -0.80    -0.650 OA
DOCKED: BRANCH  32  34
DOCKED: ATOM     34  O   UNL d   1      -0.255  -0.167 -14.170 -0.02 -0.61    -0.776 OA
DOCKED: ATOM     35  H   UNL d   1       0.331   0.001 -13.419 -0.46 +0.04    +0.167 HD
DOCKED: ENDBRANCH  32  34
DOCKED: ENDBRANCH  31  32
DOCKED: ENDBRANCH  30  31
DOCKED: ENDBRANCH   6  30
DOCKED: BRANCH  29  36
DOCKED: ATOM     36  C   UNL d   1       2.763  -7.267  -9.950 -0.11 +0.06    +0.190 C 
DOCKED: BRANCH  36  37
DOCKED: ATOM     37  O   UNL d   1       3.715  -6.999 -10.939 -0.04 -0.08    -0.399 OA
DOCKED: ATOM     38  H   UNL d   1       3.367  -6.197 -11.420 +0.04 +0.05    +0.209 HD
DOCKED: ENDBRANCH  36  37
DOCKED: ENDBRANCH  29  36
DOCKED: BRANCH  22  39
DOCKED: ATOM     39  C   UNL d   1      -2.053  -7.443 -13.526 -0.02 +0.02    +0.052 C 
DOCKED: BRANCH  39  40
DOCKED: ATOM     40  C   UNL d   1      -3.258  -6.489 -13.477 -0.03 +0.06    +0.115 C 
DOCKED: BRANCH  40  41
DOCKED: ATOM     41  C   UNL d   1      -3.719  -6.137 -12.079 -0.08 +0.14    +0.139 C 
DOCKED: ATOM     42  O   UNL d   1      -4.406  -6.935 -11.457 -0.05 -0.64    -0.650 OA
DOCKED: BRANCH  41  43
DOCKED: ATOM     43  O   UNL d   1      -3.321  -5.002 -11.464 -0.31 -1.38    -0.776 OA
DOCKED: ATOM     44  H   UNL d   1      -3.053  -4.213 -11.953 +0.06 +0.19    +0.167 HD
DOCKED: ENDBRANCH  41  43
DOCKED: ENDBRANCH  40  41
DOCKED: ENDBRANCH  39  40
DOCKED: ENDBRANCH  22  39
DOCKED: BRANCH  12  45
DOCKED: ATOM     45  C   UNL d   1       4.223  -5.284  -4.468 -0.43 +0.00    +0.004 C 
DOCKED: ATOM     46  C   UNL d   1       4.039  -4.634  -3.322 -0.48 +0.00    +0.012 C 
DOCKED: ENDBRANCH  12  45
DOCKED: BRANCH  17  47
DOCKED: ATOM     47  C   UNL d   1       0.016 -11.363  -7.004 -0.18 +0.00    +0.004 C 
DOCKED: ATOM     48  C   UNL d   1      -0.812 -11.836  -6.070 -0.19 +0.00    +0.012 C 
DOCKED: ENDBRANCH  17  47
DOCKED: TORSDOF 12
DOCKED: TER
DOCKED: ENDMDL
________________________________________________________________________________


	BEGINNING GENETIC ALGORITHM DOCKING 45 of 100
Run: 45 Seed: 1559614093 710596872 [ Run 45 of 100 GA/GALS ]
Beginning LAMARCKIAN GENETIC ALGORITHM (LGA), with a maximum of 25000000 energy evaluations.

Final-Value: -13.855


	FINAL GENETIC ALGORITHM DOCKED STATE
	_______________________________________________


Detailed state:  trans 8.929 13.502 35.221 quatxyzw 0.732019 -0.359026 -0.574395 -0.072932 center 8.781 34.984 -0.736 ntor 12 156.5860 93.1404 46.6910 -15.6161 89.3148 136.8853 23.0659 -176.6778 166.2610 137.8078 -162.9738 10.5190
State:	  8.929  13.502  35.221   0.734 -0.360 -0.576 -171.635    156.59   93.14   46.69  -15.62   89.31  136.89   23.07 -176.68  166.26  137.81 -162.97   10.52

DOCKED: MODEL       45
DOCKED: USER    Run = 45
DOCKED: USER    DPF = D:/Protein_go_brrr/autodock/final/1A3N/heme_Co/dock.dpf
DOCKED: USER  
DOCKED: USER    Estimated Free Energy of Binding    =   -8.19 kcal/mol  [=(1)+(2)+(3)-(4)]
DOCKED: USER    Estimated Inhibition Constant, Ki   =  995.17 nM (nanomolar)  [Temperature = 298.15 K]
DOCKED: USER    
DOCKED: USER    (1) Final Intermolecular Energy     =  -11.77 kcal/mol
DOCKED: USER        vdW + Hbond + desolv Energy     =   -8.29 kcal/mol
DOCKED: USER        Electrostatic Energy            =   -3.48 kcal/mol
DOCKED: USER    (2) Final Total Internal Energy     =   -2.09 kcal/mol
DOCKED: USER    (3) Torsional Free Energy           =   +3.58 kcal/mol
DOCKED: USER    (4) Unbound System's Energy  [=(2)] =   -2.09 kcal/mol
DOCKED: USER    
DOCKED: USER    
DOCKED: USER    NEWDPF move heme_Co_opt.pdbqt
DOCKED: USER    NEWDPF about 8.781000 34.984000 -0.736000
DOCKED: USER    NEWDPF tran0 8.929143 13.501999 35.221388
DOCKED: USER    NEWDPF quaternion0 0.732019 -0.359026 -0.574395 -0.072932
DOCKED: USER    NEWDPF axisangle0 0.733973 -0.359985 -0.575929 -171.635157
DOCKED: USER    NEWDPF quat0 0.733973 -0.359985 -0.575929 -171.635157
DOCKED: USER    NEWDPF dihe0 156.59 93.14 46.69 -15.62 89.31 136.89 23.07 -176.68 166.26 137.81 -162.97 10.52 
DOCKED: USER  keepresnum = 1 
DOCKED: USER  
DOCKED: REMARK  12 active torsions:
DOCKED: REMARK  status: ('A' for Active; 'I' for Inactive)
DOCKED: REMARK    1  A    between atoms: C_6  and  C_10 
DOCKED: REMARK    2  A    between atoms: C_10  and  C_11 
DOCKED: REMARK    3  A    between atoms: C_11  and  C_12 
DOCKED: REMARK    4  A    between atoms: C_12  and  O_14 
DOCKED: REMARK    5  A    between atoms: C_17  and  C_20 
DOCKED: REMARK    6  A    between atoms: C_24  and  C_27 
DOCKED: REMARK    7  A    between atoms: C_31  and  C_34 
DOCKED: REMARK    8  A    between atoms: C_34  and  C_35 
DOCKED: REMARK    9  A    between atoms: C_35  and  C_36 
DOCKED: REMARK   10  A    between atoms: C_36  and  O_38 
DOCKED: REMARK   11  A    between atoms: FE_43  and  C_44 
DOCKED: REMARK   12  A    between atoms: C_44  and  O_45 
DOCKED: USER                              x       y       z     vdW  Elec       q    Type
DOCKED: USER                           _______ _______ _______ _____ _____    ______ ____
DOCKED: ROOT
DOCKED: ATOM      1  C   UNL d   1       9.309  14.056  37.286 -0.03 +0.04    +0.064 A 
DOCKED: ATOM      2  C   UNL d   1       7.251  16.377  33.682 -0.15 +0.06    +0.064 C 
DOCKED: ATOM      3  C   UNL d   1       8.341  12.800  30.708 -0.24 +0.02    +0.064 A 
DOCKED: ATOM      4  C   UNL d   1      10.105  10.242  34.451 -0.22 +0.06    +0.064 A 
DOCKED: ATOM      5  C   UNL d   1       8.699  14.969  36.512 -0.06 +0.05    +0.066 A 
DOCKED: ATOM      6  C   UNL d   1       8.156  16.156  37.043 -0.06 -0.02    -0.021 A 
DOCKED: ATOM      7  C   UNL d   1       7.540  16.814  35.996 +0.04 -0.03    -0.025 A 
DOCKED: ATOM      8  C   UNL d   1       7.747  16.010  34.870 -0.09 +0.08    +0.066 A 
DOCKED: ATOM      9  C   UNL d   1       6.781  18.149  36.039 -0.10 +0.04    +0.051 C 
DOCKED: ATOM     10  C   UNL d   1       7.436  15.628  32.464 -0.23 +0.04    +0.066 A 
DOCKED: ATOM     11  C   UNL d   1       7.062  16.027  31.163 -0.30 -0.01    -0.021 A 
DOCKED: ATOM     12  C   UNL d   1       7.395  14.967  30.315 -0.35 +0.00    +0.000 A 
DOCKED: ATOM     13  C   UNL d   1       7.957  14.008  31.157 -0.26 +0.03    +0.070 A 
DOCKED: ATOM     14  C   UNL d   1       6.514  17.374  30.766 -0.33 +0.02    +0.052 C 
DOCKED: ATOM     15  C   UNL d   1       8.889  11.677  31.443 -0.27 +0.02    +0.066 A 
DOCKED: ATOM     16  C   UNL d   1       9.129  10.405  30.943 -0.36 -0.01    -0.021 A 
DOCKED: ATOM     17  C   UNL d   1       9.636   9.662  32.019 -0.37 +0.00    +0.000 A 
DOCKED: ATOM     18  C   UNL d   1       9.681  10.549  33.090 -0.09 +0.04    +0.070 A 
DOCKED: ATOM     19  C   UNL d   1       8.878   9.959  29.520 -0.44 +0.01    +0.052 C 
DOCKED: ATOM     20  C   UNL d   1      10.076  11.063  35.528 -0.20 +0.07    +0.066 A 
DOCKED: ATOM     21  C   UNL d   1      10.477  10.642  36.794 -0.18 -0.03    -0.025 A 
DOCKED: ATOM     22  C   UNL d   1      10.286  11.730  37.627 -0.11 -0.02    -0.021 A 
DOCKED: ATOM     23  C   UNL d   1       9.762  12.765  36.823 -0.08 +0.05    +0.066 A 
DOCKED: ATOM     24  C   UNL d   1      10.998   9.265  37.196 +0.02 +0.04    +0.051 C 
DOCKED: ATOM     25  N   UNL d   1       8.467  14.863  35.160 -0.07 -0.23    -0.248 N 
DOCKED: ATOM     26  N   UNL d   1       8.033  14.431  32.447 -0.14 -0.14    -0.248 N 
DOCKED: ATOM     27  N   UNL d   1       9.200  11.730  32.718 -0.15 -0.13    -0.248 N 
DOCKED: ATOM     28  N   UNL d   1       9.631  12.364  35.553 -0.08 -0.22    -0.248 N 
DOCKED: ATOM     29 FE   UNL d   1       8.857  13.202  33.869 -0.04 +0.00    +0.000 Fe
DOCKED: ENDROOT
DOCKED: BRANCH   6  30
DOCKED: ATOM     30  C   UNL d   1       8.164  16.585  38.506 -0.02 +0.03    +0.052 C 
DOCKED: BRANCH  30  31
DOCKED: ATOM     31  C   UNL d   1       7.076  15.850  39.288 -0.02 +0.07    +0.115 C 
DOCKED: BRANCH  31  32
DOCKED: ATOM     32  C   UNL d   1       6.053  15.199  38.381 +0.07 +0.18    +0.139 C 
DOCKED: ATOM     33  O   UNL d   1       4.938  15.689  38.284 -0.34 -1.09    -0.650 OA
DOCKED: BRANCH  32  34
DOCKED: ATOM     34  O   UNL d   1       6.348  14.112  37.630 +0.03 -1.17    -0.776 OA
DOCKED: ATOM     35  H   UNL d   1       5.699  13.452  37.351 +0.03 +0.29    +0.167 HD
DOCKED: ENDBRANCH  32  34
DOCKED: ENDBRANCH  31  32
DOCKED: ENDBRANCH  30  31
DOCKED: ENDBRANCH   6  30
DOCKED: BRANCH  29  36
DOCKED: ATOM     36  C   UNL d   1       6.945  12.506  34.374 -0.21 +0.17    +0.190 C 
DOCKED: BRANCH  36  37
DOCKED: ATOM     37  O   UNL d   1       5.922  12.644  35.317 -0.37 -0.62    -0.399 OA
DOCKED: ATOM     38  H   UNL d   1       6.364  13.045  36.117 +0.06 +0.33    +0.209 HD
DOCKED: ENDBRANCH  36  37
DOCKED: ENDBRANCH  29  36
DOCKED: BRANCH  22  39
DOCKED: ATOM     39  C   UNL d   1      10.533  11.746  39.123 -0.05 +0.03    +0.052 C 
DOCKED: BRANCH  39  40
DOCKED: ATOM     40  C   UNL d   1      11.725  12.654  39.467 -0.04 +0.06    +0.115 C 
DOCKED: BRANCH  40  41
DOCKED: ATOM     41  C   UNL d   1      12.953  12.423  38.611 -0.04 +0.15    +0.139 C 
DOCKED: ATOM     42  O   UNL d   1      13.253  11.281  38.291 -0.43 -1.08    -0.650 OA
DOCKED: BRANCH  41  43
DOCKED: ATOM     43  O   UNL d   1      13.679  13.451  38.118 +0.09 -0.78    -0.776 OA
DOCKED: ATOM     44  H   UNL d   1      14.026  14.158  38.678 +0.02 +0.10    +0.167 HD
DOCKED: ENDBRANCH  41  43
DOCKED: ENDBRANCH  40  41
DOCKED: ENDBRANCH  39  40
DOCKED: ENDBRANCH  22  39
DOCKED: BRANCH  12  45
DOCKED: ATOM     45  C   UNL d   1       7.265  14.760  28.812 -0.45 +0.00    +0.004 C 
DOCKED: ATOM     46  C   UNL d   1       6.442  15.318  27.928 -0.52 +0.00    +0.012 C 
DOCKED: ENDBRANCH  12  45
DOCKED: BRANCH  17  47
DOCKED: ATOM     47  C   UNL d   1      10.011   8.219  32.090 -0.57 +0.00    +0.004 C 
DOCKED: ATOM     48  C   UNL d   1      11.049   7.694  31.434 -0.57 +0.00    +0.012 C 
DOCKED: ENDBRANCH  17  47
DOCKED: TORSDOF 12
DOCKED: TER
DOCKED: ENDMDL
________________________________________________________________________________


	BEGINNING GENETIC ALGORITHM DOCKING 46 of 100
Run: 46 Seed: 1967980139 257960469 [ Run 46 of 100 GA/GALS ]
Beginning LAMARCKIAN GENETIC ALGORITHM (LGA), with a maximum of 25000000 energy evaluations.

Final-Value: -13.700


	FINAL GENETIC ALGORITHM DOCKED STATE
	_______________________________________________


Detailed state:  trans 9.111 13.748 34.921 quatxyzw 0.707607 -0.392311 -0.583080 -0.073495 center 8.781 34.984 -0.736 ntor 12 179.9472 87.8425 59.2042 -17.2899 103.4075 125.5692 29.1749 -146.5480 -180.0000 114.7021 -169.5732 8.3945
State:	  9.111  13.748  34.921   0.710 -0.393 -0.585 -171.571    179.95   87.84   59.20  -17.29  103.41  125.57   29.17 -146.55 -180.00  114.70 -169.57    8.39

DOCKED: MODEL       46
DOCKED: USER    Run = 46
DOCKED: USER    DPF = D:/Protein_go_brrr/autodock/final/1A3N/heme_Co/dock.dpf
DOCKED: USER  
DOCKED: USER    Estimated Free Energy of Binding    =   -7.97 kcal/mol  [=(1)+(2)+(3)-(4)]
DOCKED: USER    Estimated Inhibition Constant, Ki   =    1.45 uM (micromolar)  [Temperature = 298.15 K]
DOCKED: USER    
DOCKED: USER    (1) Final Intermolecular Energy     =  -11.55 kcal/mol
DOCKED: USER        vdW + Hbond + desolv Energy     =   -7.99 kcal/mol
DOCKED: USER        Electrostatic Energy            =   -3.56 kcal/mol
DOCKED: USER    (2) Final Total Internal Energy     =   -2.15 kcal/mol
DOCKED: USER    (3) Torsional Free Energy           =   +3.58 kcal/mol
DOCKED: USER    (4) Unbound System's Energy  [=(2)] =   -2.15 kcal/mol
DOCKED: USER    
DOCKED: USER    
DOCKED: USER    NEWDPF move heme_Co_opt.pdbqt
DOCKED: USER    NEWDPF about 8.781000 34.984000 -0.736000
DOCKED: USER    NEWDPF tran0 9.111038 13.747832 34.921225
DOCKED: USER    NEWDPF quaternion0 0.707607 -0.392311 -0.583080 -0.073495
DOCKED: USER    NEWDPF axisangle0 0.709526 -0.393375 -0.584661 -171.570531
DOCKED: USER    NEWDPF quat0 0.709526 -0.393375 -0.584661 -171.570531
DOCKED: USER    NEWDPF dihe0 179.95 87.84 59.20 -17.29 103.41 125.57 29.17 -146.55 -180.00 114.70 -169.57 8.39 
DOCKED: USER  keepresnum = 1 
DOCKED: USER  
DOCKED: REMARK  12 active torsions:
DOCKED: REMARK  status: ('A' for Active; 'I' for Inactive)
DOCKED: REMARK    1  A    between atoms: C_6  and  C_10 
DOCKED: REMARK    2  A    between atoms: C_10  and  C_11 
DOCKED: REMARK    3  A    between atoms: C_11  and  C_12 
DOCKED: REMARK    4  A    between atoms: C_12  and  O_14 
DOCKED: REMARK    5  A    between atoms: C_17  and  C_20 
DOCKED: REMARK    6  A    between atoms: C_24  and  C_27 
DOCKED: REMARK    7  A    between atoms: C_31  and  C_34 
DOCKED: REMARK    8  A    between atoms: C_34  and  C_35 
DOCKED: REMARK    9  A    between atoms: C_35  and  C_36 
DOCKED: REMARK   10  A    between atoms: C_36  and  O_38 
DOCKED: REMARK   11  A    between atoms: FE_43  and  C_44 
DOCKED: REMARK   12  A    between atoms: C_44  and  O_45 
DOCKED: USER                              x       y       z     vdW  Elec       q    Type
DOCKED: USER                           _______ _______ _______ _____ _____    ______ ____
DOCKED: ROOT
DOCKED: ATOM      1  C   UNL d   1       9.604  14.348  36.949 -0.04 +0.04    +0.064 A 
DOCKED: ATOM      2  C   UNL d   1       7.570  16.673  33.335 -0.20 +0.05    +0.064 C 
DOCKED: ATOM      3  C   UNL d   1       8.309  12.929  30.460 -0.21 +0.02    +0.064 A 
DOCKED: ATOM      4  C   UNL d   1      10.039  10.391  34.233 -0.17 +0.05    +0.064 A 
DOCKED: ATOM      5  C   UNL d   1       9.027  15.271  36.163 -0.07 +0.05    +0.066 A 
DOCKED: ATOM      6  C   UNL d   1       8.584  16.510  36.667 -0.06 -0.01    -0.021 A 
DOCKED: ATOM      7  C   UNL d   1       7.974  17.171  35.619 -0.09 -0.02    -0.025 A 
DOCKED: ATOM      8  C   UNL d   1       8.085  16.316  34.518 -0.13 +0.06    +0.066 A 
DOCKED: ATOM      9  C   UNL d   1       7.307  18.555  35.639 -0.09 +0.03    +0.051 C 
DOCKED: ATOM     10  C   UNL d   1       7.660  15.871  32.140 -0.23 +0.03    +0.066 A 
DOCKED: ATOM     11  C   UNL d   1       7.264  16.249  30.838 -0.29 -0.01    -0.021 A 
DOCKED: ATOM     12  C   UNL d   1       7.495  15.140  30.020 -0.36 +0.00    +0.000 A 
DOCKED: ATOM     13  C   UNL d   1       8.023  14.175  30.877 -0.28 +0.02    +0.070 A 
DOCKED: ATOM     14  C   UNL d   1       6.792  17.615  30.411 -0.22 +0.01    +0.052 C 
DOCKED: ATOM     15  C   UNL d   1       8.809  11.798  31.217 -0.25 +0.02    +0.066 A 
DOCKED: ATOM     16  C   UNL d   1       8.945  10.495  30.758 -0.39 -0.01    -0.021 A 
DOCKED: ATOM     17  C   UNL d   1       9.442   9.759  31.843 -0.39 +0.00    +0.000 A 
DOCKED: ATOM     18  C   UNL d   1       9.585  10.678  32.878 -0.18 +0.04    +0.070 A 
DOCKED: ATOM     19  C   UNL d   1       8.611  10.019  29.362 -0.42 +0.01    +0.052 C 
DOCKED: ATOM     20  C   UNL d   1      10.105  11.249  35.279 -0.20 +0.07    +0.066 A 
DOCKED: ATOM     21  C   UNL d   1      10.524  10.847  36.545 -0.18 -0.03    -0.025 A 
DOCKED: ATOM     22  C   UNL d   1      10.437  11.974  37.342 -0.11 -0.02    -0.021 A 
DOCKED: ATOM     23  C   UNL d   1       9.953  13.013  36.519 -0.09 +0.06    +0.066 A 
DOCKED: ATOM     24  C   UNL d   1      10.968   9.453  36.980 -0.15 +0.05    +0.051 C 
DOCKED: ATOM     25  N   UNL d   1       8.738  15.134  34.825 -0.07 -0.20    -0.248 N 
DOCKED: ATOM     26  N   UNL d   1       8.175  14.637  32.147 -0.14 -0.12    -0.248 N 
DOCKED: ATOM     27  N   UNL d   1       9.170  11.875  32.479 -0.15 -0.13    -0.248 N 
DOCKED: ATOM     28  N   UNL d   1       9.748  12.578  35.270 -0.09 -0.22    -0.248 N 
DOCKED: ATOM     29 FE   UNL d   1       8.969  13.406  33.585 -0.04 +0.00    +0.000 Fe
DOCKED: ENDROOT
DOCKED: BRANCH   6  30
DOCKED: ATOM     30  C   UNL d   1       8.675  16.989  38.112 -0.02 +0.02    +0.052 C 
DOCKED: BRANCH  30  31
DOCKED: ATOM     31  C   UNL d   1       7.479  16.488  38.921 -0.02 +0.06    +0.115 C 
DOCKED: BRANCH  31  32
DOCKED: ATOM     32  C   UNL d   1       6.503  15.695  38.078 +0.05 +0.17    +0.139 C 
DOCKED: ATOM     33  O   UNL d   1       5.484  16.234  37.672 +0.26 -1.29    -0.650 OA
DOCKED: BRANCH  32  34
DOCKED: ATOM     34  O   UNL d   1       6.745  14.415  37.714 -0.01 -1.02    -0.776 OA
DOCKED: ATOM     35  H   UNL d   1       6.120  13.861  37.226 +0.02 +0.31    +0.167 HD
DOCKED: ENDBRANCH  32  34
DOCKED: ENDBRANCH  31  32
DOCKED: ENDBRANCH  30  31
DOCKED: ENDBRANCH   6  30
DOCKED: BRANCH  29  36
DOCKED: ATOM     36  C   UNL d   1       7.035  12.859  34.182 -0.20 +0.18    +0.190 C 
DOCKED: BRANCH  36  37
DOCKED: ATOM     37  O   UNL d   1       6.122  12.967  35.235 -0.21 -0.71    -0.399 OA
DOCKED: ATOM     38  H   UNL d   1       6.684  13.105  36.049 +0.06 +0.30    +0.209 HD
DOCKED: ENDBRANCH  36  37
DOCKED: ENDBRANCH  29  36
DOCKED: BRANCH  22  39
DOCKED: ATOM     39  C   UNL d   1      10.740  12.026  38.828 -0.06 +0.03    +0.052 C 
DOCKED: BRANCH  39  40
DOCKED: ATOM     40  C   UNL d   1      12.032  12.818  39.090 -0.06 +0.08    +0.115 C 
DOCKED: BRANCH  40  41
DOCKED: ATOM     41  C   UNL d   1      13.297  12.114  38.650 +0.04 +0.16    +0.139 C 
DOCKED: ATOM     42  O   UNL d   1      13.236  10.949  38.280 -0.50 -1.07    -0.650 OA
DOCKED: BRANCH  41  43
DOCKED: ATOM     43  O   UNL d   1      14.481  12.762  38.571 +0.01 -0.73    -0.776 OA
DOCKED: ATOM     44  H   UNL d   1      14.932  13.116  39.349 +0.02 +0.09    +0.167 HD
DOCKED: ENDBRANCH  41  43
DOCKED: ENDBRANCH  40  41
DOCKED: ENDBRANCH  39  40
DOCKED: ENDBRANCH  22  39
DOCKED: BRANCH  12  45
DOCKED: ATOM     45  C   UNL d   1       7.295  14.889  28.531 -0.45 +0.00    +0.004 C 
DOCKED: ATOM     46  C   UNL d   1       6.457  15.450  27.663 -0.53 +0.00    +0.012 C 
DOCKED: ENDBRANCH  12  45
DOCKED: BRANCH  17  47
DOCKED: ATOM     47  C   UNL d   1       9.723   8.297  31.955 -0.55 +0.00    +0.004 C 
DOCKED: ATOM     48  C   UNL d   1      10.845   7.726  31.508 -0.57 +0.00    +0.012 C 
DOCKED: ENDBRANCH  17  47
DOCKED: TORSDOF 12
DOCKED: TER
DOCKED: ENDMDL
________________________________________________________________________________


	BEGINNING GENETIC ALGORITHM DOCKING 47 of 100
Run: 47 Seed: 1610799016 2112436087 [ Run 47 of 100 GA/GALS ]
Beginning LAMARCKIAN GENETIC ALGORITHM (LGA), with a maximum of 25000000 energy evaluations.

Final-Value: -11.786


	FINAL GENETIC ALGORITHM DOCKED STATE
	_______________________________________________


Detailed state:  trans 17.487 3.937 14.788 quatxyzw -0.235577 -0.152002 -0.846393 0.452789 center 8.781 34.984 -0.736 ntor 12 19.9997 -93.4221 -11.2492 -29.2888 7.3920 -144.8152 161.6390 -93.1478 -50.2418 -101.0492 7.7590 175.4235
State:	 17.487   3.937  14.788  -0.264 -0.170 -0.949 126.155     20.00  -93.42  -11.25  -29.29    7.39 -144.82  161.64  -93.15  -50.24 -101.05    7.76  175.42

DOCKED: MODEL       47
DOCKED: USER    Run = 47
DOCKED: USER    DPF = D:/Protein_go_brrr/autodock/final/1A3N/heme_Co/dock.dpf
DOCKED: USER  
DOCKED: USER    Estimated Free Energy of Binding    =   -7.57 kcal/mol  [=(1)+(2)+(3)-(4)]
DOCKED: USER    Estimated Inhibition Constant, Ki   =    2.84 uM (micromolar)  [Temperature = 298.15 K]
DOCKED: USER    
DOCKED: USER    (1) Final Intermolecular Energy     =  -11.15 kcal/mol
DOCKED: USER        vdW + Hbond + desolv Energy     =   -9.44 kcal/mol
DOCKED: USER        Electrostatic Energy            =   -1.70 kcal/mol
DOCKED: USER    (2) Final Total Internal Energy     =   -0.64 kcal/mol
DOCKED: USER    (3) Torsional Free Energy           =   +3.58 kcal/mol
DOCKED: USER    (4) Unbound System's Energy  [=(2)] =   -0.64 kcal/mol
DOCKED: USER    
DOCKED: USER    
DOCKED: USER    NEWDPF move heme_Co_opt.pdbqt
DOCKED: USER    NEWDPF about 8.781000 34.984000 -0.736000
DOCKED: USER    NEWDPF tran0 17.486717 3.937057 14.788108
DOCKED: USER    NEWDPF quaternion0 -0.235577 -0.152002 -0.846393 0.452789
DOCKED: USER    NEWDPF axisangle0 -0.264213 -0.170479 -0.949278 126.154508
DOCKED: USER    NEWDPF quat0 -0.264213 -0.170479 -0.949278 126.154508
DOCKED: USER    NEWDPF dihe0 20.00 -93.42 -11.25 -29.29 7.39 -144.82 161.64 -93.15 -50.24 -101.05 7.76 175.42 
DOCKED: USER  keepresnum = 1 
DOCKED: USER  
DOCKED: REMARK  12 active torsions:
DOCKED: REMARK  status: ('A' for Active; 'I' for Inactive)
DOCKED: REMARK    1  A    between atoms: C_6  and  C_10 
DOCKED: REMARK    2  A    between atoms: C_10  and  C_11 
DOCKED: REMARK    3  A    between atoms: C_11  and  C_12 
DOCKED: REMARK    4  A    between atoms: C_12  and  O_14 
DOCKED: REMARK    5  A    between atoms: C_17  and  C_20 
DOCKED: REMARK    6  A    between atoms: C_24  and  C_27 
DOCKED: REMARK    7  A    between atoms: C_31  and  C_34 
DOCKED: REMARK    8  A    between atoms: C_34  and  C_35 
DOCKED: REMARK    9  A    between atoms: C_35  and  C_36 
DOCKED: REMARK   10  A    between atoms: C_36  and  O_38 
DOCKED: REMARK   11  A    between atoms: FE_43  and  C_44 
DOCKED: REMARK   12  A    between atoms: C_44  and  O_45 
DOCKED: USER                              x       y       z     vdW  Elec       q    Type
DOCKED: USER                           _______ _______ _______ _____ _____    ______ ____
DOCKED: ROOT
DOCKED: ATOM      1  C   UNL d   1      17.611   2.007  13.801 -0.14 +0.01    +0.064 A 
DOCKED: ATOM      2  C   UNL d   1      20.860   4.672  16.026 -0.23 -0.00    +0.064 C 
DOCKED: ATOM      3  C   UNL d   1      17.655   8.171  16.593 +0.00 +0.02    +0.064 A 
DOCKED: ATOM      4  C   UNL d   1      14.218   5.317  14.669 -0.25 +0.05    +0.064 A 
DOCKED: ATOM      5  C   UNL d   1      18.744   2.492  14.335 -0.14 +0.01    +0.066 A 
DOCKED: ATOM      6  C   UNL d   1      19.918   1.720  14.427 -0.17 +0.00    -0.021 A 
DOCKED: ATOM      7  C   UNL d   1      20.850   2.490  15.093 -0.20 +0.00    -0.025 A 
DOCKED: ATOM      8  C   UNL d   1      20.211   3.705  15.366 -0.17 -0.00    +0.066 A 
DOCKED: ATOM      9  C   UNL d   1      22.292   2.111  15.468 -0.26 -0.01    +0.051 C 
DOCKED: ATOM     10  C   UNL d   1      20.293   5.963  16.328 -0.19 +0.01    +0.066 A 
DOCKED: ATOM     11  C   UNL d   1      20.965   7.069  16.892 -0.28 -0.00    -0.021 A 
DOCKED: ATOM     12  C   UNL d   1      20.009   8.076  17.043 -0.26 +0.00    +0.000 A 
DOCKED: ATOM     13  C   UNL d   1      18.830   7.517  16.549 -0.19 +0.02    +0.070 A 
DOCKED: ATOM     14  C   UNL d   1      22.443   7.167  17.171 -0.35 +0.02    +0.052 C 
DOCKED: ATOM     15  C   UNL d   1      16.339   7.727  16.179 -0.23 +0.03    +0.066 A 
DOCKED: ATOM     16  C   UNL d   1      15.142   8.397  16.385 -0.24 -0.01    -0.021 A 
DOCKED: ATOM     17  C   UNL d   1      14.147   7.577  15.834 -0.31 +0.00    +0.000 A 
DOCKED: ATOM     18  C   UNL d   1      14.821   6.475  15.318 -0.26 +0.05    +0.070 A 
DOCKED: ATOM     19  C   UNL d   1      14.993   9.736  17.072 -0.34 +0.00    +0.052 C 
DOCKED: ATOM     20  C   UNL d   1      14.843   4.196  14.237 -0.17 +0.06    +0.066 A 
DOCKED: ATOM     21  C   UNL d   1      14.150   3.133  13.661 -0.19 -0.02    -0.025 A 
DOCKED: ATOM     22  C   UNL d   1      15.106   2.176  13.374 -0.14 -0.01    -0.021 A 
DOCKED: ATOM     23  C   UNL d   1      16.344   2.701  13.804 -0.15 +0.04    +0.066 A 
DOCKED: ATOM     24  C   UNL d   1      12.648   3.026  13.414 -0.12 +0.05    +0.051 C 
DOCKED: ATOM     25  N   UNL d   1      18.907   3.736  14.902 -0.10 -0.08    -0.248 N 
DOCKED: ATOM     26  N   UNL d   1      19.016   6.260  16.066 -0.11 -0.09    -0.248 N 
DOCKED: ATOM     27  N   UNL d   1      16.121   6.584  15.568 -0.18 -0.22    -0.248 N 
DOCKED: ATOM     28  N   UNL d   1      16.188   3.923  14.329 +0.02 -0.31    -0.248 N 
DOCKED: ATOM     29 FE   UNL d   1      17.429   5.242  15.253 -0.05 +0.00    +0.000 Fe
DOCKED: ENDROOT
DOCKED: BRANCH   6  30
DOCKED: ATOM     30  C   UNL d   1      20.097   0.278  13.963 -0.18 -0.01    +0.052 C 
DOCKED: BRANCH  30  31
DOCKED: ATOM     31  C   UNL d   1      20.615   0.236  12.526 -0.23 +0.00    +0.115 C 
DOCKED: BRANCH  31  32
DOCKED: ATOM     32  C   UNL d   1      21.848  -0.630  12.383 -0.29 -0.00    +0.139 C 
DOCKED: ATOM     33  O   UNL d   1      21.982  -1.609  13.103 -0.41 +0.00    -0.650 OA
DOCKED: BRANCH  32  34
DOCKED: ATOM     34  O   UNL d   1      22.792  -0.385  11.445 +0.00 +0.02    -0.776 OA
DOCKED: ATOM     35  H   UNL d   1      22.875   0.448  10.961 +0.04 -0.01    +0.167 HD
DOCKED: ENDBRANCH  32  34
DOCKED: ENDBRANCH  31  32
DOCKED: ENDBRANCH  30  31
DOCKED: ENDBRANCH   6  30
DOCKED: BRANCH  29  36
DOCKED: ATOM     36  C   UNL d   1      17.082   4.312  17.099 -0.32 -0.09    +0.190 C 
DOCKED: BRANCH  36  37
DOCKED: ATOM     37  O   UNL d   1      17.700   3.962  18.304 -0.24 +0.61    -0.399 OA
DOCKED: ATOM     38  H   UNL d   1      16.959   3.930  18.972 -0.43 -0.50    +0.209 HD
DOCKED: ENDBRANCH  36  37
DOCKED: ENDBRANCH  29  36
DOCKED: BRANCH  22  39
DOCKED: ATOM     39  C   UNL d   1      14.831   0.808  12.780 -0.10 +0.01    +0.052 C 
DOCKED: BRANCH  39  40
DOCKED: ATOM     40  C   UNL d   1      14.413  -0.186  13.876 -0.07 +0.03    +0.115 C 
DOCKED: BRANCH  40  41
DOCKED: ATOM     41  C   UNL d   1      13.014   0.028  14.414 -0.06 +0.12    +0.139 C 
DOCKED: ATOM     42  O   UNL d   1      12.097   0.230  13.630 -0.09 -0.91    -0.650 OA
DOCKED: BRANCH  41  43
DOCKED: ATOM     43  O   UNL d   1      12.734  -0.085  15.731 +0.08 -0.68    -0.776 OA
DOCKED: ATOM     44  H   UNL d   1      13.390  -0.373  16.379 +0.05 +0.05    +0.167 HD
DOCKED: ENDBRANCH  41  43
DOCKED: ENDBRANCH  40  41
DOCKED: ENDBRANCH  39  40
DOCKED: ENDBRANCH  22  39
DOCKED: BRANCH  12  45
DOCKED: ATOM     45  C   UNL d   1      20.076   9.501  17.576 -0.35 +0.00    +0.004 C 
DOCKED: ATOM     46  C   UNL d   1      20.766  10.014  18.591 -0.45 +0.00    +0.012 C 
DOCKED: ENDBRANCH  12  45
DOCKED: BRANCH  17  47
DOCKED: ATOM     47  C   UNL d   1      12.664   7.754  15.819 -0.46 +0.00    +0.004 C 
DOCKED: ATOM     48  C   UNL d   1      12.019   8.635  16.588 -0.54 +0.00    +0.012 C 
DOCKED: ENDBRANCH  17  47
DOCKED: TORSDOF 12
DOCKED: TER
DOCKED: ENDMDL
________________________________________________________________________________


	BEGINNING GENETIC ALGORITHM DOCKING 48 of 100
Run: 48 Seed: 770767234 213966081 [ Run 48 of 100 GA/GALS ]
Beginning LAMARCKIAN GENETIC ALGORITHM (LGA), with a maximum of 25000000 energy evaluations.

Final-Value: -13.027


	FINAL GENETIC ALGORITHM DOCKED STATE
	_______________________________________________


Detailed state:  trans 23.467 -7.304 36.976 quatxyzw 0.351963 0.746729 0.008912 -0.564303 center 8.781 34.984 -0.736 ntor 12 38.4190 92.9886 120.5175 8.2674 153.3037 125.7880 30.5145 1.7763 180.0000 116.6537 -174.4392 174.4764
State:	 23.467  -7.304  36.976   0.426  0.905  0.011 -111.292     38.42   92.99  120.52    8.27  153.30  125.79   30.51    1.78  180.00  116.65 -174.44  174.48

DOCKED: MODEL       48
DOCKED: USER    Run = 48
DOCKED: USER    DPF = D:/Protein_go_brrr/autodock/final/1A3N/heme_Co/dock.dpf
DOCKED: USER  
DOCKED: USER    Estimated Free Energy of Binding    =   -6.24 kcal/mol  [=(1)+(2)+(3)-(4)]
DOCKED: USER    Estimated Inhibition Constant, Ki   =   26.48 uM (micromolar)  [Temperature = 298.15 K]
DOCKED: USER    
DOCKED: USER    (1) Final Intermolecular Energy     =   -9.82 kcal/mol
DOCKED: USER        vdW + Hbond + desolv Energy     =   -7.42 kcal/mol
DOCKED: USER        Electrostatic Energy            =   -2.40 kcal/mol
DOCKED: USER    (2) Final Total Internal Energy     =   -3.20 kcal/mol
DOCKED: USER    (3) Torsional Free Energy           =   +3.58 kcal/mol
DOCKED: USER    (4) Unbound System's Energy  [=(2)] =   -3.20 kcal/mol
DOCKED: USER    
DOCKED: USER    
DOCKED: USER    NEWDPF move heme_Co_opt.pdbqt
DOCKED: USER    NEWDPF about 8.781000 34.984000 -0.736000
DOCKED: USER    NEWDPF tran0 23.467355 -7.304028 36.975827
DOCKED: USER    NEWDPF quaternion0 0.351963 0.746729 0.008912 -0.564303
DOCKED: USER    NEWDPF axisangle0 0.426328 0.904504 0.010795 -111.292141
DOCKED: USER    NEWDPF quat0 0.426328 0.904504 0.010795 -111.292141
DOCKED: USER    NEWDPF dihe0 38.42 92.99 120.52 8.27 153.30 125.79 30.51 1.78 180.00 116.65 -174.44 174.48 
DOCKED: USER  keepresnum = 1 
DOCKED: USER  
DOCKED: REMARK  12 active torsions:
DOCKED: REMARK  status: ('A' for Active; 'I' for Inactive)
DOCKED: REMARK    1  A    between atoms: C_6  and  C_10 
DOCKED: REMARK    2  A    between atoms: C_10  and  C_11 
DOCKED: REMARK    3  A    between atoms: C_11  and  C_12 
DOCKED: REMARK    4  A    between atoms: C_12  and  O_14 
DOCKED: REMARK    5  A    between atoms: C_17  and  C_20 
DOCKED: REMARK    6  A    between atoms: C_24  and  C_27 
DOCKED: REMARK    7  A    between atoms: C_31  and  C_34 
DOCKED: REMARK    8  A    between atoms: C_34  and  C_35 
DOCKED: REMARK    9  A    between atoms: C_35  and  C_36 
DOCKED: REMARK   10  A    between atoms: C_36  and  O_38 
DOCKED: REMARK   11  A    between atoms: FE_43  and  C_44 
DOCKED: REMARK   12  A    between atoms: C_44  and  O_45 
DOCKED: USER                              x       y       z     vdW  Elec       q    Type
DOCKED: USER                           _______ _______ _______ _____ _____    ______ ____
DOCKED: ROOT
DOCKED: ATOM      1  C   UNL d   1      23.226  -7.639  39.108 -0.07 +0.02    +0.064 A 
DOCKED: ATOM      2  C   UNL d   1      24.881 -10.399  35.607 -0.20 +0.03    +0.064 C 
DOCKED: ATOM      3  C   UNL d   1      23.730  -7.065  32.384 -0.19 +0.00    +0.064 A 
DOCKED: ATOM      4  C   UNL d   1      22.390  -4.072  35.977 -0.13 +0.01    +0.064 A 
DOCKED: ATOM      5  C   UNL d   1      23.729  -8.653  38.384 -0.09 +0.03    +0.066 A 
DOCKED: ATOM      6  C   UNL d   1      24.256  -9.812  38.987 -0.07 -0.01    -0.021 A 
DOCKED: ATOM      7  C   UNL d   1      24.755 -10.599  37.968 -0.10 -0.01    -0.025 A 
DOCKED: ATOM      8  C   UNL d   1      24.498  -9.895  36.787 -0.14 +0.03    +0.066 A 
DOCKED: ATOM      9  C   UNL d   1      25.451 -11.964  38.086 -0.07 +0.02    +0.051 C 
DOCKED: ATOM     10  C   UNL d   1      24.636  -9.759  34.338 -0.24 +0.02    +0.066 A 
DOCKED: ATOM     11  C   UNL d   1      24.886 -10.300  33.059 -0.31 -0.00    -0.021 A 
DOCKED: ATOM     12  C   UNL d   1      24.538  -9.309  32.137 -0.39 +0.00    +0.000 A 
DOCKED: ATOM     13  C   UNL d   1      24.090  -8.244  32.920 -0.31 +0.01    +0.070 A 
DOCKED: ATOM     14  C   UNL d   1      25.337 -11.706  32.757 -0.30 +0.01    +0.052 C 
DOCKED: ATOM     15  C   UNL d   1      23.295  -5.849  33.043 -0.28 +0.01    +0.066 A 
DOCKED: ATOM     16  C   UNL d   1      23.077  -4.619  32.440 -0.40 -0.00    -0.021 A 
DOCKED: ATOM     17  C   UNL d   1      22.693  -3.752  33.472 -0.43 +0.00    +0.000 A 
DOCKED: ATOM     18  C   UNL d   1      22.691  -4.529  34.626 -0.27 +0.01    +0.070 A 
DOCKED: ATOM     19  C   UNL d   1      23.237  -4.325  30.965 -0.42 +0.01    +0.052 C 
DOCKED: ATOM     20  C   UNL d   1      22.465  -4.788  37.125 -0.04 +0.01    +0.066 A 
DOCKED: ATOM     21  C   UNL d   1      22.186  -4.228  38.370 -0.07 -0.00    -0.025 A 
DOCKED: ATOM     22  C   UNL d   1      22.390  -5.241  39.289 -0.07 -0.00    -0.021 A 
DOCKED: ATOM     23  C   UNL d   1      22.799  -6.374  38.554 -0.09 +0.02    +0.066 A 
DOCKED: ATOM     24  C   UNL d   1      21.764  -2.792  38.672 -0.11 +0.01    +0.051 C 
DOCKED: ATOM     25  N   UNL d   1      23.858  -8.688  37.014 -0.09 -0.11    -0.248 N 
DOCKED: ATOM     26  N   UNL d   1      24.097  -8.539  34.248 -0.18 -0.07    -0.248 N 
DOCKED: ATOM     27  N   UNL d   1      23.084  -5.764  34.337 -0.20 -0.04    -0.248 N 
DOCKED: ATOM     28  N   UNL d   1      22.848  -6.103  37.244 -0.09 -0.07    -0.248 N 
DOCKED: ATOM     29 FE   UNL d   1      23.446  -7.138  35.599 -0.05 +0.00    +0.000 Fe
DOCKED: ENDROOT
DOCKED: BRANCH   6  30
DOCKED: ATOM     30  C   UNL d   1      24.343 -10.100  40.482 -0.02 +0.02    +0.052 C 
DOCKED: BRANCH  30  31
DOCKED: ATOM     31  C   UNL d   1      25.668  -9.594  41.050 -0.02 +0.05    +0.115 C 
DOCKED: BRANCH  31  32
DOCKED: ATOM     32  C   UNL d   1      26.559  -8.988  39.987 +0.03 +0.15    +0.139 C 
DOCKED: ATOM     33  O   UNL d   1      27.462  -9.657  39.507 +0.02 -0.97    -0.650 OA
DOCKED: BRANCH  32  34
DOCKED: ATOM     34  O   UNL d   1      26.358  -7.738  39.510 -0.15 -1.17    -0.776 OA
DOCKED: ATOM     35  H   UNL d   1      26.027  -7.000  40.041 +0.01 +0.15    +0.167 HD
DOCKED: ENDBRANCH  32  34
DOCKED: ENDBRANCH  31  32
DOCKED: ENDBRANCH  30  31
DOCKED: ENDBRANCH   6  30
DOCKED: BRANCH  29  36
DOCKED: ATOM     36  C   UNL d   1      25.423  -6.503  35.890 +0.00 +0.13    +0.190 C 
DOCKED: BRANCH  36  37
DOCKED: ATOM     37  O   UNL d   1      26.455  -6.469  36.833 +0.06 -0.65    -0.399 OA
DOCKED: ATOM     38  H   UNL d   1      26.002  -6.594  37.713 +0.04 +0.31    +0.209 HD
DOCKED: ENDBRANCH  36  37
DOCKED: ENDBRANCH  29  36
DOCKED: BRANCH  22  39
DOCKED: ATOM     39  C   UNL d   1      22.262  -5.102  40.794 -0.03 +0.01    +0.052 C 
DOCKED: BRANCH  39  40
DOCKED: ATOM     40  C   UNL d   1      23.562  -4.549  41.401 -0.00 +0.02    +0.115 C 
DOCKED: BRANCH  40  41
DOCKED: ATOM     41  C   UNL d   1      24.734  -5.506  41.344 -0.00 +0.04    +0.139 C 
DOCKED: ATOM     42  O   UNL d   1      25.846  -5.074  41.077 +0.02 -0.25    -0.650 OA
DOCKED: BRANCH  41  43
DOCKED: ATOM     43  O   UNL d   1      24.602  -6.811  41.667 +0.02 -0.24    -0.776 OA
DOCKED: ATOM     44  H   UNL d   1      24.882  -7.523  41.077 +0.01 +0.07    +0.167 HD
DOCKED: ENDBRANCH  41  43
DOCKED: ENDBRANCH  40  41
DOCKED: ENDBRANCH  39  40
DOCKED: ENDBRANCH  22  39
DOCKED: BRANCH  12  45
DOCKED: ATOM     45  C   UNL d   1      24.559  -9.252  30.616 -0.47 +0.00    +0.004 C 
DOCKED: ATOM     46  C   UNL d   1      24.932 -10.162  29.720 -0.55 +0.00    +0.012 C 
DOCKED: ENDBRANCH  12  45
DOCKED: BRANCH  17  47
DOCKED: ATOM     47  C   UNL d   1      22.393  -2.289  33.428 -0.55 +0.00    +0.004 C 
DOCKED: ATOM     48  C   UNL d   1      21.307  -1.742  33.981 -0.42 +0.00    +0.012 C 
DOCKED: ENDBRANCH  17  47
DOCKED: TORSDOF 12
DOCKED: TER
DOCKED: ENDMDL
________________________________________________________________________________


	BEGINNING GENETIC ALGORITHM DOCKING 49 of 100
Run: 49 Seed: 1682086775 738315979 [ Run 49 of 100 GA/GALS ]
Beginning LAMARCKIAN GENETIC ALGORITHM (LGA), with a maximum of 25000000 energy evaluations.

Final-Value: -13.631


	FINAL GENETIC ALGORITHM DOCKED STATE
	_______________________________________________


Detailed state:  trans 23.317 8.648 -8.849 quatxyzw -0.406563 0.280597 -0.802039 -0.335717 center 8.781 34.984 -0.736 ntor 12 -180.0000 -126.8909 -5.1289 -94.8717 75.5088 -179.5116 -174.4977 -43.3364 -80.3012 -178.3625 -174.0343 -179.1931
State:	 23.317   8.648  -8.849  -0.432  0.298 -0.851 -140.768   -180.00 -126.89   -5.13  -94.87   75.51 -179.51 -174.50  -43.34  -80.30 -178.36 -174.03 -179.19

DOCKED: MODEL       49
DOCKED: USER    Run = 49
DOCKED: USER    DPF = D:/Protein_go_brrr/autodock/final/1A3N/heme_Co/dock.dpf
DOCKED: USER  
DOCKED: USER    Estimated Free Energy of Binding    =   -8.21 kcal/mol  [=(1)+(2)+(3)-(4)]
DOCKED: USER    Estimated Inhibition Constant, Ki   =  963.93 nM (nanomolar)  [Temperature = 298.15 K]
DOCKED: USER    
DOCKED: USER    (1) Final Intermolecular Energy     =  -11.79 kcal/mol
DOCKED: USER        vdW + Hbond + desolv Energy     =   -8.95 kcal/mol
DOCKED: USER        Electrostatic Energy            =   -2.84 kcal/mol
DOCKED: USER    (2) Final Total Internal Energy     =   -1.84 kcal/mol
DOCKED: USER    (3) Torsional Free Energy           =   +3.58 kcal/mol
DOCKED: USER    (4) Unbound System's Energy  [=(2)] =   -1.84 kcal/mol
DOCKED: USER    
DOCKED: USER    
DOCKED: USER    NEWDPF move heme_Co_opt.pdbqt
DOCKED: USER    NEWDPF about 8.781000 34.984000 -0.736000
DOCKED: USER    NEWDPF tran0 23.316781 8.648324 -8.849152
DOCKED: USER    NEWDPF quaternion0 -0.406563 0.280597 -0.802039 -0.335717
DOCKED: USER    NEWDPF axisangle0 -0.431613 0.297885 -0.851454 -140.767730
DOCKED: USER    NEWDPF quat0 -0.431613 0.297885 -0.851454 -140.767730
DOCKED: USER    NEWDPF dihe0 -180.00 -126.89 -5.13 -94.87 75.51 -179.51 -174.50 -43.34 -80.30 -178.36 -174.03 -179.19 
DOCKED: USER  keepresnum = 1 
DOCKED: USER  
DOCKED: REMARK  12 active torsions:
DOCKED: REMARK  status: ('A' for Active; 'I' for Inactive)
DOCKED: REMARK    1  A    between atoms: C_6  and  C_10 
DOCKED: REMARK    2  A    between atoms: C_10  and  C_11 
DOCKED: REMARK    3  A    between atoms: C_11  and  C_12 
DOCKED: REMARK    4  A    between atoms: C_12  and  O_14 
DOCKED: REMARK    5  A    between atoms: C_17  and  C_20 
DOCKED: REMARK    6  A    between atoms: C_24  and  C_27 
DOCKED: REMARK    7  A    between atoms: C_31  and  C_34 
DOCKED: REMARK    8  A    between atoms: C_34  and  C_35 
DOCKED: REMARK    9  A    between atoms: C_35  and  C_36 
DOCKED: REMARK   10  A    between atoms: C_36  and  O_38 
DOCKED: REMARK   11  A    between atoms: FE_43  and  C_44 
DOCKED: REMARK   12  A    between atoms: C_44  and  O_45 
DOCKED: USER                              x       y       z     vdW  Elec       q    Type
DOCKED: USER                           _______ _______ _______ _____ _____    ______ ____
DOCKED: ROOT
DOCKED: ATOM      1  C   UNL d   1      23.616   9.974 -10.542 -0.13 +0.04    +0.064 A 
DOCKED: ATOM      2  C   UNL d   1      25.371   9.989  -6.123 -0.29 +0.02    +0.064 C 
DOCKED: ATOM      3  C   UNL d   1      22.592   6.279  -4.967 -0.20 +0.01    +0.064 A 
DOCKED: ATOM      4  C   UNL d   1      21.070   5.999  -9.578 -0.10 +0.02    +0.064 A 
DOCKED: ATOM      5  C   UNL d   1      24.273  10.274  -9.410 -0.17 +0.04    +0.066 A 
DOCKED: ATOM      6  C   UNL d   1      25.256  11.282  -9.360 -0.17 -0.01    -0.021 A 
DOCKED: ATOM      7  C   UNL d   1      25.778  11.266  -8.081 -0.21 -0.01    -0.025 A 
DOCKED: ATOM      8  C   UNL d   1      25.081  10.262  -7.402 -0.23 +0.03    +0.066 A 
DOCKED: ATOM      9  C   UNL d   1      26.891  12.156  -7.507 -0.24 +0.01    +0.051 C 
DOCKED: ATOM     10  C   UNL d   1      24.690   8.993  -5.335 -0.34 +0.02    +0.066 A 
DOCKED: ATOM     11  C   UNL d   1      24.851   8.755  -3.953 -0.40 -0.00    -0.021 A 
DOCKED: ATOM     12  C   UNL d   1      24.026   7.670  -3.642 -0.34 +0.00    +0.000 A 
DOCKED: ATOM     13  C   UNL d   1      23.415   7.336  -4.851 -0.19 +0.01    +0.070 A 
DOCKED: ATOM     14  C   UNL d   1      25.669   9.582  -2.995 -0.47 +0.01    +0.052 C 
DOCKED: ATOM     15  C   UNL d   1      21.920   5.761  -6.142 -0.25 +0.01    +0.066 A 
DOCKED: ATOM     16  C   UNL d   1      21.198   4.579  -6.224 -0.37 -0.00    -0.021 A 
DOCKED: ATOM     17  C   UNL d   1      20.759   4.492  -7.553 -0.24 +0.00    +0.000 A 
DOCKED: ATOM     18  C   UNL d   1      21.235   5.642  -8.175 -0.08 +0.02    +0.070 A 
DOCKED: ATOM     19  C   UNL d   1      20.964   3.614  -5.083 -0.31 +0.01    +0.052 C 
DOCKED: ATOM     20  C   UNL d   1      21.596   7.066 -10.225 -0.13 +0.03    +0.066 A 
DOCKED: ATOM     21  C   UNL d   1      21.395   7.284 -11.586 -0.07 -0.01    -0.025 A 
DOCKED: ATOM     22  C   UNL d   1      22.094   8.439 -11.887 -0.06 -0.01    -0.021 A 
DOCKED: ATOM     23  C   UNL d   1      22.701   8.866 -10.686 -0.12 +0.04    +0.066 A 
DOCKED: ATOM     24  C   UNL d   1      20.594   6.423 -12.559 -0.05 +0.02    +0.051 C 
DOCKED: ATOM     25  N   UNL d   1      24.138   9.634  -8.199 -0.13 -0.14    -0.248 N 
DOCKED: ATOM     26  N   UNL d   1      23.775   8.171  -5.861 -0.21 -0.06    -0.248 N 
DOCKED: ATOM     27  N   UNL d   1      21.947   6.359  -7.313 -0.15 -0.07    -0.248 N 
DOCKED: ATOM     28  N   UNL d   1      22.403   8.036  -9.679 -0.11 -0.13    -0.248 N 
DOCKED: ATOM     29 FE   UNL d   1      22.976   7.900  -7.733 -0.06 +0.00    +0.000 Fe
DOCKED: ENDROOT
DOCKED: BRANCH   6  30
DOCKED: ATOM     30  C   UNL d   1      25.720  12.157 -10.519 -0.10 +0.02    +0.052 C 
DOCKED: BRANCH  30  31
DOCKED: ATOM     31  C   UNL d   1      26.885  11.498 -11.258 -0.09 +0.08    +0.115 C 
DOCKED: BRANCH  31  32
DOCKED: ATOM     32  C   UNL d   1      26.436  10.757 -12.498 -0.08 +0.12    +0.139 C 
DOCKED: ATOM     33  O   UNL d   1      25.805  11.352 -13.359 +0.00 -0.32    -0.650 OA
DOCKED: BRANCH  32  34
DOCKED: ATOM     34  O   UNL d   1      26.752   9.458 -12.713 -0.28 -1.36    -0.776 OA
DOCKED: ATOM     35  H   UNL d   1      26.435   8.938 -13.464 -0.00 +0.22    +0.167 HD
DOCKED: ENDBRANCH  32  34
DOCKED: ENDBRANCH  31  32
DOCKED: ENDBRANCH  30  31
DOCKED: ENDBRANCH   6  30
DOCKED: BRANCH  29  36
DOCKED: ATOM     36  C   UNL d   1      24.653   6.767  -8.281 -0.10 +0.16    +0.190 C 
DOCKED: BRANCH  36  37
DOCKED: ATOM     37  O   UNL d   1      26.047   6.818  -8.383 -0.60 -0.57    -0.399 OA
DOCKED: ATOM     38  H   UNL d   1      26.374   6.094  -7.779 -0.43 +0.10    +0.209 HD
DOCKED: ENDBRANCH  36  37
DOCKED: ENDBRANCH  29  36
DOCKED: BRANCH  22  39
DOCKED: ATOM     39  C   UNL d   1      22.221   9.057 -13.267 -0.02 +0.02    +0.052 C 
DOCKED: BRANCH  39  40
DOCKED: ATOM     40  C   UNL d   1      23.251   8.290 -14.112 -0.01 +0.05    +0.115 C 
DOCKED: BRANCH  40  41
DOCKED: ATOM     41  C   UNL d   1      23.963   7.177 -13.371 -0.04 +0.10    +0.139 C 
DOCKED: ATOM     42  O   UNL d   1      23.535   6.035 -13.452 +0.02 -0.35    -0.650 OA
DOCKED: BRANCH  41  43
DOCKED: ATOM     43  O   UNL d   1      25.111   7.397 -12.692 +0.27 -1.37    -0.776 OA
DOCKED: ATOM     44  H   UNL d   1      25.519   8.270 -12.632 +0.02 +0.37    +0.167 HD
DOCKED: ENDBRANCH  41  43
DOCKED: ENDBRANCH  40  41
DOCKED: ENDBRANCH  39  40
DOCKED: ENDBRANCH  22  39
DOCKED: BRANCH  12  45
DOCKED: ATOM     45  C   UNL d   1      23.731   6.928  -2.345 -0.42 +0.00    +0.004 C 
DOCKED: ATOM     46  C   UNL d   1      24.159   5.747  -1.907 -0.42 +0.00    +0.012 C 
DOCKED: ENDBRANCH  12  45
DOCKED: BRANCH  17  47
DOCKED: ATOM     47  C   UNL d   1      19.995   3.406  -8.236 -0.40 +0.00    +0.004 C 
DOCKED: ATOM     48  C   UNL d   1      18.832   2.929  -7.788 -0.41 +0.00    +0.012 C 
DOCKED: ENDBRANCH  17  47
DOCKED: TORSDOF 12
DOCKED: TER
DOCKED: ENDMDL
________________________________________________________________________________


	BEGINNING GENETIC ALGORITHM DOCKING 50 of 100
Run: 50 Seed: 90302480 55427568 [ Run 50 of 100 GA/GALS ]
Beginning LAMARCKIAN GENETIC ALGORITHM (LGA), with a maximum of 25000000 energy evaluations.

Final-Value: -13.067


	FINAL GENETIC ALGORITHM DOCKED STATE
	_______________________________________________


Detailed state:  trans 9.037 -13.722 19.402 quatxyzw -0.282253 -0.538398 0.350654 -0.712392 center 8.781 34.984 -0.736 ntor 12 128.5538 11.7636 -51.5061 83.2981 34.0498 -139.2309 -126.9217 103.4947 69.7808 43.1144 -12.1265 167.0566
State:	  9.037 -13.722  19.402  -0.402 -0.767  0.500 -89.140    128.55   11.76  -51.51   83.30   34.05 -139.23 -126.92  103.49   69.78   43.11  -12.13  167.06

DOCKED: MODEL       50
DOCKED: USER    Run = 50
DOCKED: USER    DPF = D:/Protein_go_brrr/autodock/final/1A3N/heme_Co/dock.dpf
DOCKED: USER  
DOCKED: USER    Estimated Free Energy of Binding    =   -7.26 kcal/mol  [=(1)+(2)+(3)-(4)]
DOCKED: USER    Estimated Inhibition Constant, Ki   =    4.76 uM (micromolar)  [Temperature = 298.15 K]
DOCKED: USER    
DOCKED: USER    (1) Final Intermolecular Energy     =  -10.84 kcal/mol
DOCKED: USER        vdW + Hbond + desolv Energy     =   -7.19 kcal/mol
DOCKED: USER        Electrostatic Energy            =   -3.65 kcal/mol
DOCKED: USER    (2) Final Total Internal Energy     =   -2.23 kcal/mol
DOCKED: USER    (3) Torsional Free Energy           =   +3.58 kcal/mol
DOCKED: USER    (4) Unbound System's Energy  [=(2)] =   -2.23 kcal/mol
DOCKED: USER    
DOCKED: USER    
DOCKED: USER    NEWDPF move heme_Co_opt.pdbqt
DOCKED: USER    NEWDPF about 8.781000 34.984000 -0.736000
DOCKED: USER    NEWDPF tran0 9.037376 -13.721942 19.402059
DOCKED: USER    NEWDPF quaternion0 -0.282253 -0.538398 0.350654 -0.712392
DOCKED: USER    NEWDPF axisangle0 -0.402194 -0.767187 0.499663 -89.140211
DOCKED: USER    NEWDPF quat0 -0.402194 -0.767187 0.499663 -89.140211
DOCKED: USER    NEWDPF dihe0 128.55 11.76 -51.51 83.30 34.05 -139.23 -126.92 103.49 69.78 43.11 -12.13 167.06 
DOCKED: USER  keepresnum = 1 
DOCKED: USER  
DOCKED: REMARK  12 active torsions:
DOCKED: REMARK  status: ('A' for Active; 'I' for Inactive)
DOCKED: REMARK    1  A    between atoms: C_6  and  C_10 
DOCKED: REMARK    2  A    between atoms: C_10  and  C_11 
DOCKED: REMARK    3  A    between atoms: C_11  and  C_12 
DOCKED: REMARK    4  A    between atoms: C_12  and  O_14 
DOCKED: REMARK    5  A    between atoms: C_17  and  C_20 
DOCKED: REMARK    6  A    between atoms: C_24  and  C_27 
DOCKED: REMARK    7  A    between atoms: C_31  and  C_34 
DOCKED: REMARK    8  A    between atoms: C_34  and  C_35 
DOCKED: REMARK    9  A    between atoms: C_35  and  C_36 
DOCKED: REMARK   10  A    between atoms: C_36  and  O_38 
DOCKED: REMARK   11  A    between atoms: FE_43  and  C_44 
DOCKED: REMARK   12  A    between atoms: C_44  and  O_45 
DOCKED: USER                              x       y       z     vdW  Elec       q    Type
DOCKED: USER                           _______ _______ _______ _____ _____    ______ ____
DOCKED: ROOT
DOCKED: ATOM      1  C   UNL d   1       9.423 -15.001  17.690 -0.10 +0.06    +0.064 A 
DOCKED: ATOM      2  C   UNL d   1       6.558 -15.480  21.455 -0.21 +0.03    +0.064 C 
DOCKED: ATOM      3  C   UNL d   1       8.296 -11.446  23.337 -0.18 -0.01    +0.064 A 
DOCKED: ATOM      4  C   UNL d   1      10.950 -10.732  19.324 -0.12 +0.02    +0.064 A 
DOCKED: ATOM      5  C   UNL d   1       8.539 -15.447  18.597 -0.12 +0.06    +0.066 A 
DOCKED: ATOM      6  C   UNL d   1       7.751 -16.593  18.373 -0.09 -0.01    -0.021 A 
DOCKED: ATOM      7  C   UNL d   1       6.906 -16.715  19.459 -0.14 -0.01    -0.025 A 
DOCKED: ATOM      8  C   UNL d   1       7.224 -15.647  20.306 -0.14 +0.04    +0.066 A 
DOCKED: ATOM      9  C   UNL d   1       5.834 -17.788  19.703 -0.13 +0.02    +0.051 C 
DOCKED: ATOM     10  C   UNL d   1       6.834 -14.427  22.401 -0.21 +0.02    +0.066 A 
DOCKED: ATOM     11  C   UNL d   1       6.268 -14.279  23.686 -0.19 -0.00    -0.021 A 
DOCKED: ATOM     12  C   UNL d   1       6.795 -13.097  24.214 -0.22 +0.00    +0.000 A 
DOCKED: ATOM     13  C   UNL d   1       7.650 -12.620  23.221 -0.20 +0.00    +0.070 A 
DOCKED: ATOM     14  C   UNL d   1       5.361 -15.262  24.381 -0.18 +0.01    +0.052 C 
DOCKED: ATOM     15  C   UNL d   1       9.172 -10.781  22.393 -0.28 +0.00    +0.066 A 
DOCKED: ATOM     16  C   UNL d   1       9.692  -9.500  22.514 -0.31 +0.00    -0.021 A 
DOCKED: ATOM     17  C   UNL d   1      10.456  -9.289  21.358 -0.25 +0.00    +0.000 A 
DOCKED: ATOM     18  C   UNL d   1      10.355 -10.468  20.628 -0.19 +0.02    +0.070 A 
DOCKED: ATOM     19  C   UNL d   1       9.452  -8.563  23.677 -0.42 -0.00    +0.052 C 
DOCKED: ATOM     20  C   UNL d   1      10.795 -11.837  18.555 -0.09 +0.03    +0.066 A 
DOCKED: ATOM     21  C   UNL d   1      11.390 -11.961  17.302 -0.07 -0.01    -0.025 A 
DOCKED: ATOM     22  C   UNL d   1      10.991 -13.194  16.819 -0.06 -0.01    -0.021 A 
DOCKED: ATOM     23  C   UNL d   1      10.156 -13.761  17.805 -0.10 +0.05    +0.066 A 
DOCKED: ATOM     24  C   UNL d   1      12.279 -10.945  16.589 -0.11 +0.02    +0.051 C 
DOCKED: ATOM     25  N   UNL d   1       8.237 -14.849  19.800 -0.05 -0.18    -0.248 N 
DOCKED: ATOM     26  N   UNL d   1       7.715 -13.454  22.149 -0.15 -0.06    -0.248 N 
DOCKED: ATOM     27  N   UNL d   1       9.558 -11.322  21.259 -0.16 -0.05    -0.248 N 
DOCKED: ATOM     28  N   UNL d   1      10.033 -12.942  18.857 -0.07 -0.14    -0.248 N 
DOCKED: ATOM     29 FE   UNL d   1       8.939 -12.981  20.570 -0.05 +0.00    +0.000 Fe
DOCKED: ENDROOT
DOCKED: BRANCH   6  30
DOCKED: ATOM     30  C   UNL d   1       7.764 -17.476  17.130 -0.04 +0.04    +0.052 C 
DOCKED: BRANCH  30  31
DOCKED: ATOM     31  C   UNL d   1       9.045 -18.308  17.074 -0.05 +0.11    +0.115 C 
DOCKED: BRANCH  31  32
DOCKED: ATOM     32  C   UNL d   1       9.953 -17.894  15.936 -0.06 +0.17    +0.139 C 
DOCKED: ATOM     33  O   UNL d   1      10.946 -17.223  16.173 -0.23 -1.15    -0.650 OA
DOCKED: BRANCH  32  34
DOCKED: ATOM     34  O   UNL d   1       9.727 -18.285  14.660 +0.01 -0.83    -0.776 OA
DOCKED: ATOM     35  H   UNL d   1       9.634 -17.677  13.914 +0.01 +0.25    +0.167 HD
DOCKED: ENDBRANCH  32  34
DOCKED: ENDBRANCH  31  32
DOCKED: ENDBRANCH  30  31
DOCKED: ENDBRANCH   6  30
DOCKED: BRANCH  29  36
DOCKED: ATOM     36  C   UNL d   1       7.317 -12.093  19.582 -0.07 +0.07    +0.190 C 
DOCKED: BRANCH  36  37
DOCKED: ATOM     37  O   UNL d   1       5.920 -12.025  19.572 -0.18 -0.18    -0.399 OA
DOCKED: ATOM     38  H   UNL d   1       5.640 -12.617  18.820 -0.09 +0.08    +0.209 HD
DOCKED: ENDBRANCH  36  37
DOCKED: ENDBRANCH  29  36
DOCKED: BRANCH  22  39
DOCKED: ATOM     39  C   UNL d   1      11.343 -13.761  15.457 -0.05 +0.04    +0.052 C 
DOCKED: BRANCH  39  40
DOCKED: ATOM     40  C   UNL d   1      10.268 -13.392  14.421 -0.07 +0.09    +0.115 C 
DOCKED: BRANCH  40  41
DOCKED: ATOM     41  C   UNL d   1       9.971 -14.482  13.413 -0.00 +0.20    +0.139 C 
DOCKED: ATOM     42  O   UNL d   1      10.173 -14.271  12.226 +0.01 -1.05    -0.650 OA
DOCKED: BRANCH  41  43
DOCKED: ATOM     43  O   UNL d   1       9.570 -15.714  13.797 -0.48 -1.61    -0.776 OA
DOCKED: ATOM     44  H   UNL d   1       9.993 -16.197  14.519 +0.02 +0.23    +0.167 HD
DOCKED: ENDBRANCH  41  43
DOCKED: ENDBRANCH  40  41
DOCKED: ENDBRANCH  39  40
DOCKED: ENDBRANCH  22  39
DOCKED: BRANCH  12  45
DOCKED: ATOM     45  C   UNL d   1       6.605 -12.378  25.543 -0.28 -0.00    +0.004 C 
DOCKED: ATOM     46  C   UNL d   1       7.074 -12.660  26.756 -0.41 -0.00    +0.012 C 
DOCKED: ENDBRANCH  12  45
DOCKED: BRANCH  17  47
DOCKED: ATOM     47  C   UNL d   1      11.196  -8.070  20.913 -0.28 +0.00    +0.004 C 
DOCKED: ATOM     48  C   UNL d   1      11.437  -7.023  21.706 -0.35 +0.00    +0.012 C 
DOCKED: ENDBRANCH  17  47
DOCKED: TORSDOF 12
DOCKED: TER
DOCKED: ENDMDL
________________________________________________________________________________


	BEGINNING GENETIC ALGORITHM DOCKING 51 of 100
Run: 51 Seed: 80934516 1001255003 [ Run 51 of 100 GA/GALS ]
Beginning LAMARCKIAN GENETIC ALGORITHM (LGA), with a maximum of 25000000 energy evaluations.

Final-Value: -13.518


	FINAL GENETIC ALGORITHM DOCKED STATE
	_______________________________________________


Detailed state:  trans 8.488 14.183 33.485 quatxyzw 0.724254 -0.373641 -0.569496 -0.107344 center 8.781 34.984 -0.736 ntor 12 137.6042 -113.6862 136.7815 -3.5280 134.7305 168.0435 71.6729 -159.5521 66.0070 79.5218 -126.6202 -41.1742
State:	  8.488  14.183  33.485   0.728 -0.376 -0.573 -167.676    137.60 -113.69  136.78   -3.53  134.73  168.04   71.67 -159.55   66.01   79.52 -126.62  -41.17

DOCKED: MODEL       51
DOCKED: USER    Run = 51
DOCKED: USER    DPF = D:/Protein_go_brrr/autodock/final/1A3N/heme_Co/dock.dpf
DOCKED: USER  
DOCKED: USER    Estimated Free Energy of Binding    =   -9.48 kcal/mol  [=(1)+(2)+(3)-(4)]
DOCKED: USER    Estimated Inhibition Constant, Ki   =  113.15 nM (nanomolar)  [Temperature = 298.15 K]
DOCKED: USER    
DOCKED: USER    (1) Final Intermolecular Energy     =  -13.06 kcal/mol
DOCKED: USER        vdW + Hbond + desolv Energy     =  -10.42 kcal/mol
DOCKED: USER        Electrostatic Energy            =   -2.64 kcal/mol
DOCKED: USER    (2) Final Total Internal Energy     =   -0.46 kcal/mol
DOCKED: USER    (3) Torsional Free Energy           =   +3.58 kcal/mol
DOCKED: USER    (4) Unbound System's Energy  [=(2)] =   -0.46 kcal/mol
DOCKED: USER    
DOCKED: USER    
DOCKED: USER    NEWDPF move heme_Co_opt.pdbqt
DOCKED: USER    NEWDPF about 8.781000 34.984000 -0.736000
DOCKED: USER    NEWDPF tran0 8.487574 14.182951 33.485134
DOCKED: USER    NEWDPF quaternion0 0.724254 -0.373641 -0.569496 -0.107344
DOCKED: USER    NEWDPF axisangle0 0.728463 -0.375813 -0.572806 -167.675531
DOCKED: USER    NEWDPF quat0 0.728463 -0.375813 -0.572806 -167.675531
DOCKED: USER    NEWDPF dihe0 137.60 -113.69 136.78 -3.53 134.73 168.04 71.67 -159.55 66.01 79.52 -126.62 -41.17 
DOCKED: USER  keepresnum = 1 
DOCKED: USER  
DOCKED: REMARK  12 active torsions:
DOCKED: REMARK  status: ('A' for Active; 'I' for Inactive)
DOCKED: REMARK    1  A    between atoms: C_6  and  C_10 
DOCKED: REMARK    2  A    between atoms: C_10  and  C_11 
DOCKED: REMARK    3  A    between atoms: C_11  and  C_12 
DOCKED: REMARK    4  A    between atoms: C_12  and  O_14 
DOCKED: REMARK    5  A    between atoms: C_17  and  C_20 
DOCKED: REMARK    6  A    between atoms: C_24  and  C_27 
DOCKED: REMARK    7  A    between atoms: C_31  and  C_34 
DOCKED: REMARK    8  A    between atoms: C_34  and  C_35 
DOCKED: REMARK    9  A    between atoms: C_35  and  C_36 
DOCKED: REMARK   10  A    between atoms: C_36  and  O_38 
DOCKED: REMARK   11  A    between atoms: FE_43  and  C_44 
DOCKED: REMARK   12  A    between atoms: C_44  and  O_45 
DOCKED: USER                              x       y       z     vdW  Elec       q    Type
DOCKED: USER                           _______ _______ _______ _____ _____    ______ ____
DOCKED: ROOT
DOCKED: ATOM      1  C   UNL d   1       8.908  14.889  35.495 -0.09 +0.05    +0.064 A 
DOCKED: ATOM      2  C   UNL d   1       6.733  16.918  31.786 -0.25 +0.03    +0.064 C 
DOCKED: ATOM      3  C   UNL d   1       7.802  13.151  29.049 -0.20 +0.01    +0.064 A 
DOCKED: ATOM      4  C   UNL d   1       9.691  10.891  32.921 +0.03 +0.04    +0.064 A 
DOCKED: ATOM      5  C   UNL d   1       8.267  15.736  34.673 -0.12 +0.06    +0.066 A 
DOCKED: ATOM      6  C   UNL d   1       7.720  16.951  35.130 -0.11 -0.02    -0.021 A 
DOCKED: ATOM      7  C   UNL d   1       7.071  17.525  34.055 -0.13 -0.02    -0.025 A 
DOCKED: ATOM      8  C   UNL d   1       7.262  16.645  32.985 -0.18 +0.05    +0.066 A 
DOCKED: ATOM      9  C   UNL d   1       6.294  18.850  34.021 -0.13 +0.03    +0.051 C 
DOCKED: ATOM     10  C   UNL d   1       6.899  16.086  30.621 -0.30 +0.02    +0.066 A 
DOCKED: ATOM     11  C   UNL d   1       6.489  16.386  29.303 -0.40 -0.00    -0.021 A 
DOCKED: ATOM     12  C   UNL d   1       6.817  15.273  28.526 -0.44 +0.00    +0.000 A 
DOCKED: ATOM     13  C   UNL d   1       7.412  14.383  29.420 -0.33 +0.02    +0.070 A 
DOCKED: ATOM     14  C   UNL d   1       5.913  17.694  28.825 -0.38 +0.00    +0.052 C 
DOCKED: ATOM     15  C   UNL d   1       8.383  12.090  29.849 -0.17 +0.02    +0.066 A 
DOCKED: ATOM     16  C   UNL d   1       8.630  10.788  29.436 -0.34 -0.00    -0.021 A 
DOCKED: ATOM     17  C   UNL d   1       9.172  10.132  30.550 -0.41 +0.00    +0.000 A 
DOCKED: ATOM     18  C   UNL d   1       9.230  11.094  31.553 -0.21 +0.03    +0.070 A 
DOCKED: ATOM     19  C   UNL d   1       8.350  10.239  28.055 -0.43 +0.01    +0.052 C 
DOCKED: ATOM     20  C   UNL d   1       9.676  11.787  33.937 -0.16 +0.05    +0.066 A 
DOCKED: ATOM     21  C   UNL d   1      10.113  11.463  35.220 -0.21 -0.03    -0.025 A 
DOCKED: ATOM     22  C   UNL d   1       9.926  12.605  35.977 -0.14 -0.02    -0.021 A 
DOCKED: ATOM     23  C   UNL d   1       9.369  13.573  35.114 -0.12 +0.05    +0.066 A 
DOCKED: ATOM     24  C   UNL d   1      10.663  10.125  35.707 -0.24 +0.06    +0.051 C 
DOCKED: ATOM     25  N   UNL d   1       8.005  15.531  33.338 -0.12 -0.18    -0.248 N 
DOCKED: ATOM     26  N   UNL d   1       7.512  14.899  30.674 -0.19 -0.08    -0.248 N 
DOCKED: ATOM     27  N   UNL d   1       8.724  12.239  31.109 -0.19 -0.09    -0.248 N 
DOCKED: ATOM     28  N   UNL d   1       9.213  13.081  33.879 -0.11 -0.17    -0.248 N 
DOCKED: ATOM     29 FE   UNL d   1       8.388  13.786  32.160 -0.06 +0.00    +0.000 Fe
DOCKED: ENDROOT
DOCKED: BRANCH   6  30
DOCKED: ATOM     30  C   UNL d   1       7.757  17.485  36.558 -0.07 +0.04    +0.052 C 
DOCKED: BRANCH  30  31
DOCKED: ATOM     31  C   UNL d   1       7.469  16.365  37.558 -0.05 +0.11    +0.115 C 
DOCKED: BRANCH  31  32
DOCKED: ATOM     32  C   UNL d   1       6.189  16.597  38.331 -0.05 +0.14    +0.139 C 
DOCKED: ATOM     33  O   UNL d   1       6.061  17.618  38.990 -0.00 -0.36    -0.650 OA
DOCKED: BRANCH  32  34
DOCKED: ATOM     34  O   UNL d   1       5.152  15.729  38.280 -0.29 -1.26    -0.776 OA
DOCKED: ATOM     35  H   UNL d   1       4.671  15.410  39.057 +0.01 +0.17    +0.167 HD
DOCKED: ENDBRANCH  32  34
DOCKED: ENDBRANCH  31  32
DOCKED: ENDBRANCH  30  31
DOCKED: ENDBRANCH   6  30
DOCKED: BRANCH  29  36
DOCKED: ATOM     36  C   UNL d   1       6.498  13.104  32.760 +0.01 +0.12    +0.190 C 
DOCKED: BRANCH  36  37
DOCKED: ATOM     37  O   UNL d   1       5.306  13.515  33.366 -0.52 -0.53    -0.399 OA
DOCKED: ATOM     38  H   UNL d   1       4.584  13.151  32.782 -0.43 +0.13    +0.209 HD
DOCKED: ENDBRANCH  36  37
DOCKED: ENDBRANCH  29  36
DOCKED: BRANCH  22  39
DOCKED: ATOM     39  C   UNL d   1      10.208  12.732  37.462 -0.09 +0.04    +0.052 C 
DOCKED: BRANCH  39  40
DOCKED: ATOM     40  C   UNL d   1      11.693  12.459  37.757 -0.05 +0.14    +0.115 C 
DOCKED: BRANCH  40  41
DOCKED: ATOM     41  C   UNL d   1      11.963  11.120  38.411 -0.08 +0.15    +0.139 C 
DOCKED: ATOM     42  O   UNL d   1      11.059  10.550  39.005 +0.00 -0.40    -0.650 OA
DOCKED: BRANCH  41  43
DOCKED: ATOM     43  O   UNL d   1      13.155  10.495  38.281 -0.53 -1.18    -0.776 OA
DOCKED: ATOM     44  H   UNL d   1      13.557   9.991  39.000 +0.02 +0.14    +0.167 HD
DOCKED: ENDBRANCH  41  43
DOCKED: ENDBRANCH  40  41
DOCKED: ENDBRANCH  39  40
DOCKED: ENDBRANCH  22  39
DOCKED: BRANCH  12  45
DOCKED: ATOM     45  C   UNL d   1       6.654  14.956  27.045 -0.52 +0.00    +0.004 C 
DOCKED: ATOM     46  C   UNL d   1       5.956  15.577  26.098 -0.53 +0.00    +0.012 C 
DOCKED: ENDBRANCH  12  45
DOCKED: BRANCH  17  47
DOCKED: ATOM     47  C   UNL d   1       9.570   8.702  30.714 -0.51 +0.00    +0.004 C 
DOCKED: ATOM     48  C   UNL d   1      10.832   8.303  30.883 -0.59 +0.00    +0.012 C 
DOCKED: ENDBRANCH  17  47
DOCKED: TORSDOF 12
DOCKED: TER
DOCKED: ENDMDL
________________________________________________________________________________


	BEGINNING GENETIC ALGORITHM DOCKING 52 of 100
Run: 52 Seed: 691020560 2002769321 [ Run 52 of 100 GA/GALS ]
Beginning LAMARCKIAN GENETIC ALGORITHM (LGA), with a maximum of 25000000 energy evaluations.

Final-Value: -11.759


	FINAL GENETIC ALGORITHM DOCKED STATE
	_______________________________________________


Detailed state:  trans 17.283 6.568 36.917 quatxyzw -0.584441 0.307422 0.061967 0.748386 center 8.781 34.984 -0.736 ntor 12 171.8139 114.2856 -72.6072 -62.6435 10.9311 110.1018 -142.5832 -175.2169 -76.9589 31.7244 -180.0000 166.1512
State:	 17.283   6.568  36.917  -0.881  0.463  0.093 83.099    171.81  114.29  -72.61  -62.64   10.93  110.10 -142.58 -175.22  -76.96   31.72 -180.00  166.15

DOCKED: MODEL       52
DOCKED: USER    Run = 52
DOCKED: USER    DPF = D:/Protein_go_brrr/autodock/final/1A3N/heme_Co/dock.dpf
DOCKED: USER  
DOCKED: USER    Estimated Free Energy of Binding    =   -6.00 kcal/mol  [=(1)+(2)+(3)-(4)]
DOCKED: USER    Estimated Inhibition Constant, Ki   =   39.67 uM (micromolar)  [Temperature = 298.15 K]
DOCKED: USER    
DOCKED: USER    (1) Final Intermolecular Energy     =   -9.58 kcal/mol
DOCKED: USER        vdW + Hbond + desolv Energy     =   -7.45 kcal/mol
DOCKED: USER        Electrostatic Energy            =   -2.13 kcal/mol
DOCKED: USER    (2) Final Total Internal Energy     =   -2.17 kcal/mol
DOCKED: USER    (3) Torsional Free Energy           =   +3.58 kcal/mol
DOCKED: USER    (4) Unbound System's Energy  [=(2)] =   -2.17 kcal/mol
DOCKED: USER    
DOCKED: USER    
DOCKED: USER    NEWDPF move heme_Co_opt.pdbqt
DOCKED: USER    NEWDPF about 8.781000 34.984000 -0.736000
DOCKED: USER    NEWDPF tran0 17.282912 6.567939 36.917376
DOCKED: USER    NEWDPF quaternion0 -0.584441 0.307422 0.061967 0.748386
DOCKED: USER    NEWDPF axisangle0 -0.881159 0.463498 0.093427 83.098525
DOCKED: USER    NEWDPF quat0 -0.881159 0.463498 0.093427 83.098525
DOCKED: USER    NEWDPF dihe0 171.81 114.29 -72.61 -62.64 10.93 110.10 -142.58 -175.22 -76.96 31.72 -180.00 166.15 
DOCKED: USER  keepresnum = 1 
DOCKED: USER  
DOCKED: REMARK  12 active torsions:
DOCKED: REMARK  status: ('A' for Active; 'I' for Inactive)
DOCKED: REMARK    1  A    between atoms: C_6  and  C_10 
DOCKED: REMARK    2  A    between atoms: C_10  and  C_11 
DOCKED: REMARK    3  A    between atoms: C_11  and  C_12 
DOCKED: REMARK    4  A    between atoms: C_12  and  O_14 
DOCKED: REMARK    5  A    between atoms: C_17  and  C_20 
DOCKED: REMARK    6  A    between atoms: C_24  and  C_27 
DOCKED: REMARK    7  A    between atoms: C_31  and  C_34 
DOCKED: REMARK    8  A    between atoms: C_34  and  C_35 
DOCKED: REMARK    9  A    between atoms: C_35  and  C_36 
DOCKED: REMARK   10  A    between atoms: C_36  and  O_38 
DOCKED: REMARK   11  A    between atoms: FE_43  and  C_44 
DOCKED: REMARK   12  A    between atoms: C_44  and  O_45 
DOCKED: USER                              x       y       z     vdW  Elec       q    Type
DOCKED: USER                           _______ _______ _______ _____ _____    ______ ____
DOCKED: ROOT
DOCKED: ATOM      1  C   UNL d   1      16.048   8.308  36.514 -0.15 +0.04    +0.064 A 
DOCKED: ATOM      2  C   UNL d   1      15.780   3.792  35.051 -0.26 +0.04    +0.064 C 
DOCKED: ATOM      3  C   UNL d   1      19.908   2.797  37.241 -0.22 +0.00    +0.064 A 
DOCKED: ATOM      4  C   UNL d   1      20.009   7.304  39.069 -0.10 -0.02    +0.064 A 
DOCKED: ATOM      5  C   UNL d   1      15.690   7.156  35.923 -0.13 +0.04    +0.066 A 
DOCKED: ATOM      6  C   UNL d   1      14.473   7.020  35.227 -0.23 -0.02    -0.021 A 
DOCKED: ATOM      7  C   UNL d   1      14.390   5.702  34.825 -0.18 -0.02    -0.025 A 
DOCKED: ATOM      8  C   UNL d   1      15.566   5.094  35.277 -0.18 +0.04    +0.066 A 
DOCKED: ATOM      9  C   UNL d   1      13.253   5.025  34.044 -0.37 +0.04    +0.051 C 
DOCKED: ATOM     10  C   UNL d   1      16.970   3.087  35.456 -0.24 +0.02    +0.066 A 
DOCKED: ATOM     11  C   UNL d   1      17.317   1.758  35.128 -0.37 -0.00    -0.021 A 
DOCKED: ATOM     12  C   UNL d   1      18.527   1.496  35.776 -0.33 +0.00    +0.000 A 
DOCKED: ATOM     13  C   UNL d   1      18.835   2.684  36.439 -0.23 +0.01    +0.070 A 
DOCKED: ATOM     14  C   UNL d   1      16.576   0.851  34.179 -0.31 +0.00    +0.052 C 
DOCKED: ATOM     15  C   UNL d   1      20.345   3.926  38.039 -0.21 +0.00    +0.066 A 
DOCKED: ATOM     16  C   UNL d   1      21.383   3.931  38.960 -0.25 -0.00    -0.021 A 
DOCKED: ATOM     17  C   UNL d   1      21.415   5.228  39.492 -0.18 +0.00    +0.000 A 
DOCKED: ATOM     18  C   UNL d   1      20.400   5.919  38.838 -0.15 -0.01    +0.070 A 
DOCKED: ATOM     19  C   UNL d   1      22.270   2.750  39.288 -0.31 +0.00    +0.052 C 
DOCKED: ATOM     20  C   UNL d   1      18.972   7.972  38.509 -0.06 -0.02    +0.066 A 
DOCKED: ATOM     21  C   UNL d   1      18.674   9.293  38.838 -0.09 +0.01    -0.025 A 
DOCKED: ATOM     22  C   UNL d   1      17.554   9.618  38.095 -0.12 -0.00    -0.021 A 
DOCKED: ATOM     23  C   UNL d   1      17.214   8.467  37.353 -0.11 +0.02    +0.066 A 
DOCKED: ATOM     24  C   UNL d   1      19.407  10.195  39.827 -0.08 -0.01    +0.051 C 
DOCKED: ATOM     25  N   UNL d   1      16.393   5.973  35.956 -0.06 -0.11    -0.248 N 
DOCKED: ATOM     26  N   UNL d   1      17.921   3.663  36.199 -0.11 -0.05    -0.248 N 
DOCKED: ATOM     27  N   UNL d   1      19.765   5.105  38.003 -0.11 +0.01    -0.248 N 
DOCKED: ATOM     28  N   UNL d   1      18.069   7.468  37.602 -0.05 +0.00    -0.248 N 
DOCKED: ATOM     29 FE   UNL d   1      18.179   5.517  37.041 -0.04 +0.00    +0.000 Fe
DOCKED: ENDROOT
DOCKED: BRANCH   6  30
DOCKED: ATOM     30  C   UNL d   1      13.409   8.096  35.036 -0.31 +0.06    +0.052 C 
DOCKED: BRANCH  30  31
DOCKED: ATOM     31  C   UNL d   1      12.316   7.965  36.096 -0.24 +0.10    +0.115 C 
DOCKED: BRANCH  31  32
DOCKED: ATOM     32  C   UNL d   1      12.476   8.968  37.218 -0.07 +0.17    +0.139 C 
DOCKED: ATOM     33  O   UNL d   1      11.969  10.075  37.110 -0.05 -1.13    -0.650 OA
DOCKED: BRANCH  32  34
DOCKED: ATOM     34  O   UNL d   1      13.124   8.664  38.366 -0.01 -0.58    -0.776 OA
DOCKED: ATOM     35  H   UNL d   1      13.395   9.316  39.027 +0.03 +0.12    +0.167 HD
DOCKED: ENDBRANCH  32  34
DOCKED: ENDBRANCH  31  32
DOCKED: ENDBRANCH  30  31
DOCKED: ENDBRANCH   6  30
DOCKED: BRANCH  29  36
DOCKED: ATOM     36  C   UNL d   1      16.935   4.964  38.635 -0.01 +0.03    +0.190 C 
DOCKED: BRANCH  36  37
DOCKED: ATOM     37  O   UNL d   1      15.807   5.364  39.359 +0.01 -0.07    -0.399 OA
DOCKED: ATOM     38  H   UNL d   1      15.512   6.212  38.925 +0.03 +0.05    +0.209 HD
DOCKED: ENDBRANCH  36  37
DOCKED: ENDBRANCH  29  36
DOCKED: BRANCH  22  39
DOCKED: ATOM     39  C   UNL d   1      16.817  10.943  38.150 -0.10 +0.03    +0.052 C 
DOCKED: BRANCH  39  40
DOCKED: ATOM     40  C   UNL d   1      15.673  10.886  39.176 -0.09 +0.07    +0.115 C 
DOCKED: BRANCH  40  41
DOCKED: ATOM     41  C   UNL d   1      14.533  11.843  38.896 -0.09 +0.13    +0.139 C 
DOCKED: ATOM     42  O   UNL d   1      14.781  12.951  38.441 -0.00 -0.59    -0.650 OA
DOCKED: BRANCH  41  43
DOCKED: ATOM     43  O   UNL d   1      13.242  11.475  39.051 -0.18 -0.73    -0.776 OA
DOCKED: ATOM     44  H   UNL d   1      12.824  10.803  38.498 +0.02 +0.22    +0.167 HD
DOCKED: ENDBRANCH  41  43
DOCKED: ENDBRANCH  40  41
DOCKED: ENDBRANCH  39  40
DOCKED: ENDBRANCH  22  39
DOCKED: BRANCH  12  45
DOCKED: ATOM     45  C   UNL d   1      19.433   0.273  35.829 -0.41 +0.00    +0.004 C 
DOCKED: ATOM     46  C   UNL d   1      19.264  -0.904  36.426 -0.39 -0.00    +0.012 C 
DOCKED: ENDBRANCH  12  45
DOCKED: BRANCH  17  47
DOCKED: ATOM     47  C   UNL d   1      22.280   5.797  40.567 -0.16 +0.00    +0.004 C 
DOCKED: ATOM     48  C   UNL d   1      23.065   5.055  41.352 -0.25 +0.00    +0.012 C 
DOCKED: ENDBRANCH  17  47
DOCKED: TORSDOF 12
DOCKED: TER
DOCKED: ENDMDL
________________________________________________________________________________


	BEGINNING GENETIC ALGORITHM DOCKING 53 of 100
Run: 53 Seed: 226623485 545484052 [ Run 53 of 100 GA/GALS ]
Beginning LAMARCKIAN GENETIC ALGORITHM (LGA), with a maximum of 25000000 energy evaluations.

Final-Value: -18.816


	FINAL GENETIC ALGORITHM DOCKED STATE
	_______________________________________________


Detailed state:  trans 8.124 12.254 28.007 quatxyzw -0.743276 0.374739 0.547270 0.087218 center 8.781 34.984 -0.736 ntor 12 -24.8883 89.1066 -57.5168 113.3743 -91.7541 -2.2600 -180.0000 -173.6886 -25.2111 -15.2017 -140.7957 156.1260
State:	  8.124  12.254  28.007  -0.746  0.376  0.549 169.993    -24.89   89.11  -57.52  113.37  -91.75   -2.26 -180.00 -173.69  -25.21  -15.20 -140.80  156.13

DOCKED: MODEL       53
DOCKED: USER    Run = 53
DOCKED: USER    DPF = D:/Protein_go_brrr/autodock/final/1A3N/heme_Co/dock.dpf
DOCKED: USER  
DOCKED: USER    Estimated Free Energy of Binding    =  -13.45 kcal/mol  [=(1)+(2)+(3)-(4)]
DOCKED: USER    Estimated Inhibition Constant, Ki   =  137.29 pM (picomolar)  [Temperature = 298.15 K]
DOCKED: USER    
DOCKED: USER    (1) Final Intermolecular Energy     =  -17.03 kcal/mol
DOCKED: USER        vdW + Hbond + desolv Energy     =  -15.01 kcal/mol
DOCKED: USER        Electrostatic Energy            =   -2.02 kcal/mol
DOCKED: USER    (2) Final Total Internal Energy     =   -1.78 kcal/mol
DOCKED: USER    (3) Torsional Free Energy           =   +3.58 kcal/mol
DOCKED: USER    (4) Unbound System's Energy  [=(2)] =   -1.78 kcal/mol
DOCKED: USER    
DOCKED: USER    
DOCKED: USER    NEWDPF move heme_Co_opt.pdbqt
DOCKED: USER    NEWDPF about 8.781000 34.984000 -0.736000
DOCKED: USER    NEWDPF tran0 8.124447 12.254283 28.007114
DOCKED: USER    NEWDPF quaternion0 -0.743276 0.374739 0.547270 0.087218
DOCKED: USER    NEWDPF axisangle0 -0.746119 0.376173 0.549364 169.992790
DOCKED: USER    NEWDPF quat0 -0.746119 0.376173 0.549364 169.992790
DOCKED: USER    NEWDPF dihe0 -24.89 89.11 -57.52 113.37 -91.75 -2.26 -180.00 -173.69 -25.21 -15.20 -140.80 156.13 
DOCKED: USER  keepresnum = 1 
DOCKED: USER  
DOCKED: REMARK  12 active torsions:
DOCKED: REMARK  status: ('A' for Active; 'I' for Inactive)
DOCKED: REMARK    1  A    between atoms: C_6  and  C_10 
DOCKED: REMARK    2  A    between atoms: C_10  and  C_11 
DOCKED: REMARK    3  A    between atoms: C_11  and  C_12 
DOCKED: REMARK    4  A    between atoms: C_12  and  O_14 
DOCKED: REMARK    5  A    between atoms: C_17  and  C_20 
DOCKED: REMARK    6  A    between atoms: C_24  and  C_27 
DOCKED: REMARK    7  A    between atoms: C_31  and  C_34 
DOCKED: REMARK    8  A    between atoms: C_34  and  C_35 
DOCKED: REMARK    9  A    between atoms: C_35  and  C_36 
DOCKED: REMARK   10  A    between atoms: C_36  and  O_38 
DOCKED: REMARK   11  A    between atoms: FE_43  and  C_44 
DOCKED: REMARK   12  A    between atoms: C_44  and  O_45 
DOCKED: USER                              x       y       z     vdW  Elec       q    Type
DOCKED: USER                           _______ _______ _______ _____ _____    ______ ____
DOCKED: ROOT
DOCKED: ATOM      1  C   UNL d   1       8.409  12.927  30.052 -0.27 +0.02    +0.064 A 
DOCKED: ATOM      2  C   UNL d   1       6.505  15.026  26.233 -0.48 +0.01    +0.064 C 
DOCKED: ATOM      3  C   UNL d   1       7.742  11.293  23.519 -0.33 +0.00    +0.064 A 
DOCKED: ATOM      4  C   UNL d   1       9.347   8.964  27.476 -0.37 +0.01    +0.064 A 
DOCKED: ATOM      5  C   UNL d   1       7.830  13.790  29.201 -0.29 +0.01    +0.066 A 
DOCKED: ATOM      6  C   UNL d   1       7.259  15.002  29.638 -0.37 -0.01    -0.021 A 
DOCKED: ATOM      7  C   UNL d   1       6.688  15.596  28.530 -0.44 -0.00    -0.025 A 
DOCKED: ATOM      8  C   UNL d   1       6.949  14.731  27.462 -0.39 +0.01    +0.066 A 
DOCKED: ATOM      9  C   UNL d   1       5.922  16.926  28.463 -0.47 +0.00    +0.051 C 
DOCKED: ATOM     10  C   UNL d   1       6.748  14.210  25.070 -0.37 +0.00    +0.066 A 
DOCKED: ATOM     11  C   UNL d   1       6.431  14.533  23.732 -0.40 -0.00    -0.021 A 
DOCKED: ATOM     12  C   UNL d   1       6.806  13.429  22.962 -0.36 +0.00    +0.000 A 
DOCKED: ATOM     13  C   UNL d   1       7.334  12.522  23.881 -0.34 +0.00    +0.070 A 
DOCKED: ATOM     14  C   UNL d   1       5.895  15.851  23.235 -0.54 +0.00    +0.052 C 
DOCKED: ATOM     15  C   UNL d   1       8.261  10.218  24.340 -0.35 +0.00    +0.066 A 
DOCKED: ATOM     16  C   UNL d   1       8.529   8.921  23.925 -0.53 -0.00    -0.021 A 
DOCKED: ATOM     17  C   UNL d   1       8.990   8.244  25.063 -0.51 +0.00    +0.000 A 
DOCKED: ATOM     18  C   UNL d   1       8.983   9.190  26.083 -0.38 +0.01    +0.070 A 
DOCKED: ATOM     19  C   UNL d   1       8.343   8.394  22.519 -0.28 +0.00    +0.052 C 
DOCKED: ATOM     20  C   UNL d   1       9.266   9.844  28.503 -0.39 +0.01    +0.066 A 
DOCKED: ATOM     21  C   UNL d   1       9.612   9.499  29.807 -0.44 -0.01    -0.025 A 
DOCKED: ATOM     22  C   UNL d   1       9.379  10.630  30.567 -0.31 -0.01    -0.021 A 
DOCKED: ATOM     23  C   UNL d   1       8.888  11.614  29.683 -0.30 +0.01    +0.066 A 
DOCKED: ATOM     24  C   UNL d   1      10.120   8.150  30.310 -0.53 +0.01    +0.051 C 
DOCKED: ATOM     25  N   UNL d   1       7.660  13.607  27.848 -0.21 -0.03    -0.248 N 
DOCKED: ATOM     26  N   UNL d   1       7.349  13.018  25.147 -0.23 -0.01    -0.248 N 
DOCKED: ATOM     27  N   UNL d   1       8.515  10.345  25.624 -0.23 -0.02    -0.248 N 
DOCKED: ATOM     28  N   UNL d   1       8.816  11.142  28.433 -0.19 -0.02    -0.248 N 
DOCKED: ATOM     29 FE   UNL d   1       8.115  11.878  26.672 -0.08 +0.00    +0.000 Fe
DOCKED: ENDROOT
DOCKED: BRANCH   6  30
DOCKED: ATOM     30  C   UNL d   1       7.200  15.513  31.074 -0.34 +0.02    +0.052 C 
DOCKED: BRANCH  30  31
DOCKED: ATOM     31  C   UNL d   1       6.508  14.495  31.979 -0.31 +0.07    +0.115 C 
DOCKED: BRANCH  31  32
DOCKED: ATOM     32  C   UNL d   1       6.969  14.594  33.417 -0.16 +0.15    +0.139 C 
DOCKED: ATOM     33  O   UNL d   1       6.973  15.682  33.973 -0.15 -0.96    -0.650 OA
DOCKED: BRANCH  32  34
DOCKED: ATOM     34  O   UNL d   1       7.334  13.503  34.130 +0.04 -0.79    -0.776 OA
DOCKED: ATOM     35  H   UNL d   1       6.982  12.614  33.984 +0.07 +0.14    +0.167 HD
DOCKED: ENDBRANCH  32  34
DOCKED: ENDBRANCH  31  32
DOCKED: ENDBRANCH  30  31
DOCKED: ENDBRANCH   6  30
DOCKED: BRANCH  29  36
DOCKED: ATOM     36  C   UNL d   1       6.185  11.199  27.130 +0.11 +0.04    +0.190 C 
DOCKED: BRANCH  36  37
DOCKED: ATOM     37  O   UNL d   1       5.403  10.042  27.223 -0.35 -0.10    -0.399 OA
DOCKED: ATOM     38  H   UNL d   1       5.849   9.383  26.621 +0.13 +0.04    +0.209 HD
DOCKED: ENDBRANCH  36  37
DOCKED: ENDBRANCH  29  36
DOCKED: BRANCH  22  39
DOCKED: ATOM     39  C   UNL d   1       9.559  10.733  32.070 -0.28 +0.02    +0.052 C 
DOCKED: BRANCH  39  40
DOCKED: ATOM     40  C   UNL d   1       8.200  10.663  32.786 -0.35 +0.05    +0.115 C 
DOCKED: BRANCH  40  41
DOCKED: ATOM     41  C   UNL d   1       8.281  10.263  34.244 -0.30 +0.08    +0.139 C 
DOCKED: ATOM     42  O   UNL d   1       9.122   9.448  34.595 -0.32 -0.44    -0.650 OA
DOCKED: BRANCH  41  43
DOCKED: ATOM     43  O   UNL d   1       7.506  10.846  35.185 -0.04 -0.48    -0.776 OA
DOCKED: ATOM     44  H   UNL d   1       7.442  11.805  35.283 +0.07 +0.12    +0.167 HD
DOCKED: ENDBRANCH  41  43
DOCKED: ENDBRANCH  40  41
DOCKED: ENDBRANCH  39  40
DOCKED: ENDBRANCH  22  39
DOCKED: BRANCH  12  45
DOCKED: ATOM     45  C   UNL d   1       6.744  13.136  21.468 -0.56 +0.00    +0.004 C 
DOCKED: ATOM     46  C   UNL d   1       7.705  13.117  20.549 -0.68 -0.00    +0.012 C 
DOCKED: ENDBRANCH  12  45
DOCKED: BRANCH  17  47
DOCKED: ATOM     47  C   UNL d   1       9.368   6.810  25.233 -0.56 +0.00    +0.004 C 
DOCKED: ATOM     48  C   UNL d   1       8.685   5.952  25.995 -0.68 +0.00    +0.012 C 
DOCKED: ENDBRANCH  17  47
DOCKED: TORSDOF 12
DOCKED: TER
DOCKED: ENDMDL
________________________________________________________________________________


	BEGINNING GENETIC ALGORITHM DOCKING 54 of 100
Run: 54 Seed: 1795476645 1828138179 [ Run 54 of 100 GA/GALS ]
Beginning LAMARCKIAN GENETIC ALGORITHM (LGA), with a maximum of 25000000 energy evaluations.

Final-Value: -10.773


	FINAL GENETIC ALGORITHM DOCKED STATE
	_______________________________________________


Detailed state:  trans 4.867 -2.707 -13.266 quatxyzw -0.276479 -0.325323 -0.072985 -0.901331 center 8.781 34.984 -0.736 ntor 12 36.0846 38.7110 -5.0140 101.9705 81.0345 -172.1907 -161.1521 -36.5649 68.7091 130.5160 -174.7838 179.9374
State:	  4.867  -2.707 -13.266  -0.638 -0.751 -0.169 -51.333     36.08   38.71   -5.01  101.97   81.03 -172.19 -161.15  -36.56   68.71  130.52 -174.78  179.94

DOCKED: MODEL       54
DOCKED: USER    Run = 54
DOCKED: USER    DPF = D:/Protein_go_brrr/autodock/final/1A3N/heme_Co/dock.dpf
DOCKED: USER  
DOCKED: USER    Estimated Free Energy of Binding    =   -6.26 kcal/mol  [=(1)+(2)+(3)-(4)]
DOCKED: USER    Estimated Inhibition Constant, Ki   =   25.79 uM (micromolar)  [Temperature = 298.15 K]
DOCKED: USER    
DOCKED: USER    (1) Final Intermolecular Energy     =   -9.84 kcal/mol
DOCKED: USER        vdW + Hbond + desolv Energy     =   -7.83 kcal/mol
DOCKED: USER        Electrostatic Energy            =   -2.01 kcal/mol
DOCKED: USER    (2) Final Total Internal Energy     =   -0.93 kcal/mol
DOCKED: USER    (3) Torsional Free Energy           =   +3.58 kcal/mol
DOCKED: USER    (4) Unbound System's Energy  [=(2)] =   -0.93 kcal/mol
DOCKED: USER    
DOCKED: USER    
DOCKED: USER    NEWDPF move heme_Co_opt.pdbqt
DOCKED: USER    NEWDPF about 8.781000 34.984000 -0.736000
DOCKED: USER    NEWDPF tran0 4.866964 -2.706788 -13.265815
DOCKED: USER    NEWDPF quaternion0 -0.276479 -0.325323 -0.072985 -0.901331
DOCKED: USER    NEWDPF axisangle0 -0.638326 -0.751096 -0.168506 -51.332847
DOCKED: USER    NEWDPF quat0 -0.638326 -0.751096 -0.168506 -51.332847
DOCKED: USER    NEWDPF dihe0 36.08 38.71 -5.01 101.97 81.03 -172.19 -161.15 -36.56 68.71 130.52 -174.78 179.94 
DOCKED: USER  keepresnum = 1 
DOCKED: USER  
DOCKED: REMARK  12 active torsions:
DOCKED: REMARK  status: ('A' for Active; 'I' for Inactive)
DOCKED: REMARK    1  A    between atoms: C_6  and  C_10 
DOCKED: REMARK    2  A    between atoms: C_10  and  C_11 
DOCKED: REMARK    3  A    between atoms: C_11  and  C_12 
DOCKED: REMARK    4  A    between atoms: C_12  and  O_14 
DOCKED: REMARK    5  A    between atoms: C_17  and  C_20 
DOCKED: REMARK    6  A    between atoms: C_24  and  C_27 
DOCKED: REMARK    7  A    between atoms: C_31  and  C_34 
DOCKED: REMARK    8  A    between atoms: C_34  and  C_35 
DOCKED: REMARK    9  A    between atoms: C_35  and  C_36 
DOCKED: REMARK   10  A    between atoms: C_36  and  O_38 
DOCKED: REMARK   11  A    between atoms: FE_43  and  C_44 
DOCKED: REMARK   12  A    between atoms: C_44  and  O_45 
DOCKED: USER                              x       y       z     vdW  Elec       q    Type
DOCKED: USER                           _______ _______ _______ _____ _____    ______ ____
DOCKED: ROOT
DOCKED: ATOM      1  C   UNL d   1       3.982  -2.847 -15.244 -0.06 +0.02    +0.064 A 
DOCKED: ATOM      2  C   UNL d   1       2.093  -2.972 -10.882 -0.15 +0.02    +0.064 C 
DOCKED: ATOM      3  C   UNL d   1       6.459  -2.848  -8.946 -0.30 -0.00    +0.064 A 
DOCKED: ATOM      4  C   UNL d   1       8.395  -2.330 -13.379 -0.02 +0.00    +0.064 A 
DOCKED: ATOM      5  C   UNL d   1       3.146  -2.927 -14.195 -0.08 +0.02    +0.066 A 
DOCKED: ATOM      6  C   UNL d   1       1.747  -2.912 -14.351 -0.10 -0.01    -0.021 A 
DOCKED: ATOM      7  C   UNL d   1       1.204  -2.926 -13.082 -0.16 -0.01    -0.025 A 
DOCKED: ATOM      8  C   UNL d   1       2.294  -2.965 -12.206 -0.16 +0.02    +0.066 A 
DOCKED: ATOM      9  C   UNL d   1      -0.282  -2.902 -12.692 -0.19 +0.03    +0.051 C 
DOCKED: ATOM     10  C   UNL d   1       3.151  -3.038  -9.905 -0.27 +0.01    +0.066 A 
DOCKED: ATOM     11  C   UNL d   1       3.002  -3.190  -8.509 -0.38 -0.00    -0.021 A 
DOCKED: ATOM     12  C   UNL d   1       4.291  -3.155  -7.970 -0.38 +0.00    +0.000 A 
DOCKED: ATOM     13  C   UNL d   1       5.129  -2.997  -9.074 -0.18 -0.00    +0.070 A 
DOCKED: ATOM     14  C   UNL d   1       1.713  -3.447  -7.772 -0.06 +0.02    +0.052 C 
DOCKED: ATOM     15  C   UNL d   1       7.462  -2.624  -9.969 -0.23 -0.00    +0.066 A 
DOCKED: ATOM     16  C   UNL d   1       8.803  -2.334  -9.757 -0.27 +0.00    -0.021 A 
DOCKED: ATOM     17  C   UNL d   1       9.365  -2.181 -11.033 -0.12 +0.00    +0.000 A 
DOCKED: ATOM     18  C   UNL d   1       8.323  -2.408 -11.925 -0.06 +0.00    +0.070 A 
DOCKED: ATOM     19  C   UNL d   1       9.472  -2.215  -8.406 -0.39 -0.00    +0.052 C 
DOCKED: ATOM     20  C   UNL d   1       7.378  -2.461 -14.263 -0.02 +0.01    +0.066 A 
DOCKED: ATOM     21  C   UNL d   1       7.565  -2.330 -15.638 -0.01 -0.00    -0.025 A 
DOCKED: ATOM     22  C   UNL d   1       6.315  -2.503 -16.203 -0.01 -0.00    -0.021 A 
DOCKED: ATOM     23  C   UNL d   1       5.417  -2.721 -15.136 -0.04 +0.01    +0.066 A 
DOCKED: ATOM     24  C   UNL d   1       8.868  -2.034 -16.376 -0.00 +0.00    +0.051 C 
DOCKED: ATOM     25  N   UNL d   1       3.510  -2.972 -12.868 -0.07 -0.06    -0.248 N 
DOCKED: ATOM     26  N   UNL d   1       4.442  -2.983 -10.248 -0.12 -0.01    -0.248 N 
DOCKED: ATOM     27  N   UNL d   1       7.198  -2.639 -11.256 -0.06 -0.00    -0.248 N 
DOCKED: ATOM     28  N   UNL d   1       6.056  -2.694 -13.960 -0.01 -0.03    -0.248 N 
DOCKED: ATOM     29 FE   UNL d   1       5.465  -2.796 -12.018 -0.03 +0.00    +0.000 Fe
DOCKED: ENDROOT
DOCKED: BRANCH   6  30
DOCKED: ATOM     30  C   UNL d   1       0.979  -2.806 -15.665 -0.09 +0.02    +0.052 C 
DOCKED: BRANCH  30  31
DOCKED: ATOM     31  C   UNL d   1       0.702  -1.343 -16.009 -0.06 +0.07    +0.115 C 
DOCKED: BRANCH  31  32
DOCKED: ATOM     32  C   UNL d   1      -0.773  -1.007 -15.955 -0.13 +0.16    +0.139 C 
DOCKED: ATOM     33  O   UNL d   1      -1.345  -0.986 -14.875 -0.21 -0.82    -0.650 OA
DOCKED: BRANCH  32  34
DOCKED: ATOM     34  O   UNL d   1      -1.475  -0.679 -17.064 -0.38 -1.26    -0.776 OA
DOCKED: ATOM     35  H   UNL d   1      -1.293  -1.030 -17.946 +0.02 +0.14    +0.167 HD
DOCKED: ENDBRANCH  32  34
DOCKED: ENDBRANCH  31  32
DOCKED: ENDBRANCH  30  31
DOCKED: ENDBRANCH   6  30
DOCKED: BRANCH  29  36
DOCKED: ATOM     36  C   UNL d   1       5.141  -0.725 -11.984 -0.32 +0.01    +0.190 C 
DOCKED: BRANCH  36  37
DOCKED: ATOM     37  O   UNL d   1       4.145   0.245 -11.826 -0.88 -0.07    -0.399 OA
DOCKED: ATOM     38  H   UNL d   1       3.632   0.227 -12.682 -0.48 -0.01    +0.209 HD
DOCKED: ENDBRANCH  36  37
DOCKED: ENDBRANCH  29  36
DOCKED: BRANCH  22  39
DOCKED: ATOM     39  C   UNL d   1       5.997  -2.398 -17.683 -0.01 +0.01    +0.052 C 
DOCKED: BRANCH  39  40
DOCKED: ATOM     40  C   UNL d   1       5.899  -0.925 -18.113 -0.02 +0.01    +0.115 C 
DOCKED: BRANCH  40  41
DOCKED: ATOM     41  C   UNL d   1       4.911  -0.104 -17.311 -0.06 +0.03    +0.139 C 
DOCKED: ATOM     42  O   UNL d   1       5.326   0.641 -16.434 -0.01 -0.14    -0.650 OA
DOCKED: BRANCH  41  43
DOCKED: ATOM     43  O   UNL d   1       3.590  -0.105 -17.595 +0.02 -0.23    -0.776 OA
DOCKED: ATOM     44  H   UNL d   1       3.212  -0.640 -18.305 +0.02 +0.04    +0.167 HD
DOCKED: ENDBRANCH  41  43
DOCKED: ENDBRANCH  40  41
DOCKED: ENDBRANCH  39  40
DOCKED: ENDBRANCH  22  39
DOCKED: BRANCH  12  45
DOCKED: ATOM     45  C   UNL d   1       4.826  -3.270  -6.549 -0.54 +0.00    +0.004 C 
DOCKED: ATOM     46  C   UNL d   1       5.260  -4.329  -5.870 -0.51 +0.00    +0.012 C 
DOCKED: ENDBRANCH  12  45
DOCKED: BRANCH  17  47
DOCKED: ATOM     47  C   UNL d   1      10.755  -1.801 -11.423 -0.10 +0.00    +0.004 C 
DOCKED: ATOM     48  C   UNL d   1      11.837  -2.500 -11.072 -0.16 +0.00    +0.012 C 
DOCKED: ENDBRANCH  17  47
DOCKED: TORSDOF 12
DOCKED: TER
DOCKED: ENDMDL
________________________________________________________________________________


	BEGINNING GENETIC ALGORITHM DOCKING 55 of 100
Run: 55 Seed: 770384677 982938421 [ Run 55 of 100 GA/GALS ]
Beginning LAMARCKIAN GENETIC ALGORITHM (LGA), with a maximum of 25000000 energy evaluations.

Final-Value: -11.312


	FINAL GENETIC ALGORITHM DOCKED STATE
	_______________________________________________


Detailed state:  trans 5.863 -2.278 -10.447 quatxyzw -0.290710 0.799980 0.501720 -0.154263 center 8.781 34.984 -0.736 ntor 12 -18.9206 -180.0000 -168.2418 -72.0699 -42.6936 -109.8298 -81.6841 -68.9573 -41.5626 -61.6339 43.7040 -163.1927
State:	  5.863  -2.278 -10.447  -0.294  0.810  0.508 -162.252    -18.92 -180.00 -168.24  -72.07  -42.69 -109.83  -81.68  -68.96  -41.56  -61.63   43.70 -163.19

DOCKED: MODEL       55
DOCKED: USER    Run = 55
DOCKED: USER    DPF = D:/Protein_go_brrr/autodock/final/1A3N/heme_Co/dock.dpf
DOCKED: USER  
DOCKED: USER    Estimated Free Energy of Binding    =   -7.01 kcal/mol  [=(1)+(2)+(3)-(4)]
DOCKED: USER    Estimated Inhibition Constant, Ki   =    7.22 uM (micromolar)  [Temperature = 298.15 K]
DOCKED: USER    
DOCKED: USER    (1) Final Intermolecular Energy     =  -10.59 kcal/mol
DOCKED: USER        vdW + Hbond + desolv Energy     =   -9.49 kcal/mol
DOCKED: USER        Electrostatic Energy            =   -1.10 kcal/mol
DOCKED: USER    (2) Final Total Internal Energy     =   -0.72 kcal/mol
DOCKED: USER    (3) Torsional Free Energy           =   +3.58 kcal/mol
DOCKED: USER    (4) Unbound System's Energy  [=(2)] =   -0.72 kcal/mol
DOCKED: USER    
DOCKED: USER    
DOCKED: USER    NEWDPF move heme_Co_opt.pdbqt
DOCKED: USER    NEWDPF about 8.781000 34.984000 -0.736000
DOCKED: USER    NEWDPF tran0 5.862531 -2.278227 -10.446976
DOCKED: USER    NEWDPF quaternion0 -0.290710 0.799980 0.501720 -0.154263
DOCKED: USER    NEWDPF axisangle0 -0.294232 0.809672 0.507798 -162.251853
DOCKED: USER    NEWDPF quat0 -0.294232 0.809672 0.507798 -162.251853
DOCKED: USER    NEWDPF dihe0 -18.92 -180.00 -168.24 -72.07 -42.69 -109.83 -81.68 -68.96 -41.56 -61.63 43.70 -163.19 
DOCKED: USER  keepresnum = 1 
DOCKED: USER  
DOCKED: REMARK  12 active torsions:
DOCKED: REMARK  status: ('A' for Active; 'I' for Inactive)
DOCKED: REMARK    1  A    between atoms: C_6  and  C_10 
DOCKED: REMARK    2  A    between atoms: C_10  and  C_11 
DOCKED: REMARK    3  A    between atoms: C_11  and  C_12 
DOCKED: REMARK    4  A    between atoms: C_12  and  O_14 
DOCKED: REMARK    5  A    between atoms: C_17  and  C_20 
DOCKED: REMARK    6  A    between atoms: C_24  and  C_27 
DOCKED: REMARK    7  A    between atoms: C_31  and  C_34 
DOCKED: REMARK    8  A    between atoms: C_34  and  C_35 
DOCKED: REMARK    9  A    between atoms: C_35  and  C_36 
DOCKED: REMARK   10  A    between atoms: C_36  and  O_38 
DOCKED: REMARK   11  A    between atoms: FE_43  and  C_44 
DOCKED: REMARK   12  A    between atoms: C_44  and  O_45 
DOCKED: USER                              x       y       z     vdW  Elec       q    Type
DOCKED: USER                           _______ _______ _______ _____ _____    ______ ____
DOCKED: ROOT
DOCKED: ATOM      1  C   UNL d   1       7.107  -2.273  -8.668 -0.28 -0.00    +0.064 A 
DOCKED: ATOM      2  C   UNL d   1       7.602  -0.202 -12.919 -0.16 +0.00    +0.064 C 
DOCKED: ATOM      3  C   UNL d   1       3.669  -2.410 -14.495 -0.01 +0.02    +0.064 A 
DOCKED: ATOM      4  C   UNL d   1       2.927  -4.234 -10.047 -0.17 +0.02    +0.064 A 
DOCKED: ATOM      5  C   UNL d   1       7.552  -1.573  -9.725 -0.21 -0.00    +0.066 A 
DOCKED: ATOM      6  C   UNL d   1       8.669  -0.720  -9.640 -0.32 +0.00    -0.021 A 
DOCKED: ATOM      7  C   UNL d   1       8.795  -0.104 -10.870 -0.24 +0.00    -0.025 A 
DOCKED: ATOM      8  C   UNL d   1       7.759  -0.620 -11.657 -0.19 +0.00    +0.066 A 
DOCKED: ATOM      9  C   UNL d   1       9.843   0.932 -11.302 -0.19 -0.00    +0.051 C 
DOCKED: ATOM     10  C   UNL d   1       6.583  -0.694 -13.812 -0.12 +0.01    +0.066 A 
DOCKED: ATOM     11  C   UNL d   1       6.452  -0.401 -15.187 -0.11 -0.00    -0.021 A 
DOCKED: ATOM     12  C   UNL d   1       5.299  -1.061 -15.622 -0.10 +0.00    +0.000 A 
DOCKED: ATOM     13  C   UNL d   1       4.821  -1.716 -14.487 -0.10 +0.02    +0.070 A 
DOCKED: ATOM     14  C   UNL d   1       7.427   0.381 -16.029 -0.07 +0.00    +0.052 C 
DOCKED: ATOM     15  C   UNL d   1       3.004  -3.101 -13.408 -0.10 +0.02    +0.066 A 
DOCKED: ATOM     16  C   UNL d   1       1.742  -3.677 -13.448 -0.10 -0.01    -0.021 A 
DOCKED: ATOM     17  C   UNL d   1       1.523  -4.202 -12.167 -0.11 +0.00    +0.000 A 
DOCKED: ATOM     18  C   UNL d   1       2.679  -3.919 -11.448 -0.11 +0.02    +0.070 A 
DOCKED: ATOM     19  C   UNL d   1       0.829  -3.704 -14.653 -0.07 +0.02    +0.052 C 
DOCKED: ATOM     20  C   UNL d   1       4.007  -3.893  -9.303 -0.22 +0.01    +0.066 A 
DOCKED: ATOM     21  C   UNL d   1       4.114  -4.221  -7.954 -0.33 -0.00    -0.025 A 
DOCKED: ATOM     22  C   UNL d   1       5.323  -3.694  -7.537 -0.41 -0.00    -0.021 A 
DOCKED: ATOM     23  C   UNL d   1       5.892  -3.054  -8.659 -0.26 -0.00    +0.066 A 
DOCKED: ATOM     24  C   UNL d   1       3.106  -4.983  -7.098 -0.34 +0.01    +0.051 C 
DOCKED: ATOM     25  N   UNL d   1       6.977  -1.536 -10.975 -0.12 +0.01    -0.248 N 
DOCKED: ATOM     26  N   UNL d   1       5.629  -1.539 -13.407 -0.08 -0.03    -0.248 N 
DOCKED: ATOM     27  N   UNL d   1       3.527  -3.236 -12.210 -0.06 -0.05    -0.248 N 
DOCKED: ATOM     28  N   UNL d   1       5.097  -3.170  -9.729 -0.13 +0.00    -0.248 N 
DOCKED: ATOM     29 FE   UNL d   1       5.150  -2.439 -11.626 -0.04 +0.00    +0.000 Fe
DOCKED: ENDROOT
DOCKED: BRANCH   6  30
DOCKED: ATOM     30  C   UNL d   1       9.520  -0.456  -8.402 -0.31 +0.00    +0.052 C 
DOCKED: BRANCH  30  31
DOCKED: ATOM     31  C   UNL d   1      11.001  -0.668  -8.713 -0.32 +0.02    +0.115 C 
DOCKED: BRANCH  31  32
DOCKED: ATOM     32  C   UNL d   1      11.876   0.418  -8.124 -0.25 +0.07    +0.139 C 
DOCKED: ATOM     33  O   UNL d   1      13.015   0.148  -7.773 -0.04 -0.52    -0.650 OA
DOCKED: BRANCH  32  34
DOCKED: ATOM     34  O   UNL d   1      11.454   1.700  -8.016 +0.04 -0.47    -0.776 OA
DOCKED: ATOM     35  H   UNL d   1      10.754   2.089  -8.558 -0.24 +0.02    +0.167 HD
DOCKED: ENDBRANCH  32  34
DOCKED: ENDBRANCH  31  32
DOCKED: ENDBRANCH  30  31
DOCKED: ENDBRANCH   6  30
DOCKED: BRANCH  29  36
DOCKED: ATOM     36  C   UNL d   1       4.191  -0.683 -10.999 -0.08 -0.01    +0.190 C 
DOCKED: BRANCH  36  37
DOCKED: ATOM     37  O   UNL d   1       3.720   0.553 -11.455 -0.83 -0.08    -0.399 OA
DOCKED: ATOM     38  H   UNL d   1       2.965   0.329 -12.069 -0.49 -0.02    +0.209 HD
DOCKED: ENDBRANCH  36  37
DOCKED: ENDBRANCH  29  36
DOCKED: BRANCH  22  39
DOCKED: ATOM     39  C   UNL d   1       5.864  -3.749  -6.121 -0.48 +0.00    +0.052 C 
DOCKED: BRANCH  39  40
DOCKED: ATOM     40  C   UNL d   1       4.929  -3.006  -5.152 -0.46 +0.01    +0.115 C 
DOCKED: BRANCH  40  41
DOCKED: ATOM     41  C   UNL d   1       4.231  -3.900  -4.149 -0.42 +0.02    +0.139 C 
DOCKED: ATOM     42  O   UNL d   1       4.887  -4.432  -3.264 +0.00 -0.04    -0.650 OA
DOCKED: BRANCH  41  43
DOCKED: ATOM     43  O   UNL d   1       2.889  -4.058  -4.150 -0.39 -0.23    -0.776 OA
DOCKED: ATOM     44  H   UNL d   1       2.406  -4.404  -3.388 +0.09 +0.05    +0.167 HD
DOCKED: ENDBRANCH  41  43
DOCKED: ENDBRANCH  40  41
DOCKED: ENDBRANCH  39  40
DOCKED: ENDBRANCH  22  39
DOCKED: BRANCH  12  45
DOCKED: ATOM     45  C   UNL d   1       4.610  -1.162 -16.976 -0.08 +0.00    +0.004 C 
DOCKED: ATOM     46  C   UNL d   1       3.790  -0.318 -17.596 -0.07 +0.00    +0.012 C 
DOCKED: ENDBRANCH  12  45
DOCKED: BRANCH  17  47
DOCKED: ATOM     47  C   UNL d   1       0.314  -4.878 -11.607 -0.17 +0.00    +0.004 C 
DOCKED: ATOM     48  C   UNL d   1      -0.866  -4.271 -11.455 -0.24 +0.01    +0.012 C 
DOCKED: ENDBRANCH  17  47
DOCKED: TORSDOF 12
DOCKED: TER
DOCKED: ENDMDL
________________________________________________________________________________


	BEGINNING GENETIC ALGORITHM DOCKING 56 of 100
Run: 56 Seed: 431942008 218775703 [ Run 56 of 100 GA/GALS ]
Beginning LAMARCKIAN GENETIC ALGORITHM (LGA), with a maximum of 25000000 energy evaluations.

Final-Value: -10.908


	FINAL GENETIC ALGORITHM DOCKED STATE
	_______________________________________________


Detailed state:  trans 40.690 0.282 -4.693 quatxyzw -0.337377 0.672739 -0.627606 -0.199272 center 8.781 34.984 -0.736 ntor 12 -156.4441 -110.9950 -9.1036 116.6490 47.3221 16.2348 41.4094 145.1879 -76.9220 25.2337 -179.2123 -180.0000
State:	 40.690   0.282  -4.693  -0.344  0.687 -0.640 -157.011   -156.44 -111.00   -9.10  116.65   47.32   16.23   41.41  145.19  -76.92   25.23 -179.21 -180.00

DOCKED: MODEL       56
DOCKED: USER    Run = 56
DOCKED: USER    DPF = D:/Protein_go_brrr/autodock/final/1A3N/heme_Co/dock.dpf
DOCKED: USER  
DOCKED: USER    Estimated Free Energy of Binding    =   -5.06 kcal/mol  [=(1)+(2)+(3)-(4)]
DOCKED: USER    Estimated Inhibition Constant, Ki   =  194.51 uM (micromolar)  [Temperature = 298.15 K]
DOCKED: USER    
DOCKED: USER    (1) Final Intermolecular Energy     =   -8.64 kcal/mol
DOCKED: USER        vdW + Hbond + desolv Energy     =   -7.23 kcal/mol
DOCKED: USER        Electrostatic Energy            =   -1.41 kcal/mol
DOCKED: USER    (2) Final Total Internal Energy     =   -2.27 kcal/mol
DOCKED: USER    (3) Torsional Free Energy           =   +3.58 kcal/mol
DOCKED: USER    (4) Unbound System's Energy  [=(2)] =   -2.27 kcal/mol
DOCKED: USER    
DOCKED: USER    
DOCKED: USER    NEWDPF move heme_Co_opt.pdbqt
DOCKED: USER    NEWDPF about 8.781000 34.984000 -0.736000
DOCKED: USER    NEWDPF tran0 40.690173 0.282218 -4.692825
DOCKED: USER    NEWDPF quaternion0 -0.337377 0.672739 -0.627606 -0.199272
DOCKED: USER    NEWDPF axisangle0 -0.344282 0.686507 -0.640451 -157.011162
DOCKED: USER    NEWDPF quat0 -0.344282 0.686507 -0.640451 -157.011162
DOCKED: USER    NEWDPF dihe0 -156.44 -111.00 -9.10 116.65 47.32 16.23 41.41 145.19 -76.92 25.23 -179.21 -180.00 
DOCKED: USER  keepresnum = 1 
DOCKED: USER  
DOCKED: REMARK  12 active torsions:
DOCKED: REMARK  status: ('A' for Active; 'I' for Inactive)
DOCKED: REMARK    1  A    between atoms: C_6  and  C_10 
DOCKED: REMARK    2  A    between atoms: C_10  and  C_11 
DOCKED: REMARK    3  A    between atoms: C_11  and  C_12 
DOCKED: REMARK    4  A    between atoms: C_12  and  O_14 
DOCKED: REMARK    5  A    between atoms: C_17  and  C_20 
DOCKED: REMARK    6  A    between atoms: C_24  and  C_27 
DOCKED: REMARK    7  A    between atoms: C_31  and  C_34 
DOCKED: REMARK    8  A    between atoms: C_34  and  C_35 
DOCKED: REMARK    9  A    between atoms: C_35  and  C_36 
DOCKED: REMARK   10  A    between atoms: C_36  and  O_38 
DOCKED: REMARK   11  A    between atoms: FE_43  and  C_44 
DOCKED: REMARK   12  A    between atoms: C_44  and  O_45 
DOCKED: USER                              x       y       z     vdW  Elec       q    Type
DOCKED: USER                           _______ _______ _______ _____ _____    ______ ____
DOCKED: ROOT
DOCKED: ATOM      1  C   UNL d   1      41.341   2.240  -5.369 -0.18 -0.00    +0.064 A 
DOCKED: ATOM      2  C   UNL d   1      43.594  -1.257  -3.066 -0.11 -0.05    +0.064 C 
DOCKED: ATOM      3  C   UNL d   1      39.524  -3.743  -2.783 -0.10 -0.02    +0.064 A 
DOCKED: ATOM      4  C   UNL d   1      37.287  -0.362  -5.471 -0.35 +0.02    +0.064 A 
DOCKED: ATOM      5  C   UNL d   1      42.248   1.484  -4.729 -0.16 -0.02    +0.066 A 
DOCKED: ATOM      6  C   UNL d   1      43.607   1.846  -4.657 -0.13 +0.01    -0.021 A 
DOCKED: ATOM      7  C   UNL d   1      44.260   0.817  -4.007 -0.12 +0.01    -0.025 A 
DOCKED: ATOM      8  C   UNL d   1      43.270  -0.121  -3.696 -0.05 -0.05    +0.066 A 
DOCKED: ATOM      9  C   UNL d   1      45.758   0.707  -3.685 -0.07 -0.01    +0.051 C 
DOCKED: ATOM     10  C   UNL d   1      42.641  -2.267  -2.682 -0.09 -0.05    +0.066 A 
DOCKED: ATOM     11  C   UNL d   1      42.895  -3.413  -1.896 -0.07 +0.01    -0.021 A 
DOCKED: ATOM     12  C   UNL d   1      41.691  -4.118  -1.826 -0.07 -0.00    +0.000 A 
DOCKED: ATOM     13  C   UNL d   1      40.790  -3.346  -2.561 -0.09 -0.03    +0.070 A 
DOCKED: ATOM     14  C   UNL d   1      44.186  -3.741  -1.190 -0.04 -0.02    +0.052 C 
DOCKED: ATOM     15  C   UNL d   1      38.481  -3.101  -3.557 -0.15 -0.01    +0.066 A 
DOCKED: ATOM     16  C   UNL d   1      37.238  -3.635  -3.867 -0.22 +0.00    -0.021 A 
DOCKED: ATOM     17  C   UNL d   1      36.590  -2.664  -4.645 -0.33 +0.00    +0.000 A 
DOCKED: ATOM     18  C   UNL d   1      37.486  -1.604  -4.733 -0.31 +0.02    +0.070 A 
DOCKED: ATOM     19  C   UNL d   1      36.734  -4.993  -3.433 -0.19 -0.02    +0.052 C 
DOCKED: ATOM     20  C   UNL d   1      38.175   0.646  -5.643 -0.24 +0.02    +0.066 A 
DOCKED: ATOM     21  C   UNL d   1      37.881   1.775  -6.404 -0.34 -0.01    -0.025 A 
DOCKED: ATOM     22  C   UNL d   1      39.021   2.556  -6.369 -0.25 -0.01    -0.021 A 
DOCKED: ATOM     23  C   UNL d   1      39.967   1.854  -5.592 -0.15 +0.01    +0.066 A 
DOCKED: ATOM     24  C   UNL d   1      36.584   2.085  -7.147 -0.43 +0.01    +0.051 C 
DOCKED: ATOM     25  N   UNL d   1      42.013   0.269  -4.126 -0.11 +0.16    -0.248 N 
DOCKED: ATOM     26  N   UNL d   1      41.351  -2.200  -3.030 -0.09 +0.15    -0.248 N 
DOCKED: ATOM     27  N   UNL d   1      38.612  -1.911  -4.100 -0.15 -0.01    -0.248 N 
DOCKED: ATOM     28  N   UNL d   1      39.460   0.696  -5.152 +0.02 -0.03    -0.248 N 
DOCKED: ATOM     29 FE   UNL d   1      40.210  -0.883  -4.114 -0.06 -0.00    +0.000 Fe
DOCKED: ENDROOT
DOCKED: BRANCH   6  30
DOCKED: ATOM     30  C   UNL d   1      44.250   3.090  -5.262 -0.09 -0.01    +0.052 C 
DOCKED: BRANCH  30  31
DOCKED: ATOM     31  C   UNL d   1      44.840   2.775  -6.636 -0.01 -0.00    +0.115 C 
DOCKED: BRANCH  31  32
DOCKED: ATOM     32  C   UNL d   1      43.950   3.245  -7.767 -0.00 +0.01    +0.139 C 
DOCKED: ATOM     33  O   UNL d   1      43.077   2.504  -8.192 +0.03 -0.08    -0.650 OA
DOCKED: BRANCH  32  34
DOCKED: ATOM     34  O   UNL d   1      44.058   4.486  -8.297 +0.02 -0.10    -0.776 OA
DOCKED: ATOM     35  H   UNL d   1      43.365   4.919  -8.813 +0.01 +0.04    +0.167 HD
DOCKED: ENDBRANCH  32  34
DOCKED: ENDBRANCH  31  32
DOCKED: ENDBRANCH  30  31
DOCKED: ENDBRANCH   6  30
DOCKED: BRANCH  29  36
DOCKED: ATOM     36  C   UNL d   1      40.890  -1.759  -5.892 -0.09 +0.06    +0.190 C 
DOCKED: BRANCH  36  37
DOCKED: ATOM     37  O   UNL d   1      40.471  -2.181  -7.158 -0.49 -0.52    -0.399 OA
DOCKED: ATOM     38  H   UNL d   1      41.175  -1.852  -7.784 +0.02 +0.19    +0.209 HD
DOCKED: ENDBRANCH  36  37
DOCKED: ENDBRANCH  29  36
DOCKED: BRANCH  22  39
DOCKED: ATOM     39  C   UNL d   1      39.208   3.873  -7.099 -0.25 +0.02    +0.052 C 
DOCKED: BRANCH  39  40
DOCKED: ATOM     40  C   UNL d   1      39.516   3.631  -8.586 -0.10 +0.05    +0.115 C 
DOCKED: BRANCH  40  41
DOCKED: ATOM     41  C   UNL d   1      40.168   4.804  -9.288 -0.08 +0.10    +0.139 C 
DOCKED: ATOM     42  O   UNL d   1      39.482   5.764  -9.611 -0.51 -0.96    -0.650 OA
DOCKED: BRANCH  41  43
DOCKED: ATOM     43  O   UNL d   1      41.503   4.858  -9.491 +0.02 -0.36    -0.776 OA
DOCKED: ATOM     44  H   UNL d   1      42.105   4.175  -9.167 +0.01 +0.05    +0.167 HD
DOCKED: ENDBRANCH  41  43
DOCKED: ENDBRANCH  40  41
DOCKED: ENDBRANCH  39  40
DOCKED: ENDBRANCH  22  39
DOCKED: BRANCH  12  45
DOCKED: ATOM     45  C   UNL d   1      41.284  -5.414  -1.138 -0.05 -0.00    +0.004 C 
DOCKED: ATOM     46  C   UNL d   1      40.518  -5.625  -0.071 -0.08 -0.00    +0.012 C 
DOCKED: ENDBRANCH  12  45
DOCKED: BRANCH  17  47
DOCKED: ATOM     47  C   UNL d   1      35.256  -2.713  -5.313 -0.36 +0.00    +0.004 C 
DOCKED: ATOM     48  C   UNL d   1      34.248  -3.482  -4.893 -0.60 -0.00    +0.012 C 
DOCKED: ENDBRANCH  17  47
DOCKED: TORSDOF 12
DOCKED: TER
DOCKED: ENDMDL
________________________________________________________________________________


	BEGINNING GENETIC ALGORITHM DOCKING 57 of 100
Run: 57 Seed: 1267832760 631171642 [ Run 57 of 100 GA/GALS ]
Beginning LAMARCKIAN GENETIC ALGORITHM (LGA), with a maximum of 25000000 energy evaluations.

Final-Value: -19.470


	FINAL GENETIC ALGORITHM DOCKED STATE
	_______________________________________________


Detailed state:  trans 23.141 6.559 -3.435 quatxyzw -0.479069 0.127268 -0.834207 -0.241651 center 8.781 34.984 -0.736 ntor 12 121.8306 90.9374 -46.3364 -93.0352 -40.4825 1.1538 -13.1394 137.8839 56.0524 11.9480 -57.2158 176.3841
State:	 23.141   6.559  -3.435  -0.494  0.131 -0.860 -152.032    121.83   90.94  -46.34  -93.04  -40.48    1.15  -13.14  137.88   56.05   11.95  -57.22  176.38

DOCKED: MODEL       57
DOCKED: USER    Run = 57
DOCKED: USER    DPF = D:/Protein_go_brrr/autodock/final/1A3N/heme_Co/dock.dpf
DOCKED: USER  
DOCKED: USER    Estimated Free Energy of Binding    =  -14.14 kcal/mol  [=(1)+(2)+(3)-(4)]
DOCKED: USER    Estimated Inhibition Constant, Ki   =   42.92 pM (picomolar)  [Temperature = 298.15 K]
DOCKED: USER    
DOCKED: USER    (1) Final Intermolecular Energy     =  -17.72 kcal/mol
DOCKED: USER        vdW + Hbond + desolv Energy     =  -15.62 kcal/mol
DOCKED: USER        Electrostatic Energy            =   -2.10 kcal/mol
DOCKED: USER    (2) Final Total Internal Energy     =   -1.75 kcal/mol
DOCKED: USER    (3) Torsional Free Energy           =   +3.58 kcal/mol
DOCKED: USER    (4) Unbound System's Energy  [=(2)] =   -1.75 kcal/mol
DOCKED: USER    
DOCKED: USER    
DOCKED: USER    NEWDPF move heme_Co_opt.pdbqt
DOCKED: USER    NEWDPF about 8.781000 34.984000 -0.736000
DOCKED: USER    NEWDPF tran0 23.140840 6.558648 -3.435251
DOCKED: USER    NEWDPF quaternion0 -0.479069 0.127268 -0.834207 -0.241651
DOCKED: USER    NEWDPF axisangle0 -0.493700 0.131155 -0.859685 -152.032021
DOCKED: USER    NEWDPF quat0 -0.493700 0.131155 -0.859685 -152.032021
DOCKED: USER    NEWDPF dihe0 121.83 90.94 -46.34 -93.04 -40.48 1.15 -13.14 137.88 56.05 11.95 -57.22 176.38 
DOCKED: USER  keepresnum = 1 
DOCKED: USER  
DOCKED: REMARK  12 active torsions:
DOCKED: REMARK  status: ('A' for Active; 'I' for Inactive)
DOCKED: REMARK    1  A    between atoms: C_6  and  C_10 
DOCKED: REMARK    2  A    between atoms: C_10  and  C_11 
DOCKED: REMARK    3  A    between atoms: C_11  and  C_12 
DOCKED: REMARK    4  A    between atoms: C_12  and  O_14 
DOCKED: REMARK    5  A    between atoms: C_17  and  C_20 
DOCKED: REMARK    6  A    between atoms: C_24  and  C_27 
DOCKED: REMARK    7  A    between atoms: C_31  and  C_34 
DOCKED: REMARK    8  A    between atoms: C_34  and  C_35 
DOCKED: REMARK    9  A    between atoms: C_35  and  C_36 
DOCKED: REMARK   10  A    between atoms: C_36  and  O_38 
DOCKED: REMARK   11  A    between atoms: FE_43  and  C_44 
DOCKED: REMARK   12  A    between atoms: C_44  and  O_45 
DOCKED: USER                              x       y       z     vdW  Elec       q    Type
DOCKED: USER                           _______ _______ _______ _____ _____    ______ ____
DOCKED: ROOT
DOCKED: ATOM      1  C   UNL d   1      23.370   7.134  -5.517 -0.03 +0.01    +0.064 A 
DOCKED: ATOM      2  C   UNL d   1      25.303   8.808  -1.507 -0.44 +0.00    +0.064 C 
DOCKED: ATOM      3  C   UNL d   1      22.576   5.861   1.082 -0.34 +0.00    +0.064 A 
DOCKED: ATOM      4  C   UNL d   1      20.868   3.865  -3.012 -0.36 +0.01    +0.064 A 
DOCKED: ATOM      5  C   UNL d   1      24.072   7.833  -4.610 -0.29 +0.01    +0.066 A 
DOCKED: ATOM      6  C   UNL d   1      25.056   8.769  -4.986 -0.39 -0.00    -0.021 A 
DOCKED: ATOM      7  C   UNL d   1      25.629   9.235  -3.819 -0.44 -0.00    -0.025 A 
DOCKED: ATOM      8  C   UNL d   1      24.961   8.576  -2.781 -0.37 +0.01    +0.066 A 
DOCKED: ATOM      9  C   UNL d   1      26.764  10.260  -3.670 -0.36 +0.00    +0.051 C 
DOCKED: ATOM     10  C   UNL d   1      24.655   8.197  -0.374 -0.35 +0.00    +0.066 A 
DOCKED: ATOM     11  C   UNL d   1      24.872   8.502   0.988 -0.32 -0.00    -0.021 A 
DOCKED: ATOM     12  C   UNL d   1      24.061   7.631   1.720 -0.42 +0.00    +0.000 A 
DOCKED: ATOM     13  C   UNL d   1      23.402   6.870   0.755 -0.32 +0.00    +0.070 A 
DOCKED: ATOM     14  C   UNL d   1      25.728   9.620   1.526 -0.35 +0.00    +0.052 C 
DOCKED: ATOM     15  C   UNL d   1      21.857   4.943   0.220 -0.40 +0.00    +0.066 A 
DOCKED: ATOM     16  C   UNL d   1      21.134   3.830   0.623 -0.52 -0.00    -0.021 A 
DOCKED: ATOM     17  C   UNL d   1      20.641   3.250  -0.555 -0.46 +0.00    +0.000 A 
DOCKED: ATOM     18  C   UNL d   1      21.091   4.068  -1.586 -0.36 +0.01    +0.070 A 
DOCKED: ATOM     19  C   UNL d   1      20.947   3.377   2.054 -0.36 +0.00    +0.052 C 
DOCKED: ATOM     20  C   UNL d   1      21.366   4.597  -4.037 -0.39 +0.01    +0.066 A 
DOCKED: ATOM     21  C   UNL d   1      21.111   4.281  -5.369 -0.41 -0.00    -0.025 A 
DOCKED: ATOM     22  C   UNL d   1      21.796   5.224  -6.114 -0.34 -0.00    -0.021 A 
DOCKED: ATOM     23  C   UNL d   1      22.450   6.068  -5.191 -0.28 +0.01    +0.066 A 
DOCKED: ATOM     24  C   UNL d   1      20.271   3.126  -5.908 -0.51 +0.01    +0.051 C 
DOCKED: ATOM     25  N   UNL d   1      23.987   7.706  -3.242 -0.21 -0.01    -0.248 N 
DOCKED: ATOM     26  N   UNL d   1      23.720   7.251  -0.511 -0.23 -0.01    -0.248 N 
DOCKED: ATOM     27  N   UNL d   1      21.837   5.049  -1.090 -0.21 -0.01    -0.248 N 
DOCKED: ATOM     28  N   UNL d   1      22.195   5.690  -3.933 -0.25 -0.03    -0.248 N 
DOCKED: ATOM     29 FE   UNL d   1      22.847   6.298  -2.105 -0.07 +0.00    +0.000 Fe
DOCKED: ENDROOT
DOCKED: BRANCH   6  30
DOCKED: ATOM     30  C   UNL d   1      25.472   9.129  -6.408 -0.39 +0.02    +0.052 C 
DOCKED: BRANCH  30  31
DOCKED: ATOM     31  C   UNL d   1      24.317   8.895  -7.381 -0.29 +0.06    +0.115 C 
DOCKED: BRANCH  31  32
DOCKED: ATOM     32  C   UNL d   1      24.707   7.996  -8.535 -0.15 +0.15    +0.139 C 
DOCKED: ATOM     33  O   UNL d   1      24.263   8.222  -9.650 -0.15 -0.82    -0.650 OA
DOCKED: BRANCH  32  34
DOCKED: ATOM     34  O   UNL d   1      25.577   6.970  -8.382 -0.54 -1.04    -0.776 OA
DOCKED: ATOM     35  H   UNL d   1      25.352   6.041  -8.526 -0.13 +0.16    +0.167 HD
DOCKED: ENDBRANCH  32  34
DOCKED: ENDBRANCH  31  32
DOCKED: ENDBRANCH  30  31
DOCKED: ENDBRANCH   6  30
DOCKED: BRANCH  29  36
DOCKED: ATOM     36  C   UNL d   1      24.501   5.017  -2.243 +0.04 +0.04    +0.190 C 
DOCKED: BRANCH  36  37
DOCKED: ATOM     37  O   UNL d   1      24.869   3.668  -2.235 -0.55 -0.13    -0.399 OA
DOCKED: ATOM     38  H   UNL d   1      24.122   3.201  -1.765 +0.13 +0.04    +0.209 HD
DOCKED: ENDBRANCH  36  37
DOCKED: ENDBRANCH  29  36
DOCKED: BRANCH  22  39
DOCKED: ATOM     39  C   UNL d   1      21.866   5.267  -7.629 -0.32 +0.01    +0.052 C 
DOCKED: BRANCH  39  40
DOCKED: ATOM     40  C   UNL d   1      22.941   4.298  -8.150 -0.36 +0.03    +0.115 C 
DOCKED: BRANCH  40  41
DOCKED: ATOM     41  C   UNL d   1      23.188   4.383  -9.641 -0.27 +0.06    +0.139 C 
DOCKED: ATOM     42  O   UNL d   1      22.464   3.759 -10.404 -0.36 -0.27    -0.650 OA
DOCKED: BRANCH  41  43
DOCKED: ATOM     43  O   UNL d   1      24.134   5.198 -10.159 +0.04 -0.60    -0.776 OA
DOCKED: ATOM     44  H   UNL d   1      24.295   6.088  -9.819 +0.06 +0.18    +0.167 HD
DOCKED: ENDBRANCH  41  43
DOCKED: ENDBRANCH  40  41
DOCKED: ENDBRANCH  39  40
DOCKED: ENDBRANCH  22  39
DOCKED: BRANCH  12  45
DOCKED: ATOM     45  C   UNL d   1      23.821   7.444   3.212 -0.54 -0.00    +0.004 C 
DOCKED: ATOM     46  C   UNL d   1      24.292   6.532   4.058 -0.72 -0.00    +0.012 C 
DOCKED: ENDBRANCH  12  45
DOCKED: BRANCH  17  47
DOCKED: ATOM     47  C   UNL d   1      19.851   1.996  -0.742 -0.56 +0.00    +0.004 C 
DOCKED: ATOM     48  C   UNL d   1      20.303   0.784  -0.414 -0.74 -0.00    +0.012 C 
DOCKED: ENDBRANCH  17  47
DOCKED: TORSDOF 12
DOCKED: TER
DOCKED: ENDMDL
________________________________________________________________________________


	BEGINNING GENETIC ALGORITHM DOCKING 58 of 100
Run: 58 Seed: 2101278284 1245089134 [ Run 58 of 100 GA/GALS ]
Beginning LAMARCKIAN GENETIC ALGORITHM (LGA), with a maximum of 25000000 energy evaluations.

Final-Value: -12.882


	FINAL GENETIC ALGORITHM DOCKED STATE
	_______________________________________________


Detailed state:  trans 14.909 2.944 37.658 quatxyzw -0.028747 -0.018709 0.446762 0.893995 center 8.781 34.984 -0.736 ntor 12 -123.7565 96.8004 -105.6273 107.9815 67.8845 156.3324 -59.2496 -165.9849 -44.7948 40.6504 -170.9556 165.5269
State:	 14.909   2.944  37.658  -0.064 -0.042  0.997 53.241   -123.76   96.80 -105.63  107.98   67.88  156.33  -59.25 -165.98  -44.79   40.65 -170.96  165.53

DOCKED: MODEL       58
DOCKED: USER    Run = 58
DOCKED: USER    DPF = D:/Protein_go_brrr/autodock/final/1A3N/heme_Co/dock.dpf
DOCKED: USER  
DOCKED: USER    Estimated Free Energy of Binding    =   -6.69 kcal/mol  [=(1)+(2)+(3)-(4)]
DOCKED: USER    Estimated Inhibition Constant, Ki   =   12.52 uM (micromolar)  [Temperature = 298.15 K]
DOCKED: USER    
DOCKED: USER    (1) Final Intermolecular Energy     =  -10.27 kcal/mol
DOCKED: USER        vdW + Hbond + desolv Energy     =   -7.78 kcal/mol
DOCKED: USER        Electrostatic Energy            =   -2.48 kcal/mol
DOCKED: USER    (2) Final Total Internal Energy     =   -2.61 kcal/mol
DOCKED: USER    (3) Torsional Free Energy           =   +3.58 kcal/mol
DOCKED: USER    (4) Unbound System's Energy  [=(2)] =   -2.61 kcal/mol
DOCKED: USER    
DOCKED: USER    
DOCKED: USER    NEWDPF move heme_Co_opt.pdbqt
DOCKED: USER    NEWDPF about 8.781000 34.984000 -0.736000
DOCKED: USER    NEWDPF tran0 14.909054 2.943516 37.658203
DOCKED: USER    NEWDPF quaternion0 -0.028747 -0.018709 0.446762 0.893995
DOCKED: USER    NEWDPF axisangle0 -0.064155 -0.041754 0.997066 53.240700
DOCKED: USER    NEWDPF quat0 -0.064155 -0.041754 0.997066 53.240700
DOCKED: USER    NEWDPF dihe0 -123.76 96.80 -105.63 107.98 67.88 156.33 -59.25 -165.98 -44.79 40.65 -170.96 165.53 
DOCKED: USER  keepresnum = 1 
DOCKED: USER  
DOCKED: REMARK  12 active torsions:
DOCKED: REMARK  status: ('A' for Active; 'I' for Inactive)
DOCKED: REMARK    1  A    between atoms: C_6  and  C_10 
DOCKED: REMARK    2  A    between atoms: C_10  and  C_11 
DOCKED: REMARK    3  A    between atoms: C_11  and  C_12 
DOCKED: REMARK    4  A    between atoms: C_12  and  O_14 
DOCKED: REMARK    5  A    between atoms: C_17  and  C_20 
DOCKED: REMARK    6  A    between atoms: C_24  and  C_27 
DOCKED: REMARK    7  A    between atoms: C_31  and  C_34 
DOCKED: REMARK    8  A    between atoms: C_34  and  C_35 
DOCKED: REMARK    9  A    between atoms: C_35  and  C_36 
DOCKED: REMARK   10  A    between atoms: C_36  and  O_38 
DOCKED: REMARK   11  A    between atoms: FE_43  and  C_44 
DOCKED: REMARK   12  A    between atoms: C_44  and  O_45 
DOCKED: USER                              x       y       z     vdW  Elec       q    Type
DOCKED: USER                           _______ _______ _______ _____ _____    ______ ____
DOCKED: ROOT
DOCKED: ATOM      1  C   UNL d   1      14.140   4.844  36.942 -0.13 +0.02    +0.064 A 
DOCKED: ATOM      2  C   UNL d   1      12.797   1.991  40.501 -0.16 +0.01    +0.064 C 
DOCKED: ATOM      3  C   UNL d   1      16.031  -1.262  39.165 -0.19 -0.00    +0.064 A 
DOCKED: ATOM      4  C   UNL d   1      17.682   1.797  35.761 -0.28 +0.01    +0.064 A 
DOCKED: ATOM      5  C   UNL d   1      13.511   4.288  37.990 -0.14 +0.02    +0.066 A 
DOCKED: ATOM      6  C   UNL d   1      12.522   4.977  38.720 -0.24 -0.01    -0.021 A 
DOCKED: ATOM      7  C   UNL d   1      12.152   4.153  39.765 -0.24 -0.01    -0.025 A 
DOCKED: ATOM      8  C   UNL d   1      12.919   2.992  39.620 -0.18 +0.01    +0.066 A 
DOCKED: ATOM      9  C   UNL d   1      11.120   4.435  40.867 +0.15 +0.01    +0.051 C 
DOCKED: ATOM     10  C   UNL d   1      13.524   0.749  40.418 -0.12 +0.01    +0.066 A 
DOCKED: ATOM     11  C   UNL d   1      13.340  -0.392  41.229 -0.09 -0.00    -0.021 A 
DOCKED: ATOM     12  C   UNL d   1      14.293  -1.327  40.815 -0.14 +0.00    +0.000 A 
DOCKED: ATOM     13  C   UNL d   1      14.977  -0.693  39.777 -0.16 +0.00    +0.070 A 
DOCKED: ATOM     14  C   UNL d   1      12.257  -0.590  42.258 -0.05 +0.00    +0.052 C 
DOCKED: ATOM     15  C   UNL d   1      16.881  -0.733  38.117 -0.25 -0.00    +0.066 A 
DOCKED: ATOM     16  C   UNL d   1      18.043  -1.313  37.628 -0.30 +0.00    -0.021 A 
DOCKED: ATOM     17  C   UNL d   1      18.525  -0.433  36.648 -0.31 -0.00    +0.000 A 
DOCKED: ATOM     18  C   UNL d   1      17.605   0.610  36.604 -0.25 +0.00    +0.070 A 
DOCKED: ATOM     19  C   UNL d   1      18.630  -2.627  38.093 -0.21 +0.00    +0.052 C 
DOCKED: ATOM     20  C   UNL d   1      16.847   2.864  35.762 -0.21 +0.02    +0.066 A 
DOCKED: ATOM     21  C   UNL d   1      17.045   3.963  34.930 -0.28 -0.01    -0.025 A 
DOCKED: ATOM     22  C   UNL d   1      16.023   4.845  35.227 -0.21 -0.01    -0.021 A 
DOCKED: ATOM     23  C   UNL d   1      15.253   4.241  36.244 -0.14 +0.03    +0.066 A 
DOCKED: ATOM     24  C   UNL d   1      18.165   4.173  33.914 -0.30 +0.03    +0.051 C 
DOCKED: ATOM     25  N   UNL d   1      13.765   3.045  38.525 -0.08 -0.05    -0.248 N 
DOCKED: ATOM     26  N   UNL d   1      14.475   0.540  39.501 -0.10 -0.02    -0.248 N 
DOCKED: ATOM     27  N   UNL d   1      16.657   0.413  37.513 -0.14 -0.01    -0.248 N 
DOCKED: ATOM     28  N   UNL d   1      15.750   3.042  36.572 -0.07 -0.06    -0.248 N 
DOCKED: ATOM     29 FE   UNL d   1      15.297   1.653  37.986 -0.04 +0.00    +0.000 Fe
DOCKED: ENDROOT
DOCKED: BRANCH   6  30
DOCKED: ATOM     30  C   UNL d   1      12.024   6.395  38.462 -0.22 +0.02    +0.052 C 
DOCKED: BRANCH  30  31
DOCKED: ATOM     31  C   UNL d   1      12.906   7.414  39.183 -0.11 +0.04    +0.115 C 
DOCKED: BRANCH  31  32
DOCKED: ATOM     32  C   UNL d   1      13.296   8.573  38.291 -0.11 +0.10    +0.139 C 
DOCKED: ATOM     33  O   UNL d   1      13.862   9.541  38.777 -0.15 -0.55    -0.650 OA
DOCKED: BRANCH  32  34
DOCKED: ATOM     34  O   UNL d   1      13.081   8.555  36.955 -0.02 -0.91    -0.776 OA
DOCKED: ATOM     35  H   UNL d   1      13.761   8.737  36.292 +0.05 +0.27    +0.167 HD
DOCKED: ENDBRANCH  32  34
DOCKED: ENDBRANCH  31  32
DOCKED: ENDBRANCH  30  31
DOCKED: ENDBRANCH   6  30
DOCKED: BRANCH  29  36
DOCKED: ATOM     36  C   UNL d   1      16.522   2.635  39.376 -0.02 +0.02    +0.190 C 
DOCKED: BRANCH  36  37
DOCKED: ATOM     37  O   UNL d   1      16.533   3.673  40.314 +0.00 -0.04    -0.399 OA
DOCKED: ATOM     38  H   UNL d   1      15.730   4.224  40.096 +0.02 +0.03    +0.209 HD
DOCKED: ENDBRANCH  36  37
DOCKED: ENDBRANCH  29  36
DOCKED: BRANCH  22  39
DOCKED: ATOM     39  C   UNL d   1      15.840   6.220  34.612 -0.15 +0.05    +0.052 C 
DOCKED: BRANCH  39  40
DOCKED: ATOM     40  C   UNL d   1      16.515   7.296  35.478 -0.22 +0.07    +0.115 C 
DOCKED: BRANCH  40  41
DOCKED: ATOM     41  C   UNL d   1      15.784   8.622  35.509 -0.22 +0.14    +0.139 C 
DOCKED: ATOM     42  O   UNL d   1      15.097   8.949  34.552 -0.47 -1.03    -0.650 OA
DOCKED: BRANCH  41  43
DOCKED: ATOM     43  O   UNL d   1      15.800   9.417  36.602 +0.09 -0.90    -0.776 OA
DOCKED: ATOM     44  H   UNL d   1      15.073   9.440  37.238 +0.03 +0.22    +0.167 HD
DOCKED: ENDBRANCH  41  43
DOCKED: ENDBRANCH  40  41
DOCKED: ENDBRANCH  39  40
DOCKED: ENDBRANCH  22  39
DOCKED: BRANCH  12  45
DOCKED: ATOM     45  C   UNL d   1      14.621  -2.744  41.265 -0.15 +0.00    +0.004 C 
DOCKED: ATOM     46  C   UNL d   1      14.284  -3.919  40.739 -0.28 +0.00    +0.012 C 
DOCKED: ENDBRANCH  12  45
DOCKED: BRANCH  17  47
DOCKED: ATOM     47  C   UNL d   1      19.773  -0.505  35.831 -0.45 +0.00    +0.004 C 
DOCKED: ATOM     48  C   UNL d   1      20.184  -1.613  35.209 -0.52 +0.00    +0.012 C 
DOCKED: ENDBRANCH  17  47
DOCKED: TORSDOF 12
DOCKED: TER
DOCKED: ENDMDL
________________________________________________________________________________


	BEGINNING GENETIC ALGORITHM DOCKING 59 of 100
Run: 59 Seed: 798438554 268799743 [ Run 59 of 100 GA/GALS ]
Beginning LAMARCKIAN GENETIC ALGORITHM (LGA), with a maximum of 25000000 energy evaluations.

Final-Value: -12.720


	FINAL GENETIC ALGORITHM DOCKED STATE
	_______________________________________________


Detailed state:  trans 8.406 14.346 33.498 quatxyzw -0.726551 0.380816 0.561813 0.107096 center 8.781 34.984 -0.736 ntor 12 -5.6132 -60.2787 158.3696 75.4161 127.0991 107.8617 -144.9380 -163.6994 3.6279 94.7053 -168.5401 157.2865
State:	  8.406  14.346  33.498  -0.731  0.383  0.565 167.704     -5.61  -60.28  158.37   75.42  127.10  107.86 -144.94 -163.70    3.63   94.71 -168.54  157.29

DOCKED: MODEL       59
DOCKED: USER    Run = 59
DOCKED: USER    DPF = D:/Protein_go_brrr/autodock/final/1A3N/heme_Co/dock.dpf
DOCKED: USER  
DOCKED: USER    Estimated Free Energy of Binding    =   -6.88 kcal/mol  [=(1)+(2)+(3)-(4)]
DOCKED: USER    Estimated Inhibition Constant, Ki   =    8.99 uM (micromolar)  [Temperature = 298.15 K]
DOCKED: USER    
DOCKED: USER    (1) Final Intermolecular Energy     =  -10.46 kcal/mol
DOCKED: USER        vdW + Hbond + desolv Energy     =   -9.18 kcal/mol
DOCKED: USER        Electrostatic Energy            =   -1.29 kcal/mol
DOCKED: USER    (2) Final Total Internal Energy     =   -2.26 kcal/mol
DOCKED: USER    (3) Torsional Free Energy           =   +3.58 kcal/mol
DOCKED: USER    (4) Unbound System's Energy  [=(2)] =   -2.26 kcal/mol
DOCKED: USER    
DOCKED: USER    
DOCKED: USER    NEWDPF move heme_Co_opt.pdbqt
DOCKED: USER    NEWDPF about 8.781000 34.984000 -0.736000
DOCKED: USER    NEWDPF tran0 8.406490 14.346252 33.498000
DOCKED: USER    NEWDPF quaternion0 -0.726551 0.380816 0.561813 0.107096
DOCKED: USER    NEWDPF axisangle0 -0.730753 0.383019 0.565063 167.704141
DOCKED: USER    NEWDPF quat0 -0.730753 0.383019 0.565063 167.704141
DOCKED: USER    NEWDPF dihe0 -5.61 -60.28 158.37 75.42 127.10 107.86 -144.94 -163.70 3.63 94.71 -168.54 157.29 
DOCKED: USER  keepresnum = 1 
DOCKED: USER  
DOCKED: REMARK  12 active torsions:
DOCKED: REMARK  status: ('A' for Active; 'I' for Inactive)
DOCKED: REMARK    1  A    between atoms: C_6  and  C_10 
DOCKED: REMARK    2  A    between atoms: C_10  and  C_11 
DOCKED: REMARK    3  A    between atoms: C_11  and  C_12 
DOCKED: REMARK    4  A    between atoms: C_12  and  O_14 
DOCKED: REMARK    5  A    between atoms: C_17  and  C_20 
DOCKED: REMARK    6  A    between atoms: C_24  and  C_27 
DOCKED: REMARK    7  A    between atoms: C_31  and  C_34 
DOCKED: REMARK    8  A    between atoms: C_34  and  C_35 
DOCKED: REMARK    9  A    between atoms: C_35  and  C_36 
DOCKED: REMARK   10  A    between atoms: C_36  and  O_38 
DOCKED: REMARK   11  A    between atoms: FE_43  and  C_44 
DOCKED: REMARK   12  A    between atoms: C_44  and  O_45 
DOCKED: USER                              x       y       z     vdW  Elec       q    Type
DOCKED: USER                           _______ _______ _______ _____ _____    ______ ____
DOCKED: ROOT
DOCKED: ATOM      1  C   UNL d   1       8.801  15.076  35.505 -0.09 +0.05    +0.064 A 
DOCKED: ATOM      2  C   UNL d   1       6.699  17.072  31.736 -0.26 +0.03    +0.064 C 
DOCKED: ATOM      3  C   UNL d   1       7.782  13.261  29.066 -0.22 +0.01    +0.064 A 
DOCKED: ATOM      4  C   UNL d   1       9.594  11.039  32.996 -0.14 +0.04    +0.064 A 
DOCKED: ATOM      5  C   UNL d   1       8.179  15.916  34.662 -0.12 +0.06    +0.066 A 
DOCKED: ATOM      6  C   UNL d   1       7.634  17.141  35.095 -0.08 -0.02    -0.021 A 
DOCKED: ATOM      7  C   UNL d   1       7.006  17.706  34.002 -0.12 -0.02    -0.025 A 
DOCKED: ATOM      8  C   UNL d   1       7.208  16.810  32.947 -0.19 +0.05    +0.066 A 
DOCKED: ATOM      9  C   UNL d   1       6.240  19.036  33.939 -0.13 +0.03    +0.051 C 
DOCKED: ATOM     10  C   UNL d   1       6.877  16.223  30.585 -0.30 +0.02    +0.066 A 
DOCKED: ATOM     11  C   UNL d   1       6.489  16.509  29.257 -0.40 -0.00    -0.021 A 
DOCKED: ATOM     12  C   UNL d   1       6.820  15.383  28.499 -0.44 +0.00    +0.000 A 
DOCKED: ATOM     13  C   UNL d   1       7.395  14.501  29.415 -0.33 +0.02    +0.070 A 
DOCKED: ATOM     14  C   UNL d   1       5.930  17.815  28.753 -0.33 +0.00    +0.052 C 
DOCKED: ATOM     15  C   UNL d   1       8.343  12.207  29.888 -0.18 +0.02    +0.066 A 
DOCKED: ATOM     16  C   UNL d   1       8.586  10.898  29.496 -0.32 -0.00    -0.021 A 
DOCKED: ATOM     17  C   UNL d   1       9.106  10.252  30.627 -0.40 +0.00    +0.000 A 
DOCKED: ATOM     18  C   UNL d   1       9.156  11.227  31.618 -0.22 +0.03    +0.070 A 
DOCKED: ATOM     19  C   UNL d   1       8.324  10.332  28.118 -0.42 +0.01    +0.052 C 
DOCKED: ATOM     20  C   UNL d   1       9.570  11.947  34.000 -0.20 +0.05    +0.066 A 
DOCKED: ATOM     21  C   UNL d   1       9.984  11.638  35.293 -0.19 -0.03    -0.025 A 
DOCKED: ATOM     22  C   UNL d   1       9.794  12.791  36.032 -0.12 -0.02    -0.021 A 
DOCKED: ATOM     23  C   UNL d   1       9.258  13.751  35.148 -0.12 +0.05    +0.066 A 
DOCKED: ATOM     24  C   UNL d   1      10.517  10.302  35.806 -0.22 +0.06    +0.051 C 
DOCKED: ATOM     25  N   UNL d   1       7.937  15.695  33.325 -0.12 -0.19    -0.248 N 
DOCKED: ATOM     26  N   UNL d   1       7.480  15.032  30.663 -0.19 -0.08    -0.248 N 
DOCKED: ATOM     27  N   UNL d   1       8.665  12.370  31.152 -0.19 -0.09    -0.248 N 
DOCKED: ATOM     28  N   UNL d   1       9.118  13.244  33.918 -0.10 -0.17    -0.248 N 
DOCKED: ATOM     29 FE   UNL d   1       8.324  13.932  32.177 -0.05 +0.00    +0.000 Fe
DOCKED: ENDROOT
DOCKED: BRANCH   6  30
DOCKED: ATOM     30  C   UNL d   1       7.653  17.693  36.516 -0.07 +0.04    +0.052 C 
DOCKED: BRANCH  30  31
DOCKED: ATOM     31  C   UNL d   1       6.491  17.124  37.329 +0.03 +0.14    +0.115 C 
DOCKED: BRANCH  31  32
DOCKED: ATOM     32  C   UNL d   1       6.445  17.678  38.737 -0.04 +0.08    +0.139 C 
DOCKED: ATOM     33  O   UNL d   1       5.874  18.737  38.948 +0.01 -0.26    -0.650 OA
DOCKED: BRANCH  32  34
DOCKED: ATOM     34  O   UNL d   1       6.977  17.011  39.788 +0.01 -0.33    -0.776 OA
DOCKED: ATOM     35  H   UNL d   1       7.295  16.099  39.749 +0.01 +0.08    +0.167 HD
DOCKED: ENDBRANCH  32  34
DOCKED: ENDBRANCH  31  32
DOCKED: ENDBRANCH  30  31
DOCKED: ENDBRANCH   6  30
DOCKED: BRANCH  29  36
DOCKED: ATOM     36  C   UNL d   1       6.421  13.272  32.757 +0.04 +0.13    +0.190 C 
DOCKED: BRANCH  36  37
DOCKED: ATOM     37  O   UNL d   1       5.578  13.138  33.864 -0.65 -0.59    -0.399 OA
DOCKED: ATOM     38  H   UNL d   1       4.785  12.635  33.524 -0.13 +0.20    +0.209 HD
DOCKED: ENDBRANCH  36  37
DOCKED: ENDBRANCH  29  36
DOCKED: BRANCH  22  39
DOCKED: ATOM     39  C   UNL d   1      10.055  12.936  37.520 -0.08 +0.04    +0.052 C 
DOCKED: BRANCH  39  40
DOCKED: ATOM     40  C   UNL d   1       8.739  12.861  38.311 -0.02 +0.07    +0.115 C 
DOCKED: BRANCH  40  41
DOCKED: ATOM     41  C   UNL d   1       8.072  14.200  38.543 -0.02 +0.09    +0.139 C 
DOCKED: ATOM     42  O   UNL d   1       8.754  15.215  38.551 +0.02 -0.34    -0.650 OA
DOCKED: BRANCH  41  43
DOCKED: ATOM     43  O   UNL d   1       6.730  14.316  38.654 -0.01 -0.67    -0.776 OA
DOCKED: ATOM     44  H   UNL d   1       6.305  15.107  39.010 +0.01 +0.14    +0.167 HD
DOCKED: ENDBRANCH  41  43
DOCKED: ENDBRANCH  40  41
DOCKED: ENDBRANCH  39  40
DOCKED: ENDBRANCH  22  39
DOCKED: BRANCH  12  45
DOCKED: ATOM     45  C   UNL d   1       6.678  15.048  27.021 -0.52 +0.00    +0.004 C 
DOCKED: ATOM     46  C   UNL d   1       7.276  15.569  25.953 -0.52 +0.00    +0.012 C 
DOCKED: ENDBRANCH  12  45
DOCKED: BRANCH  17  47
DOCKED: ATOM     47  C   UNL d   1       9.490   8.822  30.816 -0.49 +0.00    +0.004 C 
DOCKED: ATOM     48  C   UNL d   1      10.756   8.398  30.863 -0.58 +0.00    +0.012 C 
DOCKED: ENDBRANCH  17  47
DOCKED: TORSDOF 12
DOCKED: TER
DOCKED: ENDMDL
________________________________________________________________________________


	BEGINNING GENETIC ALGORITHM DOCKING 60 of 100
Run: 60 Seed: 610076168 1807735854 [ Run 60 of 100 GA/GALS ]
Beginning LAMARCKIAN GENETIC ALGORITHM (LGA), with a maximum of 25000000 energy evaluations.

Final-Value: -12.304


	FINAL GENETIC ALGORITHM DOCKED STATE
	_______________________________________________


Detailed state:  trans 18.563 -3.553 10.352 quatxyzw 0.625074 -0.382994 0.051342 -0.678205 center 8.781 34.984 -0.736 ntor 12 -147.3846 108.2775 -8.6546 115.5093 17.2549 134.5266 6.2365 -108.5230 -161.4388 -23.3503 167.3624 -130.8565
State:	 18.563  -3.553  10.352   0.851 -0.521  0.070 -94.593   -147.38  108.28   -8.65  115.51   17.25  134.53    6.24 -108.52 -161.44  -23.35  167.36 -130.86

DOCKED: MODEL       60
DOCKED: USER    Run = 60
DOCKED: USER    DPF = D:/Protein_go_brrr/autodock/final/1A3N/heme_Co/dock.dpf
DOCKED: USER  
DOCKED: USER    Estimated Free Energy of Binding    =   -7.18 kcal/mol  [=(1)+(2)+(3)-(4)]
DOCKED: USER    Estimated Inhibition Constant, Ki   =    5.47 uM (micromolar)  [Temperature = 298.15 K]
DOCKED: USER    
DOCKED: USER    (1) Final Intermolecular Energy     =  -10.76 kcal/mol
DOCKED: USER        vdW + Hbond + desolv Energy     =   -9.01 kcal/mol
DOCKED: USER        Electrostatic Energy            =   -1.75 kcal/mol
DOCKED: USER    (2) Final Total Internal Energy     =   -1.55 kcal/mol
DOCKED: USER    (3) Torsional Free Energy           =   +3.58 kcal/mol
DOCKED: USER    (4) Unbound System's Energy  [=(2)] =   -1.55 kcal/mol
DOCKED: USER    
DOCKED: USER    
DOCKED: USER    NEWDPF move heme_Co_opt.pdbqt
DOCKED: USER    NEWDPF about 8.781000 34.984000 -0.736000
DOCKED: USER    NEWDPF tran0 18.563415 -3.553279 10.351907
DOCKED: USER    NEWDPF quaternion0 0.625074 -0.382994 0.051342 -0.678205
DOCKED: USER    NEWDPF axisangle0 0.850588 -0.521171 0.069865 -94.592977
DOCKED: USER    NEWDPF quat0 0.850588 -0.521171 0.069865 -94.592977
DOCKED: USER    NEWDPF dihe0 -147.38 108.28 -8.65 115.51 17.25 134.53 6.24 -108.52 -161.44 -23.35 167.36 -130.86 
DOCKED: USER  keepresnum = 1 
DOCKED: USER  
DOCKED: REMARK  12 active torsions:
DOCKED: REMARK  status: ('A' for Active; 'I' for Inactive)
DOCKED: REMARK    1  A    between atoms: C_6  and  C_10 
DOCKED: REMARK    2  A    between atoms: C_10  and  C_11 
DOCKED: REMARK    3  A    between atoms: C_11  and  C_12 
DOCKED: REMARK    4  A    between atoms: C_12  and  O_14 
DOCKED: REMARK    5  A    between atoms: C_17  and  C_20 
DOCKED: REMARK    6  A    between atoms: C_24  and  C_27 
DOCKED: REMARK    7  A    between atoms: C_31  and  C_34 
DOCKED: REMARK    8  A    between atoms: C_34  and  C_35 
DOCKED: REMARK    9  A    between atoms: C_35  and  C_36 
DOCKED: REMARK   10  A    between atoms: C_36  and  O_38 
DOCKED: REMARK   11  A    between atoms: FE_43  and  C_44 
DOCKED: REMARK   12  A    between atoms: C_44  and  O_45 
DOCKED: USER                              x       y       z     vdW  Elec       q    Type
DOCKED: USER                           _______ _______ _______ _____ _____    ______ ____
DOCKED: ROOT
DOCKED: ATOM      1  C   UNL d   1      17.320  -1.901   9.690 -0.18 -0.00    +0.064 A 
DOCKED: ATOM      2  C   UNL d   1      17.961  -6.297   7.994 -0.23 +0.00    +0.064 C 
DOCKED: ATOM      3  C   UNL d   1      21.368  -7.095  11.247 -0.29 +0.00    +0.064 A 
DOCKED: ATOM      4  C   UNL d   1      20.464  -2.751  13.241 -0.16 -0.00    +0.064 A 
DOCKED: ATOM      5  C   UNL d   1      17.270  -3.031   8.964 -0.17 -0.00    +0.066 A 
DOCKED: ATOM      6  C   UNL d   1      16.325  -3.218   7.936 -0.22 +0.00    -0.021 A 
DOCKED: ATOM      7  C   UNL d   1      16.501  -4.503   7.463 -0.22 +0.00    -0.025 A 
DOCKED: ATOM      8  C   UNL d   1      17.555  -5.040   8.211 -0.19 +0.00    +0.066 A 
DOCKED: ATOM      9  C   UNL d   1      15.714  -5.214   6.351 -0.17 +0.01    +0.051 C 
DOCKED: ATOM     10  C   UNL d   1      19.053  -6.925   8.695 -0.19 +0.00    +0.066 A 
DOCKED: ATOM     11  C   UNL d   1      19.618  -8.189   8.419 -0.26 +0.00    -0.021 A 
DOCKED: ATOM     12  C   UNL d   1      20.612  -8.394   9.380 -0.29 -0.00    +0.000 A 
DOCKED: ATOM     13  C   UNL d   1      20.589  -7.239  10.161 -0.19 +0.00    +0.070 A 
DOCKED: ATOM     14  C   UNL d   1      19.281  -9.081   7.252 -0.29 +0.00    +0.052 C 
DOCKED: ATOM     15  C   UNL d   1      21.436  -5.998  12.192 -0.25 +0.00    +0.066 A 
DOCKED: ATOM     16  C   UNL d   1      22.160  -5.974  13.376 -0.37 -0.00    -0.021 A 
DOCKED: ATOM     17  C   UNL d   1      21.900  -4.724  13.956 -0.33 -0.00    +0.000 A 
DOCKED: ATOM     18  C   UNL d   1      21.049  -4.075  13.068 -0.20 -0.00    +0.070 A 
DOCKED: ATOM     19  C   UNL d   1      23.035  -7.095  13.891 -0.26 +0.00    +0.052 C 
DOCKED: ATOM     20  C   UNL d   1      19.566  -2.135  12.435 -0.12 -0.00    +0.066 A 
DOCKED: ATOM     21  C   UNL d   1      19.048  -0.875  12.726 -0.12 +0.00    -0.025 A 
DOCKED: ATOM     22  C   UNL d   1      18.161  -0.591  11.704 -0.15 -0.00    -0.021 A 
DOCKED: ATOM     23  C   UNL d   1      18.172  -1.706  10.840 -0.13 -0.00    +0.066 A 
DOCKED: ATOM     24  C   UNL d   1      19.368   0.009  13.929 -0.15 -0.01    +0.051 C 
DOCKED: ATOM     25  N   UNL d   1      18.054  -4.147   9.144 -0.13 +0.00    -0.248 N 
DOCKED: ATOM     26  N   UNL d   1      19.684  -6.328   9.712 -0.05 -0.01    -0.248 N 
DOCKED: ATOM     27  N   UNL d   1      20.770  -4.874  12.045 -0.12 -0.00    -0.248 N 
DOCKED: ATOM     28  N   UNL d   1      19.020  -2.644  11.280 -0.09 +0.00    -0.248 N 
DOCKED: ATOM     29 FE   UNL d   1      19.492  -4.529  10.682 -0.04 +0.00    +0.000 Fe
DOCKED: ENDROOT
DOCKED: BRANCH   6  30
DOCKED: ATOM     30  C   UNL d   1      15.253  -2.227   7.495 -0.34 -0.02    +0.052 C 
DOCKED: BRANCH  30  31
DOCKED: ATOM     31  C   UNL d   1      13.868  -2.708   7.923 -0.29 -0.06    +0.115 C 
DOCKED: BRANCH  31  32
DOCKED: ATOM     32  C   UNL d   1      13.933  -3.782   8.988 -0.19 +0.00    +0.139 C 
DOCKED: ATOM     33  O   UNL d   1      13.397  -4.861   8.787 -0.03 -0.35    -0.650 OA
DOCKED: BRANCH  32  34
DOCKED: ATOM     34  O   UNL d   1      14.611  -3.604  10.146 +0.08 -0.02    -0.776 OA
DOCKED: ATOM     35  H   UNL d   1      15.013  -4.320  10.656 +0.03 +0.02    +0.167 HD
DOCKED: ENDBRANCH  32  34
DOCKED: ENDBRANCH  31  32
DOCKED: ENDBRANCH  30  31
DOCKED: ENDBRANCH   6  30
DOCKED: BRANCH  29  36
DOCKED: ATOM     36  C   UNL d   1      17.909  -5.310  11.812 -0.04 +0.02    +0.190 C 
DOCKED: BRANCH  36  37
DOCKED: ATOM     37  O   UNL d   1      16.516  -5.302  11.932 +0.01 -0.05    -0.399 OA
DOCKED: ATOM     38  H   UNL d   1      16.204  -4.637  11.257 +0.03 +0.02    +0.209 HD
DOCKED: ENDBRANCH  36  37
DOCKED: ENDBRANCH  29  36
DOCKED: BRANCH  22  39
DOCKED: ATOM     39  C   UNL d   1      17.303   0.657  11.605 -0.21 +0.01    +0.052 C 
DOCKED: BRANCH  39  40
DOCKED: ATOM     40  C   UNL d   1      16.967   1.197  13.005 -0.12 +0.02    +0.115 C 
DOCKED: BRANCH  40  41
DOCKED: ATOM     41  C   UNL d   1      16.751   2.695  13.061 -0.11 +0.10    +0.139 C 
DOCKED: ATOM     42  O   UNL d   1      16.316   3.274  12.076 -0.02 -0.72    -0.650 OA
DOCKED: BRANCH  41  43
DOCKED: ATOM     43  O   UNL d   1      16.945   3.398  14.198 -0.36 -0.73    -0.776 OA
DOCKED: ATOM     44  H   UNL d   1      17.197   2.979  15.032 +0.06 +0.03    +0.167 HD
DOCKED: ENDBRANCH  41  43
DOCKED: ENDBRANCH  40  41
DOCKED: ENDBRANCH  39  40
DOCKED: ENDBRANCH  22  39
DOCKED: BRANCH  12  45
DOCKED: ATOM     45  C   UNL d   1      21.588  -9.535   9.636 -0.45 -0.00    +0.004 C 
DOCKED: ATOM     46  C   UNL d   1      22.901  -9.613   9.435 -0.52 -0.00    +0.012 C 
DOCKED: ENDBRANCH  12  45
DOCKED: BRANCH  17  47
DOCKED: ATOM     47  C   UNL d   1      22.356  -4.167  15.264 -0.37 -0.00    +0.004 C 
DOCKED: ATOM     48  C   UNL d   1      23.063  -4.864  16.157 -0.58 -0.00    +0.012 C 
DOCKED: ENDBRANCH  17  47
DOCKED: TORSDOF 12
DOCKED: TER
DOCKED: ENDMDL
________________________________________________________________________________


	BEGINNING GENETIC ALGORITHM DOCKING 61 of 100
Run: 61 Seed: 596685528 2115316138 [ Run 61 of 100 GA/GALS ]
Beginning LAMARCKIAN GENETIC ALGORITHM (LGA), with a maximum of 25000000 energy evaluations.

Final-Value: -13.171


	FINAL GENETIC ALGORITHM DOCKED STATE
	_______________________________________________


Detailed state:  trans 23.135 -7.120 36.940 quatxyzw 0.495807 0.718483 0.173038 -0.456087 center 8.781 34.984 -0.736 ntor 12 42.3801 86.3075 83.0596 128.1365 117.2761 122.1973 42.6223 -55.8457 161.0519 -151.7418 -159.6234 158.3040
State:	 23.135  -7.120  36.940   0.557  0.807  0.194 -125.730     42.38   86.31   83.06  128.14  117.28  122.20   42.62  -55.85  161.05 -151.74 -159.62  158.30

DOCKED: MODEL       61
DOCKED: USER    Run = 61
DOCKED: USER    DPF = D:/Protein_go_brrr/autodock/final/1A3N/heme_Co/dock.dpf
DOCKED: USER  
DOCKED: USER    Estimated Free Energy of Binding    =   -6.33 kcal/mol  [=(1)+(2)+(3)-(4)]
DOCKED: USER    Estimated Inhibition Constant, Ki   =   23.03 uM (micromolar)  [Temperature = 298.15 K]
DOCKED: USER    
DOCKED: USER    (1) Final Intermolecular Energy     =   -9.91 kcal/mol
DOCKED: USER        vdW + Hbond + desolv Energy     =   -7.66 kcal/mol
DOCKED: USER        Electrostatic Energy            =   -2.25 kcal/mol
DOCKED: USER    (2) Final Total Internal Energy     =   -3.26 kcal/mol
DOCKED: USER    (3) Torsional Free Energy           =   +3.58 kcal/mol
DOCKED: USER    (4) Unbound System's Energy  [=(2)] =   -3.26 kcal/mol
DOCKED: USER    
DOCKED: USER    
DOCKED: USER    NEWDPF move heme_Co_opt.pdbqt
DOCKED: USER    NEWDPF about 8.781000 34.984000 -0.736000
DOCKED: USER    NEWDPF tran0 23.134690 -7.120298 36.939944
DOCKED: USER    NEWDPF quaternion0 0.495807 0.718483 0.173038 -0.456087
DOCKED: USER    NEWDPF axisangle0 0.557127 0.807343 0.194439 -125.730175
DOCKED: USER    NEWDPF quat0 0.557127 0.807343 0.194439 -125.730175
DOCKED: USER    NEWDPF dihe0 42.38 86.31 83.06 128.14 117.28 122.20 42.62 -55.85 161.05 -151.74 -159.62 158.30 
DOCKED: USER  keepresnum = 1 
DOCKED: USER  
DOCKED: REMARK  12 active torsions:
DOCKED: REMARK  status: ('A' for Active; 'I' for Inactive)
DOCKED: REMARK    1  A    between atoms: C_6  and  C_10 
DOCKED: REMARK    2  A    between atoms: C_10  and  C_11 
DOCKED: REMARK    3  A    between atoms: C_11  and  C_12 
DOCKED: REMARK    4  A    between atoms: C_12  and  O_14 
DOCKED: REMARK    5  A    between atoms: C_17  and  C_20 
DOCKED: REMARK    6  A    between atoms: C_24  and  C_27 
DOCKED: REMARK    7  A    between atoms: C_31  and  C_34 
DOCKED: REMARK    8  A    between atoms: C_34  and  C_35 
DOCKED: REMARK    9  A    between atoms: C_35  and  C_36 
DOCKED: REMARK   10  A    between atoms: C_36  and  O_38 
DOCKED: REMARK   11  A    between atoms: FE_43  and  C_44 
DOCKED: REMARK   12  A    between atoms: C_44  and  O_45 
DOCKED: USER                              x       y       z     vdW  Elec       q    Type
DOCKED: USER                           _______ _______ _______ _____ _____    ______ ____
DOCKED: ROOT
DOCKED: ATOM      1  C   UNL d   1      22.887  -8.407  38.671 -0.10 +0.02    +0.064 A 
DOCKED: ATOM      2  C   UNL d   1      24.384  -9.265  34.240 -0.30 +0.02    +0.064 C 
DOCKED: ATOM      3  C   UNL d   1      23.387  -4.762  32.992 -0.15 +0.01    +0.064 A 
DOCKED: ATOM      4  C   UNL d   1      22.216  -3.756  37.605 -0.05 +0.01    +0.064 A 
DOCKED: ATOM      5  C   UNL d   1      23.335  -8.982  37.543 -0.13 +0.02    +0.066 A 
DOCKED: ATOM      6  C   UNL d   1      23.806 -10.310  37.517 -0.11 -0.01    -0.021 A 
DOCKED: ATOM      7  C   UNL d   1      24.260 -10.546  36.234 -0.16 -0.01    -0.025 A 
DOCKED: ATOM      8  C   UNL d   1      24.033  -9.359  35.529 -0.21 +0.02    +0.066 A 
DOCKED: ATOM      9  C   UNL d   1      24.887 -11.834  35.679 -0.16 +0.01    +0.051 C 
DOCKED: ATOM     10  C   UNL d   1      24.166  -8.095  33.428 -0.32 +0.01    +0.066 A 
DOCKED: ATOM     11  C   UNL d   1      24.383  -7.981  32.037 -0.36 -0.00    -0.021 A 
DOCKED: ATOM     12  C   UNL d   1      24.081  -6.659  31.699 -0.20 +0.00    +0.000 A 
DOCKED: ATOM     13  C   UNL d   1      23.690  -6.069  32.902 -0.25 +0.01    +0.070 A 
DOCKED: ATOM     14  C   UNL d   1      24.761  -9.098  31.099 -0.44 +0.00    +0.052 C 
DOCKED: ATOM     15  C   UNL d   1      23.017  -3.982  34.156 -0.34 +0.01    +0.066 A 
DOCKED: ATOM     16  C   UNL d   1      22.858  -2.604  34.207 -0.43 -0.00    -0.021 A 
DOCKED: ATOM     17  C   UNL d   1      22.523  -2.309  35.536 -0.35 +0.00    +0.000 A 
DOCKED: ATOM     18  C   UNL d   1      22.487  -3.536  36.189 -0.21 +0.01    +0.070 A 
DOCKED: ATOM     19  C   UNL d   1      23.025  -1.659  33.038 -0.27 +0.01    +0.052 C 
DOCKED: ATOM     20  C   UNL d   1      22.261  -4.930  38.280 -0.02 +0.01    +0.066 A 
DOCKED: ATOM     21  C   UNL d   1      22.016  -5.009  39.649 -0.07 -0.00    -0.025 A 
DOCKED: ATOM     22  C   UNL d   1      22.174  -6.343  39.979 -0.07 -0.00    -0.021 A 
DOCKED: ATOM     23  C   UNL d   1      22.522  -7.014  38.788 -0.10 +0.02    +0.066 A 
DOCKED: ATOM     24  C   UNL d   1      21.668  -3.868  40.601 -0.04 +0.01    +0.051 C 
DOCKED: ATOM     25  N   UNL d   1      23.455  -8.375  36.314 -0.12 -0.09    -0.248 N 
DOCKED: ATOM     26  N   UNL d   1      23.689  -6.953  33.935 -0.21 -0.05    -0.248 N 
DOCKED: ATOM     27  N   UNL d   1      22.816  -4.507  35.344 -0.16 -0.04    -0.248 N 
DOCKED: ATOM     28  N   UNL d   1      22.578  -6.162  37.757 -0.08 -0.06    -0.248 N 
DOCKED: ATOM     29 FE   UNL d   1      23.115  -6.326  35.803 -0.05 +0.00    +0.000 Fe
DOCKED: ENDROOT
DOCKED: BRANCH   6  30
DOCKED: ATOM     30  C   UNL d   1      23.885 -11.270  38.699 -0.06 +0.01    +0.052 C 
DOCKED: BRANCH  30  31
DOCKED: ATOM     31  C   UNL d   1      25.056 -10.904  39.611 -0.04 +0.04    +0.115 C 
DOCKED: BRANCH  31  32
DOCKED: ATOM     32  C   UNL d   1      26.100 -10.067  38.902 -0.07 +0.13    +0.139 C 
DOCKED: ATOM     33  O   UNL d   1      26.991 -10.622  38.277 +0.03 -0.72    -0.650 OA
DOCKED: BRANCH  32  34
DOCKED: ATOM     34  O   UNL d   1      26.053  -8.715  38.897 -0.35 -1.24    -0.776 OA
DOCKED: ATOM     35  H   UNL d   1      25.781  -8.177  39.654 +0.01 +0.17    +0.167 HD
DOCKED: ENDBRANCH  32  34
DOCKED: ENDBRANCH  31  32
DOCKED: ENDBRANCH  30  31
DOCKED: ENDBRANCH   6  30
DOCKED: BRANCH  29  36
DOCKED: ATOM     36  C   UNL d   1      25.123  -5.986  36.303 -0.10 +0.11    +0.190 C 
DOCKED: BRANCH  36  37
DOCKED: ATOM     37  O   UNL d   1      26.145  -6.408  37.159 -0.20 -0.56    -0.399 OA
DOCKED: ATOM     38  H   UNL d   1      25.674  -6.761  37.966 +0.04 +0.27    +0.209 HD
DOCKED: ENDBRANCH  36  37
DOCKED: ENDBRANCH  29  36
DOCKED: BRANCH  22  39
DOCKED: ATOM     39  C   UNL d   1      22.059  -6.922  41.377 -0.03 +0.01    +0.052 C 
DOCKED: BRANCH  39  40
DOCKED: ATOM     40  C   UNL d   1      23.453  -7.146  41.987 -0.00 +0.02    +0.115 C 
DOCKED: BRANCH  40  41
DOCKED: ATOM     41  C   UNL d   1      24.546  -6.296  41.376 -0.00 +0.04    +0.139 C 
DOCKED: ATOM     42  O   UNL d   1      24.692  -5.143  41.758 +0.01 -0.17    -0.650 OA
DOCKED: BRANCH  41  43
DOCKED: ATOM     43  O   UNL d   1      25.423  -6.802  40.481 +0.02 -0.44    -0.776 OA
DOCKED: ATOM     44  H   UNL d   1      25.256  -6.796  39.530 +0.02 +0.12    +0.167 HD
DOCKED: ENDBRANCH  41  43
DOCKED: ENDBRANCH  40  41
DOCKED: ENDBRANCH  39  40
DOCKED: ENDBRANCH  22  39
DOCKED: BRANCH  12  45
DOCKED: ATOM     45  C   UNL d   1      24.097  -5.894  30.382 -0.33 +0.00    +0.004 C 
DOCKED: ATOM     46  C   UNL d   1      23.118  -5.275  29.728 -0.44 +0.00    +0.012 C 
DOCKED: ENDBRANCH  12  45
DOCKED: BRANCH  17  47
DOCKED: ATOM     47  C   UNL d   1      22.296  -0.986  36.191 -0.35 -0.00    +0.004 C 
DOCKED: ATOM     48  C   UNL d   1      21.088  -0.442  36.354 -0.36 -0.00    +0.012 C 
DOCKED: ENDBRANCH  17  47
DOCKED: TORSDOF 12
DOCKED: TER
DOCKED: ENDMDL
________________________________________________________________________________


	BEGINNING GENETIC ALGORITHM DOCKING 62 of 100
Run: 62 Seed: 1862198528 894098083 [ Run 62 of 100 GA/GALS ]
Beginning LAMARCKIAN GENETIC ALGORITHM (LGA), with a maximum of 25000000 energy evaluations.

Final-Value: -11.345


	FINAL GENETIC ALGORITHM DOCKED STATE
	_______________________________________________


Detailed state:  trans 9.475 -11.730 19.365 quatxyzw -0.558550 -0.398166 -0.694226 0.218028 center 8.781 34.984 -0.736 ntor 12 112.3185 -149.8785 34.7559 -104.2597 130.0911 167.7963 -87.8414 -149.1474 32.7982 -64.8185 15.6596 54.3255
State:	  9.475 -11.730  19.365  -0.572 -0.408 -0.711 154.813    112.32 -149.88   34.76 -104.26  130.09  167.80  -87.84 -149.15   32.80  -64.82   15.66   54.33

DOCKED: MODEL       62
DOCKED: USER    Run = 62
DOCKED: USER    DPF = D:/Protein_go_brrr/autodock/final/1A3N/heme_Co/dock.dpf
DOCKED: USER  
DOCKED: USER    Estimated Free Energy of Binding    =   -5.95 kcal/mol  [=(1)+(2)+(3)-(4)]
DOCKED: USER    Estimated Inhibition Constant, Ki   =   43.80 uM (micromolar)  [Temperature = 298.15 K]
DOCKED: USER    
DOCKED: USER    (1) Final Intermolecular Energy     =   -9.53 kcal/mol
DOCKED: USER        vdW + Hbond + desolv Energy     =   -6.42 kcal/mol
DOCKED: USER        Electrostatic Energy            =   -3.11 kcal/mol
DOCKED: USER    (2) Final Total Internal Energy     =   -1.82 kcal/mol
DOCKED: USER    (3) Torsional Free Energy           =   +3.58 kcal/mol
DOCKED: USER    (4) Unbound System's Energy  [=(2)] =   -1.82 kcal/mol
DOCKED: USER    
DOCKED: USER    
DOCKED: USER    NEWDPF move heme_Co_opt.pdbqt
DOCKED: USER    NEWDPF about 8.781000 34.984000 -0.736000
DOCKED: USER    NEWDPF tran0 9.474506 -11.729655 19.364813
DOCKED: USER    NEWDPF quaternion0 -0.558550 -0.398166 -0.694226 0.218028
DOCKED: USER    NEWDPF axisangle0 -0.572319 -0.407981 -0.711339 154.813489
DOCKED: USER    NEWDPF quat0 -0.572319 -0.407981 -0.711339 154.813489
DOCKED: USER    NEWDPF dihe0 112.32 -149.88 34.76 -104.26 130.09 167.80 -87.84 -149.15 32.80 -64.82 15.66 54.33 
DOCKED: USER  keepresnum = 1 
DOCKED: USER  
DOCKED: REMARK  12 active torsions:
DOCKED: REMARK  status: ('A' for Active; 'I' for Inactive)
DOCKED: REMARK    1  A    between atoms: C_6  and  C_10 
DOCKED: REMARK    2  A    between atoms: C_10  and  C_11 
DOCKED: REMARK    3  A    between atoms: C_11  and  C_12 
DOCKED: REMARK    4  A    between atoms: C_12  and  O_14 
DOCKED: REMARK    5  A    between atoms: C_17  and  C_20 
DOCKED: REMARK    6  A    between atoms: C_24  and  C_27 
DOCKED: REMARK    7  A    between atoms: C_31  and  C_34 
DOCKED: REMARK    8  A    between atoms: C_34  and  C_35 
DOCKED: REMARK    9  A    between atoms: C_35  and  C_36 
DOCKED: REMARK   10  A    between atoms: C_36  and  O_38 
DOCKED: REMARK   11  A    between atoms: FE_43  and  C_44 
DOCKED: REMARK   12  A    between atoms: C_44  and  O_45 
DOCKED: USER                              x       y       z     vdW  Elec       q    Type
DOCKED: USER                           _______ _______ _______ _____ _____    ______ ____
DOCKED: ROOT
DOCKED: ATOM      1  C   UNL d   1       9.282 -13.732  18.547 -0.11 +0.04    +0.064 A 
DOCKED: ATOM      2  C   UNL d   1      12.096 -10.072  17.407 -0.12 +0.03    +0.064 C 
DOCKED: ATOM      3  C   UNL d   1       9.851  -7.306  20.591 -0.10 +0.01    +0.064 A 
DOCKED: ATOM      4  C   UNL d   1       7.225 -11.134  22.045 -0.13 +0.01    +0.064 A 
DOCKED: ATOM      5  C   UNL d   1      10.192 -12.925  17.976 -0.08 +0.04    +0.066 A 
DOCKED: ATOM      6  C   UNL d   1      11.114 -13.396  17.021 -0.08 -0.02    -0.021 A 
DOCKED: ATOM      7  C   UNL d   1      11.942 -12.336  16.711 -0.08 -0.01    -0.025 A 
DOCKED: ATOM      8  C   UNL d   1      11.481 -11.260  17.477 -0.06 +0.03    +0.066 A 
DOCKED: ATOM      9  C   UNL d   1      13.127 -12.321  15.733 -0.12 +0.03    +0.051 C 
DOCKED: ATOM     10  C   UNL d   1      11.676  -8.902  18.137 -0.09 +0.03    +0.066 A 
DOCKED: ATOM     11  C   UNL d   1      12.191  -7.594  18.002 -0.13 -0.01    -0.021 A 
DOCKED: ATOM     12  C   UNL d   1      11.516  -6.807  18.940 -0.12 +0.00    +0.000 A 
DOCKED: ATOM     13  C   UNL d   1      10.634  -7.688  19.566 -0.07 +0.02    +0.070 A 
DOCKED: ATOM     14  C   UNL d   1      13.191  -7.131  16.975 +0.01 +0.04    +0.052 C 
DOCKED: ATOM     15  C   UNL d   1       8.925  -8.091  21.384 -0.11 +0.01    +0.066 A 
DOCKED: ATOM     16  C   UNL d   1       8.255  -7.671  22.523 -0.25 -0.00    -0.021 A 
DOCKED: ATOM     17  C   UNL d   1       7.498  -8.772  22.948 -0.24 +0.00    +0.000 A 
DOCKED: ATOM     18  C   UNL d   1       7.754  -9.776  22.020 -0.12 +0.01    +0.070 A 
DOCKED: ATOM     19  C   UNL d   1       8.356  -6.294  23.142 -0.40 +0.01    +0.052 C 
DOCKED: ATOM     20  C   UNL d   1       7.527 -12.152  21.205 -0.14 +0.02    +0.066 A 
DOCKED: ATOM     21  C   UNL d   1       6.980 -13.425  21.352 -0.19 -0.01    -0.025 A 
DOCKED: ATOM     22  C   UNL d   1       7.533 -14.188  20.340 -0.17 -0.01    -0.021 A 
DOCKED: ATOM     23  C   UNL d   1       8.405 -13.339  19.627 -0.12 +0.03    +0.066 A 
DOCKED: ATOM     24  C   UNL d   1       5.994 -13.897  22.418 -0.23 +0.02    +0.051 C 
DOCKED: ATOM     25  N   UNL d   1      10.393 -11.595  18.266 -0.02 -0.11    -0.248 N 
DOCKED: ATOM     26  N   UNL d   1      10.692  -8.941  19.041 -0.02 -0.08    -0.248 N 
DOCKED: ATOM     27  N   UNL d   1       8.632  -9.345  21.121 -0.04 -0.04    -0.248 N 
DOCKED: ATOM     28  N   UNL d   1       8.407 -12.107  20.149 -0.06 -0.08    -0.248 N 
DOCKED: ATOM     29 FE   UNL d   1       9.458 -10.406  19.778 -0.03 +0.00    +0.000 Fe
DOCKED: ENDROOT
DOCKED: BRANCH   6  30
DOCKED: ATOM     30  C   UNL d   1      11.234 -14.825  16.500 -0.06 +0.06    +0.052 C 
DOCKED: BRANCH  30  31
DOCKED: ATOM     31  C   UNL d   1      10.550 -14.960  15.140 -0.05 +0.12    +0.115 C 
DOCKED: BRANCH  31  32
DOCKED: ATOM     32  C   UNL d   1       9.978 -16.343  14.917 -0.07 +0.17    +0.139 C 
DOCKED: ATOM     33  O   UNL d   1       8.914 -16.466  14.329 -0.44 -1.06    -0.650 OA
DOCKED: BRANCH  32  34
DOCKED: ATOM     34  O   UNL d   1      10.633 -17.462  15.306 -0.02 -0.97    -0.776 OA
DOCKED: ATOM     35  H   UNL d   1      10.364 -18.018  16.051 +0.01 +0.22    +0.167 HD
DOCKED: ENDBRANCH  32  34
DOCKED: ENDBRANCH  31  32
DOCKED: ENDBRANCH  30  31
DOCKED: ENDBRANCH   6  30
DOCKED: BRANCH  29  36
DOCKED: ATOM     36  C   UNL d   1      10.986 -11.043  21.065 -0.25 +0.05    +0.190 C 
DOCKED: BRANCH  36  37
DOCKED: ATOM     37  O   UNL d   1      12.232 -11.677  21.086 -0.15 -0.14    -0.399 OA
DOCKED: ATOM     38  H   UNL d   1      12.898 -10.933  21.112 -0.08 +0.05    +0.209 HD
DOCKED: ENDBRANCH  36  37
DOCKED: ENDBRANCH  29  36
DOCKED: BRANCH  22  39
DOCKED: ATOM     39  C   UNL d   1       7.282 -15.668  20.117 -0.16 +0.03    +0.052 C 
DOCKED: BRANCH  39  40
DOCKED: ATOM     40  C   UNL d   1       7.535 -16.045  18.648 -0.11 +0.07    +0.115 C 
DOCKED: BRANCH  40  41
DOCKED: ATOM     41  C   UNL d   1       8.771 -16.891  18.424 -0.12 +0.16    +0.139 C 
DOCKED: ATOM     42  O   UNL d   1       9.568 -17.039  19.339 -0.53 -1.20    -0.650 OA
DOCKED: BRANCH  41  43
DOCKED: ATOM     43  O   UNL d   1       8.974 -17.560  17.267 +0.04 -0.84    -0.776 OA
DOCKED: ATOM     44  H   UNL d   1       8.776 -17.175  16.404 +0.02 +0.16    +0.167 HD
DOCKED: ENDBRANCH  41  43
DOCKED: ENDBRANCH  40  41
DOCKED: ENDBRANCH  39  40
DOCKED: ENDBRANCH  22  39
DOCKED: BRANCH  12  45
DOCKED: ATOM     45  C   UNL d   1      11.590  -5.330  19.300 -0.11 +0.00    +0.004 C 
DOCKED: ATOM     46  C   UNL d   1      12.014  -4.729  20.409 -0.30 +0.00    +0.012 C 
DOCKED: ENDBRANCH  12  45
DOCKED: BRANCH  17  47
DOCKED: ATOM     47  C   UNL d   1       6.630  -8.925  24.154 -0.32 -0.00    +0.004 C 
DOCKED: ATOM     48  C   UNL d   1       5.297  -8.978  24.100 -0.30 +0.00    +0.012 C 
DOCKED: ENDBRANCH  17  47
DOCKED: TORSDOF 12
DOCKED: TER
DOCKED: ENDMDL
________________________________________________________________________________


	BEGINNING GENETIC ALGORITHM DOCKING 63 of 100
Run: 63 Seed: 1195715717 1485805102 [ Run 63 of 100 GA/GALS ]
Beginning LAMARCKIAN GENETIC ALGORITHM (LGA), with a maximum of 25000000 energy evaluations.

Final-Value: -11.905


	FINAL GENETIC ALGORITHM DOCKED STATE
	_______________________________________________


Detailed state:  trans 16.532 8.450 14.872 quatxyzw -0.029169 0.430278 0.644284 -0.631592 center 8.781 34.984 -0.736 ntor 12 -27.0781 -63.7092 128.7193 51.1316 -97.6871 78.0416 -179.8988 -167.6281 -142.1799 -56.2728 -34.3578 -35.6892
State:	 16.532   8.450  14.872  -0.038  0.555  0.831 -101.665    -27.08  -63.71  128.72   51.13  -97.69   78.04 -179.90 -167.63 -142.18  -56.27  -34.36  -35.69

DOCKED: MODEL       63
DOCKED: USER    Run = 63
DOCKED: USER    DPF = D:/Protein_go_brrr/autodock/final/1A3N/heme_Co/dock.dpf
DOCKED: USER  
DOCKED: USER    Estimated Free Energy of Binding    =   -7.31 kcal/mol  [=(1)+(2)+(3)-(4)]
DOCKED: USER    Estimated Inhibition Constant, Ki   =    4.37 uM (micromolar)  [Temperature = 298.15 K]
DOCKED: USER    
DOCKED: USER    (1) Final Intermolecular Energy     =  -10.89 kcal/mol
DOCKED: USER        vdW + Hbond + desolv Energy     =   -8.44 kcal/mol
DOCKED: USER        Electrostatic Energy            =   -2.45 kcal/mol
DOCKED: USER    (2) Final Total Internal Energy     =   -1.01 kcal/mol
DOCKED: USER    (3) Torsional Free Energy           =   +3.58 kcal/mol
DOCKED: USER    (4) Unbound System's Energy  [=(2)] =   -1.01 kcal/mol
DOCKED: USER    
DOCKED: USER    
DOCKED: USER    NEWDPF move heme_Co_opt.pdbqt
DOCKED: USER    NEWDPF about 8.781000 34.984000 -0.736000
DOCKED: USER    NEWDPF tran0 16.532054 8.450086 14.872259
DOCKED: USER    NEWDPF quaternion0 -0.029169 0.430278 0.644284 -0.631592
DOCKED: USER    NEWDPF axisangle0 -0.037623 0.554982 0.831011 -101.664614
DOCKED: USER    NEWDPF quat0 -0.037623 0.554982 0.831011 -101.664614
DOCKED: USER    NEWDPF dihe0 -27.08 -63.71 128.72 51.13 -97.69 78.04 -179.90 -167.63 -142.18 -56.27 -34.36 -35.69 
DOCKED: USER  keepresnum = 1 
DOCKED: USER  
DOCKED: REMARK  12 active torsions:
DOCKED: REMARK  status: ('A' for Active; 'I' for Inactive)
DOCKED: REMARK    1  A    between atoms: C_6  and  C_10 
DOCKED: REMARK    2  A    between atoms: C_10  and  C_11 
DOCKED: REMARK    3  A    between atoms: C_11  and  C_12 
DOCKED: REMARK    4  A    between atoms: C_12  and  O_14 
DOCKED: REMARK    5  A    between atoms: C_17  and  C_20 
DOCKED: REMARK    6  A    between atoms: C_24  and  C_27 
DOCKED: REMARK    7  A    between atoms: C_31  and  C_34 
DOCKED: REMARK    8  A    between atoms: C_34  and  C_35 
DOCKED: REMARK    9  A    between atoms: C_35  and  C_36 
DOCKED: REMARK   10  A    between atoms: C_36  and  O_38 
DOCKED: REMARK   11  A    between atoms: FE_43  and  C_44 
DOCKED: REMARK   12  A    between atoms: C_44  and  O_45 
DOCKED: USER                              x       y       z     vdW  Elec       q    Type
DOCKED: USER                           _______ _______ _______ _____ _____    ______ ____
DOCKED: ROOT
DOCKED: ATOM      1  C   UNL d   1      16.071   6.505  15.721 -0.25 +0.05    +0.064 A 
DOCKED: ATOM      2  C   UNL d   1      19.940   9.260  15.958 -0.16 +0.02    +0.064 C 
DOCKED: ATOM      3  C   UNL d   1      17.969  12.356  12.900 -0.12 +0.01    +0.064 A 
DOCKED: ATOM      4  C   UNL d   1      13.856   9.759  12.941 -0.06 +0.02    +0.064 A 
DOCKED: ATOM      5  C   UNL d   1      17.288   7.012  15.982 -0.22 +0.04    +0.066 A 
DOCKED: ATOM      6  C   UNL d   1      18.162   6.415  16.912 -0.28 -0.00    -0.021 A 
DOCKED: ATOM      7  C   UNL d   1      19.273   7.231  16.993 -0.25 -0.00    -0.025 A 
DOCKED: ATOM      8  C   UNL d   1      19.037   8.281  16.099 -0.15 +0.03    +0.066 A 
DOCKED: ATOM      9  C   UNL d   1      20.518   7.043  17.875 -0.32 +0.00    +0.051 C 
DOCKED: ATOM     10  C   UNL d   1      19.796  10.365  15.045 -0.08 +0.02    +0.066 A 
DOCKED: ATOM     11  C   UNL d   1      20.767  11.347  14.748 -0.13 -0.01    -0.021 A 
DOCKED: ATOM     12  C   UNL d   1      20.167  12.235  13.851 -0.15 +0.00    +0.000 A 
DOCKED: ATOM     13  C   UNL d   1      18.883  11.724  13.657 -0.09 +0.02    +0.070 A 
DOCKED: ATOM     14  C   UNL d   1      22.196  11.361  15.226 -0.23 +0.03    +0.052 C 
DOCKED: ATOM     15  C   UNL d   1      16.589  12.000  12.635 -0.11 +0.01    +0.066 A 
DOCKED: ATOM     16  C   UNL d   1      15.655  12.774  11.961 -0.15 -0.00    -0.021 A 
DOCKED: ATOM     17  C   UNL d   1      14.466  12.030  11.972 -0.12 +0.00    +0.000 A 
DOCKED: ATOM     18  C   UNL d   1      14.775  10.850  12.640 -0.07 +0.02    +0.070 A 
DOCKED: ATOM     19  C   UNL d   1      15.915  14.136  11.357 -0.19 +0.00    +0.052 C 
DOCKED: ATOM     20  C   UNL d   1      14.111   8.641  13.663 -0.09 +0.04    +0.066 A 
DOCKED: ATOM     21  C   UNL d   1      13.135   7.680  13.915 -0.15 -0.01    -0.025 A 
DOCKED: ATOM     22  C   UNL d   1      13.753   6.716  14.690 -0.25 -0.01    -0.021 A 
DOCKED: ATOM     23  C   UNL d   1      15.083   7.146  14.884 -0.17 +0.06    +0.066 A 
DOCKED: ATOM     24  C   UNL d   1      11.679   7.689  13.457 -0.15 +0.02    +0.051 C 
DOCKED: ATOM     25  N   UNL d   1      17.817   8.168  15.455 -0.10 -0.16    -0.248 N 
DOCKED: ATOM     26  N   UNL d   1      18.679  10.563  14.336 -0.03 -0.09    -0.248 N 
DOCKED: ATOM     27  N   UNL d   1      16.039  10.880  13.047 -0.03 -0.07    -0.248 N 
DOCKED: ATOM     28  N   UNL d   1      15.303   8.312  14.266 -0.06 -0.23    -0.248 N 
DOCKED: ATOM     29 FE   UNL d   1      16.873   9.602  14.179 -0.03 +0.00    +0.000 Fe
DOCKED: ENDROOT
DOCKED: BRANCH   6  30
DOCKED: ATOM     30  C   UNL d   1      17.894   5.162  17.738 -0.48 -0.03    +0.052 C 
DOCKED: BRANCH  30  31
DOCKED: ATOM     31  C   UNL d   1      17.394   4.026  16.845 -0.35 -0.05    +0.115 C 
DOCKED: BRANCH  31  32
DOCKED: ATOM     32  C   UNL d   1      18.054   4.031  15.482 -0.19 +0.04    +0.139 C 
DOCKED: ATOM     33  O   UNL d   1      19.272   4.089  15.404 +0.02 -0.09    -0.650 OA
DOCKED: BRANCH  32  34
DOCKED: ATOM     34  O   UNL d   1      17.338   3.923  14.339 -0.43 -1.02    -0.776 OA
DOCKED: ATOM     35  H   UNL d   1      16.510   3.430  14.260 +0.04 +0.15    +0.167 HD
DOCKED: ENDBRANCH  32  34
DOCKED: ENDBRANCH  31  32
DOCKED: ENDBRANCH  30  31
DOCKED: ENDBRANCH   6  30
DOCKED: BRANCH  29  36
DOCKED: ATOM     36  C   UNL d   1      16.216  10.556  15.926 -0.18 +0.03    +0.190 C 
DOCKED: BRANCH  36  37
DOCKED: ATOM     37  O   UNL d   1      15.271  10.471  16.954 -0.17 -0.00    -0.399 OA
DOCKED: ATOM     38  H   UNL d   1      15.423  11.286  17.510 -0.44 -0.07    +0.209 HD
DOCKED: ENDBRANCH  36  37
DOCKED: ENDBRANCH  29  36
DOCKED: BRANCH  22  39
DOCKED: ATOM     39  C   UNL d   1      13.078   5.484  15.264 -0.36 +0.03    +0.052 C 
DOCKED: BRANCH  39  40
DOCKED: ATOM     40  C   UNL d   1      12.637   4.533  14.140 -0.22 +0.09    +0.115 C 
DOCKED: BRANCH  40  41
DOCKED: ATOM     41  C   UNL d   1      13.295   3.170  14.180 -0.22 +0.13    +0.139 C 
DOCKED: ATOM     42  O   UNL d   1      14.420   3.062  14.648 +0.02 -0.38    -0.650 OA
DOCKED: BRANCH  41  43
DOCKED: ATOM     43  O   UNL d   1      12.641   2.053  13.792 -0.27 -1.22    -0.776 OA
DOCKED: ATOM     44  H   UNL d   1      13.046   1.383  13.226 +0.04 +0.15    +0.167 HD
DOCKED: ENDBRANCH  41  43
DOCKED: ENDBRANCH  40  41
DOCKED: ENDBRANCH  39  40
DOCKED: ENDBRANCH  22  39
DOCKED: BRANCH  12  45
DOCKED: ATOM     45  C   UNL d   1      20.662  13.489  13.143 -0.29 +0.00    +0.004 C 
DOCKED: ATOM     46  C   UNL d   1      21.824  13.745  12.548 -0.40 +0.00    +0.012 C 
DOCKED: ENDBRANCH  12  45
DOCKED: BRANCH  17  47
DOCKED: ATOM     47  C   UNL d   1      13.112  12.387  11.453 -0.17 +0.00    +0.004 C 
DOCKED: ATOM     48  C   UNL d   1      12.024  12.464  12.223 -0.20 +0.00    +0.012 C 
DOCKED: ENDBRANCH  17  47
DOCKED: TORSDOF 12
DOCKED: TER
DOCKED: ENDMDL
________________________________________________________________________________


	BEGINNING GENETIC ALGORITHM DOCKING 64 of 100
Run: 64 Seed: 1661331122 1210167313 [ Run 64 of 100 GA/GALS ]
Beginning LAMARCKIAN GENETIC ALGORITHM (LGA), with a maximum of 25000000 energy evaluations.

Final-Value: -12.363


	FINAL GENETIC ALGORITHM DOCKED STATE
	_______________________________________________


Detailed state:  trans 6.186 -12.768 19.655 quatxyzw 0.554114 0.326470 0.595460 0.481459 center 8.781 34.984 -0.736 ntor 12 159.8421 100.3205 -33.1923 102.6607 -41.1573 -24.8714 -172.4717 -148.4260 -61.1959 -1.9761 -176.1718 133.3167
State:	  6.186 -12.768  19.655   0.632  0.372  0.679 122.439    159.84  100.32  -33.19  102.66  -41.16  -24.87 -172.47 -148.43  -61.20   -1.98 -176.17  133.32

DOCKED: MODEL       64
DOCKED: USER    Run = 64
DOCKED: USER    DPF = D:/Protein_go_brrr/autodock/final/1A3N/heme_Co/dock.dpf
DOCKED: USER  
DOCKED: USER    Estimated Free Energy of Binding    =   -6.51 kcal/mol  [=(1)+(2)+(3)-(4)]
DOCKED: USER    Estimated Inhibition Constant, Ki   =   16.83 uM (micromolar)  [Temperature = 298.15 K]
DOCKED: USER    
DOCKED: USER    (1) Final Intermolecular Energy     =  -10.09 kcal/mol
DOCKED: USER        vdW + Hbond + desolv Energy     =   -7.35 kcal/mol
DOCKED: USER        Electrostatic Energy            =   -2.74 kcal/mol
DOCKED: USER    (2) Final Total Internal Energy     =   -2.27 kcal/mol
DOCKED: USER    (3) Torsional Free Energy           =   +3.58 kcal/mol
DOCKED: USER    (4) Unbound System's Energy  [=(2)] =   -2.27 kcal/mol
DOCKED: USER    
DOCKED: USER    
DOCKED: USER    NEWDPF move heme_Co_opt.pdbqt
DOCKED: USER    NEWDPF about 8.781000 34.984000 -0.736000
DOCKED: USER    NEWDPF tran0 6.186079 -12.767502 19.654929
DOCKED: USER    NEWDPF quaternion0 0.554114 0.326470 0.595460 0.481459
DOCKED: USER    NEWDPF axisangle0 0.632212 0.372483 0.679385 122.438526
DOCKED: USER    NEWDPF quat0 0.632212 0.372483 0.679385 122.438526
DOCKED: USER    NEWDPF dihe0 159.84 100.32 -33.19 102.66 -41.16 -24.87 -172.47 -148.43 -61.20 -1.98 -176.17 133.32 
DOCKED: USER  keepresnum = 1 
DOCKED: USER  
DOCKED: REMARK  12 active torsions:
DOCKED: REMARK  status: ('A' for Active; 'I' for Inactive)
DOCKED: REMARK    1  A    between atoms: C_6  and  C_10 
DOCKED: REMARK    2  A    between atoms: C_10  and  C_11 
DOCKED: REMARK    3  A    between atoms: C_11  and  C_12 
DOCKED: REMARK    4  A    between atoms: C_12  and  O_14 
DOCKED: REMARK    5  A    between atoms: C_17  and  C_20 
DOCKED: REMARK    6  A    between atoms: C_24  and  C_27 
DOCKED: REMARK    7  A    between atoms: C_31  and  C_34 
DOCKED: REMARK    8  A    between atoms: C_34  and  C_35 
DOCKED: REMARK    9  A    between atoms: C_35  and  C_36 
DOCKED: REMARK   10  A    between atoms: C_36  and  O_38 
DOCKED: REMARK   11  A    between atoms: FE_43  and  C_44 
DOCKED: REMARK   12  A    between atoms: C_44  and  O_45 
DOCKED: USER                              x       y       z     vdW  Elec       q    Type
DOCKED: USER                           _______ _______ _______ _____ _____    ______ ____
DOCKED: ROOT
DOCKED: ATOM      1  C   UNL d   1       6.209 -13.303  17.551 -0.03 +0.02    +0.064 A 
DOCKED: ATOM      2  C   UNL d   1       5.110  -9.265  19.808 -0.20 +0.02    +0.064 C 
DOCKED: ATOM      3  C   UNL d   1       5.645 -11.435  24.030 -0.15 +0.01    +0.064 A 
DOCKED: ATOM      4  C   UNL d   1       7.146 -15.464  21.755 -0.16 +0.03    +0.064 A 
DOCKED: ATOM      5  C   UNL d   1       5.834 -12.050  17.857 -0.07 +0.02    +0.066 A 
DOCKED: ATOM      6  C   UNL d   1       5.644 -11.065  16.869 -0.18 -0.01    -0.021 A 
DOCKED: ATOM      7  C   UNL d   1       5.347  -9.889  17.530 -0.22 -0.01    -0.025 A 
DOCKED: ATOM      8  C   UNL d   1       5.353 -10.211  18.892 -0.17 +0.02    +0.066 A 
DOCKED: ATOM      9  C   UNL d   1       5.068  -8.508  16.919 -0.30 +0.01    +0.051 C 
DOCKED: ATOM     10  C   UNL d   1       5.068  -9.508  21.228 -0.15 +0.03    +0.066 A 
DOCKED: ATOM     11  C   UNL d   1       4.681  -8.591  22.230 -0.22 -0.01    -0.021 A 
DOCKED: ATOM     12  C   UNL d   1       4.843  -9.251  23.451 -0.22 +0.00    +0.000 A 
DOCKED: ATOM     13  C   UNL d   1       5.303 -10.522  23.104 -0.16 +0.02    +0.070 A 
DOCKED: ATOM     14  C   UNL d   1       4.107  -7.215  22.007 -0.25 +0.01    +0.052 C 
DOCKED: ATOM     15  C   UNL d   1       6.184 -12.769  23.852 -0.16 +0.01    +0.066 A 
DOCKED: ATOM     16  C   UNL d   1       6.653 -13.608  24.853 -0.20 -0.00    -0.021 A 
DOCKED: ATOM     17  C   UNL d   1       7.089 -14.770  24.201 -0.22 +0.00    +0.000 A 
DOCKED: ATOM     18  C   UNL d   1       6.835 -14.555  22.851 -0.20 +0.02    +0.070 A 
DOCKED: ATOM     19  C   UNL d   1       6.670 -13.286  26.330 -0.29 +0.01    +0.052 C 
DOCKED: ATOM     20  C   UNL d   1       6.987 -15.241  20.428 -0.18 +0.03    +0.066 A 
DOCKED: ATOM     21  C   UNL d   1       7.357 -16.180  19.467 -0.15 -0.02    -0.025 A 
DOCKED: ATOM     22  C   UNL d   1       7.071 -15.596  18.247 -0.10 -0.01    -0.021 A 
DOCKED: ATOM     23  C   UNL d   1       6.549 -14.315  18.525 -0.07 +0.03    +0.066 A 
DOCKED: ATOM     24  C   UNL d   1       7.971 -17.558  19.699 -0.14 +0.04    +0.051 C 
DOCKED: ATOM     25  N   UNL d   1       5.645 -11.545  19.123 +0.00 -0.09    -0.248 N 
DOCKED: ATOM     26  N   UNL d   1       5.385 -10.694  21.758 -0.11 -0.11    -0.248 N 
DOCKED: ATOM     27  N   UNL d   1       6.324 -13.341  22.677 -0.11 -0.07    -0.248 N 
DOCKED: ATOM     28  N   UNL d   1       6.499 -14.095  19.845 -0.07 -0.13    -0.248 N 
DOCKED: ATOM     29 FE   UNL d   1       6.005 -12.499  21.003 -0.04 +0.00    +0.000 Fe
DOCKED: ENDROOT
DOCKED: BRANCH   6  30
DOCKED: ATOM     30  C   UNL d   1       5.824 -11.238  15.364 -0.27 +0.02    +0.052 C 
DOCKED: BRANCH  30  31
DOCKED: ATOM     31  C   UNL d   1       7.248 -10.872  14.948 -0.15 +0.06    +0.115 C 
DOCKED: BRANCH  31  32
DOCKED: ATOM     32  C   UNL d   1       8.000 -12.050  14.367 -0.06 +0.09    +0.139 C 
DOCKED: ATOM     33  O   UNL d   1       7.549 -12.628  13.389 -0.41 -0.58    -0.650 OA
DOCKED: BRANCH  32  34
DOCKED: ATOM     34  O   UNL d   1       9.190 -12.458  14.866 +0.06 -0.49    -0.776 OA
DOCKED: ATOM     35  H   UNL d   1       9.538 -13.356  14.776 +0.04 +0.13    +0.167 HD
DOCKED: ENDBRANCH  32  34
DOCKED: ENDBRANCH  31  32
DOCKED: ENDBRANCH  30  31
DOCKED: ENDBRANCH   6  30
DOCKED: BRANCH  29  36
DOCKED: ATOM     36  C   UNL d   1       7.966 -11.768  20.871 -0.11 +0.05    +0.190 C 
DOCKED: BRANCH  36  37
DOCKED: ATOM     37  O   UNL d   1       9.194 -11.746  21.540 -0.14 -0.07    -0.399 OA
DOCKED: ATOM     38  H   UNL d   1       8.993 -12.086  22.457 -0.09 +0.00    +0.209 HD
DOCKED: ENDBRANCH  36  37
DOCKED: ENDBRANCH  29  36
DOCKED: BRANCH  22  39
DOCKED: ATOM     39  C   UNL d   1       7.349 -16.214  16.889 -0.04 +0.03    +0.052 C 
DOCKED: BRANCH  39  40
DOCKED: ATOM     40  C   UNL d   1       8.196 -15.267  16.024 -0.03 +0.09    +0.115 C 
DOCKED: BRANCH  40  41
DOCKED: ATOM     41  C   UNL d   1       8.675 -15.871  14.721 -0.00 +0.18    +0.139 C 
DOCKED: ATOM     42  O   UNL d   1       8.538 -17.071  14.532 -0.17 -0.90    -0.650 OA
DOCKED: BRANCH  41  43
DOCKED: ATOM     43  O   UNL d   1       9.172 -15.106  13.723 -0.42 -1.47    -0.776 OA
DOCKED: ATOM     44  H   UNL d   1       8.920 -14.181  13.604 +0.04 +0.23    +0.167 HD
DOCKED: ENDBRANCH  41  43
DOCKED: ENDBRANCH  40  41
DOCKED: ENDBRANCH  39  40
DOCKED: ENDBRANCH  22  39
DOCKED: BRANCH  12  45
DOCKED: ATOM     45  C   UNL d   1       4.600  -8.836  24.896 -0.25 +0.00    +0.004 C 
DOCKED: ATOM     46  C   UNL d   1       3.539  -9.010  25.679 -0.28 +0.00    +0.012 C 
DOCKED: ENDBRANCH  12  45
DOCKED: BRANCH  17  47
DOCKED: ATOM     47  C   UNL d   1       7.746 -15.989  24.762 -0.28 +0.00    +0.004 C 
DOCKED: ATOM     48  C   UNL d   1       8.937 -15.973  25.365 -0.30 +0.01    +0.012 C 
DOCKED: ENDBRANCH  17  47
DOCKED: TORSDOF 12
DOCKED: TER
DOCKED: ENDMDL
________________________________________________________________________________


	BEGINNING GENETIC ALGORITHM DOCKING 65 of 100
Run: 65 Seed: 1963070544 562061688 [ Run 65 of 100 GA/GALS ]
Beginning LAMARCKIAN GENETIC ALGORITHM (LGA), with a maximum of 25000000 energy evaluations.

Final-Value: -13.952


	FINAL GENETIC ALGORITHM DOCKED STATE
	_______________________________________________


Detailed state:  trans 8.345 14.685 33.591 quatxyzw 0.732794 -0.370583 -0.562102 -0.098609 center 8.781 34.984 -0.736 ntor 12 13.6881 91.8661 -150.4459 109.4226 98.0241 85.6488 109.1401 115.6957 90.6072 151.0379 -134.2238 172.8696
State:	  8.345  14.685  33.591   0.736 -0.372 -0.565 -168.682     13.69   91.87 -150.45  109.42   98.02   85.65  109.14  115.70   90.61  151.04 -134.22  172.87

DOCKED: MODEL       65
DOCKED: USER    Run = 65
DOCKED: USER    DPF = D:/Protein_go_brrr/autodock/final/1A3N/heme_Co/dock.dpf
DOCKED: USER  
DOCKED: USER    Estimated Free Energy of Binding    =   -8.05 kcal/mol  [=(1)+(2)+(3)-(4)]
DOCKED: USER    Estimated Inhibition Constant, Ki   =    1.25 uM (micromolar)  [Temperature = 298.15 K]
DOCKED: USER    
DOCKED: USER    (1) Final Intermolecular Energy     =  -11.63 kcal/mol
DOCKED: USER        vdW + Hbond + desolv Energy     =   -9.19 kcal/mol
DOCKED: USER        Electrostatic Energy            =   -2.44 kcal/mol
DOCKED: USER    (2) Final Total Internal Energy     =   -2.32 kcal/mol
DOCKED: USER    (3) Torsional Free Energy           =   +3.58 kcal/mol
DOCKED: USER    (4) Unbound System's Energy  [=(2)] =   -2.32 kcal/mol
DOCKED: USER    
DOCKED: USER    
DOCKED: USER    NEWDPF move heme_Co_opt.pdbqt
DOCKED: USER    NEWDPF about 8.781000 34.984000 -0.736000
DOCKED: USER    NEWDPF tran0 8.344727 14.685400 33.591093
DOCKED: USER    NEWDPF quaternion0 0.732794 -0.370583 -0.562102 -0.098609
DOCKED: USER    NEWDPF axisangle0 0.736383 -0.372398 -0.564855 -168.681808
DOCKED: USER    NEWDPF quat0 0.736383 -0.372398 -0.564855 -168.681808
DOCKED: USER    NEWDPF dihe0 13.69 91.87 -150.45 109.42 98.02 85.65 109.14 115.70 90.61 151.04 -134.22 172.87 
DOCKED: USER  keepresnum = 1 
DOCKED: USER  
DOCKED: REMARK  12 active torsions:
DOCKED: REMARK  status: ('A' for Active; 'I' for Inactive)
DOCKED: REMARK    1  A    between atoms: C_6  and  C_10 
DOCKED: REMARK    2  A    between atoms: C_10  and  C_11 
DOCKED: REMARK    3  A    between atoms: C_11  and  C_12 
DOCKED: REMARK    4  A    between atoms: C_12  and  O_14 
DOCKED: REMARK    5  A    between atoms: C_17  and  C_20 
DOCKED: REMARK    6  A    between atoms: C_24  and  C_27 
DOCKED: REMARK    7  A    between atoms: C_31  and  C_34 
DOCKED: REMARK    8  A    between atoms: C_34  and  C_35 
DOCKED: REMARK    9  A    between atoms: C_35  and  C_36 
DOCKED: REMARK   10  A    between atoms: C_36  and  O_38 
DOCKED: REMARK   11  A    between atoms: FE_43  and  C_44 
DOCKED: REMARK   12  A    between atoms: C_44  and  O_45 
DOCKED: USER                              x       y       z     vdW  Elec       q    Type
DOCKED: USER                           _______ _______ _______ _____ _____    ______ ____
DOCKED: ROOT
DOCKED: ATOM      1  C   UNL d   1       8.711  15.367  35.620 -0.09 +0.05    +0.064 A 
DOCKED: ATOM      2  C   UNL d   1       6.628  17.438  31.880 -0.25 +0.03    +0.064 C 
DOCKED: ATOM      3  C   UNL d   1       7.779  13.707  29.126 -0.30 +0.01    +0.064 A 
DOCKED: ATOM      4  C   UNL d   1       9.571  11.404  33.018 -0.17 +0.04    +0.064 A 
DOCKED: ATOM      5  C   UNL d   1       8.089  16.223  34.792 -0.11 +0.06    +0.066 A 
DOCKED: ATOM      6  C   UNL d   1       7.527  17.431  35.250 -0.10 -0.02    -0.021 A 
DOCKED: ATOM      7  C   UNL d   1       6.905  18.017  34.165 -0.12 -0.02    -0.025 A 
DOCKED: ATOM      8  C   UNL d   1       7.127  17.150  33.089 -0.18 +0.05    +0.066 A 
DOCKED: ATOM      9  C   UNL d   1       6.126  19.340  34.127 -0.12 +0.02    +0.051 C 
DOCKED: ATOM     10  C   UNL d   1       6.827  16.620  30.710 -0.28 +0.02    +0.066 A 
DOCKED: ATOM     11  C   UNL d   1       6.451  16.936  29.386 -0.36 -0.00    -0.021 A 
DOCKED: ATOM     12  C   UNL d   1       6.802  15.833  28.603 -0.42 +0.00    +0.000 A 
DOCKED: ATOM     13  C   UNL d   1       7.376  14.934  29.502 -0.34 +0.02    +0.070 A 
DOCKED: ATOM     14  C   UNL d   1       5.884  18.249  28.909 -0.34 +0.00    +0.052 C 
DOCKED: ATOM     15  C   UNL d   1       8.342  12.638  29.928 -0.24 +0.02    +0.066 A 
DOCKED: ATOM     16  C   UNL d   1       8.602  11.342  29.505 -0.28 -0.00    -0.021 A 
DOCKED: ATOM     17  C   UNL d   1       9.117  10.673  30.625 -0.37 +0.00    +0.000 A 
DOCKED: ATOM     18  C   UNL d   1       9.146  11.622  31.641 -0.16 +0.03    +0.070 A 
DOCKED: ATOM     19  C   UNL d   1       8.360  10.809  28.110 -0.40 +0.01    +0.052 C 
DOCKED: ATOM     20  C   UNL d   1       9.527  12.286  34.045 -0.19 +0.05    +0.066 A 
DOCKED: ATOM     21  C   UNL d   1       9.931  11.948  35.334 -0.18 -0.02    -0.025 A 
DOCKED: ATOM     22  C   UNL d   1       9.721  13.080  36.100 -0.11 -0.02    -0.021 A 
DOCKED: ATOM     23  C   UNL d   1       9.184  14.057  35.235 -0.11 +0.05    +0.066 A 
DOCKED: ATOM     24  C   UNL d   1      10.471  10.605  35.818 -0.21 +0.06    +0.051 C 
DOCKED: ATOM     25  N   UNL d   1       7.863  16.034  33.448 -0.12 -0.19    -0.248 N 
DOCKED: ATOM     26  N   UNL d   1       7.442  15.434  30.765 -0.18 -0.08    -0.248 N 
DOCKED: ATOM     27  N   UNL d   1       8.648  12.772  31.199 -0.19 -0.09    -0.248 N 
DOCKED: ATOM     28  N   UNL d   1       9.063  13.580  33.991 -0.10 -0.17    -0.248 N 
DOCKED: ATOM     29 FE   UNL d   1       8.281  14.305  32.259 -0.05 +0.00    +0.000 Fe
DOCKED: ENDROOT
DOCKED: BRANCH   6  30
DOCKED: ATOM     30  C   UNL d   1       7.525  17.947  36.685 -0.07 +0.04    +0.052 C 
DOCKED: BRANCH  30  31
DOCKED: ATOM     31  C   UNL d   1       7.031  16.864  37.644 -0.06 +0.11    +0.115 C 
DOCKED: BRANCH  31  32
DOCKED: ATOM     32  C   UNL d   1       5.535  16.928  37.866 +0.13 +0.18    +0.139 C 
DOCKED: ATOM     33  O   UNL d   1       4.936  17.965  37.624 -0.03 -0.58    -0.650 OA
DOCKED: BRANCH  32  34
DOCKED: ATOM     34  O   UNL d   1       4.825  15.853  38.280 -0.31 -1.26    -0.776 OA
DOCKED: ATOM     35  H   UNL d   1       5.221  15.026  38.588 +0.01 +0.24    +0.167 HD
DOCKED: ENDBRANCH  32  34
DOCKED: ENDBRANCH  31  32
DOCKED: ENDBRANCH  30  31
DOCKED: ENDBRANCH   6  30
DOCKED: BRANCH  29  36
DOCKED: ATOM     36  C   UNL d   1       6.378  13.611  32.801 -0.13 +0.15    +0.190 C 
DOCKED: BRANCH  36  37
DOCKED: ATOM     37  O   UNL d   1       5.633  13.133  33.884 -0.65 -0.58    -0.399 OA
DOCKED: ATOM     38  H   UNL d   1       6.312  12.804  34.537 +0.08 +0.27    +0.209 HD
DOCKED: ENDBRANCH  36  37
DOCKED: ENDBRANCH  29  36
DOCKED: BRANCH  22  39
DOCKED: ATOM     39  C   UNL d   1       9.964  13.189  37.594 -0.06 +0.04    +0.052 C 
DOCKED: BRANCH  39  40
DOCKED: ATOM     40  C   UNL d   1       8.736  12.703  38.380 -0.03 +0.06    +0.115 C 
DOCKED: BRANCH  40  41
DOCKED: ATOM     41  C   UNL d   1       7.409  13.009  37.718 -0.06 +0.11    +0.139 C 
DOCKED: ATOM     42  O   UNL d   1       6.702  13.896  38.175 -0.01 -0.64    -0.650 OA
DOCKED: BRANCH  41  43
DOCKED: ATOM     43  O   UNL d   1       7.022  12.387  36.583 +0.07 -0.70    -0.776 OA
DOCKED: ATOM     44  H   UNL d   1       6.519  12.835  35.890 +0.05 +0.23    +0.167 HD
DOCKED: ENDBRANCH  41  43
DOCKED: ENDBRANCH  40  41
DOCKED: ENDBRANCH  39  40
DOCKED: ENDBRANCH  22  39
DOCKED: BRANCH  12  45
DOCKED: ATOM     45  C   UNL d   1       6.679  15.534  27.115 -0.53 +0.00    +0.004 C 
DOCKED: ATOM     46  C   UNL d   1       7.586  15.587  26.143 -0.51 +0.00    +0.012 C 
DOCKED: ENDBRANCH  12  45
DOCKED: BRANCH  17  47
DOCKED: ATOM     47  C   UNL d   1       9.513   9.242  30.782 -0.49 +0.00    +0.004 C 
DOCKED: ATOM     48  C   UNL d   1      10.650   8.734  30.298 -0.55 +0.00    +0.012 C 
DOCKED: ENDBRANCH  17  47
DOCKED: TORSDOF 12
DOCKED: TER
DOCKED: ENDMDL
________________________________________________________________________________


	BEGINNING GENETIC ALGORITHM DOCKING 66 of 100
Run: 66 Seed: 1042497700 1367119149 [ Run 66 of 100 GA/GALS ]
Beginning LAMARCKIAN GENETIC ALGORITHM (LGA), with a maximum of 25000000 energy evaluations.

Final-Value: -11.044


	FINAL GENETIC ALGORITHM DOCKED STATE
	_______________________________________________


Detailed state:  trans 14.996 3.375 37.598 quatxyzw -0.003349 0.193404 0.606833 0.770933 center 8.781 34.984 -0.736 ntor 12 -28.5993 108.6339 -178.0733 115.6619 164.3786 149.8289 99.6730 80.7015 77.8117 40.0173 176.8128 125.9880
State:	 14.996   3.375  37.598  -0.005  0.304  0.953 79.125    -28.60  108.63 -178.07  115.66  164.38  149.83   99.67   80.70   77.81   40.02  176.81  125.99

DOCKED: MODEL       66
DOCKED: USER    Run = 66
DOCKED: USER    DPF = D:/Protein_go_brrr/autodock/final/1A3N/heme_Co/dock.dpf
DOCKED: USER  
DOCKED: USER    Estimated Free Energy of Binding    =   -6.70 kcal/mol  [=(1)+(2)+(3)-(4)]
DOCKED: USER    Estimated Inhibition Constant, Ki   =   12.26 uM (micromolar)  [Temperature = 298.15 K]
DOCKED: USER    
DOCKED: USER    (1) Final Intermolecular Energy     =  -10.28 kcal/mol
DOCKED: USER        vdW + Hbond + desolv Energy     =   -8.16 kcal/mol
DOCKED: USER        Electrostatic Energy            =   -2.12 kcal/mol
DOCKED: USER    (2) Final Total Internal Energy     =   -0.76 kcal/mol
DOCKED: USER    (3) Torsional Free Energy           =   +3.58 kcal/mol
DOCKED: USER    (4) Unbound System's Energy  [=(2)] =   -0.76 kcal/mol
DOCKED: USER    
DOCKED: USER    
DOCKED: USER    NEWDPF move heme_Co_opt.pdbqt
DOCKED: USER    NEWDPF about 8.781000 34.984000 -0.736000
DOCKED: USER    NEWDPF tran0 14.995649 3.374628 37.597660
DOCKED: USER    NEWDPF quaternion0 -0.003349 0.193404 0.606833 0.770933
DOCKED: USER    NEWDPF axisangle0 -0.005258 0.303656 0.952767 79.124500
DOCKED: USER    NEWDPF quat0 -0.005258 0.303656 0.952767 79.124500
DOCKED: USER    NEWDPF dihe0 -28.60 108.63 -178.07 115.66 164.38 149.83 99.67 80.70 77.81 40.02 176.81 125.99 
DOCKED: USER  keepresnum = 1 
DOCKED: USER  
DOCKED: REMARK  12 active torsions:
DOCKED: REMARK  status: ('A' for Active; 'I' for Inactive)
DOCKED: REMARK    1  A    between atoms: C_6  and  C_10 
DOCKED: REMARK    2  A    between atoms: C_10  and  C_11 
DOCKED: REMARK    3  A    between atoms: C_11  and  C_12 
DOCKED: REMARK    4  A    between atoms: C_12  and  O_14 
DOCKED: REMARK    5  A    between atoms: C_17  and  C_20 
DOCKED: REMARK    6  A    between atoms: C_24  and  C_27 
DOCKED: REMARK    7  A    between atoms: C_31  and  C_34 
DOCKED: REMARK    8  A    between atoms: C_34  and  C_35 
DOCKED: REMARK    9  A    between atoms: C_35  and  C_36 
DOCKED: REMARK   10  A    between atoms: C_36  and  O_38 
DOCKED: REMARK   11  A    between atoms: FE_43  and  C_44 
DOCKED: REMARK   12  A    between atoms: C_44  and  O_45 
DOCKED: USER                              x       y       z     vdW  Elec       q    Type
DOCKED: USER                           _______ _______ _______ _____ _____    ______ ____
DOCKED: ROOT
DOCKED: ATOM      1  C   UNL d   1      15.354   5.124  36.362 -0.10 +0.03    +0.064 A 
DOCKED: ATOM      2  C   UNL d   1      11.977   4.101  39.550 -0.27 +0.01    +0.064 C 
DOCKED: ATOM      3  C   UNL d   1      13.729  -0.317  40.043 -0.17 +0.01    +0.064 A 
DOCKED: ATOM      4  C   UNL d   1      17.414   0.828  37.082 -0.20 +0.00    +0.064 A 
DOCKED: ATOM      5  C   UNL d   1      14.281   5.157  37.169 -0.10 +0.02    +0.066 A 
DOCKED: ATOM      6  C   UNL d   1      13.524   6.330  37.358 -0.15 -0.01    -0.021 A 
DOCKED: ATOM      7  C   UNL d   1      12.559   6.034  38.302 -0.21 -0.01    -0.025 A 
DOCKED: ATOM      8  C   UNL d   1      12.758   4.690  38.635 -0.22 +0.02    +0.066 A 
DOCKED: ATOM      9  C   UNL d   1      11.485   6.969  38.877 -0.01 +0.02    +0.051 C 
DOCKED: ATOM     10  C   UNL d   1      12.090   2.717  39.937 -0.23 +0.01    +0.066 A 
DOCKED: ATOM     11  C   UNL d   1      11.214   2.004  40.785 -0.25 -0.00    -0.021 A 
DOCKED: ATOM     12  C   UNL d   1      11.746   0.718  40.908 -0.19 +0.00    +0.000 A 
DOCKED: ATOM     13  C   UNL d   1      12.897   0.737  40.119 -0.18 +0.01    +0.070 A 
DOCKED: ATOM     14  C   UNL d   1       9.911   2.509  41.349 -0.15 +0.01    +0.052 C 
DOCKED: ATOM     15  C   UNL d   1      14.980  -0.451  39.323 -0.16 +0.00    +0.066 A 
DOCKED: ATOM     16  C   UNL d   1      15.865  -1.517  39.402 -0.20 +0.00    -0.021 A 
DOCKED: ATOM     17  C   UNL d   1      16.931  -1.190  38.552 -0.26 -0.00    +0.000 A 
DOCKED: ATOM     18  C   UNL d   1      16.602   0.046  38.006 -0.20 +0.00    +0.070 A 
DOCKED: ATOM     19  C   UNL d   1      15.673  -2.755  40.250 -0.19 -0.00    +0.052 C 
DOCKED: ATOM     20  C   UNL d   1      17.157   2.069  36.605 -0.16 +0.01    +0.066 A 
DOCKED: ATOM     21  C   UNL d   1      18.032   2.734  35.749 -0.29 -0.00    -0.025 A 
DOCKED: ATOM     22  C   UNL d   1      17.450   3.963  35.502 -0.26 -0.01    -0.021 A 
DOCKED: ATOM     23  C   UNL d   1      16.245   3.993  36.234 -0.12 +0.02    +0.066 A 
DOCKED: ATOM     24  C   UNL d   1      19.368   2.230  35.209 -0.09 +0.01    +0.051 C 
DOCKED: ATOM     25  N   UNL d   1      13.815   4.120  37.945 -0.08 -0.06    -0.248 N 
DOCKED: ATOM     26  N   UNL d   1      13.073   1.929  39.489 -0.12 -0.03    -0.248 N 
DOCKED: ATOM     27  N   UNL d   1      15.449   0.470  38.511 -0.11 -0.02    -0.248 N 
DOCKED: ATOM     28  N   UNL d   1      16.064   2.850  36.905 -0.05 -0.05    -0.248 N 
DOCKED: ATOM     29 FE   UNL d   1      14.682   2.187  38.242 -0.04 +0.00    +0.000 Fe
DOCKED: ENDROOT
DOCKED: BRANCH   6  30
DOCKED: ATOM     30  C   UNL d   1      13.778   7.690  36.717 -0.18 +0.04    +0.052 C 
DOCKED: BRANCH  30  31
DOCKED: ATOM     31  C   UNL d   1      14.521   8.610  37.685 -0.11 +0.10    +0.115 C 
DOCKED: BRANCH  31  32
DOCKED: ATOM     32  C   UNL d   1      13.614   9.654  38.300 -0.02 +0.16    +0.139 C 
DOCKED: ATOM     33  O   UNL d   1      12.651  10.062  37.667 -0.34 -1.17    -0.650 OA
DOCKED: BRANCH  32  34
DOCKED: ATOM     34  O   UNL d   1      13.805  10.122  39.556 -0.01 -0.49    -0.776 OA
DOCKED: ATOM     35  H   UNL d   1      14.162   9.594  40.284 +0.02 +0.07    +0.167 HD
DOCKED: ENDBRANCH  32  34
DOCKED: ENDBRANCH  31  32
DOCKED: ENDBRANCH  30  31
DOCKED: ENDBRANCH   6  30
DOCKED: BRANCH  29  36
DOCKED: ATOM     36  C   UNL d   1      15.766   3.041  39.820 -0.02 +0.02    +0.190 C 
DOCKED: BRANCH  36  37
DOCKED: ATOM     37  O   UNL d   1      16.030   4.255  40.462 +0.00 -0.05    -0.399 OA
DOCKED: ATOM     38  H   UNL d   1      15.555   4.942  39.916 +0.02 +0.03    +0.209 HD
DOCKED: ENDBRANCH  36  37
DOCKED: ENDBRANCH  29  36
DOCKED: BRANCH  22  39
DOCKED: ATOM     39  C   UNL d   1      18.057   5.070  34.659 -0.34 +0.02    +0.052 C 
DOCKED: BRANCH  39  40
DOCKED: ATOM     40  C   UNL d   1      17.970   6.419  35.391 -0.28 +0.04    +0.115 C 
DOCKED: BRANCH  40  41
DOCKED: ATOM     41  C   UNL d   1      17.749   7.610  34.482 -0.44 +0.08    +0.139 C 
DOCKED: ATOM     42  O   UNL d   1      18.327   8.661  34.722 -0.42 -0.33    -0.650 OA
DOCKED: BRANCH  41  43
DOCKED: ATOM     43  O   UNL d   1      16.999   7.519  33.362 +0.03 -0.75    -0.776 OA
DOCKED: ATOM     44  H   UNL d   1      16.945   8.233  32.713 -0.43 +0.13    +0.167 HD
DOCKED: ENDBRANCH  41  43
DOCKED: ENDBRANCH  40  41
DOCKED: ENDBRANCH  39  40
DOCKED: ENDBRANCH  22  39
DOCKED: BRANCH  12  45
DOCKED: ATOM     45  C   UNL d   1      11.293  -0.526  41.661 -0.11 +0.00    +0.004 C 
DOCKED: ATOM     46  C   UNL d   1      10.767  -1.664  41.216 -0.13 +0.00    +0.012 C 
DOCKED: ENDBRANCH  12  45
DOCKED: BRANCH  17  47
DOCKED: ATOM     47  C   UNL d   1      18.200  -1.931  38.286 -0.32 -0.00    +0.004 C 
DOCKED: ATOM     48  C   UNL d   1      18.779  -1.993  37.084 -0.33 +0.00    +0.012 C 
DOCKED: ENDBRANCH  17  47
DOCKED: TORSDOF 12
DOCKED: TER
DOCKED: ENDMDL
________________________________________________________________________________


	BEGINNING GENETIC ALGORITHM DOCKING 67 of 100
Run: 67 Seed: 835213638 1210468888 [ Run 67 of 100 GA/GALS ]
Beginning LAMARCKIAN GENETIC ALGORITHM (LGA), with a maximum of 25000000 energy evaluations.

Final-Value: -13.610


	FINAL GENETIC ALGORITHM DOCKED STATE
	_______________________________________________


Detailed state:  trans 8.316 14.657 33.523 quatxyzw -0.750683 0.442571 0.455507 0.181989 center 8.781 34.984 -0.736 ntor 12 112.3384 96.9694 -120.0105 4.5696 108.7361 85.5615 -157.8300 111.8376 -52.1851 142.9578 165.8581 -180.0000
State:	  8.316  14.657  33.523  -0.763  0.450  0.463 159.029    112.34   96.97 -120.01    4.57  108.74   85.56 -157.83  111.84  -52.19  142.96  165.86 -180.00

DOCKED: MODEL       67
DOCKED: USER    Run = 67
DOCKED: USER    DPF = D:/Protein_go_brrr/autodock/final/1A3N/heme_Co/dock.dpf
DOCKED: USER  
DOCKED: USER    Estimated Free Energy of Binding    =   -7.97 kcal/mol  [=(1)+(2)+(3)-(4)]
DOCKED: USER    Estimated Inhibition Constant, Ki   =    1.43 uM (micromolar)  [Temperature = 298.15 K]
DOCKED: USER    
DOCKED: USER    (1) Final Intermolecular Energy     =  -11.55 kcal/mol
DOCKED: USER        vdW + Hbond + desolv Energy     =   -9.17 kcal/mol
DOCKED: USER        Electrostatic Energy            =   -2.38 kcal/mol
DOCKED: USER    (2) Final Total Internal Energy     =   -2.06 kcal/mol
DOCKED: USER    (3) Torsional Free Energy           =   +3.58 kcal/mol
DOCKED: USER    (4) Unbound System's Energy  [=(2)] =   -2.06 kcal/mol
DOCKED: USER    
DOCKED: USER    
DOCKED: USER    NEWDPF move heme_Co_opt.pdbqt
DOCKED: USER    NEWDPF about 8.781000 34.984000 -0.736000
DOCKED: USER    NEWDPF tran0 8.316159 14.657156 33.523013
DOCKED: USER    NEWDPF quaternion0 -0.750683 0.442571 0.455507 0.181989
DOCKED: USER    NEWDPF axisangle0 -0.763432 0.450087 0.463243 159.028734
DOCKED: USER    NEWDPF quat0 -0.763432 0.450087 0.463243 159.028734
DOCKED: USER    NEWDPF dihe0 112.34 96.97 -120.01 4.57 108.74 85.56 -157.83 111.84 -52.19 142.96 165.86 -180.00 
DOCKED: USER  keepresnum = 1 
DOCKED: USER  
DOCKED: REMARK  12 active torsions:
DOCKED: REMARK  status: ('A' for Active; 'I' for Inactive)
DOCKED: REMARK    1  A    between atoms: C_6  and  C_10 
DOCKED: REMARK    2  A    between atoms: C_10  and  C_11 
DOCKED: REMARK    3  A    between atoms: C_11  and  C_12 
DOCKED: REMARK    4  A    between atoms: C_12  and  O_14 
DOCKED: REMARK    5  A    between atoms: C_17  and  C_20 
DOCKED: REMARK    6  A    between atoms: C_24  and  C_27 
DOCKED: REMARK    7  A    between atoms: C_31  and  C_34 
DOCKED: REMARK    8  A    between atoms: C_34  and  C_35 
DOCKED: REMARK    9  A    between atoms: C_35  and  C_36 
DOCKED: REMARK   10  A    between atoms: C_36  and  O_38 
DOCKED: REMARK   11  A    between atoms: FE_43  and  C_44 
DOCKED: REMARK   12  A    between atoms: C_44  and  O_45 
DOCKED: USER                              x       y       z     vdW  Elec       q    Type
DOCKED: USER                           _______ _______ _______ _____ _____    ______ ____
DOCKED: ROOT
DOCKED: ATOM      1  C   UNL d   1       8.412  15.883  35.313 -0.10 +0.06    +0.064 A 
DOCKED: ATOM      2  C   UNL d   1       6.825  16.765  30.918 -0.31 +0.02    +0.064 C 
DOCKED: ATOM      3  C   UNL d   1       8.341  12.471  29.469 -0.24 +0.01    +0.064 A 
DOCKED: ATOM      4  C   UNL d   1       9.621  11.396  34.037 -0.19 +0.05    +0.064 A 
DOCKED: ATOM      5  C   UNL d   1       7.900  16.453  34.210 -0.14 +0.06    +0.066 A 
DOCKED: ATOM      6  C   UNL d   1       7.278  17.717  34.242 -0.13 -0.02    -0.021 A 
DOCKED: ATOM      7  C   UNL d   1       6.799  17.958  32.969 -0.16 -0.01    -0.025 A 
DOCKED: ATOM      8  C   UNL d   1       7.163  16.839  32.212 -0.22 +0.03    +0.066 A 
DOCKED: ATOM      9  C   UNL d   1       6.026  19.188  32.470 -0.18 +0.02    +0.051 C 
DOCKED: ATOM     10  C   UNL d   1       7.179  15.667  30.053 -0.31 +0.02    +0.066 A 
DOCKED: ATOM     11  C   UNL d   1       6.977  15.593  28.658 -0.41 -0.00    -0.021 A 
DOCKED: ATOM     12  C   UNL d   1       7.432  14.332  28.261 -0.36 +0.00    +0.000 A 
DOCKED: ATOM     13  C   UNL d   1       7.888  13.737  29.438 -0.28 +0.01    +0.070 A 
DOCKED: ATOM     14  C   UNL d   1       6.471  16.700  27.770 -0.33 +0.01    +0.052 C 
DOCKED: ATOM     15  C   UNL d   1       8.799  11.686  30.598 -0.24 +0.02    +0.066 A 
DOCKED: ATOM     16  C   UNL d   1       9.118  10.336  30.587 -0.38 -0.01    -0.021 A 
DOCKED: ATOM     17  C   UNL d   1       9.486  10.020  31.903 -0.36 +0.00    +0.000 A 
DOCKED: ATOM     18  C   UNL d   1       9.378  11.212  32.612 -0.20 +0.04    +0.070 A 
DOCKED: ATOM     19  C   UNL d   1       9.063   9.432  29.375 -0.45 +0.01    +0.052 C 
DOCKED: ATOM     20  C   UNL d   1       9.439  12.523  34.766 -0.16 +0.05    +0.066 A 
DOCKED: ATOM     21  C   UNL d   1       9.673  12.567  36.138 -0.12 -0.02    -0.025 A 
DOCKED: ATOM     22  C   UNL d   1       9.361  13.857  36.529 -0.07 -0.02    -0.021 A 
DOCKED: ATOM     23  C   UNL d   1       8.937  14.538  35.368 -0.10 +0.05    +0.066 A 
DOCKED: ATOM     24  C   UNL d   1      10.152  11.432  37.039 -0.16 +0.05    +0.051 C 
DOCKED: ATOM     25  N   UNL d   1       7.851  15.894  32.953 -0.13 -0.17    -0.248 N 
DOCKED: ATOM     26  N   UNL d   1       7.786  14.566  30.511 -0.19 -0.08    -0.248 N 
DOCKED: ATOM     27  N   UNL d   1       8.937  12.175  31.810 -0.18 -0.10    -0.248 N 
DOCKED: ATOM     28  N   UNL d   1       8.981  13.733  34.299 -0.08 -0.18    -0.248 N 
DOCKED: ATOM     29 FE   UNL d   1       8.428  13.924  32.351 -0.05 +0.00    +0.000 Fe
DOCKED: ENDROOT
DOCKED: BRANCH   6  30
DOCKED: ATOM     30  C   UNL d   1       7.086  18.605  35.467 -0.10 +0.03    +0.052 C 
DOCKED: BRANCH  30  31
DOCKED: ATOM     31  C   UNL d   1       5.612  18.660  35.865 -0.09 +0.09    +0.115 C 
DOCKED: BRANCH  31  32
DOCKED: ATOM     32  C   UNL d   1       5.391  18.283  37.314 -0.07 +0.11    +0.139 C 
DOCKED: ATOM     33  O   UNL d   1       5.726  19.061  38.195 +0.00 -0.29    -0.650 OA
DOCKED: BRANCH  32  34
DOCKED: ATOM     34  O   UNL d   1       4.787  17.126  37.671 +0.02 -1.07    -0.776 OA
DOCKED: ATOM     35  H   UNL d   1       5.247  16.372  38.067 -0.00 +0.26    +0.167 HD
DOCKED: ENDBRANCH  32  34
DOCKED: ENDBRANCH  31  32
DOCKED: ENDBRANCH  30  31
DOCKED: ENDBRANCH   6  30
DOCKED: BRANCH  29  36
DOCKED: ATOM     36  C   UNL d   1       6.474  13.329  32.823 -0.08 +0.14    +0.190 C 
DOCKED: BRANCH  36  37
DOCKED: ATOM     37  O   UNL d   1       5.597  13.135  33.895 -0.66 -0.59    -0.399 OA
DOCKED: ATOM     38  H   UNL d   1       6.181  13.109  34.703 +0.08 +0.35    +0.209 HD
DOCKED: ENDBRANCH  36  37
DOCKED: ENDBRANCH  29  36
DOCKED: BRANCH  22  39
DOCKED: ATOM     39  C   UNL d   1       9.407  14.381  37.952 -0.02 +0.03    +0.052 C 
DOCKED: BRANCH  39  40
DOCKED: ATOM     40  C   UNL d   1       8.165  13.927  38.737 -0.01 +0.07    +0.115 C 
DOCKED: BRANCH  40  41
DOCKED: ATOM     41  C   UNL d   1       6.866  14.027  37.965 -0.03 +0.15    +0.139 C 
DOCKED: ATOM     42  O   UNL d   1       6.043  14.872  38.287 -0.22 -0.88    -0.650 OA
DOCKED: BRANCH  41  43
DOCKED: ATOM     43  O   UNL d   1       6.628  13.266  36.874 +0.07 -1.03    -0.776 OA
DOCKED: ATOM     44  H   UNL d   1       6.542  13.640  35.988 +0.03 +0.33    +0.167 HD
DOCKED: ENDBRANCH  41  43
DOCKED: ENDBRANCH  40  41
DOCKED: ENDBRANCH  39  40
DOCKED: ENDBRANCH  22  39
DOCKED: BRANCH  12  45
DOCKED: ATOM     45  C   UNL d   1       7.505  13.633  26.910 -0.37 +0.00    +0.004 C 
DOCKED: ATOM     46  C   UNL d   1       7.080  14.020  25.711 -0.45 +0.00    +0.012 C 
DOCKED: ENDBRANCH  12  45
DOCKED: BRANCH  17  47
DOCKED: ATOM     47  C   UNL d   1       9.865   8.704  32.498 -0.52 +0.00    +0.004 C 
DOCKED: ATOM     48  C   UNL d   1      11.111   8.225  32.494 -0.52 +0.01    +0.012 C 
DOCKED: ENDBRANCH  17  47
DOCKED: TORSDOF 12
DOCKED: TER
DOCKED: ENDMDL
________________________________________________________________________________


	BEGINNING GENETIC ALGORITHM DOCKING 68 of 100
Run: 68 Seed: 160138655 61934635 [ Run 68 of 100 GA/GALS ]
Beginning LAMARCKIAN GENETIC ALGORITHM (LGA), with a maximum of 25000000 energy evaluations.

Final-Value: -11.726


	FINAL GENETIC ALGORITHM DOCKED STATE
	_______________________________________________


Detailed state:  trans 21.191 4.771 -10.787 quatxyzw -0.201358 0.897761 0.241037 0.308838 center 8.781 34.984 -0.736 ntor 12 -131.7007 123.2147 -145.2014 122.1368 -79.4371 111.4891 -21.8829 174.2437 -54.7795 67.9689 165.2828 172.6829
State:	 21.191   4.771 -10.787  -0.212  0.944  0.253 144.022   -131.70  123.21 -145.20  122.14  -79.44  111.49  -21.88  174.24  -54.78   67.97  165.28  172.68

DOCKED: MODEL       68
DOCKED: USER    Run = 68
DOCKED: USER    DPF = D:/Protein_go_brrr/autodock/final/1A3N/heme_Co/dock.dpf
DOCKED: USER  
DOCKED: USER    Estimated Free Energy of Binding    =   -5.46 kcal/mol  [=(1)+(2)+(3)-(4)]
DOCKED: USER    Estimated Inhibition Constant, Ki   =  100.15 uM (micromolar)  [Temperature = 298.15 K]
DOCKED: USER    
DOCKED: USER    (1) Final Intermolecular Energy     =   -9.04 kcal/mol
DOCKED: USER        vdW + Hbond + desolv Energy     =   -6.86 kcal/mol
DOCKED: USER        Electrostatic Energy            =   -2.18 kcal/mol
DOCKED: USER    (2) Final Total Internal Energy     =   -2.69 kcal/mol
DOCKED: USER    (3) Torsional Free Energy           =   +3.58 kcal/mol
DOCKED: USER    (4) Unbound System's Energy  [=(2)] =   -2.69 kcal/mol
DOCKED: USER    
DOCKED: USER    
DOCKED: USER    NEWDPF move heme_Co_opt.pdbqt
DOCKED: USER    NEWDPF about 8.781000 34.984000 -0.736000
DOCKED: USER    NEWDPF tran0 21.190939 4.770758 -10.787255
DOCKED: USER    NEWDPF quaternion0 -0.201358 0.897761 0.241037 0.308838
DOCKED: USER    NEWDPF axisangle0 -0.211707 0.943904 0.253426 144.021582
DOCKED: USER    NEWDPF quat0 -0.211707 0.943904 0.253426 144.021582
DOCKED: USER    NEWDPF dihe0 -131.70 123.21 -145.20 122.14 -79.44 111.49 -21.88 174.24 -54.78 67.97 165.28 172.68 
DOCKED: USER  keepresnum = 1 
DOCKED: USER  
DOCKED: REMARK  12 active torsions:
DOCKED: REMARK  status: ('A' for Active; 'I' for Inactive)
DOCKED: REMARK    1  A    between atoms: C_6  and  C_10 
DOCKED: REMARK    2  A    between atoms: C_10  and  C_11 
DOCKED: REMARK    3  A    between atoms: C_11  and  C_12 
DOCKED: REMARK    4  A    between atoms: C_12  and  O_14 
DOCKED: REMARK    5  A    between atoms: C_17  and  C_20 
DOCKED: REMARK    6  A    between atoms: C_24  and  C_27 
DOCKED: REMARK    7  A    between atoms: C_31  and  C_34 
DOCKED: REMARK    8  A    between atoms: C_34  and  C_35 
DOCKED: REMARK    9  A    between atoms: C_35  and  C_36 
DOCKED: REMARK   10  A    between atoms: C_36  and  O_38 
DOCKED: REMARK   11  A    between atoms: FE_43  and  C_44 
DOCKED: REMARK   12  A    between atoms: C_44  and  O_45 
DOCKED: USER                              x       y       z     vdW  Elec       q    Type
DOCKED: USER                           _______ _______ _______ _____ _____    ______ ____
DOCKED: ROOT
DOCKED: ATOM      1  C   UNL d   1      23.048   5.897 -10.805 -0.12 +0.04    +0.064 A 
DOCKED: ATOM      2  C   UNL d   1      20.263   4.271 -14.300 -0.05 +0.01    +0.064 C 
DOCKED: ATOM      3  C   UNL d   1      17.485   2.054 -11.106 -0.17 +0.01    +0.064 A 
DOCKED: ATOM      4  C   UNL d   1      20.088   4.020  -7.497 -0.13 +0.01    +0.064 A 
DOCKED: ATOM      5  C   UNL d   1      22.512   5.585 -11.997 -0.07 +0.03    +0.066 A 
DOCKED: ATOM      6  C   UNL d   1      23.012   6.115 -13.203 -0.03 -0.01    -0.021 A 
DOCKED: ATOM      7  C   UNL d   1      22.186   5.658 -14.211 -0.01 -0.01    -0.025 A 
DOCKED: ATOM      8  C   UNL d   1      21.228   4.857 -13.580 -0.04 +0.02    +0.066 A 
DOCKED: ATOM      9  C   UNL d   1      22.282   5.956 -15.715 +0.00 +0.01    +0.051 C 
DOCKED: ATOM     10  C   UNL d   1      19.251   3.409 -13.742 -0.09 +0.01    +0.066 A 
DOCKED: ATOM     11  C   UNL d   1      18.297   2.653 -14.459 -0.08 -0.00    -0.021 A 
DOCKED: ATOM     12  C   UNL d   1      17.503   2.014 -13.503 -0.13 +0.00    +0.000 A 
DOCKED: ATOM     13  C   UNL d   1      18.037   2.415 -12.278 -0.13 +0.01    +0.070 A 
DOCKED: ATOM     14  C   UNL d   1      18.229   2.492 -15.956 -0.04 +0.01    +0.052 C 
DOCKED: ATOM     15  C   UNL d   1      17.872   2.418  -9.757 -0.06 +0.01    +0.066 A 
DOCKED: ATOM     16  C   UNL d   1      17.172   2.129  -8.594 -0.34 -0.01    -0.021 A 
DOCKED: ATOM     17  C   UNL d   1      17.918   2.696  -7.551 -0.40 +0.00    +0.000 A 
DOCKED: ATOM     18  C   UNL d   1      19.026   3.273  -8.160 -0.30 +0.01    +0.070 A 
DOCKED: ATOM     19  C   UNL d   1      15.873   1.358  -8.521 -0.32 +0.03    +0.052 C 
DOCKED: ATOM     20  C   UNL d   1      21.129   4.664  -8.077 -0.22 +0.02    +0.066 A 
DOCKED: ATOM     21  C   UNL d   1      22.067   5.379  -7.336 -0.30 -0.01    -0.025 A 
DOCKED: ATOM     22  C   UNL d   1      22.949   5.907  -8.261 -0.26 -0.01    -0.021 A 
DOCKED: ATOM     23  C   UNL d   1      22.496   5.494  -9.532 -0.18 +0.03    +0.066 A 
DOCKED: ATOM     24  C   UNL d   1      22.110   5.568  -5.822 -0.31 +0.01    +0.051 C 
DOCKED: ATOM     25  N   UNL d   1      21.409   4.789 -12.209 -0.06 -0.08    -0.248 N 
DOCKED: ATOM     26  N   UNL d   1      19.128   3.213 -12.425 -0.09 -0.04    -0.248 N 
DOCKED: ATOM     27  N   UNL d   1      18.951   3.115  -9.477 -0.08 -0.05    -0.248 N 
DOCKED: ATOM     28  N   UNL d   1      21.393   4.743  -9.425 -0.13 -0.08    -0.248 N 
DOCKED: ATOM     29 FE   UNL d   1      20.109   3.903 -10.760 -0.05 +0.00    +0.000 Fe
DOCKED: ENDROOT
DOCKED: BRANCH   6  30
DOCKED: ATOM     30  C   UNL d   1      24.182   7.082 -13.356 -0.05 +0.04    +0.052 C 
DOCKED: BRANCH  30  31
DOCKED: ATOM     31  C   UNL d   1      23.686   8.458 -13.798 -0.03 +0.06    +0.115 C 
DOCKED: BRANCH  31  32
DOCKED: ATOM     32  C   UNL d   1      24.106   9.556 -12.845 -0.05 +0.10    +0.139 C 
DOCKED: ATOM     33  O   UNL d   1      23.411  10.555 -12.735 +0.01 -0.30    -0.650 OA
DOCKED: BRANCH  32  34
DOCKED: ATOM     34  O   UNL d   1      25.209   9.449 -12.067 -0.42 -1.27    -0.776 OA
DOCKED: ATOM     35  H   UNL d   1      25.241   9.693 -11.132 +0.01 +0.28    +0.167 HD
DOCKED: ENDBRANCH  32  34
DOCKED: ENDBRANCH  31  32
DOCKED: ENDBRANCH  30  31
DOCKED: ENDBRANCH   6  30
DOCKED: BRANCH  29  36
DOCKED: ATOM     36  C   UNL d   1      18.995   5.677 -10.840 -0.09 +0.05    +0.190 C 
DOCKED: BRANCH  36  37
DOCKED: ATOM     37  O   UNL d   1      19.119   7.070 -10.873 -0.07 -0.13    -0.399 OA
DOCKED: ATOM     38  H   UNL d   1      20.092   7.238 -11.016 +0.05 +0.07    +0.209 HD
DOCKED: ENDBRANCH  36  37
DOCKED: ENDBRANCH  29  36
DOCKED: BRANCH  22  39
DOCKED: ATOM     39  C   UNL d   1      24.124   6.813  -7.939 -0.21 +0.03    +0.052 C 
DOCKED: BRANCH  39  40
DOCKED: ATOM     40  C   UNL d   1      23.674   8.281  -7.870 -0.26 +0.06    +0.115 C 
DOCKED: BRANCH  40  41
DOCKED: ATOM     41  C   UNL d   1      24.320   9.182  -8.902 -0.21 +0.11    +0.139 C 
DOCKED: ATOM     42  O   UNL d   1      25.531   9.134  -9.063 -0.00 -0.92    -0.650 OA
DOCKED: BRANCH  41  43
DOCKED: ATOM     43  O   UNL d   1      23.585   9.977  -9.711 +0.03 -0.47    -0.776 OA
DOCKED: ATOM     44  H   UNL d   1      23.788  10.093 -10.648 +0.03 +0.12    +0.167 HD
DOCKED: ENDBRANCH  41  43
DOCKED: ENDBRANCH  40  41
DOCKED: ENDBRANCH  39  40
DOCKED: ENDBRANCH  22  39
DOCKED: BRANCH  12  45
DOCKED: ATOM     45  C   UNL d   1      16.320   1.060 -13.606 -0.11 +0.00    +0.004 C 
DOCKED: ATOM     46  C   UNL d   1      16.207  -0.219 -13.260 -0.17 +0.00    +0.012 C 
DOCKED: ENDBRANCH  12  45
DOCKED: BRANCH  17  47
DOCKED: ATOM     47  C   UNL d   1      17.619   2.757  -6.089 -0.58 +0.00    +0.004 C 
DOCKED: ATOM     48  C   UNL d   1      17.132   3.841  -5.480 -0.57 +0.01    +0.012 C 
DOCKED: ENDBRANCH  17  47
DOCKED: TORSDOF 12
DOCKED: TER
DOCKED: ENDMDL
________________________________________________________________________________


	BEGINNING GENETIC ALGORITHM DOCKING 69 of 100
Run: 69 Seed: 195976315 2087684813 [ Run 69 of 100 GA/GALS ]
Beginning LAMARCKIAN GENETIC ALGORITHM (LGA), with a maximum of 25000000 energy evaluations.

Final-Value: -13.921


	FINAL GENETIC ALGORITHM DOCKED STATE
	_______________________________________________


Detailed state:  trans 9.003 12.960 35.329 quatxyzw 0.258702 0.789519 -0.101605 -0.547184 center 8.781 34.984 -0.736 ntor 12 -73.2824 79.2729 -53.8970 -107.6254 68.4983 137.3687 45.7934 -92.2101 150.6223 -152.3456 -157.8113 -27.3299
State:	  9.003  12.960  35.329   0.309  0.943 -0.121 -113.652    -73.28   79.27  -53.90 -107.63   68.50  137.37   45.79  -92.21  150.62 -152.35 -157.81  -27.33

DOCKED: MODEL       69
DOCKED: USER    Run = 69
DOCKED: USER    DPF = D:/Protein_go_brrr/autodock/final/1A3N/heme_Co/dock.dpf
DOCKED: USER  
DOCKED: USER    Estimated Free Energy of Binding    =   -8.23 kcal/mol  [=(1)+(2)+(3)-(4)]
DOCKED: USER    Estimated Inhibition Constant, Ki   =  922.09 nM (nanomolar)  [Temperature = 298.15 K]
DOCKED: USER    
DOCKED: USER    (1) Final Intermolecular Energy     =  -11.81 kcal/mol
DOCKED: USER        vdW + Hbond + desolv Energy     =   -8.26 kcal/mol
DOCKED: USER        Electrostatic Energy            =   -3.55 kcal/mol
DOCKED: USER    (2) Final Total Internal Energy     =   -2.11 kcal/mol
DOCKED: USER    (3) Torsional Free Energy           =   +3.58 kcal/mol
DOCKED: USER    (4) Unbound System's Energy  [=(2)] =   -2.11 kcal/mol
DOCKED: USER    
DOCKED: USER    
DOCKED: USER    NEWDPF move heme_Co_opt.pdbqt
DOCKED: USER    NEWDPF about 8.781000 34.984000 -0.736000
DOCKED: USER    NEWDPF tran0 9.003105 12.960121 35.329397
DOCKED: USER    NEWDPF quaternion0 0.258702 0.789519 -0.101605 -0.547184
DOCKED: USER    NEWDPF axisangle0 0.309078 0.943258 -0.121390 -113.651925
DOCKED: USER    NEWDPF quat0 0.309078 0.943258 -0.121390 -113.651925
DOCKED: USER    NEWDPF dihe0 -73.28 79.27 -53.90 -107.63 68.50 137.37 45.79 -92.21 150.62 -152.35 -157.81 -27.33 
DOCKED: USER  keepresnum = 1 
DOCKED: USER  
DOCKED: REMARK  12 active torsions:
DOCKED: REMARK  status: ('A' for Active; 'I' for Inactive)
DOCKED: REMARK    1  A    between atoms: C_6  and  C_10 
DOCKED: REMARK    2  A    between atoms: C_10  and  C_11 
DOCKED: REMARK    3  A    between atoms: C_11  and  C_12 
DOCKED: REMARK    4  A    between atoms: C_12  and  O_14 
DOCKED: REMARK    5  A    between atoms: C_17  and  C_20 
DOCKED: REMARK    6  A    between atoms: C_24  and  C_27 
DOCKED: REMARK    7  A    between atoms: C_31  and  C_34 
DOCKED: REMARK    8  A    between atoms: C_34  and  C_35 
DOCKED: REMARK    9  A    between atoms: C_35  and  C_36 
DOCKED: REMARK   10  A    between atoms: C_36  and  O_38 
DOCKED: REMARK   11  A    between atoms: FE_43  and  C_44 
DOCKED: REMARK   12  A    between atoms: C_44  and  O_45 
DOCKED: USER                              x       y       z     vdW  Elec       q    Type
DOCKED: USER                           _______ _______ _______ _____ _____    ______ ____
DOCKED: ROOT
DOCKED: ATOM      1  C   UNL d   1       9.090  13.184  37.488 -0.03 +0.04    +0.064 A 
DOCKED: ATOM      2  C   UNL d   1      10.402   9.652  34.586 -0.28 +0.06    +0.064 C 
DOCKED: ATOM      3  C   UNL d   1       8.593  12.006  30.842 -0.19 +0.02    +0.064 A 
DOCKED: ATOM      4  C   UNL d   1       7.590  15.794  33.725 -0.15 +0.06    +0.064 A 
DOCKED: ATOM      5  C   UNL d   1       9.549  12.030  36.975 -0.10 +0.05    +0.066 A 
DOCKED: ATOM      6  C   UNL d   1      10.228  11.080  37.763 -0.13 -0.02    -0.021 A 
DOCKED: ATOM      7  C   UNL d   1      10.627  10.068  36.912 -0.18 -0.02    -0.025 A 
DOCKED: ATOM      8  C   UNL d   1      10.159  10.435  35.645 -0.20 +0.07    +0.066 A 
DOCKED: ATOM      9  C   UNL d   1      11.418   8.799  37.262 -0.19 +0.04    +0.051 C 
DOCKED: ATOM     10  C   UNL d   1       9.938   9.935  33.250 -0.14 +0.04    +0.066 A 
DOCKED: ATOM     11  C   UNL d   1      10.038   9.087  32.126 -0.39 -0.01    -0.021 A 
DOCKED: ATOM     12  C   UNL d   1       9.500   9.796  31.049 -0.41 +0.00    +0.000 A 
DOCKED: ATOM     13  C   UNL d   1       9.101  11.016  31.597 -0.27 +0.03    +0.070 A 
DOCKED: ATOM     14  C   UNL d   1      10.530   7.662  32.124 -0.38 +0.01    +0.052 C 
DOCKED: ATOM     15  C   UNL d   1       8.180  13.340  31.232 -0.23 +0.02    +0.066 A 
DOCKED: ATOM     16  C   UNL d   1       7.800  14.366  30.378 -0.34 -0.01    -0.021 A 
DOCKED: ATOM     17  C   UNL d   1       7.512  15.462  31.205 -0.30 +0.00    +0.000 A 
DOCKED: ATOM     18  C   UNL d   1       7.724  15.010  32.503 -0.23 +0.04    +0.070 A 
DOCKED: ATOM     19  C   UNL d   1       7.729  14.271  28.870 -0.38 +0.01    +0.052 C 
DOCKED: ATOM     20  C   UNL d   1       7.874  15.403  34.990 -0.08 +0.08    +0.066 A 
DOCKED: ATOM     21  C   UNL d   1       7.739  16.260  36.081 -0.05 -0.03    -0.025 A 
DOCKED: ATOM     22  C   UNL d   1       8.137  15.525  37.183 -0.05 -0.02    -0.021 A 
DOCKED: ATOM     23  C   UNL d   1       8.509  14.251  36.705 -0.06 +0.05    +0.066 A 
DOCKED: ATOM     24  C   UNL d   1       7.274  17.713  36.072 -0.09 +0.05    +0.051 C 
DOCKED: ATOM     25  N   UNL d   1       9.483  11.643  35.656 -0.10 -0.21    -0.248 N 
DOCKED: ATOM     26  N   UNL d   1       9.315  11.076  32.938 -0.15 -0.14    -0.248 N 
DOCKED: ATOM     27  N   UNL d   1       8.150  13.752  32.479 -0.14 -0.13    -0.248 N 
DOCKED: ATOM     28  N   UNL d   1       8.353  14.173  35.378 -0.06 -0.23    -0.248 N 
DOCKED: ATOM     29 FE   UNL d   1       8.776  12.763  33.976 -0.04 +0.00    +0.000 Fe
DOCKED: ENDROOT
DOCKED: BRANCH   6  30
DOCKED: ATOM     30  C   UNL d   1      10.546  11.192  39.250 -0.07 +0.03    +0.052 C 
DOCKED: BRANCH  30  31
DOCKED: ATOM     31  C   UNL d   1      11.670  12.201  39.485 -0.04 +0.07    +0.115 C 
DOCKED: BRANCH  31  32
DOCKED: ATOM     32  C   UNL d   1      12.649  12.254  38.333 -0.03 +0.17    +0.139 C 
DOCKED: ATOM     33  O   UNL d   1      13.558  11.439  38.279 -0.38 -1.07    -0.650 OA
DOCKED: BRANCH  32  34
DOCKED: ATOM     34  O   UNL d   1      12.524  13.148  37.325 +0.16 -1.13    -0.776 OA
DOCKED: ATOM     35  H   UNL d   1      11.891  13.064  36.599 +0.03 +0.28    +0.167 HD
DOCKED: ENDBRANCH  32  34
DOCKED: ENDBRANCH  31  32
DOCKED: ENDBRANCH  30  31
DOCKED: ENDBRANCH   6  30
DOCKED: BRANCH  29  36
DOCKED: ATOM     36  C   UNL d   1      10.729  13.501  33.788 -0.10 +0.16    +0.190 C 
DOCKED: BRANCH  36  37
DOCKED: ATOM     37  O   UNL d   1      11.936  13.648  34.480 -0.41 -0.54    -0.399 OA
DOCKED: ATOM     38  H   UNL d   1      11.670  13.799  35.430 +0.05 +0.26    +0.209 HD
DOCKED: ENDBRANCH  36  37
DOCKED: ENDBRANCH  29  36
DOCKED: BRANCH  22  39
DOCKED: ATOM     39  C   UNL d   1       8.215  16.046  38.606 -0.02 +0.03    +0.052 C 
DOCKED: BRANCH  39  40
DOCKED: ATOM     40  C   UNL d   1       6.808  16.195  39.208 -0.03 +0.07    +0.115 C 
DOCKED: BRANCH  40  41
DOCKED: ATOM     41  C   UNL d   1       5.749  15.345  38.537 +0.14 +0.18    +0.139 C 
DOCKED: ATOM     42  O   UNL d   1       5.990  14.171  38.292 -0.20 -0.80    -0.650 OA
DOCKED: BRANCH  41  43
DOCKED: ATOM     43  O   UNL d   1       4.512  15.825  38.279 -0.34 -1.27    -0.776 OA
DOCKED: ATOM     44  H   UNL d   1       3.992  16.301  38.940 +0.01 +0.15    +0.167 HD
DOCKED: ENDBRANCH  41  43
DOCKED: ENDBRANCH  40  41
DOCKED: ENDBRANCH  39  40
DOCKED: ENDBRANCH  22  39
DOCKED: BRANCH  12  45
DOCKED: ATOM     45  C   UNL d   1       9.300   9.457  29.578 -0.50 +0.00    +0.004 C 
DOCKED: ATOM     46  C   UNL d   1       9.827  10.002  28.484 -0.46 +0.00    +0.012 C 
DOCKED: ENDBRANCH  12  45
DOCKED: BRANCH  17  47
DOCKED: ATOM     47  C   UNL d   1       7.116  16.854  30.839 -0.32 +0.00    +0.004 C 
DOCKED: ATOM     48  C   UNL d   1       6.171  17.140  29.940 -0.40 +0.00    +0.012 C 
DOCKED: ENDBRANCH  17  47
DOCKED: TORSDOF 12
DOCKED: TER
DOCKED: ENDMDL
________________________________________________________________________________


	BEGINNING GENETIC ALGORITHM DOCKING 70 of 100
Run: 70 Seed: 1533012353 1555407951 [ Run 70 of 100 GA/GALS ]
Beginning LAMARCKIAN GENETIC ALGORITHM (LGA), with a maximum of 25000000 energy evaluations.

Final-Value: -11.562


	FINAL GENETIC ALGORITHM DOCKED STATE
	_______________________________________________


Detailed state:  trans 14.205 21.019 12.114 quatxyzw -0.782475 0.015603 0.023343 -0.622049 center 8.781 34.984 -0.736 ntor 12 87.5694 143.2766 58.1272 115.5007 -88.3891 85.9142 33.8126 -33.2948 139.8905 -163.1909 -138.2363 168.6931
State:	 14.205  21.019  12.114  -0.999  0.020  0.030 -103.068     87.57  143.28   58.13  115.50  -88.39   85.91   33.81  -33.29  139.89 -163.19 -138.24  168.69

DOCKED: MODEL       70
DOCKED: USER    Run = 70
DOCKED: USER    DPF = D:/Protein_go_brrr/autodock/final/1A3N/heme_Co/dock.dpf
DOCKED: USER  
DOCKED: USER    Estimated Free Energy of Binding    =   -4.65 kcal/mol  [=(1)+(2)+(3)-(4)]
DOCKED: USER    Estimated Inhibition Constant, Ki   =  387.64 uM (micromolar)  [Temperature = 298.15 K]
DOCKED: USER    
DOCKED: USER    (1) Final Intermolecular Energy     =   -8.23 kcal/mol
DOCKED: USER        vdW + Hbond + desolv Energy     =   -6.13 kcal/mol
DOCKED: USER        Electrostatic Energy            =   -2.11 kcal/mol
DOCKED: USER    (2) Final Total Internal Energy     =   -3.33 kcal/mol
DOCKED: USER    (3) Torsional Free Energy           =   +3.58 kcal/mol
DOCKED: USER    (4) Unbound System's Energy  [=(2)] =   -3.33 kcal/mol
DOCKED: USER    
DOCKED: USER    
DOCKED: USER    NEWDPF move heme_Co_opt.pdbqt
DOCKED: USER    NEWDPF about 8.781000 34.984000 -0.736000
DOCKED: USER    NEWDPF tran0 14.205160 21.018909 12.114273
DOCKED: USER    NEWDPF quaternion0 -0.782475 0.015603 0.023343 -0.622049
DOCKED: USER    NEWDPF axisangle0 -0.999357 0.019928 0.029813 -103.068232
DOCKED: USER    NEWDPF quat0 -0.999357 0.019928 0.029813 -103.068232
DOCKED: USER    NEWDPF dihe0 87.57 143.28 58.13 115.50 -88.39 85.91 33.81 -33.29 139.89 -163.19 -138.24 168.69 
DOCKED: USER  keepresnum = 1 
DOCKED: USER  
DOCKED: REMARK  12 active torsions:
DOCKED: REMARK  status: ('A' for Active; 'I' for Inactive)
DOCKED: REMARK    1  A    between atoms: C_6  and  C_10 
DOCKED: REMARK    2  A    between atoms: C_10  and  C_11 
DOCKED: REMARK    3  A    between atoms: C_11  and  C_12 
DOCKED: REMARK    4  A    between atoms: C_12  and  O_14 
DOCKED: REMARK    5  A    between atoms: C_17  and  C_20 
DOCKED: REMARK    6  A    between atoms: C_24  and  C_27 
DOCKED: REMARK    7  A    between atoms: C_31  and  C_34 
DOCKED: REMARK    8  A    between atoms: C_34  and  C_35 
DOCKED: REMARK    9  A    between atoms: C_35  and  C_36 
DOCKED: REMARK   10  A    between atoms: C_36  and  O_38 
DOCKED: REMARK   11  A    between atoms: FE_43  and  C_44 
DOCKED: REMARK   12  A    between atoms: C_44  and  O_45 
DOCKED: USER                              x       y       z     vdW  Elec       q    Type
DOCKED: USER                           _______ _______ _______ _____ _____    ______ ____
DOCKED: ROOT
DOCKED: ATOM      1  C   UNL d   1      12.261  20.069  11.928 -0.19 +0.02    +0.064 A 
DOCKED: ATOM      2  C   UNL d   1      13.596  24.314  13.605 -0.13 +0.01    +0.064 C 
DOCKED: ATOM      3  C   UNL d   1      18.191  23.143  13.017 -0.03 +0.01    +0.064 A 
DOCKED: ATOM      4  C   UNL d   1      16.844  18.954  10.942 -0.07 +0.02    +0.064 A 
DOCKED: ATOM      5  C   UNL d   1      12.289  21.301  12.464 -0.17 +0.02    +0.066 A 
DOCKED: ATOM      6  C   UNL d   1      11.113  22.031  12.722 -0.26 -0.01    -0.021 A 
DOCKED: ATOM      7  C   UNL d   1      11.506  23.270  13.187 -0.26 -0.01    -0.025 A 
DOCKED: ATOM      8  C   UNL d   1      12.905  23.238  13.208 -0.16 +0.01    +0.066 A 
DOCKED: ATOM      9  C   UNL d   1      10.613  24.450  13.599 -0.47 +0.01    +0.051 C 
DOCKED: ATOM     10  C   UNL d   1      15.035  24.365  13.685 -0.09 +0.01    +0.066 A 
DOCKED: ATOM     11  C   UNL d   1      15.813  25.412  14.225 -0.09 -0.00    -0.021 A 
DOCKED: ATOM     12  C   UNL d   1      17.149  25.042  14.044 -0.06 +0.00    +0.000 A 
DOCKED: ATOM     13  C   UNL d   1      17.087  23.796  13.420 -0.05 +0.01    +0.070 A 
DOCKED: ATOM     14  C   UNL d   1      15.294  26.629  14.947 -0.14 -0.00    +0.052 C 
DOCKED: ATOM     15  C   UNL d   1      18.308  21.880  12.315 -0.03 +0.01    +0.066 A 
DOCKED: ATOM     16  C   UNL d   1      19.472  21.330  11.798 -0.04 -0.00    -0.021 A 
DOCKED: ATOM     17  C   UNL d   1      19.089  20.123  11.196 -0.06 +0.00    +0.000 A 
DOCKED: ATOM     18  C   UNL d   1      17.718  20.023  11.410 -0.04 +0.02    +0.070 A 
DOCKED: ATOM     19  C   UNL d   1      20.850  21.948  11.889 -0.07 +0.01    +0.052 C 
DOCKED: ATOM     20  C   UNL d   1      15.497  18.878  11.063 -0.07 +0.02    +0.066 A 
DOCKED: ATOM     21  C   UNL d   1      14.763  17.816  10.539 -0.11 -0.01    -0.025 A 
DOCKED: ATOM     22  C   UNL d   1      13.441  18.096  10.834 -0.16 -0.01    -0.021 A 
DOCKED: ATOM     23  C   UNL d   1      13.433  19.331  11.517 -0.14 +0.02    +0.066 A 
DOCKED: ATOM     24  C   UNL d   1      15.292  16.604   9.778 -0.12 +0.01    +0.051 C 
DOCKED: ATOM     25  N   UNL d   1      13.417  22.028  12.771 -0.06 -0.05    -0.248 N 
DOCKED: ATOM     26  N   UNL d   1      15.809  23.362  13.255 -0.04 -0.04    -0.248 N 
DOCKED: ATOM     27  N   UNL d   1      17.282  21.101  12.053 -0.01 -0.05    -0.248 N 
DOCKED: ATOM     28  N   UNL d   1      14.676  19.809  11.656 -0.03 -0.06    -0.248 N 
DOCKED: ATOM     29 FE   UNL d   1      15.463  21.534  12.389 -0.02 +0.00    +0.000 Fe
DOCKED: ENDROOT
DOCKED: BRANCH   6  30
DOCKED: ATOM     30  C   UNL d   1       9.682  21.576  12.452 -0.36 +0.01    +0.052 C 
DOCKED: BRANCH  30  31
DOCKED: ATOM     31  C   UNL d   1       9.522  21.145  10.994 -0.32 +0.05    +0.115 C 
DOCKED: BRANCH  31  32
DOCKED: ATOM     32  C   UNL d   1      10.228  22.080  10.035 -0.27 +0.10    +0.139 C 
DOCKED: ATOM     33  O   UNL d   1       9.596  22.976   9.496 -0.60 -0.61    -0.650 OA
DOCKED: BRANCH  32  34
DOCKED: ATOM     34  O   UNL d   1      11.555  21.986   9.788 -0.01 -0.51    -0.776 OA
DOCKED: ATOM     35  H   UNL d   1      11.948  21.376   9.149 +0.03 +0.15    +0.167 HD
DOCKED: ENDBRANCH  32  34
DOCKED: ENDBRANCH  31  32
DOCKED: ENDBRANCH  30  31
DOCKED: ENDBRANCH   6  30
DOCKED: BRANCH  29  36
DOCKED: ATOM     36  C   UNL d   1      15.223  22.463  10.526 -0.02 +0.04    +0.190 C 
DOCKED: BRANCH  36  37
DOCKED: ATOM     37  O   UNL d   1      14.581  22.333   9.290 -0.02 -0.13    -0.399 OA
DOCKED: ATOM     38  H   UNL d   1      13.737  21.840   9.491 +0.04 +0.09    +0.209 HD
DOCKED: ENDBRANCH  36  37
DOCKED: ENDBRANCH  29  36
DOCKED: BRANCH  22  39
DOCKED: ATOM     39  C   UNL d   1      12.250  17.252  10.421 -0.25 +0.02    +0.052 C 
DOCKED: BRANCH  39  40
DOCKED: ATOM     40  C   UNL d   1      11.716  17.701   9.050 -0.22 +0.09    +0.115 C 
DOCKED: BRANCH  40  41
DOCKED: ATOM     41  C   UNL d   1      12.622  18.663   8.311 -0.04 +0.17    +0.139 C 
DOCKED: ATOM     42  O   UNL d   1      13.282  18.256   7.365 -0.41 -0.76    -0.650 OA
DOCKED: BRANCH  41  43
DOCKED: ATOM     43  O   UNL d   1      12.657  19.979   8.612 -0.07 -0.90    -0.776 OA
DOCKED: ATOM     44  H   UNL d   1      12.963  20.309   9.467 +0.05 +0.11    +0.167 HD
DOCKED: ENDBRANCH  41  43
DOCKED: ENDBRANCH  40  41
DOCKED: ENDBRANCH  39  40
DOCKED: ENDBRANCH  22  39
DOCKED: BRANCH  12  45
DOCKED: ATOM     45  C   UNL d   1      18.469  25.711  14.403 -0.04 +0.00    +0.004 C 
DOCKED: ATOM     46  C   UNL d   1      19.360  25.418  15.347 -0.05 +0.00    +0.012 C 
DOCKED: ENDBRANCH  12  45
DOCKED: BRANCH  17  47
DOCKED: ATOM     47  C   UNL d   1      19.906  19.138  10.427 -0.14 +0.00    +0.004 C 
DOCKED: ATOM     48  C   UNL d   1      19.786  18.948   9.111 -0.24 +0.00    +0.012 C 
DOCKED: ENDBRANCH  17  47
DOCKED: TORSDOF 12
DOCKED: TER
DOCKED: ENDMDL
________________________________________________________________________________


	BEGINNING GENETIC ALGORITHM DOCKING 71 of 100
Run: 71 Seed: 1182046603 35326780 [ Run 71 of 100 GA/GALS ]
Beginning LAMARCKIAN GENETIC ALGORITHM (LGA), with a maximum of 25000000 energy evaluations.

Final-Value: -13.667


	FINAL GENETIC ALGORITHM DOCKED STATE
	_______________________________________________


Detailed state:  trans 8.436 15.216 32.543 quatxyzw 0.713409 -0.466300 -0.447080 -0.271536 center 8.781 34.984 -0.736 ntor 12 -9.8321 119.7596 -122.8034 78.9105 64.1286 68.4513 131.6316 117.1176 91.3290 149.5339 -133.2120 176.7589
State:	  8.436  15.216  32.543   0.741 -0.485 -0.465 -148.489     -9.83  119.76 -122.80   78.91   64.13   68.45  131.63  117.12   91.33  149.53 -133.21  176.76

DOCKED: MODEL       71
DOCKED: USER    Run = 71
DOCKED: USER    DPF = D:/Protein_go_brrr/autodock/final/1A3N/heme_Co/dock.dpf
DOCKED: USER  
DOCKED: USER    Estimated Free Energy of Binding    =   -7.92 kcal/mol  [=(1)+(2)+(3)-(4)]
DOCKED: USER    Estimated Inhibition Constant, Ki   =    1.56 uM (micromolar)  [Temperature = 298.15 K]
DOCKED: USER    
DOCKED: USER    (1) Final Intermolecular Energy     =  -11.50 kcal/mol
DOCKED: USER        vdW + Hbond + desolv Energy     =   -8.88 kcal/mol
DOCKED: USER        Electrostatic Energy            =   -2.63 kcal/mol
DOCKED: USER    (2) Final Total Internal Energy     =   -2.16 kcal/mol
DOCKED: USER    (3) Torsional Free Energy           =   +3.58 kcal/mol
DOCKED: USER    (4) Unbound System's Energy  [=(2)] =   -2.16 kcal/mol
DOCKED: USER    
DOCKED: USER    
DOCKED: USER    NEWDPF move heme_Co_opt.pdbqt
DOCKED: USER    NEWDPF about 8.781000 34.984000 -0.736000
DOCKED: USER    NEWDPF tran0 8.436147 15.216234 32.542809
DOCKED: USER    NEWDPF quaternion0 0.713409 -0.466300 -0.447080 -0.271536
DOCKED: USER    NEWDPF axisangle0 0.741259 -0.484504 -0.464533 -148.488565
DOCKED: USER    NEWDPF quat0 0.741259 -0.484504 -0.464533 -148.488565
DOCKED: USER    NEWDPF dihe0 -9.83 119.76 -122.80 78.91 64.13 68.45 131.63 117.12 91.33 149.53 -133.21 176.76 
DOCKED: USER  keepresnum = 1 
DOCKED: USER  
DOCKED: REMARK  12 active torsions:
DOCKED: REMARK  status: ('A' for Active; 'I' for Inactive)
DOCKED: REMARK    1  A    between atoms: C_6  and  C_10 
DOCKED: REMARK    2  A    between atoms: C_10  and  C_11 
DOCKED: REMARK    3  A    between atoms: C_11  and  C_12 
DOCKED: REMARK    4  A    between atoms: C_12  and  O_14 
DOCKED: REMARK    5  A    between atoms: C_17  and  C_20 
DOCKED: REMARK    6  A    between atoms: C_24  and  C_27 
DOCKED: REMARK    7  A    between atoms: C_31  and  C_34 
DOCKED: REMARK    8  A    between atoms: C_34  and  C_35 
DOCKED: REMARK    9  A    between atoms: C_35  and  C_36 
DOCKED: REMARK   10  A    between atoms: C_36  and  O_38 
DOCKED: REMARK   11  A    between atoms: FE_43  and  C_44 
DOCKED: REMARK   12  A    between atoms: C_44  and  O_45 
DOCKED: USER                              x       y       z     vdW  Elec       q    Type
DOCKED: USER                           _______ _______ _______ _____ _____    ______ ____
DOCKED: ROOT
DOCKED: ATOM      1  C   UNL d   1       8.663  16.740  34.073 -0.13 +0.04    +0.064 A 
DOCKED: ATOM      2  C   UNL d   1       6.667  16.818  29.758 -0.31 +0.01    +0.064 C 
DOCKED: ATOM      3  C   UNL d   1       8.149  12.348  28.951 -0.05 +0.01    +0.064 A 
DOCKED: ATOM      4  C   UNL d   1       9.860  12.108  33.498 -0.01 +0.05    +0.064 A 
DOCKED: ATOM      5  C   UNL d   1       8.040  17.102  32.940 -0.17 +0.03    +0.066 A 
DOCKED: ATOM      6  C   UNL d   1       7.393  18.347  32.807 -0.16 -0.01    -0.021 A 
DOCKED: ATOM      7  C   UNL d   1       6.796  18.355  31.562 -0.22 -0.01    -0.025 A 
DOCKED: ATOM      8  C   UNL d   1       7.118  17.123  30.982 -0.24 +0.02    +0.066 A 
DOCKED: ATOM      9  C   UNL d   1       5.952  19.471  30.929 -0.25 +0.01    +0.051 C 
DOCKED: ATOM     10  C   UNL d   1       6.967  15.587  29.071 -0.37 +0.01    +0.066 A 
DOCKED: ATOM     11  C   UNL d   1       6.642  15.266  27.735 -0.45 -0.00    -0.021 A 
DOCKED: ATOM     12  C   UNL d   1       7.089  13.958  27.525 -0.40 +0.00    +0.000 A 
DOCKED: ATOM     13  C   UNL d   1       7.664  13.584  28.740 -0.27 +0.01    +0.070 A 
DOCKED: ATOM     14  C   UNL d   1       6.032  16.195  26.717 -0.41 +0.01    +0.052 C 
DOCKED: ATOM     15  C   UNL d   1       8.725  11.779  30.153 -0.22 +0.02    +0.066 A 
DOCKED: ATOM     16  C   UNL d   1       9.074  10.450  30.349 -0.38 -0.01    -0.021 A 
DOCKED: ATOM     17  C   UNL d   1       9.566  10.375  31.660 -0.32 +0.00    +0.000 A 
DOCKED: ATOM     18  C   UNL d   1       9.494  11.672  32.156 -0.12 +0.03    +0.070 A 
DOCKED: ATOM     19  C   UNL d   1       8.932   9.346  29.325 -0.41 +0.01    +0.052 C 
DOCKED: ATOM     20  C   UNL d   1       9.718  13.345  34.031 -0.20 +0.05    +0.066 A 
DOCKED: ATOM     21  C   UNL d   1      10.073  13.633  35.347 -0.16 -0.02    -0.025 A 
DOCKED: ATOM     22  C   UNL d   1       9.766  14.969  35.532 -0.11 -0.01    -0.021 A 
DOCKED: ATOM     23  C   UNL d   1       9.223  15.430  34.314 -0.13 +0.04    +0.066 A 
DOCKED: ATOM     24  C   UNL d   1      10.658  12.678  36.384 -0.14 +0.06    +0.051 C 
DOCKED: ATOM     25  N   UNL d   1       7.892  16.329  31.811 -0.14 -0.11    -0.248 N 
DOCKED: ATOM     26  N   UNL d   1       7.639  14.590  29.655 -0.21 -0.06    -0.248 N 
DOCKED: ATOM     27  N   UNL d   1       8.960  12.475  31.242 -0.19 -0.09    -0.248 N 
DOCKED: ATOM     28  N   UNL d   1       9.190  14.449  33.403 -0.11 -0.15    -0.248 N 
DOCKED: ATOM     29 FE   UNL d   1       8.460  14.288  31.513 -0.06 +0.00    +0.000 Fe
DOCKED: ENDROOT
DOCKED: BRANCH   6  30
DOCKED: ATOM     30  C   UNL d   1       7.291  19.436  33.869 -0.09 +0.02    +0.052 C 
DOCKED: BRANCH  30  31
DOCKED: ATOM     31  C   UNL d   1       6.831  18.847  35.202 -0.09 +0.07    +0.115 C 
DOCKED: BRANCH  31  32
DOCKED: ATOM     32  C   UNL d   1       5.325  18.863  35.351 -0.06 +0.10    +0.139 C 
DOCKED: ATOM     33  O   UNL d   1       4.635  19.283  34.434 -0.03 -0.34    -0.650 OA
DOCKED: BRANCH  32  34
DOCKED: ATOM     34  O   UNL d   1       4.708  18.379  36.454 +0.04 -0.76    -0.776 OA
DOCKED: ATOM     35  H   UNL d   1       5.140  17.827  37.121 -0.00 +0.19    +0.167 HD
DOCKED: ENDBRANCH  32  34
DOCKED: ENDBRANCH  31  32
DOCKED: ENDBRANCH  30  31
DOCKED: ENDBRANCH   6  30
DOCKED: BRANCH  29  36
DOCKED: ATOM     36  C   UNL d   1       6.571  13.771  32.261 -0.13 +0.11    +0.190 C 
DOCKED: BRANCH  36  37
DOCKED: ATOM     37  O   UNL d   1       5.872  13.523  33.447 -0.46 -0.51    -0.399 OA
DOCKED: ATOM     38  H   UNL d   1       6.515  13.751  34.176 +0.07 +0.33    +0.209 HD
DOCKED: ENDBRANCH  36  37
DOCKED: ENDBRANCH  29  36
DOCKED: BRANCH  22  39
DOCKED: ATOM     39  C   UNL d   1       9.927  15.736  36.831 -0.05 +0.03    +0.052 C 
DOCKED: BRANCH  39  40
DOCKED: ATOM     40  C   UNL d   1       8.732  15.482  37.764 -0.02 +0.07    +0.115 C 
DOCKED: BRANCH  40  41
DOCKED: ATOM     41  C   UNL d   1       7.403  15.339  37.052 +0.05 +0.18    +0.139 C 
DOCKED: ATOM     42  O   UNL d   1       6.601  16.262  37.091 -0.02 -1.16    -0.650 OA
DOCKED: BRANCH  41  43
DOCKED: ATOM     43  O   UNL d   1       7.113  14.254  36.300 +0.10 -1.27    -0.776 OA
DOCKED: ATOM     44  H   UNL d   1       6.955  14.308  35.349 +0.04 +0.34    +0.167 HD
DOCKED: ENDBRANCH  41  43
DOCKED: ENDBRANCH  40  41
DOCKED: ENDBRANCH  39  40
DOCKED: ENDBRANCH  22  39
DOCKED: BRANCH  12  45
DOCKED: ATOM     45  C   UNL d   1       7.058  13.031  26.317 -0.43 +0.00    +0.004 C 
DOCKED: ATOM     46  C   UNL d   1       7.730  13.080  25.170 -0.45 +0.00    +0.012 C 
DOCKED: ENDBRANCH  12  45
DOCKED: BRANCH  17  47
DOCKED: ATOM     47  C   UNL d   1      10.029   9.188  32.439 -0.43 +0.00    +0.004 C 
DOCKED: ATOM     48  C   UNL d   1      10.797   8.223  31.926 -0.57 +0.00    +0.012 C 
DOCKED: ENDBRANCH  17  47
DOCKED: TORSDOF 12
DOCKED: TER
DOCKED: ENDMDL
________________________________________________________________________________


	BEGINNING GENETIC ALGORITHM DOCKING 72 of 100
Run: 72 Seed: 1349607778 346710160 [ Run 72 of 100 GA/GALS ]
Beginning LAMARCKIAN GENETIC ALGORITHM (LGA), with a maximum of 25000000 energy evaluations.

Final-Value: -11.264


	FINAL GENETIC ALGORITHM DOCKED STATE
	_______________________________________________


Detailed state:  trans 14.747 -1.949 39.935 quatxyzw 0.298990 0.524591 0.517739 -0.606099 center 8.781 34.984 -0.736 ntor 12 133.8806 100.4996 21.5467 135.5943 43.2931 142.9928 -166.7197 -86.8892 -49.1901 -61.6729 -142.7765 -8.4369
State:	 14.747  -1.949  39.935   0.376  0.660  0.651 -105.384    133.88  100.50   21.55  135.59   43.29  142.99 -166.72  -86.89  -49.19  -61.67 -142.78   -8.44

DOCKED: MODEL       72
DOCKED: USER    Run = 72
DOCKED: USER    DPF = D:/Protein_go_brrr/autodock/final/1A3N/heme_Co/dock.dpf
DOCKED: USER  
DOCKED: USER    Estimated Free Energy of Binding    =   -6.76 kcal/mol  [=(1)+(2)+(3)-(4)]
DOCKED: USER    Estimated Inhibition Constant, Ki   =   11.05 uM (micromolar)  [Temperature = 298.15 K]
DOCKED: USER    
DOCKED: USER    (1) Final Intermolecular Energy     =  -10.34 kcal/mol
DOCKED: USER        vdW + Hbond + desolv Energy     =   -7.72 kcal/mol
DOCKED: USER        Electrostatic Energy            =   -2.62 kcal/mol
DOCKED: USER    (2) Final Total Internal Energy     =   -0.92 kcal/mol
DOCKED: USER    (3) Torsional Free Energy           =   +3.58 kcal/mol
DOCKED: USER    (4) Unbound System's Energy  [=(2)] =   -0.92 kcal/mol
DOCKED: USER    
DOCKED: USER    
DOCKED: USER    NEWDPF move heme_Co_opt.pdbqt
DOCKED: USER    NEWDPF about 8.781000 34.984000 -0.736000
DOCKED: USER    NEWDPF tran0 14.746619 -1.948998 39.935263
DOCKED: USER    NEWDPF quaternion0 0.298990 0.524591 0.517739 -0.606099
DOCKED: USER    NEWDPF axisangle0 0.375904 0.659540 0.650925 -105.384039
DOCKED: USER    NEWDPF quat0 0.375904 0.659540 0.650925 -105.384039
DOCKED: USER    NEWDPF dihe0 133.88 100.50 21.55 135.59 43.29 142.99 -166.72 -86.89 -49.19 -61.67 -142.78 -8.44 
DOCKED: USER  keepresnum = 1 
DOCKED: USER  
DOCKED: REMARK  12 active torsions:
DOCKED: REMARK  status: ('A' for Active; 'I' for Inactive)
DOCKED: REMARK    1  A    between atoms: C_6  and  C_10 
DOCKED: REMARK    2  A    between atoms: C_10  and  C_11 
DOCKED: REMARK    3  A    between atoms: C_11  and  C_12 
DOCKED: REMARK    4  A    between atoms: C_12  and  O_14 
DOCKED: REMARK    5  A    between atoms: C_17  and  C_20 
DOCKED: REMARK    6  A    between atoms: C_24  and  C_27 
DOCKED: REMARK    7  A    between atoms: C_31  and  C_34 
DOCKED: REMARK    8  A    between atoms: C_34  and  C_35 
DOCKED: REMARK    9  A    between atoms: C_35  and  C_36 
DOCKED: REMARK   10  A    between atoms: C_36  and  O_38 
DOCKED: REMARK   11  A    between atoms: FE_43  and  C_44 
DOCKED: REMARK   12  A    between atoms: C_44  and  O_45 
DOCKED: USER                              x       y       z     vdW  Elec       q    Type
DOCKED: USER                           _______ _______ _______ _____ _____    ______ ____
DOCKED: ROOT
DOCKED: ATOM      1  C   UNL d   1      13.954  -3.782  40.788 -0.23 +0.01    +0.064 A 
DOCKED: ATOM      2  C   UNL d   1      18.211  -2.680  38.980 -0.26 +0.00    +0.064 C 
DOCKED: ATOM      3  C   UNL d   1      16.599   1.636  37.715 -0.11 +0.01    +0.064 A 
DOCKED: ATOM      4  C   UNL d   1      12.359   0.678  39.898 -0.21 +0.01    +0.064 A 
DOCKED: ATOM      5  C   UNL d   1      15.225  -3.811  40.355 -0.13 +0.00    +0.066 A 
DOCKED: ATOM      6  C   UNL d   1      16.074  -4.906  40.604 -0.21 -0.00    -0.021 A 
DOCKED: ATOM      7  C   UNL d   1      17.315  -4.572  40.098 -0.25 -0.00    -0.025 A 
DOCKED: ATOM      8  C   UNL d   1      17.165  -3.295  39.546 -0.12 -0.00    +0.066 A 
DOCKED: ATOM      9  C   UNL d   1      18.601  -5.411  40.124 -0.23 +0.01    +0.051 C 
DOCKED: ATOM     10  C   UNL d   1      18.146  -1.378  38.364 -0.22 -0.00    +0.066 A 
DOCKED: ATOM     11  C   UNL d   1      19.170  -0.739  37.631 -0.21 -0.00    -0.021 A 
DOCKED: ATOM     12  C   UNL d   1      18.671   0.516  37.271 -0.20 +0.00    +0.000 A 
DOCKED: ATOM     13  C   UNL d   1      17.380   0.545  37.798 -0.15 +0.00    +0.070 A 
DOCKED: ATOM     14  C   UNL d   1      20.491  -1.344  37.232 -0.25 +0.00    +0.052 C 
DOCKED: ATOM     15  C   UNL d   1      15.268   1.857  38.245 -0.13 +0.01    +0.066 A 
DOCKED: ATOM     16  C   UNL d   1      14.572   3.058  38.250 -0.13 -0.00    -0.021 A 
DOCKED: ATOM     17  C   UNL d   1      13.350   2.787  38.881 -0.14 +0.00    +0.000 A 
DOCKED: ATOM     18  C   UNL d   1      13.389   1.433  39.197 -0.16 +0.01    +0.070 A 
DOCKED: ATOM     19  C   UNL d   1      15.076   4.365  37.680 -0.09 +0.01    +0.052 C 
DOCKED: ATOM     20  C   UNL d   1      12.411  -0.617  40.293 -0.19 +0.01    +0.066 A 
DOCKED: ATOM     21  C   UNL d   1      11.370  -1.223  40.993 -0.14 -0.00    -0.025 A 
DOCKED: ATOM     22  C   UNL d   1      11.789  -2.518  41.238 -0.11 -0.00    -0.021 A 
DOCKED: ATOM     23  C   UNL d   1      13.081  -2.635  40.681 -0.16 +0.01    +0.066 A 
DOCKED: ATOM     24  C   UNL d   1      10.048  -0.595  41.426 -0.15 -0.00    +0.051 C 
DOCKED: ATOM     25  N   UNL d   1      15.879  -2.801  39.686 +0.05 +0.03    -0.248 N 
DOCKED: ATOM     26  N   UNL d   1      17.044  -0.622  38.410 -0.14 +0.00    -0.248 N 
DOCKED: ATOM     27  N   UNL d   1      14.558   0.919  38.831 -0.12 -0.03    -0.248 N 
DOCKED: ATOM     28  N   UNL d   1      13.461  -1.486  40.110 -0.12 -0.04    -0.248 N 
DOCKED: ATOM     29 FE   UNL d   1      15.176  -0.832  39.234 -0.05 +0.00    +0.000 Fe
DOCKED: ENDROOT
DOCKED: BRANCH   6  30
DOCKED: ATOM     30  C   UNL d   1      15.720  -6.177  41.369 -0.16 +0.02    +0.052 C 
DOCKED: BRANCH  30  31
DOCKED: ATOM     31  C   UNL d   1      15.270  -5.840  42.791 -0.11 +0.05    +0.115 C 
DOCKED: BRANCH  31  32
DOCKED: ATOM     32  C   UNL d   1      13.950  -6.488  43.148 -0.10 +0.12    +0.139 C 
DOCKED: ATOM     33  O   UNL d   1      13.870  -7.707  43.189 -0.48 -0.88    -0.650 OA
DOCKED: BRANCH  32  34
DOCKED: ATOM     34  O   UNL d   1      12.857  -5.758  43.472 -0.09 -0.54    -0.776 OA
DOCKED: ATOM     35  H   UNL d   1      11.983  -5.882  43.076 +0.01 +0.15    +0.167 HD
DOCKED: ENDBRANCH  32  34
DOCKED: ENDBRANCH  31  32
DOCKED: ENDBRANCH  30  31
DOCKED: ENDBRANCH   6  30
DOCKED: BRANCH  29  36
DOCKED: ATOM     36  C   UNL d   1      15.937  -0.254  41.101 -0.03 +0.01    +0.190 C 
DOCKED: BRANCH  36  37
DOCKED: ATOM     37  O   UNL d   1      16.445  -0.760  42.301 +0.00 -0.03    -0.399 OA
DOCKED: ATOM     38  H   UNL d   1      16.229  -1.734  42.282 +0.02 +0.02    +0.209 HD
DOCKED: ENDBRANCH  36  37
DOCKED: ENDBRANCH  29  36
DOCKED: BRANCH  22  39
DOCKED: ATOM     39  C   UNL d   1      11.014  -3.560  42.022 -0.06 +0.01    +0.052 C 
DOCKED: BRANCH  39  40
DOCKED: ATOM     40  C   UNL d   1      10.157  -4.421  41.080 -0.10 +0.03    +0.115 C 
DOCKED: BRANCH  40  41
DOCKED: ATOM     41  C   UNL d   1      10.595  -5.868  40.982 -0.11 +0.13    +0.139 C 
DOCKED: ATOM     42  O   UNL d   1      10.764  -6.512  42.008 +0.03 -0.99    -0.650 OA
DOCKED: BRANCH  41  43
DOCKED: ATOM     43  O   UNL d   1      10.722  -6.493  39.791 -0.42 -0.82    -0.776 OA
DOCKED: ATOM     44  H   UNL d   1      10.932  -6.019  38.976 -0.27 +0.04    +0.167 HD
DOCKED: ENDBRANCH  41  43
DOCKED: ENDBRANCH  40  41
DOCKED: ENDBRANCH  39  40
DOCKED: ENDBRANCH  22  39
DOCKED: BRANCH  12  45
DOCKED: ATOM     45  C   UNL d   1      19.256   1.677  36.478 -0.34 +0.00    +0.004 C 
DOCKED: ATOM     46  C   UNL d   1      18.775   2.338  35.428 -0.39 +0.00    +0.012 C 
DOCKED: ENDBRANCH  12  45
DOCKED: BRANCH  17  47
DOCKED: ATOM     47  C   UNL d   1      12.229   3.712  39.225 -0.27 +0.00    +0.004 C 
DOCKED: ATOM     48  C   UNL d   1      12.028   4.884  38.619 -0.32 +0.00    +0.012 C 
DOCKED: ENDBRANCH  17  47
DOCKED: TORSDOF 12
DOCKED: TER
DOCKED: ENDMDL
________________________________________________________________________________


	BEGINNING GENETIC ALGORITHM DOCKING 73 of 100
Run: 73 Seed: 2065601231 1568266412 [ Run 73 of 100 GA/GALS ]
Beginning LAMARCKIAN GENETIC ALGORITHM (LGA), with a maximum of 25000000 energy evaluations.

Final-Value: -11.690


	FINAL GENETIC ALGORITHM DOCKED STATE
	_______________________________________________


Detailed state:  trans 1.461 -6.692 -7.722 quatxyzw 0.442374 -0.188273 0.824847 0.297464 center 8.781 34.984 -0.736 ntor 12 -105.8150 130.3957 148.6985 -103.8484 81.0530 79.7931 156.0194 -12.5913 -7.1374 179.8900 24.2474 178.4104
State:	  1.461  -6.692  -7.722   0.463 -0.197  0.864 145.389   -105.82  130.40  148.70 -103.85   81.05   79.79  156.02  -12.59   -7.14  179.89   24.25  178.41

DOCKED: MODEL       73
DOCKED: USER    Run = 73
DOCKED: USER    DPF = D:/Protein_go_brrr/autodock/final/1A3N/heme_Co/dock.dpf
DOCKED: USER  
DOCKED: USER    Estimated Free Energy of Binding    =   -6.20 kcal/mol  [=(1)+(2)+(3)-(4)]
DOCKED: USER    Estimated Inhibition Constant, Ki   =   28.53 uM (micromolar)  [Temperature = 298.15 K]
DOCKED: USER    
DOCKED: USER    (1) Final Intermolecular Energy     =   -9.78 kcal/mol
DOCKED: USER        vdW + Hbond + desolv Energy     =   -9.36 kcal/mol
DOCKED: USER        Electrostatic Energy            =   -0.42 kcal/mol
DOCKED: USER    (2) Final Total Internal Energy     =   -1.91 kcal/mol
DOCKED: USER    (3) Torsional Free Energy           =   +3.58 kcal/mol
DOCKED: USER    (4) Unbound System's Energy  [=(2)] =   -1.91 kcal/mol
DOCKED: USER    
DOCKED: USER    
DOCKED: USER    NEWDPF move heme_Co_opt.pdbqt
DOCKED: USER    NEWDPF about 8.781000 34.984000 -0.736000
DOCKED: USER    NEWDPF tran0 1.461250 -6.692295 -7.721617
DOCKED: USER    NEWDPF quaternion0 0.442374 -0.188273 0.824847 0.297464
DOCKED: USER    NEWDPF axisangle0 0.463349 -0.197200 0.863956 145.389256
DOCKED: USER    NEWDPF quat0 0.463349 -0.197200 0.863956 145.389256
DOCKED: USER    NEWDPF dihe0 -105.82 130.40 148.70 -103.85 81.05 79.79 156.02 -12.59 -7.14 179.89 24.25 178.41 
DOCKED: USER  keepresnum = 1 
DOCKED: USER  
DOCKED: REMARK  12 active torsions:
DOCKED: REMARK  status: ('A' for Active; 'I' for Inactive)
DOCKED: REMARK    1  A    between atoms: C_6  and  C_10 
DOCKED: REMARK    2  A    between atoms: C_10  and  C_11 
DOCKED: REMARK    3  A    between atoms: C_11  and  C_12 
DOCKED: REMARK    4  A    between atoms: C_12  and  O_14 
DOCKED: REMARK    5  A    between atoms: C_17  and  C_20 
DOCKED: REMARK    6  A    between atoms: C_24  and  C_27 
DOCKED: REMARK    7  A    between atoms: C_31  and  C_34 
DOCKED: REMARK    8  A    between atoms: C_34  and  C_35 
DOCKED: REMARK    9  A    between atoms: C_35  and  C_36 
DOCKED: REMARK   10  A    between atoms: C_36  and  O_38 
DOCKED: REMARK   11  A    between atoms: FE_43  and  C_44 
DOCKED: REMARK   12  A    between atoms: C_44  and  O_45 
DOCKED: USER                              x       y       z     vdW  Elec       q    Type
DOCKED: USER                           _______ _______ _______ _____ _____    ______ ____
DOCKED: ROOT
DOCKED: ATOM      1  C   UNL d   1       1.743  -5.755  -9.660 -0.18 +0.04    +0.064 A 
DOCKED: ATOM      2  C   UNL d   1       3.481  -4.759  -5.348 -0.42 +0.01    +0.064 C 
DOCKED: ATOM      3  C   UNL d   1       0.766  -8.186  -3.421 -0.36 +0.01    +0.064 A 
DOCKED: ATOM      4  C   UNL d   1      -0.735  -9.478  -7.864 -0.05 +0.03    +0.064 A 
DOCKED: ATOM      5  C   UNL d   1       2.390  -5.208  -8.619 -0.23 +0.02    +0.066 A 
DOCKED: ATOM      6  C   UNL d   1       3.354  -4.194  -8.787 -0.28 -0.00    -0.021 A 
DOCKED: ATOM      7  C   UNL d   1       3.871  -3.925  -7.535 -0.38 -0.00    -0.025 A 
DOCKED: ATOM      8  C   UNL d   1       3.190  -4.773  -6.655 -0.28 +0.01    +0.066 A 
DOCKED: ATOM      9  C   UNL d   1       4.966  -2.912  -7.166 -0.48 +0.00    +0.051 C 
DOCKED: ATOM     10  C   UNL d   1       2.815  -5.576  -4.364 -0.19 +0.01    +0.066 A 
DOCKED: ATOM     11  C   UNL d   1       2.975  -5.508  -2.963 -0.03 -0.00    -0.021 A 
DOCKED: ATOM     12  C   UNL d   1       2.169  -6.516  -2.426 -0.18 -0.00    +0.000 A 
DOCKED: ATOM     13  C   UNL d   1       1.569  -7.113  -3.534 -0.32 +0.01    +0.070 A 
DOCKED: ATOM     14  C   UNL d   1       3.775  -4.480  -2.205 -0.44 +0.00    +0.052 C 
DOCKED: ATOM     15  C   UNL d   1       0.107  -8.956  -4.457 -0.34 +0.01    +0.066 A 
DOCKED: ATOM     16  C   UNL d   1      -0.592 -10.142  -4.283 -0.33 -0.00    -0.021 A 
DOCKED: ATOM     17  C   UNL d   1      -1.025 -10.520  -5.562 -0.18 +0.00    +0.000 A 
DOCKED: ATOM     18  C   UNL d   1      -0.568  -9.522  -6.417 -0.09 +0.03    +0.070 A 
DOCKED: ATOM     19  C   UNL d   1      -0.813 -10.844  -2.962 -0.28 +0.00    +0.052 C 
DOCKED: ATOM     20  C   UNL d   1      -0.226  -8.565  -8.725 -0.11 +0.05    +0.066 A 
DOCKED: ATOM     21  C   UNL d   1      -0.425  -8.648 -10.101 -0.10 -0.02    -0.025 A 
DOCKED: ATOM     22  C   UNL d   1       0.253  -7.572 -10.643 -0.11 -0.02    -0.021 A 
DOCKED: ATOM     23  C   UNL d   1       0.848  -6.886  -9.562 -0.15 +0.06    +0.066 A 
DOCKED: ATOM     24  C   UNL d   1      -1.207  -9.713 -10.866 -0.07 +0.02    +0.051 C 
DOCKED: ATOM     25  N   UNL d   1       2.262  -5.574  -7.298 -0.01 -0.09    -0.248 N 
DOCKED: ATOM     26  N   UNL d   1       1.917  -6.508  -4.701 -0.17 -0.06    -0.248 N 
DOCKED: ATOM     27  N   UNL d   1       0.128  -8.624  -5.729 -0.19 -0.08    -0.248 N 
DOCKED: ATOM     28  N   UNL d   1       0.562  -7.485  -8.400 -0.15 -0.21    -0.248 N 
DOCKED: ATOM     29 FE   UNL d   1       1.130  -7.190  -6.470 -0.07 +0.00    +0.000 Fe
DOCKED: ENDROOT
DOCKED: BRANCH   6  30
DOCKED: ATOM     30  C   UNL d   1       3.807  -3.580 -10.107 -0.23 +0.01    +0.052 C 
DOCKED: BRANCH  30  31
DOCKED: ATOM     31  C   UNL d   1       3.284  -2.150 -10.241 -0.33 +0.01    +0.115 C 
DOCKED: BRANCH  31  32
DOCKED: ATOM     32  C   UNL d   1       3.883  -1.425 -11.427 -0.35 +0.01    +0.139 C 
DOCKED: ATOM     33  O   UNL d   1       4.276  -2.068 -12.389 +0.02 -0.09    -0.650 OA
DOCKED: BRANCH  32  34
DOCKED: ATOM     34  O   UNL d   1       3.957  -0.074 -11.480 -0.40 -0.07    -0.776 OA
DOCKED: ATOM     35  H   UNL d   1       3.429   0.476 -12.074 -0.51 +0.03    +0.167 HD
DOCKED: ENDBRANCH  32  34
DOCKED: ENDBRANCH  31  32
DOCKED: ENDBRANCH  30  31
DOCKED: ENDBRANCH   6  30
DOCKED: BRANCH  29  36
DOCKED: ATOM     36  C   UNL d   1       2.830  -8.382  -6.764 -0.13 +0.03    +0.190 C 
DOCKED: BRANCH  36  37
DOCKED: ATOM     37  O   UNL d   1       3.573  -9.040  -7.750 +0.00 -0.06    -0.399 OA
DOCKED: ATOM     38  H   UNL d   1       3.277  -8.629  -8.610 +0.07 +0.04    +0.209 HD
DOCKED: ENDBRANCH  36  37
DOCKED: ENDBRANCH  29  36
DOCKED: BRANCH  22  39
DOCKED: ATOM     39  C   UNL d   1       0.374  -7.263 -12.123 -0.05 +0.03    +0.052 C 
DOCKED: BRANCH  39  40
DOCKED: ATOM     40  C   UNL d   1       1.463  -8.133 -12.772 -0.01 +0.03    +0.115 C 
DOCKED: BRANCH  40  41
DOCKED: ATOM     41  C   UNL d   1       2.249  -8.982 -11.795 -0.03 +0.03    +0.139 C 
DOCKED: ATOM     42  O   UNL d   1       2.322 -10.189 -11.976 +0.02 -0.11    -0.650 OA
DOCKED: BRANCH  41  43
DOCKED: ATOM     43  O   UNL d   1       2.945  -8.432 -10.776 +0.04 -0.17    -0.776 OA
DOCKED: ATOM     44  H   UNL d   1       3.152  -8.917  -9.967 +0.04 +0.03    +0.167 HD
DOCKED: ENDBRANCH  41  43
DOCKED: ENDBRANCH  40  41
DOCKED: ENDBRANCH  39  40
DOCKED: ENDBRANCH  22  39
DOCKED: BRANCH  12  45
DOCKED: ATOM     45  C   UNL d   1       1.884  -6.967  -1.000 -0.44 +0.00    +0.004 C 
DOCKED: ATOM     46  C   UNL d   1       2.201  -8.094  -0.368 -0.51 -0.00    +0.012 C 
DOCKED: ENDBRANCH  12  45
DOCKED: BRANCH  17  47
DOCKED: ATOM     47  C   UNL d   1      -1.767 -11.741  -5.996 -0.18 +0.00    +0.004 C 
DOCKED: ATOM     48  C   UNL d   1      -2.973 -12.075  -5.531 -0.19 +0.00    +0.012 C 
DOCKED: ENDBRANCH  17  47
DOCKED: TORSDOF 12
DOCKED: TER
DOCKED: ENDMDL
________________________________________________________________________________


	BEGINNING GENETIC ALGORITHM DOCKING 74 of 100
Run: 74 Seed: 1987056707 625217352 [ Run 74 of 100 GA/GALS ]
Beginning LAMARCKIAN GENETIC ALGORITHM (LGA), with a maximum of 25000000 energy evaluations.

Final-Value: -13.358


	FINAL GENETIC ALGORITHM DOCKED STATE
	_______________________________________________


Detailed state:  trans 8.844 14.005 35.048 quatxyzw -0.713989 0.358862 0.599174 0.049279 center 8.781 34.984 -0.736 ntor 12 -20.1102 142.5649 58.7381 -51.0729 91.0478 -102.5998 -140.1334 -156.9313 -179.9247 116.4127 180.0000 1.4792
State:	  8.844  14.005  35.048  -0.715  0.359  0.600 174.351    -20.11  142.56   58.74  -51.07   91.05 -102.60 -140.13 -156.93 -179.92  116.41  180.00    1.48

DOCKED: MODEL       74
DOCKED: USER    Run = 74
DOCKED: USER    DPF = D:/Protein_go_brrr/autodock/final/1A3N/heme_Co/dock.dpf
DOCKED: USER  
DOCKED: USER    Estimated Free Energy of Binding    =   -8.97 kcal/mol  [=(1)+(2)+(3)-(4)]
DOCKED: USER    Estimated Inhibition Constant, Ki   =  265.21 nM (nanomolar)  [Temperature = 298.15 K]
DOCKED: USER    
DOCKED: USER    (1) Final Intermolecular Energy     =  -12.55 kcal/mol
DOCKED: USER        vdW + Hbond + desolv Energy     =   -8.79 kcal/mol
DOCKED: USER        Electrostatic Energy            =   -3.76 kcal/mol
DOCKED: USER    (2) Final Total Internal Energy     =   -0.81 kcal/mol
DOCKED: USER    (3) Torsional Free Energy           =   +3.58 kcal/mol
DOCKED: USER    (4) Unbound System's Energy  [=(2)] =   -0.81 kcal/mol
DOCKED: USER    
DOCKED: USER    
DOCKED: USER    NEWDPF move heme_Co_opt.pdbqt
DOCKED: USER    NEWDPF about 8.781000 34.984000 -0.736000
DOCKED: USER    NEWDPF tran0 8.844224 14.005156 35.047795
DOCKED: USER    NEWDPF quaternion0 -0.713989 0.358862 0.599174 0.049279
DOCKED: USER    NEWDPF axisangle0 -0.714857 0.359299 0.599903 174.350708
DOCKED: USER    NEWDPF quat0 -0.714857 0.359299 0.599903 174.350708
DOCKED: USER    NEWDPF dihe0 -20.11 142.56 58.74 -51.07 91.05 -102.60 -140.13 -156.93 -179.92 116.41 180.00 1.48 
DOCKED: USER  keepresnum = 1 
DOCKED: USER  
DOCKED: REMARK  12 active torsions:
DOCKED: REMARK  status: ('A' for Active; 'I' for Inactive)
DOCKED: REMARK    1  A    between atoms: C_6  and  C_10 
DOCKED: REMARK    2  A    between atoms: C_10  and  C_11 
DOCKED: REMARK    3  A    between atoms: C_11  and  C_12 
DOCKED: REMARK    4  A    between atoms: C_12  and  O_14 
DOCKED: REMARK    5  A    between atoms: C_17  and  C_20 
DOCKED: REMARK    6  A    between atoms: C_24  and  C_27 
DOCKED: REMARK    7  A    between atoms: C_31  and  C_34 
DOCKED: REMARK    8  A    between atoms: C_34  and  C_35 
DOCKED: REMARK    9  A    between atoms: C_35  and  C_36 
DOCKED: REMARK   10  A    between atoms: C_36  and  O_38 
DOCKED: REMARK   11  A    between atoms: FE_43  and  C_44 
DOCKED: REMARK   12  A    between atoms: C_44  and  O_45 
DOCKED: USER                              x       y       z     vdW  Elec       q    Type
DOCKED: USER                           _______ _______ _______ _____ _____    ______ ____
DOCKED: ROOT
DOCKED: ATOM      1  C   UNL d   1       9.328  14.437  37.120 -0.03 +0.04    +0.064 A 
DOCKED: ATOM      2  C   UNL d   1       7.237  17.023  33.721 -0.16 +0.06    +0.064 C 
DOCKED: ATOM      3  C   UNL d   1       8.050  13.559  30.533 -0.21 +0.02    +0.064 A 
DOCKED: ATOM      4  C   UNL d   1       9.843  10.742  34.071 -0.15 +0.05    +0.064 A 
DOCKED: ATOM      5  C   UNL d   1       8.730  15.413  36.418 -0.06 +0.05    +0.066 A 
DOCKED: ATOM      6  C   UNL d   1       8.261  16.593  37.027 -0.05 -0.02    -0.021 A 
DOCKED: ATOM      7  C   UNL d   1       7.635  17.330  36.041 -0.07 -0.02    -0.025 A 
DOCKED: ATOM      8  C   UNL d   1       7.762  16.576  34.869 -0.11 +0.07    +0.066 A 
DOCKED: ATOM      9  C   UNL d   1       6.938  18.692  36.180 -0.08 +0.03    +0.051 C 
DOCKED: ATOM     10  C   UNL d   1       7.341  16.330  32.462 -0.21 +0.04    +0.066 A 
DOCKED: ATOM     11  C   UNL d   1       6.935  16.810  31.198 -0.28 -0.01    -0.021 A 
DOCKED: ATOM     12  C   UNL d   1       7.187  15.782  30.286 -0.34 +0.00    +0.000 A 
DOCKED: ATOM     13  C   UNL d   1       7.738  14.758  31.056 -0.28 +0.03    +0.070 A 
DOCKED: ATOM     14  C   UNL d   1       6.432  18.198  30.891 -0.30 +0.01    +0.052 C 
DOCKED: ATOM     15  C   UNL d   1       8.576  12.378  31.189 -0.23 +0.02    +0.066 A 
DOCKED: ATOM     16  C   UNL d   1       8.740  11.123  30.618 -0.29 -0.01    -0.021 A 
DOCKED: ATOM     17  C   UNL d   1       9.255  10.307  31.635 -0.36 +0.00    +0.000 A 
DOCKED: ATOM     18  C   UNL d   1       9.380  11.135  32.745 -0.20 +0.04    +0.070 A 
DOCKED: ATOM     19  C   UNL d   1       8.413  10.762  29.186 -0.37 +0.01    +0.052 C 
DOCKED: ATOM     20  C   UNL d   1       9.892  11.507  35.187 -0.19 +0.07    +0.066 A 
DOCKED: ATOM     21  C   UNL d   1      10.323  11.006  36.413 -0.18 -0.03    -0.025 A 
DOCKED: ATOM     22  C   UNL d   1      10.213  12.057  37.305 -0.11 -0.02    -0.021 A 
DOCKED: ATOM     23  C   UNL d   1       9.705  13.153  36.576 -0.07 +0.05    +0.066 A 
DOCKED: ATOM     24  C   UNL d   1      10.798   9.589  36.726 -0.14 +0.05    +0.051 C 
DOCKED: ATOM     25  N   UNL d   1       8.441  15.386  35.072 -0.07 -0.22    -0.248 N 
DOCKED: ATOM     26  N   UNL d   1       7.883  15.111  32.361 -0.14 -0.14    -0.248 N 
DOCKED: ATOM     27  N   UNL d   1       8.939  12.353  32.452 -0.16 -0.12    -0.248 N 
DOCKED: ATOM     28  N   UNL d   1       9.507  12.823  35.294 -0.07 -0.21    -0.248 N 
DOCKED: ATOM     29 FE   UNL d   1       8.707  13.778  33.687 -0.04 +0.00    +0.000 Fe
DOCKED: ENDROOT
DOCKED: BRANCH   6  30
DOCKED: ATOM     30  C   UNL d   1       8.345  16.947  38.508 -0.01 +0.02    +0.052 C 
DOCKED: BRANCH  30  31
DOCKED: ATOM     31  C   UNL d   1       7.045  16.579  39.223 -0.02 +0.06    +0.115 C 
DOCKED: BRANCH  31  32
DOCKED: ATOM     32  C   UNL d   1       6.009  16.008  38.279 +0.01 +0.17    +0.139 C 
DOCKED: ATOM     33  O   UNL d   1       5.970  14.801  38.089 -0.11 -1.03    -0.650 OA
DOCKED: BRANCH  32  34
DOCKED: ATOM     34  O   UNL d   1       5.085  16.787  37.670 +0.05 -1.25    -0.776 OA
DOCKED: ATOM     35  H   UNL d   1       4.786  17.642  38.010 +0.00 +0.15    +0.167 HD
DOCKED: ENDBRANCH  32  34
DOCKED: ENDBRANCH  31  32
DOCKED: ENDBRANCH  30  31
DOCKED: ENDBRANCH   6  30
DOCKED: BRANCH  29  36
DOCKED: ATOM     36  C   UNL d   1       6.787  13.139  34.235 -0.16 +0.22    +0.190 C 
DOCKED: BRANCH  36  37
DOCKED: ATOM     37  O   UNL d   1       5.455  13.120  33.808 -0.67 -0.58    -0.399 OA
DOCKED: ATOM     38  H   UNL d   1       5.504  13.113  32.812 -0.24 +0.14    +0.209 HD
DOCKED: ENDBRANCH  36  37
DOCKED: ENDBRANCH  29  36
DOCKED: BRANCH  22  39
DOCKED: ATOM     39  C   UNL d   1      10.519  11.987  38.790 -0.06 +0.03    +0.052 C 
DOCKED: BRANCH  39  40
DOCKED: ATOM     40  C   UNL d   1      11.880  12.633  39.095 -0.06 +0.08    +0.115 C 
DOCKED: BRANCH  40  41
DOCKED: ATOM     41  C   UNL d   1      13.071  11.859  38.569 +0.10 +0.17    +0.139 C 
DOCKED: ATOM     42  O   UNL d   1      12.937  10.679  38.279 -0.52 -0.98    -0.650 OA
DOCKED: BRANCH  41  43
DOCKED: ATOM     43  O   UNL d   1      14.258  12.459  38.330 -0.02 -0.93    -0.776 OA
DOCKED: ATOM     44  H   UNL d   1      14.796  12.846  39.033 +0.01 +0.11    +0.167 HD
DOCKED: ENDBRANCH  41  43
DOCKED: ENDBRANCH  40  41
DOCKED: ENDBRANCH  39  40
DOCKED: ENDBRANCH  22  39
DOCKED: BRANCH  12  45
DOCKED: ATOM     45  C   UNL d   1       6.990  15.657  28.781 -0.46 +0.00    +0.004 C 
DOCKED: ATOM     46  C   UNL d   1       5.887  15.747  28.042 -0.55 +0.00    +0.012 C 
DOCKED: ENDBRANCH  12  45
DOCKED: BRANCH  17  47
DOCKED: ATOM     47  C   UNL d   1       9.568   8.847  31.619 -0.53 +0.00    +0.004 C 
DOCKED: ATOM     48  C   UNL d   1      10.575   8.316  30.922 -0.59 +0.00    +0.012 C 
DOCKED: ENDBRANCH  17  47
DOCKED: TORSDOF 12
DOCKED: TER
DOCKED: ENDMDL
________________________________________________________________________________


	BEGINNING GENETIC ALGORITHM DOCKING 75 of 100
Run: 75 Seed: 107193327 2017841067 [ Run 75 of 100 GA/GALS ]
Beginning LAMARCKIAN GENETIC ALGORITHM (LGA), with a maximum of 25000000 energy evaluations.

Final-Value: -11.779


	FINAL GENETIC ALGORITHM DOCKED STATE
	_______________________________________________


Detailed state:  trans 1.535 -6.962 -8.863 quatxyzw 0.609797 -0.064500 0.770984 0.171961 center 8.781 34.984 -0.736 ntor 12 -172.4342 98.4222 -146.7626 7.5096 82.2089 83.3114 -117.9131 120.6156 -92.2289 149.1308 -4.3503 167.6587
State:	  1.535  -6.962  -8.863   0.619 -0.065  0.783 160.196   -172.43   98.42 -146.76    7.51   82.21   83.31 -117.91  120.62  -92.23  149.13   -4.35  167.66

DOCKED: MODEL       75
DOCKED: USER    Run = 75
DOCKED: USER    DPF = D:/Protein_go_brrr/autodock/final/1A3N/heme_Co/dock.dpf
DOCKED: USER  
DOCKED: USER    Estimated Free Energy of Binding    =   -6.06 kcal/mol  [=(1)+(2)+(3)-(4)]
DOCKED: USER    Estimated Inhibition Constant, Ki   =   36.31 uM (micromolar)  [Temperature = 298.15 K]
DOCKED: USER    
DOCKED: USER    (1) Final Intermolecular Energy     =   -9.64 kcal/mol
DOCKED: USER        vdW + Hbond + desolv Energy     =   -8.82 kcal/mol
DOCKED: USER        Electrostatic Energy            =   -0.82 kcal/mol
DOCKED: USER    (2) Final Total Internal Energy     =   -2.14 kcal/mol
DOCKED: USER    (3) Torsional Free Energy           =   +3.58 kcal/mol
DOCKED: USER    (4) Unbound System's Energy  [=(2)] =   -2.14 kcal/mol
DOCKED: USER    
DOCKED: USER    
DOCKED: USER    NEWDPF move heme_Co_opt.pdbqt
DOCKED: USER    NEWDPF about 8.781000 34.984000 -0.736000
DOCKED: USER    NEWDPF tran0 1.534845 -6.961760 -8.863399
DOCKED: USER    NEWDPF quaternion0 0.609797 -0.064500 0.770984 0.171961
DOCKED: USER    NEWDPF axisangle0 0.619018 -0.065475 0.782642 160.196257
DOCKED: USER    NEWDPF quat0 0.619018 -0.065475 0.782642 160.196257
DOCKED: USER    NEWDPF dihe0 -172.43 98.42 -146.76 7.51 82.21 83.31 -117.91 120.62 -92.23 149.13 -4.35 167.66 
DOCKED: USER  keepresnum = 1 
DOCKED: USER  
DOCKED: REMARK  12 active torsions:
DOCKED: REMARK  status: ('A' for Active; 'I' for Inactive)
DOCKED: REMARK    1  A    between atoms: C_6  and  C_10 
DOCKED: REMARK    2  A    between atoms: C_10  and  C_11 
DOCKED: REMARK    3  A    between atoms: C_11  and  C_12 
DOCKED: REMARK    4  A    between atoms: C_12  and  O_14 
DOCKED: REMARK    5  A    between atoms: C_17  and  C_20 
DOCKED: REMARK    6  A    between atoms: C_24  and  C_27 
DOCKED: REMARK    7  A    between atoms: C_31  and  C_34 
DOCKED: REMARK    8  A    between atoms: C_34  and  C_35 
DOCKED: REMARK    9  A    between atoms: C_35  and  C_36 
DOCKED: REMARK   10  A    between atoms: C_36  and  O_38 
DOCKED: REMARK   11  A    between atoms: FE_43  and  C_44 
DOCKED: REMARK   12  A    between atoms: C_44  and  O_45 
DOCKED: USER                              x       y       z     vdW  Elec       q    Type
DOCKED: USER                           _______ _______ _______ _____ _____    ______ ____
DOCKED: ROOT
DOCKED: ATOM      1  C   UNL d   1       1.191  -6.856 -11.005 -0.08 +0.04    +0.064 A 
DOCKED: ATOM      2  C   UNL d   1       4.042  -4.396  -8.100 -0.33 +0.01    +0.064 C 
DOCKED: ATOM      3  C   UNL d   1       2.196  -6.654  -4.316 -0.27 +0.01    +0.064 A 
DOCKED: ATOM      4  C   UNL d   1      -0.448  -9.451  -7.290 -0.09 +0.03    +0.064 A 
DOCKED: ATOM      5  C   UNL d   1       2.080  -5.992 -10.486 -0.10 +0.03    +0.066 A 
DOCKED: ATOM      6  C   UNL d   1       2.896  -5.181 -11.299 -0.08 -0.01    -0.021 A 
DOCKED: ATOM      7  C   UNL d   1       3.736  -4.486 -10.452 -0.13 -0.00    -0.025 A 
DOCKED: ATOM      8  C   UNL d   1       3.387  -4.890  -9.159 -0.19 +0.01    +0.066 A 
DOCKED: ATOM      9  C   UNL d   1       4.832  -3.478 -10.830 -0.17 +0.00    +0.051 C 
DOCKED: ATOM     10  C   UNL d   1       3.735  -4.733  -6.733 -0.34 +0.01    +0.066 A 
DOCKED: ATOM     11  C   UNL d   1       4.289  -4.145  -5.575 -0.44 -0.00    -0.021 A 
DOCKED: ATOM     12  C   UNL d   1       3.730  -4.819  -4.485 -0.42 +0.00    +0.000 A 
DOCKED: ATOM     13  C   UNL d   1       2.870  -5.757  -5.057 -0.22 +0.02    +0.070 A 
DOCKED: ATOM     14  C   UNL d   1       5.214  -2.956  -5.533 -0.49 +0.00    +0.052 C 
DOCKED: ATOM     15  C   UNL d   1       1.311  -7.720  -4.742 -0.33 +0.01    +0.066 A 
DOCKED: ATOM     16  C   UNL d   1       0.759  -8.704  -3.934 -0.38 -0.00    -0.021 A 
DOCKED: ATOM     17  C   UNL d   1      -0.002  -9.515  -4.787 -0.33 +0.00    +0.000 A 
DOCKED: ATOM     18  C   UNL d   1       0.132  -8.949  -6.051 -0.24 +0.02    +0.070 A 
DOCKED: ATOM     19  C   UNL d   1       0.969  -8.833  -2.441 -0.43 +0.00    +0.052 C 
DOCKED: ATOM     20  C   UNL d   1      -0.262  -8.969  -8.542 -0.15 +0.04    +0.066 A 
DOCKED: ATOM     21  C   UNL d   1      -0.845  -9.559  -9.661 -0.11 -0.01    -0.025 A 
DOCKED: ATOM     22  C   UNL d   1      -0.414  -8.815 -10.744 -0.09 -0.01    -0.021 A 
DOCKED: ATOM     23  C   UNL d   1       0.428  -7.806 -10.229 -0.12 +0.05    +0.066 A 
DOCKED: ATOM     24  C   UNL d   1      -1.754 -10.785  -9.700 -0.08 +0.02    +0.051 C 
DOCKED: ATOM     25  N   UNL d   1       2.360  -5.818  -9.150 -0.12 -0.10    -0.248 N 
DOCKED: ATOM     26  N   UNL d   1       2.832  -5.666  -6.413 -0.20 -0.06    -0.248 N 
DOCKED: ATOM     27  N   UNL d   1       0.945  -7.900  -5.991 -0.18 -0.09    -0.248 N 
DOCKED: ATOM     28  N   UNL d   1       0.524  -7.897  -8.897 -0.13 -0.19    -0.248 N 
DOCKED: ATOM     29 FE   UNL d   1       1.608  -6.922  -7.479 -0.06 +0.00    +0.000 Fe
DOCKED: ENDROOT
DOCKED: BRANCH   6  30
DOCKED: ATOM     30  C   UNL d   1       2.912  -5.146 -12.824 -0.03 +0.01    +0.052 C 
DOCKED: BRANCH  30  31
DOCKED: ATOM     31  C   UNL d   1       1.754  -4.303 -13.355 -0.05 +0.04    +0.115 C 
DOCKED: BRANCH  31  32
DOCKED: ATOM     32  C   UNL d   1       2.096  -2.830 -13.426 -0.12 +0.05    +0.139 C 
DOCKED: ATOM     33  O   UNL d   1       2.192  -2.288 -14.517 -0.50 -0.41    -0.650 OA
DOCKED: BRANCH  32  34
DOCKED: ATOM     34  O   UNL d   1       2.255  -2.076 -12.314 +0.09 -0.22    -0.776 OA
DOCKED: ATOM     35  H   UNL d   1       2.427  -1.124 -12.322 -0.19 +0.02    +0.167 HD
DOCKED: ENDBRANCH  32  34
DOCKED: ENDBRANCH  31  32
DOCKED: ENDBRANCH  30  31
DOCKED: ENDBRANCH   6  30
DOCKED: BRANCH  29  36
DOCKED: ATOM     36  C   UNL d   1       3.214  -8.238  -7.769 +0.06 +0.04    +0.190 C 
DOCKED: BRANCH  36  37
DOCKED: ATOM     37  O   UNL d   1       3.701  -9.230  -8.627 -0.12 -0.06    -0.399 OA
DOCKED: ATOM     38  H   UNL d   1       2.919  -9.488  -9.191 +0.06 +0.04    +0.209 HD
DOCKED: ENDBRANCH  36  37
DOCKED: ENDBRANCH  29  36
DOCKED: BRANCH  22  39
DOCKED: ATOM     39  C   UNL d   1      -0.743  -9.102 -12.196 -0.03 +0.02    +0.052 C 
DOCKED: BRANCH  39  40
DOCKED: ATOM     40  C   UNL d   1       0.322 -10.018 -12.823 -0.01 +0.03    +0.115 C 
DOCKED: BRANCH  40  41
DOCKED: ATOM     41  C   UNL d   1       1.733  -9.756 -12.342 -0.02 +0.03    +0.139 C 
DOCKED: ATOM     42  O   UNL d   1       2.498  -9.116 -13.049 +0.01 -0.11    -0.650 OA
DOCKED: BRANCH  41  43
DOCKED: ATOM     43  O   UNL d   1       2.146 -10.136 -11.112 +0.03 -0.15    -0.776 OA
DOCKED: ATOM     44  H   UNL d   1       2.722  -9.586 -10.565 +0.03 +0.03    +0.167 HD
DOCKED: ENDBRANCH  41  43
DOCKED: ENDBRANCH  40  41
DOCKED: ENDBRANCH  39  40
DOCKED: ENDBRANCH  22  39
DOCKED: BRANCH  12  45
DOCKED: ATOM     45  C   UNL d   1       3.895  -4.674  -2.979 -0.48 +0.00    +0.004 C 
DOCKED: ATOM     46  C   UNL d   1       4.655  -3.847  -2.266 -0.51 +0.00    +0.012 C 
DOCKED: ENDBRANCH  12  45
DOCKED: BRANCH  17  47
DOCKED: ATOM     47  C   UNL d   1      -0.768 -10.761  -4.487 -0.34 +0.00    +0.004 C 
DOCKED: ATOM     48  C   UNL d   1      -1.782 -10.813  -3.621 -0.38 -0.00    +0.012 C 
DOCKED: ENDBRANCH  17  47
DOCKED: TORSDOF 12
DOCKED: TER
DOCKED: ENDMDL
________________________________________________________________________________


	BEGINNING GENETIC ALGORITHM DOCKING 76 of 100
Run: 76 Seed: 518986354 573446328 [ Run 76 of 100 GA/GALS ]
Beginning LAMARCKIAN GENETIC ALGORITHM (LGA), with a maximum of 25000000 energy evaluations.

Final-Value: -13.498


	FINAL GENETIC ALGORITHM DOCKED STATE
	_______________________________________________


Detailed state:  trans 22.898 -6.957 35.932 quatxyzw -0.577424 -0.698586 -0.370937 0.202398 center 8.781 34.984 -0.736 ntor 12 121.2005 104.5253 -27.1818 10.4916 -36.2875 98.4702 156.6651 -38.4179 -75.8516 -161.5390 -168.5171 156.5761
State:	 22.898  -6.957  35.932  -0.590 -0.713 -0.379 156.646    121.20  104.53  -27.18   10.49  -36.29   98.47  156.67  -38.42  -75.85 -161.54 -168.52  156.58

DOCKED: MODEL       76
DOCKED: USER    Run = 76
DOCKED: USER    DPF = D:/Protein_go_brrr/autodock/final/1A3N/heme_Co/dock.dpf
DOCKED: USER  
DOCKED: USER    Estimated Free Energy of Binding    =   -7.06 kcal/mol  [=(1)+(2)+(3)-(4)]
DOCKED: USER    Estimated Inhibition Constant, Ki   =    6.65 uM (micromolar)  [Temperature = 298.15 K]
DOCKED: USER    
DOCKED: USER    (1) Final Intermolecular Energy     =  -10.64 kcal/mol
DOCKED: USER        vdW + Hbond + desolv Energy     =   -8.82 kcal/mol
DOCKED: USER        Electrostatic Energy            =   -1.82 kcal/mol
DOCKED: USER    (2) Final Total Internal Energy     =   -2.86 kcal/mol
DOCKED: USER    (3) Torsional Free Energy           =   +3.58 kcal/mol
DOCKED: USER    (4) Unbound System's Energy  [=(2)] =   -2.86 kcal/mol
DOCKED: USER    
DOCKED: USER    
DOCKED: USER    NEWDPF move heme_Co_opt.pdbqt
DOCKED: USER    NEWDPF about 8.781000 34.984000 -0.736000
DOCKED: USER    NEWDPF tran0 22.897972 -6.957091 35.932160
DOCKED: USER    NEWDPF quaternion0 -0.577424 -0.698586 -0.370937 0.202398
DOCKED: USER    NEWDPF axisangle0 -0.589627 -0.713350 -0.378776 156.645545
DOCKED: USER    NEWDPF quat0 -0.589627 -0.713350 -0.378776 156.645545
DOCKED: USER    NEWDPF dihe0 121.20 104.53 -27.18 10.49 -36.29 98.47 156.67 -38.42 -75.85 -161.54 -168.52 156.58 
DOCKED: USER  keepresnum = 1 
DOCKED: USER  
DOCKED: REMARK  12 active torsions:
DOCKED: REMARK  status: ('A' for Active; 'I' for Inactive)
DOCKED: REMARK    1  A    between atoms: C_6  and  C_10 
DOCKED: REMARK    2  A    between atoms: C_10  and  C_11 
DOCKED: REMARK    3  A    between atoms: C_11  and  C_12 
DOCKED: REMARK    4  A    between atoms: C_12  and  O_14 
DOCKED: REMARK    5  A    between atoms: C_17  and  C_20 
DOCKED: REMARK    6  A    between atoms: C_24  and  C_27 
DOCKED: REMARK    7  A    between atoms: C_31  and  C_34 
DOCKED: REMARK    8  A    between atoms: C_34  and  C_35 
DOCKED: REMARK    9  A    between atoms: C_35  and  C_36 
DOCKED: REMARK   10  A    between atoms: C_36  and  O_38 
DOCKED: REMARK   11  A    between atoms: FE_43  and  C_44 
DOCKED: REMARK   12  A    between atoms: C_44  and  O_45 
DOCKED: USER                              x       y       z     vdW  Elec       q    Type
DOCKED: USER                           _______ _______ _______ _____ _____    ______ ____
DOCKED: ROOT
DOCKED: ATOM      1  C   UNL d   1      23.107  -9.022  36.572 -0.17 +0.02    +0.064 A 
DOCKED: ATOM      2  C   UNL d   1      23.701  -6.908  32.354 -0.25 +0.00    +0.064 C 
DOCKED: ATOM      3  C   UNL d   1      22.156  -2.767  34.169 -0.41 +0.01    +0.064 A 
DOCKED: ATOM      4  C   UNL d   1      21.909  -4.807  38.578 +0.02 +0.01    +0.064 A 
DOCKED: ATOM      5  C   UNL d   1      23.348  -8.757  35.277 -0.24 +0.02    +0.066 A 
DOCKED: ATOM      6  C   UNL d   1      23.893  -9.721  34.407 -0.27 -0.00    -0.021 A 
DOCKED: ATOM      7  C   UNL d   1      24.084  -9.096  33.190 -0.33 -0.00    -0.025 A 
DOCKED: ATOM      8  C   UNL d   1      23.633  -7.783  33.366 -0.32 +0.01    +0.066 A 
DOCKED: ATOM      9  C   UNL d   1      24.669  -9.698  31.903 -0.42 +0.01    +0.051 C 
DOCKED: ATOM     10  C   UNL d   1      23.237  -5.546  32.433 -0.24 +0.01    +0.066 A 
DOCKED: ATOM     11  C   UNL d   1      23.150  -4.621  31.370 -0.37 -0.00    -0.021 A 
DOCKED: ATOM     12  C   UNL d   1      22.693  -3.423  31.926 -0.48 +0.00    +0.000 A 
DOCKED: ATOM     13  C   UNL d   1      22.523  -3.708  33.281 -0.40 +0.01    +0.070 A 
DOCKED: ATOM     14  C   UNL d   1      23.400  -4.911  29.912 -0.44 +0.00    +0.052 C 
DOCKED: ATOM     15  C   UNL d   1      21.985  -2.874  35.605 -0.29 +0.01    +0.066 A 
DOCKED: ATOM     16  C   UNL d   1      21.745  -1.828  36.485 -0.27 -0.00    -0.021 A 
DOCKED: ATOM     17  C   UNL d   1      21.675  -2.411  37.758 -0.15 +0.00    +0.000 A 
DOCKED: ATOM     18  C   UNL d   1      21.862  -3.774  37.551 +0.07 +0.01    +0.070 A 
DOCKED: ATOM     19  C   UNL d   1      21.599  -0.373  36.099 -0.19 -0.00    +0.052 C 
DOCKED: ATOM     20  C   UNL d   1      22.175  -6.125  38.411 -0.04 +0.01    +0.066 A 
DOCKED: ATOM     21  C   UNL d   1      22.227  -7.015  39.481 -0.09 -0.01    -0.025 A 
DOCKED: ATOM     22  C   UNL d   1      22.542  -8.243  38.930 -0.11 -0.01    -0.021 A 
DOCKED: ATOM     23  C   UNL d   1      22.679  -8.038  37.540 -0.16 +0.02    +0.066 A 
DOCKED: ATOM     24  C   UNL d   1      22.008  -6.707  40.960 -0.04 +0.01    +0.051 C 
DOCKED: ATOM     25  N   UNL d   1      23.166  -7.547  34.647 -0.19 -0.05    -0.248 N 
DOCKED: ATOM     26  N   UNL d   1      22.799  -5.007  33.576 -0.23 -0.03    -0.248 N 
DOCKED: ATOM     27  N   UNL d   1      22.074  -4.009  36.261 +0.01 -0.04    -0.248 N 
DOCKED: ATOM     28  N   UNL d   1      22.460  -6.756  37.222 -0.11 -0.06    -0.248 N 
DOCKED: ATOM     29 FE   UNL d   1      22.587  -5.675  35.505 -0.06 +0.00    +0.000 Fe
DOCKED: ENDROOT
DOCKED: BRANCH   6  30
DOCKED: ATOM     30  C   UNL d   1      24.284 -11.151  34.763 -0.22 +0.01    +0.052 C 
DOCKED: BRANCH  30  31
DOCKED: ATOM     31  C   UNL d   1      25.692 -11.191  35.358 -0.13 +0.04    +0.115 C 
DOCKED: BRANCH  31  32
DOCKED: ATOM     32  C   UNL d   1      25.678 -11.332  36.865 -0.12 +0.07    +0.139 C 
DOCKED: ATOM     33  O   UNL d   1      24.731 -11.880  37.408 +0.01 -0.19    -0.650 OA
DOCKED: BRANCH  32  34
DOCKED: ATOM     34  O   UNL d   1      26.708 -10.912  37.634 +0.00 -0.69    -0.776 OA
DOCKED: ATOM     35  H   UNL d   1      26.641 -10.212  38.299 +0.00 +0.21    +0.167 HD
DOCKED: ENDBRANCH  32  34
DOCKED: ENDBRANCH  31  32
DOCKED: ENDBRANCH  30  31
DOCKED: ENDBRANCH   6  30
DOCKED: BRANCH  29  36
DOCKED: ATOM     36  C   UNL d   1      24.626  -5.328  35.847 -0.02 +0.07    +0.190 C 
DOCKED: BRANCH  36  37
DOCKED: ATOM     37  O   UNL d   1      25.759  -5.865  36.467 -0.14 -0.31    -0.399 OA
DOCKED: ATOM     38  H   UNL d   1      25.417  -6.635  37.003 +0.05 +0.20    +0.209 HD
DOCKED: ENDBRANCH  36  37
DOCKED: ENDBRANCH  29  36
DOCKED: BRANCH  22  39
DOCKED: ATOM     39  C   UNL d   1      22.763  -9.527  39.708 -0.06 +0.01    +0.052 C 
DOCKED: BRANCH  39  40
DOCKED: ATOM     40  C   UNL d   1      24.264  -9.828  39.845 -0.04 +0.04    +0.115 C 
DOCKED: BRANCH  40  41
DOCKED: ATOM     41  C   UNL d   1      25.170  -8.673  39.469 -0.07 +0.11    +0.139 C 
DOCKED: ATOM     42  O   UNL d   1      25.649  -7.977  40.353 -0.02 -0.46    -0.650 OA
DOCKED: BRANCH  41  43
DOCKED: ATOM     43  O   UNL d   1      25.533  -8.443  38.188 -0.57 -1.08    -0.776 OA
DOCKED: ATOM     44  H   UNL d   1      25.495  -9.127  37.507 +0.02 +0.20    +0.167 HD
DOCKED: ENDBRANCH  41  43
DOCKED: ENDBRANCH  40  41
DOCKED: ENDBRANCH  39  40
DOCKED: ENDBRANCH  22  39
DOCKED: BRANCH  12  45
DOCKED: ATOM     45  C   UNL d   1      22.381  -2.055  31.334 -0.55 +0.00    +0.004 C 
DOCKED: ATOM     46  C   UNL d   1      22.429  -1.625  30.076 -0.60 +0.00    +0.012 C 
DOCKED: ENDBRANCH  12  45
DOCKED: BRANCH  17  47
DOCKED: ATOM     47  C   UNL d   1      21.500  -1.767  39.094 -0.10 +0.00    +0.004 C 
DOCKED: ATOM     48  C   UNL d   1      22.329  -0.839  39.579 -0.10 +0.00    +0.012 C 
DOCKED: ENDBRANCH  17  47
DOCKED: TORSDOF 12
DOCKED: TER
DOCKED: ENDMDL
________________________________________________________________________________


	BEGINNING GENETIC ALGORITHM DOCKING 77 of 100
Run: 77 Seed: 1588565776 639051722 [ Run 77 of 100 GA/GALS ]
Beginning LAMARCKIAN GENETIC ALGORITHM (LGA), with a maximum of 25000000 energy evaluations.

Final-Value: -12.249


	FINAL GENETIC ALGORITHM DOCKED STATE
	_______________________________________________


Detailed state:  trans 13.328 5.393 14.160 quatxyzw -0.104052 -0.887146 0.297086 0.337469 center 8.781 34.984 -0.736 ntor 12 -15.9038 169.8794 -136.5674 112.2162 77.4562 -160.7264 118.9714 77.4589 90.9622 117.4346 -123.7625 -172.2536
State:	 13.328   5.393  14.160  -0.111 -0.942  0.316 140.555    -15.90  169.88 -136.57  112.22   77.46 -160.73  118.97   77.46   90.96  117.43 -123.76 -172.25

DOCKED: MODEL       77
DOCKED: USER    Run = 77
DOCKED: USER    DPF = D:/Protein_go_brrr/autodock/final/1A3N/heme_Co/dock.dpf
DOCKED: USER  
DOCKED: USER    Estimated Free Energy of Binding    =   -6.63 kcal/mol  [=(1)+(2)+(3)-(4)]
DOCKED: USER    Estimated Inhibition Constant, Ki   =   13.89 uM (micromolar)  [Temperature = 298.15 K]
DOCKED: USER    
DOCKED: USER    (1) Final Intermolecular Energy     =  -10.21 kcal/mol
DOCKED: USER        vdW + Hbond + desolv Energy     =   -8.01 kcal/mol
DOCKED: USER        Electrostatic Energy            =   -2.20 kcal/mol
DOCKED: USER    (2) Final Total Internal Energy     =   -2.04 kcal/mol
DOCKED: USER    (3) Torsional Free Energy           =   +3.58 kcal/mol
DOCKED: USER    (4) Unbound System's Energy  [=(2)] =   -2.04 kcal/mol
DOCKED: USER    
DOCKED: USER    
DOCKED: USER    NEWDPF move heme_Co_opt.pdbqt
DOCKED: USER    NEWDPF about 8.781000 34.984000 -0.736000
DOCKED: USER    NEWDPF tran0 13.328041 5.393234 14.160307
DOCKED: USER    NEWDPF quaternion0 -0.104052 -0.887146 0.297086 0.337469
DOCKED: USER    NEWDPF axisangle0 -0.110536 -0.942432 0.315600 140.554523
DOCKED: USER    NEWDPF quat0 -0.110536 -0.942432 0.315600 140.554523
DOCKED: USER    NEWDPF dihe0 -15.90 169.88 -136.57 112.22 77.46 -160.73 118.97 77.46 90.96 117.43 -123.76 -172.25 
DOCKED: USER  keepresnum = 1 
DOCKED: USER  
DOCKED: REMARK  12 active torsions:
DOCKED: REMARK  status: ('A' for Active; 'I' for Inactive)
DOCKED: REMARK    1  A    between atoms: C_6  and  C_10 
DOCKED: REMARK    2  A    between atoms: C_10  and  C_11 
DOCKED: REMARK    3  A    between atoms: C_11  and  C_12 
DOCKED: REMARK    4  A    between atoms: C_12  and  O_14 
DOCKED: REMARK    5  A    between atoms: C_17  and  C_20 
DOCKED: REMARK    6  A    between atoms: C_24  and  C_27 
DOCKED: REMARK    7  A    between atoms: C_31  and  C_34 
DOCKED: REMARK    8  A    between atoms: C_34  and  C_35 
DOCKED: REMARK    9  A    between atoms: C_35  and  C_36 
DOCKED: REMARK   10  A    between atoms: C_36  and  O_38 
DOCKED: REMARK   11  A    between atoms: FE_43  and  C_44 
DOCKED: REMARK   12  A    between atoms: C_44  and  O_45 
DOCKED: USER                              x       y       z     vdW  Elec       q    Type
DOCKED: USER                           _______ _______ _______ _____ _____    ______ ____
DOCKED: ROOT
DOCKED: ATOM      1  C   UNL d   1      14.516   6.332  15.717 -0.30 +0.03    +0.064 A 
DOCKED: ATOM      2  C   UNL d   1      14.552   1.948  13.876 -0.16 +0.03    +0.064 C 
DOCKED: ATOM      3  C   UNL d   1      10.732   2.998  11.204 -0.19 +0.00    +0.064 A 
DOCKED: ATOM      4  C   UNL d   1      10.910   7.596  12.781 -0.10 +0.02    +0.064 A 
DOCKED: ATOM      5  C   UNL d   1      14.784   5.046  15.437 -0.27 +0.04    +0.066 A 
DOCKED: ATOM      6  C   UNL d   1      15.900   4.380  15.981 -0.23 -0.01    -0.021 A 
DOCKED: ATOM      7  C   UNL d   1      15.919   3.115  15.426 -0.20 -0.00    -0.025 A 
DOCKED: ATOM      8  C   UNL d   1      14.805   3.058  14.580 -0.15 +0.04    +0.066 A 
DOCKED: ATOM      9  C   UNL d   1      16.939   1.993  15.671 -0.20 -0.03    +0.051 C 
DOCKED: ATOM     10  C   UNL d   1      13.417   1.788  13.001 -0.14 +0.04    +0.066 A 
DOCKED: ATOM     11  C   UNL d   1      13.019   0.603  12.344 -0.14 -0.01    -0.021 A 
DOCKED: ATOM     12  C   UNL d   1      11.900   0.937  11.576 -0.22 +0.00    +0.000 A 
DOCKED: ATOM     13  C   UNL d   1      11.692   2.293  11.829 -0.18 +0.03    +0.070 A 
DOCKED: ATOM     14  C   UNL d   1      13.622  -0.765  12.528 -0.08 +0.01    +0.052 C 
DOCKED: ATOM     15  C   UNL d   1      10.413   4.408  11.307 -0.09 +0.01    +0.066 A 
DOCKED: ATOM     16  C   UNL d   1       9.502   5.104  10.525 -0.16 +0.00    -0.021 A 
DOCKED: ATOM     17  C   UNL d   1       9.551   6.432  10.974 -0.13 +0.00    +0.000 A 
DOCKED: ATOM     18  C   UNL d   1      10.479   6.437  12.010 -0.10 +0.02    +0.070 A 
DOCKED: ATOM     19  C   UNL d   1       8.655   4.507   9.423 -0.22 -0.02    +0.052 C 
DOCKED: ATOM     20  C   UNL d   1      11.872   7.642  13.734 -0.13 +0.02    +0.066 A 
DOCKED: ATOM     21  C   UNL d   1      12.222   8.825  14.381 -0.19 -0.01    -0.025 A 
DOCKED: ATOM     22  C   UNL d   1      13.240   8.486  15.254 -0.25 -0.01    -0.021 A 
DOCKED: ATOM     23  C   UNL d   1      13.470   7.104  15.086 -0.26 +0.03    +0.066 A 
DOCKED: ATOM     24  C   UNL d   1      11.631  10.215  14.164 -0.29 +0.01    +0.051 C 
DOCKED: ATOM     25  N   UNL d   1      14.081   4.238  14.572 -0.17 -0.18    -0.248 N 
DOCKED: ATOM     26  N   UNL d   1      12.576   2.792  12.735 -0.11 -0.21    -0.248 N 
DOCKED: ATOM     27  N   UNL d   1      10.994   5.221  12.160 -0.00 -0.09    -0.248 N 
DOCKED: ATOM     28  N   UNL d   1      12.645   6.589  14.165 -0.13 -0.13    -0.248 N 
DOCKED: ATOM     29 FE   UNL d   1      12.446   4.762  13.296 -0.05 +0.00    +0.000 Fe
DOCKED: ENDROOT
DOCKED: BRANCH   6  30
DOCKED: ATOM     30  C   UNL d   1      16.940   4.970  16.927 -0.41 -0.01    +0.052 C 
DOCKED: BRANCH  30  31
DOCKED: ATOM     31  C   UNL d   1      17.277   6.406  16.526 -0.29 +0.04    +0.115 C 
DOCKED: BRANCH  31  32
DOCKED: ATOM     32  C   UNL d   1      18.442   6.478  15.562 -0.16 +0.10    +0.139 C 
DOCKED: ATOM     33  O   UNL d   1      19.111   5.477  15.352 +0.02 -0.37    -0.650 OA
DOCKED: BRANCH  32  34
DOCKED: ATOM     34  O   UNL d   1      18.742   7.608  14.881 +0.08 -0.68    -0.776 OA
DOCKED: ATOM     35  H   UNL d   1      18.120   8.334  14.732 +0.03 +0.15    +0.167 HD
DOCKED: ENDBRANCH  32  34
DOCKED: ENDBRANCH  31  32
DOCKED: ENDBRANCH  30  31
DOCKED: ENDBRANCH   6  30
DOCKED: BRANCH  29  36
DOCKED: ATOM     36  C   UNL d   1      13.880   5.266  11.853 -0.12 +0.16    +0.190 C 
DOCKED: BRANCH  36  37
DOCKED: ATOM     37  O   UNL d   1      15.067   4.824  11.259 -0.49 -0.61    -0.399 OA
DOCKED: ATOM     38  H   UNL d   1      14.851   3.919  10.898 +0.07 +0.15    +0.209 HD
DOCKED: ENDBRANCH  36  37
DOCKED: ENDBRANCH  29  36
DOCKED: BRANCH  22  39
DOCKED: ATOM     39  C   UNL d   1      13.990   9.454  16.149 -0.35 +0.01    +0.052 C 
DOCKED: BRANCH  39  40
DOCKED: ATOM     40  C   UNL d   1      14.908  10.363  15.316 -0.20 +0.02    +0.115 C 
DOCKED: BRANCH  40  41
DOCKED: ATOM     41  C   UNL d   1      16.076   9.649  14.670 -0.11 +0.06    +0.139 C 
DOCKED: ATOM     42  O   UNL d   1      17.150  10.226  14.570 +0.05 -0.25    -0.650 OA
DOCKED: BRANCH  41  43
DOCKED: ATOM     43  O   UNL d   1      15.991   8.358  14.280 -0.37 -0.90    -0.776 OA
DOCKED: ATOM     44  H   UNL d   1      16.654   7.697  14.521 +0.03 +0.28    +0.167 HD
DOCKED: ENDBRANCH  41  43
DOCKED: ENDBRANCH  40  41
DOCKED: ENDBRANCH  39  40
DOCKED: ENDBRANCH  22  39
DOCKED: BRANCH  12  45
DOCKED: ATOM     45  C   UNL d   1      10.998   0.131  10.651 -0.16 -0.00    +0.004 C 
DOCKED: ATOM     46  C   UNL d   1       9.771  -0.346  10.838 -0.30 -0.01    +0.012 C 
DOCKED: ENDBRANCH  12  45
DOCKED: BRANCH  17  47
DOCKED: ATOM     47  C   UNL d   1       8.837   7.639  10.462 -0.19 -0.00    +0.004 C 
DOCKED: ATOM     48  C   UNL d   1       7.509   7.718  10.351 -0.33 -0.00    +0.012 C 
DOCKED: ENDBRANCH  17  47
DOCKED: TORSDOF 12
DOCKED: TER
DOCKED: ENDMDL
________________________________________________________________________________


	BEGINNING GENETIC ALGORITHM DOCKING 78 of 100
Run: 78 Seed: 2090679192 932524733 [ Run 78 of 100 GA/GALS ]
Beginning LAMARCKIAN GENETIC ALGORITHM (LGA), with a maximum of 25000000 energy evaluations.

Final-Value: -13.624


	FINAL GENETIC ALGORITHM DOCKED STATE
	_______________________________________________


Detailed state:  trans 8.442 14.277 33.592 quatxyzw 0.725899 -0.369593 -0.574437 -0.080584 center 8.781 34.984 -0.736 ntor 12 95.1921 79.6394 -149.9539 104.4921 134.2118 96.7648 -132.3496 123.2097 -57.9965 149.7303 147.0209 166.5231
State:	  8.442  14.277  33.592   0.728 -0.371 -0.576 -170.756     95.19   79.64 -149.95  104.49  134.21   96.76 -132.35  123.21  -58.00  149.73  147.02  166.52

DOCKED: MODEL       78
DOCKED: USER    Run = 78
DOCKED: USER    DPF = D:/Protein_go_brrr/autodock/final/1A3N/heme_Co/dock.dpf
DOCKED: USER  
DOCKED: USER    Estimated Free Energy of Binding    =   -7.81 kcal/mol  [=(1)+(2)+(3)-(4)]
DOCKED: USER    Estimated Inhibition Constant, Ki   =    1.90 uM (micromolar)  [Temperature = 298.15 K]
DOCKED: USER    
DOCKED: USER    (1) Final Intermolecular Energy     =  -11.39 kcal/mol
DOCKED: USER        vdW + Hbond + desolv Energy     =   -9.29 kcal/mol
DOCKED: USER        Electrostatic Energy            =   -2.10 kcal/mol
DOCKED: USER    (2) Final Total Internal Energy     =   -2.24 kcal/mol
DOCKED: USER    (3) Torsional Free Energy           =   +3.58 kcal/mol
DOCKED: USER    (4) Unbound System's Energy  [=(2)] =   -2.24 kcal/mol
DOCKED: USER    
DOCKED: USER    
DOCKED: USER    NEWDPF move heme_Co_opt.pdbqt
DOCKED: USER    NEWDPF about 8.781000 34.984000 -0.736000
DOCKED: USER    NEWDPF tran0 8.442291 14.276590 33.591909
DOCKED: USER    NEWDPF quaternion0 0.725899 -0.369593 -0.574437 -0.080584
DOCKED: USER    NEWDPF axisangle0 0.728268 -0.370798 -0.576311 -170.755711
DOCKED: USER    NEWDPF quat0 0.728268 -0.370798 -0.576311 -170.755711
DOCKED: USER    NEWDPF dihe0 95.19 79.64 -149.95 104.49 134.21 96.76 -132.35 123.21 -58.00 149.73 147.02 166.52 
DOCKED: USER  keepresnum = 1 
DOCKED: USER  
DOCKED: REMARK  12 active torsions:
DOCKED: REMARK  status: ('A' for Active; 'I' for Inactive)
DOCKED: REMARK    1  A    between atoms: C_6  and  C_10 
DOCKED: REMARK    2  A    between atoms: C_10  and  C_11 
DOCKED: REMARK    3  A    between atoms: C_11  and  C_12 
DOCKED: REMARK    4  A    between atoms: C_12  and  O_14 
DOCKED: REMARK    5  A    between atoms: C_17  and  C_20 
DOCKED: REMARK    6  A    between atoms: C_24  and  C_27 
DOCKED: REMARK    7  A    between atoms: C_31  and  C_34 
DOCKED: REMARK    8  A    between atoms: C_34  and  C_35 
DOCKED: REMARK    9  A    between atoms: C_35  and  C_36 
DOCKED: REMARK   10  A    between atoms: C_36  and  O_38 
DOCKED: REMARK   11  A    between atoms: FE_43  and  C_44 
DOCKED: REMARK   12  A    between atoms: C_44  and  O_45 
DOCKED: USER                              x       y       z     vdW  Elec       q    Type
DOCKED: USER                           _______ _______ _______ _____ _____    ______ ____
DOCKED: ROOT
DOCKED: ATOM      1  C   UNL d   1       8.851  14.876  35.639 -0.09 +0.05    +0.064 A 
DOCKED: ATOM      2  C   UNL d   1       6.779  17.132  32.001 -0.23 +0.03    +0.064 C 
DOCKED: ATOM      3  C   UNL d   1       7.796  13.472  29.103 -0.25 +0.01    +0.064 A 
DOCKED: ATOM      4  C   UNL d   1       9.574  10.986  32.888 -0.18 +0.04    +0.064 A 
DOCKED: ATOM      5  C   UNL d   1       8.242  15.777  34.849 -0.11 +0.06    +0.066 A 
DOCKED: ATOM      6  C   UNL d   1       7.718  16.982  35.356 -0.10 -0.02    -0.021 A 
DOCKED: ATOM      7  C   UNL d   1       7.098  17.622  34.301 -0.13 -0.02    -0.025 A 
DOCKED: ATOM      8  C   UNL d   1       7.284  16.789  33.193 -0.17 +0.05    +0.066 A 
DOCKED: ATOM      9  C   UNL d   1       6.354  18.966  34.320 -0.12 +0.03    +0.051 C 
DOCKED: ATOM     10  C   UNL d   1       6.942  16.352  30.800 -0.28 +0.02    +0.066 A 
DOCKED: ATOM     11  C   UNL d   1       6.558  16.724  29.494 -0.34 -0.00    -0.021 A 
DOCKED: ATOM     12  C   UNL d   1       6.870  15.640  28.668 -0.43 +0.00    +0.000 A 
DOCKED: ATOM     13  C   UNL d   1       7.431  14.695  29.527 -0.33 +0.02    +0.070 A 
DOCKED: ATOM     14  C   UNL d   1       6.020  18.067  29.070 -0.36 +0.01    +0.052 C 
DOCKED: ATOM     15  C   UNL d   1       8.340  12.361  29.859 -0.20 +0.02    +0.066 A 
DOCKED: ATOM     16  C   UNL d   1       8.561  11.075  29.388 -0.30 -0.00    -0.021 A 
DOCKED: ATOM     17  C   UNL d   1       9.071  10.353  30.477 -0.40 +0.00    +0.000 A 
DOCKED: ATOM     18  C   UNL d   1       9.138  11.265  31.525 -0.22 +0.03    +0.070 A 
DOCKED: ATOM     19  C   UNL d   1       8.288  10.598  27.979 -0.41 +0.01    +0.052 C 
DOCKED: ATOM     20  C   UNL d   1       9.566  11.833  33.945 -0.20 +0.05    +0.066 A 
DOCKED: ATOM     21  C   UNL d   1       9.976  11.438  35.217 -0.20 -0.03    -0.025 A 
DOCKED: ATOM     22  C   UNL d   1       9.806  12.548  36.025 -0.13 -0.02    -0.021 A 
DOCKED: ATOM     23  C   UNL d   1       9.285  13.569  35.202 -0.12 +0.05    +0.066 A 
DOCKED: ATOM     24  C   UNL d   1      10.487  10.066  35.646 -0.24 +0.06    +0.051 C 
DOCKED: ATOM     25  N   UNL d   1       7.995  15.641  33.502 -0.12 -0.19    -0.248 N 
DOCKED: ATOM     26  N   UNL d   1       7.525  15.148  30.806 -0.18 -0.09    -0.248 N 
DOCKED: ATOM     27  N   UNL d   1       8.666  12.442  31.130 -0.19 -0.09    -0.248 N 
DOCKED: ATOM     28  N   UNL d   1       9.136  13.139  33.943 -0.10 -0.17    -0.248 N 
DOCKED: ATOM     29 FE   UNL d   1       8.352  13.945  32.248 -0.05 +0.00    +0.000 Fe
DOCKED: ENDROOT
DOCKED: BRANCH   6  30
DOCKED: ATOM     30  C   UNL d   1       7.747  17.447  36.809 -0.07 +0.04    +0.052 C 
DOCKED: BRANCH  30  31
DOCKED: ATOM     31  C   UNL d   1       6.349  17.858  37.269 -0.06 +0.10    +0.115 C 
DOCKED: BRANCH  31  32
DOCKED: ATOM     32  C   UNL d   1       5.864  17.037  38.445 -0.06 +0.12    +0.139 C 
DOCKED: ATOM     33  O   UNL d   1       5.968  17.487  39.576 +0.01 -0.30    -0.650 OA
DOCKED: BRANCH  32  34
DOCKED: ATOM     34  O   UNL d   1       5.271  15.831  38.282 -0.26 -1.21    -0.776 OA
DOCKED: ATOM     35  H   UNL d   1       5.745  14.988  38.276 +0.00 +0.25    +0.167 HD
DOCKED: ENDBRANCH  32  34
DOCKED: ENDBRANCH  31  32
DOCKED: ENDBRANCH  30  31
DOCKED: ENDBRANCH   6  30
DOCKED: BRANCH  29  36
DOCKED: ATOM     36  C   UNL d   1       6.438  13.283  32.790 -0.00 +0.13    +0.190 C 
DOCKED: BRANCH  36  37
DOCKED: ATOM     37  O   UNL d   1       5.648  12.941  33.893 -0.62 -0.53    -0.399 OA
DOCKED: ATOM     38  H   UNL d   1       6.283  12.533  34.546 +0.09 +0.24    +0.209 HD
DOCKED: ENDBRANCH  36  37
DOCKED: ENDBRANCH  29  36
DOCKED: BRANCH  22  39
DOCKED: ATOM     39  C   UNL d   1      10.070  12.598  37.518 -0.09 +0.04    +0.052 C 
DOCKED: BRANCH  39  40
DOCKED: ATOM     40  C   UNL d   1       8.792  12.268  38.306 -0.04 +0.06    +0.115 C 
DOCKED: BRANCH  40  41
DOCKED: ATOM     41  C   UNL d   1       7.517  12.788  37.676 -0.06 +0.10    +0.139 C 
DOCKED: ATOM     42  O   UNL d   1       7.029  13.832  38.087 +0.01 -0.59    -0.650 OA
DOCKED: BRANCH  41  43
DOCKED: ATOM     43  O   UNL d   1       6.951  12.178  36.611 +0.07 -0.66    -0.776 OA
DOCKED: ATOM     44  H   UNL d   1       6.515  12.668  35.902 +0.05 +0.21    +0.167 HD
DOCKED: ENDBRANCH  41  43
DOCKED: ENDBRANCH  40  41
DOCKED: ENDBRANCH  39  40
DOCKED: ENDBRANCH  22  39
DOCKED: BRANCH  12  45
DOCKED: ATOM     45  C   UNL d   1       6.721  15.398  27.172 -0.52 +0.00    +0.004 C 
DOCKED: ATOM     46  C   UNL d   1       7.594  15.545  26.180 -0.51 +0.00    +0.012 C 
DOCKED: ENDBRANCH  12  45
DOCKED: BRANCH  17  47
DOCKED: ATOM     47  C   UNL d   1       9.432   8.907  30.578 -0.46 +0.00    +0.004 C 
DOCKED: ATOM     48  C   UNL d   1      10.683   8.469  30.735 -0.58 +0.00    +0.012 C 
DOCKED: ENDBRANCH  17  47
DOCKED: TORSDOF 12
DOCKED: TER
DOCKED: ENDMDL
________________________________________________________________________________


	BEGINNING GENETIC ALGORITHM DOCKING 79 of 100
Run: 79 Seed: 603173617 1837507671 [ Run 79 of 100 GA/GALS ]
Beginning LAMARCKIAN GENETIC ALGORITHM (LGA), with a maximum of 25000000 energy evaluations.

Final-Value: -12.624


	FINAL GENETIC ALGORITHM DOCKED STATE
	_______________________________________________


Detailed state:  trans 0.796 -6.074 -10.129 quatxyzw 0.653495 -0.160490 0.667870 0.318021 center 8.781 34.984 -0.736 ntor 12 68.1700 89.6958 24.6369 66.6465 85.4924 157.9903 -13.0669 135.3615 77.7029 -179.2639 16.2769 -2.4614
State:	  0.796  -6.074 -10.129   0.689 -0.169  0.704 142.913     68.17   89.70   24.64   66.65   85.49  157.99  -13.07  135.36   77.70 -179.26   16.28   -2.46

DOCKED: MODEL       79
DOCKED: USER    Run = 79
DOCKED: USER    DPF = D:/Protein_go_brrr/autodock/final/1A3N/heme_Co/dock.dpf
DOCKED: USER  
DOCKED: USER    Estimated Free Energy of Binding    =   -7.13 kcal/mol  [=(1)+(2)+(3)-(4)]
DOCKED: USER    Estimated Inhibition Constant, Ki   =    5.93 uM (micromolar)  [Temperature = 298.15 K]
DOCKED: USER    
DOCKED: USER    (1) Final Intermolecular Energy     =  -10.71 kcal/mol
DOCKED: USER        vdW + Hbond + desolv Energy     =   -7.94 kcal/mol
DOCKED: USER        Electrostatic Energy            =   -2.77 kcal/mol
DOCKED: USER    (2) Final Total Internal Energy     =   -1.91 kcal/mol
DOCKED: USER    (3) Torsional Free Energy           =   +3.58 kcal/mol
DOCKED: USER    (4) Unbound System's Energy  [=(2)] =   -1.91 kcal/mol
DOCKED: USER    
DOCKED: USER    
DOCKED: USER    NEWDPF move heme_Co_opt.pdbqt
DOCKED: USER    NEWDPF about 8.781000 34.984000 -0.736000
DOCKED: USER    NEWDPF tran0 0.795509 -6.074450 -10.128767
DOCKED: USER    NEWDPF quaternion0 0.653495 -0.160490 0.667870 0.318021
DOCKED: USER    NEWDPF axisangle0 0.689279 -0.169278 0.704442 142.913486
DOCKED: USER    NEWDPF quat0 0.689279 -0.169278 0.704442 142.913486
DOCKED: USER    NEWDPF dihe0 68.17 89.70 24.64 66.65 85.49 157.99 -13.07 135.36 77.70 -179.26 16.28 -2.46 
DOCKED: USER  keepresnum = 1 
DOCKED: USER  
DOCKED: REMARK  12 active torsions:
DOCKED: REMARK  status: ('A' for Active; 'I' for Inactive)
DOCKED: REMARK    1  A    between atoms: C_6  and  C_10 
DOCKED: REMARK    2  A    between atoms: C_10  and  C_11 
DOCKED: REMARK    3  A    between atoms: C_11  and  C_12 
DOCKED: REMARK    4  A    between atoms: C_12  and  O_14 
DOCKED: REMARK    5  A    between atoms: C_17  and  C_20 
DOCKED: REMARK    6  A    between atoms: C_24  and  C_27 
DOCKED: REMARK    7  A    between atoms: C_31  and  C_34 
DOCKED: REMARK    8  A    between atoms: C_34  and  C_35 
DOCKED: REMARK    9  A    between atoms: C_35  and  C_36 
DOCKED: REMARK   10  A    between atoms: C_36  and  O_38 
DOCKED: REMARK   11  A    between atoms: FE_43  and  C_44 
DOCKED: REMARK   12  A    between atoms: C_44  and  O_45 
DOCKED: USER                              x       y       z     vdW  Elec       q    Type
DOCKED: USER                           _______ _______ _______ _____ _____    ______ ____
DOCKED: ROOT
DOCKED: ATOM      1  C   UNL d   1      -0.035  -5.390 -12.015 -0.10 +0.05    +0.064 A 
DOCKED: ATOM      2  C   UNL d   1       3.106  -3.452  -9.016 -0.35 +0.01    +0.064 C 
DOCKED: ATOM      3  C   UNL d   1       2.433  -7.040  -5.934 -0.27 +0.01    +0.064 A 
DOCKED: ATOM      4  C   UNL d   1      -0.486  -9.236  -9.147 -0.11 +0.04    +0.064 A 
DOCKED: ATOM      5  C   UNL d   1       0.845  -4.578 -11.406 -0.14 +0.04    +0.066 A 
DOCKED: ATOM      6  C   UNL d   1       1.359  -3.427 -12.034 -0.16 -0.01    -0.021 A 
DOCKED: ATOM      7  C   UNL d   1       2.286  -2.881 -11.169 -0.19 -0.01    -0.025 A 
DOCKED: ATOM      8  C   UNL d   1       2.287  -3.713 -10.044 -0.23 +0.02    +0.066 A 
DOCKED: ATOM      9  C   UNL d   1       3.147  -1.626 -11.379 -0.34 +0.01    +0.051 C 
DOCKED: ATOM     10  C   UNL d   1       3.157  -4.236  -7.807 -0.32 +0.01    +0.066 A 
DOCKED: ATOM     11  C   UNL d   1       3.890  -3.935  -6.638 -0.41 -0.00    -0.021 A 
DOCKED: ATOM     12  C   UNL d   1       3.673  -4.996  -5.754 -0.40 +0.00    +0.000 A 
DOCKED: ATOM     13  C   UNL d   1       2.816  -5.856  -6.442 -0.26 +0.02    +0.070 A 
DOCKED: ATOM     14  C   UNL d   1       4.661  -2.669  -6.369 -0.42 +0.00    +0.052 C 
DOCKED: ATOM     15  C   UNL d   1       1.600  -8.069  -6.525 -0.27 +0.02    +0.066 A 
DOCKED: ATOM     16  C   UNL d   1       1.361  -9.334  -6.006 -0.29 -0.00    -0.021 A 
DOCKED: ATOM     17  C   UNL d   1       0.521  -9.972  -6.930 -0.22 +0.00    +0.000 A 
DOCKED: ATOM     18  C   UNL d   1       0.300  -9.036  -7.936 -0.18 +0.03    +0.070 A 
DOCKED: ATOM     19  C   UNL d   1       1.917  -9.867  -4.705 -0.26 +0.01    +0.052 C 
DOCKED: ATOM     20  C   UNL d   1      -0.644  -8.373 -10.179 -0.06 +0.06    +0.066 A 
DOCKED: ATOM     21  C   UNL d   1      -1.396  -8.693 -11.307 -0.07 -0.02    -0.025 A 
DOCKED: ATOM     22  C   UNL d   1      -1.308  -7.592 -12.138 -0.07 -0.02    -0.021 A 
DOCKED: ATOM     23  C   UNL d   1      -0.490  -6.651 -11.476 -0.06 +0.07    +0.066 A 
DOCKED: ATOM     24  C   UNL d   1      -2.146  -9.992 -11.589 -0.05 +0.02    +0.051 C 
DOCKED: ATOM     25  N   UNL d   1       1.400  -4.769 -10.161 -0.13 -0.15    -0.248 N 
DOCKED: ATOM     26  N   UNL d   1       2.461  -5.368  -7.661 -0.12 -0.08    -0.248 N 
DOCKED: ATOM     27  N   UNL d   1       0.982  -7.926  -7.676 -0.16 -0.13    -0.248 N 
DOCKED: ATOM     28  N   UNL d   1      -0.085  -7.121 -10.291 -0.03 -0.32    -0.248 N 
DOCKED: ATOM     29 FE   UNL d   1       1.176  -6.443  -8.847 -0.05 +0.00    +0.000 Fe
DOCKED: ENDROOT
DOCKED: BRANCH   6  30
DOCKED: ATOM     30  C   UNL d   1       1.025  -2.931 -13.437 -0.18 +0.02    +0.052 C 
DOCKED: BRANCH  30  31
DOCKED: ATOM     31  C   UNL d   1       0.006  -1.793 -13.376 -0.17 +0.06    +0.115 C 
DOCKED: BRANCH  31  32
DOCKED: ATOM     32  C   UNL d   1      -1.384  -2.240 -13.773 -0.22 +0.09    +0.139 C 
DOCKED: ATOM     33  O   UNL d   1      -2.097  -1.486 -14.418 -0.02 -0.68    -0.650 OA
DOCKED: BRANCH  32  34
DOCKED: ATOM     34  O   UNL d   1      -1.852  -3.475 -13.478 +0.08 -0.48    -0.776 OA
DOCKED: ATOM     35  H   UNL d   1      -1.994  -3.802 -12.579 +0.06 +0.13    +0.167 HD
DOCKED: ENDBRANCH  32  34
DOCKED: ENDBRANCH  31  32
DOCKED: ENDBRANCH  30  31
DOCKED: ENDBRANCH   6  30
DOCKED: BRANCH  29  36
DOCKED: ATOM     36  C   UNL d   1       2.812  -7.298  -9.841 -0.11 +0.05    +0.190 C 
DOCKED: BRANCH  36  37
DOCKED: ATOM     37  O   UNL d   1       3.764  -7.052 -10.835 -0.04 -0.08    -0.399 OA
DOCKED: ATOM     38  H   UNL d   1       3.353  -6.354 -11.417 +0.04 +0.05    +0.209 HD
DOCKED: ENDBRANCH  36  37
DOCKED: ENDBRANCH  29  36
DOCKED: BRANCH  22  39
DOCKED: ATOM     39  C   UNL d   1      -1.924  -7.481 -13.521 -0.02 +0.02    +0.052 C 
DOCKED: BRANCH  39  40
DOCKED: ATOM     40  C   UNL d   1      -3.250  -6.704 -13.463 -0.03 +0.06    +0.115 C 
DOCKED: BRANCH  40  41
DOCKED: ATOM     41  C   UNL d   1      -3.696  -6.332 -12.065 -0.08 +0.14    +0.139 C 
DOCKED: ATOM     42  O   UNL d   1      -4.355  -7.132 -11.415 -0.01 -0.63    -0.650 OA
DOCKED: BRANCH  41  43
DOCKED: ATOM     43  O   UNL d   1      -3.313  -5.176 -11.481 -0.27 -1.41    -0.776 OA
DOCKED: ATOM     44  H   UNL d   1      -3.140  -4.371 -11.987 +0.06 +0.19    +0.167 HD
DOCKED: ENDBRANCH  41  43
DOCKED: ENDBRANCH  40  41
DOCKED: ENDBRANCH  39  40
DOCKED: ENDBRANCH  22  39
DOCKED: BRANCH  12  45
DOCKED: ATOM     45  C   UNL d   1       4.157  -5.285  -4.340 -0.42 +0.00    +0.004 C 
DOCKED: ATOM     46  C   UNL d   1       4.019  -4.585  -3.217 -0.48 +0.00    +0.012 C 
DOCKED: ENDBRANCH  12  45
DOCKED: BRANCH  17  47
DOCKED: ATOM     47  C   UNL d   1      -0.011 -11.367  -6.931 -0.18 +0.00    +0.004 C 
DOCKED: ATOM     48  C   UNL d   1      -0.841 -11.840  -5.997 -0.19 +0.00    +0.012 C 
DOCKED: ENDBRANCH  17  47
DOCKED: TORSDOF 12
DOCKED: TER
DOCKED: ENDMDL
________________________________________________________________________________


	BEGINNING GENETIC ALGORITHM DOCKING 80 of 100
Run: 80 Seed: 4018005 1664563630 [ Run 80 of 100 GA/GALS ]
Beginning LAMARCKIAN GENETIC ALGORITHM (LGA), with a maximum of 25000000 energy evaluations.

Final-Value: -13.073


	FINAL GENETIC ALGORITHM DOCKED STATE
	_______________________________________________


Detailed state:  trans 4.211 -5.361 -8.599 quatxyzw 0.047061 0.678961 -0.111830 0.724080 center 8.781 34.984 -0.736 ntor 12 -17.6269 87.1725 176.5459 -7.2393 -0.3604 137.9627 38.7677 113.8121 158.6350 124.9101 -168.5638 174.1646
State:	  4.211  -5.361  -8.599   0.068  0.984 -0.162 87.215    -17.63   87.17  176.55   -7.24   -0.36  137.96   38.77  113.81  158.64  124.91 -168.56  174.16

DOCKED: MODEL       80
DOCKED: USER    Run = 80
DOCKED: USER    DPF = D:/Protein_go_brrr/autodock/final/1A3N/heme_Co/dock.dpf
DOCKED: USER  
DOCKED: USER    Estimated Free Energy of Binding    =   -6.50 kcal/mol  [=(1)+(2)+(3)-(4)]
DOCKED: USER    Estimated Inhibition Constant, Ki   =   17.27 uM (micromolar)  [Temperature = 298.15 K]
DOCKED: USER    
DOCKED: USER    (1) Final Intermolecular Energy     =  -10.08 kcal/mol
DOCKED: USER        vdW + Hbond + desolv Energy     =   -9.40 kcal/mol
DOCKED: USER        Electrostatic Energy            =   -0.68 kcal/mol
DOCKED: USER    (2) Final Total Internal Energy     =   -3.00 kcal/mol
DOCKED: USER    (3) Torsional Free Energy           =   +3.58 kcal/mol
DOCKED: USER    (4) Unbound System's Energy  [=(2)] =   -3.00 kcal/mol
DOCKED: USER    
DOCKED: USER    
DOCKED: USER    NEWDPF move heme_Co_opt.pdbqt
DOCKED: USER    NEWDPF about 8.781000 34.984000 -0.736000
DOCKED: USER    NEWDPF tran0 4.211027 -5.361018 -8.599329
DOCKED: USER    NEWDPF quaternion0 0.047061 0.678961 -0.111830 0.724080
DOCKED: USER    NEWDPF axisangle0 0.068232 0.984406 -0.162139 87.215283
DOCKED: USER    NEWDPF quat0 0.068232 0.984406 -0.162139 87.215283
DOCKED: USER    NEWDPF dihe0 -17.63 87.17 176.55 -7.24 -0.36 137.96 38.77 113.81 158.64 124.91 -168.56 174.16 
DOCKED: USER  keepresnum = 1 
DOCKED: USER  
DOCKED: REMARK  12 active torsions:
DOCKED: REMARK  status: ('A' for Active; 'I' for Inactive)
DOCKED: REMARK    1  A    between atoms: C_6  and  C_10 
DOCKED: REMARK    2  A    between atoms: C_10  and  C_11 
DOCKED: REMARK    3  A    between atoms: C_11  and  C_12 
DOCKED: REMARK    4  A    between atoms: C_12  and  O_14 
DOCKED: REMARK    5  A    between atoms: C_17  and  C_20 
DOCKED: REMARK    6  A    between atoms: C_24  and  C_27 
DOCKED: REMARK    7  A    between atoms: C_31  and  C_34 
DOCKED: REMARK    8  A    between atoms: C_34  and  C_35 
DOCKED: REMARK    9  A    between atoms: C_35  and  C_36 
DOCKED: REMARK   10  A    between atoms: C_36  and  O_38 
DOCKED: REMARK   11  A    between atoms: FE_43  and  C_44 
DOCKED: REMARK   12  A    between atoms: C_44  and  O_45 
DOCKED: USER                              x       y       z     vdW  Elec       q    Type
DOCKED: USER                           _______ _______ _______ _____ _____    ______ ____
DOCKED: ROOT
DOCKED: ATOM      1  C   UNL d   1       4.904  -5.243 -10.654 -0.08 +0.01    +0.064 A 
DOCKED: ATOM      2  C   UNL d   1       1.520  -7.853  -8.569 -0.22 +0.03    +0.064 C 
DOCKED: ATOM      3  C   UNL d   1       2.787  -6.146  -4.290 -0.13 +0.01    +0.064 A 
DOCKED: ATOM      4  C   UNL d   1       5.992  -3.181  -6.436 -0.37 +0.00    +0.064 A 
DOCKED: ATOM      5  C   UNL d   1       3.911  -6.108 -10.395 -0.08 +0.01    +0.066 A 
DOCKED: ATOM      6  C   UNL d   1       3.214  -6.775 -11.421 -0.07 -0.00    -0.021 A 
DOCKED: ATOM      7  C   UNL d   1       2.218  -7.514 -10.812 -0.07 -0.01    -0.025 A 
DOCKED: ATOM      8  C   UNL d   1       2.360  -7.279  -9.440 -0.14 +0.02    +0.066 A 
DOCKED: ATOM      9  C   UNL d   1       1.165  -8.410 -11.482 -0.05 +0.02    +0.051 C 
DOCKED: ATOM     10  C   UNL d   1       1.605  -7.691  -7.139 -0.24 +0.03    +0.066 A 
DOCKED: ATOM     11  C   UNL d   1       0.844  -8.374  -6.166 -0.30 -0.01    -0.021 A 
DOCKED: ATOM     12  C   UNL d   1       1.237  -7.860  -4.927 -0.36 +0.00    +0.000 A 
DOCKED: ATOM     13  C   UNL d   1       2.214  -6.913  -5.234 -0.28 +0.01    +0.070 A 
DOCKED: ATOM     14  C   UNL d   1      -0.117  -9.507  -6.419 -0.26 +0.02    +0.052 C 
DOCKED: ATOM     15  C   UNL d   1       3.769  -5.089  -4.435 -0.36 +0.01    +0.066 A 
DOCKED: ATOM     16  C   UNL d   1       4.213  -4.235  -3.435 -0.43 -0.00    -0.021 A 
DOCKED: ATOM     17  C   UNL d   1       5.136  -3.377  -4.049 -0.44 +0.00    +0.000 A 
DOCKED: ATOM     18  C   UNL d   1       5.195  -3.787  -5.377 -0.43 +0.01    +0.070 A 
DOCKED: ATOM     19  C   UNL d   1       3.761  -4.265  -1.992 -0.44 +0.00    +0.052 C 
DOCKED: ATOM     20  C   UNL d   1       6.000  -3.507  -7.751 -0.41 +0.00    +0.066 A 
DOCKED: ATOM     21  C   UNL d   1       6.784  -2.827  -8.680 -0.37 +0.00    -0.025 A 
DOCKED: ATOM     22  C   UNL d   1       6.513  -3.418  -9.901 -0.24 +0.00    -0.021 A 
DOCKED: ATOM     23  C   UNL d   1       5.561  -4.431  -9.655 -0.16 +0.00    +0.066 A 
DOCKED: ATOM     24  C   UNL d   1       7.730  -1.657  -8.423 -0.15 +0.00    +0.051 C 
DOCKED: ATOM     25  N   UNL d   1       3.405  -6.417  -9.152 -0.10 -0.06    -0.248 N 
DOCKED: ATOM     26  N   UNL d   1       2.476  -6.852  -6.567 -0.18 -0.07    -0.248 N 
DOCKED: ATOM     27  N   UNL d   1       4.345  -4.789  -5.577 -0.26 -0.03    -0.248 N 
DOCKED: ATOM     28  N   UNL d   1       5.246  -4.486  -8.355 -0.17 -0.02    -0.248 N 
DOCKED: ATOM     29 FE   UNL d   1       3.906  -5.553  -7.260 -0.07 +0.00    +0.000 Fe
DOCKED: ENDROOT
DOCKED: BRANCH   6  30
DOCKED: ATOM     30  C   UNL d   1       3.451  -6.636 -12.921 -0.03 +0.01    +0.052 C 
DOCKED: BRANCH  30  31
DOCKED: ATOM     31  C   UNL d   1       2.696  -5.427 -13.474 -0.01 +0.03    +0.115 C 
DOCKED: BRANCH  31  32
DOCKED: ATOM     32  C   UNL d   1       1.520  -5.035 -12.607 -0.04 +0.05    +0.139 C 
DOCKED: ATOM     33  O   UNL d   1       0.420  -5.517 -12.832 +0.03 -0.31    -0.650 OA
DOCKED: BRANCH  32  34
DOCKED: ATOM     34  O   UNL d   1       1.654  -4.198 -11.552 +0.08 -0.31    -0.776 OA
DOCKED: ATOM     35  H   UNL d   1       2.488  -4.033 -11.091 +0.06 +0.05    +0.167 HD
DOCKED: ENDBRANCH  32  34
DOCKED: ENDBRANCH  31  32
DOCKED: ENDBRANCH  30  31
DOCKED: ENDBRANCH   6  30
DOCKED: BRANCH  29  36
DOCKED: ATOM     36  C   UNL d   1       2.420  -4.125  -7.645 -0.14 +0.05    +0.190 C 
DOCKED: BRANCH  36  37
DOCKED: ATOM     37  O   UNL d   1       1.636  -3.581  -8.668 -0.24 -0.16    -0.399 OA
DOCKED: ATOM     38  H   UNL d   1       2.168  -3.721  -9.501 +0.10 +0.07    +0.209 HD
DOCKED: ENDBRANCH  36  37
DOCKED: ENDBRANCH  29  36
DOCKED: BRANCH  22  39
DOCKED: ATOM     39  C   UNL d   1       7.091  -2.987 -11.235 -0.14 +0.00    +0.052 C 
DOCKED: BRANCH  39  40
DOCKED: ATOM     40  C   UNL d   1       6.270  -1.834 -11.835 -0.16 +0.00    +0.115 C 
DOCKED: BRANCH  40  41
DOCKED: ATOM     41  C   UNL d   1       4.819  -2.175 -12.106 -0.17 +0.01    +0.139 C 
DOCKED: ATOM     42  O   UNL d   1       4.443  -2.313 -13.261 +0.02 -0.12    -0.650 OA
DOCKED: BRANCH  41  43
DOCKED: ATOM     43  O   UNL d   1       3.947  -2.417 -11.102 +0.09 -0.06    -0.776 OA
DOCKED: ATOM     44  H   UNL d   1       3.030  -2.676 -11.262 +0.07 +0.03    +0.167 HD
DOCKED: ENDBRANCH  41  43
DOCKED: ENDBRANCH  40  41
DOCKED: ENDBRANCH  39  40
DOCKED: ENDBRANCH  22  39
DOCKED: BRANCH  12  45
DOCKED: ATOM     45  C   UNL d   1       0.817  -8.166  -3.496 -0.45 +0.00    +0.004 C 
DOCKED: ATOM     46  C   UNL d   1      -0.241  -8.821  -3.025 -0.51 +0.00    +0.012 C 
DOCKED: ENDBRANCH  12  45
DOCKED: BRANCH  17  47
DOCKED: ATOM     47  C   UNL d   1       5.885  -2.217  -3.480 -0.50 +0.00    +0.004 C 
DOCKED: ATOM     48  C   UNL d   1       5.494  -1.548  -2.393 -0.59 +0.00    +0.012 C 
DOCKED: ENDBRANCH  17  47
DOCKED: TORSDOF 12
DOCKED: TER
DOCKED: ENDMDL
________________________________________________________________________________


	BEGINNING GENETIC ALGORITHM DOCKING 81 of 100
Run: 81 Seed: 1490719899 1726980711 [ Run 81 of 100 GA/GALS ]
Beginning LAMARCKIAN GENETIC ALGORITHM (LGA), with a maximum of 25000000 energy evaluations.

Final-Value: -11.198


	FINAL GENETIC ALGORITHM DOCKED STATE
	_______________________________________________


Detailed state:  trans -6.243 25.748 18.209 quatxyzw -0.050898 -0.701039 -0.339209 -0.625213 center 8.781 34.984 -0.736 ntor 12 147.1567 98.0878 -26.4418 105.4645 75.9626 128.6697 44.1470 157.2680 -80.6314 27.2826 -174.1819 180.0000
State:	 -6.243  25.748  18.209  -0.065 -0.898 -0.435 -102.604    147.16   98.09  -26.44  105.46   75.96  128.67   44.15  157.27  -80.63   27.28 -174.18  180.00

DOCKED: MODEL       81
DOCKED: USER    Run = 81
DOCKED: USER    DPF = D:/Protein_go_brrr/autodock/final/1A3N/heme_Co/dock.dpf
DOCKED: USER  
DOCKED: USER    Estimated Free Energy of Binding    =   -5.33 kcal/mol  [=(1)+(2)+(3)-(4)]
DOCKED: USER    Estimated Inhibition Constant, Ki   =  124.30 uM (micromolar)  [Temperature = 298.15 K]
DOCKED: USER    
DOCKED: USER    (1) Final Intermolecular Energy     =   -8.91 kcal/mol
DOCKED: USER        vdW + Hbond + desolv Energy     =   -6.93 kcal/mol
DOCKED: USER        Electrostatic Energy            =   -1.98 kcal/mol
DOCKED: USER    (2) Final Total Internal Energy     =   -2.29 kcal/mol
DOCKED: USER    (3) Torsional Free Energy           =   +3.58 kcal/mol
DOCKED: USER    (4) Unbound System's Energy  [=(2)] =   -2.29 kcal/mol
DOCKED: USER    
DOCKED: USER    
DOCKED: USER    NEWDPF move heme_Co_opt.pdbqt
DOCKED: USER    NEWDPF about 8.781000 34.984000 -0.736000
DOCKED: USER    NEWDPF tran0 -6.242791 25.747956 18.209286
DOCKED: USER    NEWDPF quaternion0 -0.050898 -0.701039 -0.339209 -0.625213
DOCKED: USER    NEWDPF axisangle0 -0.065216 -0.898245 -0.434630 -102.604330
DOCKED: USER    NEWDPF quat0 -0.065216 -0.898245 -0.434630 -102.604330
DOCKED: USER    NEWDPF dihe0 147.16 98.09 -26.44 105.46 75.96 128.67 44.15 157.27 -80.63 27.28 -174.18 180.00 
DOCKED: USER  keepresnum = 1 
DOCKED: USER  
DOCKED: REMARK  12 active torsions:
DOCKED: REMARK  status: ('A' for Active; 'I' for Inactive)
DOCKED: REMARK    1  A    between atoms: C_6  and  C_10 
DOCKED: REMARK    2  A    between atoms: C_10  and  C_11 
DOCKED: REMARK    3  A    between atoms: C_11  and  C_12 
DOCKED: REMARK    4  A    between atoms: C_12  and  O_14 
DOCKED: REMARK    5  A    between atoms: C_17  and  C_20 
DOCKED: REMARK    6  A    between atoms: C_24  and  C_27 
DOCKED: REMARK    7  A    between atoms: C_31  and  C_34 
DOCKED: REMARK    8  A    between atoms: C_34  and  C_35 
DOCKED: REMARK    9  A    between atoms: C_35  and  C_36 
DOCKED: REMARK   10  A    between atoms: C_36  and  O_38 
DOCKED: REMARK   11  A    between atoms: FE_43  and  C_44 
DOCKED: REMARK   12  A    between atoms: C_44  and  O_45 
DOCKED: USER                              x       y       z     vdW  Elec       q    Type
DOCKED: USER                           _______ _______ _______ _____ _____    ______ ____
DOCKED: ROOT
DOCKED: ATOM      1  C   UNL d   1      -4.868  26.354  16.642 -0.23 +0.01    +0.064 A 
DOCKED: ATOM      2  C   UNL d   1      -9.599  25.890  16.737 -0.13 +0.00    +0.064 C 
DOCKED: ATOM      3  C   UNL d   1      -9.374  24.127  21.173 -0.17 -0.00    +0.064 A 
DOCKED: ATOM      4  C   UNL d   1      -4.580  24.952  21.243 -0.17 -0.00    +0.064 A 
DOCKED: ATOM      5  C   UNL d   1      -6.173  26.323  16.329 -0.21 +0.01    +0.066 A 
DOCKED: ATOM      6  C   UNL d   1      -6.662  26.834  15.111 -0.19 -0.00    -0.021 A 
DOCKED: ATOM      7  C   UNL d   1      -8.038  26.717  15.153 -0.12 -0.00    -0.025 A 
DOCKED: ATOM      8  C   UNL d   1      -8.328  26.126  16.387 -0.14 +0.00    +0.066 A 
DOCKED: ATOM      9  C   UNL d   1      -9.053  27.143  14.082 -0.06 +0.00    +0.051 C 
DOCKED: ATOM     10  C   UNL d   1      -9.992  25.261  17.974 -0.09 -0.00    +0.066 A 
DOCKED: ATOM     11  C   UNL d   1     -11.296  24.859  18.339 -0.13 +0.00    -0.021 A 
DOCKED: ATOM     12  C   UNL d   1     -11.200  24.345  19.635 -0.07 -0.00    +0.000 A 
DOCKED: ATOM     13  C   UNL d   1      -9.848  24.459  19.959 +0.09 -0.01    +0.070 A 
DOCKED: ATOM     14  C   UNL d   1     -12.517  24.885  17.456 -0.10 -0.00    +0.052 C 
DOCKED: ATOM     15  C   UNL d   1      -8.024  24.230  21.693 -0.19 -0.00    +0.066 A 
DOCKED: ATOM     16  C   UNL d   1      -7.628  24.005  23.003 -0.17 +0.00    -0.021 A 
DOCKED: ATOM     17  C   UNL d   1      -6.247  24.244  23.029 -0.16 -0.00    +0.000 A 
DOCKED: ATOM     18  C   UNL d   1      -5.905  24.580  21.724 -0.15 -0.00    +0.070 A 
DOCKED: ATOM     19  C   UNL d   1      -8.540  23.591  24.137 -0.18 -0.00    +0.052 C 
DOCKED: ATOM     20  C   UNL d   1      -4.240  25.366  19.999 -0.20 +0.00    +0.066 A 
DOCKED: ATOM     21  C   UNL d   1      -2.938  25.731  19.667 -0.31 -0.00    -0.025 A 
DOCKED: ATOM     22  C   UNL d   1      -2.984  26.112  18.338 -0.31 -0.00    -0.021 A 
DOCKED: ATOM     23  C   UNL d   1      -4.326  25.971  17.926 -0.23 +0.01    +0.066 A 
DOCKED: ATOM     24  C   UNL d   1      -1.711  25.736  20.576 -0.30 -0.00    +0.051 C 
DOCKED: ATOM     25  N   UNL d   1      -7.192  25.865  17.134 -0.11 -0.01    -0.248 N 
DOCKED: ATOM     26  N   UNL d   1      -9.110  24.961  18.933 -0.04 +0.00    -0.248 N 
DOCKED: ATOM     27  N   UNL d   1      -6.994  24.591  20.962 -0.11 +0.01    -0.248 N 
DOCKED: ATOM     28  N   UNL d   1      -5.090  25.521  18.929 -0.10 -0.01    -0.248 N 
DOCKED: ATOM     29 FE   UNL d   1      -7.083  25.190  19.161 -0.05 +0.00    +0.000 Fe
DOCKED: ENDROOT
DOCKED: BRANCH   6  30
DOCKED: ATOM     30  C   UNL d   1      -5.840  27.478  13.999 -0.20 +0.01    +0.052 C 
DOCKED: BRANCH  30  31
DOCKED: ATOM     31  C   UNL d   1      -5.727  28.986  14.220 -0.08 +0.03    +0.115 C 
DOCKED: BRANCH  31  32
DOCKED: ATOM     32  C   UNL d   1      -4.428  29.375  14.893 -0.11 +0.07    +0.139 C 
DOCKED: ATOM     33  O   UNL d   1      -4.351  29.343  16.112 +0.00 -0.26    -0.650 OA
DOCKED: BRANCH  32  34
DOCKED: ATOM     34  O   UNL d   1      -3.326  29.713  14.185 -0.52 -0.97    -0.776 OA
DOCKED: ATOM     35  H   UNL d   1      -2.701  30.403  14.448 +0.01 +0.25    +0.167 HD
DOCKED: ENDBRANCH  32  34
DOCKED: ENDBRANCH  31  32
DOCKED: ENDBRANCH  30  31
DOCKED: ENDBRANCH   6  30
DOCKED: BRANCH  29  36
DOCKED: ATOM     36  C   UNL d   1      -7.373  27.189  19.723 -0.02 +0.00    +0.190 C 
DOCKED: BRANCH  36  37
DOCKED: ATOM     37  O   UNL d   1      -7.193  28.506  19.289 +0.00 -0.02    -0.399 OA
DOCKED: ATOM     38  H   UNL d   1      -6.560  28.438  18.521 +0.02 +0.01    +0.209 HD
DOCKED: ENDBRANCH  36  37
DOCKED: ENDBRANCH  29  36
DOCKED: BRANCH  22  39
DOCKED: ATOM     39  C   UNL d   1      -1.813  26.644  17.534 -0.39 +0.02    +0.052 C 
DOCKED: BRANCH  39  40
DOCKED: ATOM     40  C   UNL d   1      -1.554  28.123  17.867 -0.30 +0.04    +0.115 C 
DOCKED: BRANCH  40  41
DOCKED: ATOM     41  C   UNL d   1      -0.791  28.879  16.799 -0.22 +0.11    +0.139 C 
DOCKED: ATOM     42  O   UNL d   1       0.361  28.557  16.545 -0.00 -0.49    -0.650 OA
DOCKED: BRANCH  41  43
DOCKED: ATOM     43  O   UNL d   1      -1.378  29.844  16.056 +0.03 -0.96    -0.776 OA
DOCKED: ATOM     44  H   UNL d   1      -2.336  29.912  15.956 +0.02 +0.17    +0.167 HD
DOCKED: ENDBRANCH  41  43
DOCKED: ENDBRANCH  40  41
DOCKED: ENDBRANCH  39  40
DOCKED: ENDBRANCH  22  39
DOCKED: BRANCH  12  45
DOCKED: ATOM     45  C   UNL d   1     -12.222  23.745  20.592 -0.17 -0.00    +0.004 C 
DOCKED: ATOM     46  C   UNL d   1     -12.531  22.476  20.844 -0.28 -0.00    +0.012 C 
DOCKED: ENDBRANCH  12  45
DOCKED: BRANCH  17  47
DOCKED: ATOM     47  C   UNL d   1      -5.296  24.220  24.181 -0.15 -0.00    +0.004 C 
DOCKED: ATOM     48  C   UNL d   1      -5.157  23.175  25.000 -0.22 -0.00    +0.012 C 
DOCKED: ENDBRANCH  17  47
DOCKED: TORSDOF 12
DOCKED: TER
DOCKED: ENDMDL
________________________________________________________________________________


	BEGINNING GENETIC ALGORITHM DOCKING 82 of 100
Run: 82 Seed: 991976346 1537022374 [ Run 82 of 100 GA/GALS ]
Beginning LAMARCKIAN GENETIC ALGORITHM (LGA), with a maximum of 25000000 energy evaluations.

Final-Value: -11.021


	FINAL GENETIC ALGORITHM DOCKED STATE
	_______________________________________________


Detailed state:  trans 17.648 10.725 13.995 quatxyzw 0.221051 -0.494663 -0.378480 -0.750465 center 8.781 34.984 -0.736 ntor 12 -175.9179 -28.0372 -35.8653 65.7232 141.4078 -80.9024 156.1551 95.2215 112.5328 -43.8295 60.1222 180.0000
State:	 17.648  10.725  13.995   0.334 -0.748 -0.573 -82.739   -175.92  -28.04  -35.87   65.72  141.41  -80.90  156.16   95.22  112.53  -43.83   60.12  180.00

DOCKED: MODEL       82
DOCKED: USER    Run = 82
DOCKED: USER    DPF = D:/Protein_go_brrr/autodock/final/1A3N/heme_Co/dock.dpf
DOCKED: USER  
DOCKED: USER    Estimated Free Energy of Binding    =   -6.83 kcal/mol  [=(1)+(2)+(3)-(4)]
DOCKED: USER    Estimated Inhibition Constant, Ki   =    9.87 uM (micromolar)  [Temperature = 298.15 K]
DOCKED: USER    
DOCKED: USER    (1) Final Intermolecular Energy     =  -10.41 kcal/mol
DOCKED: USER        vdW + Hbond + desolv Energy     =   -8.92 kcal/mol
DOCKED: USER        Electrostatic Energy            =   -1.49 kcal/mol
DOCKED: USER    (2) Final Total Internal Energy     =   -0.61 kcal/mol
DOCKED: USER    (3) Torsional Free Energy           =   +3.58 kcal/mol
DOCKED: USER    (4) Unbound System's Energy  [=(2)] =   -0.61 kcal/mol
DOCKED: USER    
DOCKED: USER    
DOCKED: USER    NEWDPF move heme_Co_opt.pdbqt
DOCKED: USER    NEWDPF about 8.781000 34.984000 -0.736000
DOCKED: USER    NEWDPF tran0 17.648257 10.725210 13.994911
DOCKED: USER    NEWDPF quaternion0 0.221051 -0.494663 -0.378480 -0.750465
DOCKED: USER    NEWDPF axisangle0 0.334465 -0.748457 -0.572665 -82.738665
DOCKED: USER    NEWDPF quat0 0.334465 -0.748457 -0.572665 -82.738665
DOCKED: USER    NEWDPF dihe0 -175.92 -28.04 -35.87 65.72 141.41 -80.90 156.16 95.22 112.53 -43.83 60.12 180.00 
DOCKED: USER  keepresnum = 1 
DOCKED: USER  
DOCKED: REMARK  12 active torsions:
DOCKED: REMARK  status: ('A' for Active; 'I' for Inactive)
DOCKED: REMARK    1  A    between atoms: C_6  and  C_10 
DOCKED: REMARK    2  A    between atoms: C_10  and  C_11 
DOCKED: REMARK    3  A    between atoms: C_11  and  C_12 
DOCKED: REMARK    4  A    between atoms: C_12  and  O_14 
DOCKED: REMARK    5  A    between atoms: C_17  and  C_20 
DOCKED: REMARK    6  A    between atoms: C_24  and  C_27 
DOCKED: REMARK    7  A    between atoms: C_31  and  C_34 
DOCKED: REMARK    8  A    between atoms: C_34  and  C_35 
DOCKED: REMARK    9  A    between atoms: C_35  and  C_36 
DOCKED: REMARK   10  A    between atoms: C_36  and  O_38 
DOCKED: REMARK   11  A    between atoms: FE_43  and  C_44 
DOCKED: REMARK   12  A    between atoms: C_44  and  O_45 
DOCKED: USER                              x       y       z     vdW  Elec       q    Type
DOCKED: USER                           _______ _______ _______ _____ _____    ______ ____
DOCKED: ROOT
DOCKED: ATOM      1  C   UNL d   1      18.162  12.519  12.883 -0.12 +0.01    +0.064 A 
DOCKED: ATOM      2  C   UNL d   1      14.117  10.049  13.271 -0.10 +0.02    +0.064 C 
DOCKED: ATOM      3  C   UNL d   1      16.347   6.736  15.894 -0.25 +0.04    +0.064 A 
DOCKED: ATOM      4  C   UNL d   1      20.394   9.434  15.837 -0.14 +0.03    +0.064 A 
DOCKED: ATOM      5  C   UNL d   1      16.902  12.069  12.766 -0.11 +0.01    +0.066 A 
DOCKED: ATOM      6  C   UNL d   1      15.901  12.813  12.113 -0.16 -0.00    -0.021 A 
DOCKED: ATOM      7  C   UNL d   1      14.724  12.103  12.248 -0.11 -0.00    -0.025 A 
DOCKED: ATOM      8  C   UNL d   1      15.060  10.949  12.963 -0.08 +0.01    +0.066 A 
DOCKED: ATOM      9  C   UNL d   1      13.328  12.483  11.730 -0.14 +0.00    +0.051 C 
DOCKED: ATOM     10  C   UNL d   1      14.374   8.821  13.980 -0.10 +0.04    +0.066 A 
DOCKED: ATOM     11  C   UNL d   1      13.456   7.773  14.211 -0.16 -0.01    -0.021 A 
DOCKED: ATOM     12  C   UNL d   1      14.134   6.818  14.975 -0.27 +0.00    +0.000 A 
DOCKED: ATOM     13  C   UNL d   1      15.414   7.347  15.142 -0.17 +0.06    +0.070 A 
DOCKED: ATOM     14  C   UNL d   1      12.062   7.667  13.649 -0.18 +0.02    +0.052 C 
DOCKED: ATOM     15  C   UNL d   1      17.694   7.164  16.215 -0.21 +0.03    +0.066 A 
DOCKED: ATOM     16  C   UNL d   1      18.557   6.558  17.117 -0.26 -0.00    -0.021 A 
DOCKED: ATOM     17  C   UNL d   1      19.725   7.334  17.106 -0.27 +0.00    +0.000 A 
DOCKED: ATOM     18  C   UNL d   1      19.488   8.346  16.182 -0.15 +0.02    +0.070 A 
DOCKED: ATOM     19  C   UNL d   1      18.252   5.315  17.923 -0.49 -0.03    +0.052 C 
DOCKED: ATOM     20  C   UNL d   1      20.153  10.477  15.007 -0.09 +0.02    +0.066 A 
DOCKED: ATOM     21  C   UNL d   1      21.091  11.481  14.783 -0.14 -0.01    -0.025 A 
DOCKED: ATOM     22  C   UNL d   1      20.486  12.370  13.913 -0.15 -0.01    -0.021 A 
DOCKED: ATOM     23  C   UNL d   1      19.194  11.865  13.657 -0.10 +0.02    +0.066 A 
DOCKED: ATOM     24  C   UNL d   1      22.490  11.600  15.383 -0.25 +0.04    +0.051 C 
DOCKED: ATOM     25  N   UNL d   1      16.404  10.898  13.292 -0.03 -0.07    -0.248 N 
DOCKED: ATOM     26  N   UNL d   1      15.574   8.531  14.493 -0.07 -0.21    -0.248 N 
DOCKED: ATOM     27  N   UNL d   1      18.257   8.231  15.694 -0.10 -0.13    -0.248 N 
DOCKED: ATOM     28  N   UNL d   1      18.987  10.721  14.319 -0.03 -0.08    -0.248 N 
DOCKED: ATOM     29 FE   UNL d   1      17.389   9.487  14.564 -0.03 +0.00    +0.000 Fe
DOCKED: ENDROOT
DOCKED: BRANCH   6  30
DOCKED: ATOM     30  C   UNL d   1      16.064  14.183  11.463 -0.18 +0.00    +0.052 C 
DOCKED: BRANCH  30  31
DOCKED: ATOM     31  C   UNL d   1      15.196  14.290  10.210 -0.16 +0.01    +0.115 C 
DOCKED: BRANCH  31  32
DOCKED: ATOM     32  C   UNL d   1      15.695  13.410   9.085 -0.21 +0.01    +0.139 C 
DOCKED: ATOM     33  O   UNL d   1      16.335  12.403   9.349 -0.03 +0.00    -0.650 OA
DOCKED: BRANCH  32  34
DOCKED: ATOM     34  O   UNL d   1      15.415  13.674   7.788 -0.02 +0.01    -0.776 OA
DOCKED: ATOM     35  H   UNL d   1      15.719  13.134   7.045 -0.43 -0.05    +0.167 HD
DOCKED: ENDBRANCH  32  34
DOCKED: ENDBRANCH  31  32
DOCKED: ENDBRANCH  30  31
DOCKED: ENDBRANCH   6  30
DOCKED: BRANCH  29  36
DOCKED: ATOM     36  C   UNL d   1      16.715  10.642  16.179 -0.18 +0.02    +0.190 C 
DOCKED: BRANCH  36  37
DOCKED: ATOM     37  O   UNL d   1      15.984  10.574  17.369 -0.14 +0.02    -0.399 OA
DOCKED: ATOM     38  H   UNL d   1      15.462  11.424  17.399 -0.40 -0.09    +0.209 HD
DOCKED: ENDBRANCH  36  37
DOCKED: ENDBRANCH  29  36
DOCKED: BRANCH  22  39
DOCKED: ATOM     39  C   UNL d   1      21.098  13.664  13.410 -0.27 +0.01    +0.052 C 
DOCKED: BRANCH  39  40
DOCKED: ATOM     40  C   UNL d   1      20.995  14.764  14.479 -0.14 +0.05    +0.115 C 
DOCKED: BRANCH  40  41
DOCKED: ATOM     41  C   UNL d   1      22.292  15.498  14.748 -0.22 +0.12    +0.139 C 
DOCKED: ATOM     42  O   UNL d   1      22.707  15.578  15.896 -0.26 -0.90    -0.650 OA
DOCKED: BRANCH  41  43
DOCKED: ATOM     43  O   UNL d   1      23.049  15.993  13.745 +0.08 -0.54    -0.776 OA
DOCKED: ATOM     44  H   UNL d   1      23.072  15.593  12.866 -0.45 +0.00    +0.167 HD
DOCKED: ENDBRANCH  41  43
DOCKED: ENDBRANCH  40  41
DOCKED: ENDBRANCH  39  40
DOCKED: ENDBRANCH  22  39
DOCKED: BRANCH  12  45
DOCKED: ATOM     45  C   UNL d   1      13.728   5.466  15.546 -0.41 +0.00    +0.004 C 
DOCKED: ATOM     46  C   UNL d   1      13.263   4.375  14.942 -0.36 +0.01    +0.012 C 
DOCKED: ENDBRANCH  12  45
DOCKED: BRANCH  17  47
DOCKED: ATOM     47  C   UNL d   1      20.969   7.198  17.922 -0.24 +0.00    +0.004 C 
DOCKED: ATOM     48  C   UNL d   1      22.178   6.994  17.394 -0.43 +0.00    +0.012 C 
DOCKED: ENDBRANCH  17  47
DOCKED: TORSDOF 12
DOCKED: TER
DOCKED: ENDMDL
________________________________________________________________________________


	BEGINNING GENETIC ALGORITHM DOCKING 83 of 100
Run: 83 Seed: 681896583 1302709381 [ Run 83 of 100 GA/GALS ]
Beginning LAMARCKIAN GENETIC ALGORITHM (LGA), with a maximum of 25000000 energy evaluations.

Final-Value: -13.204


	FINAL GENETIC ALGORITHM DOCKED STATE
	_______________________________________________


Detailed state:  trans 0.992 -7.675 -7.883 quatxyzw 0.607827 -0.041865 0.771999 0.181138 center 8.781 34.984 -0.736 ntor 12 -29.3526 123.2031 160.4192 106.1780 144.7155 113.0943 -138.4743 -85.8668 -180.0000 -98.7972 -3.7103 -6.9630
State:	  0.992  -7.675  -7.883   0.618 -0.043  0.785 159.128    -29.35  123.20  160.42  106.18  144.72  113.09 -138.47  -85.87 -180.00  -98.80   -3.71   -6.96

DOCKED: MODEL       83
DOCKED: USER    Run = 83
DOCKED: USER    DPF = D:/Protein_go_brrr/autodock/final/1A3N/heme_Co/dock.dpf
DOCKED: USER  
DOCKED: USER    Estimated Free Energy of Binding    =   -7.36 kcal/mol  [=(1)+(2)+(3)-(4)]
DOCKED: USER    Estimated Inhibition Constant, Ki   =    4.00 uM (micromolar)  [Temperature = 298.15 K]
DOCKED: USER    
DOCKED: USER    (1) Final Intermolecular Energy     =  -10.94 kcal/mol
DOCKED: USER        vdW + Hbond + desolv Energy     =   -8.41 kcal/mol
DOCKED: USER        Electrostatic Energy            =   -2.53 kcal/mol
DOCKED: USER    (2) Final Total Internal Energy     =   -2.26 kcal/mol
DOCKED: USER    (3) Torsional Free Energy           =   +3.58 kcal/mol
DOCKED: USER    (4) Unbound System's Energy  [=(2)] =   -2.26 kcal/mol
DOCKED: USER    
DOCKED: USER    
DOCKED: USER    NEWDPF move heme_Co_opt.pdbqt
DOCKED: USER    NEWDPF about 8.781000 34.984000 -0.736000
DOCKED: USER    NEWDPF tran0 0.991982 -7.675120 -7.882825
DOCKED: USER    NEWDPF quaternion0 0.607827 -0.041865 0.771999 0.181138
DOCKED: USER    NEWDPF axisangle0 0.618051 -0.042569 0.784984 159.127909
DOCKED: USER    NEWDPF quat0 0.618051 -0.042569 0.784984 159.127909
DOCKED: USER    NEWDPF dihe0 -29.35 123.20 160.42 106.18 144.72 113.09 -138.47 -85.87 -180.00 -98.80 -3.71 -6.96 
DOCKED: USER  keepresnum = 1 
DOCKED: USER  
DOCKED: REMARK  12 active torsions:
DOCKED: REMARK  status: ('A' for Active; 'I' for Inactive)
DOCKED: REMARK    1  A    between atoms: C_6  and  C_10 
DOCKED: REMARK    2  A    between atoms: C_10  and  C_11 
DOCKED: REMARK    3  A    between atoms: C_11  and  C_12 
DOCKED: REMARK    4  A    between atoms: C_12  and  O_14 
DOCKED: REMARK    5  A    between atoms: C_17  and  C_20 
DOCKED: REMARK    6  A    between atoms: C_24  and  C_27 
DOCKED: REMARK    7  A    between atoms: C_31  and  C_34 
DOCKED: REMARK    8  A    between atoms: C_34  and  C_35 
DOCKED: REMARK    9  A    between atoms: C_35  and  C_36 
DOCKED: REMARK   10  A    between atoms: C_36  and  O_38 
DOCKED: REMARK   11  A    between atoms: FE_43  and  C_44 
DOCKED: REMARK   12  A    between atoms: C_44  and  O_45 
DOCKED: USER                              x       y       z     vdW  Elec       q    Type
DOCKED: USER                           _______ _______ _______ _____ _____    ______ ____
DOCKED: ROOT
DOCKED: ATOM      1  C   UNL d   1       0.674  -7.632 -10.031 -0.13 +0.05    +0.064 A 
DOCKED: ATOM      2  C   UNL d   1       3.381  -4.991  -7.148 -0.36 +0.01    +0.064 C 
DOCKED: ATOM      3  C   UNL d   1       1.578  -7.236  -3.336 -0.31 +0.01    +0.064 A 
DOCKED: ATOM      4  C   UNL d   1      -0.909 -10.207  -6.277 -0.15 +0.02    +0.064 A 
DOCKED: ATOM      5  C   UNL d   1       1.519  -6.721  -9.521 -0.17 +0.04    +0.066 A 
DOCKED: ATOM      6  C   UNL d   1       2.312  -5.896 -10.342 -0.12 -0.01    -0.021 A 
DOCKED: ATOM      7  C   UNL d   1       3.112  -5.147  -9.501 -0.18 -0.01    -0.025 A 
DOCKED: ATOM      8  C   UNL d   1       2.762  -5.536  -8.203 -0.24 +0.02    +0.066 A 
DOCKED: ATOM      9  C   UNL d   1       4.170  -4.104  -9.889 -0.21 +0.01    +0.051 C 
DOCKED: ATOM     10  C   UNL d   1       3.070  -5.309  -5.777 -0.19 +0.02    +0.066 A 
DOCKED: ATOM     11  C   UNL d   1       3.583  -4.672  -4.626 -0.41 -0.00    -0.021 A 
DOCKED: ATOM     12  C   UNL d   1       3.038  -5.344  -3.529 -0.29 +0.00    +0.000 A 
DOCKED: ATOM     13  C   UNL d   1       2.225  -6.330  -4.089 -0.21 +0.01    +0.070 A 
DOCKED: ATOM     14  C   UNL d   1       4.458  -3.446  -4.600 -0.51 +0.01    +0.052 C 
DOCKED: ATOM     15  C   UNL d   1       0.743  -8.347  -3.748 -0.36 +0.01    +0.066 A 
DOCKED: ATOM     16  C   UNL d   1       0.221  -9.335  -2.924 -0.41 -0.00    -0.021 A 
DOCKED: ATOM     17  C   UNL d   1      -0.495 -10.196  -3.768 -0.37 +0.00    +0.000 A 
DOCKED: ATOM     18  C   UNL d   1      -0.367  -9.654  -5.043 -0.26 +0.01    +0.070 A 
DOCKED: ATOM     19  C   UNL d   1       0.416  -9.421  -1.426 -0.49 +0.00    +0.052 C 
DOCKED: ATOM     20  C   UNL d   1      -0.725  -9.746  -7.538 -0.12 +0.03    +0.066 A 
DOCKED: ATOM     21  C   UNL d   1      -1.269 -10.386  -8.650 -0.12 -0.01    -0.025 A 
DOCKED: ATOM     22  C   UNL d   1      -0.853  -9.650  -9.744 -0.11 -0.01    -0.021 A 
DOCKED: ATOM     23  C   UNL d   1      -0.061  -8.595  -9.242 -0.13 +0.05    +0.066 A 
DOCKED: ATOM     24  C   UNL d   1      -2.125 -11.649  -8.671 -0.09 +0.01    +0.051 C 
DOCKED: ATOM     25  N   UNL d   1       1.773  -6.505  -8.186 -0.13 -0.13    -0.248 N 
DOCKED: ATOM     26  N   UNL d   1       2.201  -6.271  -5.448 -0.06 -0.07    -0.248 N 
DOCKED: ATOM     27  N   UNL d   1       0.402  -8.571  -4.997 -0.22 -0.06    -0.248 N 
DOCKED: ATOM     28  N   UNL d   1       0.021  -8.652  -7.907 -0.12 -0.15    -0.248 N 
DOCKED: ATOM     29 FE   UNL d   1       1.044  -7.601  -6.499 -0.06 +0.00    +0.000 Fe
DOCKED: ENDROOT
DOCKED: BRANCH   6  30
DOCKED: ATOM     30  C   UNL d   1       2.348  -5.895 -11.867 -0.05 +0.02    +0.052 C 
DOCKED: BRANCH  30  31
DOCKED: ATOM     31  C   UNL d   1       1.172  -5.099 -12.432 -0.06 +0.05    +0.115 C 
DOCKED: BRANCH  31  32
DOCKED: ATOM     32  C   UNL d   1       0.262  -4.564 -11.347 -0.17 +0.11    +0.139 C 
DOCKED: ATOM     33  O   UNL d   1       0.460  -3.447 -10.894 +0.04 -0.40    -0.650 OA
DOCKED: BRANCH  32  34
DOCKED: ATOM     34  O   UNL d   1      -0.800  -5.267 -10.890 +0.02 -1.45    -0.776 OA
DOCKED: ATOM     35  H   UNL d   1      -1.338  -5.857 -11.436 +0.03 +0.27    +0.167 HD
DOCKED: ENDBRANCH  32  34
DOCKED: ENDBRANCH  31  32
DOCKED: ENDBRANCH  30  31
DOCKED: ENDBRANCH   6  30
DOCKED: BRANCH  29  36
DOCKED: ATOM     36  C   UNL d   1       2.707  -8.855  -6.738 -0.21 +0.03    +0.190 C 
DOCKED: BRANCH  36  37
DOCKED: ATOM     37  O   UNL d   1       3.481  -9.508  -7.703 +0.01 -0.06    -0.399 OA
DOCKED: ATOM     38  H   UNL d   1       3.169  -9.137  -8.575 +0.07 +0.04    +0.209 HD
DOCKED: ENDBRANCH  36  37
DOCKED: ENDBRANCH  29  36
DOCKED: BRANCH  22  39
DOCKED: ATOM     39  C   UNL d   1      -1.150  -9.984 -11.194 -0.05 +0.02    +0.052 C 
DOCKED: BRANCH  39  40
DOCKED: ATOM     40  C   UNL d   1      -2.400  -9.231 -11.679 -0.06 +0.06    +0.115 C 
DOCKED: BRANCH  40  41
DOCKED: ATOM     41  C   UNL d   1      -2.175  -7.760 -11.959 -0.07 +0.11    +0.139 C 
DOCKED: ATOM     42  O   UNL d   1      -1.259  -7.426 -12.698 +0.00 -0.38    -0.650 OA
DOCKED: BRANCH  41  43
DOCKED: ATOM     43  O   UNL d   1      -3.011  -6.810 -11.486 +0.04 -1.10    -0.776 OA
DOCKED: ATOM     44  H   UNL d   1      -2.787  -5.871 -11.494 +0.03 +0.31    +0.167 HD
DOCKED: ENDBRANCH  41  43
DOCKED: ENDBRANCH  40  41
DOCKED: ENDBRANCH  39  40
DOCKED: ENDBRANCH  22  39
DOCKED: BRANCH  12  45
DOCKED: ATOM     45  C   UNL d   1       3.175  -5.158  -2.024 -0.42 +0.00    +0.004 C 
DOCKED: ATOM     46  C   UNL d   1       2.389  -4.530  -1.153 -0.45 +0.00    +0.012 C 
DOCKED: ENDBRANCH  12  45
DOCKED: BRANCH  17  47
DOCKED: ATOM     47  C   UNL d   1      -1.213 -11.466  -3.449 -0.30 +0.00    +0.004 C 
DOCKED: ATOM     48  C   UNL d   1      -2.507 -11.667  -3.710 -0.30 -0.00    +0.012 C 
DOCKED: ENDBRANCH  17  47
DOCKED: TORSDOF 12
DOCKED: TER
DOCKED: ENDMDL
________________________________________________________________________________


	BEGINNING GENETIC ALGORITHM DOCKING 84 of 100
Run: 84 Seed: 885996643 1544831872 [ Run 84 of 100 GA/GALS ]
Beginning LAMARCKIAN GENETIC ALGORITHM (LGA), with a maximum of 25000000 energy evaluations.

Final-Value: -12.988


	FINAL GENETIC ALGORITHM DOCKED STATE
	_______________________________________________


Detailed state:  trans 8.496 14.193 34.187 quatxyzw -0.745135 0.395713 0.528836 0.092290 center 8.781 34.984 -0.736 ntor 12 50.6129 84.6925 59.0007 21.3682 123.4019 70.9584 -20.5793 -174.0793 -96.1951 127.0733 178.7928 2.0129
State:	  8.496  14.193  34.187  -0.748  0.397  0.531 169.409     50.61   84.69   59.00   21.37  123.40   70.96  -20.58 -174.08  -96.20  127.07  178.79    2.01

DOCKED: MODEL       84
DOCKED: USER    Run = 84
DOCKED: USER    DPF = D:/Protein_go_brrr/autodock/final/1A3N/heme_Co/dock.dpf
DOCKED: USER  
DOCKED: USER    Estimated Free Energy of Binding    =   -8.51 kcal/mol  [=(1)+(2)+(3)-(4)]
DOCKED: USER    Estimated Inhibition Constant, Ki   =  577.17 nM (nanomolar)  [Temperature = 298.15 K]
DOCKED: USER    
DOCKED: USER    (1) Final Intermolecular Energy     =  -12.09 kcal/mol
DOCKED: USER        vdW + Hbond + desolv Energy     =   -9.09 kcal/mol
DOCKED: USER        Electrostatic Energy            =   -3.00 kcal/mol
DOCKED: USER    (2) Final Total Internal Energy     =   -0.90 kcal/mol
DOCKED: USER    (3) Torsional Free Energy           =   +3.58 kcal/mol
DOCKED: USER    (4) Unbound System's Energy  [=(2)] =   -0.90 kcal/mol
DOCKED: USER    
DOCKED: USER    
DOCKED: USER    NEWDPF move heme_Co_opt.pdbqt
DOCKED: USER    NEWDPF about 8.781000 34.984000 -0.736000
DOCKED: USER    NEWDPF tran0 8.496136 14.192649 34.187136
DOCKED: USER    NEWDPF quaternion0 -0.745135 0.395713 0.528836 0.092290
DOCKED: USER    NEWDPF axisangle0 -0.748329 0.397409 0.531103 169.409315
DOCKED: USER    NEWDPF quat0 -0.748329 0.397409 0.531103 169.409315
DOCKED: USER    NEWDPF dihe0 50.61 84.69 59.00 21.37 123.40 70.96 -20.58 -174.08 -96.20 127.07 178.79 2.01 
DOCKED: USER  keepresnum = 1 
DOCKED: USER  
DOCKED: REMARK  12 active torsions:
DOCKED: REMARK  status: ('A' for Active; 'I' for Inactive)
DOCKED: REMARK    1  A    between atoms: C_6  and  C_10 
DOCKED: REMARK    2  A    between atoms: C_10  and  C_11 
DOCKED: REMARK    3  A    between atoms: C_11  and  C_12 
DOCKED: REMARK    4  A    between atoms: C_12  and  O_14 
DOCKED: REMARK    5  A    between atoms: C_17  and  C_20 
DOCKED: REMARK    6  A    between atoms: C_24  and  C_27 
DOCKED: REMARK    7  A    between atoms: C_31  and  C_34 
DOCKED: REMARK    8  A    between atoms: C_34  and  C_35 
DOCKED: REMARK    9  A    between atoms: C_35  and  C_36 
DOCKED: REMARK   10  A    between atoms: C_36  and  O_38 
DOCKED: REMARK   11  A    between atoms: FE_43  and  C_44 
DOCKED: REMARK   12  A    between atoms: C_44  and  O_45 
DOCKED: USER                              x       y       z     vdW  Elec       q    Type
DOCKED: USER                           _______ _______ _______ _____ _____    ______ ____
DOCKED: ROOT
DOCKED: ATOM      1  C   UNL d   1       8.736  14.950  36.208 -0.07 +0.05    +0.064 A 
DOCKED: ATOM      2  C   UNL d   1       6.989  16.915  32.247 -0.23 +0.04    +0.064 C 
DOCKED: ATOM      3  C   UNL d   1       8.223  13.042  29.736 -0.19 +0.01    +0.064 A 
DOCKED: ATOM      4  C   UNL d   1       9.662  10.858  33.837 -0.17 +0.05    +0.064 A 
DOCKED: ATOM      5  C   UNL d   1       8.201  15.786  35.304 -0.09 +0.07    +0.066 A 
DOCKED: ATOM      6  C   UNL d   1       7.644  17.027  35.670 -0.05 -0.02    -0.021 A 
DOCKED: ATOM      7  C   UNL d   1       7.118  17.583  34.520 -0.13 -0.02    -0.025 A 
DOCKED: ATOM      8  C   UNL d   1       7.391  16.666  33.499 -0.16 +0.06    +0.066 A 
DOCKED: ATOM      9  C   UNL d   1       6.384  18.924  34.373 -0.12 +0.03    +0.051 C 
DOCKED: ATOM     10  C   UNL d   1       7.247  16.044  31.127 -0.27 +0.03    +0.066 A 
DOCKED: ATOM     11  C   UNL d   1       6.976  16.314  29.768 -0.30 -0.00    -0.021 A 
DOCKED: ATOM     12  C   UNL d   1       7.349  15.169  29.058 -0.38 +0.00    +0.000 A 
DOCKED: ATOM     13  C   UNL d   1       7.831  14.294  30.032 -0.31 +0.02    +0.070 A 
DOCKED: ATOM     14  C   UNL d   1       6.484  17.620  29.199 -0.27 +0.01    +0.052 C 
DOCKED: ATOM     15  C   UNL d   1       8.695  11.993  30.618 -0.20 +0.02    +0.066 A 
DOCKED: ATOM     16  C   UNL d   1       8.946  10.674  30.268 -0.40 -0.01    -0.021 A 
DOCKED: ATOM     17  C   UNL d   1       9.359  10.040  31.448 -0.39 +0.00    +0.000 A 
DOCKED: ATOM     18  C   UNL d   1       9.343  11.030  32.425 -0.22 +0.03    +0.070 A 
DOCKED: ATOM     19  C   UNL d   1       8.789  10.090  28.882 -0.45 +0.01    +0.052 C 
DOCKED: ATOM     20  C   UNL d   1       9.571  11.784  34.821 -0.18 +0.06    +0.066 A 
DOCKED: ATOM     21  C   UNL d   1       9.871  11.490  36.149 -0.17 -0.02    -0.025 A 
DOCKED: ATOM     22  C   UNL d   1       9.641  12.658  36.852 -0.09 -0.02    -0.021 A 
DOCKED: ATOM     23  C   UNL d   1       9.197  13.612  35.912 -0.08 +0.05    +0.066 A 
DOCKED: ATOM     24  C   UNL d   1      10.336  10.154  36.725 -0.17 +0.05    +0.051 C 
DOCKED: ATOM     25  N   UNL d   1       8.066  15.546  33.955 -0.11 -0.22    -0.248 N 
DOCKED: ATOM     26  N   UNL d   1       7.820  14.845  31.275 -0.17 -0.10    -0.248 N 
DOCKED: ATOM     27  N   UNL d   1       8.914  12.172  31.902 -0.18 -0.11    -0.248 N 
DOCKED: ATOM     28  N   UNL d   1       9.151  13.086  34.682 -0.08 -0.19    -0.248 N 
DOCKED: ATOM     29 FE   UNL d   1       8.517  13.758  32.870 -0.05 +0.00    +0.000 Fe
DOCKED: ENDROOT
DOCKED: BRANCH   6  30
DOCKED: ATOM     30  C   UNL d   1       7.554  17.602  37.079 -0.06 +0.04    +0.052 C 
DOCKED: BRANCH  30  31
DOCKED: ATOM     31  C   UNL d   1       6.179  17.325  37.687 -0.05 +0.12    +0.115 C 
DOCKED: BRANCH  31  32
DOCKED: ATOM     32  C   UNL d   1       6.076  15.932  38.270 +0.03 +0.17    +0.139 C 
DOCKED: ATOM     33  O   UNL d   1       4.993  15.366  38.284 -0.38 -1.14    -0.650 OA
DOCKED: BRANCH  32  34
DOCKED: ATOM     34  O   UNL d   1       7.158  15.267  38.736 +0.01 -0.58    -0.776 OA
DOCKED: ATOM     35  H   UNL d   1       7.826  15.656  39.318 +0.01 +0.08    +0.167 HD
DOCKED: ENDBRANCH  32  34
DOCKED: ENDBRANCH  31  32
DOCKED: ENDBRANCH  30  31
DOCKED: ENDBRANCH   6  30
DOCKED: BRANCH  29  36
DOCKED: ATOM     36  C   UNL d   1       6.560  13.139  33.300 -0.23 +0.16    +0.190 C 
DOCKED: BRANCH  36  37
DOCKED: ATOM     37  O   UNL d   1       5.776  12.526  34.282 -0.62 -0.47    -0.399 OA
DOCKED: ATOM     38  H   UNL d   1       6.403  11.926  34.774 +0.10 +0.18    +0.209 HD
DOCKED: ENDBRANCH  36  37
DOCKED: ENDBRANCH  29  36
DOCKED: BRANCH  22  39
DOCKED: ATOM     39  C   UNL d   1       9.780  12.824  38.354 -0.04 +0.03    +0.052 C 
DOCKED: BRANCH  39  40
DOCKED: ATOM     40  C   UNL d   1      11.079  13.570  38.700 -0.04 +0.07    +0.115 C 
DOCKED: BRANCH  40  41
DOCKED: ATOM     41  C   UNL d   1      12.339  12.895  38.200 -0.06 +0.14    +0.139 C 
DOCKED: ATOM     42  O   UNL d   1      12.403  11.674  38.196 -0.18 -0.90    -0.650 OA
DOCKED: BRANCH  41  43
DOCKED: ATOM     43  O   UNL d   1      13.363  13.604  37.675 +0.11 -0.89    -0.776 OA
DOCKED: ATOM     44  H   UNL d   1      13.886  14.226  38.198 +0.02 +0.12    +0.167 HD
DOCKED: ENDBRANCH  41  43
DOCKED: ENDBRANCH  40  41
DOCKED: ENDBRANCH  39  40
DOCKED: ENDBRANCH  22  39
DOCKED: BRANCH  12  45
DOCKED: ATOM     45  C   UNL d   1       7.324  14.812  27.578 -0.44 +0.00    +0.004 C 
DOCKED: ATOM     46  C   UNL d   1       7.143  15.577  26.505 -0.51 +0.00    +0.012 C 
DOCKED: ENDBRANCH  12  45
DOCKED: BRANCH  17  47
DOCKED: ATOM     47  C   UNL d   1       9.701   8.606  31.691 -0.53 +0.00    +0.004 C 
DOCKED: ATOM     48  C   UNL d   1      10.953   8.152  31.779 -0.56 +0.00    +0.012 C 
DOCKED: ENDBRANCH  17  47
DOCKED: TORSDOF 12
DOCKED: TER
DOCKED: ENDMDL
________________________________________________________________________________


	BEGINNING GENETIC ALGORITHM DOCKING 85 of 100
Run: 85 Seed: 1957418861 152221139 [ Run 85 of 100 GA/GALS ]
Beginning LAMARCKIAN GENETIC ALGORITHM (LGA), with a maximum of 25000000 energy evaluations.

Final-Value: -11.966


	FINAL GENETIC ALGORITHM DOCKED STATE
	_______________________________________________


Detailed state:  trans 6.749 -16.697 18.416 quatxyzw -0.484733 -0.032450 -0.836281 -0.254194 center 8.781 34.984 -0.736 ntor 12 -107.6728 53.0737 -0.9162 -47.2044 126.8992 158.3204 27.9152 149.2561 179.3989 -43.9418 -178.2343 6.1054
State:	  6.749 -16.697  18.416  -0.501 -0.034 -0.865 -150.548   -107.67   53.07   -0.92  -47.20  126.90  158.32   27.92  149.26  179.40  -43.94 -178.23    6.11

DOCKED: MODEL       85
DOCKED: USER    Run = 85
DOCKED: USER    DPF = D:/Protein_go_brrr/autodock/final/1A3N/heme_Co/dock.dpf
DOCKED: USER  
DOCKED: USER    Estimated Free Energy of Binding    =   -6.30 kcal/mol  [=(1)+(2)+(3)-(4)]
DOCKED: USER    Estimated Inhibition Constant, Ki   =   24.01 uM (micromolar)  [Temperature = 298.15 K]
DOCKED: USER    
DOCKED: USER    (1) Final Intermolecular Energy     =   -9.88 kcal/mol
DOCKED: USER        vdW + Hbond + desolv Energy     =   -5.96 kcal/mol
DOCKED: USER        Electrostatic Energy            =   -3.92 kcal/mol
DOCKED: USER    (2) Final Total Internal Energy     =   -2.08 kcal/mol
DOCKED: USER    (3) Torsional Free Energy           =   +3.58 kcal/mol
DOCKED: USER    (4) Unbound System's Energy  [=(2)] =   -2.08 kcal/mol
DOCKED: USER    
DOCKED: USER    
DOCKED: USER    NEWDPF move heme_Co_opt.pdbqt
DOCKED: USER    NEWDPF about 8.781000 34.984000 -0.736000
DOCKED: USER    NEWDPF tran0 6.748590 -16.697455 18.416438
DOCKED: USER    NEWDPF quaternion0 -0.484733 -0.032450 -0.836281 -0.254194
DOCKED: USER    NEWDPF axisangle0 -0.501196 -0.033552 -0.864683 -150.548284
DOCKED: USER    NEWDPF quat0 -0.501196 -0.033552 -0.864683 -150.548284
DOCKED: USER    NEWDPF dihe0 -107.67 53.07 -0.92 -47.20 126.90 158.32 27.92 149.26 179.40 -43.94 -178.23 6.11 
DOCKED: USER  keepresnum = 1 
DOCKED: USER  
DOCKED: REMARK  12 active torsions:
DOCKED: REMARK  status: ('A' for Active; 'I' for Inactive)
DOCKED: REMARK    1  A    between atoms: C_6  and  C_10 
DOCKED: REMARK    2  A    between atoms: C_10  and  C_11 
DOCKED: REMARK    3  A    between atoms: C_11  and  C_12 
DOCKED: REMARK    4  A    between atoms: C_12  and  O_14 
DOCKED: REMARK    5  A    between atoms: C_17  and  C_20 
DOCKED: REMARK    6  A    between atoms: C_24  and  C_27 
DOCKED: REMARK    7  A    between atoms: C_31  and  C_34 
DOCKED: REMARK    8  A    between atoms: C_34  and  C_35 
DOCKED: REMARK    9  A    between atoms: C_35  and  C_36 
DOCKED: REMARK   10  A    between atoms: C_36  and  O_38 
DOCKED: REMARK   11  A    between atoms: FE_43  and  C_44 
DOCKED: REMARK   12  A    between atoms: C_44  and  O_45 
DOCKED: USER                              x       y       z     vdW  Elec       q    Type
DOCKED: USER                           _______ _______ _______ _____ _____    ______ ____
DOCKED: ROOT
DOCKED: ATOM      1  C   UNL d   1       7.077 -16.625  16.271 -0.01 +0.04    +0.064 A 
DOCKED: ATOM      2  C   UNL d   1       8.324 -13.687  19.796 -0.15 +0.03    +0.064 C 
DOCKED: ATOM      3  C   UNL d   1       5.881 -16.344  22.926 -0.17 +0.02    +0.064 A 
DOCKED: ATOM      4  C   UNL d   1       4.915 -19.569  19.414 -0.08 +0.01    +0.064 A 
DOCKED: ATOM      5  C   UNL d   1       7.567 -15.607  16.998 -0.03 +0.04    +0.066 A 
DOCKED: ATOM      6  C   UNL d   1       8.416 -14.631  16.440 -0.02 -0.02    -0.021 A 
DOCKED: ATOM      7  C   UNL d   1       8.793 -13.794  17.472 -0.05 -0.02    -0.025 A 
DOCKED: ATOM      8  C   UNL d   1       8.146 -14.285  18.611 -0.10 +0.04    +0.066 A 
DOCKED: ATOM      9  C   UNL d   1       9.726 -12.576  17.404 -0.05 +0.03    +0.051 C 
DOCKED: ATOM     10  C   UNL d   1       7.680 -14.104  21.016 -0.15 +0.03    +0.066 A 
DOCKED: ATOM     11  C   UNL d   1       7.715 -13.436  22.259 -0.23 -0.00    -0.021 A 
DOCKED: ATOM     12  C   UNL d   1       6.991 -14.231  23.153 -0.23 +0.00    +0.000 A 
DOCKED: ATOM     13  C   UNL d   1       6.559 -15.315  22.388 -0.20 +0.02    +0.070 A 
DOCKED: ATOM     14  C   UNL d   1       8.323 -12.084  22.529 -0.25 +0.00    +0.052 C 
DOCKED: ATOM     15  C   UNL d   1       5.406 -17.561  22.298 -0.06 +0.02    +0.066 A 
DOCKED: ATOM     16  C   UNL d   1       4.838 -18.652  22.941 -0.14 -0.00    -0.021 A 
DOCKED: ATOM     17  C   UNL d   1       4.560 -19.586  21.933 -0.13 +0.00    +0.000 A 
DOCKED: ATOM     18  C   UNL d   1       4.966 -18.981  20.747 -0.11 +0.02    +0.070 A 
DOCKED: ATOM     19  C   UNL d   1       4.593 -18.762  24.429 -0.14 +0.01    +0.052 C 
DOCKED: ATOM     20  C   UNL d   1       5.382 -19.036  18.260 -0.05 +0.02    +0.066 A 
DOCKED: ATOM     21  C   UNL d   1       5.308 -19.713  17.045 -0.03 -0.01    -0.025 A 
DOCKED: ATOM     22  C   UNL d   1       5.898 -18.876  16.115 -0.02 -0.01    -0.021 A 
DOCKED: ATOM     23  C   UNL d   1       6.316 -17.726  16.817 -0.02 +0.03    +0.066 A 
DOCKED: ATOM     24  C   UNL d   1       4.722 -21.098  16.785 -0.05 +0.00    +0.051 C 
DOCKED: ATOM     25  N   UNL d   1       7.375 -15.404  18.346 -0.06 -0.15    -0.248 N 
DOCKED: ATOM     26  N   UNL d   1       6.929 -15.208  21.084 -0.15 -0.12    -0.248 N 
DOCKED: ATOM     27  N   UNL d   1       5.492 -17.789  21.006 -0.04 -0.08    -0.248 N 
DOCKED: ATOM     28  N   UNL d   1       6.008 -17.819  18.116 -0.03 -0.10    -0.248 N 
DOCKED: ATOM     29 FE   UNL d   1       6.376 -16.669  19.752 -0.03 +0.00    +0.000 Fe
DOCKED: ENDROOT
DOCKED: BRANCH   6  30
DOCKED: ATOM     30  C   UNL d   1       8.900 -14.565  14.995 -0.06 +0.05    +0.052 C 
DOCKED: BRANCH  30  31
DOCKED: ATOM     31  C   UNL d   1      10.258 -15.253  14.853 -0.06 +0.13    +0.115 C 
DOCKED: BRANCH  31  32
DOCKED: ATOM     32  C   UNL d   1      10.790 -15.760  16.176 -0.04 +0.20    +0.139 C 
DOCKED: ATOM     33  O   UNL d   1      11.656 -15.124  16.759 -0.43 -1.03    -0.650 OA
DOCKED: BRANCH  32  34
DOCKED: ATOM     34  O   UNL d   1      10.304 -16.877  16.764 -0.06 -1.41    -0.776 OA
DOCKED: ATOM     35  H   UNL d   1       9.794 -16.881  17.586 +0.02 +0.30    +0.167 HD
DOCKED: ENDBRANCH  32  34
DOCKED: ENDBRANCH  31  32
DOCKED: ENDBRANCH  30  31
DOCKED: ENDBRANCH   6  30
DOCKED: BRANCH  29  36
DOCKED: ATOM     36  C   UNL d   1       8.222 -17.622  20.035 -0.10 +0.15    +0.190 C 
DOCKED: BRANCH  36  37
DOCKED: ATOM     37  O   UNL d   1       9.570 -17.574  19.662 -0.62 -0.68    -0.399 OA
DOCKED: ATOM     38  H   UNL d   1       9.565 -17.687  18.670 +0.02 +0.36    +0.209 HD
DOCKED: ENDBRANCH  36  37
DOCKED: ENDBRANCH  29  36
DOCKED: BRANCH  22  39
DOCKED: ATOM     39  C   UNL d   1       6.103 -19.198  14.647 -0.08 +0.02    +0.052 C 
DOCKED: BRANCH  39  40
DOCKED: ATOM     40  C   UNL d   1       5.138 -18.382  13.772 -0.18 +0.06    +0.115 C 
DOCKED: BRANCH  40  41
DOCKED: ATOM     41  C   UNL d   1       5.799 -17.665  12.613 -0.24 +0.17    +0.139 C 
DOCKED: ATOM     42  O   UNL d   1       6.495 -16.685  12.835 +0.06 -1.22    -0.650 OA
DOCKED: BRANCH  41  43
DOCKED: ATOM     43  O   UNL d   1       5.712 -18.130  11.347 -0.71 -1.05    -0.776 OA
DOCKED: ATOM     44  H   UNL d   1       5.165 -18.890  11.110 +0.06 +0.15    +0.167 HD
DOCKED: ENDBRANCH  41  43
DOCKED: ENDBRANCH  40  41
DOCKED: ENDBRANCH  39  40
DOCKED: ENDBRANCH  22  39
DOCKED: BRANCH  12  45
DOCKED: ATOM     45  C   UNL d   1       6.644 -14.082  24.628 -0.23 +0.00    +0.004 C 
DOCKED: ATOM     46  C   UNL d   1       7.428 -13.910  25.689 -0.34 +0.00    +0.012 C 
DOCKED: ENDBRANCH  12  45
DOCKED: BRANCH  17  47
DOCKED: ATOM     47  C   UNL d   1       4.006 -20.968  22.040 -0.10 +0.00    +0.004 C 
DOCKED: ATOM     48  C   UNL d   1       2.752 -21.287  21.708 -0.10 +0.00    +0.012 C 
DOCKED: ENDBRANCH  17  47
DOCKED: TORSDOF 12
DOCKED: TER
DOCKED: ENDMDL
________________________________________________________________________________


	BEGINNING GENETIC ALGORITHM DOCKING 86 of 100
Run: 86 Seed: 16767158 846883983 [ Run 86 of 100 GA/GALS ]
Beginning LAMARCKIAN GENETIC ALGORITHM (LGA), with a maximum of 25000000 energy evaluations.

Final-Value: -9.945


	FINAL GENETIC ALGORITHM DOCKED STATE
	_______________________________________________


Detailed state:  trans 3.956 -9.519 24.628 quatxyzw 0.077640 -0.570573 0.759538 -0.302523 center 8.781 34.984 -0.736 ntor 12 -75.5310 104.9536 9.6184 102.0276 -70.3839 -52.1915 66.9983 -116.0792 -90.4436 -79.1790 148.1104 -56.5565
State:	  3.956  -9.519  24.628   0.081 -0.599  0.797 -144.782    -75.53  104.95    9.62  102.03  -70.38  -52.19   67.00 -116.08  -90.44  -79.18  148.11  -56.56

DOCKED: MODEL       86
DOCKED: USER    Run = 86
DOCKED: USER    DPF = D:/Protein_go_brrr/autodock/final/1A3N/heme_Co/dock.dpf
DOCKED: USER  
DOCKED: USER    Estimated Free Energy of Binding    =   -5.74 kcal/mol  [=(1)+(2)+(3)-(4)]
DOCKED: USER    Estimated Inhibition Constant, Ki   =   62.23 uM (micromolar)  [Temperature = 298.15 K]
DOCKED: USER    
DOCKED: USER    (1) Final Intermolecular Energy     =   -9.32 kcal/mol
DOCKED: USER        vdW + Hbond + desolv Energy     =   -8.38 kcal/mol
DOCKED: USER        Electrostatic Energy            =   -0.94 kcal/mol
DOCKED: USER    (2) Final Total Internal Energy     =   -0.63 kcal/mol
DOCKED: USER    (3) Torsional Free Energy           =   +3.58 kcal/mol
DOCKED: USER    (4) Unbound System's Energy  [=(2)] =   -0.63 kcal/mol
DOCKED: USER    
DOCKED: USER    
DOCKED: USER    NEWDPF move heme_Co_opt.pdbqt
DOCKED: USER    NEWDPF about 8.781000 34.984000 -0.736000
DOCKED: USER    NEWDPF tran0 3.956458 -9.519027 24.628377
DOCKED: USER    NEWDPF quaternion0 0.077640 -0.570573 0.759538 -0.302523
DOCKED: USER    NEWDPF axisangle0 0.081457 -0.598623 0.796878 -144.781625
DOCKED: USER    NEWDPF quat0 0.081457 -0.598623 0.796878 -144.781625
DOCKED: USER    NEWDPF dihe0 -75.53 104.95 9.62 102.03 -70.38 -52.19 67.00 -116.08 -90.44 -79.18 148.11 -56.56 
DOCKED: USER  keepresnum = 1 
DOCKED: USER  
DOCKED: REMARK  12 active torsions:
DOCKED: REMARK  status: ('A' for Active; 'I' for Inactive)
DOCKED: REMARK    1  A    between atoms: C_6  and  C_10 
DOCKED: REMARK    2  A    between atoms: C_10  and  C_11 
DOCKED: REMARK    3  A    between atoms: C_11  and  C_12 
DOCKED: REMARK    4  A    between atoms: C_12  and  O_14 
DOCKED: REMARK    5  A    between atoms: C_17  and  C_20 
DOCKED: REMARK    6  A    between atoms: C_24  and  C_27 
DOCKED: REMARK    7  A    between atoms: C_31  and  C_34 
DOCKED: REMARK    8  A    between atoms: C_34  and  C_35 
DOCKED: REMARK    9  A    between atoms: C_35  and  C_36 
DOCKED: REMARK   10  A    between atoms: C_36  and  O_38 
DOCKED: REMARK   11  A    between atoms: FE_43  and  C_44 
DOCKED: REMARK   12  A    between atoms: C_44  and  O_45 
DOCKED: USER                              x       y       z     vdW  Elec       q    Type
DOCKED: USER                           _______ _______ _______ _____ _____    ______ ____
DOCKED: ROOT
DOCKED: ATOM      1  C   UNL d   1       5.434  -9.543  23.037 -0.17 +0.02    +0.064 A 
DOCKED: ATOM      2  C   UNL d   1       5.029 -12.047  27.059 -0.15 +0.00    +0.064 C 
DOCKED: ATOM      3  C   UNL d   1       1.238  -9.440  28.345 -0.07 -0.01    +0.064 A 
DOCKED: ATOM      4  C   UNL d   1       1.395  -7.125  24.070 -0.29 -0.01    +0.064 A 
DOCKED: ATOM      5  C   UNL d   1       5.624 -10.395  24.058 -0.18 +0.01    +0.066 A 
DOCKED: ATOM      6  C   UNL d   1       6.619 -11.391  24.025 -0.21 +0.00    -0.021 A 
DOCKED: ATOM      7  C   UNL d   1       6.482 -12.129  25.184 -0.23 +0.00    -0.025 A 
DOCKED: ATOM      8  C   UNL d   1       5.421 -11.542  25.882 -0.17 -0.00    +0.066 A 
DOCKED: ATOM      9  C   UNL d   1       7.310 -13.344  25.631 -0.32 +0.00    +0.051 C 
DOCKED: ATOM     10  C   UNL d   1       3.966 -11.495  27.860 +0.03 -0.00    +0.066 A 
DOCKED: ATOM     11  C   UNL d   1       3.600 -11.892  29.165 -0.06 +0.00    -0.021 A 
DOCKED: ATOM     12  C   UNL d   1       2.494 -11.112  29.517 -0.12 -0.00    +0.000 A 
DOCKED: ATOM     13  C   UNL d   1       2.276 -10.292  28.410 -0.11 -0.01    +0.070 A 
DOCKED: ATOM     14  C   UNL d   1       4.331 -12.882  30.034 -0.14 -0.00    +0.052 C 
DOCKED: ATOM     15  C   UNL d   1       0.835  -8.562  27.265 -0.08 -0.01    +0.066 A 
DOCKED: ATOM     16  C   UNL d   1      -0.332  -7.813  27.205 -0.10 +0.00    -0.021 A 
DOCKED: ATOM     17  C   UNL d   1      -0.293  -7.146  25.972 -0.23 -0.00    +0.000 A 
DOCKED: ATOM     18  C   UNL d   1       0.908  -7.528  25.383 -0.21 -0.01    +0.070 A 
DOCKED: ATOM     19  C   UNL d   1      -1.399  -7.764  28.276 -0.07 -0.00    +0.052 C 
DOCKED: ATOM     20  C   UNL d   1       2.516  -7.551  23.440 -0.22 +0.01    +0.066 A 
DOCKED: ATOM     21  C   UNL d   1       2.860  -7.119  22.161 -0.33 -0.00    -0.025 A 
DOCKED: ATOM     22  C   UNL d   1       4.036  -7.777  21.849 -0.26 -0.01    -0.021 A 
DOCKED: ATOM     23  C   UNL d   1       4.347  -8.594  22.957 -0.18 +0.02    +0.066 A 
DOCKED: ATOM     24  C   UNL d   1       2.097  -6.142  21.272 -0.43 -0.01    +0.051 C 
DOCKED: ATOM     25  N   UNL d   1       4.874 -10.462  25.211 -0.13 -0.02    -0.248 N 
DOCKED: ATOM     26  N   UNL d   1       3.201 -10.485  27.432 -0.09 +0.02    -0.248 N 
DOCKED: ATOM     27  N   UNL d   1       1.539  -8.395  26.168 -0.07 +0.01    -0.248 N 
DOCKED: ATOM     28  N   UNL d   1       3.428  -8.462  23.921 -0.14 -0.07    -0.248 N 
DOCKED: ATOM     29 FE   UNL d   1       3.108  -9.365  25.715 -0.04 +0.00    +0.000 Fe
DOCKED: ENDROOT
DOCKED: BRANCH   6  30
DOCKED: ATOM     30  C   UNL d   1       7.597 -11.662  22.886 -0.25 +0.00    +0.052 C 
DOCKED: BRANCH  30  31
DOCKED: ATOM     31  C   UNL d   1       7.553 -13.135  22.480 -0.23 +0.02    +0.115 C 
DOCKED: BRANCH  31  32
DOCKED: ATOM     32  C   UNL d   1       6.493 -13.414  21.436 -0.16 +0.06    +0.139 C 
DOCKED: ATOM     33  O   UNL d   1       5.318 -13.221  21.706 -0.52 -0.42    -0.650 OA
DOCKED: BRANCH  32  34
DOCKED: ATOM     34  O   UNL d   1       6.809 -13.827  20.186 -0.18 -0.40    -0.776 OA
DOCKED: ATOM     35  H   UNL d   1       7.112 -13.241  19.480 +0.04 +0.07    +0.167 HD
DOCKED: ENDBRANCH  32  34
DOCKED: ENDBRANCH  31  32
DOCKED: ENDBRANCH  30  31
DOCKED: ENDBRANCH   6  30
DOCKED: BRANCH  29  36
DOCKED: ATOM     36  C   UNL d   1       2.026 -10.896  24.777 +0.02 +0.15    +0.190 C 
DOCKED: BRANCH  36  37
DOCKED: ATOM     37  O   UNL d   1       0.785 -11.541  24.771 -0.35 -0.28    -0.399 OA
DOCKED: ATOM     38  H   UNL d   1       0.303 -11.176  25.565 +0.07 +0.04    +0.209 HD
DOCKED: ENDBRANCH  36  37
DOCKED: ENDBRANCH  29  36
DOCKED: BRANCH  22  39
DOCKED: ATOM     39  C   UNL d   1       4.779  -7.672  20.531 -0.28 +0.01    +0.052 C 
DOCKED: BRANCH  39  40
DOCKED: ATOM     40  C   UNL d   1       4.875  -6.206  20.077 -0.26 +0.00    +0.115 C 
DOCKED: BRANCH  40  41
DOCKED: ATOM     41  C   UNL d   1       6.163  -5.513  20.469 -0.30 +0.01    +0.139 C 
DOCKED: ATOM     42  O   UNL d   1       7.153  -6.187  20.716 +0.03 -0.08    -0.650 OA
DOCKED: BRANCH  41  43
DOCKED: ATOM     43  O   UNL d   1       6.274  -4.167  20.469 +0.05 -0.03    -0.776 OA
DOCKED: ATOM     44  H   UNL d   1       5.505  -3.582  20.445 -0.36 -0.03    +0.167 HD
DOCKED: ENDBRANCH  41  43
DOCKED: ENDBRANCH  40  41
DOCKED: ENDBRANCH  39  40
DOCKED: ENDBRANCH  22  39
DOCKED: BRANCH  12  45
DOCKED: ATOM     45  C   UNL d   1       1.636 -11.036  30.772 -0.08 -0.00    +0.004 C 
DOCKED: ATOM     46  C   UNL d   1       1.729 -10.245  31.838 -0.09 -0.00    +0.012 C 
DOCKED: ENDBRANCH  12  45
DOCKED: BRANCH  17  47
DOCKED: ATOM     47  C   UNL d   1      -1.307  -6.251  25.339 -0.38 -0.00    +0.004 C 
DOCKED: ATOM     48  C   UNL d   1      -2.256  -6.686  24.506 -0.43 -0.01    +0.012 C 
DOCKED: ENDBRANCH  17  47
DOCKED: TORSDOF 12
DOCKED: TER
DOCKED: ENDMDL
________________________________________________________________________________


	BEGINNING GENETIC ALGORITHM DOCKING 87 of 100
Run: 87 Seed: 1701104412 297280697 [ Run 87 of 100 GA/GALS ]
Beginning LAMARCKIAN GENETIC ALGORITHM (LGA), with a maximum of 25000000 energy evaluations.

Final-Value: -11.747


	FINAL GENETIC ALGORITHM DOCKED STATE
	_______________________________________________


Detailed state:  trans 1.436 -6.699 -8.702 quatxyzw 0.612162 -0.087176 0.754929 0.218498 center 8.781 34.984 -0.736 ntor 12 163.1305 109.6605 -146.7254 2.9291 102.2430 81.6370 167.0554 119.5121 -54.4959 143.8960 -21.7003 174.8972
State:	  1.436  -6.699  -8.702   0.627 -0.089  0.774 154.758    163.13  109.66 -146.73    2.93  102.24   81.64  167.06  119.51  -54.50  143.90  -21.70  174.90

DOCKED: MODEL       87
DOCKED: USER    Run = 87
DOCKED: USER    DPF = D:/Protein_go_brrr/autodock/final/1A3N/heme_Co/dock.dpf
DOCKED: USER  
DOCKED: USER    Estimated Free Energy of Binding    =   -6.18 kcal/mol  [=(1)+(2)+(3)-(4)]
DOCKED: USER    Estimated Inhibition Constant, Ki   =   29.73 uM (micromolar)  [Temperature = 298.15 K]
DOCKED: USER    
DOCKED: USER    (1) Final Intermolecular Energy     =   -9.76 kcal/mol
DOCKED: USER        vdW + Hbond + desolv Energy     =   -8.87 kcal/mol
DOCKED: USER        Electrostatic Energy            =   -0.89 kcal/mol
DOCKED: USER    (2) Final Total Internal Energy     =   -1.99 kcal/mol
DOCKED: USER    (3) Torsional Free Energy           =   +3.58 kcal/mol
DOCKED: USER    (4) Unbound System's Energy  [=(2)] =   -1.99 kcal/mol
DOCKED: USER    
DOCKED: USER    
DOCKED: USER    NEWDPF move heme_Co_opt.pdbqt
DOCKED: USER    NEWDPF about 8.781000 34.984000 -0.736000
DOCKED: USER    NEWDPF tran0 1.436404 -6.698992 -8.702357
DOCKED: USER    NEWDPF quaternion0 0.612162 -0.087176 0.754929 0.218498
DOCKED: USER    NEWDPF axisangle0 0.627319 -0.089334 0.773621 154.758304
DOCKED: USER    NEWDPF quat0 0.627319 -0.089334 0.773621 154.758304
DOCKED: USER    NEWDPF dihe0 163.13 109.66 -146.73 2.93 102.24 81.64 167.06 119.51 -54.50 143.90 -21.70 174.90 
DOCKED: USER  keepresnum = 1 
DOCKED: USER  
DOCKED: REMARK  12 active torsions:
DOCKED: REMARK  status: ('A' for Active; 'I' for Inactive)
DOCKED: REMARK    1  A    between atoms: C_6  and  C_10 
DOCKED: REMARK    2  A    between atoms: C_10  and  C_11 
DOCKED: REMARK    3  A    between atoms: C_11  and  C_12 
DOCKED: REMARK    4  A    between atoms: C_12  and  O_14 
DOCKED: REMARK    5  A    between atoms: C_17  and  C_20 
DOCKED: REMARK    6  A    between atoms: C_24  and  C_27 
DOCKED: REMARK    7  A    between atoms: C_31  and  C_34 
DOCKED: REMARK    8  A    between atoms: C_34  and  C_35 
DOCKED: REMARK    9  A    between atoms: C_35  and  C_36 
DOCKED: REMARK   10  A    between atoms: C_36  and  O_38 
DOCKED: REMARK   11  A    between atoms: FE_43  and  C_44 
DOCKED: REMARK   12  A    between atoms: C_44  and  O_45 
DOCKED: USER                              x       y       z     vdW  Elec       q    Type
DOCKED: USER                           _______ _______ _______ _____ _____    ______ ____
DOCKED: ROOT
DOCKED: ATOM      1  C   UNL d   1       1.030  -6.413 -10.816 -0.11 +0.04    +0.064 A 
DOCKED: ATOM      2  C   UNL d   1       3.835  -4.090  -7.760 -0.38 +0.01    +0.064 C 
DOCKED: ATOM      3  C   UNL d   1       2.206  -6.778  -4.162 -0.22 +0.01    +0.064 A 
DOCKED: ATOM      4  C   UNL d   1      -0.379  -9.420  -7.324 -0.11 +0.03    +0.064 A 
DOCKED: ATOM      5  C   UNL d   1       1.889  -5.557 -10.240 -0.14 +0.03    +0.066 A 
DOCKED: ATOM      6  C   UNL d   1       2.642  -4.634 -10.991 -0.11 -0.01    -0.021 A 
DOCKED: ATOM      7  C   UNL d   1       3.471  -3.978 -10.102 -0.18 -0.00    -0.025 A 
DOCKED: ATOM      8  C   UNL d   1       3.177  -4.517  -8.845 -0.24 +0.02    +0.066 A 
DOCKED: ATOM      9  C   UNL d   1       4.505  -2.885 -10.409 -0.25 +0.00    +0.051 C 
DOCKED: ATOM     10  C   UNL d   1       3.583  -4.567  -6.423 -0.36 +0.01    +0.066 A 
DOCKED: ATOM     11  C   UNL d   1       4.139  -4.061  -5.228 -0.45 -0.00    -0.021 A 
DOCKED: ATOM     12  C   UNL d   1       3.644  -4.860  -4.194 -0.41 +0.00    +0.000 A 
DOCKED: ATOM     13  C   UNL d   1       2.815  -5.784  -4.832 -0.23 +0.02    +0.070 A 
DOCKED: ATOM     14  C   UNL d   1       5.006  -2.835  -5.096 -0.50 +0.01    +0.052 C 
DOCKED: ATOM     15  C   UNL d   1       1.362  -7.845  -4.666 -0.34 +0.01    +0.066 A 
DOCKED: ATOM     16  C   UNL d   1       0.882  -8.926  -3.941 -0.36 -0.00    -0.021 A 
DOCKED: ATOM     17  C   UNL d   1       0.138  -9.692  -4.849 -0.32 +0.00    +0.000 A 
DOCKED: ATOM     18  C   UNL d   1       0.209  -9.006  -6.057 -0.24 +0.02    +0.070 A 
DOCKED: ATOM     19  C   UNL d   1       1.138  -9.181  -2.472 -0.31 +0.00    +0.052 C 
DOCKED: ATOM     20  C   UNL d   1      -0.251  -8.816  -8.530 -0.13 +0.05    +0.066 A 
DOCKED: ATOM     21  C   UNL d   1      -0.835  -9.330  -9.685 -0.10 -0.02    -0.025 A 
DOCKED: ATOM     22  C   UNL d   1      -0.470  -8.468 -10.703 -0.10 -0.02    -0.021 A 
DOCKED: ATOM     23  C   UNL d   1       0.335  -7.469 -10.115 -0.11 +0.06    +0.066 A 
DOCKED: ATOM     24  C   UNL d   1      -1.684 -10.592  -9.818 -0.09 +0.02    +0.051 C 
DOCKED: ATOM     25  N   UNL d   1       2.197  -5.493  -8.899 -0.14 -0.11    -0.248 N 
DOCKED: ATOM     26  N   UNL d   1       2.735  -5.570  -6.172 -0.08 -0.07    -0.248 N 
DOCKED: ATOM     27  N   UNL d   1       0.972  -7.927  -5.918 -0.18 -0.08    -0.248 N 
DOCKED: ATOM     28  N   UNL d   1       0.472  -7.677  -8.800 -0.14 -0.21    -0.248 N 
DOCKED: ATOM     29 FE   UNL d   1       1.545  -6.784  -7.322 -0.06 +0.00    +0.000 Fe
DOCKED: ENDROOT
DOCKED: BRANCH   6  30
DOCKED: ATOM     30  C   UNL d   1       2.615  -4.458 -12.506 -0.07 +0.01    +0.052 C 
DOCKED: BRANCH  30  31
DOCKED: ATOM     31  C   UNL d   1       1.227  -4.021 -12.972 -0.09 +0.04    +0.115 C 
DOCKED: BRANCH  31  32
DOCKED: ATOM     32  C   UNL d   1       1.261  -2.727 -13.756 -0.07 +0.06    +0.139 C 
DOCKED: ATOM     33  O   UNL d   1       2.191  -2.511 -14.519 -0.46 -0.36    -0.650 OA
DOCKED: BRANCH  32  34
DOCKED: ATOM     34  O   UNL d   1       0.265  -1.814 -13.679 +0.03 -0.41    -0.776 OA
DOCKED: ATOM     35  H   UNL d   1       0.364  -0.881 -13.913 -0.30 +0.09    +0.167 HD
DOCKED: ENDBRANCH  32  34
DOCKED: ENDBRANCH  31  32
DOCKED: ENDBRANCH  30  31
DOCKED: ENDBRANCH   6  30
DOCKED: BRANCH  29  36
DOCKED: ATOM     36  C   UNL d   1       3.205  -7.983  -7.771 +0.08 +0.04    +0.190 C 
DOCKED: BRANCH  36  37
DOCKED: ATOM     37  O   UNL d   1       3.706  -8.885  -8.715 -0.10 -0.07    -0.399 OA
DOCKED: ATOM     38  H   UNL d   1       2.966  -9.003  -9.375 +0.06 +0.04    +0.209 HD
DOCKED: ENDBRANCH  36  37
DOCKED: ENDBRANCH  29  36
DOCKED: BRANCH  22  39
DOCKED: ATOM     39  C   UNL d   1      -0.825  -8.637 -12.168 -0.05 +0.02    +0.052 C 
DOCKED: BRANCH  39  40
DOCKED: ATOM     40  C   UNL d   1       0.169  -9.583 -12.862 -0.01 +0.03    +0.115 C 
DOCKED: BRANCH  40  41
DOCKED: ATOM     41  C   UNL d   1       1.615  -9.369 -12.467 -0.02 +0.03    +0.139 C 
DOCKED: ATOM     42  O   UNL d   1       2.361  -8.768 -13.228 +0.01 -0.12    -0.650 OA
DOCKED: BRANCH  41  43
DOCKED: ATOM     43  O   UNL d   1       2.085  -9.747 -11.257 +0.03 -0.16    -0.776 OA
DOCKED: ATOM     44  H   UNL d   1       2.712  -9.213 -10.754 +0.03 +0.03    +0.167 HD
DOCKED: ENDBRANCH  41  43
DOCKED: ENDBRANCH  40  41
DOCKED: ENDBRANCH  39  40
DOCKED: ENDBRANCH  22  39
DOCKED: BRANCH  12  45
DOCKED: ATOM     45  C   UNL d   1       3.842  -4.846  -2.684 -0.37 +0.00    +0.004 C 
DOCKED: ATOM     46  C   UNL d   1       4.641  -4.103  -1.923 -0.51 +0.00    +0.012 C 
DOCKED: ENDBRANCH  12  45
DOCKED: BRANCH  17  47
DOCKED: ATOM     47  C   UNL d   1      -0.558 -10.999  -4.650 -0.30 +0.00    +0.004 C 
DOCKED: ATOM     48  C   UNL d   1      -1.761 -11.114  -4.082 -0.35 +0.00    +0.012 C 
DOCKED: ENDBRANCH  17  47
DOCKED: TORSDOF 12
DOCKED: TER
DOCKED: ENDMDL
________________________________________________________________________________


	BEGINNING GENETIC ALGORITHM DOCKING 88 of 100
Run: 88 Seed: 813569540 151060270 [ Run 88 of 100 GA/GALS ]
Beginning LAMARCKIAN GENETIC ALGORITHM (LGA), with a maximum of 25000000 energy evaluations.

Final-Value: -12.201


	FINAL GENETIC ALGORITHM DOCKED STATE
	_______________________________________________


Detailed state:  trans 25.336 -10.128 35.490 quatxyzw -0.612881 0.053321 0.751618 -0.237918 center 8.781 34.984 -0.736 ntor 12 41.0984 109.6728 118.9879 66.8526 60.0837 107.7590 32.7129 -42.4637 167.4721 -139.2147 23.8557 139.4815
State:	 25.336 -10.128  35.490  -0.631  0.055  0.774 -152.473     41.10  109.67  118.99   66.85   60.08  107.76   32.71  -42.46  167.47 -139.21   23.86  139.48

DOCKED: MODEL       88
DOCKED: USER    Run = 88
DOCKED: USER    DPF = D:/Protein_go_brrr/autodock/final/1A3N/heme_Co/dock.dpf
DOCKED: USER  
DOCKED: USER    Estimated Free Energy of Binding    =   -6.64 kcal/mol  [=(1)+(2)+(3)-(4)]
DOCKED: USER    Estimated Inhibition Constant, Ki   =   13.51 uM (micromolar)  [Temperature = 298.15 K]
DOCKED: USER    
DOCKED: USER    (1) Final Intermolecular Energy     =  -10.22 kcal/mol
DOCKED: USER        vdW + Hbond + desolv Energy     =   -8.17 kcal/mol
DOCKED: USER        Electrostatic Energy            =   -2.06 kcal/mol
DOCKED: USER    (2) Final Total Internal Energy     =   -1.98 kcal/mol
DOCKED: USER    (3) Torsional Free Energy           =   +3.58 kcal/mol
DOCKED: USER    (4) Unbound System's Energy  [=(2)] =   -1.98 kcal/mol
DOCKED: USER    
DOCKED: USER    
DOCKED: USER    NEWDPF move heme_Co_opt.pdbqt
DOCKED: USER    NEWDPF about 8.781000 34.984000 -0.736000
DOCKED: USER    NEWDPF tran0 25.336139 -10.127568 35.489524
DOCKED: USER    NEWDPF quaternion0 -0.612881 0.053321 0.751618 -0.237918
DOCKED: USER    NEWDPF axisangle0 -0.631000 0.054897 0.773838 -152.472669
DOCKED: USER    NEWDPF quat0 -0.631000 0.054897 0.773838 -152.472669
DOCKED: USER    NEWDPF dihe0 41.10 109.67 118.99 66.85 60.08 107.76 32.71 -42.46 167.47 -139.21 23.86 139.48 
DOCKED: USER  keepresnum = 1 
DOCKED: USER  
DOCKED: REMARK  12 active torsions:
DOCKED: REMARK  status: ('A' for Active; 'I' for Inactive)
DOCKED: REMARK    1  A    between atoms: C_6  and  C_10 
DOCKED: REMARK    2  A    between atoms: C_10  and  C_11 
DOCKED: REMARK    3  A    between atoms: C_11  and  C_12 
DOCKED: REMARK    4  A    between atoms: C_12  and  O_14 
DOCKED: REMARK    5  A    between atoms: C_17  and  C_20 
DOCKED: REMARK    6  A    between atoms: C_24  and  C_27 
DOCKED: REMARK    7  A    between atoms: C_31  and  C_34 
DOCKED: REMARK    8  A    between atoms: C_34  and  C_35 
DOCKED: REMARK    9  A    between atoms: C_35  and  C_36 
DOCKED: REMARK   10  A    between atoms: C_36  and  O_38 
DOCKED: REMARK   11  A    between atoms: FE_43  and  C_44 
DOCKED: REMARK   12  A    between atoms: C_44  and  O_45 
DOCKED: USER                              x       y       z     vdW  Elec       q    Type
DOCKED: USER                           _______ _______ _______ _____ _____    ______ ____
DOCKED: ROOT
DOCKED: ATOM      1  C   UNL d   1      26.149 -11.449  37.009 -0.12 +0.03    +0.064 A 
DOCKED: ATOM      2  C   UNL d   1      23.757  -7.348  37.288 -0.17 +0.03    +0.064 C 
DOCKED: ATOM      3  C   UNL d   1      23.855  -6.924  32.530 -0.23 +0.01    +0.064 A 
DOCKED: ATOM      4  C   UNL d   1      25.958 -11.298  32.196 -0.35 +0.00    +0.064 A 
DOCKED: ATOM      5  C   UNL d   1      25.520 -10.342  37.437 -0.12 +0.05    +0.066 A 
DOCKED: ATOM      6  C   UNL d   1      25.227 -10.127  38.798 -0.09 -0.01    -0.021 A 
DOCKED: ATOM      7  C   UNL d   1      24.513  -8.947  38.870 -0.08 -0.01    -0.025 A 
DOCKED: ATOM      8  C   UNL d   1      24.415  -8.484  37.554 -0.13 +0.04    +0.066 A 
DOCKED: ATOM      9  C   UNL d   1      23.938  -8.269  40.123 -0.04 +0.02    +0.051 C 
DOCKED: ATOM     10  C   UNL d   1      23.627  -6.781  35.969 -0.21 +0.02    +0.066 A 
DOCKED: ATOM     11  C   UNL d   1      23.072  -5.525  35.642 -0.24 -0.00    -0.021 A 
DOCKED: ATOM     12  C   UNL d   1      23.117  -5.425  34.249 -0.32 +0.00    +0.000 A 
DOCKED: ATOM     13  C   UNL d   1      23.706  -6.619  33.831 -0.27 +0.01    +0.070 A 
DOCKED: ATOM     14  C   UNL d   1      22.624  -4.466  36.617 -0.15 +0.01    +0.052 C 
DOCKED: ATOM     15  C   UNL d   1      24.392  -8.127  31.923 -0.33 +0.01    +0.066 A 
DOCKED: ATOM     16  C   UNL d   1      24.385  -8.441  30.571 -0.34 -0.00    -0.021 A 
DOCKED: ATOM     17  C   UNL d   1      24.988  -9.702  30.470 -0.46 +0.00    +0.000 A 
DOCKED: ATOM     18  C   UNL d   1      25.332 -10.053  31.772 -0.40 +0.01    +0.070 A 
DOCKED: ATOM     19  C   UNL d   1      23.827  -7.566  29.471 -0.25 -0.00    +0.052 C 
DOCKED: ATOM     20  C   UNL d   1      26.223 -11.698  33.463 -0.24 +0.01    +0.066 A 
DOCKED: ATOM     21  C   UNL d   1      26.796 -12.936  33.748 -0.21 -0.00    -0.025 A 
DOCKED: ATOM     22  C   UNL d   1      26.890 -12.995  35.127 -0.13 -0.00    -0.021 A 
DOCKED: ATOM     23  C   UNL d   1      26.354 -11.786  35.619 -0.11 +0.02    +0.066 A 
DOCKED: ATOM     24  C   UNL d   1      27.215 -14.018  32.757 -0.23 -0.00    +0.051 C 
DOCKED: ATOM     25  N   UNL d   1      25.035  -9.325  36.645 -0.10 -0.18    -0.248 N 
DOCKED: ATOM     26  N   UNL d   1      24.065  -7.413  34.875 -0.17 -0.08    -0.248 N 
DOCKED: ATOM     27  N   UNL d   1      24.935  -9.105  32.614 -0.24 -0.04    -0.248 N 
DOCKED: ATOM     28  N   UNL d   1      25.947 -10.999  34.615 -0.08 -0.09    -0.248 N 
DOCKED: ATOM     29 FE   UNL d   1      24.984  -9.211  34.510 -0.06 +0.00    +0.000 Fe
DOCKED: ENDROOT
DOCKED: BRANCH   6  30
DOCKED: ATOM     30  C   UNL d   1      25.553 -11.063  39.957 -0.03 +0.02    +0.052 C 
DOCKED: BRANCH  30  31
DOCKED: ATOM     31  C   UNL d   1      26.681 -10.487  40.812 -0.04 +0.06    +0.115 C 
DOCKED: BRANCH  31  32
DOCKED: ATOM     32  C   UNL d   1      27.408  -9.354  40.121 +0.02 +0.17    +0.139 C 
DOCKED: ATOM     33  O   UNL d   1      28.449  -9.584  39.522 +0.04 -1.18    -0.650 OA
DOCKED: BRANCH  32  34
DOCKED: ATOM     34  O   UNL d   1      26.918  -8.093  40.101 -0.03 -1.03    -0.776 OA
DOCKED: ATOM     35  H   UNL d   1      26.449  -7.680  40.840 +0.01 +0.12    +0.167 HD
DOCKED: ENDBRANCH  32  34
DOCKED: ENDBRANCH  31  32
DOCKED: ENDBRANCH  30  31
DOCKED: ENDBRANCH   6  30
DOCKED: BRANCH  29  36
DOCKED: ATOM     36  C   UNL d   1      23.127 -10.180  34.615 -0.21 +0.03    +0.190 C 
DOCKED: BRANCH  36  37
DOCKED: ATOM     37  O   UNL d   1      22.466 -11.259  35.210 -0.02 -0.06    -0.399 OA
DOCKED: ATOM     38  H   UNL d   1      23.170 -11.735  35.733 +0.06 +0.03    +0.209 HD
DOCKED: ENDBRANCH  36  37
DOCKED: ENDBRANCH  29  36
DOCKED: BRANCH  22  39
DOCKED: ATOM     39  C   UNL d   1      27.406 -14.178  35.923 -0.06 +0.00    +0.052 C 
DOCKED: BRANCH  39  40
DOCKED: ATOM     40  C   UNL d   1      26.313 -14.721  36.859 -0.02 +0.01    +0.115 C 
DOCKED: BRANCH  40  41
DOCKED: ATOM     41  C   UNL d   1      24.911 -14.645  36.292 -0.04 +0.01    +0.139 C 
DOCKED: ATOM     42  O   UNL d   1      24.437 -15.624  35.734 +0.01 -0.01    -0.650 OA
DOCKED: BRANCH  41  43
DOCKED: ATOM     43  O   UNL d   1      24.134 -13.552  36.463 +0.03 -0.09    -0.776 OA
DOCKED: ATOM     44  H   UNL d   1      23.731 -13.081  35.722 +0.04 +0.02    +0.167 HD
DOCKED: ENDBRANCH  41  43
DOCKED: ENDBRANCH  40  41
DOCKED: ENDBRANCH  39  40
DOCKED: ENDBRANCH  22  39
DOCKED: BRANCH  12  45
DOCKED: ATOM     45  C   UNL d   1      22.691  -4.338  33.271 -0.47 +0.00    +0.004 C 
DOCKED: ATOM     46  C   UNL d   1      23.070  -3.067  33.171 -0.51 +0.00    +0.012 C 
DOCKED: ENDBRANCH  12  45
DOCKED: BRANCH  17  47
DOCKED: ATOM     47  C   UNL d   1      25.197 -10.567  29.270 -0.49 +0.00    +0.004 C 
DOCKED: ATOM     48  C   UNL d   1      25.531 -10.091  28.068 -0.59 -0.00    +0.012 C 
DOCKED: ENDBRANCH  17  47
DOCKED: TORSDOF 12
DOCKED: TER
DOCKED: ENDMDL
________________________________________________________________________________


	BEGINNING GENETIC ALGORITHM DOCKING 89 of 100
Run: 89 Seed: 548954299 693616212 [ Run 89 of 100 GA/GALS ]
Beginning LAMARCKIAN GENETIC ALGORITHM (LGA), with a maximum of 25000000 energy evaluations.

Final-Value: -12.267


	FINAL GENETIC ALGORITHM DOCKED STATE
	_______________________________________________


Detailed state:  trans 5.358 -2.423 -11.480 quatxyzw -0.946898 -0.273937 -0.139919 0.093624 center 8.781 34.984 -0.736 ntor 12 84.9595 104.2661 94.5398 55.0916 -83.6552 160.0309 -90.8405 -140.3367 54.7656 -63.3284 26.2378 26.2559
State:	  5.358  -2.423 -11.480  -0.951 -0.275 -0.141 169.256     84.96  104.27   94.54   55.09  -83.66  160.03  -90.84 -140.34   54.77  -63.33   26.24   26.26

DOCKED: MODEL       89
DOCKED: USER    Run = 89
DOCKED: USER    DPF = D:/Protein_go_brrr/autodock/final/1A3N/heme_Co/dock.dpf
DOCKED: USER  
DOCKED: USER    Estimated Free Energy of Binding    =   -6.08 kcal/mol  [=(1)+(2)+(3)-(4)]
DOCKED: USER    Estimated Inhibition Constant, Ki   =   34.88 uM (micromolar)  [Temperature = 298.15 K]
DOCKED: USER    
DOCKED: USER    (1) Final Intermolecular Energy     =   -9.66 kcal/mol
DOCKED: USER        vdW + Hbond + desolv Energy     =   -7.44 kcal/mol
DOCKED: USER        Electrostatic Energy            =   -2.22 kcal/mol
DOCKED: USER    (2) Final Total Internal Energy     =   -2.61 kcal/mol
DOCKED: USER    (3) Torsional Free Energy           =   +3.58 kcal/mol
DOCKED: USER    (4) Unbound System's Energy  [=(2)] =   -2.61 kcal/mol
DOCKED: USER    
DOCKED: USER    
DOCKED: USER    NEWDPF move heme_Co_opt.pdbqt
DOCKED: USER    NEWDPF about 8.781000 34.984000 -0.736000
DOCKED: USER    NEWDPF tran0 5.358107 -2.422671 -11.479787
DOCKED: USER    NEWDPF quaternion0 -0.946898 -0.273937 -0.139919 0.093624
DOCKED: USER    NEWDPF axisangle0 -0.951075 -0.275145 -0.140536 169.255705
DOCKED: USER    NEWDPF quat0 -0.951075 -0.275145 -0.140536 169.255705
DOCKED: USER    NEWDPF dihe0 84.96 104.27 94.54 55.09 -83.66 160.03 -90.84 -140.34 54.77 -63.33 26.24 26.26 
DOCKED: USER  keepresnum = 1 
DOCKED: USER  
DOCKED: REMARK  12 active torsions:
DOCKED: REMARK  status: ('A' for Active; 'I' for Inactive)
DOCKED: REMARK    1  A    between atoms: C_6  and  C_10 
DOCKED: REMARK    2  A    between atoms: C_10  and  C_11 
DOCKED: REMARK    3  A    between atoms: C_11  and  C_12 
DOCKED: REMARK    4  A    between atoms: C_12  and  O_14 
DOCKED: REMARK    5  A    between atoms: C_17  and  C_20 
DOCKED: REMARK    6  A    between atoms: C_24  and  C_27 
DOCKED: REMARK    7  A    between atoms: C_31  and  C_34 
DOCKED: REMARK    8  A    between atoms: C_34  and  C_35 
DOCKED: REMARK    9  A    between atoms: C_35  and  C_36 
DOCKED: REMARK   10  A    between atoms: C_36  and  O_38 
DOCKED: REMARK   11  A    between atoms: FE_43  and  C_44 
DOCKED: REMARK   12  A    between atoms: C_44  and  O_45 
DOCKED: USER                              x       y       z     vdW  Elec       q    Type
DOCKED: USER                           _______ _______ _______ _____ _____    ______ ____
DOCKED: ROOT
DOCKED: ATOM      1  C   UNL d   1       3.766  -3.807 -10.965 -0.12 +0.01    +0.064 A 
DOCKED: ATOM      2  C   UNL d   1       4.658  -1.283 -14.895 -0.05 +0.02    +0.064 C 
DOCKED: ATOM      3  C   UNL d   1       8.347   0.850 -12.733 -0.16 +0.00    +0.064 A 
DOCKED: ATOM      4  C   UNL d   1       7.694  -1.995  -8.841 -0.28 -0.00    +0.064 A 
DOCKED: ATOM      5  C   UNL d   1       3.717  -3.248 -12.185 -0.11 +0.01    +0.066 A 
DOCKED: ATOM      6  C   UNL d   1       2.794  -3.668 -13.163 -0.08 -0.01    -0.021 A 
DOCKED: ATOM      7  C   UNL d   1       3.072  -2.948 -14.308 -0.08 -0.01    -0.025 A 
DOCKED: ATOM      8  C   UNL d   1       4.141  -2.108 -13.976 -0.06 +0.02    +0.066 A 
DOCKED: ATOM      9  C   UNL d   1       2.369  -3.037 -15.671 -0.07 +0.02    +0.051 C 
DOCKED: ATOM     10  C   UNL d   1       5.739  -0.365 -14.637 -0.14 +0.01    +0.066 A 
DOCKED: ATOM     11  C   UNL d   1       6.234   0.624 -15.515 -0.15 -0.00    -0.021 A 
DOCKED: ATOM     12  C   UNL d   1       7.306   1.234 -14.858 -0.16 +0.00    +0.000 A 
DOCKED: ATOM     13  C   UNL d   1       7.379   0.582 -13.627 -0.16 +0.01    +0.070 A 
DOCKED: ATOM     14  C   UNL d   1       5.644   1.009 -16.848 -0.11 +0.01    +0.052 C 
DOCKED: ATOM     15  C   UNL d   1       8.602   0.240 -11.443 -0.21 +0.00    +0.066 A 
DOCKED: ATOM     16  C   UNL d   1       9.705   0.462 -10.631 -0.20 +0.00    -0.021 A 
DOCKED: ATOM     17  C   UNL d   1       9.523  -0.358  -9.509 -0.33 +0.00    +0.000 A 
DOCKED: ATOM     18  C   UNL d   1       8.310  -1.006  -9.717 -0.29 -0.00    +0.070 A 
DOCKED: ATOM     19  C   UNL d   1      10.846   1.405 -10.941 -0.16 +0.00    +0.052 C 
DOCKED: ATOM     20  C   UNL d   1       6.560  -2.701  -9.064 -0.20 -0.01    +0.066 A 
DOCKED: ATOM     21  C   UNL d   1       6.087  -3.652  -8.162 -0.40 -0.00    -0.025 A 
DOCKED: ATOM     22  C   UNL d   1       4.940  -4.170  -8.735 -0.27 -0.00    -0.021 A 
DOCKED: ATOM     23  C   UNL d   1       4.775  -3.513  -9.972 -0.19 +0.00    +0.066 A 
DOCKED: ATOM     24  C   UNL d   1       6.709  -4.062  -6.830 -0.38 +0.00    +0.051 C 
DOCKED: ATOM     25  N   UNL d   1       4.557  -2.269 -12.665 -0.09 -0.04    -0.248 N 
DOCKED: ATOM     26  N   UNL d   1       6.396  -0.345 -13.473 -0.12 -0.03    -0.248 N 
DOCKED: ATOM     27  N   UNL d   1       7.804  -0.648 -10.892 -0.16 +0.00    -0.248 N 
DOCKED: ATOM     28  N   UNL d   1       5.754  -2.624 -10.176 -0.11 +0.02    -0.248 N 
DOCKED: ATOM     29 FE   UNL d   1       6.276  -1.412 -11.723 -0.05 +0.00    +0.000 Fe
DOCKED: ENDROOT
DOCKED: BRANCH   6  30
DOCKED: ATOM     30  C   UNL d   1       1.751  -4.771 -13.015 -0.05 +0.02    +0.052 C 
DOCKED: BRANCH  30  31
DOCKED: ATOM     31  C   UNL d   1       0.343  -4.178 -12.984 -0.09 +0.05    +0.115 C 
DOCKED: BRANCH  31  32
DOCKED: ATOM     32  C   UNL d   1      -0.451  -4.640 -11.782 -0.15 +0.12    +0.139 C 
DOCKED: ATOM     33  O   UNL d   1      -1.164  -3.842 -11.190 -0.00 -0.75    -0.650 OA
DOCKED: BRANCH  32  34
DOCKED: ATOM     34  O   UNL d   1      -0.437  -5.926 -11.363 -0.20 -0.95    -0.776 OA
DOCKED: ATOM     35  H   UNL d   1       0.264  -6.315 -10.822 +0.03 +0.18    +0.167 HD
DOCKED: ENDBRANCH  32  34
DOCKED: ENDBRANCH  31  32
DOCKED: ENDBRANCH  30  31
DOCKED: ENDBRANCH   6  30
DOCKED: BRANCH  29  36
DOCKED: ATOM     36  C   UNL d   1       7.386  -2.962 -12.594 -0.03 +0.01    +0.190 C 
DOCKED: BRANCH  36  37
DOCKED: ATOM     37  O   UNL d   1       7.287  -4.046 -13.472 +0.00 -0.03    -0.399 OA
DOCKED: ATOM     38  H   UNL d   1       6.310  -4.143 -13.652 +0.02 +0.02    +0.209 HD
DOCKED: ENDBRANCH  36  37
DOCKED: ENDBRANCH  29  36
DOCKED: BRANCH  22  39
DOCKED: ATOM     39  C   UNL d   1       4.090  -5.283  -8.149 -0.26 +0.01    +0.052 C 
DOCKED: BRANCH  39  40
DOCKED: ATOM     40  C   UNL d   1       2.615  -4.857  -8.075 -0.25 +0.04    +0.115 C 
DOCKED: BRANCH  40  41
DOCKED: ATOM     41  C   UNL d   1       1.702  -5.596  -9.030 -0.22 +0.08    +0.139 C 
DOCKED: ATOM     42  O   UNL d   1       2.180  -6.420  -9.798 +0.02 -0.27    -0.650 OA
DOCKED: BRANCH  41  43
DOCKED: ATOM     43  O   UNL d   1       0.360  -5.435  -8.999 -0.23 -1.07    -0.776 OA
DOCKED: ATOM     44  H   UNL d   1      -0.110  -4.872  -9.627 +0.05 +0.30    +0.167 HD
DOCKED: ENDBRANCH  41  43
DOCKED: ENDBRANCH  40  41
DOCKED: ENDBRANCH  39  40
DOCKED: ENDBRANCH  22  39
DOCKED: BRANCH  12  45
DOCKED: ATOM     45  C   UNL d   1       8.253   2.363 -15.242 -0.13 +0.00    +0.004 C 
DOCKED: ATOM     46  C   UNL d   1       8.006   3.558 -15.771 -0.15 -0.00    +0.012 C 
DOCKED: ENDBRANCH  12  45
DOCKED: BRANCH  17  47
DOCKED: ATOM     47  C   UNL d   1      10.420  -0.584  -8.336 -0.42 +0.00    +0.004 C 
DOCKED: ATOM     48  C   UNL d   1      11.142  -1.693  -8.162 -0.46 +0.00    +0.012 C 
DOCKED: ENDBRANCH  17  47
DOCKED: TORSDOF 12
DOCKED: TER
DOCKED: ENDMDL
________________________________________________________________________________


	BEGINNING GENETIC ALGORITHM DOCKING 90 of 100
Run: 90 Seed: 2033588579 2036333405 [ Run 90 of 100 GA/GALS ]
Beginning LAMARCKIAN GENETIC ALGORITHM (LGA), with a maximum of 25000000 energy evaluations.

Final-Value: -13.060


	FINAL GENETIC ALGORITHM DOCKED STATE
	_______________________________________________


Detailed state:  trans 23.387 -7.661 36.554 quatxyzw -0.473855 -0.728961 -0.148140 0.471308 center 8.781 34.984 -0.736 ntor 12 14.0166 132.0426 -134.8921 63.7344 133.2446 90.1932 51.7888 2.0831 153.8259 166.9439 -147.4309 -168.6049
State:	 23.387  -7.661  36.554  -0.537 -0.827 -0.168 123.761     14.02  132.04 -134.89   63.73  133.24   90.19   51.79    2.08  153.83  166.94 -147.43 -168.60

DOCKED: MODEL       90
DOCKED: USER    Run = 90
DOCKED: USER    DPF = D:/Protein_go_brrr/autodock/final/1A3N/heme_Co/dock.dpf
DOCKED: USER  
DOCKED: USER    Estimated Free Energy of Binding    =   -6.67 kcal/mol  [=(1)+(2)+(3)-(4)]
DOCKED: USER    Estimated Inhibition Constant, Ki   =   12.91 uM (micromolar)  [Temperature = 298.15 K]
DOCKED: USER    
DOCKED: USER    (1) Final Intermolecular Energy     =  -10.25 kcal/mol
DOCKED: USER        vdW + Hbond + desolv Energy     =   -8.05 kcal/mol
DOCKED: USER        Electrostatic Energy            =   -2.20 kcal/mol
DOCKED: USER    (2) Final Total Internal Energy     =   -2.81 kcal/mol
DOCKED: USER    (3) Torsional Free Energy           =   +3.58 kcal/mol
DOCKED: USER    (4) Unbound System's Energy  [=(2)] =   -2.81 kcal/mol
DOCKED: USER    
DOCKED: USER    
DOCKED: USER    NEWDPF move heme_Co_opt.pdbqt
DOCKED: USER    NEWDPF about 8.781000 34.984000 -0.736000
DOCKED: USER    NEWDPF tran0 23.387323 -7.660909 36.553833
DOCKED: USER    NEWDPF quaternion0 -0.473855 -0.728961 -0.148140 0.471308
DOCKED: USER    NEWDPF axisangle0 -0.537270 -0.826516 -0.167965 123.761500
DOCKED: USER    NEWDPF quat0 -0.537270 -0.826516 -0.167965 123.761500
DOCKED: USER    NEWDPF dihe0 14.02 132.04 -134.89 63.73 133.24 90.19 51.79 2.08 153.83 166.94 -147.43 -168.60 
DOCKED: USER  keepresnum = 1 
DOCKED: USER  
DOCKED: REMARK  12 active torsions:
DOCKED: REMARK  status: ('A' for Active; 'I' for Inactive)
DOCKED: REMARK    1  A    between atoms: C_6  and  C_10 
DOCKED: REMARK    2  A    between atoms: C_10  and  C_11 
DOCKED: REMARK    3  A    between atoms: C_11  and  C_12 
DOCKED: REMARK    4  A    between atoms: C_12  and  O_14 
DOCKED: REMARK    5  A    between atoms: C_17  and  C_20 
DOCKED: REMARK    6  A    between atoms: C_24  and  C_27 
DOCKED: REMARK    7  A    between atoms: C_31  and  C_34 
DOCKED: REMARK    8  A    between atoms: C_34  and  C_35 
DOCKED: REMARK    9  A    between atoms: C_35  and  C_36 
DOCKED: REMARK   10  A    between atoms: C_36  and  O_38 
DOCKED: REMARK   11  A    between atoms: FE_43  and  C_44 
DOCKED: REMARK   12  A    between atoms: C_44  and  O_45 
DOCKED: USER                              x       y       z     vdW  Elec       q    Type
DOCKED: USER                           _______ _______ _______ _____ _____    ______ ____
DOCKED: ROOT
DOCKED: ATOM      1  C   UNL d   1      23.165  -8.819  38.377 -0.10 +0.02    +0.064 A 
DOCKED: ATOM      2  C   UNL d   1      24.656  -9.984  34.015 -0.29 +0.02    +0.064 C 
DOCKED: ATOM      3  C   UNL d   1      23.590  -5.600  32.440 -0.20 +0.01    +0.064 A 
DOCKED: ATOM      4  C   UNL d   1      22.424  -4.270  36.971 -0.03 +0.01    +0.064 A 
DOCKED: ATOM      5  C   UNL d   1      23.617  -9.470  37.293 -0.13 +0.02    +0.066 A 
DOCKED: ATOM      6  C   UNL d   1      24.106 -10.789  37.363 -0.11 -0.01    -0.021 A 
DOCKED: ATOM      7  C   UNL d   1      24.558 -11.114  36.099 -0.16 -0.01    -0.025 A 
DOCKED: ATOM      8  C   UNL d   1      24.311  -9.986  35.309 -0.20 +0.02    +0.066 A 
DOCKED: ATOM      9  C   UNL d   1      25.201 -12.431  35.638 -0.14 +0.01    +0.051 C 
DOCKED: ATOM     10  C   UNL d   1      24.417  -8.880  33.118 -0.32 +0.01    +0.066 A 
DOCKED: ATOM     11  C   UNL d   1      24.627  -8.867  31.722 -0.38 -0.00    -0.021 A 
DOCKED: ATOM     12  C   UNL d   1      24.304  -7.578  31.288 -0.33 +0.00    +0.000 A 
DOCKED: ATOM     13  C   UNL d   1      23.911  -6.906  32.446 -0.22 +0.01    +0.070 A 
DOCKED: ATOM     14  C   UNL d   1      25.017 -10.045  30.867 -0.47 +0.00    +0.052 C 
DOCKED: ATOM     15  C   UNL d   1      23.214  -4.741  33.545 -0.28 +0.01    +0.066 A 
DOCKED: ATOM     16  C   UNL d   1      23.035  -3.365  33.494 -0.42 -0.00    -0.021 A 
DOCKED: ATOM     17  C   UNL d   1      22.701  -2.977  34.799 -0.38 +0.00    +0.000 A 
DOCKED: ATOM     18  C   UNL d   1      22.686  -4.152  35.542 -0.23 +0.01    +0.070 A 
DOCKED: ATOM     19  C   UNL d   1      23.184  -2.507  32.257 -0.46 +0.01    +0.052 C 
DOCKED: ATOM     20  C   UNL d   1      22.488  -5.389  37.732 -0.06 +0.01    +0.066 A 
DOCKED: ATOM     21  C   UNL d   1      22.250  -5.369  39.104 -0.08 -0.00    -0.025 A 
DOCKED: ATOM     22  C   UNL d   1      22.428  -6.672  39.532 -0.08 -0.00    -0.021 A 
DOCKED: ATOM     23  C   UNL d   1      22.781  -7.426  38.392 -0.11 +0.02    +0.066 A 
DOCKED: ATOM     24  C   UNL d   1      21.890  -4.165  39.970 -0.06 +0.01    +0.051 C 
DOCKED: ATOM     25  N   UNL d   1      23.723  -8.955  36.021 -0.12 -0.09    -0.248 N 
DOCKED: ATOM     26  N   UNL d   1      23.926  -7.711  33.542 -0.22 -0.05    -0.248 N 
DOCKED: ATOM     27  N   UNL d   1      23.025  -5.178  34.770 -0.18 -0.04    -0.248 N 
DOCKED: ATOM     28  N   UNL d   1      22.821  -6.652  37.301 -0.10 -0.07    -0.248 N 
DOCKED: ATOM     29 FE   UNL d   1      23.352  -6.954  35.361 -0.05 +0.00    +0.000 Fe
DOCKED: ENDROOT
DOCKED: BRANCH   6  30
DOCKED: ATOM     30  C   UNL d   1      24.204 -11.658  38.613 -0.05 +0.01    +0.052 C 
DOCKED: BRANCH  30  31
DOCKED: ATOM     31  C   UNL d   1      25.165 -11.035  39.625 -0.04 +0.04    +0.115 C 
DOCKED: BRANCH  31  32
DOCKED: ATOM     32  C   UNL d   1      26.234 -10.192  38.964 -0.07 +0.13    +0.139 C 
DOCKED: ATOM     33  O   UNL d   1      27.186 -10.740  38.430 +0.02 -0.67    -0.650 OA
DOCKED: BRANCH  32  34
DOCKED: ATOM     34  O   UNL d   1      26.147  -8.843  38.902 -0.34 -1.26    -0.776 OA
DOCKED: ATOM     35  H   UNL d   1      25.491  -8.317  39.379 +0.01 +0.16    +0.167 HD
DOCKED: ENDBRANCH  32  34
DOCKED: ENDBRANCH  31  32
DOCKED: ENDBRANCH  30  31
DOCKED: ENDBRANCH   6  30
DOCKED: BRANCH  29  36
DOCKED: ATOM     36  C   UNL d   1      25.357  -6.550  35.824 -0.01 +0.13    +0.190 C 
DOCKED: BRANCH  36  37
DOCKED: ATOM     37  O   UNL d   1      26.263  -6.483  36.886 -0.09 -0.59    -0.399 OA
DOCKED: ATOM     38  H   UNL d   1      25.835  -7.004  37.622 +0.04 +0.34    +0.209 HD
DOCKED: ENDBRANCH  36  37
DOCKED: ENDBRANCH  29  36
DOCKED: BRANCH  22  39
DOCKED: ATOM     39  C   UNL d   1      22.328  -7.148  40.969 -0.04 +0.01    +0.052 C 
DOCKED: BRANCH  39  40
DOCKED: ATOM     40  C   UNL d   1      23.470  -6.562  41.816 -0.00 +0.03    +0.115 C 
DOCKED: BRANCH  40  41
DOCKED: ATOM     41  C   UNL d   1      24.644  -6.047  41.010 -0.01 +0.05    +0.139 C 
DOCKED: ATOM     42  O   UNL d   1      25.197  -5.011  41.352 +0.02 -0.20    -0.650 OA
DOCKED: BRANCH  41  43
DOCKED: ATOM     43  O   UNL d   1      25.155  -6.747  39.973 +0.01 -0.46    -0.776 OA
DOCKED: ATOM     44  H   UNL d   1      26.097  -6.946  39.895 +0.01 +0.16    +0.167 HD
DOCKED: ENDBRANCH  41  43
DOCKED: ENDBRANCH  40  41
DOCKED: ENDBRANCH  39  40
DOCKED: ENDBRANCH  22  39
DOCKED: BRANCH  12  45
DOCKED: ATOM     45  C   UNL d   1      24.304  -6.914  29.918 -0.27 +0.00    +0.004 C 
DOCKED: ATOM     46  C   UNL d   1      23.699  -7.263  28.786 -0.46 -0.00    +0.012 C 
DOCKED: ENDBRANCH  12  45
DOCKED: BRANCH  17  47
DOCKED: ATOM     47  C   UNL d   1      22.459  -1.612  35.355 -0.45 +0.00    +0.004 C 
DOCKED: ATOM     48  C   UNL d   1      21.263  -1.187  35.771 -0.42 +0.00    +0.012 C 
DOCKED: ENDBRANCH  17  47
DOCKED: TORSDOF 12
DOCKED: TER
DOCKED: ENDMDL
________________________________________________________________________________


	BEGINNING GENETIC ALGORITHM DOCKING 91 of 100
Run: 91 Seed: 1320253966 1752965805 [ Run 91 of 100 GA/GALS ]
Beginning LAMARCKIAN GENETIC ALGORITHM (LGA), with a maximum of 25000000 energy evaluations.

Final-Value: -10.068


	FINAL GENETIC ALGORITHM DOCKED STATE
	_______________________________________________


Detailed state:  trans 14.566 -8.495 8.320 quatxyzw -0.262734 -0.100320 -0.860056 -0.425688 center 8.781 34.984 -0.736 ntor 12 114.3124 89.6511 -46.8714 81.7408 -51.8841 105.3710 -167.1713 -13.0972 -105.1655 177.8981 -177.6626 178.7218
State:	 14.566  -8.495   8.320  -0.290 -0.111 -0.950 -129.612    114.31   89.65  -46.87   81.74  -51.88  105.37 -167.17  -13.10 -105.17  177.90 -177.66  178.72

DOCKED: MODEL       91
DOCKED: USER    Run = 91
DOCKED: USER    DPF = D:/Protein_go_brrr/autodock/final/1A3N/heme_Co/dock.dpf
DOCKED: USER  
DOCKED: USER    Estimated Free Energy of Binding    =   -3.31 kcal/mol  [=(1)+(2)+(3)-(4)]
DOCKED: USER    Estimated Inhibition Constant, Ki   =    3.72 mM (millimolar)  [Temperature = 298.15 K]
DOCKED: USER    
DOCKED: USER    (1) Final Intermolecular Energy     =   -6.89 kcal/mol
DOCKED: USER        vdW + Hbond + desolv Energy     =   -6.64 kcal/mol
DOCKED: USER        Electrostatic Energy            =   -0.26 kcal/mol
DOCKED: USER    (2) Final Total Internal Energy     =   -3.18 kcal/mol
DOCKED: USER    (3) Torsional Free Energy           =   +3.58 kcal/mol
DOCKED: USER    (4) Unbound System's Energy  [=(2)] =   -3.18 kcal/mol
DOCKED: USER    
DOCKED: USER    
DOCKED: USER    NEWDPF move heme_Co_opt.pdbqt
DOCKED: USER    NEWDPF about 8.781000 34.984000 -0.736000
DOCKED: USER    NEWDPF tran0 14.565874 -8.495148 8.320066
DOCKED: USER    NEWDPF quaternion0 -0.262734 -0.100320 -0.860056 -0.425688
DOCKED: USER    NEWDPF axisangle0 -0.290355 -0.110867 -0.950475 -129.611504
DOCKED: USER    NEWDPF quat0 -0.290355 -0.110867 -0.950475 -129.611504
DOCKED: USER    NEWDPF dihe0 114.31 89.65 -46.87 81.74 -51.88 105.37 -167.17 -13.10 -105.17 177.90 -177.66 178.72 
DOCKED: USER  keepresnum = 1 
DOCKED: USER  
DOCKED: REMARK  12 active torsions:
DOCKED: REMARK  status: ('A' for Active; 'I' for Inactive)
DOCKED: REMARK    1  A    between atoms: C_6  and  C_10 
DOCKED: REMARK    2  A    between atoms: C_10  and  C_11 
DOCKED: REMARK    3  A    between atoms: C_11  and  C_12 
DOCKED: REMARK    4  A    between atoms: C_12  and  O_14 
DOCKED: REMARK    5  A    between atoms: C_17  and  C_20 
DOCKED: REMARK    6  A    between atoms: C_24  and  C_27 
DOCKED: REMARK    7  A    between atoms: C_31  and  C_34 
DOCKED: REMARK    8  A    between atoms: C_34  and  C_35 
DOCKED: REMARK    9  A    between atoms: C_35  and  C_36 
DOCKED: REMARK   10  A    between atoms: C_36  and  O_38 
DOCKED: REMARK   11  A    between atoms: FE_43  and  C_44 
DOCKED: REMARK   12  A    between atoms: C_44  and  O_45 
DOCKED: USER                              x       y       z     vdW  Elec       q    Type
DOCKED: USER                           _______ _______ _______ _____ _____    ______ ____
DOCKED: ROOT
DOCKED: ATOM      1  C   UNL d   1      15.613  -7.825   6.539 -0.13 +0.01    +0.064 A 
DOCKED: ATOM      2  C   UNL d   1      14.265  -5.558  10.496 -0.09 +0.02    +0.064 C 
DOCKED: ATOM      3  C   UNL d   1      12.025  -9.490  12.031 -0.03 +0.02    +0.064 A 
DOCKED: ATOM      4  C   UNL d   1      13.714 -11.939   8.182 -0.24 +0.02    +0.064 A 
DOCKED: ATOM      5  C   UNL d   1      15.378  -6.906   7.491 -0.14 +0.01    +0.066 A 
DOCKED: ATOM      6  C   UNL d   1      15.940  -5.616   7.438 -0.18 -0.00    -0.021 A 
DOCKED: ATOM      7  C   UNL d   1      15.564  -4.970   8.599 -0.11 -0.00    -0.025 A 
DOCKED: ATOM      8  C   UNL d   1      14.777  -5.887   9.303 -0.09 +0.02    +0.066 A 
DOCKED: ATOM      9  C   UNL d   1      15.926  -3.545   9.045 -0.14 -0.00    +0.051 C 
DOCKED: ATOM     10  C   UNL d   1      13.422  -6.426  11.280 -0.10 +0.03    +0.066 A 
DOCKED: ATOM     11  C   UNL d   1      12.740  -6.091  12.470 -0.09 -0.01    -0.021 A 
DOCKED: ATOM     12  C   UNL d   1      12.092  -7.254  12.894 -0.13 +0.00    +0.000 A 
DOCKED: ATOM     13  C   UNL d   1      12.415  -8.207  11.927 -0.11 +0.03    +0.070 A 
DOCKED: ATOM     14  C   UNL d   1      12.650  -4.720  13.090 -0.04 +0.02    +0.052 C 
DOCKED: ATOM     15  C   UNL d   1      12.310 -10.611  11.157 -0.11 +0.03    +0.066 A 
DOCKED: ATOM     16  C   UNL d   1      11.999 -11.942  11.397 -0.16 -0.01    -0.021 A 
DOCKED: ATOM     17  C   UNL d   1      12.486 -12.653  10.291 -0.21 +0.00    +0.000 A 
DOCKED: ATOM     18  C   UNL d   1      13.044 -11.693   9.452 -0.18 +0.03    +0.070 A 
DOCKED: ATOM     19  C   UNL d   1      11.281 -12.467  12.620 -0.15 +0.03    +0.052 C 
DOCKED: ATOM     20  C   UNL d   1      14.339 -11.034   7.391 -0.21 +0.01    +0.066 A 
DOCKED: ATOM     21  C   UNL d   1      14.981 -11.397   6.209 -0.27 +0.00    -0.025 A 
DOCKED: ATOM     22  C   UNL d   1      15.512 -10.226   5.698 -0.30 -0.00    -0.021 A 
DOCKED: ATOM     23  C   UNL d   1      15.177  -9.201   6.608 -0.19 +0.01    +0.066 A 
DOCKED: ATOM     24  C   UNL d   1      15.099 -12.793   5.604 -0.38 -0.01    +0.051 C 
DOCKED: ATOM     25  N   UNL d   1      14.639  -7.093   8.637 -0.06 -0.09    -0.248 N 
DOCKED: ATOM     26  N   UNL d   1      13.172  -7.690  10.923 -0.10 -0.12    -0.248 N 
DOCKED: ATOM     27  N   UNL d   1      12.948 -10.493  10.014 -0.11 -0.10    -0.248 N 
DOCKED: ATOM     28  N   UNL d   1      14.469  -9.686   7.635 -0.08 -0.06    -0.248 N 
DOCKED: ATOM     29 FE   UNL d   1      13.744  -8.896   9.363 -0.03 +0.00    +0.000 Fe
DOCKED: ENDROOT
DOCKED: BRANCH   6  30
DOCKED: ATOM     30  C   UNL d   1      16.863  -5.069   6.354 +0.04 +0.00    +0.052 C 
DOCKED: BRANCH  30  31
DOCKED: ATOM     31  C   UNL d   1      18.327  -5.269   6.743 -0.39 -0.00    +0.115 C 
DOCKED: BRANCH  31  32
DOCKED: ATOM     32  C   UNL d   1      18.761  -6.715   6.638 -0.41 +0.01    +0.139 C 
DOCKED: ATOM     33  O   UNL d   1      18.753  -7.267   5.548 -0.47 -0.08    -0.650 OA
DOCKED: BRANCH  32  34
DOCKED: ATOM     34  O   UNL d   1      19.206  -7.411   7.710 +0.02 -0.01    -0.776 OA
DOCKED: ATOM     35  H   UNL d   1      18.719  -8.133   8.130 +0.06 +0.01    +0.167 HD
DOCKED: ENDBRANCH  32  34
DOCKED: ENDBRANCH  31  32
DOCKED: ENDBRANCH  30  31
DOCKED: ENDBRANCH   6  30
DOCKED: BRANCH  29  36
DOCKED: ATOM     36  C   UNL d   1      15.565  -9.278  10.329 -0.01 +0.04    +0.190 C 
DOCKED: BRANCH  36  37
DOCKED: ATOM     37  O   UNL d   1      16.948  -9.325  10.122 +0.01 -0.06    -0.399 OA
DOCKED: ATOM     38  H   UNL d   1      17.055  -9.478   9.142 +0.04 +0.03    +0.209 HD
DOCKED: ENDBRANCH  36  37
DOCKED: ENDBRANCH  29  36
DOCKED: BRANCH  22  39
DOCKED: ATOM     39  C   UNL d   1      16.352 -10.117   4.439 -0.41 -0.00    +0.052 C 
DOCKED: BRANCH  39  40
DOCKED: ATOM     40  C   UNL d   1      17.806 -10.532   4.719 -0.34 -0.00    +0.115 C 
DOCKED: BRANCH  40  41
DOCKED: ATOM     41  C   UNL d   1      18.118 -10.770   6.182 -0.17 +0.00    +0.139 C 
DOCKED: ATOM     42  O   UNL d   1      18.597 -11.842   6.525 +0.06 -0.04    -0.650 OA
DOCKED: BRANCH  41  43
DOCKED: ATOM     43  O   UNL d   1      17.962  -9.799   7.108 +0.10 -0.05    -0.776 OA
DOCKED: ATOM     44  H   UNL d   1      18.207  -8.879   6.942 +0.07 +0.01    +0.167 HD
DOCKED: ENDBRANCH  41  43
DOCKED: ENDBRANCH  40  41
DOCKED: ENDBRANCH  39  40
DOCKED: ENDBRANCH  22  39
DOCKED: BRANCH  12  45
DOCKED: ATOM     45  C   UNL d   1      11.195  -7.568  14.083 -0.12 +0.00    +0.004 C 
DOCKED: ATOM     46  C   UNL d   1       9.932  -7.229  14.329 -0.14 +0.01    +0.012 C 
DOCKED: ENDBRANCH  12  45
DOCKED: BRANCH  17  47
DOCKED: ATOM     47  C   UNL d   1      12.494 -14.123  10.030 -0.23 +0.00    +0.004 C 
DOCKED: ATOM     48  C   UNL d   1      13.308 -14.978  10.653 -0.18 +0.01    +0.012 C 
DOCKED: ENDBRANCH  17  47
DOCKED: TORSDOF 12
DOCKED: TER
DOCKED: ENDMDL
________________________________________________________________________________


	BEGINNING GENETIC ALGORITHM DOCKING 92 of 100
Run: 92 Seed: 890960385 989909137 [ Run 92 of 100 GA/GALS ]
Beginning LAMARCKIAN GENETIC ALGORITHM (LGA), with a maximum of 25000000 energy evaluations.

Final-Value: -14.669


	FINAL GENETIC ALGORITHM DOCKED STATE
	_______________________________________________


Detailed state:  trans 8.352 14.615 33.564 quatxyzw 0.728073 -0.390996 -0.548972 -0.125145 center 8.781 34.984 -0.736 ntor 12 146.2766 106.0973 -23.4439 -2.3279 93.3734 88.8399 154.9865 -32.7641 -90.8619 -171.6907 -174.8917 167.2216
State:	  8.352  14.615  33.564   0.734 -0.394 -0.553 -165.622    146.28  106.10  -23.44   -2.33   93.37   88.84  154.99  -32.76  -90.86 -171.69 -174.89  167.22

DOCKED: MODEL       92
DOCKED: USER    Run = 92
DOCKED: USER    DPF = D:/Protein_go_brrr/autodock/final/1A3N/heme_Co/dock.dpf
DOCKED: USER  
DOCKED: USER    Estimated Free Energy of Binding    =   -8.00 kcal/mol  [=(1)+(2)+(3)-(4)]
DOCKED: USER    Estimated Inhibition Constant, Ki   =    1.36 uM (micromolar)  [Temperature = 298.15 K]
DOCKED: USER    
DOCKED: USER    (1) Final Intermolecular Energy     =  -11.58 kcal/mol
DOCKED: USER        vdW + Hbond + desolv Energy     =   -9.30 kcal/mol
DOCKED: USER        Electrostatic Energy            =   -2.28 kcal/mol
DOCKED: USER    (2) Final Total Internal Energy     =   -3.09 kcal/mol
DOCKED: USER    (3) Torsional Free Energy           =   +3.58 kcal/mol
DOCKED: USER    (4) Unbound System's Energy  [=(2)] =   -3.09 kcal/mol
DOCKED: USER    
DOCKED: USER    
DOCKED: USER    NEWDPF move heme_Co_opt.pdbqt
DOCKED: USER    NEWDPF about 8.781000 34.984000 -0.736000
DOCKED: USER    NEWDPF tran0 8.351955 14.615000 33.563880
DOCKED: USER    NEWDPF quaternion0 0.728073 -0.390996 -0.548972 -0.125145
DOCKED: USER    NEWDPF axisangle0 0.733842 -0.394094 -0.553322 -165.621730
DOCKED: USER    NEWDPF quat0 0.733842 -0.394094 -0.553322 -165.621730
DOCKED: USER    NEWDPF dihe0 146.28 106.10 -23.44 -2.33 93.37 88.84 154.99 -32.76 -90.86 -171.69 -174.89 167.22 
DOCKED: USER  keepresnum = 1 
DOCKED: USER  
DOCKED: REMARK  12 active torsions:
DOCKED: REMARK  status: ('A' for Active; 'I' for Inactive)
DOCKED: REMARK    1  A    between atoms: C_6  and  C_10 
DOCKED: REMARK    2  A    between atoms: C_10  and  C_11 
DOCKED: REMARK    3  A    between atoms: C_11  and  C_12 
DOCKED: REMARK    4  A    between atoms: C_12  and  O_14 
DOCKED: REMARK    5  A    between atoms: C_17  and  C_20 
DOCKED: REMARK    6  A    between atoms: C_24  and  C_27 
DOCKED: REMARK    7  A    between atoms: C_31  and  C_34 
DOCKED: REMARK    8  A    between atoms: C_34  and  C_35 
DOCKED: REMARK    9  A    between atoms: C_35  and  C_36 
DOCKED: REMARK   10  A    between atoms: C_36  and  O_38 
DOCKED: REMARK   11  A    between atoms: FE_43  and  C_44 
DOCKED: REMARK   12  A    between atoms: C_44  and  O_45 
DOCKED: USER                              x       y       z     vdW  Elec       q    Type
DOCKED: USER                           _______ _______ _______ _____ _____    ______ ____
DOCKED: ROOT
DOCKED: ATOM      1  C   UNL d   1       8.722  15.442  35.538 -0.09 +0.05    +0.064 A 
DOCKED: ATOM      2  C   UNL d   1       6.635  17.238  31.661 -0.26 +0.03    +0.064 C 
DOCKED: ATOM      3  C   UNL d   1       7.777  13.316  29.183 -0.20 +0.01    +0.064 A 
DOCKED: ATOM      4  C   UNL d   1       9.574  11.299  33.228 -0.17 +0.04    +0.064 A 
DOCKED: ATOM      5  C   UNL d   1       8.100  16.236  34.651 -0.12 +0.06    +0.066 A 
DOCKED: ATOM      6  C   UNL d   1       7.540  17.474  35.021 -0.11 -0.02    -0.021 A 
DOCKED: ATOM      7  C   UNL d   1       6.916  17.981  33.897 -0.13 -0.02    -0.025 A 
DOCKED: ATOM      8  C   UNL d   1       7.135  17.038  32.887 -0.19 +0.04    +0.066 A 
DOCKED: ATOM      9  C   UNL d   1       6.138  19.299  33.765 -0.13 +0.02    +0.051 C 
DOCKED: ATOM     10  C   UNL d   1       6.831  16.338  30.552 -0.30 +0.02    +0.066 A 
DOCKED: ATOM     11  C   UNL d   1       6.453  16.557  29.210 -0.40 -0.00    -0.021 A 
DOCKED: ATOM     12  C   UNL d   1       6.801  15.400  28.508 -0.44 +0.00    +0.000 A 
DOCKED: ATOM     13  C   UNL d   1       7.376  14.567  29.469 -0.33 +0.02    +0.070 A 
DOCKED: ATOM     14  C   UNL d   1       5.886  17.832  28.640 -0.33 +0.00    +0.052 C 
DOCKED: ATOM     15  C   UNL d   1       8.340  12.307  30.058 -0.18 +0.02    +0.066 A 
DOCKED: ATOM     16  C   UNL d   1       8.599  10.984  29.730 -0.29 -0.00    -0.021 A 
DOCKED: ATOM     17  C   UNL d   1       9.115  10.397  30.895 -0.38 +0.00    +0.000 A 
DOCKED: ATOM     18  C   UNL d   1       9.147  11.418  31.840 -0.21 +0.03    +0.070 A 
DOCKED: ATOM     19  C   UNL d   1       8.355  10.352  28.378 -0.43 +0.01    +0.052 C 
DOCKED: ATOM     20  C   UNL d   1       9.533  12.254  34.188 -0.19 +0.05    +0.066 A 
DOCKED: ATOM     21  C   UNL d   1       9.938  12.009  35.498 -0.17 -0.02    -0.025 A 
DOCKED: ATOM     22  C   UNL d   1       9.731  13.194  36.180 -0.10 -0.02    -0.021 A 
DOCKED: ATOM     23  C   UNL d   1       9.194  14.107  35.248 -0.11 +0.05    +0.066 A 
DOCKED: ATOM     24  C   UNL d   1      10.478  10.704  36.078 -0.20 +0.06    +0.051 C 
DOCKED: ATOM     25  N   UNL d   1       7.871  15.950  33.324 -0.12 -0.18    -0.248 N 
DOCKED: ATOM     26  N   UNL d   1       7.445  15.158  30.692 -0.19 -0.08    -0.248 N 
DOCKED: ATOM     27  N   UNL d   1       8.650  12.533  31.316 -0.18 -0.09    -0.248 N 
DOCKED: ATOM     28  N   UNL d   1       9.070  13.541  34.041 -0.09 -0.17    -0.248 N 
DOCKED: ATOM     29 FE   UNL d   1       8.285  14.139  32.263 -0.05 +0.00    +0.000 Fe
DOCKED: ENDROOT
DOCKED: BRANCH   6  30
DOCKED: ATOM     30  C   UNL d   1       7.541  18.093  36.414 -0.07 +0.03    +0.052 C 
DOCKED: BRANCH  30  31
DOCKED: ATOM     31  C   UNL d   1       6.292  17.674  37.189 -0.05 +0.12    +0.115 C 
DOCKED: BRANCH  31  32
DOCKED: ATOM     32  C   UNL d   1       6.480  16.364  37.923 +0.01 +0.17    +0.139 C 
DOCKED: ATOM     33  O   UNL d   1       7.605  16.013  38.247 -0.00 -0.48    -0.650 OA
DOCKED: BRANCH  32  34
DOCKED: ATOM     34  O   UNL d   1       5.433  15.584  38.280 -0.27 -1.24    -0.776 OA
DOCKED: ATOM     35  H   UNL d   1       5.441  14.617  38.251 +0.01 +0.27    +0.167 HD
DOCKED: ENDBRANCH  32  34
DOCKED: ENDBRANCH  31  32
DOCKED: ENDBRANCH  30  31
DOCKED: ENDBRANCH   6  30
DOCKED: BRANCH  29  36
DOCKED: ATOM     36  C   UNL d   1       6.383  13.488  32.857 -0.07 +0.15    +0.190 C 
DOCKED: BRANCH  36  37
DOCKED: ATOM     37  O   UNL d   1       5.626  13.135  33.979 -0.67 -0.62    -0.399 OA
DOCKED: ATOM     38  H   UNL d   1       6.276  13.130  34.736 +0.07 +0.34    +0.209 HD
DOCKED: ENDBRANCH  36  37
DOCKED: ENDBRANCH  29  36
DOCKED: BRANCH  22  39
DOCKED: ATOM     39  C   UNL d   1       9.977  13.411  37.662 -0.05 +0.03    +0.052 C 
DOCKED: BRANCH  39  40
DOCKED: ATOM     40  C   UNL d   1       8.703  13.118  38.472 -0.02 +0.06    +0.115 C 
DOCKED: BRANCH  40  41
DOCKED: ATOM     41  C   UNL d   1       7.535  12.627  37.643 -0.06 +0.10    +0.139 C 
DOCKED: ATOM     42  O   UNL d   1       7.226  11.444  37.686 +0.02 -0.38    -0.650 OA
DOCKED: BRANCH  41  43
DOCKED: ATOM     43  O   UNL d   1       6.768  13.475  36.923 +0.08 -1.04    -0.776 OA
DOCKED: ATOM     44  H   UNL d   1       6.762  14.429  37.078 +0.01 +0.28    +0.167 HD
DOCKED: ENDBRANCH  41  43
DOCKED: ENDBRANCH  40  41
DOCKED: ENDBRANCH  39  40
DOCKED: ENDBRANCH  22  39
DOCKED: BRANCH  12  45
DOCKED: ATOM     45  C   UNL d   1       6.675  14.994  27.046 -0.52 +0.00    +0.004 C 
DOCKED: ATOM     46  C   UNL d   1       6.017  15.567  26.042 -0.53 +0.00    +0.012 C 
DOCKED: ENDBRANCH  12  45
DOCKED: BRANCH  17  47
DOCKED: ATOM     47  C   UNL d   1       9.511   8.981  31.155 -0.50 +0.00    +0.004 C 
DOCKED: ATOM     48  C   UNL d   1      10.600   8.412  30.633 -0.58 +0.00    +0.012 C 
DOCKED: ENDBRANCH  17  47
DOCKED: TORSDOF 12
DOCKED: TER
DOCKED: ENDMDL
________________________________________________________________________________


	BEGINNING GENETIC ALGORITHM DOCKING 93 of 100
Run: 93 Seed: 1648462583 2095161165 [ Run 93 of 100 GA/GALS ]
Beginning LAMARCKIAN GENETIC ALGORITHM (LGA), with a maximum of 25000000 energy evaluations.

Final-Value: -12.728


	FINAL GENETIC ALGORITHM DOCKED STATE
	_______________________________________________


Detailed state:  trans 2.224 -6.917 -10.242 quatxyzw 0.132086 0.488706 -0.185004 0.842314 center 8.781 34.984 -0.736 ntor 12 148.9117 112.9247 -68.4995 -9.9534 145.4683 108.7650 -112.9370 -31.9798 -129.4074 -150.9684 -179.4452 156.3964
State:	  2.224  -6.917 -10.242   0.245  0.907 -0.343 65.229    148.91  112.92  -68.50   -9.95  145.47  108.77 -112.94  -31.98 -129.41 -150.97 -179.45  156.40

DOCKED: MODEL       93
DOCKED: USER    Run = 93
DOCKED: USER    DPF = D:/Protein_go_brrr/autodock/final/1A3N/heme_Co/dock.dpf
DOCKED: USER  
DOCKED: USER    Estimated Free Energy of Binding    =   -5.04 kcal/mol  [=(1)+(2)+(3)-(4)]
DOCKED: USER    Estimated Inhibition Constant, Ki   =  202.71 uM (micromolar)  [Temperature = 298.15 K]
DOCKED: USER    
DOCKED: USER    (1) Final Intermolecular Energy     =   -8.62 kcal/mol
DOCKED: USER        vdW + Hbond + desolv Energy     =   -7.24 kcal/mol
DOCKED: USER        Electrostatic Energy            =   -1.38 kcal/mol
DOCKED: USER    (2) Final Total Internal Energy     =   -4.11 kcal/mol
DOCKED: USER    (3) Torsional Free Energy           =   +3.58 kcal/mol
DOCKED: USER    (4) Unbound System's Energy  [=(2)] =   -4.11 kcal/mol
DOCKED: USER    
DOCKED: USER    
DOCKED: USER    NEWDPF move heme_Co_opt.pdbqt
DOCKED: USER    NEWDPF about 8.781000 34.984000 -0.736000
DOCKED: USER    NEWDPF tran0 2.224227 -6.916876 -10.241988
DOCKED: USER    NEWDPF quaternion0 0.132086 0.488706 -0.185004 0.842314
DOCKED: USER    NEWDPF axisangle0 0.245063 0.906712 -0.343245 65.229384
DOCKED: USER    NEWDPF quat0 0.245063 0.906712 -0.343245 65.229384
DOCKED: USER    NEWDPF dihe0 148.91 112.92 -68.50 -9.95 145.47 108.77 -112.94 -31.98 -129.41 -150.97 -179.45 156.40 
DOCKED: USER  keepresnum = 1 
DOCKED: USER  
DOCKED: REMARK  12 active torsions:
DOCKED: REMARK  status: ('A' for Active; 'I' for Inactive)
DOCKED: REMARK    1  A    between atoms: C_6  and  C_10 
DOCKED: REMARK    2  A    between atoms: C_10  and  C_11 
DOCKED: REMARK    3  A    between atoms: C_11  and  C_12 
DOCKED: REMARK    4  A    between atoms: C_12  and  O_14 
DOCKED: REMARK    5  A    between atoms: C_17  and  C_20 
DOCKED: REMARK    6  A    between atoms: C_24  and  C_27 
DOCKED: REMARK    7  A    between atoms: C_31  and  C_34 
DOCKED: REMARK    8  A    between atoms: C_34  and  C_35 
DOCKED: REMARK    9  A    between atoms: C_35  and  C_36 
DOCKED: REMARK   10  A    between atoms: C_36  and  O_38 
DOCKED: REMARK   11  A    between atoms: FE_43  and  C_44 
DOCKED: REMARK   12  A    between atoms: C_44  and  O_45 
DOCKED: USER                              x       y       z     vdW  Elec       q    Type
DOCKED: USER                           _______ _______ _______ _____ _____    ______ ____
DOCKED: ROOT
DOCKED: ATOM      1  C   UNL d   1       1.996  -7.358 -12.356 -0.02 +0.02    +0.064 A 
DOCKED: ATOM      2  C   UNL d   1      -0.204  -9.032  -8.488 -0.18 +0.04    +0.064 C 
DOCKED: ATOM      3  C   UNL d   1       2.731  -6.513  -5.682 -0.29 +0.01    +0.064 A 
DOCKED: ATOM      4  C   UNL d   1       4.742  -4.492  -9.623 -0.17 +0.01    +0.064 A 
DOCKED: ATOM      5  C   UNL d   1       1.203  -8.028 -11.504 -0.04 +0.03    +0.066 A 
DOCKED: ATOM      6  C   UNL d   1       0.142  -8.840 -11.952 -0.03 -0.01    -0.021 A 
DOCKED: ATOM      7  C   UNL d   1      -0.507  -9.305 -10.826 -0.07 -0.01    -0.025 A 
DOCKED: ATOM      8  C   UNL d   1       0.195  -8.771  -9.739 -0.12 +0.04    +0.066 A 
DOCKED: ATOM      9  C   UNL d   1      -1.742 -10.216 -10.758 -0.07 +0.02    +0.051 C 
DOCKED: ATOM     10  C   UNL d   1       0.470  -8.550  -7.308 -0.22 +0.03    +0.066 A 
DOCKED: ATOM     11  C   UNL d   1       0.186  -8.901  -5.971 -0.27 -0.01    -0.021 A 
DOCKED: ATOM     12  C   UNL d   1       1.059  -8.155  -5.174 -0.35 +0.00    +0.000 A 
DOCKED: ATOM     13  C   UNL d   1       1.817  -7.416  -6.082 -0.20 +0.02    +0.070 A 
DOCKED: ATOM     14  C   UNL d   1      -0.792  -9.953  -5.513 -0.23 +0.01    +0.052 C 
DOCKED: ATOM     15  C   UNL d   1       3.561  -5.631  -6.477 -0.21 +0.01    +0.066 A 
DOCKED: ATOM     16  C   UNL d   1       4.380  -4.618  -5.998 -0.42 -0.00    -0.021 A 
DOCKED: ATOM     17  C   UNL d   1       4.961  -4.030  -7.132 -0.43 +0.00    +0.000 A 
DOCKED: ATOM     18  C   UNL d   1       4.461  -4.745  -8.215 -0.24 +0.01    +0.070 A 
DOCKED: ATOM     19  C   UNL d   1       4.572  -4.260  -4.541 -0.49 +0.01    +0.052 C 
DOCKED: ATOM     20  C   UNL d   1       4.201  -5.116 -10.697 -0.10 +0.01    +0.066 A 
DOCKED: ATOM     21  C   UNL d   1       4.524  -4.760 -12.004 -0.06 -0.00    -0.025 A 
DOCKED: ATOM     22  C   UNL d   1       3.769  -5.589 -12.814 -0.03 -0.00    -0.021 A 
DOCKED: ATOM     23  C   UNL d   1       3.009  -6.408 -11.953 -0.04 +0.02    +0.066 A 
DOCKED: ATOM     24  C   UNL d   1       5.489  -3.669 -12.461 -0.07 +0.01    +0.051 C 
DOCKED: ATOM     25  N   UNL d   1       1.262  -7.981 -10.130 -0.06 -0.12    -0.248 N 
DOCKED: ATOM     26  N   UNL d   1       1.498  -7.697  -7.373 -0.16 -0.10    -0.248 N 
DOCKED: ATOM     27  N   UNL d   1       3.607  -5.670  -7.790 -0.16 -0.05    -0.248 N 
DOCKED: ATOM     28  N   UNL d   1       3.265  -6.124 -10.671 -0.05 -0.06    -0.248 N 
DOCKED: ATOM     29 FE   UNL d   1       2.506  -6.756  -8.894 -0.04 +0.00    +0.000 Fe
DOCKED: ENDROOT
DOCKED: BRANCH   6  30
DOCKED: ATOM     30  C   UNL d   1      -0.269  -9.082 -13.401 -0.00 +0.01    +0.052 C 
DOCKED: BRANCH  30  31
DOCKED: ATOM     31  C   UNL d   1      -1.389  -8.125 -13.809 -0.01 +0.04    +0.115 C 
DOCKED: BRANCH  31  32
DOCKED: ATOM     32  C   UNL d   1      -1.085  -6.690 -13.439 -0.02 +0.07    +0.139 C 
DOCKED: ATOM     33  O   UNL d   1      -0.980  -5.851 -14.321 +0.02 -0.25    -0.650 OA
DOCKED: BRANCH  32  34
DOCKED: ATOM     34  O   UNL d   1      -0.973  -6.289 -12.151 -0.00 -0.70    -0.776 OA
DOCKED: ATOM     35  H   UNL d   1      -0.355  -5.611 -11.844 +0.03 +0.15    +0.167 HD
DOCKED: ENDBRANCH  32  34
DOCKED: ENDBRANCH  31  32
DOCKED: ENDBRANCH  30  31
DOCKED: ENDBRANCH   6  30
DOCKED: BRANCH  29  36
DOCKED: ATOM     36  C   UNL d   1       0.993  -5.309  -8.999 -0.11 +0.17    +0.190 C 
DOCKED: BRANCH  36  37
DOCKED: ATOM     37  O   UNL d   1       0.129  -4.663  -9.890 -0.32 -0.53    -0.399 OA
DOCKED: ATOM     38  H   UNL d   1       0.342  -5.054 -10.783 +0.06 +0.21    +0.209 HD
DOCKED: ENDBRANCH  36  37
DOCKED: ENDBRANCH  29  36
DOCKED: BRANCH  22  39
DOCKED: ATOM     39  C   UNL d   1       3.737  -5.546 -14.330 -0.01 +0.01    +0.052 C 
DOCKED: BRANCH  39  40
DOCKED: ATOM     40  C   UNL d   1       2.466  -4.837 -14.826 -0.01 +0.03    +0.115 C 
DOCKED: BRANCH  40  41
DOCKED: ATOM     41  C   UNL d   1       1.849  -3.886 -13.822 -0.06 +0.05    +0.139 C 
DOCKED: ATOM     42  O   UNL d   1       1.962  -2.680 -13.991 -0.25 -0.31    -0.650 OA
DOCKED: BRANCH  41  43
DOCKED: ATOM     43  O   UNL d   1       1.100  -4.332 -12.789 +0.07 -0.32    -0.776 OA
DOCKED: ATOM     44  H   UNL d   1       0.274  -4.815 -12.917 +0.03 +0.08    +0.167 HD
DOCKED: ENDBRANCH  41  43
DOCKED: ENDBRANCH  40  41
DOCKED: ENDBRANCH  39  40
DOCKED: ENDBRANCH  22  39
DOCKED: BRANCH  12  45
DOCKED: ATOM     45  C   UNL d   1       1.276  -8.071  -3.669 -0.38 +0.00    +0.004 C 
DOCKED: ATOM     46  C   UNL d   1       0.491  -8.438  -2.659 -0.48 +0.00    +0.012 C 
DOCKED: ENDBRANCH  12  45
DOCKED: BRANCH  17  47
DOCKED: ATOM     47  C   UNL d   1       5.877  -2.856  -7.233 -0.49 +0.00    +0.004 C 
DOCKED: ATOM     48  C   UNL d   1       7.075  -2.904  -7.821 -0.53 -0.00    +0.012 C 
DOCKED: ENDBRANCH  17  47
DOCKED: TORSDOF 12
DOCKED: TER
DOCKED: ENDMDL
________________________________________________________________________________


	BEGINNING GENETIC ALGORITHM DOCKING 94 of 100
Run: 94 Seed: 1969665278 1876712536 [ Run 94 of 100 GA/GALS ]
Beginning LAMARCKIAN GENETIC ALGORITHM (LGA), with a maximum of 25000000 energy evaluations.

Final-Value: -11.379


	FINAL GENETIC ALGORITHM DOCKED STATE
	_______________________________________________


Detailed state:  trans 25.179 -5.196 38.279 quatxyzw 0.570186 -0.537108 -0.614004 -0.096960 center 8.781 34.984 -0.736 ntor 12 77.7448 105.1090 6.6134 45.1262 80.7339 138.6550 162.1083 127.1787 -9.3624 -158.4221 12.0778 -25.1405
State:	 25.179  -5.196  38.279   0.573 -0.540 -0.617 -168.872     77.74  105.11    6.61   45.13   80.73  138.65  162.11  127.18   -9.36 -158.42   12.08  -25.14

DOCKED: MODEL       94
DOCKED: USER    Run = 94
DOCKED: USER    DPF = D:/Protein_go_brrr/autodock/final/1A3N/heme_Co/dock.dpf
DOCKED: USER  
DOCKED: USER    Estimated Free Energy of Binding    =   -7.05 kcal/mol  [=(1)+(2)+(3)-(4)]
DOCKED: USER    Estimated Inhibition Constant, Ki   =    6.81 uM (micromolar)  [Temperature = 298.15 K]
DOCKED: USER    
DOCKED: USER    (1) Final Intermolecular Energy     =  -10.63 kcal/mol
DOCKED: USER        vdW + Hbond + desolv Energy     =   -8.07 kcal/mol
DOCKED: USER        Electrostatic Energy            =   -2.56 kcal/mol
DOCKED: USER    (2) Final Total Internal Energy     =   -0.75 kcal/mol
DOCKED: USER    (3) Torsional Free Energy           =   +3.58 kcal/mol
DOCKED: USER    (4) Unbound System's Energy  [=(2)] =   -0.75 kcal/mol
DOCKED: USER    
DOCKED: USER    
DOCKED: USER    NEWDPF move heme_Co_opt.pdbqt
DOCKED: USER    NEWDPF about 8.781000 34.984000 -0.736000
DOCKED: USER    NEWDPF tran0 25.179322 -5.195815 38.278781
DOCKED: USER    NEWDPF quaternion0 0.570186 -0.537108 -0.614004 -0.096960
DOCKED: USER    NEWDPF axisangle0 0.572885 -0.539651 -0.616911 -168.871731
DOCKED: USER    NEWDPF quat0 0.572885 -0.539651 -0.616911 -168.871731
DOCKED: USER    NEWDPF dihe0 77.74 105.11 6.61 45.13 80.73 138.65 162.11 127.18 -9.36 -158.42 12.08 -25.14 
DOCKED: USER  keepresnum = 1 
DOCKED: USER  
DOCKED: REMARK  12 active torsions:
DOCKED: REMARK  status: ('A' for Active; 'I' for Inactive)
DOCKED: REMARK    1  A    between atoms: C_6  and  C_10 
DOCKED: REMARK    2  A    between atoms: C_10  and  C_11 
DOCKED: REMARK    3  A    between atoms: C_11  and  C_12 
DOCKED: REMARK    4  A    between atoms: C_12  and  O_14 
DOCKED: REMARK    5  A    between atoms: C_17  and  C_20 
DOCKED: REMARK    6  A    between atoms: C_24  and  C_27 
DOCKED: REMARK    7  A    between atoms: C_31  and  C_34 
DOCKED: REMARK    8  A    between atoms: C_34  and  C_35 
DOCKED: REMARK    9  A    between atoms: C_35  and  C_36 
DOCKED: REMARK   10  A    between atoms: C_36  and  O_38 
DOCKED: REMARK   11  A    between atoms: FE_43  and  C_44 
DOCKED: REMARK   12  A    between atoms: C_44  and  O_45 
DOCKED: USER                              x       y       z     vdW  Elec       q    Type
DOCKED: USER                           _______ _______ _______ _____ _____    ______ ____
DOCKED: ROOT
DOCKED: ATOM      1  C   UNL d   1      26.257  -4.449  40.010 -0.04 +0.03    +0.064 A 
DOCKED: ATOM      2  C   UNL d   1      24.149  -2.244  36.362 -0.34 +0.01    +0.064 C 
DOCKED: ATOM      3  C   UNL d   1      23.204  -6.456  34.313 -0.25 +0.01    +0.064 A 
DOCKED: ATOM      4  C   UNL d   1      25.008  -8.741  38.210 -0.07 +0.06    +0.064 A 
DOCKED: ATOM      5  C   UNL d   1      25.783  -3.536  39.146 -0.09 +0.02    +0.066 A 
DOCKED: ATOM      6  C   UNL d   1      25.808  -2.156  39.428 -0.15 -0.01    -0.021 A 
DOCKED: ATOM      7  C   UNL d   1      25.175  -1.523  38.377 -0.18 -0.00    -0.025 A 
DOCKED: ATOM      8  C   UNL d   1      24.805  -2.541  37.491 -0.20 +0.01    +0.066 A 
DOCKED: ATOM      9  C   UNL d   1      24.919  -0.018  38.199 -0.35 +0.00    +0.051 C 
DOCKED: ATOM     10  C   UNL d   1      23.751  -3.221  35.379 -0.30 +0.01    +0.066 A 
DOCKED: ATOM     11  C   UNL d   1      23.187  -2.960  34.111 -0.41 -0.00    -0.021 A 
DOCKED: ATOM     12  C   UNL d   1      22.925  -4.206  33.534 -0.41 +0.00    +0.000 A 
DOCKED: ATOM     13  C   UNL d   1      23.359  -5.131  34.484 -0.24 +0.01    +0.070 A 
DOCKED: ATOM     14  C   UNL d   1      23.008  -1.605  33.476 -0.31 +0.01    +0.052 C 
DOCKED: ATOM     15  C   UNL d   1      23.545  -7.544  35.208 -0.25 +0.02    +0.066 A 
DOCKED: ATOM     16  C   UNL d   1      23.226  -8.883  35.034 -0.27 -0.00    -0.021 A 
DOCKED: ATOM     17  C   UNL d   1      23.742  -9.546  36.157 -0.20 +0.00    +0.000 A 
DOCKED: ATOM     18  C   UNL d   1      24.352  -8.558  36.922 -0.16 +0.04    +0.070 A 
DOCKED: ATOM     19  C   UNL d   1      22.471  -9.459  33.857 -0.22 +0.01    +0.052 C 
DOCKED: ATOM     20  C   UNL d   1      25.532  -7.783  39.012 -0.02 +0.08    +0.066 A 
DOCKED: ATOM     21  C   UNL d   1      26.105  -8.080  40.247 -0.06 -0.02    -0.025 A 
DOCKED: ATOM     22  C   UNL d   1      26.500  -6.864  40.776 -0.04 -0.01    -0.021 A 
DOCKED: ATOM     23  C   UNL d   1      26.135  -5.878  39.835 -0.06 +0.05    +0.066 A 
DOCKED: ATOM     24  C   UNL d   1      26.251  -9.451  40.901 -0.04 +0.03    +0.051 C 
DOCKED: ATOM     25  N   UNL d   1      25.174  -3.797  37.939 -0.08 -0.08    -0.248 N 
DOCKED: ATOM     26  N   UNL d   1      23.910  -4.534  35.574 -0.14 -0.06    -0.248 N 
DOCKED: ATOM     27  N   UNL d   1      24.189  -7.374  36.341 -0.13 -0.12    -0.248 N 
DOCKED: ATOM     28  N   UNL d   1      25.547  -6.430  38.767 -0.07 -0.23    -0.248 N 
DOCKED: ATOM     29 FE   UNL d   1      24.654  -5.693  37.096 -0.03 +0.00    +0.000 Fe
DOCKED: ENDROOT
DOCKED: BRANCH   6  30
DOCKED: ATOM     30  C   UNL d   1      26.346  -1.496  40.693 -0.16 +0.02    +0.052 C 
DOCKED: BRANCH  30  31
DOCKED: ATOM     31  C   UNL d   1      27.784  -1.021  40.481 -0.15 +0.04    +0.115 C 
DOCKED: BRANCH  31  32
DOCKED: ATOM     32  C   UNL d   1      28.267  -0.126  41.602 -0.25 +0.08    +0.139 C 
DOCKED: ATOM     33  O   UNL d   1      27.857  -0.311  42.738 +0.00 -0.31    -0.650 OA
DOCKED: BRANCH  32  34
DOCKED: ATOM     34  O   UNL d   1      29.180   0.851  41.397 -0.41 -0.75    -0.776 OA
DOCKED: ATOM     35  H   UNL d   1      28.993   1.684  40.943 -0.08 +0.12    +0.167 HD
DOCKED: ENDBRANCH  32  34
DOCKED: ENDBRANCH  31  32
DOCKED: ENDBRANCH  30  31
DOCKED: ENDBRANCH   6  30
DOCKED: BRANCH  29  36
DOCKED: ATOM     36  C   UNL d   1      22.831  -5.521  38.116 -0.08 +0.05    +0.190 C 
DOCKED: BRANCH  36  37
DOCKED: ATOM     37  O   UNL d   1      22.192  -4.821  39.144 -0.03 -0.07    -0.399 OA
DOCKED: ATOM     38  H   UNL d   1      22.914  -4.286  39.578 +0.03 +0.04    +0.209 HD
DOCKED: ENDBRANCH  36  37
DOCKED: ENDBRANCH  29  36
DOCKED: BRANCH  22  39
DOCKED: ATOM     39  C   UNL d   1      27.134  -6.663  42.140 -0.01 +0.02    +0.052 C 
DOCKED: BRANCH  39  40
DOCKED: ATOM     40  C   UNL d   1      28.611  -7.090  42.120 -0.02 +0.06    +0.115 C 
DOCKED: BRANCH  40  41
DOCKED: ATOM     41  C   UNL d   1      29.201  -7.237  40.733 -0.04 +0.15    +0.139 C 
DOCKED: ATOM     42  O   UNL d   1      29.215  -8.339  40.203 -0.48 -1.13    -0.650 OA
DOCKED: BRANCH  41  43
DOCKED: ATOM     43  O   UNL d   1      29.633  -6.168  40.027 -0.01 -0.82    -0.776 OA
DOCKED: ATOM     44  H   UNL d   1      29.759  -5.298  40.428 +0.04 +0.11    +0.167 HD
DOCKED: ENDBRANCH  41  43
DOCKED: ENDBRANCH  40  41
DOCKED: ENDBRANCH  39  40
DOCKED: ENDBRANCH  22  39
DOCKED: BRANCH  12  45
DOCKED: ATOM     45  C   UNL d   1      22.335  -4.626  32.194 -0.48 +0.00    +0.004 C 
DOCKED: ATOM     46  C   UNL d   1      22.467  -4.089  30.984 -0.51 +0.00    +0.012 C 
DOCKED: ENDBRANCH  12  45
DOCKED: BRANCH  17  47
DOCKED: ATOM     47  C   UNL d   1      23.645 -10.986  36.543 -0.17 +0.00    +0.004 C 
DOCKED: ATOM     48  C   UNL d   1      24.103 -11.985  35.785 -0.17 +0.00    +0.012 C 
DOCKED: ENDBRANCH  17  47
DOCKED: TORSDOF 12
DOCKED: TER
DOCKED: ENDMDL
________________________________________________________________________________


	BEGINNING GENETIC ALGORITHM DOCKING 95 of 100
Run: 95 Seed: 576440539 1114022344 [ Run 95 of 100 GA/GALS ]
Beginning LAMARCKIAN GENETIC ALGORITHM (LGA), with a maximum of 25000000 energy evaluations.

Final-Value: -13.375


	FINAL GENETIC ALGORITHM DOCKED STATE
	_______________________________________________


Detailed state:  trans 8.824 13.831 34.812 quatxyzw -0.715354 0.361423 0.595412 0.055918 center 8.781 34.984 -0.736 ntor 12 54.2314 159.8434 103.5487 -41.1135 121.7976 -121.8788 1.4071 -174.5110 -125.0000 95.3137 174.5594 -15.1509
State:	  8.824  13.831  34.812  -0.716  0.362  0.596 173.589     54.23  159.84  103.55  -41.11  121.80 -121.88    1.41 -174.51 -125.00   95.31  174.56  -15.15

DOCKED: MODEL       95
DOCKED: USER    Run = 95
DOCKED: USER    DPF = D:/Protein_go_brrr/autodock/final/1A3N/heme_Co/dock.dpf
DOCKED: USER  
DOCKED: USER    Estimated Free Energy of Binding    =   -8.89 kcal/mol  [=(1)+(2)+(3)-(4)]
DOCKED: USER    Estimated Inhibition Constant, Ki   =  306.11 nM (nanomolar)  [Temperature = 298.15 K]
DOCKED: USER    
DOCKED: USER    (1) Final Intermolecular Energy     =  -12.47 kcal/mol
DOCKED: USER        vdW + Hbond + desolv Energy     =   -9.55 kcal/mol
DOCKED: USER        Electrostatic Energy            =   -2.92 kcal/mol
DOCKED: USER    (2) Final Total Internal Energy     =   -0.91 kcal/mol
DOCKED: USER    (3) Torsional Free Energy           =   +3.58 kcal/mol
DOCKED: USER    (4) Unbound System's Energy  [=(2)] =   -0.91 kcal/mol
DOCKED: USER    
DOCKED: USER    
DOCKED: USER    NEWDPF move heme_Co_opt.pdbqt
DOCKED: USER    NEWDPF about 8.781000 34.984000 -0.736000
DOCKED: USER    NEWDPF tran0 8.823678 13.830868 34.811847
DOCKED: USER    NEWDPF quaternion0 -0.715354 0.361423 0.595412 0.055918
DOCKED: USER    NEWDPF axisangle0 -0.716475 0.361989 0.596345 173.588932
DOCKED: USER    NEWDPF quat0 -0.716475 0.361989 0.596345 173.588932
DOCKED: USER    NEWDPF dihe0 54.23 159.84 103.55 -41.11 121.80 -121.88 1.41 -174.51 -125.00 95.31 174.56 -15.15 
DOCKED: USER  keepresnum = 1 
DOCKED: USER  
DOCKED: REMARK  12 active torsions:
DOCKED: REMARK  status: ('A' for Active; 'I' for Inactive)
DOCKED: REMARK    1  A    between atoms: C_6  and  C_10 
DOCKED: REMARK    2  A    between atoms: C_10  and  C_11 
DOCKED: REMARK    3  A    between atoms: C_11  and  C_12 
DOCKED: REMARK    4  A    between atoms: C_12  and  O_14 
DOCKED: REMARK    5  A    between atoms: C_17  and  C_20 
DOCKED: REMARK    6  A    between atoms: C_24  and  C_27 
DOCKED: REMARK    7  A    between atoms: C_31  and  C_34 
DOCKED: REMARK    8  A    between atoms: C_34  and  C_35 
DOCKED: REMARK    9  A    between atoms: C_35  and  C_36 
DOCKED: REMARK   10  A    between atoms: C_36  and  O_38 
DOCKED: REMARK   11  A    between atoms: FE_43  and  C_44 
DOCKED: REMARK   12  A    between atoms: C_44  and  O_45 
DOCKED: USER                              x       y       z     vdW  Elec       q    Type
DOCKED: USER                           _______ _______ _______ _____ _____    ______ ____
DOCKED: ROOT
DOCKED: ATOM      1  C   UNL d   1       9.300  14.297  36.879 -0.04 +0.04    +0.064 A 
DOCKED: ATOM      2  C   UNL d   1       7.203  16.819  33.436 -0.18 +0.05    +0.064 C 
DOCKED: ATOM      3  C   UNL d   1       8.044  13.312  30.302 -0.11 +0.02    +0.064 A 
DOCKED: ATOM      4  C   UNL d   1       9.844  10.559  33.886 -0.13 +0.05    +0.064 A 
DOCKED: ATOM      5  C   UNL d   1       8.698  15.259  36.160 -0.07 +0.05    +0.066 A 
DOCKED: ATOM      6  C   UNL d   1       8.221  16.445  36.750 -0.06 -0.02    -0.021 A 
DOCKED: ATOM      7  C   UNL d   1       7.593  17.163  35.751 -0.04 -0.03    -0.025 A 
DOCKED: ATOM      8  C   UNL d   1       7.728  16.392  34.592 -0.12 +0.07    +0.066 A 
DOCKED: ATOM      9  C   UNL d   1       6.889  18.523  35.869 -0.09 +0.04    +0.051 C 
DOCKED: ATOM     10  C   UNL d   1       7.314  16.107  32.187 -0.23 +0.04    +0.066 A 
DOCKED: ATOM     11  C   UNL d   1       6.908  16.567  30.915 -0.30 -0.01    -0.021 A 
DOCKED: ATOM     12  C   UNL d   1       7.169  15.526  30.020 -0.36 +0.00    +0.000 A 
DOCKED: ATOM     13  C   UNL d   1       7.724  14.517  30.807 -0.29 +0.02    +0.070 A 
DOCKED: ATOM     14  C   UNL d   1       6.399  17.946  30.586 -0.32 +0.01    +0.052 C 
DOCKED: ATOM     15  C   UNL d   1       8.574  12.144  30.977 -0.20 +0.02    +0.066 A 
DOCKED: ATOM     16  C   UNL d   1       8.747  10.882  30.426 -0.32 -0.01    -0.021 A 
DOCKED: ATOM     17  C   UNL d   1       9.263  10.084  31.456 -0.39 +0.00    +0.000 A 
DOCKED: ATOM     18  C   UNL d   1       9.382  10.929  32.555 -0.22 +0.04    +0.070 A 
DOCKED: ATOM     19  C   UNL d   1       8.426  10.497  28.999 -0.40 +0.01    +0.052 C 
DOCKED: ATOM     20  C   UNL d   1       9.886  11.341  34.991 -0.19 +0.06    +0.066 A 
DOCKED: ATOM     21  C   UNL d   1      10.316  10.861  36.226 -0.19 -0.03    -0.025 A 
DOCKED: ATOM     22  C   UNL d   1      10.198  11.925  37.102 -0.12 -0.02    -0.021 A 
DOCKED: ATOM     23  C   UNL d   1       9.685  13.006  36.355 -0.09 +0.05    +0.066 A 
DOCKED: ATOM     24  C   UNL d   1      10.798   9.452  36.561 -0.12 +0.05    +0.051 C 
DOCKED: ATOM     25  N   UNL d   1       8.413  15.210  34.814 -0.08 -0.22    -0.248 N 
DOCKED: ATOM     26  N   UNL d   1       7.863  14.891  32.107 -0.15 -0.13    -0.248 N 
DOCKED: ATOM     27  N   UNL d   1       8.934  12.140  32.241 -0.17 -0.12    -0.248 N 
DOCKED: ATOM     28  N   UNL d   1       9.493  12.657  35.077 -0.08 -0.20    -0.248 N 
DOCKED: ATOM     29 FE   UNL d   1       8.691  13.582  33.454 -0.04 +0.00    +0.000 Fe
DOCKED: ENDROOT
DOCKED: BRANCH   6  30
DOCKED: ATOM     30  C   UNL d   1       8.299  16.822  38.226 -0.02 +0.03    +0.052 C 
DOCKED: BRANCH  30  31
DOCKED: ATOM     31  C   UNL d   1       6.955  16.583  38.914 -0.03 +0.07    +0.115 C 
DOCKED: BRANCH  31  32
DOCKED: ATOM     32  C   UNL d   1       6.438  15.177  38.697 -0.04 +0.13    +0.139 C 
DOCKED: ATOM     33  O   UNL d   1       5.302  15.012  38.279 -0.38 -1.13    -0.650 OA
DOCKED: BRANCH  32  34
DOCKED: ATOM     34  O   UNL d   1       7.213  14.087  38.906 +0.02 -0.51    -0.776 OA
DOCKED: ATOM     35  H   UNL d   1       7.728  13.932  39.710 +0.01 +0.08    +0.167 HD
DOCKED: ENDBRANCH  32  34
DOCKED: ENDBRANCH  31  32
DOCKED: ENDBRANCH  30  31
DOCKED: ENDBRANCH   6  30
DOCKED: BRANCH  29  36
DOCKED: ATOM     36  C   UNL d   1       6.773  12.941  34.007 -0.22 +0.19    +0.190 C 
DOCKED: BRANCH  36  37
DOCKED: ATOM     37  O   UNL d   1       5.414  13.136  33.743 -0.67 -0.57    -0.399 OA
DOCKED: ATOM     38  H   UNL d   1       5.342  13.131  32.747 -0.34 +0.13    +0.209 HD
DOCKED: ENDBRANCH  36  37
DOCKED: ENDBRANCH  29  36
DOCKED: BRANCH  22  39
DOCKED: ATOM     39  C   UNL d   1      10.500  11.879  38.588 -0.07 +0.03    +0.052 C 
DOCKED: BRANCH  39  40
DOCKED: ATOM     40  C   UNL d   1      11.992  12.146  38.847 -0.08 +0.09    +0.115 C 
DOCKED: BRANCH  40  41
DOCKED: ATOM     41  C   UNL d   1      12.856  10.902  38.864 -0.06 +0.14    +0.139 C 
DOCKED: ATOM     42  O   UNL d   1      12.407   9.869  39.339 -0.02 -0.41    -0.650 OA
DOCKED: BRANCH  41  43
DOCKED: ATOM     43  O   UNL d   1      14.079  10.879  38.290 -0.44 -1.21    -0.776 OA
DOCKED: ATOM     44  H   UNL d   1      14.894  10.832  38.806 +0.02 +0.15    +0.167 HD
DOCKED: ENDBRANCH  41  43
DOCKED: ENDBRANCH  40  41
DOCKED: ENDBRANCH  39  40
DOCKED: ENDBRANCH  22  39
DOCKED: BRANCH  12  45
DOCKED: ATOM     45  C   UNL d   1       6.976  15.377  28.517 -0.48 +0.00    +0.004 C 
DOCKED: ATOM     46  C   UNL d   1       5.915  15.619  27.751 -0.55 +0.00    +0.012 C 
DOCKED: ENDBRANCH  12  45
DOCKED: BRANCH  17  47
DOCKED: ATOM     47  C   UNL d   1       9.585   8.625  31.463 -0.53 +0.00    +0.004 C 
DOCKED: ATOM     48  C   UNL d   1      10.822   8.142  31.320 -0.59 +0.00    +0.012 C 
DOCKED: ENDBRANCH  17  47
DOCKED: TORSDOF 12
DOCKED: TER
DOCKED: ENDMDL
________________________________________________________________________________


	BEGINNING GENETIC ALGORITHM DOCKING 96 of 100
Run: 96 Seed: 51301607 1871478161 [ Run 96 of 100 GA/GALS ]
Beginning LAMARCKIAN GENETIC ALGORITHM (LGA), with a maximum of 25000000 energy evaluations.

Final-Value: -11.804


	FINAL GENETIC ALGORITHM DOCKED STATE
	_______________________________________________


Detailed state:  trans 5.897 -15.766 17.769 quatxyzw 0.569687 -0.080428 0.736114 0.356546 center 8.781 34.984 -0.736 ntor 12 172.2184 98.8036 38.4782 -100.7413 134.9231 153.9557 -124.1881 -43.6410 -146.5937 -37.0995 -175.7544 130.9450
State:	  5.897 -15.766  17.769   0.610 -0.086  0.788 138.224    172.22   98.80   38.48 -100.74  134.92  153.96 -124.19  -43.64 -146.59  -37.10 -175.75  130.94

DOCKED: MODEL       96
DOCKED: USER    Run = 96
DOCKED: USER    DPF = D:/Protein_go_brrr/autodock/final/1A3N/heme_Co/dock.dpf
DOCKED: USER  
DOCKED: USER    Estimated Free Energy of Binding    =   -6.25 kcal/mol  [=(1)+(2)+(3)-(4)]
DOCKED: USER    Estimated Inhibition Constant, Ki   =   26.32 uM (micromolar)  [Temperature = 298.15 K]
DOCKED: USER    
DOCKED: USER    (1) Final Intermolecular Energy     =   -9.83 kcal/mol
DOCKED: USER        vdW + Hbond + desolv Energy     =   -6.32 kcal/mol
DOCKED: USER        Electrostatic Energy            =   -3.51 kcal/mol
DOCKED: USER    (2) Final Total Internal Energy     =   -1.98 kcal/mol
DOCKED: USER    (3) Torsional Free Energy           =   +3.58 kcal/mol
DOCKED: USER    (4) Unbound System's Energy  [=(2)] =   -1.98 kcal/mol
DOCKED: USER    
DOCKED: USER    
DOCKED: USER    NEWDPF move heme_Co_opt.pdbqt
DOCKED: USER    NEWDPF about 8.781000 34.984000 -0.736000
DOCKED: USER    NEWDPF tran0 5.897362 -15.765520 17.768705
DOCKED: USER    NEWDPF quaternion0 0.569687 -0.080428 0.736114 0.356546
DOCKED: USER    NEWDPF axisangle0 0.609762 -0.086086 0.787896 138.223607
DOCKED: USER    NEWDPF quat0 0.609762 -0.086086 0.787896 138.223607
DOCKED: USER    NEWDPF dihe0 172.22 98.80 38.48 -100.74 134.92 153.96 -124.19 -43.64 -146.59 -37.10 -175.75 130.94 
DOCKED: USER  keepresnum = 1 
DOCKED: USER  
DOCKED: REMARK  12 active torsions:
DOCKED: REMARK  status: ('A' for Active; 'I' for Inactive)
DOCKED: REMARK    1  A    between atoms: C_6  and  C_10 
DOCKED: REMARK    2  A    between atoms: C_10  and  C_11 
DOCKED: REMARK    3  A    between atoms: C_11  and  C_12 
DOCKED: REMARK    4  A    between atoms: C_12  and  O_14 
DOCKED: REMARK    5  A    between atoms: C_17  and  C_20 
DOCKED: REMARK    6  A    between atoms: C_24  and  C_27 
DOCKED: REMARK    7  A    between atoms: C_31  and  C_34 
DOCKED: REMARK    8  A    between atoms: C_34  and  C_35 
DOCKED: REMARK    9  A    between atoms: C_35  and  C_36 
DOCKED: REMARK   10  A    between atoms: C_36  and  O_38 
DOCKED: REMARK   11  A    between atoms: FE_43  and  C_44 
DOCKED: REMARK   12  A    between atoms: C_44  and  O_45 
DOCKED: USER                              x       y       z     vdW  Elec       q    Type
DOCKED: USER                           _______ _______ _______ _____ _____    ______ ____
DOCKED: ROOT
DOCKED: ATOM      1  C   UNL d   1       5.539 -15.183  15.708 -0.06 +0.03    +0.064 A 
DOCKED: ATOM      2  C   UNL d   1       7.612 -12.935  19.349 -0.12 +0.03    +0.064 C 
DOCKED: ATOM      3  C   UNL d   1       6.447 -16.526  22.278 -0.18 +0.02    +0.064 A 
DOCKED: ATOM      4  C   UNL d   1       4.665 -19.014  18.497 -0.09 +0.01    +0.064 A 
DOCKED: ATOM      5  C   UNL d   1       6.159 -14.288  16.495 -0.06 +0.03    +0.066 A 
DOCKED: ATOM      6  C   UNL d   1       6.724 -13.105  15.981 -0.07 -0.01    -0.021 A 
DOCKED: ATOM      7  C   UNL d   1       7.343 -12.468  17.038 -0.05 -0.01    -0.025 A 
DOCKED: ATOM      8  C   UNL d   1       7.117 -13.280  18.154 -0.07 +0.03    +0.066 A 
DOCKED: ATOM      9  C   UNL d   1       8.124 -11.144  17.014 -0.05 +0.02    +0.051 C 
DOCKED: ATOM     10  C   UNL d   1       7.407 -13.694  20.558 -0.16 +0.03    +0.066 A 
DOCKED: ATOM     11  C   UNL d   1       7.780 -13.314  21.866 -0.21 -0.01    -0.021 A 
DOCKED: ATOM     12  C   UNL d   1       7.425 -14.378  22.700 -0.23 +0.00    +0.000 A 
DOCKED: ATOM     13  C   UNL d   1       6.853 -15.319  21.844 -0.19 +0.03    +0.070 A 
DOCKED: ATOM     14  C   UNL d   1       8.347 -11.981  22.280 -0.27 +0.00    +0.052 C 
DOCKED: ATOM     15  C   UNL d   1       5.886 -17.632  21.528 -0.13 +0.02    +0.066 A 
DOCKED: ATOM     16  C   UNL d   1       5.623 -18.906  22.012 -0.13 -0.00    -0.021 A 
DOCKED: ATOM     17  C   UNL d   1       5.111 -19.628  20.924 -0.11 +0.00    +0.000 A 
DOCKED: ATOM     18  C   UNL d   1       5.086 -18.729  19.863 -0.10 +0.02    +0.070 A 
DOCKED: ATOM     19  C   UNL d   1       5.859 -19.370  23.432 -0.08 +0.01    +0.052 C 
DOCKED: ATOM     20  C   UNL d   1       4.714 -18.183  17.429 -0.08 +0.02    +0.066 A 
DOCKED: ATOM     21  C   UNL d   1       4.314 -18.583  16.156 -0.10 -0.01    -0.025 A 
DOCKED: ATOM     22  C   UNL d   1       4.527 -17.490  15.336 -0.11 -0.01    -0.021 A 
DOCKED: ATOM     23  C   UNL d   1       5.063 -16.472  16.154 -0.07 +0.03    +0.066 A 
DOCKED: ATOM     24  C   UNL d   1       3.773 -19.947  15.736 -0.17 +0.00    +0.051 C 
DOCKED: ATOM     25  N   UNL d   1       6.380 -14.412  17.848 -0.05 -0.11    -0.248 N 
DOCKED: ATOM     26  N   UNL d   1       6.792 -14.881  20.558 -0.14 -0.13    -0.248 N 
DOCKED: ATOM     27  N   UNL d   1       5.583 -17.560  20.251 -0.04 -0.09    -0.248 N 
DOCKED: ATOM     28  N   UNL d   1       5.179 -16.888  17.421 -0.07 -0.09    -0.248 N 
DOCKED: ATOM     29 FE   UNL d   1       5.956 -16.081  19.118 -0.04 +0.00    +0.000 Fe
DOCKED: ENDROOT
DOCKED: BRANCH   6  30
DOCKED: ATOM     30  C   UNL d   1       6.731 -12.659  14.523 -0.19 +0.03    +0.052 C 
DOCKED: BRANCH  30  31
DOCKED: ATOM     31  C   UNL d   1       7.993 -13.153  13.817 -0.16 +0.10    +0.115 C 
DOCKED: BRANCH  31  32
DOCKED: ATOM     32  C   UNL d   1       8.487 -14.472  14.372 -0.07 +0.16    +0.139 C 
DOCKED: ATOM     33  O   UNL d   1       8.333 -15.494  13.720 -0.17 -1.41    -0.650 OA
DOCKED: BRANCH  32  34
DOCKED: ATOM     34  O   UNL d   1       9.141 -14.553  15.554 +0.06 -0.67    -0.776 OA
DOCKED: ATOM     35  H   UNL d   1       9.324 -15.382  16.018 +0.03 +0.16    +0.167 HD
DOCKED: ENDBRANCH  32  34
DOCKED: ENDBRANCH  31  32
DOCKED: ENDBRANCH  30  31
DOCKED: ENDBRANCH   6  30
DOCKED: BRANCH  29  36
DOCKED: ATOM     36  C   UNL d   1       7.860 -16.802  18.617 -0.09 +0.14    +0.190 C 
DOCKED: BRANCH  36  37
DOCKED: ATOM     37  O   UNL d   1       8.994 -16.515  17.850 -0.07 -0.46    -0.399 OA
DOCKED: ATOM     38  H   UNL d   1       8.702 -15.800  17.218 +0.03 +0.19    +0.209 HD
DOCKED: ENDBRANCH  36  37
DOCKED: ENDBRANCH  29  36
DOCKED: BRANCH  22  39
DOCKED: ATOM     39  C   UNL d   1       4.289 -17.453  13.838 -0.27 +0.02    +0.052 C 
DOCKED: BRANCH  39  40
DOCKED: ATOM     40  C   UNL d   1       5.542 -16.949  13.102 -0.21 +0.11    +0.115 C 
DOCKED: BRANCH  40  41
DOCKED: ATOM     41  C   UNL d   1       5.881 -17.723  11.845 -0.18 +0.21    +0.139 C 
DOCKED: ATOM     42  O   UNL d   1       5.478 -17.315  10.765 -0.60 -1.00    -0.650 OA
DOCKED: BRANCH  41  43
DOCKED: ATOM     43  O   UNL d   1       6.691 -18.804  11.873 -0.47 -1.12    -0.776 OA
DOCKED: ATOM     44  H   UNL d   1       6.607 -19.498  12.540 +0.05 +0.14    +0.167 HD
DOCKED: ENDBRANCH  41  43
DOCKED: ENDBRANCH  40  41
DOCKED: ENDBRANCH  39  40
DOCKED: ENDBRANCH  22  39
DOCKED: BRANCH  12  45
DOCKED: ATOM     45  C   UNL d   1       7.543 -14.604  24.201 -0.30 +0.00    +0.004 C 
DOCKED: ATOM     46  C   UNL d   1       8.333 -15.419  24.895 -0.35 +0.00    +0.012 C 
DOCKED: ENDBRANCH  12  45
DOCKED: BRANCH  17  47
DOCKED: ATOM     47  C   UNL d   1       4.713 -21.065  20.836 -0.06 +0.00    +0.004 C 
DOCKED: ATOM     48  C   UNL d   1       3.455 -21.471  20.650 -0.07 +0.00    +0.012 C 
DOCKED: ENDBRANCH  17  47
DOCKED: TORSDOF 12
DOCKED: TER
DOCKED: ENDMDL
________________________________________________________________________________


	BEGINNING GENETIC ALGORITHM DOCKING 97 of 100
Run: 97 Seed: 577592643 422052684 [ Run 97 of 100 GA/GALS ]
Beginning LAMARCKIAN GENETIC ALGORITHM (LGA), with a maximum of 25000000 energy evaluations.

Final-Value: -13.673


	FINAL GENETIC ALGORITHM DOCKED STATE
	_______________________________________________


Detailed state:  trans 8.304 14.707 33.574 quatxyzw 0.752563 -0.436518 -0.455031 -0.189862 center 8.781 34.984 -0.736 ntor 12 120.0940 88.3956 -139.3487 9.6692 97.3921 83.4692 -163.0543 105.6885 -54.7087 152.1601 166.3198 176.8816
State:	  8.304  14.707  33.574   0.767 -0.445 -0.463 -158.111    120.09   88.40 -139.35    9.67   97.39   83.47 -163.05  105.69  -54.71  152.16  166.32  176.88

DOCKED: MODEL       97
DOCKED: USER    Run = 97
DOCKED: USER    DPF = D:/Protein_go_brrr/autodock/final/1A3N/heme_Co/dock.dpf
DOCKED: USER  
DOCKED: USER    Estimated Free Energy of Binding    =   -8.01 kcal/mol  [=(1)+(2)+(3)-(4)]
DOCKED: USER    Estimated Inhibition Constant, Ki   =    1.35 uM (micromolar)  [Temperature = 298.15 K]
DOCKED: USER    
DOCKED: USER    (1) Final Intermolecular Energy     =  -11.59 kcal/mol
DOCKED: USER        vdW + Hbond + desolv Energy     =   -9.13 kcal/mol
DOCKED: USER        Electrostatic Energy            =   -2.46 kcal/mol
DOCKED: USER    (2) Final Total Internal Energy     =   -2.08 kcal/mol
DOCKED: USER    (3) Torsional Free Energy           =   +3.58 kcal/mol
DOCKED: USER    (4) Unbound System's Energy  [=(2)] =   -2.08 kcal/mol
DOCKED: USER    
DOCKED: USER    
DOCKED: USER    NEWDPF move heme_Co_opt.pdbqt
DOCKED: USER    NEWDPF about 8.781000 34.984000 -0.736000
DOCKED: USER    NEWDPF tran0 8.304129 14.706981 33.574326
DOCKED: USER    NEWDPF quaternion0 0.752563 -0.436518 -0.455031 -0.189862
DOCKED: USER    NEWDPF axisangle0 0.766505 -0.444605 -0.463461 -158.110505
DOCKED: USER    NEWDPF quat0 0.766505 -0.444605 -0.463461 -158.110505
DOCKED: USER    NEWDPF dihe0 120.09 88.40 -139.35 9.67 97.39 83.47 -163.05 105.69 -54.71 152.16 166.32 176.88 
DOCKED: USER  keepresnum = 1 
DOCKED: USER  
DOCKED: REMARK  12 active torsions:
DOCKED: REMARK  status: ('A' for Active; 'I' for Inactive)
DOCKED: REMARK    1  A    between atoms: C_6  and  C_10 
DOCKED: REMARK    2  A    between atoms: C_10  and  C_11 
DOCKED: REMARK    3  A    between atoms: C_11  and  C_12 
DOCKED: REMARK    4  A    between atoms: C_12  and  O_14 
DOCKED: REMARK    5  A    between atoms: C_17  and  C_20 
DOCKED: REMARK    6  A    between atoms: C_24  and  C_27 
DOCKED: REMARK    7  A    between atoms: C_31  and  C_34 
DOCKED: REMARK    8  A    between atoms: C_34  and  C_35 
DOCKED: REMARK    9  A    between atoms: C_35  and  C_36 
DOCKED: REMARK   10  A    between atoms: C_36  and  O_38 
DOCKED: REMARK   11  A    between atoms: FE_43  and  C_44 
DOCKED: REMARK   12  A    between atoms: C_44  and  O_45 
DOCKED: USER                              x       y       z     vdW  Elec       q    Type
DOCKED: USER                           _______ _______ _______ _____ _____    ______ ____
DOCKED: ROOT
DOCKED: ATOM      1  C   UNL d   1       8.389  15.945  35.356 -0.10 +0.06    +0.064 A 
DOCKED: ATOM      2  C   UNL d   1       6.758  16.771  30.967 -0.31 +0.02    +0.064 C 
DOCKED: ATOM      3  C   UNL d   1       8.342  12.497  29.533 -0.24 +0.01    +0.064 A 
DOCKED: ATOM      4  C   UNL d   1       9.671  11.473  34.099 -0.17 +0.05    +0.064 A 
DOCKED: ATOM      5  C   UNL d   1       7.860  16.499  34.254 -0.14 +0.06    +0.066 A 
DOCKED: ATOM      6  C   UNL d   1       7.215  17.752  34.282 -0.13 -0.02    -0.021 A 
DOCKED: ATOM      7  C   UNL d   1       6.724  17.976  33.011 -0.15 -0.01    -0.025 A 
DOCKED: ATOM      8  C   UNL d   1       7.103  16.860  32.258 -0.22 +0.04    +0.066 A 
DOCKED: ATOM      9  C   UNL d   1       5.925  19.189  32.510 -0.18 +0.02    +0.051 C 
DOCKED: ATOM     10  C   UNL d   1       7.126  15.675  30.107 -0.32 +0.02    +0.066 A 
DOCKED: ATOM     11  C   UNL d   1       6.916  15.588  28.713 -0.41 -0.00    -0.021 A 
DOCKED: ATOM     12  C   UNL d   1       7.390  14.334  28.320 -0.37 +0.00    +0.000 A 
DOCKED: ATOM     13  C   UNL d   1       7.865  13.754  29.497 -0.28 +0.02    +0.070 A 
DOCKED: ATOM     14  C   UNL d   1       6.384  16.681  27.822 -0.36 +0.01    +0.052 C 
DOCKED: ATOM     15  C   UNL d   1       8.821  11.728  30.664 -0.24 +0.02    +0.066 A 
DOCKED: ATOM     16  C   UNL d   1       9.165  10.383  30.658 -0.37 -0.01    -0.021 A 
DOCKED: ATOM     17  C   UNL d   1       9.546  10.082  31.974 -0.35 +0.00    +0.000 A 
DOCKED: ATOM     18  C   UNL d   1       9.422  11.276  32.677 -0.19 +0.04    +0.070 A 
DOCKED: ATOM     19  C   UNL d   1       9.118   9.471  29.453 -0.46 +0.01    +0.052 C 
DOCKED: ATOM     20  C   UNL d   1       9.474  12.602  34.822 -0.15 +0.05    +0.066 A 
DOCKED: ATOM     21  C   UNL d   1       9.716  12.658  36.193 -0.12 -0.02    -0.025 A 
DOCKED: ATOM     22  C   UNL d   1       9.383  13.944  36.578 -0.06 -0.02    -0.021 A 
DOCKED: ATOM     23  C   UNL d   1       8.939  14.610  35.415 -0.10 +0.05    +0.066 A 
DOCKED: ATOM     24  C   UNL d   1      10.221  11.537  37.097 -0.16 +0.05    +0.051 C 
DOCKED: ATOM     25  N   UNL d   1       7.813  15.932  33.000 -0.13 -0.17    -0.248 N 
DOCKED: ATOM     26  N   UNL d   1       7.756  14.588  30.566 -0.19 -0.08    -0.248 N 
DOCKED: ATOM     27  N   UNL d   1       8.959  12.226  31.872 -0.18 -0.11    -0.248 N 
DOCKED: ATOM     28  N   UNL d   1       8.991  13.800  34.351 -0.08 -0.18    -0.248 N 
DOCKED: ATOM     29 FE   UNL d   1       8.422  13.969  32.406 -0.05 +0.00    +0.000 Fe
DOCKED: ENDROOT
DOCKED: BRANCH   6  30
DOCKED: ATOM     30  C   UNL d   1       7.016  18.644  35.503 -0.10 +0.03    +0.052 C 
DOCKED: BRANCH  30  31
DOCKED: ATOM     31  C   UNL d   1       5.545  18.666  35.918 -0.09 +0.09    +0.115 C 
DOCKED: BRANCH  31  32
DOCKED: ATOM     32  C   UNL d   1       5.345  18.235  37.355 -0.07 +0.12    +0.139 C 
DOCKED: ATOM     33  O   UNL d   1       5.765  18.942  38.258 +0.00 -0.30    -0.650 OA
DOCKED: BRANCH  32  34
DOCKED: ATOM     34  O   UNL d   1       4.668  17.109  37.679 +0.03 -1.08    -0.776 OA
DOCKED: ATOM     35  H   UNL d   1       5.063  16.345  38.121 +0.00 +0.26    +0.167 HD
DOCKED: ENDBRANCH  32  34
DOCKED: ENDBRANCH  31  32
DOCKED: ENDBRANCH  30  31
DOCKED: ENDBRANCH   6  30
DOCKED: BRANCH  29  36
DOCKED: ATOM     36  C   UNL d   1       6.482  13.342  32.895 -0.12 +0.14    +0.190 C 
DOCKED: BRANCH  36  37
DOCKED: ATOM     37  O   UNL d   1       5.625  13.109  33.976 -0.67 -0.61    -0.399 OA
DOCKED: ATOM     38  H   UNL d   1       6.230  12.925  34.748 +0.08 +0.32    +0.209 HD
DOCKED: ENDBRANCH  36  37
DOCKED: ENDBRANCH  29  36
DOCKED: BRANCH  22  39
DOCKED: ATOM     39  C   UNL d   1       9.429  14.477  37.997 -0.02 +0.03    +0.052 C 
DOCKED: BRANCH  39  40
DOCKED: ATOM     40  C   UNL d   1       8.164  14.071  38.771 -0.01 +0.07    +0.115 C 
DOCKED: BRANCH  40  41
DOCKED: ATOM     41  C   UNL d   1       6.911  13.996  37.924 -0.04 +0.14    +0.139 C 
DOCKED: ATOM     42  O   UNL d   1       5.985  14.762  38.156 -0.16 -0.97    -0.650 OA
DOCKED: BRANCH  41  43
DOCKED: ATOM     43  O   UNL d   1       6.820  13.166  36.862 +0.06 -0.92    -0.776 OA
DOCKED: ATOM     44  H   UNL d   1       6.482  13.455  36.004 +0.04 +0.31    +0.167 HD
DOCKED: ENDBRANCH  41  43
DOCKED: ENDBRANCH  40  41
DOCKED: ENDBRANCH  39  40
DOCKED: ENDBRANCH  22  39
DOCKED: BRANCH  12  45
DOCKED: ATOM     45  C   UNL d   1       7.467  13.627  26.974 -0.38 +0.00    +0.004 C 
DOCKED: ATOM     46  C   UNL d   1       7.108  14.036  25.760 -0.46 +0.00    +0.012 C 
DOCKED: ENDBRANCH  12  45
DOCKED: BRANCH  17  47
DOCKED: ATOM     47  C   UNL d   1       9.953   8.777  32.574 -0.51 +0.00    +0.004 C 
DOCKED: ATOM     48  C   UNL d   1      11.150   8.217  32.379 -0.52 +0.01    +0.012 C 
DOCKED: ENDBRANCH  17  47
DOCKED: TORSDOF 12
DOCKED: TER
DOCKED: ENDMDL
________________________________________________________________________________


	BEGINNING GENETIC ALGORITHM DOCKING 98 of 100
Run: 98 Seed: 1467404563 1386016135 [ Run 98 of 100 GA/GALS ]
Beginning LAMARCKIAN GENETIC ALGORITHM (LGA), with a maximum of 25000000 energy evaluations.

Final-Value: -12.613


	FINAL GENETIC ALGORITHM DOCKED STATE
	_______________________________________________


Detailed state:  trans 14.645 -13.715 13.300 quatxyzw -0.881465 0.283458 -0.274170 0.259812 center 8.781 34.984 -0.736 ntor 12 -137.4337 120.2607 -101.7776 -114.2742 78.5773 89.2310 -79.9324 115.3871 -62.8082 97.5306 172.1390 -163.4535
State:	 14.645 -13.715  13.300  -0.913  0.294 -0.284 149.882   -137.43  120.26 -101.78 -114.27   78.58   89.23  -79.93  115.39  -62.81   97.53  172.14 -163.45

DOCKED: MODEL       98
DOCKED: USER    Run = 98
DOCKED: USER    DPF = D:/Protein_go_brrr/autodock/final/1A3N/heme_Co/dock.dpf
DOCKED: USER  
DOCKED: USER    Estimated Free Energy of Binding    =   -6.84 kcal/mol  [=(1)+(2)+(3)-(4)]
DOCKED: USER    Estimated Inhibition Constant, Ki   =    9.76 uM (micromolar)  [Temperature = 298.15 K]
DOCKED: USER    
DOCKED: USER    (1) Final Intermolecular Energy     =  -10.42 kcal/mol
DOCKED: USER        vdW + Hbond + desolv Energy     =   -6.95 kcal/mol
DOCKED: USER        Electrostatic Energy            =   -3.47 kcal/mol
DOCKED: USER    (2) Final Total Internal Energy     =   -2.20 kcal/mol
DOCKED: USER    (3) Torsional Free Energy           =   +3.58 kcal/mol
DOCKED: USER    (4) Unbound System's Energy  [=(2)] =   -2.20 kcal/mol
DOCKED: USER    
DOCKED: USER    
DOCKED: USER    NEWDPF move heme_Co_opt.pdbqt
DOCKED: USER    NEWDPF about 8.781000 34.984000 -0.736000
DOCKED: USER    NEWDPF tran0 14.645103 -13.714750 13.299848
DOCKED: USER    NEWDPF quaternion0 -0.881465 0.283458 -0.274170 0.259812
DOCKED: USER    NEWDPF axisangle0 -0.912811 0.293538 -0.283920 149.882218
DOCKED: USER    NEWDPF quat0 -0.912811 0.293538 -0.283920 149.882218
DOCKED: USER    NEWDPF dihe0 -137.43 120.26 -101.78 -114.27 78.58 89.23 -79.93 115.39 -62.81 97.53 172.14 -163.45 
DOCKED: USER  keepresnum = 1 
DOCKED: USER  
DOCKED: REMARK  12 active torsions:
DOCKED: REMARK  status: ('A' for Active; 'I' for Inactive)
DOCKED: REMARK    1  A    between atoms: C_6  and  C_10 
DOCKED: REMARK    2  A    between atoms: C_10  and  C_11 
DOCKED: REMARK    3  A    between atoms: C_11  and  C_12 
DOCKED: REMARK    4  A    between atoms: C_12  and  O_14 
DOCKED: REMARK    5  A    between atoms: C_17  and  C_20 
DOCKED: REMARK    6  A    between atoms: C_24  and  C_27 
DOCKED: REMARK    7  A    between atoms: C_31  and  C_34 
DOCKED: REMARK    8  A    between atoms: C_34  and  C_35 
DOCKED: REMARK    9  A    between atoms: C_35  and  C_36 
DOCKED: REMARK   10  A    between atoms: C_36  and  O_38 
DOCKED: REMARK   11  A    between atoms: FE_43  and  C_44 
DOCKED: REMARK   12  A    between atoms: C_44  and  O_45 
DOCKED: USER                              x       y       z     vdW  Elec       q    Type
DOCKED: USER                           _______ _______ _______ _____ _____    ______ ____
DOCKED: ROOT
DOCKED: ATOM      1  C   UNL d   1      12.706 -12.853  12.838 -0.04 +0.03    +0.064 A 
DOCKED: ATOM      2  C   UNL d   1      16.537 -13.721  10.158 -0.06 +0.01    +0.064 C 
DOCKED: ATOM      3  C   UNL d   1      18.971 -15.119  14.024 -0.17 +0.01    +0.064 A 
DOCKED: ATOM      4  C   UNL d   1      14.956 -14.608  16.722 -0.19 +0.05    +0.064 A 
DOCKED: ATOM      5  C   UNL d   1      13.585 -12.953  11.827 -0.04 +0.03    +0.066 A 
DOCKED: ATOM      6  C   UNL d   1      13.221 -12.694  10.492 -0.12 -0.01    -0.021 A 
DOCKED: ATOM      7  C   UNL d   1      14.330 -12.969   9.716 -0.09 -0.01    -0.025 A 
DOCKED: ATOM      8  C   UNL d   1      15.327 -13.369  10.612 -0.03 +0.02    +0.066 A 
DOCKED: ATOM      9  C   UNL d   1      14.460 -12.866   8.188 -0.23 +0.01    +0.051 C 
DOCKED: ATOM     10  C   UNL d   1      17.632 -14.120  11.006 -0.07 +0.01    +0.066 A 
DOCKED: ATOM     11  C   UNL d   1      18.963 -14.366  10.604 -0.17 -0.00    -0.021 A 
DOCKED: ATOM     12  C   UNL d   1      19.652 -14.768  11.752 -0.25 +0.00    +0.000 A 
DOCKED: ATOM     13  C   UNL d   1      18.697 -14.726  12.768 -0.14 +0.01    +0.070 A 
DOCKED: ATOM     14  C   UNL d   1      19.539 -14.133   9.231 -0.21 +0.01    +0.052 C 
DOCKED: ATOM     15  C   UNL d   1      18.096 -15.190  15.178 -0.16 +0.02    +0.066 A 
DOCKED: ATOM     16  C   UNL d   1      18.405 -15.744  16.412 -0.24 -0.01    -0.021 A 
DOCKED: ATOM     17  C   UNL d   1      17.249 -15.601  17.193 -0.31 +0.00    +0.000 A 
DOCKED: ATOM     18  C   UNL d   1      16.329 -14.954  16.375 -0.19 +0.04    +0.070 A 
DOCKED: ATOM     19  C   UNL d   1      19.733 -16.364  16.788 -0.18 +0.01    +0.052 C 
DOCKED: ATOM     20  C   UNL d   1      14.016 -14.057  15.916 -0.12 +0.05    +0.066 A 
DOCKED: ATOM     21  C   UNL d   1      12.718 -13.805  16.354 -0.11 -0.02    -0.025 A 
DOCKED: ATOM     22  C   UNL d   1      12.054 -13.272  15.264 -0.04 -0.01    -0.021 A 
DOCKED: ATOM     23  C   UNL d   1      12.985 -13.237  14.203 -0.03 +0.04    +0.066 A 
DOCKED: ATOM     24  C   UNL d   1      12.131 -14.076  17.737 -0.14 +0.06    +0.051 C 
DOCKED: ATOM     25  N   UNL d   1      14.895 -13.363  11.927 -0.00 -0.09    -0.248 N 
DOCKED: ATOM     26  N   UNL d   1      17.491 -14.280  12.326 -0.03 -0.06    -0.248 N 
DOCKED: ATOM     27  N   UNL d   1      16.857 -14.752  15.173 -0.08 -0.10    -0.248 N 
DOCKED: ATOM     28  N   UNL d   1      14.173 -13.714  14.594 -0.03 -0.13    -0.248 N 
DOCKED: ATOM     29 FE   UNL d   1      15.932 -14.098  13.649 -0.02 +0.00    +0.000 Fe
DOCKED: ENDROOT
DOCKED: BRANCH   6  30
DOCKED: ATOM     30  C   UNL d   1      11.842 -12.280   9.989 -0.30 +0.03    +0.052 C 
DOCKED: BRANCH  30  31
DOCKED: ATOM     31  C   UNL d   1      11.132 -13.464   9.332 -0.30 +0.08    +0.115 C 
DOCKED: BRANCH  31  32
DOCKED: ATOM     32  C   UNL d   1       9.888 -13.882  10.085 -0.29 +0.19    +0.139 C 
DOCKED: ATOM     33  O   UNL d   1       8.957 -14.387   9.476 -0.34 -1.13    -0.650 OA
DOCKED: BRANCH  32  34
DOCKED: ATOM     34  O   UNL d   1       9.789 -13.760  11.430 +0.02 -1.20    -0.776 OA
DOCKED: ATOM     35  H   UNL d   1       9.357 -14.408  12.004 +0.06 +0.40    +0.167 HD
DOCKED: ENDBRANCH  32  34
DOCKED: ENDBRANCH  31  32
DOCKED: ENDBRANCH  30  31
DOCKED: ENDBRANCH   6  30
DOCKED: BRANCH  29  36
DOCKED: ATOM     36  C   UNL d   1      15.250 -16.004  13.105 -0.01 +0.08    +0.190 C 
DOCKED: BRANCH  36  37
DOCKED: ATOM     37  O   UNL d   1      14.092 -16.775  12.965 +0.00 -0.22    -0.399 OA
DOCKED: ATOM     38  H   UNL d   1      13.339 -16.136  13.110 +0.04 +0.14    +0.209 HD
DOCKED: ENDBRANCH  36  37
DOCKED: ENDBRANCH  29  36
DOCKED: BRANCH  22  39
DOCKED: ATOM     39  C   UNL d   1      10.588 -12.881  15.231 -0.04 +0.03    +0.052 C 
DOCKED: BRANCH  39  40
DOCKED: ATOM     40  C   UNL d   1       9.694 -14.107  15.478 -0.03 +0.10    +0.115 C 
DOCKED: BRANCH  40  41
DOCKED: ATOM     41  C   UNL d   1       9.333 -14.879  14.226 +0.03 +0.19    +0.139 C 
DOCKED: ATOM     42  O   UNL d   1       8.198 -14.797  13.779 -0.22 -1.04    -0.650 OA
DOCKED: BRANCH  41  43
DOCKED: ATOM     43  O   UNL d   1      10.255 -15.589  13.539 -0.30 -1.38    -0.776 OA
DOCKED: ATOM     44  H   UNL d   1      10.722 -15.230  12.774 +0.03 +0.28    +0.167 HD
DOCKED: ENDBRANCH  41  43
DOCKED: ENDBRANCH  40  41
DOCKED: ENDBRANCH  39  40
DOCKED: ENDBRANCH  22  39
DOCKED: BRANCH  12  45
DOCKED: ATOM     45  C   UNL d   1      21.099 -15.167  12.008 -0.40 +0.00    +0.004 C 
DOCKED: ATOM     46  C   UNL d   1      21.613 -16.285  12.515 -0.46 +0.00    +0.012 C 
DOCKED: ENDBRANCH  12  45
DOCKED: BRANCH  17  47
DOCKED: ATOM     47  C   UNL d   1      16.974 -16.068  18.584 -0.50 +0.00    +0.004 C 
DOCKED: ATOM     48  C   UNL d   1      17.720 -15.727  19.638 -0.44 +0.00    +0.012 C 
DOCKED: ENDBRANCH  17  47
DOCKED: TORSDOF 12
DOCKED: TER
DOCKED: ENDMDL
________________________________________________________________________________


	BEGINNING GENETIC ALGORITHM DOCKING 99 of 100
Run: 99 Seed: 147423066 1590827655 [ Run 99 of 100 GA/GALS ]
Beginning LAMARCKIAN GENETIC ALGORITHM (LGA), with a maximum of 25000000 energy evaluations.

Final-Value: -12.805


	FINAL GENETIC ALGORITHM DOCKED STATE
	_______________________________________________


Detailed state:  trans 0.699 -6.066 -10.164 quatxyzw 0.668339 -0.165944 0.647867 0.325660 center 8.781 34.984 -0.736 ntor 12 71.0091 152.4817 23.3853 65.7089 83.2568 35.6034 -150.2586 157.2809 -24.4098 161.2071 -1.8975 20.0576
State:	  0.699  -6.066 -10.164   0.707 -0.176  0.685 141.989     71.01  152.48   23.39   65.71   83.26   35.60 -150.26  157.28  -24.41  161.21   -1.90   20.06

DOCKED: MODEL       99
DOCKED: USER    Run = 99
DOCKED: USER    DPF = D:/Protein_go_brrr/autodock/final/1A3N/heme_Co/dock.dpf
DOCKED: USER  
DOCKED: USER    Estimated Free Energy of Binding    =   -8.44 kcal/mol  [=(1)+(2)+(3)-(4)]
DOCKED: USER    Estimated Inhibition Constant, Ki   =  650.25 nM (nanomolar)  [Temperature = 298.15 K]
DOCKED: USER    
DOCKED: USER    (1) Final Intermolecular Energy     =  -12.02 kcal/mol
DOCKED: USER        vdW + Hbond + desolv Energy     =   -8.89 kcal/mol
DOCKED: USER        Electrostatic Energy            =   -3.13 kcal/mol
DOCKED: USER    (2) Final Total Internal Energy     =   -0.79 kcal/mol
DOCKED: USER    (3) Torsional Free Energy           =   +3.58 kcal/mol
DOCKED: USER    (4) Unbound System's Energy  [=(2)] =   -0.79 kcal/mol
DOCKED: USER    
DOCKED: USER    
DOCKED: USER    NEWDPF move heme_Co_opt.pdbqt
DOCKED: USER    NEWDPF about 8.781000 34.984000 -0.736000
DOCKED: USER    NEWDPF tran0 0.699023 -6.065592 -10.164158
DOCKED: USER    NEWDPF quaternion0 0.668339 -0.165944 0.647867 0.325660
DOCKED: USER    NEWDPF axisangle0 0.706873 -0.175511 0.685220 141.988828
DOCKED: USER    NEWDPF quat0 0.706873 -0.175511 0.685220 141.988828
DOCKED: USER    NEWDPF dihe0 71.01 152.48 23.39 65.71 83.26 35.60 -150.26 157.28 -24.41 161.21 -1.90 20.06 
DOCKED: USER  keepresnum = 1 
DOCKED: USER  
DOCKED: REMARK  12 active torsions:
DOCKED: REMARK  status: ('A' for Active; 'I' for Inactive)
DOCKED: REMARK    1  A    between atoms: C_6  and  C_10 
DOCKED: REMARK    2  A    between atoms: C_10  and  C_11 
DOCKED: REMARK    3  A    between atoms: C_11  and  C_12 
DOCKED: REMARK    4  A    between atoms: C_12  and  O_14 
DOCKED: REMARK    5  A    between atoms: C_17  and  C_20 
DOCKED: REMARK    6  A    between atoms: C_24  and  C_27 
DOCKED: REMARK    7  A    between atoms: C_31  and  C_34 
DOCKED: REMARK    8  A    between atoms: C_34  and  C_35 
DOCKED: REMARK    9  A    between atoms: C_35  and  C_36 
DOCKED: REMARK   10  A    between atoms: C_36  and  O_38 
DOCKED: REMARK   11  A    between atoms: FE_43  and  C_44 
DOCKED: REMARK   12  A    between atoms: C_44  and  O_45 
DOCKED: USER                              x       y       z     vdW  Elec       q    Type
DOCKED: USER                           _______ _______ _______ _____ _____    ______ ____
DOCKED: ROOT
DOCKED: ATOM      1  C   UNL d   1      -0.233  -5.373 -11.999 -0.10 +0.05    +0.064 A 
DOCKED: ATOM      2  C   UNL d   1       3.005  -3.411  -9.122 -0.35 +0.01    +0.064 C 
DOCKED: ATOM      3  C   UNL d   1       2.552  -7.055  -6.065 -0.26 +0.01    +0.064 A 
DOCKED: ATOM      4  C   UNL d   1      -0.470  -9.267  -9.170 -0.11 +0.04    +0.064 A 
DOCKED: ATOM      5  C   UNL d   1       0.658  -4.551 -11.420 -0.15 +0.04    +0.066 A 
DOCKED: ATOM      6  C   UNL d   1       1.118  -3.381 -12.055 -0.15 -0.01    -0.021 A 
DOCKED: ATOM      7  C   UNL d   1       2.074  -2.828 -11.226 -0.12 -0.01    -0.025 A 
DOCKED: ATOM      8  C   UNL d   1       2.145  -3.675 -10.114 -0.23 +0.02    +0.066 A 
DOCKED: ATOM      9  C   UNL d   1       2.899  -1.552 -11.458 -0.31 +0.01    +0.051 C 
DOCKED: ATOM     10  C   UNL d   1       3.130  -4.210  -7.929 -0.32 +0.01    +0.066 A 
DOCKED: ATOM     11  C   UNL d   1       3.911  -3.911  -6.791 -0.41 -0.00    -0.021 A 
DOCKED: ATOM     12  C   UNL d   1       3.757  -4.988  -5.914 -0.40 +0.00    +0.000 A 
DOCKED: ATOM     13  C   UNL d   1       2.886  -5.856  -6.574 -0.26 +0.02    +0.070 A 
DOCKED: ATOM     14  C   UNL d   1       4.668  -2.632  -6.540 -0.41 +0.00    +0.052 C 
DOCKED: ATOM     15  C   UNL d   1       1.713  -8.092  -6.632 -0.27 +0.02    +0.066 A 
DOCKED: ATOM     16  C   UNL d   1       1.523  -9.369  -6.121 -0.29 -0.00    -0.021 A 
DOCKED: ATOM     17  C   UNL d   1       0.655 -10.011  -7.014 -0.21 +0.00    +0.000 A 
DOCKED: ATOM     18  C   UNL d   1       0.368  -9.067  -7.994 -0.18 +0.03    +0.070 A 
DOCKED: ATOM     19  C   UNL d   1       2.151  -9.908  -4.855 -0.23 +0.01    +0.052 C 
DOCKED: ATOM     20  C   UNL d   1      -0.695  -8.393 -10.180 -0.06 +0.06    +0.066 A 
DOCKED: ATOM     21  C   UNL d   1      -1.492  -8.713 -11.277 -0.07 -0.02    -0.025 A 
DOCKED: ATOM     22  C   UNL d   1      -1.466  -7.599 -12.095 -0.07 -0.02    -0.021 A 
DOCKED: ATOM     23  C   UNL d   1      -0.637  -6.651 -11.458 -0.05 +0.07    +0.066 A 
DOCKED: ATOM     24  C   UNL d   1      -2.228 -10.024 -11.542 -0.05 +0.02    +0.051 C 
DOCKED: ATOM     25  N   UNL d   1       1.275  -4.747 -10.205 -0.14 -0.16    -0.248 N 
DOCKED: ATOM     26  N   UNL d   1       2.464  -5.358  -7.767 -0.15 -0.08    -0.248 N 
DOCKED: ATOM     27  N   UNL d   1       1.039  -7.947  -7.751 -0.16 -0.13    -0.248 N 
DOCKED: ATOM     28  N   UNL d   1      -0.166  -7.128 -10.300 -0.02 -0.33    -0.248 N 
DOCKED: ATOM     29 FE   UNL d   1       1.147  -6.443  -8.907 -0.05 +0.00    +0.000 Fe
DOCKED: ENDROOT
DOCKED: BRANCH   6  30
DOCKED: ATOM     30  C   UNL d   1       0.709  -2.873 -13.433 -0.19 +0.02    +0.052 C 
DOCKED: BRANCH  30  31
DOCKED: ATOM     31  C   UNL d   1      -0.612  -2.107 -13.353 -0.25 +0.07    +0.115 C 
DOCKED: BRANCH  31  32
DOCKED: ATOM     32  C   UNL d   1      -0.752  -1.081 -14.457 -0.31 +0.12    +0.139 C 
DOCKED: ATOM     33  O   UNL d   1      -1.099  -1.441 -15.571 -0.22 -0.67    -0.650 OA
DOCKED: BRANCH  32  34
DOCKED: ATOM     34  O   UNL d   1      -0.550   0.240 -14.239 +0.02 -0.83    -0.776 OA
DOCKED: ATOM     35  H   UNL d   1       0.306   0.629 -14.015 -0.47 +0.05    +0.167 HD
DOCKED: ENDBRANCH  32  34
DOCKED: ENDBRANCH  31  32
DOCKED: ENDBRANCH  30  31
DOCKED: ENDBRANCH   6  30
DOCKED: BRANCH  29  36
DOCKED: ATOM     36  C   UNL d   1       2.751  -7.250  -9.989 -0.10 +0.06    +0.190 C 
DOCKED: BRANCH  36  37
DOCKED: ATOM     37  O   UNL d   1       3.121  -8.335 -10.790 -0.04 -0.09    -0.399 OA
DOCKED: ATOM     38  H   UNL d   1       2.322  -8.517 -11.360 +0.03 +0.05    +0.209 HD
DOCKED: ENDBRANCH  36  37
DOCKED: ENDBRANCH  29  36
DOCKED: BRANCH  22  39
DOCKED: ATOM     39  C   UNL d   1      -2.149  -7.482 -13.445 -0.03 +0.02    +0.052 C 
DOCKED: BRANCH  39  40
DOCKED: ATOM     40  C   UNL d   1      -3.143  -6.310 -13.451 -0.04 +0.06    +0.115 C 
DOCKED: BRANCH  40  41
DOCKED: ATOM     41  C   UNL d   1      -3.662  -5.924 -12.082 -0.08 +0.15    +0.139 C 
DOCKED: ATOM     42  O   UNL d   1      -4.344  -6.721 -11.454 -0.08 -0.70    -0.650 OA
DOCKED: BRANCH  41  43
DOCKED: ATOM     43  O   UNL d   1      -3.320  -4.754 -11.497 -0.35 -1.30    -0.776 OA
DOCKED: ATOM     44  H   UNL d   1      -3.113  -3.960 -12.005 +0.06 +0.17    +0.167 HD
DOCKED: ENDBRANCH  41  43
DOCKED: ENDBRANCH  40  41
DOCKED: ENDBRANCH  39  40
DOCKED: ENDBRANCH  22  39
DOCKED: BRANCH  12  45
DOCKED: ATOM     45  C   UNL d   1       4.313  -5.286  -4.528 -0.43 +0.00    +0.004 C 
DOCKED: ATOM     46  C   UNL d   1       4.228  -4.597  -3.394 -0.48 +0.00    +0.012 C 
DOCKED: ENDBRANCH  12  45
DOCKED: BRANCH  17  47
DOCKED: ATOM     47  C   UNL d   1       0.151 -11.417  -7.010 -0.18 +0.00    +0.004 C 
DOCKED: ATOM     48  C   UNL d   1      -0.588 -11.933  -6.025 -0.19 +0.00    +0.012 C 
DOCKED: ENDBRANCH  17  47
DOCKED: TORSDOF 12
DOCKED: TER
DOCKED: ENDMDL
________________________________________________________________________________


	BEGINNING GENETIC ALGORITHM DOCKING 100 of 100
Run: 100 Seed: 4577300 1848272655 [ Run 100 of 100 GA/GALS ]
Beginning LAMARCKIAN GENETIC ALGORITHM (LGA), with a maximum of 25000000 energy evaluations.

Final-Value: -10.593


	FINAL GENETIC ALGORITHM DOCKED STATE
	_______________________________________________


Detailed state:  trans 24.103 -13.961 35.742 quatxyzw -0.724748 -0.105024 0.387776 0.559768 center 8.781 34.984 -0.736 ntor 12 156.5494 129.0185 9.6467 135.8654 118.3507 131.5333 -137.9516 131.8420 -135.7798 106.0600 -175.8342 22.3398
State:	 24.103 -13.961  35.742  -0.875 -0.127  0.468 111.921    156.55  129.02    9.65  135.87  118.35  131.53 -137.95  131.84 -135.78  106.06 -175.83   22.34

DOCKED: MODEL      100
DOCKED: USER    Run = 100
DOCKED: USER    DPF = D:/Protein_go_brrr/autodock/final/1A3N/heme_Co/dock.dpf
DOCKED: USER  
DOCKED: USER    Estimated Free Energy of Binding    =   -4.74 kcal/mol  [=(1)+(2)+(3)-(4)]
DOCKED: USER    Estimated Inhibition Constant, Ki   =  332.89 uM (micromolar)  [Temperature = 298.15 K]
DOCKED: USER    
DOCKED: USER    (1) Final Intermolecular Energy     =   -8.32 kcal/mol
DOCKED: USER        vdW + Hbond + desolv Energy     =   -6.58 kcal/mol
DOCKED: USER        Electrostatic Energy            =   -1.74 kcal/mol
DOCKED: USER    (2) Final Total Internal Energy     =   -2.27 kcal/mol
DOCKED: USER    (3) Torsional Free Energy           =   +3.58 kcal/mol
DOCKED: USER    (4) Unbound System's Energy  [=(2)] =   -2.27 kcal/mol
DOCKED: USER    
DOCKED: USER    
DOCKED: USER    NEWDPF move heme_Co_opt.pdbqt
DOCKED: USER    NEWDPF about 8.781000 34.984000 -0.736000
DOCKED: USER    NEWDPF tran0 24.102901 -13.961087 35.742399
DOCKED: USER    NEWDPF quaternion0 -0.724748 -0.105024 0.387776 0.559768
DOCKED: USER    NEWDPF axisangle0 -0.874613 -0.126741 0.467962 111.920507
DOCKED: USER    NEWDPF quat0 -0.874613 -0.126741 0.467962 111.920507
DOCKED: USER    NEWDPF dihe0 156.55 129.02 9.65 135.87 118.35 131.53 -137.95 131.84 -135.78 106.06 -175.83 22.34 
DOCKED: USER  keepresnum = 1 
DOCKED: USER  
DOCKED: REMARK  12 active torsions:
DOCKED: REMARK  status: ('A' for Active; 'I' for Inactive)
DOCKED: REMARK    1  A    between atoms: C_6  and  C_10 
DOCKED: REMARK    2  A    between atoms: C_10  and  C_11 
DOCKED: REMARK    3  A    between atoms: C_11  and  C_12 
DOCKED: REMARK    4  A    between atoms: C_12  and  O_14 
DOCKED: REMARK    5  A    between atoms: C_17  and  C_20 
DOCKED: REMARK    6  A    between atoms: C_24  and  C_27 
DOCKED: REMARK    7  A    between atoms: C_31  and  C_34 
DOCKED: REMARK    8  A    between atoms: C_34  and  C_35 
DOCKED: REMARK    9  A    between atoms: C_35  and  C_36 
DOCKED: REMARK   10  A    between atoms: C_36  and  O_38 
DOCKED: REMARK   11  A    between atoms: FE_43  and  C_44 
DOCKED: REMARK   12  A    between atoms: C_44  and  O_45 
DOCKED: USER                              x       y       z     vdW  Elec       q    Type
DOCKED: USER                           _______ _______ _______ _____ _____    ______ ____
DOCKED: ROOT
DOCKED: ATOM      1  C   UNL d   1      23.463 -12.832  37.483 -0.07 +0.01    +0.064 A 
DOCKED: ATOM      2  C   UNL d   1      21.096 -15.587  34.415 -0.29 +0.00    +0.064 C 
DOCKED: ATOM      3  C   UNL d   1      25.051 -16.125  31.789 -0.17 -0.01    +0.064 A 
DOCKED: ATOM      4  C   UNL d   1      27.581 -13.633  35.113 -0.10 +0.01    +0.064 A 
DOCKED: ATOM      5  C   UNL d   1      22.517 -13.515  36.818 -0.11 +0.01    +0.066 A 
DOCKED: ATOM      6  C   UNL d   1      21.208 -13.658  37.318 -0.14 -0.00    -0.021 A 
DOCKED: ATOM      7  C   UNL d   1      20.532 -14.477  36.435 -0.21 -0.00    -0.025 A 
DOCKED: ATOM      8  C   UNL d   1      21.451 -14.786  35.427 -0.19 +0.00    +0.066 A 
DOCKED: ATOM      9  C   UNL d   1      19.076 -14.960  36.524 -0.17 +0.00    +0.051 C 
DOCKED: ATOM     10  C   UNL d   1      21.965 -15.939  33.320 -0.15 +0.00    +0.066 A 
DOCKED: ATOM     11  C   UNL d   1      21.610 -16.659  32.159 -0.30 -0.00    -0.021 A 
DOCKED: ATOM     12  C   UNL d   1      22.781 -16.798  31.409 -0.27 -0.00    +0.000 A 
DOCKED: ATOM     13  C   UNL d   1      23.758 -16.144  32.159 -0.15 -0.00    +0.070 A 
DOCKED: ATOM     14  C   UNL d   1      20.220 -17.091  31.767 -0.37 +0.01    +0.052 C 
DOCKED: ATOM     15  C   UNL d   1      26.194 -15.545  32.466 -0.14 -0.01    +0.066 A 
DOCKED: ATOM     16  C   UNL d   1      27.525 -15.687  32.102 -0.19 +0.01    -0.021 A 
DOCKED: ATOM     17  C   UNL d   1      28.259 -14.972  33.060 -0.17 -0.00    +0.000 A 
DOCKED: ATOM     18  C   UNL d   1      27.312 -14.435  33.925 -0.10 -0.00    +0.070 A 
DOCKED: ATOM     19  C   UNL d   1      28.030 -16.466  30.908 -0.21 -0.04    +0.052 C 
DOCKED: ATOM     20  C   UNL d   1      26.684 -13.173  36.017 -0.09 +0.01    +0.066 A 
DOCKED: ATOM     21  C   UNL d   1      27.068 -12.443  37.140 -0.10 -0.01    -0.025 A 
DOCKED: ATOM     22  C   UNL d   1      25.898 -12.173  37.827 -0.07 -0.01    -0.021 A 
DOCKED: ATOM     23  C   UNL d   1      24.852 -12.767  37.090 -0.06 +0.01    +0.066 A 
DOCKED: ATOM     24  C   UNL d   1      28.481 -12.038  37.549 -0.09 +0.03    +0.051 C 
DOCKED: ATOM     25  N   UNL d   1      22.688 -14.199  35.636 -0.08 -0.02    -0.248 N 
DOCKED: ATOM     26  N   UNL d   1      23.252 -15.577  33.287 -0.08 -0.00    -0.248 N 
DOCKED: ATOM     27  N   UNL d   1      26.096 -14.822  33.559 -0.07 +0.01    -0.248 N 
DOCKED: ATOM     28  N   UNL d   1      25.324 -13.375  35.995 -0.04 -0.04    -0.248 N 
DOCKED: ATOM     29 FE   UNL d   1      24.494 -14.526  34.538 -0.02 +0.00    +0.000 Fe
DOCKED: ENDROOT
DOCKED: BRANCH   6  30
DOCKED: ATOM     30  C   UNL d   1      20.668 -13.095  38.628 -0.13 +0.00    +0.052 C 
DOCKED: BRANCH  30  31
DOCKED: ATOM     31  C   UNL d   1      20.833 -14.111  39.758 -0.04 +0.01    +0.115 C 
DOCKED: BRANCH  31  32
DOCKED: ATOM     32  C   UNL d   1      22.178 -14.804  39.720 -0.02 +0.01    +0.139 C 
DOCKED: ATOM     33  O   UNL d   1      23.109 -14.345  40.364 +0.00 -0.05    -0.650 OA
DOCKED: BRANCH  32  34
DOCKED: ATOM     34  O   UNL d   1      22.374 -15.951  39.029 +0.01 -0.03    -0.776 OA
DOCKED: ATOM     35  H   UNL d   1      23.224 -16.222  38.656 +0.00 +0.01    +0.167 HD
DOCKED: ENDBRANCH  32  34
DOCKED: ENDBRANCH  31  32
DOCKED: ENDBRANCH  30  31
DOCKED: ENDBRANCH   6  30
DOCKED: BRANCH  29  36
DOCKED: ATOM     36  C   UNL d   1      24.763 -16.244  35.710 -0.03 -0.00    +0.190 C 
DOCKED: BRANCH  36  37
DOCKED: ATOM     37  O   UNL d   1      24.412 -16.823  36.934 -0.00 -0.00    -0.399 OA
DOCKED: ATOM     38  H   UNL d   1      23.634 -16.289  37.257 +0.01 +0.01    +0.209 HD
DOCKED: ENDBRANCH  36  37
DOCKED: ENDBRANCH  29  36
DOCKED: BRANCH  22  39
DOCKED: ATOM     39  C   UNL d   1      25.806 -11.440  39.152 -0.06 +0.02    +0.052 C 
DOCKED: BRANCH  39  40
DOCKED: ATOM     40  C   UNL d   1      24.873 -10.224  39.036 -0.07 +0.06    +0.115 C 
DOCKED: BRANCH  40  41
DOCKED: ATOM     41  C   UNL d   1      25.507  -9.009  38.393 +0.00 +0.16    +0.139 C 
DOCKED: ATOM     42  O   UNL d   1      26.080  -8.189  39.097 -0.33 -1.06    -0.650 OA
DOCKED: BRANCH  41  43
DOCKED: ATOM     43  O   UNL d   1      25.534  -8.848  37.051 -0.38 -0.95    -0.776 OA
DOCKED: ATOM     44  H   UNL d   1      24.971  -9.359  36.456 +0.04 +0.11    +0.167 HD
DOCKED: ENDBRANCH  41  43
DOCKED: ENDBRANCH  40  41
DOCKED: ENDBRANCH  39  40
DOCKED: ENDBRANCH  22  39
DOCKED: BRANCH  12  45
DOCKED: ATOM     45  C   UNL d   1      23.084 -17.453  30.068 -0.33 -0.00    +0.004 C 
DOCKED: ATOM     46  C   UNL d   1      23.687 -16.971  28.984 -0.50 -0.00    +0.012 C 
DOCKED: ENDBRANCH  12  45
DOCKED: BRANCH  17  47
DOCKED: ATOM     47  C   UNL d   1      29.737 -14.825  33.213 -0.21 -0.00    +0.004 C 
DOCKED: ATOM     48  C   UNL d   1      30.426 -13.781  32.746 -0.35 -0.00    +0.012 C 
DOCKED: ENDBRANCH  17  47
DOCKED: TORSDOF 12
DOCKED: TER
DOCKED: ENDMDL
________________________________________________________________________________

DPF> analysis                             # perform a ranked cluster analysis


		CLUSTER ANALYSIS OF CONFORMATIONS
		_________________________________

Number of conformations = 100

RMSD cluster analysis will be performed using the ligand atoms only (48 / 48 total atoms).

Outputting structurally similar clusters, ranked in order of increasing energy.


________________________________________________________________________________

Number of distinct conformational clusters found = 59,  out of 100 runs,
Using an rmsd-tolerance of 2.0 A


	CLUSTERING HISTOGRAM
	____________________

________________________________________________________________________________
     |           |     |           |     |                                    
Clus | Lowest    | Run | Mean      | Num | Histogram                          
-ter | Binding   |     | Binding   | in  |                                    
Rank | Energy    |     | Energy    | Clus|    5    10   15   20   25   30   35
_____|___________|_____|___________|_____|____:____|____:____|____:____|____:___
   1 |    -14.28 |  35 |    -13.80 |   4 |####
   2 |    -14.14 |  57 |    -13.30 |   2 |##
   3 |     -9.48 |  51 |     -8.12 |  17 |#################
   4 |     -9.16 |  22 |     -9.16 |   1 |#
   5 |     -8.51 |  19 |     -8.51 |   1 |#
   6 |     -8.44 |  99 |     -7.51 |   4 |####
   7 |     -8.23 |  69 |     -8.23 |   1 |#
   8 |     -8.21 |  49 |     -8.21 |   1 |#
   9 |     -7.63 |  13 |     -6.83 |   3 |###
  10 |     -7.57 |  47 |     -7.57 |   1 |#
  11 |     -7.42 |  16 |     -6.88 |   2 |##
  12 |     -7.36 |  83 |     -6.75 |   4 |####
  13 |     -7.31 |  63 |     -7.31 |   1 |#
  14 |     -7.26 |  50 |     -7.26 |   1 |#
  15 |     -7.18 |  60 |     -7.18 |   1 |#
  16 |     -7.08 |  36 |     -7.06 |   2 |##
  17 |     -7.06 |  76 |     -6.63 |   7 |#######
  18 |     -7.01 |  55 |     -7.01 |   1 |#
  19 |     -6.84 |  98 |     -6.84 |   1 |#
  20 |     -6.83 |  82 |     -6.83 |   1 |#
  21 |     -6.80 |  31 |     -6.80 |   1 |#
  22 |     -6.76 |  72 |     -6.76 |   1 |#
  23 |     -6.70 |  66 |     -6.69 |   2 |##
  24 |     -6.70 |  34 |     -6.60 |   2 |##
  25 |     -6.68 |  33 |     -6.68 |   1 |#
  26 |     -6.64 |  88 |     -6.64 |   1 |#
  27 |     -6.63 |  77 |     -6.63 |   1 |#
  28 |     -6.52 |  38 |     -6.52 |   1 |#
  29 |     -6.41 |  26 |     -6.41 |   1 |#
  30 |     -6.34 |  12 |     -6.34 |   1 |#
  31 |     -6.30 |  85 |     -6.28 |   2 |##
  32 |     -6.28 |  28 |     -6.20 |   3 |###
  33 |     -6.20 |  73 |     -6.20 |   1 |#
  34 |     -6.11 |  17 |     -6.11 |   1 |#
  35 |     -6.08 |  89 |     -6.08 |   1 |#
  36 |     -6.07 |  25 |     -6.07 |   1 |#
  37 |     -6.02 |   2 |     -6.02 |   1 |#
  38 |     -6.00 |  52 |     -6.00 |   1 |#
  39 |     -5.95 |  62 |     -5.95 |   1 |#
  40 |     -5.93 |  23 |     -5.93 |   1 |#
  41 |     -5.74 |  86 |     -5.74 |   1 |#
  42 |     -5.64 |  14 |     -5.64 |   1 |#
  43 |     -5.60 |  11 |     -5.60 |   1 |#
  44 |     -5.58 |  30 |     -5.58 |   1 |#
  45 |     -5.46 |  68 |     -5.46 |   1 |#
  46 |     -5.33 |  81 |     -5.33 |   1 |#
  47 |     -5.27 |  27 |     -5.27 |   1 |#
  48 |     -5.23 |  39 |     -5.23 |   1 |#
  49 |     -5.06 |  56 |     -5.06 |   1 |#
  50 |     -5.04 |  93 |     -5.04 |   1 |#
  51 |     -4.95 |  20 |     -4.95 |   1 |#
  52 |     -4.93 |   8 |     -4.93 |   1 |#
  53 |     -4.85 |   7 |     -4.85 |   1 |#
  54 |     -4.82 |  10 |     -4.82 |   1 |#
  55 |     -4.74 | 100 |     -4.74 |   1 |#
  56 |     -4.65 |  70 |     -4.65 |   1 |#
  57 |     -4.26 |   4 |     -4.26 |   1 |#
  58 |     -3.47 |  29 |     -3.47 |   1 |#
  59 |     -3.31 |  91 |     -3.31 |   1 |#
_____|___________|_____|___________|_____|______________________________________


Number of multi-member conformational clusters found = 13, out of 100 runs.

	RMSD TABLE
	__________

_____________________________________________________________________
     |      |      |           |         |                 |
Rank | Sub- | Run  | Binding   | Cluster | Reference       | Grep
     | Rank |      | Energy    | RMSD    | RMSD            | Pattern
_____|______|______|___________|_________|_________________|___________
   1      1     35      -14.28      0.00     33.43           RANKING
   1      2     32      -13.89      0.77     33.39           RANKING
   1      3     40      -13.56      0.89     33.35           RANKING
   1      4     53      -13.45      0.86     33.20           RANKING
   2      1     57      -14.14      0.00     30.14           RANKING
   2      2      1      -12.46      1.54     29.75           RANKING
   3      1     51       -9.48      0.00     36.37           RANKING
   3      2     74       -8.97      1.39     37.20           RANKING
   3      3     95       -8.89      1.30     37.37           RANKING
   3      4     84       -8.51      1.31     36.70           RANKING
   3      5     21       -8.32      1.50     35.78           RANKING
   3      6      3       -8.21      1.11     36.24           RANKING
   3      7     45       -8.19      1.73     37.63           RANKING
   3      8     65       -8.05      1.20     35.99           RANKING
   3      9     97       -8.01      1.48     36.06           RANKING
   3     10     92       -8.00      1.22     36.09           RANKING
   3     11     67       -7.97      1.47     36.03           RANKING
   3     12     46       -7.97      1.58     37.36           RANKING
   3     13     71       -7.92      1.80     34.99           RANKING
   3     14     78       -7.81      1.15     36.17           RANKING
   3     15     43       -7.51      1.55     37.26           RANKING
   3     16     42       -7.33      1.23     36.37           RANKING
   3     17     59       -6.88      0.99     36.15           RANKING
   4      1     22       -9.16      0.00     36.33           RANKING
   5      1     19       -8.51      0.00     35.08           RANKING
   6      1     99       -8.44      0.00     41.00           RANKING
   6      2     44       -8.28      0.48     40.96           RANKING
   6      3     79       -7.13      0.69     41.10           RANKING
   6      4     87       -6.18      1.86     41.34           RANKING
   7      1     69       -8.23      0.00     37.71           RANKING
   8      1     49       -8.21      0.00     30.21           RANKING
   9      1     13       -7.63      0.00     49.37           RANKING
   9      2     64       -6.51      1.57     48.47           RANKING
   9      3     18       -6.35      1.56     48.97           RANKING
  10      1     47       -7.57      0.00     32.11           RANKING
  11      1     16       -7.42      0.00     34.71           RANKING
  11      2      5       -6.34      1.80     35.74           RANKING
  12      1     83       -7.36      0.00     41.86           RANKING
  12      2     37       -7.23      0.91     41.73           RANKING
  12      3     41       -6.36      1.31     42.13           RANKING
  12      4     75       -6.06      1.88     41.50           RANKING
  13      1     63       -7.31      0.00     27.81           RANKING
  14      1     50       -7.26      0.00     49.06           RANKING
  15      1     60       -7.18      0.00     38.22           RANKING
  16      1     36       -7.08      0.00     53.63           RANKING
  16      2     94       -7.05      0.57     53.55           RANKING
  17      1     76       -7.06      0.00     52.88           RANKING
  17      2     24       -7.03      0.65     52.90           RANKING
  17      3     90       -6.67      1.59     53.63           RANKING
  17      4      9       -6.60      1.60     53.62           RANKING
  17      5     15       -6.50      1.69     53.69           RANKING
  17      6     61       -6.33      1.42     53.45           RANKING
  17      7     48       -6.24      1.76     53.86           RANKING
  18      1     55       -7.01      0.00     37.26           RANKING
  19      1     98       -6.84      0.00     48.24           RANKING
  20      1     82       -6.83      0.00     25.94           RANKING
  21      1     31       -6.80      0.00     26.82           RANKING
  22      1     72       -6.76      0.00     50.94           RANKING
  23      1     66       -6.70      0.00     45.85           RANKING
  23      2     58       -6.69      1.60     46.08           RANKING
  24      1     34       -6.70      0.00     39.28           RANKING
  24      2     80       -6.50      0.88     39.35           RANKING
  25      1     33       -6.68      0.00     53.04           RANKING
  26      1     88       -6.64      0.00     55.24           RANKING
  27      1     77       -6.63      0.00     29.63           RANKING
  28      1     38       -6.52      0.00     36.42           RANKING
  29      1     26       -6.41      0.00     43.54           RANKING
  30      1     12       -6.34      0.00     29.68           RANKING
  31      1     85       -6.30      0.00     51.93           RANKING
  31      2     96       -6.25      1.56     51.13           RANKING
  32      1     28       -6.28      0.00     38.30           RANKING
  32      2     54       -6.26      1.55     38.03           RANKING
  32      3      6       -6.07      1.66     37.61           RANKING
  33      1     73       -6.20      0.00     41.32           RANKING
  34      1     17       -6.11      0.00     27.53           RANKING
  35      1     89       -6.08      0.00     37.79           RANKING
  36      1     25       -6.07      0.00     48.97           RANKING
  37      1      2       -6.02      0.00     45.43           RANKING
  38      1     52       -6.00      0.00     43.94           RANKING
  39      1     62       -5.95      0.00     47.33           RANKING
  40      1     23       -5.93      0.00     35.17           RANKING
  41      1     86       -5.74      0.00     47.92           RANKING
  42      1     14       -5.64      0.00     17.60           RANKING
  43      1     11       -5.60      0.00     48.05           RANKING
  44      1     30       -5.58      0.00     39.09           RANKING
  45      1     68       -5.46      0.00     32.28           RANKING
  46      1     81       -5.33      0.00     22.86           RANKING
  47      1     27       -5.27      0.00     47.50           RANKING
  48      1     39       -5.23      0.00     40.06           RANKING
  49      1     56       -5.06      0.00     44.59           RANKING
  50      1     93       -5.04      0.00     41.22           RANKING
  51      1     20       -4.95      0.00     26.53           RANKING
  52      1      8       -4.93      0.00     31.81           RANKING
  53      1      7       -4.85      0.00     42.25           RANKING
  54      1     10       -4.82      0.00     44.16           RANKING
  55      1    100       -4.74      0.00     58.66           RANKING
  56      1     70       -4.65      0.00     15.24           RANKING
  57      1      4       -4.26      0.00     57.19           RANKING
  58      1     29       -3.47      0.00     57.74           RANKING
  59      1     91       -3.31      0.00     42.23           RANKING
_______________________________________________________________________



	INFORMATION ENTROPY ANALYSIS FOR THIS CLUSTERING
	________________________________________________


Information entropy for this clustering = 0.80  (rmstol = 2.00 Angstrom)

_______________________________________________________________________


	STATISTICAL MECHANICAL ANALYSIS
	_______________________________


Partition function, Q =   101.20            at Temperature, T = 298.15 K
Free energy,        A ~ -2735.57 kcal/mol   at Temperature, T = 298.15 K
Internal energy,    U =    -7.09 kcal/mol   at Temperature, T = 298.15 K
Entropy,            S =     9.15 kcal/mol/K at Temperature, T = 298.15 K

_______________________________________________________________________


	LOWEST ENERGY DOCKED CONFORMATION from EACH CLUSTER
	___________________________________________________



Keeping original residue number (specified in the input PDBQ file) for outputting.

MODEL       35
USER    Run = 35
USER    Cluster Rank = 1
USER    Number of conformations in this cluster = 4
USER  
USER    RMSD from reference structure       = 33.426 A
USER  
USER    Estimated Free Energy of Binding    =  -14.28 kcal/mol  [=(1)+(2)+(3)-(4)]
USER    Estimated Inhibition Constant, Ki   =   34.00 pM (picomolar)  [Temperature = 298.15 K]
USER    
USER    (1) Final Intermolecular Energy     =  -17.86 kcal/mol
USER        vdW + Hbond + desolv Energy     =  -15.89 kcal/mol
USER        Electrostatic Energy            =   -1.98 kcal/mol
USER    (2) Final Total Internal Energy     =   -0.62 kcal/mol
USER    (3) Torsional Free Energy           =   +3.58 kcal/mol
USER    (4) Unbound System's Energy  [=(2)] =   -0.62 kcal/mol
USER    
USER    
USER  
USER    DPF = D:/Protein_go_brrr/autodock/final/1A3N/heme_Co/dock.dpf
USER    NEWDPF move	heme_Co_opt.pdbqt
USER    NEWDPF about	8.781000 34.984000 -0.736000
USER    NEWDPF tran0	8.160317 12.014518 27.993758
USER    NEWDPF axisangle0	0.756447 -0.402701 -0.515383 -166.196658
USER    NEWDPF quaternion0	0.750966 -0.399783 -0.511649 -0.120166
USER    NEWDPF dihe0	25.24 91.11 156.44 -98.51 -86.56 -9.49 153.29 23.43 -57.14 -12.63 -166.36 180.00 
USER  
USER                              x       y       z    vdW   Elec        q     RMS 
ATOM      1  C   UNL d   1       8.354  12.895  29.969 -0.27 +0.02    +0.064    33.426
ATOM      2  C   UNL d   1       6.592  14.571  25.883 -0.45 +0.01    +0.064    33.426
ATOM      3  C   UNL d   1       7.973  10.599  23.615 -0.21 +0.00    +0.064    33.426
ATOM      4  C   UNL d   1       9.433   8.704  27.851 -0.37 +0.01    +0.064    33.426
ATOM      5  C   UNL d   1       7.803  13.660  29.012 -0.27 +0.01    +0.066    33.426
ATOM      6  C   UNL d   1       7.204  14.902  29.300 -0.38 -0.00    -0.021    33.426
ATOM      7  C   UNL d   1       6.675  15.373  28.115 -0.44 -0.00    -0.025    33.426
ATOM      8  C   UNL d   1       6.987  14.407  27.152 -0.38 +0.01    +0.066    33.426
ATOM      9  C   UNL d   1       5.901  16.680  27.882 -0.45 +0.00    +0.051    33.426
ATOM     10  C   UNL d   1       6.890  13.645  24.819 -0.35 +0.00    +0.066    33.426
ATOM     11  C   UNL d   1       6.626  13.826  23.444 -0.35 -0.00    -0.021    33.426
ATOM     12  C   UNL d   1       7.042  12.655  22.806 -0.41 +0.00    +0.000    33.426
ATOM     13  C   UNL d   1       7.539  11.853  23.833 -0.32 +0.00    +0.070    33.426
ATOM     14  C   UNL d   1       6.100  15.080  22.794 -0.45 +0.00    +0.052    33.426
ATOM     15  C   UNL d   1       8.467   9.619  24.562 -0.40 +0.01    +0.066    33.426
ATOM     16  C   UNL d   1       8.763   8.290  24.292 -0.56 -0.00    -0.021    33.426
ATOM     17  C   UNL d   1       9.182   7.738  25.511 -0.46 +0.00    +0.000    33.426
ATOM     18  C   UNL d   1       9.125   8.782  26.428 -0.37 +0.01    +0.070    33.426
ATOM     19  C   UNL d   1       8.640   7.621  22.941 -0.25 +0.00    +0.052    33.426
ATOM     20  C   UNL d   1       9.302   9.682  28.778 -0.40 +0.01    +0.066    33.426
ATOM     21  C   UNL d   1       9.596   9.475  30.124 -0.44 -0.01    -0.025    33.426
ATOM     22  C   UNL d   1       9.322  10.675  30.755 -0.31 -0.01    -0.021    33.426
ATOM     23  C   UNL d   1       8.859  11.558  29.756 -0.29 +0.01    +0.066    33.426
ATOM     24  C   UNL d   1      10.095   8.191  30.781 -0.54 +0.02    +0.051    33.426
ATOM     25  N   UNL d   1       7.691  13.338  27.679 -0.21 -0.02    -0.248    33.426
ATOM     26  N   UNL d   1       7.498  12.475  25.042 -0.23 -0.01    -0.248    33.426
ATOM     27  N   UNL d   1       8.666   9.879  25.835 -0.23 -0.02    -0.248    33.426
ATOM     28  N   UNL d   1       8.843  10.960  28.559 -0.22 -0.03    -0.248    33.426
ATOM     29 FE   UNL d   1       8.209  11.505  26.705 -0.08 +0.00    +0.000    33.426
ATOM     30  C   UNL d   1       7.081  15.555  30.673 -0.36 +0.02    +0.052    33.426
ATOM     31  C   UNL d   1       5.885  14.984  31.434 -0.23 +0.06    +0.115    33.426
ATOM     32  C   UNL d   1       6.287  14.349  32.748 -0.16 +0.13    +0.139    33.426
ATOM     33  O   UNL d   1       7.325  14.697  33.291 -0.01 -0.60    -0.650    33.426
ATOM     34  O   UNL d   1       5.508  13.435  33.371 -0.29 -0.96    -0.776    33.426
ATOM     35  H   UNL d   1       4.825  12.911  32.930 -0.34 +0.11    +0.167    33.426
ATOM     36  C   UNL d   1       6.268  10.851  27.151 +0.02 +0.04    +0.190    33.426
ATOM     37  O   UNL d   1       5.468   9.706  27.226 -0.37 -0.10    -0.399    33.426
ATOM     38  H   UNL d   1       5.921   9.037  26.641 +0.13 +0.04    +0.209    33.426
ATOM     39  C   UNL d   1       9.438  10.932  32.245 -0.27 +0.02    +0.052    33.426
ATOM     40  C   UNL d   1       8.225  10.353  32.992 -0.37 +0.05    +0.115    33.426
ATOM     41  C   UNL d   1       8.437  10.167  34.480 -0.28 +0.08    +0.139    33.426
ATOM     42  O   UNL d   1       7.465  10.045  35.212 -0.43 -0.39    -0.650    33.426
ATOM     43  O   UNL d   1       9.674  10.044  35.011 -0.21 -0.64    -0.776    33.426
ATOM     44  H   UNL d   1       9.849  10.167  35.953 +0.05 +0.15    +0.167    33.426
ATOM     45  C   UNL d   1       7.045  12.211  21.349 -0.62 -0.00    +0.004    33.426
ATOM     46  C   UNL d   1       6.284  11.325  20.712 -0.70 -0.00    +0.012    33.426
ATOM     47  C   UNL d   1       9.565   6.333  25.841 -0.63 +0.00    +0.004    33.426
ATOM     48  C   UNL d   1       8.808   5.516  26.577 -0.73 +0.00    +0.012    33.426
TER
ENDMDL
MODEL       57
USER    Run = 57
USER    Cluster Rank = 2
USER    Number of conformations in this cluster = 2
USER  
USER    RMSD from reference structure       = 30.140 A
USER  
USER    Estimated Free Energy of Binding    =  -14.14 kcal/mol  [=(1)+(2)+(3)-(4)]
USER    Estimated Inhibition Constant, Ki   =   42.92 pM (picomolar)  [Temperature = 298.15 K]
USER    
USER    (1) Final Intermolecular Energy     =  -17.72 kcal/mol
USER        vdW + Hbond + desolv Energy     =  -15.62 kcal/mol
USER        Electrostatic Energy            =   -2.10 kcal/mol
USER    (2) Final Total Internal Energy     =   -1.75 kcal/mol
USER    (3) Torsional Free Energy           =   +3.58 kcal/mol
USER    (4) Unbound System's Energy  [=(2)] =   -1.75 kcal/mol
USER    
USER    
USER  
USER    DPF = D:/Protein_go_brrr/autodock/final/1A3N/heme_Co/dock.dpf
USER    NEWDPF move	heme_Co_opt.pdbqt
USER    NEWDPF about	8.781000 34.984000 -0.736000
USER    NEWDPF tran0	23.140840 6.558648 -3.435251
USER    NEWDPF axisangle0	-0.493700 0.131155 -0.859685 -152.032021
USER    NEWDPF quaternion0	-0.479069 0.127268 -0.834207 -0.241651
USER    NEWDPF dihe0	121.83 90.94 -46.34 -93.04 -40.48 1.15 -13.14 137.88 56.05 11.95 -57.22 176.38 
USER  
USER                              x       y       z    vdW   Elec        q     RMS 
ATOM      1  C   UNL d   1      23.370   7.134  -5.517 -0.03 +0.01    +0.064    30.140
ATOM      2  C   UNL d   1      25.303   8.808  -1.507 -0.44 +0.00    +0.064    30.140
ATOM      3  C   UNL d   1      22.576   5.861   1.082 -0.34 +0.00    +0.064    30.140
ATOM      4  C   UNL d   1      20.868   3.865  -3.012 -0.36 +0.01    +0.064    30.140
ATOM      5  C   UNL d   1      24.072   7.833  -4.610 -0.29 +0.01    +0.066    30.140
ATOM      6  C   UNL d   1      25.056   8.769  -4.986 -0.39 -0.00    -0.021    30.140
ATOM      7  C   UNL d   1      25.629   9.235  -3.819 -0.44 -0.00    -0.025    30.140
ATOM      8  C   UNL d   1      24.961   8.576  -2.781 -0.37 +0.01    +0.066    30.140
ATOM      9  C   UNL d   1      26.764  10.260  -3.670 -0.36 +0.00    +0.051    30.140
ATOM     10  C   UNL d   1      24.655   8.197  -0.374 -0.35 +0.00    +0.066    30.140
ATOM     11  C   UNL d   1      24.872   8.502   0.988 -0.32 -0.00    -0.021    30.140
ATOM     12  C   UNL d   1      24.061   7.631   1.720 -0.42 +0.00    +0.000    30.140
ATOM     13  C   UNL d   1      23.402   6.870   0.755 -0.32 +0.00    +0.070    30.140
ATOM     14  C   UNL d   1      25.728   9.620   1.526 -0.35 +0.00    +0.052    30.140
ATOM     15  C   UNL d   1      21.857   4.943   0.220 -0.40 +0.00    +0.066    30.140
ATOM     16  C   UNL d   1      21.134   3.830   0.623 -0.52 -0.00    -0.021    30.140
ATOM     17  C   UNL d   1      20.641   3.250  -0.555 -0.46 +0.00    +0.000    30.140
ATOM     18  C   UNL d   1      21.091   4.068  -1.586 -0.36 +0.01    +0.070    30.140
ATOM     19  C   UNL d   1      20.947   3.377   2.054 -0.36 +0.00    +0.052    30.140
ATOM     20  C   UNL d   1      21.366   4.597  -4.037 -0.39 +0.01    +0.066    30.140
ATOM     21  C   UNL d   1      21.111   4.281  -5.369 -0.41 -0.00    -0.025    30.140
ATOM     22  C   UNL d   1      21.796   5.224  -6.114 -0.34 -0.00    -0.021    30.140
ATOM     23  C   UNL d   1      22.450   6.068  -5.191 -0.28 +0.01    +0.066    30.140
ATOM     24  C   UNL d   1      20.271   3.126  -5.908 -0.51 +0.01    +0.051    30.140
ATOM     25  N   UNL d   1      23.987   7.706  -3.242 -0.21 -0.01    -0.248    30.140
ATOM     26  N   UNL d   1      23.720   7.251  -0.511 -0.23 -0.01    -0.248    30.140
ATOM     27  N   UNL d   1      21.837   5.049  -1.090 -0.21 -0.01    -0.248    30.140
ATOM     28  N   UNL d   1      22.195   5.690  -3.933 -0.25 -0.03    -0.248    30.140
ATOM     29 FE   UNL d   1      22.847   6.298  -2.105 -0.07 +0.00    +0.000    30.140
ATOM     30  C   UNL d   1      25.472   9.129  -6.408 -0.39 +0.02    +0.052    30.140
ATOM     31  C   UNL d   1      24.317   8.895  -7.381 -0.29 +0.06    +0.115    30.140
ATOM     32  C   UNL d   1      24.707   7.996  -8.535 -0.15 +0.15    +0.139    30.140
ATOM     33  O   UNL d   1      24.263   8.222  -9.650 -0.15 -0.82    -0.650    30.140
ATOM     34  O   UNL d   1      25.577   6.970  -8.382 -0.54 -1.04    -0.776    30.140
ATOM     35  H   UNL d   1      25.352   6.041  -8.526 -0.13 +0.16    +0.167    30.140
ATOM     36  C   UNL d   1      24.501   5.017  -2.243 +0.04 +0.04    +0.190    30.140
ATOM     37  O   UNL d   1      24.869   3.668  -2.235 -0.55 -0.13    -0.399    30.140
ATOM     38  H   UNL d   1      24.122   3.201  -1.765 +0.13 +0.04    +0.209    30.140
ATOM     39  C   UNL d   1      21.866   5.267  -7.629 -0.32 +0.01    +0.052    30.140
ATOM     40  C   UNL d   1      22.941   4.298  -8.150 -0.36 +0.03    +0.115    30.140
ATOM     41  C   UNL d   1      23.188   4.383  -9.641 -0.27 +0.06    +0.139    30.140
ATOM     42  O   UNL d   1      22.464   3.759 -10.404 -0.36 -0.27    -0.650    30.140
ATOM     43  O   UNL d   1      24.134   5.198 -10.159 +0.04 -0.60    -0.776    30.140
ATOM     44  H   UNL d   1      24.295   6.088  -9.819 +0.06 +0.18    +0.167    30.140
ATOM     45  C   UNL d   1      23.821   7.444   3.212 -0.54 -0.00    +0.004    30.140
ATOM     46  C   UNL d   1      24.292   6.532   4.058 -0.72 -0.00    +0.012    30.140
ATOM     47  C   UNL d   1      19.851   1.996  -0.742 -0.56 +0.00    +0.004    30.140
ATOM     48  C   UNL d   1      20.303   0.784  -0.414 -0.74 -0.00    +0.012    30.140
TER
ENDMDL
MODEL       51
USER    Run = 51
USER    Cluster Rank = 3
USER    Number of conformations in this cluster = 17
USER  
USER    RMSD from reference structure       = 36.369 A
USER  
USER    Estimated Free Energy of Binding    =   -9.48 kcal/mol  [=(1)+(2)+(3)-(4)]
USER    Estimated Inhibition Constant, Ki   =  113.15 nM (nanomolar)  [Temperature = 298.15 K]
USER    
USER    (1) Final Intermolecular Energy     =  -13.06 kcal/mol
USER        vdW + Hbond + desolv Energy     =  -10.42 kcal/mol
USER        Electrostatic Energy            =   -2.64 kcal/mol
USER    (2) Final Total Internal Energy     =   -0.46 kcal/mol
USER    (3) Torsional Free Energy           =   +3.58 kcal/mol
USER    (4) Unbound System's Energy  [=(2)] =   -0.46 kcal/mol
USER    
USER    
USER  
USER    DPF = D:/Protein_go_brrr/autodock/final/1A3N/heme_Co/dock.dpf
USER    NEWDPF move	heme_Co_opt.pdbqt
USER    NEWDPF about	8.781000 34.984000 -0.736000
USER    NEWDPF tran0	8.487574 14.182951 33.485134
USER    NEWDPF axisangle0	0.728463 -0.375813 -0.572806 -167.675531
USER    NEWDPF quaternion0	0.724254 -0.373641 -0.569496 -0.107344
USER    NEWDPF dihe0	137.60 -113.69 136.78 -3.53 134.73 168.04 71.67 -159.55 66.01 79.52 -126.62 -41.17 
USER  
USER                              x       y       z    vdW   Elec        q     RMS 
ATOM      1  C   UNL d   1       8.908  14.889  35.495 -0.09 +0.05    +0.064    36.369
ATOM      2  C   UNL d   1       6.733  16.918  31.786 -0.25 +0.03    +0.064    36.369
ATOM      3  C   UNL d   1       7.802  13.151  29.049 -0.20 +0.01    +0.064    36.369
ATOM      4  C   UNL d   1       9.691  10.891  32.921 +0.03 +0.04    +0.064    36.369
ATOM      5  C   UNL d   1       8.267  15.736  34.673 -0.12 +0.06    +0.066    36.369
ATOM      6  C   UNL d   1       7.720  16.951  35.130 -0.11 -0.02    -0.021    36.369
ATOM      7  C   UNL d   1       7.071  17.525  34.055 -0.13 -0.02    -0.025    36.369
ATOM      8  C   UNL d   1       7.262  16.645  32.985 -0.18 +0.05    +0.066    36.369
ATOM      9  C   UNL d   1       6.294  18.850  34.021 -0.13 +0.03    +0.051    36.369
ATOM     10  C   UNL d   1       6.899  16.086  30.621 -0.30 +0.02    +0.066    36.369
ATOM     11  C   UNL d   1       6.489  16.386  29.303 -0.40 -0.00    -0.021    36.369
ATOM     12  C   UNL d   1       6.817  15.273  28.526 -0.44 +0.00    +0.000    36.369
ATOM     13  C   UNL d   1       7.412  14.383  29.420 -0.33 +0.02    +0.070    36.369
ATOM     14  C   UNL d   1       5.913  17.694  28.825 -0.38 +0.00    +0.052    36.369
ATOM     15  C   UNL d   1       8.383  12.090  29.849 -0.17 +0.02    +0.066    36.369
ATOM     16  C   UNL d   1       8.630  10.788  29.436 -0.34 -0.00    -0.021    36.369
ATOM     17  C   UNL d   1       9.172  10.132  30.550 -0.41 +0.00    +0.000    36.369
ATOM     18  C   UNL d   1       9.230  11.094  31.553 -0.21 +0.03    +0.070    36.369
ATOM     19  C   UNL d   1       8.350  10.239  28.055 -0.43 +0.01    +0.052    36.369
ATOM     20  C   UNL d   1       9.676  11.787  33.937 -0.16 +0.05    +0.066    36.369
ATOM     21  C   UNL d   1      10.113  11.463  35.220 -0.21 -0.03    -0.025    36.369
ATOM     22  C   UNL d   1       9.926  12.605  35.977 -0.14 -0.02    -0.021    36.369
ATOM     23  C   UNL d   1       9.369  13.573  35.114 -0.12 +0.05    +0.066    36.369
ATOM     24  C   UNL d   1      10.663  10.125  35.707 -0.24 +0.06    +0.051    36.369
ATOM     25  N   UNL d   1       8.005  15.531  33.338 -0.12 -0.18    -0.248    36.369
ATOM     26  N   UNL d   1       7.512  14.899  30.674 -0.19 -0.08    -0.248    36.369
ATOM     27  N   UNL d   1       8.724  12.239  31.109 -0.19 -0.09    -0.248    36.369
ATOM     28  N   UNL d   1       9.213  13.081  33.879 -0.11 -0.17    -0.248    36.369
ATOM     29 FE   UNL d   1       8.388  13.786  32.160 -0.06 +0.00    +0.000    36.369
ATOM     30  C   UNL d   1       7.757  17.485  36.558 -0.07 +0.04    +0.052    36.369
ATOM     31  C   UNL d   1       7.469  16.365  37.558 -0.05 +0.11    +0.115    36.369
ATOM     32  C   UNL d   1       6.189  16.597  38.331 -0.05 +0.14    +0.139    36.369
ATOM     33  O   UNL d   1       6.061  17.618  38.990 -0.00 -0.36    -0.650    36.369
ATOM     34  O   UNL d   1       5.152  15.729  38.280 -0.29 -1.26    -0.776    36.369
ATOM     35  H   UNL d   1       4.671  15.410  39.057 +0.01 +0.17    +0.167    36.369
ATOM     36  C   UNL d   1       6.498  13.104  32.760 +0.01 +0.12    +0.190    36.369
ATOM     37  O   UNL d   1       5.306  13.515  33.366 -0.52 -0.53    -0.399    36.369
ATOM     38  H   UNL d   1       4.584  13.151  32.782 -0.43 +0.13    +0.209    36.369
ATOM     39  C   UNL d   1      10.208  12.732  37.462 -0.09 +0.04    +0.052    36.369
ATOM     40  C   UNL d   1      11.693  12.459  37.757 -0.05 +0.14    +0.115    36.369
ATOM     41  C   UNL d   1      11.963  11.120  38.411 -0.08 +0.15    +0.139    36.369
ATOM     42  O   UNL d   1      11.059  10.550  39.005 +0.00 -0.40    -0.650    36.369
ATOM     43  O   UNL d   1      13.155  10.495  38.281 -0.53 -1.18    -0.776    36.369
ATOM     44  H   UNL d   1      13.557   9.991  39.000 +0.02 +0.14    +0.167    36.369
ATOM     45  C   UNL d   1       6.654  14.956  27.045 -0.52 +0.00    +0.004    36.369
ATOM     46  C   UNL d   1       5.956  15.577  26.098 -0.53 +0.00    +0.012    36.369
ATOM     47  C   UNL d   1       9.570   8.702  30.714 -0.51 +0.00    +0.004    36.369
ATOM     48  C   UNL d   1      10.832   8.303  30.883 -0.59 +0.00    +0.012    36.369
TER
ENDMDL
MODEL       22
USER    Run = 22
USER    Cluster Rank = 4
USER    Number of conformations in this cluster = 1
USER  
USER    RMSD from reference structure       = 36.332 A
USER  
USER    Estimated Free Energy of Binding    =   -9.16 kcal/mol  [=(1)+(2)+(3)-(4)]
USER    Estimated Inhibition Constant, Ki   =  192.83 nM (nanomolar)  [Temperature = 298.15 K]
USER    
USER    (1) Final Intermolecular Energy     =  -12.74 kcal/mol
USER        vdW + Hbond + desolv Energy     =  -10.49 kcal/mol
USER        Electrostatic Energy            =   -2.25 kcal/mol
USER    (2) Final Total Internal Energy     =   -0.78 kcal/mol
USER    (3) Torsional Free Energy           =   +3.58 kcal/mol
USER    (4) Unbound System's Energy  [=(2)] =   -0.78 kcal/mol
USER    
USER    
USER  
USER    DPF = D:/Protein_go_brrr/autodock/final/1A3N/heme_Co/dock.dpf
USER    NEWDPF move	heme_Co_opt.pdbqt
USER    NEWDPF about	8.781000 34.984000 -0.736000
USER    NEWDPF tran0	8.857990 12.739187 33.040068
USER    NEWDPF axisangle0	0.523296 -0.111853 -0.844778 143.357037
USER    NEWDPF quaternion0	0.496769 -0.106183 -0.801954 0.314348
USER    NEWDPF dihe0	-23.29 -108.56 -145.00 -108.62 82.36 -125.89 -154.32 -33.57 -150.87 -50.12 173.77 -27.13 
USER  
USER                              x       y       z    vdW   Elec        q     RMS 
ATOM      1  C   UNL d   1       9.772  11.168  34.229 -0.15 +0.05    +0.064    36.332
ATOM      2  C   UNL d   1       8.278  15.547  35.327 -0.11 +0.06    +0.064    36.332
ATOM      3  C   UNL d   1       7.286  16.402  30.732 -0.24 +0.02    +0.064    36.332
ATOM      4  C   UNL d   1       8.443  11.804  29.641 -0.19 +0.01    +0.064    36.332
ATOM      5  C   UNL d   1       9.471  12.315  34.861 -0.16 +0.05    +0.066    36.332
ATOM      6  C   UNL d   1       9.561  12.442  36.261 -0.12 -0.02    -0.021    36.332
ATOM      7  C   UNL d   1       9.105  13.707  36.576 -0.06 -0.02    -0.025    36.332
ATOM      8  C   UNL d   1       8.771  14.303  35.355 -0.10 +0.06    +0.066    36.332
ATOM      9  C   UNL d   1       8.980  14.344  37.969 -0.02 +0.03    +0.051    36.332
ATOM     10  C   UNL d   1       7.932  16.251  34.117 -0.15 +0.06    +0.066    36.332
ATOM     11  C   UNL d   1       7.543  17.604  34.010 -0.14 -0.01    -0.021    36.332
ATOM     12  C   UNL d   1       7.264  17.827  32.659 -0.19 +0.00    +0.000    36.332
ATOM     13  C   UNL d   1       7.514  16.602  32.042 -0.22 +0.03    +0.070    36.332
ATOM     14  C   UNL d   1       7.539  18.622  35.122 -0.09 +0.03    +0.052    36.332
ATOM     15  C   UNL d   1       7.439  15.193  29.945 -0.32 +0.02    +0.066    36.332
ATOM     16  C   UNL d   1       7.048  15.015  28.626 -0.40 -0.00    -0.021    36.332
ATOM     17  C   UNL d   1       7.377  13.690  28.308 -0.35 +0.00    +0.000    36.332
ATOM     18  C   UNL d   1       7.961  13.167  29.457 -0.13 +0.01    +0.070    36.332
ATOM     19  C   UNL d   1       6.400  16.067  27.753 -0.50 +0.01    +0.052    36.332
ATOM     20  C   UNL d   1       8.934  11.249  30.774 -0.31 +0.02    +0.066    36.332
ATOM     21  C   UNL d   1       9.333   9.916  30.837 -0.39 -0.01    -0.025    36.332
ATOM     22  C   UNL d   1       9.748   9.712  32.141 -0.30 -0.01    -0.021    36.332
ATOM     23  C   UNL d   1       9.569  10.938  32.817 -0.19 +0.04    +0.066    36.332
ATOM     24  C   UNL d   1       9.301   8.881  29.716 -0.36 +0.01    +0.051    36.332
ATOM     25  N   UNL d   1       8.994  13.465  34.275 -0.08 -0.18    -0.248    36.332
ATOM     26  N   UNL d   1       7.972  15.666  32.915 -0.12 -0.16    -0.248    36.332
ATOM     27  N   UNL d   1       7.953  14.081  30.421 -0.20 -0.07    -0.248    36.332
ATOM     28  N   UNL d   1       9.075  11.870  31.994 -0.16 -0.11    -0.248    36.332
ATOM     29 FE   UNL d   1       8.444  13.788  32.233 -0.06 +0.00    +0.000    36.332
ATOM     30  C   UNL d   1       9.990  11.360  37.247 -0.16 +0.04    +0.052    36.332
ATOM     31  C   UNL d   1       8.771  10.752  37.941 -0.13 +0.06    +0.115    36.332
ATOM     32  C   UNL d   1       7.521  10.839  37.093 -0.18 +0.08    +0.139    36.332
ATOM     33  O   UNL d   1       7.377  10.072  36.153 -0.38 -0.40    -0.650    36.332
ATOM     34  O   UNL d   1       6.525  11.713  37.370 +0.07 -0.54    -0.776    36.332
ATOM     35  H   UNL d   1       6.328  12.050  38.255 +0.04 +0.11    +0.167    36.332
ATOM     36  C   UNL d   1       6.529  13.117  32.760 -0.02 +0.12    +0.190    36.332
ATOM     37  O   UNL d   1       5.336  13.519  33.370 -0.51 -0.53    -0.399    36.332
ATOM     38  H   UNL d   1       4.614  13.135  32.799 -0.43 +0.14    +0.209    36.332
ATOM     39  C   UNL d   1      10.227   8.392  32.715 -0.49 +0.02    +0.052    36.332
ATOM     40  C   UNL d   1      11.643   8.063  32.213 -0.43 +0.06    +0.115    36.332
ATOM     41  C   UNL d   1      12.655   7.820  33.313 -0.39 +0.12    +0.139    36.332
ATOM     42  O   UNL d   1      13.009   6.675  33.557 -0.16 -0.55    -0.650    36.332
ATOM     43  O   UNL d   1      13.244   8.840  33.975 -0.26 -1.20    -0.776    36.332
ATOM     44  H   UNL d   1      14.183   8.838  34.202 +0.07 +0.29    +0.167    36.332
ATOM     45  C   UNL d   1       6.810  19.056  31.882 -0.21 +0.00    +0.004    36.332
ATOM     46  C   UNL d   1       5.696  19.280  31.190 -0.27 +0.00    +0.012    36.332
ATOM     47  C   UNL d   1       7.132  12.921  27.050 -0.44 +0.00    +0.004    36.332
ATOM     48  C   UNL d   1       7.630  13.273  25.863 -0.42 +0.00    +0.012    36.332
TER
ENDMDL
MODEL       19
USER    Run = 19
USER    Cluster Rank = 5
USER    Number of conformations in this cluster = 1
USER  
USER    RMSD from reference structure       = 35.085 A
USER  
USER    Estimated Free Energy of Binding    =   -8.51 kcal/mol  [=(1)+(2)+(3)-(4)]
USER    Estimated Inhibition Constant, Ki   =  576.15 nM (nanomolar)  [Temperature = 298.15 K]
USER    
USER    (1) Final Intermolecular Energy     =  -12.09 kcal/mol
USER        vdW + Hbond + desolv Energy     =   -9.89 kcal/mol
USER        Electrostatic Energy            =   -2.20 kcal/mol
USER    (2) Final Total Internal Energy     =   -0.72 kcal/mol
USER    (3) Torsional Free Energy           =   +3.58 kcal/mol
USER    (4) Unbound System's Energy  [=(2)] =   -0.72 kcal/mol
USER    
USER    
USER  
USER    DPF = D:/Protein_go_brrr/autodock/final/1A3N/heme_Co/dock.dpf
USER    NEWDPF move	heme_Co_opt.pdbqt
USER    NEWDPF about	8.781000 34.984000 -0.736000
USER    NEWDPF tran0	8.235928 15.212274 32.675475
USER    NEWDPF axisangle0	-0.755927 0.486288 0.438290 150.221461
USER    NEWDPF quaternion0	-0.730546 0.469961 0.423574 0.256952
USER    NEWDPF dihe0	-16.99 -48.60 -45.52 -96.99 61.21 53.47 81.51 -51.48 -81.36 179.95 179.78 -20.51 
USER  
USER                              x       y       z    vdW   Elec        q     RMS 
ATOM      1  C   UNL d   1       8.347  16.730  34.224 -0.14 +0.04    +0.064    35.085
ATOM      2  C   UNL d   1       6.632  16.810  29.790 -0.33 +0.01    +0.064    35.085
ATOM      3  C   UNL d   1       8.211  12.360  29.059 -0.12 +0.01    +0.064    35.085
ATOM      4  C   UNL d   1       9.628  12.114  33.706 -0.17 +0.05    +0.064    35.085
ATOM      5  C   UNL d   1       7.795  17.092  33.055 -0.17 +0.04    +0.066    35.085
ATOM      6  C   UNL d   1       7.145  18.330  32.887 -0.16 -0.01    -0.021    35.085
ATOM      7  C   UNL d   1       6.629  18.339  31.605 -0.22 -0.01    -0.025    35.085
ATOM      8  C   UNL d   1       7.001  17.113  31.041 -0.24 +0.02    +0.066    35.085
ATOM      9  C   UNL d   1       5.816  19.450  30.924 -0.26 +0.01    +0.051    35.085
ATOM     10  C   UNL d   1       6.990  15.586  29.118 -0.37 +0.01    +0.066    35.085
ATOM     11  C   UNL d   1       6.755  15.268  27.762 -0.44 -0.00    -0.021    35.085
ATOM     12  C   UNL d   1       7.229  13.967  27.575 -0.38 +0.00    +0.000    35.085
ATOM     13  C   UNL d   1       7.727  13.593  28.823 -0.29 +0.01    +0.070    35.085
ATOM     14  C   UNL d   1       6.202  16.196  26.711 -0.43 +0.01    +0.052    35.085
ATOM     15  C   UNL d   1       8.715  11.790  30.293 -0.21 +0.02    +0.066    35.085
ATOM     16  C   UNL d   1       9.065  10.464  30.505 -0.38 -0.01    -0.021    35.085
ATOM     17  C   UNL d   1       9.472  10.388  31.845 -0.32 +0.00    +0.000    35.085
ATOM     18  C   UNL d   1       9.354  11.682  32.341 -0.17 +0.04    +0.070    35.085
ATOM     19  C   UNL d   1       9.000   9.364  29.469 -0.43 +0.01    +0.052    35.085
ATOM     20  C   UNL d   1       9.439  13.346  34.234 -0.17 +0.05    +0.066    35.085
ATOM     21  C   UNL d   1       9.706  13.631  35.572 -0.12 -0.02    -0.025    35.085
ATOM     22  C   UNL d   1       9.373  14.963  35.743 -0.09 -0.01    -0.021    35.085
ATOM     23  C   UNL d   1       8.905  15.425  34.495 -0.13 +0.05    +0.066    35.085
ATOM     24  C   UNL d   1      10.233  12.677  36.640 -0.13 +0.05    +0.051    35.085
ATOM     25  N   UNL d   1       7.729  16.323  31.915 -0.14 -0.11    -0.248    35.085
ATOM     26  N   UNL d   1       7.633  14.593  29.740 -0.21 -0.06    -0.248    35.085
ATOM     27  N   UNL d   1       8.872  12.484  31.399 -0.19 -0.09    -0.248    35.085
ATOM     28  N   UNL d   1       8.941  14.449  33.579 -0.10 -0.16    -0.248    35.085
ATOM     29 FE   UNL d   1       8.336  14.290  31.645 -0.06 +0.00    +0.000    35.085
ATOM     30  C   UNL d   1       6.963  19.413  33.945 -0.10 +0.02    +0.052    35.085
ATOM     31  C   UNL d   1       5.596  19.285  34.616 -0.11 +0.06    +0.115    35.085
ATOM     32  C   UNL d   1       5.664  18.523  35.922 -0.04 +0.12    +0.139    35.085
ATOM     33  O   UNL d   1       6.264  17.460  35.967 -0.30 -1.02    -0.650    35.085
ATOM     34  O   UNL d   1       5.118  19.005  37.063 -0.01 -0.47    -0.776    35.085
ATOM     35  H   UNL d   1       4.921  19.939  37.219 +0.01 +0.06    +0.167    35.085
ATOM     36  C   UNL d   1       6.408  13.750  32.268 -0.02 +0.12    +0.190    35.085
ATOM     37  O   UNL d   1       5.684  13.276  33.367 -0.50 -0.44    -0.399    35.085
ATOM     38  H   UNL d   1       4.834  12.924  32.981 -0.29 +0.14    +0.209    35.085
ATOM     39  C   UNL d   1       9.442  15.725  37.053 -0.04 +0.03    +0.052    35.085
ATOM     40  C   UNL d   1      10.881  16.186  37.338 -0.04 +0.05    +0.115    35.085
ATOM     41  C   UNL d   1      11.908  15.675  36.349 -0.13 +0.08    +0.139    35.085
ATOM     42  O   UNL d   1      12.113  16.304  35.320 +0.04 -0.31    -0.650    35.085
ATOM     43  O   UNL d   1      12.668  14.589  36.611 +0.01 -0.72    -0.776    35.085
ATOM     44  H   UNL d   1      13.033  14.409  37.487 +0.02 +0.14    +0.167    35.085
ATOM     45  C   UNL d   1       7.284  13.046  26.364 -0.43 +0.00    +0.004    35.085
ATOM     46  C   UNL d   1       6.554  11.979  26.053 -0.42 +0.00    +0.012    35.085
ATOM     47  C   UNL d   1       9.896   9.201  32.646 -0.44 +0.00    +0.004    35.085
ATOM     48  C   UNL d   1      10.660   8.219  32.162 -0.56 +0.00    +0.012    35.085
TER
ENDMDL
MODEL       99
USER    Run = 99
USER    Cluster Rank = 6
USER    Number of conformations in this cluster = 4
USER  
USER    RMSD from reference structure       = 41.002 A
USER  
USER    Estimated Free Energy of Binding    =   -8.44 kcal/mol  [=(1)+(2)+(3)-(4)]
USER    Estimated Inhibition Constant, Ki   =  650.25 nM (nanomolar)  [Temperature = 298.15 K]
USER    
USER    (1) Final Intermolecular Energy     =  -12.02 kcal/mol
USER        vdW + Hbond + desolv Energy     =   -8.89 kcal/mol
USER        Electrostatic Energy            =   -3.13 kcal/mol
USER    (2) Final Total Internal Energy     =   -0.79 kcal/mol
USER    (3) Torsional Free Energy           =   +3.58 kcal/mol
USER    (4) Unbound System's Energy  [=(2)] =   -0.79 kcal/mol
USER    
USER    
USER  
USER    DPF = D:/Protein_go_brrr/autodock/final/1A3N/heme_Co/dock.dpf
USER    NEWDPF move	heme_Co_opt.pdbqt
USER    NEWDPF about	8.781000 34.984000 -0.736000
USER    NEWDPF tran0	0.699023 -6.065592 -10.164158
USER    NEWDPF axisangle0	0.706873 -0.175511 0.685220 141.988828
USER    NEWDPF quaternion0	0.668339 -0.165944 0.647867 0.325660
USER    NEWDPF dihe0	71.01 152.48 23.39 65.71 83.26 35.60 -150.26 157.28 -24.41 161.21 -1.90 20.06 
USER  
USER                              x       y       z    vdW   Elec        q     RMS 
ATOM      1  C   UNL d   1      -0.233  -5.373 -11.999 -0.10 +0.05    +0.064    41.002
ATOM      2  C   UNL d   1       3.005  -3.411  -9.122 -0.35 +0.01    +0.064    41.002
ATOM      3  C   UNL d   1       2.552  -7.055  -6.065 -0.26 +0.01    +0.064    41.002
ATOM      4  C   UNL d   1      -0.470  -9.267  -9.170 -0.11 +0.04    +0.064    41.002
ATOM      5  C   UNL d   1       0.658  -4.551 -11.420 -0.15 +0.04    +0.066    41.002
ATOM      6  C   UNL d   1       1.118  -3.381 -12.055 -0.15 -0.01    -0.021    41.002
ATOM      7  C   UNL d   1       2.074  -2.828 -11.226 -0.12 -0.01    -0.025    41.002
ATOM      8  C   UNL d   1       2.145  -3.675 -10.114 -0.23 +0.02    +0.066    41.002
ATOM      9  C   UNL d   1       2.899  -1.552 -11.458 -0.31 +0.01    +0.051    41.002
ATOM     10  C   UNL d   1       3.130  -4.210  -7.929 -0.32 +0.01    +0.066    41.002
ATOM     11  C   UNL d   1       3.911  -3.911  -6.791 -0.41 -0.00    -0.021    41.002
ATOM     12  C   UNL d   1       3.757  -4.988  -5.914 -0.40 +0.00    +0.000    41.002
ATOM     13  C   UNL d   1       2.886  -5.856  -6.574 -0.26 +0.02    +0.070    41.002
ATOM     14  C   UNL d   1       4.668  -2.632  -6.540 -0.41 +0.00    +0.052    41.002
ATOM     15  C   UNL d   1       1.713  -8.092  -6.632 -0.27 +0.02    +0.066    41.002
ATOM     16  C   UNL d   1       1.523  -9.369  -6.121 -0.29 -0.00    -0.021    41.002
ATOM     17  C   UNL d   1       0.655 -10.011  -7.014 -0.21 +0.00    +0.000    41.002
ATOM     18  C   UNL d   1       0.368  -9.067  -7.994 -0.18 +0.03    +0.070    41.002
ATOM     19  C   UNL d   1       2.151  -9.908  -4.855 -0.23 +0.01    +0.052    41.002
ATOM     20  C   UNL d   1      -0.695  -8.393 -10.180 -0.06 +0.06    +0.066    41.002
ATOM     21  C   UNL d   1      -1.492  -8.713 -11.277 -0.07 -0.02    -0.025    41.002
ATOM     22  C   UNL d   1      -1.466  -7.599 -12.095 -0.07 -0.02    -0.021    41.002
ATOM     23  C   UNL d   1      -0.637  -6.651 -11.458 -0.05 +0.07    +0.066    41.002
ATOM     24  C   UNL d   1      -2.228 -10.024 -11.542 -0.05 +0.02    +0.051    41.002
ATOM     25  N   UNL d   1       1.275  -4.747 -10.205 -0.14 -0.16    -0.248    41.002
ATOM     26  N   UNL d   1       2.464  -5.358  -7.767 -0.15 -0.08    -0.248    41.002
ATOM     27  N   UNL d   1       1.039  -7.947  -7.751 -0.16 -0.13    -0.248    41.002
ATOM     28  N   UNL d   1      -0.166  -7.128 -10.300 -0.02 -0.33    -0.248    41.002
ATOM     29 FE   UNL d   1       1.147  -6.443  -8.907 -0.05 +0.00    +0.000    41.002
ATOM     30  C   UNL d   1       0.709  -2.873 -13.433 -0.19 +0.02    +0.052    41.002
ATOM     31  C   UNL d   1      -0.612  -2.107 -13.353 -0.25 +0.07    +0.115    41.002
ATOM     32  C   UNL d   1      -0.752  -1.081 -14.457 -0.31 +0.12    +0.139    41.002
ATOM     33  O   UNL d   1      -1.099  -1.441 -15.571 -0.22 -0.67    -0.650    41.002
ATOM     34  O   UNL d   1      -0.550   0.240 -14.239 +0.02 -0.83    -0.776    41.002
ATOM     35  H   UNL d   1       0.306   0.629 -14.015 -0.47 +0.05    +0.167    41.002
ATOM     36  C   UNL d   1       2.751  -7.250  -9.989 -0.10 +0.06    +0.190    41.002
ATOM     37  O   UNL d   1       3.121  -8.335 -10.790 -0.04 -0.09    -0.399    41.002
ATOM     38  H   UNL d   1       2.322  -8.517 -11.360 +0.03 +0.05    +0.209    41.002
ATOM     39  C   UNL d   1      -2.149  -7.482 -13.445 -0.03 +0.02    +0.052    41.002
ATOM     40  C   UNL d   1      -3.143  -6.310 -13.451 -0.04 +0.06    +0.115    41.002
ATOM     41  C   UNL d   1      -3.662  -5.924 -12.082 -0.08 +0.15    +0.139    41.002
ATOM     42  O   UNL d   1      -4.344  -6.721 -11.454 -0.08 -0.70    -0.650    41.002
ATOM     43  O   UNL d   1      -3.320  -4.754 -11.497 -0.35 -1.30    -0.776    41.002
ATOM     44  H   UNL d   1      -3.113  -3.960 -12.005 +0.06 +0.17    +0.167    41.002
ATOM     45  C   UNL d   1       4.313  -5.286  -4.528 -0.43 +0.00    +0.004    41.002
ATOM     46  C   UNL d   1       4.228  -4.597  -3.394 -0.48 +0.00    +0.012    41.002
ATOM     47  C   UNL d   1       0.151 -11.417  -7.010 -0.18 +0.00    +0.004    41.002
ATOM     48  C   UNL d   1      -0.588 -11.933  -6.025 -0.19 +0.00    +0.012    41.002
TER
ENDMDL
MODEL       69
USER    Run = 69
USER    Cluster Rank = 7
USER    Number of conformations in this cluster = 1
USER  
USER    RMSD from reference structure       = 37.712 A
USER  
USER    Estimated Free Energy of Binding    =   -8.23 kcal/mol  [=(1)+(2)+(3)-(4)]
USER    Estimated Inhibition Constant, Ki   =  922.09 nM (nanomolar)  [Temperature = 298.15 K]
USER    
USER    (1) Final Intermolecular Energy     =  -11.81 kcal/mol
USER        vdW + Hbond + desolv Energy     =   -8.26 kcal/mol
USER        Electrostatic Energy            =   -3.55 kcal/mol
USER    (2) Final Total Internal Energy     =   -2.11 kcal/mol
USER    (3) Torsional Free Energy           =   +3.58 kcal/mol
USER    (4) Unbound System's Energy  [=(2)] =   -2.11 kcal/mol
USER    
USER    
USER  
USER    DPF = D:/Protein_go_brrr/autodock/final/1A3N/heme_Co/dock.dpf
USER    NEWDPF move	heme_Co_opt.pdbqt
USER    NEWDPF about	8.781000 34.984000 -0.736000
USER    NEWDPF tran0	9.003105 12.960121 35.329397
USER    NEWDPF axisangle0	0.309078 0.943258 -0.121390 -113.651925
USER    NEWDPF quaternion0	0.258702 0.789519 -0.101605 -0.547184
USER    NEWDPF dihe0	-73.28 79.27 -53.90 -107.63 68.50 137.37 45.79 -92.21 150.62 -152.35 -157.81 -27.33 
USER  
USER                              x       y       z    vdW   Elec        q     RMS 
ATOM      1  C   UNL d   1       9.090  13.184  37.488 -0.03 +0.04    +0.064    37.712
ATOM      2  C   UNL d   1      10.402   9.652  34.586 -0.28 +0.06    +0.064    37.712
ATOM      3  C   UNL d   1       8.593  12.006  30.842 -0.19 +0.02    +0.064    37.712
ATOM      4  C   UNL d   1       7.590  15.794  33.725 -0.15 +0.06    +0.064    37.712
ATOM      5  C   UNL d   1       9.549  12.030  36.975 -0.10 +0.05    +0.066    37.712
ATOM      6  C   UNL d   1      10.228  11.080  37.763 -0.13 -0.02    -0.021    37.712
ATOM      7  C   UNL d   1      10.627  10.068  36.912 -0.18 -0.02    -0.025    37.712
ATOM      8  C   UNL d   1      10.159  10.435  35.645 -0.20 +0.07    +0.066    37.712
ATOM      9  C   UNL d   1      11.418   8.799  37.262 -0.19 +0.04    +0.051    37.712
ATOM     10  C   UNL d   1       9.938   9.935  33.250 -0.14 +0.04    +0.066    37.712
ATOM     11  C   UNL d   1      10.038   9.087  32.126 -0.39 -0.01    -0.021    37.712
ATOM     12  C   UNL d   1       9.500   9.796  31.049 -0.41 +0.00    +0.000    37.712
ATOM     13  C   UNL d   1       9.101  11.016  31.597 -0.27 +0.03    +0.070    37.712
ATOM     14  C   UNL d   1      10.530   7.662  32.124 -0.38 +0.01    +0.052    37.712
ATOM     15  C   UNL d   1       8.180  13.340  31.232 -0.23 +0.02    +0.066    37.712
ATOM     16  C   UNL d   1       7.800  14.366  30.378 -0.34 -0.01    -0.021    37.712
ATOM     17  C   UNL d   1       7.512  15.462  31.205 -0.30 +0.00    +0.000    37.712
ATOM     18  C   UNL d   1       7.724  15.010  32.503 -0.23 +0.04    +0.070    37.712
ATOM     19  C   UNL d   1       7.729  14.271  28.870 -0.38 +0.01    +0.052    37.712
ATOM     20  C   UNL d   1       7.874  15.403  34.990 -0.08 +0.08    +0.066    37.712
ATOM     21  C   UNL d   1       7.739  16.260  36.081 -0.05 -0.03    -0.025    37.712
ATOM     22  C   UNL d   1       8.137  15.525  37.183 -0.05 -0.02    -0.021    37.712
ATOM     23  C   UNL d   1       8.509  14.251  36.705 -0.06 +0.05    +0.066    37.712
ATOM     24  C   UNL d   1       7.274  17.713  36.072 -0.09 +0.05    +0.051    37.712
ATOM     25  N   UNL d   1       9.483  11.643  35.656 -0.10 -0.21    -0.248    37.712
ATOM     26  N   UNL d   1       9.315  11.076  32.938 -0.15 -0.14    -0.248    37.712
ATOM     27  N   UNL d   1       8.150  13.752  32.479 -0.14 -0.13    -0.248    37.712
ATOM     28  N   UNL d   1       8.353  14.173  35.378 -0.06 -0.23    -0.248    37.712
ATOM     29 FE   UNL d   1       8.776  12.763  33.976 -0.04 +0.00    +0.000    37.712
ATOM     30  C   UNL d   1      10.546  11.192  39.250 -0.07 +0.03    +0.052    37.712
ATOM     31  C   UNL d   1      11.670  12.201  39.485 -0.04 +0.07    +0.115    37.712
ATOM     32  C   UNL d   1      12.649  12.254  38.333 -0.03 +0.17    +0.139    37.712
ATOM     33  O   UNL d   1      13.558  11.439  38.279 -0.38 -1.07    -0.650    37.712
ATOM     34  O   UNL d   1      12.524  13.148  37.325 +0.16 -1.13    -0.776    37.712
ATOM     35  H   UNL d   1      11.891  13.064  36.599 +0.03 +0.28    +0.167    37.712
ATOM     36  C   UNL d   1      10.729  13.501  33.788 -0.10 +0.16    +0.190    37.712
ATOM     37  O   UNL d   1      11.936  13.648  34.480 -0.41 -0.54    -0.399    37.712
ATOM     38  H   UNL d   1      11.670  13.799  35.430 +0.05 +0.26    +0.209    37.712
ATOM     39  C   UNL d   1       8.215  16.046  38.606 -0.02 +0.03    +0.052    37.712
ATOM     40  C   UNL d   1       6.808  16.195  39.208 -0.03 +0.07    +0.115    37.712
ATOM     41  C   UNL d   1       5.749  15.345  38.537 +0.14 +0.18    +0.139    37.712
ATOM     42  O   UNL d   1       5.990  14.171  38.292 -0.20 -0.80    -0.650    37.712
ATOM     43  O   UNL d   1       4.512  15.825  38.279 -0.34 -1.27    -0.776    37.712
ATOM     44  H   UNL d   1       3.992  16.301  38.940 +0.01 +0.15    +0.167    37.712
ATOM     45  C   UNL d   1       9.300   9.457  29.578 -0.50 +0.00    +0.004    37.712
ATOM     46  C   UNL d   1       9.827  10.002  28.484 -0.46 +0.00    +0.012    37.712
ATOM     47  C   UNL d   1       7.116  16.854  30.839 -0.32 +0.00    +0.004    37.712
ATOM     48  C   UNL d   1       6.171  17.140  29.940 -0.40 +0.00    +0.012    37.712
TER
ENDMDL
MODEL       49
USER    Run = 49
USER    Cluster Rank = 8
USER    Number of conformations in this cluster = 1
USER  
USER    RMSD from reference structure       = 30.209 A
USER  
USER    Estimated Free Energy of Binding    =   -8.21 kcal/mol  [=(1)+(2)+(3)-(4)]
USER    Estimated Inhibition Constant, Ki   =  963.93 nM (nanomolar)  [Temperature = 298.15 K]
USER    
USER    (1) Final Intermolecular Energy     =  -11.79 kcal/mol
USER        vdW + Hbond + desolv Energy     =   -8.95 kcal/mol
USER        Electrostatic Energy            =   -2.84 kcal/mol
USER    (2) Final Total Internal Energy     =   -1.84 kcal/mol
USER    (3) Torsional Free Energy           =   +3.58 kcal/mol
USER    (4) Unbound System's Energy  [=(2)] =   -1.84 kcal/mol
USER    
USER    
USER  
USER    DPF = D:/Protein_go_brrr/autodock/final/1A3N/heme_Co/dock.dpf
USER    NEWDPF move	heme_Co_opt.pdbqt
USER    NEWDPF about	8.781000 34.984000 -0.736000
USER    NEWDPF tran0	23.316781 8.648324 -8.849152
USER    NEWDPF axisangle0	-0.431613 0.297885 -0.851454 -140.767730
USER    NEWDPF quaternion0	-0.406563 0.280597 -0.802039 -0.335717
USER    NEWDPF dihe0	-180.00 -126.89 -5.13 -94.87 75.51 -179.51 -174.50 -43.34 -80.30 -178.36 -174.03 -179.19 
USER  
USER                              x       y       z    vdW   Elec        q     RMS 
ATOM      1  C   UNL d   1      23.616   9.974 -10.542 -0.13 +0.04    +0.064    30.209
ATOM      2  C   UNL d   1      25.371   9.989  -6.123 -0.29 +0.02    +0.064    30.209
ATOM      3  C   UNL d   1      22.592   6.279  -4.967 -0.20 +0.01    +0.064    30.209
ATOM      4  C   UNL d   1      21.070   5.999  -9.578 -0.10 +0.02    +0.064    30.209
ATOM      5  C   UNL d   1      24.273  10.274  -9.410 -0.17 +0.04    +0.066    30.209
ATOM      6  C   UNL d   1      25.256  11.282  -9.360 -0.17 -0.01    -0.021    30.209
ATOM      7  C   UNL d   1      25.778  11.266  -8.081 -0.21 -0.01    -0.025    30.209
ATOM      8  C   UNL d   1      25.081  10.262  -7.402 -0.23 +0.03    +0.066    30.209
ATOM      9  C   UNL d   1      26.891  12.156  -7.507 -0.24 +0.01    +0.051    30.209
ATOM     10  C   UNL d   1      24.690   8.993  -5.335 -0.34 +0.02    +0.066    30.209
ATOM     11  C   UNL d   1      24.851   8.755  -3.953 -0.40 -0.00    -0.021    30.209
ATOM     12  C   UNL d   1      24.026   7.670  -3.642 -0.34 +0.00    +0.000    30.209
ATOM     13  C   UNL d   1      23.415   7.336  -4.851 -0.19 +0.01    +0.070    30.209
ATOM     14  C   UNL d   1      25.669   9.582  -2.995 -0.47 +0.01    +0.052    30.209
ATOM     15  C   UNL d   1      21.920   5.761  -6.142 -0.25 +0.01    +0.066    30.209
ATOM     16  C   UNL d   1      21.198   4.579  -6.224 -0.37 -0.00    -0.021    30.209
ATOM     17  C   UNL d   1      20.759   4.492  -7.553 -0.24 +0.00    +0.000    30.209
ATOM     18  C   UNL d   1      21.235   5.642  -8.175 -0.08 +0.02    +0.070    30.209
ATOM     19  C   UNL d   1      20.964   3.614  -5.083 -0.31 +0.01    +0.052    30.209
ATOM     20  C   UNL d   1      21.596   7.066 -10.225 -0.13 +0.03    +0.066    30.209
ATOM     21  C   UNL d   1      21.395   7.284 -11.586 -0.07 -0.01    -0.025    30.209
ATOM     22  C   UNL d   1      22.094   8.439 -11.887 -0.06 -0.01    -0.021    30.209
ATOM     23  C   UNL d   1      22.701   8.866 -10.686 -0.12 +0.04    +0.066    30.209
ATOM     24  C   UNL d   1      20.594   6.423 -12.559 -0.05 +0.02    +0.051    30.209
ATOM     25  N   UNL d   1      24.138   9.634  -8.199 -0.13 -0.14    -0.248    30.209
ATOM     26  N   UNL d   1      23.775   8.171  -5.861 -0.21 -0.06    -0.248    30.209
ATOM     27  N   UNL d   1      21.947   6.359  -7.313 -0.15 -0.07    -0.248    30.209
ATOM     28  N   UNL d   1      22.403   8.036  -9.679 -0.11 -0.13    -0.248    30.209
ATOM     29 FE   UNL d   1      22.976   7.900  -7.733 -0.06 +0.00    +0.000    30.209
ATOM     30  C   UNL d   1      25.720  12.157 -10.519 -0.10 +0.02    +0.052    30.209
ATOM     31  C   UNL d   1      26.885  11.498 -11.258 -0.09 +0.08    +0.115    30.209
ATOM     32  C   UNL d   1      26.436  10.757 -12.498 -0.08 +0.12    +0.139    30.209
ATOM     33  O   UNL d   1      25.805  11.352 -13.359 +0.00 -0.32    -0.650    30.209
ATOM     34  O   UNL d   1      26.752   9.458 -12.713 -0.28 -1.36    -0.776    30.209
ATOM     35  H   UNL d   1      26.435   8.938 -13.464 -0.00 +0.22    +0.167    30.209
ATOM     36  C   UNL d   1      24.653   6.767  -8.281 -0.10 +0.16    +0.190    30.209
ATOM     37  O   UNL d   1      26.047   6.818  -8.383 -0.60 -0.57    -0.399    30.209
ATOM     38  H   UNL d   1      26.374   6.094  -7.779 -0.43 +0.10    +0.209    30.209
ATOM     39  C   UNL d   1      22.221   9.057 -13.267 -0.02 +0.02    +0.052    30.209
ATOM     40  C   UNL d   1      23.251   8.290 -14.112 -0.01 +0.05    +0.115    30.209
ATOM     41  C   UNL d   1      23.963   7.177 -13.371 -0.04 +0.10    +0.139    30.209
ATOM     42  O   UNL d   1      23.535   6.035 -13.452 +0.02 -0.35    -0.650    30.209
ATOM     43  O   UNL d   1      25.111   7.397 -12.692 +0.27 -1.37    -0.776    30.209
ATOM     44  H   UNL d   1      25.519   8.270 -12.632 +0.02 +0.37    +0.167    30.209
ATOM     45  C   UNL d   1      23.731   6.928  -2.345 -0.42 +0.00    +0.004    30.209
ATOM     46  C   UNL d   1      24.159   5.747  -1.907 -0.42 +0.00    +0.012    30.209
ATOM     47  C   UNL d   1      19.995   3.406  -8.236 -0.40 +0.00    +0.004    30.209
ATOM     48  C   UNL d   1      18.832   2.929  -7.788 -0.41 +0.00    +0.012    30.209
TER
ENDMDL
MODEL       13
USER    Run = 13
USER    Cluster Rank = 9
USER    Number of conformations in this cluster = 3
USER  
USER    RMSD from reference structure       = 49.374 A
USER  
USER    Estimated Free Energy of Binding    =   -7.63 kcal/mol  [=(1)+(2)+(3)-(4)]
USER    Estimated Inhibition Constant, Ki   =    2.54 uM (micromolar)  [Temperature = 298.15 K]
USER    
USER    (1) Final Intermolecular Energy     =  -11.21 kcal/mol
USER        vdW + Hbond + desolv Energy     =   -7.07 kcal/mol
USER        Electrostatic Energy            =   -4.14 kcal/mol
USER    (2) Final Total Internal Energy     =   -0.84 kcal/mol
USER    (3) Torsional Free Energy           =   +3.58 kcal/mol
USER    (4) Unbound System's Energy  [=(2)] =   -0.84 kcal/mol
USER    
USER    
USER  
USER    DPF = D:/Protein_go_brrr/autodock/final/1A3N/heme_Co/dock.dpf
USER    NEWDPF move	heme_Co_opt.pdbqt
USER    NEWDPF about	8.781000 34.984000 -0.736000
USER    NEWDPF tran0	6.395595 -13.860647 19.959695
USER    NEWDPF axisangle0	0.637773 0.567028 0.521272 164.931082
USER    NEWDPF quaternion0	0.632266 0.562133 0.516772 0.131122
USER    NEWDPF dihe0	-14.39 173.77 30.53 57.17 -87.91 -15.84 -164.17 -74.35 63.71 90.02 179.64 -178.55 
USER  
USER                              x       y       z    vdW   Elec        q     RMS 
ATOM      1  C   UNL d   1       6.709 -15.775  18.984 -0.12 +0.03    +0.064    49.374
ATOM      2  C   UNL d   1       6.139 -11.374  17.276 -0.13 +0.02    +0.064    49.374
ATOM      3  C   UNL d   1       5.322  -9.728  21.687 -0.15 +0.02    +0.064    49.374
ATOM      4  C   UNL d   1       6.281 -14.140  23.497 -0.18 +0.01    +0.064    49.374
ATOM      5  C   UNL d   1       6.577 -14.700  18.189 -0.09 +0.03    +0.066    49.374
ATOM      6  C   UNL d   1       6.816 -14.762  16.803 -0.05 -0.01    -0.021    49.374
ATOM      7  C   UNL d   1       6.672 -13.478  16.316 -0.06 -0.01    -0.025    49.374
ATOM      8  C   UNL d   1       6.335 -12.691  17.422 -0.07 +0.02    +0.066    49.374
ATOM      9  C   UNL d   1       6.841 -12.994  14.867 -0.13 +0.03    +0.051    49.374
ATOM     10  C   UNL d   1       5.764 -10.490  18.351 -0.14 +0.02    +0.066    49.374
ATOM     11  C   UNL d   1       5.407  -9.128  18.238 -0.20 -0.01    -0.021    49.374
ATOM     12  C   UNL d   1       5.171  -8.674  19.539 -0.19 +0.00    +0.000    49.374
ATOM     13  C   UNL d   1       5.387  -9.792  20.345 -0.16 +0.03    +0.070    49.374
ATOM     14  C   UNL d   1       5.218  -8.359  16.956 -0.29 +0.01    +0.052    49.374
ATOM     15  C   UNL d   1       5.567 -10.765  22.670 -0.15 +0.02    +0.066    49.374
ATOM     16  C   UNL d   1       5.625 -10.597  24.046 -0.19 -0.00    -0.021    49.374
ATOM     17  C   UNL d   1       5.904 -11.867  24.572 -0.19 +0.00    +0.000    49.374
ATOM     18  C   UNL d   1       5.977 -12.715  23.472 -0.15 +0.02    +0.070    49.374
ATOM     19  C   UNL d   1       5.424  -9.290  24.779 -0.29 -0.00    +0.052    49.374
ATOM     20  C   UNL d   1       6.443 -14.967  22.436 -0.20 +0.02    +0.066    49.374
ATOM     21  C   UNL d   1       6.770 -16.313  22.585 -0.19 -0.01    -0.025    49.374
ATOM     22  C   UNL d   1       6.871 -16.817  21.302 -0.18 -0.01    -0.021    49.374
ATOM     23  C   UNL d   1       6.611 -15.742  20.425 -0.16 +0.03    +0.066    49.374
ATOM     24  C   UNL d   1       6.995 -17.078  23.887 -0.16 +0.01    +0.051    49.374
ATOM     25  N   UNL d   1       6.264 -13.423  18.595 +0.14 -0.10    -0.248    49.374
ATOM     26  N   UNL d   1       5.691 -10.902  19.621 -0.10 -0.09    -0.248    49.374
ATOM     27  N   UNL d   1       5.801 -12.019  22.354 -0.10 -0.09    -0.248    49.374
ATOM     28  N   UNL d   1       6.353 -14.620  21.108 -0.11 -0.12    -0.248    49.374
ATOM     29 FE   UNL d   1       6.019 -12.683  20.588 -0.04 +0.00    +0.000    49.374
ATOM     30  C   UNL d   1       7.244 -15.991  16.007 -0.03 +0.04    +0.052    49.374
ATOM     31  C   UNL d   1       8.761 -16.009  15.822 -0.04 +0.11    +0.115    49.374
ATOM     32  C   UNL d   1       9.165 -15.945  14.364 +0.07 +0.22    +0.139    49.374
ATOM     33  O   UNL d   1       8.930 -14.934  13.720 -0.40 -1.19    -0.650    49.374
ATOM     34  O   UNL d   1       9.826 -16.958  13.758 -0.22 -1.45    -0.776    49.374
ATOM     35  H   UNL d   1      10.306 -17.653  14.229 +0.01 +0.21    +0.167    49.374
ATOM     36  C   UNL d   1       8.081 -12.305  20.580 -0.12 +0.06    +0.190    49.374
ATOM     37  O   UNL d   1       9.149 -11.933  21.404 -0.13 -0.08    -0.399    49.374
ATOM     38  H   UNL d   1       9.199 -12.649  22.097 -0.07 +0.03    +0.209    49.374
ATOM     39  C   UNL d   1       7.262 -18.238  20.943 -0.13 +0.02    +0.052    49.374
ATOM     40  C   UNL d   1       8.780 -18.436  21.086 -0.04 +0.08    +0.115    49.374
ATOM     41  C   UNL d   1       9.557 -18.267  19.798 -0.07 +0.19    +0.139    49.374
ATOM     42  O   UNL d   1       9.567 -17.176  19.244 -0.51 -1.20    -0.650    49.374
ATOM     43  O   UNL d   1      10.312 -19.264  19.287 +0.04 -1.20    -0.776    49.374
ATOM     44  H   UNL d   1      10.049 -20.192  19.336 +0.02 +0.15    +0.167    49.374
ATOM     45  C   UNL d   1       4.749  -7.326  20.107 -0.32 +0.00    +0.004    49.374
ATOM     46  C   UNL d   1       3.763  -6.507  19.751 -0.44 +0.00    +0.012    49.374
ATOM     47  C   UNL d   1       6.142 -12.282  25.987 -0.27 -0.00    +0.004    49.374
ATOM     48  C   UNL d   1       7.334 -12.659  26.454 -0.40 -0.00    +0.012    49.374
TER
ENDMDL
MODEL       47
USER    Run = 47
USER    Cluster Rank = 10
USER    Number of conformations in this cluster = 1
USER  
USER    RMSD from reference structure       = 32.110 A
USER  
USER    Estimated Free Energy of Binding    =   -7.57 kcal/mol  [=(1)+(2)+(3)-(4)]
USER    Estimated Inhibition Constant, Ki   =    2.84 uM (micromolar)  [Temperature = 298.15 K]
USER    
USER    (1) Final Intermolecular Energy     =  -11.15 kcal/mol
USER        vdW + Hbond + desolv Energy     =   -9.44 kcal/mol
USER        Electrostatic Energy            =   -1.70 kcal/mol
USER    (2) Final Total Internal Energy     =   -0.64 kcal/mol
USER    (3) Torsional Free Energy           =   +3.58 kcal/mol
USER    (4) Unbound System's Energy  [=(2)] =   -0.64 kcal/mol
USER    
USER    
USER  
USER    DPF = D:/Protein_go_brrr/autodock/final/1A3N/heme_Co/dock.dpf
USER    NEWDPF move	heme_Co_opt.pdbqt
USER    NEWDPF about	8.781000 34.984000 -0.736000
USER    NEWDPF tran0	17.486717 3.937057 14.788108
USER    NEWDPF axisangle0	-0.264213 -0.170479 -0.949278 126.154508
USER    NEWDPF quaternion0	-0.235577 -0.152002 -0.846393 0.452789
USER    NEWDPF dihe0	20.00 -93.42 -11.25 -29.29 7.39 -144.82 161.64 -93.15 -50.24 -101.05 7.76 175.42 
USER  
USER                              x       y       z    vdW   Elec        q     RMS 
ATOM      1  C   UNL d   1      17.611   2.007  13.801 -0.14 +0.01    +0.064    32.110
ATOM      2  C   UNL d   1      20.860   4.672  16.026 -0.23 -0.00    +0.064    32.110
ATOM      3  C   UNL d   1      17.655   8.171  16.593 +0.00 +0.02    +0.064    32.110
ATOM      4  C   UNL d   1      14.218   5.317  14.669 -0.25 +0.05    +0.064    32.110
ATOM      5  C   UNL d   1      18.744   2.492  14.335 -0.14 +0.01    +0.066    32.110
ATOM      6  C   UNL d   1      19.918   1.720  14.427 -0.17 +0.00    -0.021    32.110
ATOM      7  C   UNL d   1      20.850   2.490  15.093 -0.20 +0.00    -0.025    32.110
ATOM      8  C   UNL d   1      20.211   3.705  15.366 -0.17 -0.00    +0.066    32.110
ATOM      9  C   UNL d   1      22.292   2.111  15.468 -0.26 -0.01    +0.051    32.110
ATOM     10  C   UNL d   1      20.293   5.963  16.328 -0.19 +0.01    +0.066    32.110
ATOM     11  C   UNL d   1      20.965   7.069  16.892 -0.28 -0.00    -0.021    32.110
ATOM     12  C   UNL d   1      20.009   8.076  17.043 -0.26 +0.00    +0.000    32.110
ATOM     13  C   UNL d   1      18.830   7.517  16.549 -0.19 +0.02    +0.070    32.110
ATOM     14  C   UNL d   1      22.443   7.167  17.171 -0.35 +0.02    +0.052    32.110
ATOM     15  C   UNL d   1      16.339   7.727  16.179 -0.23 +0.03    +0.066    32.110
ATOM     16  C   UNL d   1      15.142   8.397  16.385 -0.24 -0.01    -0.021    32.110
ATOM     17  C   UNL d   1      14.147   7.577  15.834 -0.31 +0.00    +0.000    32.110
ATOM     18  C   UNL d   1      14.821   6.475  15.318 -0.26 +0.05    +0.070    32.110
ATOM     19  C   UNL d   1      14.993   9.736  17.072 -0.34 +0.00    +0.052    32.110
ATOM     20  C   UNL d   1      14.843   4.196  14.237 -0.17 +0.06    +0.066    32.110
ATOM     21  C   UNL d   1      14.150   3.133  13.661 -0.19 -0.02    -0.025    32.110
ATOM     22  C   UNL d   1      15.106   2.176  13.374 -0.14 -0.01    -0.021    32.110
ATOM     23  C   UNL d   1      16.344   2.701  13.804 -0.15 +0.04    +0.066    32.110
ATOM     24  C   UNL d   1      12.648   3.026  13.414 -0.12 +0.05    +0.051    32.110
ATOM     25  N   UNL d   1      18.907   3.736  14.902 -0.10 -0.08    -0.248    32.110
ATOM     26  N   UNL d   1      19.016   6.260  16.066 -0.11 -0.09    -0.248    32.110
ATOM     27  N   UNL d   1      16.121   6.584  15.568 -0.18 -0.22    -0.248    32.110
ATOM     28  N   UNL d   1      16.188   3.923  14.329 +0.02 -0.31    -0.248    32.110
ATOM     29 FE   UNL d   1      17.429   5.242  15.253 -0.05 +0.00    +0.000    32.110
ATOM     30  C   UNL d   1      20.097   0.278  13.963 -0.18 -0.01    +0.052    32.110
ATOM     31  C   UNL d   1      20.615   0.236  12.526 -0.23 +0.00    +0.115    32.110
ATOM     32  C   UNL d   1      21.848  -0.630  12.383 -0.29 -0.00    +0.139    32.110
ATOM     33  O   UNL d   1      21.982  -1.609  13.103 -0.41 +0.00    -0.650    32.110
ATOM     34  O   UNL d   1      22.792  -0.385  11.445 +0.00 +0.02    -0.776    32.110
ATOM     35  H   UNL d   1      22.875   0.448  10.961 +0.04 -0.01    +0.167    32.110
ATOM     36  C   UNL d   1      17.082   4.312  17.099 -0.32 -0.09    +0.190    32.110
ATOM     37  O   UNL d   1      17.700   3.962  18.304 -0.24 +0.61    -0.399    32.110
ATOM     38  H   UNL d   1      16.959   3.930  18.972 -0.43 -0.50    +0.209    32.110
ATOM     39  C   UNL d   1      14.831   0.808  12.780 -0.10 +0.01    +0.052    32.110
ATOM     40  C   UNL d   1      14.413  -0.186  13.876 -0.07 +0.03    +0.115    32.110
ATOM     41  C   UNL d   1      13.014   0.028  14.414 -0.06 +0.12    +0.139    32.110
ATOM     42  O   UNL d   1      12.097   0.230  13.630 -0.09 -0.91    -0.650    32.110
ATOM     43  O   UNL d   1      12.734  -0.085  15.731 +0.08 -0.68    -0.776    32.110
ATOM     44  H   UNL d   1      13.390  -0.373  16.379 +0.05 +0.05    +0.167    32.110
ATOM     45  C   UNL d   1      20.076   9.501  17.576 -0.35 +0.00    +0.004    32.110
ATOM     46  C   UNL d   1      20.766  10.014  18.591 -0.45 +0.00    +0.012    32.110
ATOM     47  C   UNL d   1      12.664   7.754  15.819 -0.46 +0.00    +0.004    32.110
ATOM     48  C   UNL d   1      12.019   8.635  16.588 -0.54 +0.00    +0.012    32.110
TER
ENDMDL
MODEL       16
USER    Run = 16
USER    Cluster Rank = 11
USER    Number of conformations in this cluster = 2
USER  
USER    RMSD from reference structure       = 34.714 A
USER  
USER    Estimated Free Energy of Binding    =   -7.42 kcal/mol  [=(1)+(2)+(3)-(4)]
USER    Estimated Inhibition Constant, Ki   =    3.65 uM (micromolar)  [Temperature = 298.15 K]
USER    
USER    (1) Final Intermolecular Energy     =  -11.00 kcal/mol
USER        vdW + Hbond + desolv Energy     =   -7.55 kcal/mol
USER        Electrostatic Energy            =   -3.45 kcal/mol
USER    (2) Final Total Internal Energy     =   -0.70 kcal/mol
USER    (3) Torsional Free Energy           =   +3.58 kcal/mol
USER    (4) Unbound System's Energy  [=(2)] =   -0.70 kcal/mol
USER    
USER    
USER  
USER    DPF = D:/Protein_go_brrr/autodock/final/1A3N/heme_Co/dock.dpf
USER    NEWDPF move	heme_Co_opt.pdbqt
USER    NEWDPF about	8.781000 34.984000 -0.736000
USER    NEWDPF tran0	6.933440 17.385569 33.528802
USER    NEWDPF axisangle0	0.345206 0.937830 0.036162 -133.419288
USER    NEWDPF quaternion0	0.317076 0.861409 0.033215 -0.395391
USER    NEWDPF dihe0	-19.68 103.46 48.08 -5.53 86.83 138.82 127.77 88.99 -68.30 -104.90 55.86 -6.98 
USER  
USER                              x       y       z    vdW   Elec        q     RMS 
ATOM      1  C   UNL d   1       7.537  16.840  35.542 +0.05 +0.08    +0.064    34.714
ATOM      2  C   UNL d   1       8.164  14.719  31.333 -0.31 +0.02    +0.064    34.714
ATOM      3  C   UNL d   1       5.464  18.042  29.213 -0.22 +0.00    +0.064    34.714
ATOM      4  C   UNL d   1       5.128  20.440  33.432 -0.09 +0.01    +0.064    34.714
ATOM      5  C   UNL d   1       7.877  15.996  34.554 -0.12 +0.07    +0.066    34.714
ATOM      6  C   UNL d   1       8.742  14.905  34.767 -0.13 -0.02    -0.021    34.714
ATOM      7  C   UNL d   1       8.939  14.307  33.538 -0.19 -0.02    -0.025    34.714
ATOM      8  C   UNL d   1       8.173  15.047  32.631 -0.21 +0.04    +0.066    34.714
ATOM      9  C   UNL d   1       9.813  13.085  33.214 -0.23 +0.03    +0.051    34.714
ATOM     10  C   UNL d   1       7.387  15.405  30.332 -0.31 +0.02    +0.066    34.714
ATOM     11  C   UNL d   1       7.225  15.024  28.982 -0.38 -0.00    -0.021    34.714
ATOM     12  C   UNL d   1       6.430  16.009  28.388 -0.47 +0.00    +0.000    34.714
ATOM     13  C   UNL d   1       6.156  16.907  29.419 -0.36 +0.01    +0.070    34.714
ATOM     14  C   UNL d   1       7.725  13.752  28.347 -0.35 +0.01    +0.052    34.714
ATOM     15  C   UNL d   1       5.136  19.102  30.147 -0.30 +0.01    +0.066    34.714
ATOM     16  C   UNL d   1       4.544  20.317  29.837 -0.32 +0.00    -0.021    34.714
ATOM     17  C   UNL d   1       4.447  21.014  31.050 -0.17 +0.00    +0.000    34.714
ATOM     18  C   UNL d   1       4.974  20.157  32.010 -0.14 +0.01    +0.070    34.714
ATOM     19  C   UNL d   1       4.111  20.755  28.455 -0.24 -0.00    +0.052    34.714
ATOM     20  C   UNL d   1       5.716  19.659  34.369 -0.09 +0.03    +0.066    34.714
ATOM     21  C   UNL d   1       5.835  20.056  35.699 -0.06 -0.01    -0.025    34.714
ATOM     22  C   UNL d   1       6.500  19.025  36.338 -0.07 -0.01    -0.021    34.714
ATOM     23  C   UNL d   1       6.766  18.048  35.355 -0.10 +0.06    +0.066    34.714
ATOM     24  C   UNL d   1       5.358  21.362  36.328 -0.02 +0.01    +0.051    34.714
ATOM     25  N   UNL d   1       7.499  16.096  33.234 -0.13 -0.20    -0.248    34.714
ATOM     26  N   UNL d   1       6.688  16.511  30.606 -0.20 -0.08    -0.248    34.714
ATOM     27  N   UNL d   1       5.403  19.041  31.432 -0.15 -0.06    -0.248    34.714
ATOM     28  N   UNL d   1       6.295  18.429  34.162 -0.08 -0.18    -0.248    34.714
ATOM     29 FE   UNL d   1       6.388  17.657  32.283 -0.05 +0.00    +0.000    34.714
ATOM     30  C   UNL d   1       9.409  14.517  36.082 -0.09 +0.04    +0.052    34.714
ATOM     31  C   UNL d   1       9.411  12.998  36.256 -0.09 +0.09    +0.115    34.714
ATOM     32  C   UNL d   1      10.797  12.404  36.128 -0.08 +0.19    +0.139    34.714
ATOM     33  O   UNL d   1      11.743  13.135  35.877 -0.14 -1.18    -0.650    34.714
ATOM     34  O   UNL d   1      11.035  11.087  36.331 +0.03 -1.29    -0.776    34.714
ATOM     35  H   UNL d   1      10.474  10.510  36.867 +0.04 +0.17    +0.167    34.714
ATOM     36  C   UNL d   1       8.225  18.612  31.957 -0.12 +0.05    +0.190    34.714
ATOM     37  O   UNL d   1       9.566  18.616  32.356 -0.09 -0.10    -0.399    34.714
ATOM     38  H   UNL d   1       9.599  18.010  33.148 +0.06 +0.07    +0.209    34.714
ATOM     39  C   UNL d   1       6.912  19.015  37.798 -0.03 +0.02    +0.052    34.714
ATOM     40  C   UNL d   1       5.848  18.313  38.657 -0.04 +0.06    +0.115    34.714
ATOM     41  C   UNL d   1       5.751  16.818  38.434 -0.05 +0.13    +0.139    34.714
ATOM     42  O   UNL d   1       4.652  16.306  38.279 -0.25 -0.92    -0.650    34.714
ATOM     43  O   UNL d   1       6.853  16.045  38.315 -0.02 -0.72    -0.776    34.714
ATOM     44  H   UNL d   1       7.553  16.032  38.981 +0.01 +0.10    +0.167    34.714
ATOM     45  C   UNL d   1       5.885  16.193  26.978 -0.47 +0.00    +0.004    34.714
ATOM     46  C   UNL d   1       6.212  15.590  25.838 -0.54 +0.00    +0.012    34.714
ATOM     47  C   UNL d   1       3.951  22.397  31.319 -0.10 -0.00    +0.004    34.714
ATOM     48  C   UNL d   1       2.684  22.775  31.133 -0.13 -0.00    +0.012    34.714
TER
ENDMDL
MODEL       83
USER    Run = 83
USER    Cluster Rank = 12
USER    Number of conformations in this cluster = 4
USER  
USER    RMSD from reference structure       = 41.861 A
USER  
USER    Estimated Free Energy of Binding    =   -7.36 kcal/mol  [=(1)+(2)+(3)-(4)]
USER    Estimated Inhibition Constant, Ki   =    4.00 uM (micromolar)  [Temperature = 298.15 K]
USER    
USER    (1) Final Intermolecular Energy     =  -10.94 kcal/mol
USER        vdW + Hbond + desolv Energy     =   -8.41 kcal/mol
USER        Electrostatic Energy            =   -2.53 kcal/mol
USER    (2) Final Total Internal Energy     =   -2.26 kcal/mol
USER    (3) Torsional Free Energy           =   +3.58 kcal/mol
USER    (4) Unbound System's Energy  [=(2)] =   -2.26 kcal/mol
USER    
USER    
USER  
USER    DPF = D:/Protein_go_brrr/autodock/final/1A3N/heme_Co/dock.dpf
USER    NEWDPF move	heme_Co_opt.pdbqt
USER    NEWDPF about	8.781000 34.984000 -0.736000
USER    NEWDPF tran0	0.991982 -7.675120 -7.882825
USER    NEWDPF axisangle0	0.618051 -0.042569 0.784984 159.127909
USER    NEWDPF quaternion0	0.607827 -0.041865 0.771999 0.181138
USER    NEWDPF dihe0	-29.35 123.20 160.42 106.18 144.72 113.09 -138.47 -85.87 -180.00 -98.80 -3.71 -6.96 
USER  
USER                              x       y       z    vdW   Elec        q     RMS 
ATOM      1  C   UNL d   1       0.674  -7.632 -10.031 -0.13 +0.05    +0.064    41.861
ATOM      2  C   UNL d   1       3.381  -4.991  -7.148 -0.36 +0.01    +0.064    41.861
ATOM      3  C   UNL d   1       1.578  -7.236  -3.336 -0.31 +0.01    +0.064    41.861
ATOM      4  C   UNL d   1      -0.909 -10.207  -6.277 -0.15 +0.02    +0.064    41.861
ATOM      5  C   UNL d   1       1.519  -6.721  -9.521 -0.17 +0.04    +0.066    41.861
ATOM      6  C   UNL d   1       2.312  -5.896 -10.342 -0.12 -0.01    -0.021    41.861
ATOM      7  C   UNL d   1       3.112  -5.147  -9.501 -0.18 -0.01    -0.025    41.861
ATOM      8  C   UNL d   1       2.762  -5.536  -8.203 -0.24 +0.02    +0.066    41.861
ATOM      9  C   UNL d   1       4.170  -4.104  -9.889 -0.21 +0.01    +0.051    41.861
ATOM     10  C   UNL d   1       3.070  -5.309  -5.777 -0.19 +0.02    +0.066    41.861
ATOM     11  C   UNL d   1       3.583  -4.672  -4.626 -0.41 -0.00    -0.021    41.861
ATOM     12  C   UNL d   1       3.038  -5.344  -3.529 -0.29 +0.00    +0.000    41.861
ATOM     13  C   UNL d   1       2.225  -6.330  -4.089 -0.21 +0.01    +0.070    41.861
ATOM     14  C   UNL d   1       4.458  -3.446  -4.600 -0.51 +0.01    +0.052    41.861
ATOM     15  C   UNL d   1       0.743  -8.347  -3.748 -0.36 +0.01    +0.066    41.861
ATOM     16  C   UNL d   1       0.221  -9.335  -2.924 -0.41 -0.00    -0.021    41.861
ATOM     17  C   UNL d   1      -0.495 -10.196  -3.768 -0.37 +0.00    +0.000    41.861
ATOM     18  C   UNL d   1      -0.367  -9.654  -5.043 -0.26 +0.01    +0.070    41.861
ATOM     19  C   UNL d   1       0.416  -9.421  -1.426 -0.49 +0.00    +0.052    41.861
ATOM     20  C   UNL d   1      -0.725  -9.746  -7.538 -0.12 +0.03    +0.066    41.861
ATOM     21  C   UNL d   1      -1.269 -10.386  -8.650 -0.12 -0.01    -0.025    41.861
ATOM     22  C   UNL d   1      -0.853  -9.650  -9.744 -0.11 -0.01    -0.021    41.861
ATOM     23  C   UNL d   1      -0.061  -8.595  -9.242 -0.13 +0.05    +0.066    41.861
ATOM     24  C   UNL d   1      -2.125 -11.649  -8.671 -0.09 +0.01    +0.051    41.861
ATOM     25  N   UNL d   1       1.773  -6.505  -8.186 -0.13 -0.13    -0.248    41.861
ATOM     26  N   UNL d   1       2.201  -6.271  -5.448 -0.06 -0.07    -0.248    41.861
ATOM     27  N   UNL d   1       0.402  -8.571  -4.997 -0.22 -0.06    -0.248    41.861
ATOM     28  N   UNL d   1       0.021  -8.652  -7.907 -0.12 -0.15    -0.248    41.861
ATOM     29 FE   UNL d   1       1.044  -7.601  -6.499 -0.06 +0.00    +0.000    41.861
ATOM     30  C   UNL d   1       2.348  -5.895 -11.867 -0.05 +0.02    +0.052    41.861
ATOM     31  C   UNL d   1       1.172  -5.099 -12.432 -0.06 +0.05    +0.115    41.861
ATOM     32  C   UNL d   1       0.262  -4.564 -11.347 -0.17 +0.11    +0.139    41.861
ATOM     33  O   UNL d   1       0.460  -3.447 -10.894 +0.04 -0.40    -0.650    41.861
ATOM     34  O   UNL d   1      -0.800  -5.267 -10.890 +0.02 -1.45    -0.776    41.861
ATOM     35  H   UNL d   1      -1.338  -5.857 -11.436 +0.03 +0.27    +0.167    41.861
ATOM     36  C   UNL d   1       2.707  -8.855  -6.738 -0.21 +0.03    +0.190    41.861
ATOM     37  O   UNL d   1       3.481  -9.508  -7.703 +0.01 -0.06    -0.399    41.861
ATOM     38  H   UNL d   1       3.169  -9.137  -8.575 +0.07 +0.04    +0.209    41.861
ATOM     39  C   UNL d   1      -1.150  -9.984 -11.194 -0.05 +0.02    +0.052    41.861
ATOM     40  C   UNL d   1      -2.400  -9.231 -11.679 -0.06 +0.06    +0.115    41.861
ATOM     41  C   UNL d   1      -2.175  -7.760 -11.959 -0.07 +0.11    +0.139    41.861
ATOM     42  O   UNL d   1      -1.259  -7.426 -12.698 +0.00 -0.38    -0.650    41.861
ATOM     43  O   UNL d   1      -3.011  -6.810 -11.486 +0.04 -1.10    -0.776    41.861
ATOM     44  H   UNL d   1      -2.787  -5.871 -11.494 +0.03 +0.31    +0.167    41.861
ATOM     45  C   UNL d   1       3.175  -5.158  -2.024 -0.42 +0.00    +0.004    41.861
ATOM     46  C   UNL d   1       2.389  -4.530  -1.153 -0.45 +0.00    +0.012    41.861
ATOM     47  C   UNL d   1      -1.213 -11.466  -3.449 -0.30 +0.00    +0.004    41.861
ATOM     48  C   UNL d   1      -2.507 -11.667  -3.710 -0.30 -0.00    +0.012    41.861
TER
ENDMDL
MODEL       63
USER    Run = 63
USER    Cluster Rank = 13
USER    Number of conformations in this cluster = 1
USER  
USER    RMSD from reference structure       = 27.810 A
USER  
USER    Estimated Free Energy of Binding    =   -7.31 kcal/mol  [=(1)+(2)+(3)-(4)]
USER    Estimated Inhibition Constant, Ki   =    4.37 uM (micromolar)  [Temperature = 298.15 K]
USER    
USER    (1) Final Intermolecular Energy     =  -10.89 kcal/mol
USER        vdW + Hbond + desolv Energy     =   -8.44 kcal/mol
USER        Electrostatic Energy            =   -2.45 kcal/mol
USER    (2) Final Total Internal Energy     =   -1.01 kcal/mol
USER    (3) Torsional Free Energy           =   +3.58 kcal/mol
USER    (4) Unbound System's Energy  [=(2)] =   -1.01 kcal/mol
USER    
USER    
USER  
USER    DPF = D:/Protein_go_brrr/autodock/final/1A3N/heme_Co/dock.dpf
USER    NEWDPF move	heme_Co_opt.pdbqt
USER    NEWDPF about	8.781000 34.984000 -0.736000
USER    NEWDPF tran0	16.532054 8.450086 14.872259
USER    NEWDPF axisangle0	-0.037623 0.554982 0.831011 -101.664614
USER    NEWDPF quaternion0	-0.029169 0.430278 0.644284 -0.631592
USER    NEWDPF dihe0	-27.08 -63.71 128.72 51.13 -97.69 78.04 -179.90 -167.63 -142.18 -56.27 -34.36 -35.69 
USER  
USER                              x       y       z    vdW   Elec        q     RMS 
ATOM      1  C   UNL d   1      16.071   6.505  15.721 -0.25 +0.05    +0.064    27.810
ATOM      2  C   UNL d   1      19.940   9.260  15.958 -0.16 +0.02    +0.064    27.810
ATOM      3  C   UNL d   1      17.969  12.356  12.900 -0.12 +0.01    +0.064    27.810
ATOM      4  C   UNL d   1      13.856   9.759  12.941 -0.06 +0.02    +0.064    27.810
ATOM      5  C   UNL d   1      17.288   7.012  15.982 -0.22 +0.04    +0.066    27.810
ATOM      6  C   UNL d   1      18.162   6.415  16.912 -0.28 -0.00    -0.021    27.810
ATOM      7  C   UNL d   1      19.273   7.231  16.993 -0.25 -0.00    -0.025    27.810
ATOM      8  C   UNL d   1      19.037   8.281  16.099 -0.15 +0.03    +0.066    27.810
ATOM      9  C   UNL d   1      20.518   7.043  17.875 -0.32 +0.00    +0.051    27.810
ATOM     10  C   UNL d   1      19.796  10.365  15.045 -0.08 +0.02    +0.066    27.810
ATOM     11  C   UNL d   1      20.767  11.347  14.748 -0.13 -0.01    -0.021    27.810
ATOM     12  C   UNL d   1      20.167  12.235  13.851 -0.15 +0.00    +0.000    27.810
ATOM     13  C   UNL d   1      18.883  11.724  13.657 -0.09 +0.02    +0.070    27.810
ATOM     14  C   UNL d   1      22.196  11.361  15.226 -0.23 +0.03    +0.052    27.810
ATOM     15  C   UNL d   1      16.589  12.000  12.635 -0.11 +0.01    +0.066    27.810
ATOM     16  C   UNL d   1      15.655  12.774  11.961 -0.15 -0.00    -0.021    27.810
ATOM     17  C   UNL d   1      14.466  12.030  11.972 -0.12 +0.00    +0.000    27.810
ATOM     18  C   UNL d   1      14.775  10.850  12.640 -0.07 +0.02    +0.070    27.810
ATOM     19  C   UNL d   1      15.915  14.136  11.357 -0.19 +0.00    +0.052    27.810
ATOM     20  C   UNL d   1      14.111   8.641  13.663 -0.09 +0.04    +0.066    27.810
ATOM     21  C   UNL d   1      13.135   7.680  13.915 -0.15 -0.01    -0.025    27.810
ATOM     22  C   UNL d   1      13.753   6.716  14.690 -0.25 -0.01    -0.021    27.810
ATOM     23  C   UNL d   1      15.083   7.146  14.884 -0.17 +0.06    +0.066    27.810
ATOM     24  C   UNL d   1      11.679   7.689  13.457 -0.15 +0.02    +0.051    27.810
ATOM     25  N   UNL d   1      17.817   8.168  15.455 -0.10 -0.16    -0.248    27.810
ATOM     26  N   UNL d   1      18.679  10.563  14.336 -0.03 -0.09    -0.248    27.810
ATOM     27  N   UNL d   1      16.039  10.880  13.047 -0.03 -0.07    -0.248    27.810
ATOM     28  N   UNL d   1      15.303   8.312  14.266 -0.06 -0.23    -0.248    27.810
ATOM     29 FE   UNL d   1      16.873   9.602  14.179 -0.03 +0.00    +0.000    27.810
ATOM     30  C   UNL d   1      17.894   5.162  17.738 -0.48 -0.03    +0.052    27.810
ATOM     31  C   UNL d   1      17.394   4.026  16.845 -0.35 -0.05    +0.115    27.810
ATOM     32  C   UNL d   1      18.054   4.031  15.482 -0.19 +0.04    +0.139    27.810
ATOM     33  O   UNL d   1      19.272   4.089  15.404 +0.02 -0.09    -0.650    27.810
ATOM     34  O   UNL d   1      17.338   3.923  14.339 -0.43 -1.02    -0.776    27.810
ATOM     35  H   UNL d   1      16.510   3.430  14.260 +0.04 +0.15    +0.167    27.810
ATOM     36  C   UNL d   1      16.216  10.556  15.926 -0.18 +0.03    +0.190    27.810
ATOM     37  O   UNL d   1      15.271  10.471  16.954 -0.17 -0.00    -0.399    27.810
ATOM     38  H   UNL d   1      15.423  11.286  17.510 -0.44 -0.07    +0.209    27.810
ATOM     39  C   UNL d   1      13.078   5.484  15.264 -0.36 +0.03    +0.052    27.810
ATOM     40  C   UNL d   1      12.637   4.533  14.140 -0.22 +0.09    +0.115    27.810
ATOM     41  C   UNL d   1      13.295   3.170  14.180 -0.22 +0.13    +0.139    27.810
ATOM     42  O   UNL d   1      14.420   3.062  14.648 +0.02 -0.38    -0.650    27.810
ATOM     43  O   UNL d   1      12.641   2.053  13.792 -0.27 -1.22    -0.776    27.810
ATOM     44  H   UNL d   1      13.046   1.383  13.226 +0.04 +0.15    +0.167    27.810
ATOM     45  C   UNL d   1      20.662  13.489  13.143 -0.29 +0.00    +0.004    27.810
ATOM     46  C   UNL d   1      21.824  13.745  12.548 -0.40 +0.00    +0.012    27.810
ATOM     47  C   UNL d   1      13.112  12.387  11.453 -0.17 +0.00    +0.004    27.810
ATOM     48  C   UNL d   1      12.024  12.464  12.223 -0.20 +0.00    +0.012    27.810
TER
ENDMDL
MODEL       50
USER    Run = 50
USER    Cluster Rank = 14
USER    Number of conformations in this cluster = 1
USER  
USER    RMSD from reference structure       = 49.059 A
USER  
USER    Estimated Free Energy of Binding    =   -7.26 kcal/mol  [=(1)+(2)+(3)-(4)]
USER    Estimated Inhibition Constant, Ki   =    4.76 uM (micromolar)  [Temperature = 298.15 K]
USER    
USER    (1) Final Intermolecular Energy     =  -10.84 kcal/mol
USER        vdW + Hbond + desolv Energy     =   -7.19 kcal/mol
USER        Electrostatic Energy            =   -3.65 kcal/mol
USER    (2) Final Total Internal Energy     =   -2.23 kcal/mol
USER    (3) Torsional Free Energy           =   +3.58 kcal/mol
USER    (4) Unbound System's Energy  [=(2)] =   -2.23 kcal/mol
USER    
USER    
USER  
USER    DPF = D:/Protein_go_brrr/autodock/final/1A3N/heme_Co/dock.dpf
USER    NEWDPF move	heme_Co_opt.pdbqt
USER    NEWDPF about	8.781000 34.984000 -0.736000
USER    NEWDPF tran0	9.037376 -13.721942 19.402059
USER    NEWDPF axisangle0	-0.402194 -0.767187 0.499663 -89.140211
USER    NEWDPF quaternion0	-0.282253 -0.538398 0.350654 -0.712392
USER    NEWDPF dihe0	128.55 11.76 -51.51 83.30 34.05 -139.23 -126.92 103.49 69.78 43.11 -12.13 167.06 
USER  
USER                              x       y       z    vdW   Elec        q     RMS 
ATOM      1  C   UNL d   1       9.423 -15.001  17.690 -0.10 +0.06    +0.064    49.059
ATOM      2  C   UNL d   1       6.558 -15.480  21.455 -0.21 +0.03    +0.064    49.059
ATOM      3  C   UNL d   1       8.296 -11.446  23.337 -0.18 -0.01    +0.064    49.059
ATOM      4  C   UNL d   1      10.950 -10.732  19.324 -0.12 +0.02    +0.064    49.059
ATOM      5  C   UNL d   1       8.539 -15.447  18.597 -0.12 +0.06    +0.066    49.059
ATOM      6  C   UNL d   1       7.751 -16.593  18.373 -0.09 -0.01    -0.021    49.059
ATOM      7  C   UNL d   1       6.906 -16.715  19.459 -0.14 -0.01    -0.025    49.059
ATOM      8  C   UNL d   1       7.224 -15.647  20.306 -0.14 +0.04    +0.066    49.059
ATOM      9  C   UNL d   1       5.834 -17.788  19.703 -0.13 +0.02    +0.051    49.059
ATOM     10  C   UNL d   1       6.834 -14.427  22.401 -0.21 +0.02    +0.066    49.059
ATOM     11  C   UNL d   1       6.268 -14.279  23.686 -0.19 -0.00    -0.021    49.059
ATOM     12  C   UNL d   1       6.795 -13.097  24.214 -0.22 +0.00    +0.000    49.059
ATOM     13  C   UNL d   1       7.650 -12.620  23.221 -0.20 +0.00    +0.070    49.059
ATOM     14  C   UNL d   1       5.361 -15.262  24.381 -0.18 +0.01    +0.052    49.059
ATOM     15  C   UNL d   1       9.172 -10.781  22.393 -0.28 +0.00    +0.066    49.059
ATOM     16  C   UNL d   1       9.692  -9.500  22.514 -0.31 +0.00    -0.021    49.059
ATOM     17  C   UNL d   1      10.456  -9.289  21.358 -0.25 +0.00    +0.000    49.059
ATOM     18  C   UNL d   1      10.355 -10.468  20.628 -0.19 +0.02    +0.070    49.059
ATOM     19  C   UNL d   1       9.452  -8.563  23.677 -0.42 -0.00    +0.052    49.059
ATOM     20  C   UNL d   1      10.795 -11.837  18.555 -0.09 +0.03    +0.066    49.059
ATOM     21  C   UNL d   1      11.390 -11.961  17.302 -0.07 -0.01    -0.025    49.059
ATOM     22  C   UNL d   1      10.991 -13.194  16.819 -0.06 -0.01    -0.021    49.059
ATOM     23  C   UNL d   1      10.156 -13.761  17.805 -0.10 +0.05    +0.066    49.059
ATOM     24  C   UNL d   1      12.279 -10.945  16.589 -0.11 +0.02    +0.051    49.059
ATOM     25  N   UNL d   1       8.237 -14.849  19.800 -0.05 -0.18    -0.248    49.059
ATOM     26  N   UNL d   1       7.715 -13.454  22.149 -0.15 -0.06    -0.248    49.059
ATOM     27  N   UNL d   1       9.558 -11.322  21.259 -0.16 -0.05    -0.248    49.059
ATOM     28  N   UNL d   1      10.033 -12.942  18.857 -0.07 -0.14    -0.248    49.059
ATOM     29 FE   UNL d   1       8.939 -12.981  20.570 -0.05 +0.00    +0.000    49.059
ATOM     30  C   UNL d   1       7.764 -17.476  17.130 -0.04 +0.04    +0.052    49.059
ATOM     31  C   UNL d   1       9.045 -18.308  17.074 -0.05 +0.11    +0.115    49.059
ATOM     32  C   UNL d   1       9.953 -17.894  15.936 -0.06 +0.17    +0.139    49.059
ATOM     33  O   UNL d   1      10.946 -17.223  16.173 -0.23 -1.15    -0.650    49.059
ATOM     34  O   UNL d   1       9.727 -18.285  14.660 +0.01 -0.83    -0.776    49.059
ATOM     35  H   UNL d   1       9.634 -17.677  13.914 +0.01 +0.25    +0.167    49.059
ATOM     36  C   UNL d   1       7.317 -12.093  19.582 -0.07 +0.07    +0.190    49.059
ATOM     37  O   UNL d   1       5.920 -12.025  19.572 -0.18 -0.18    -0.399    49.059
ATOM     38  H   UNL d   1       5.640 -12.617  18.820 -0.09 +0.08    +0.209    49.059
ATOM     39  C   UNL d   1      11.343 -13.761  15.457 -0.05 +0.04    +0.052    49.059
ATOM     40  C   UNL d   1      10.268 -13.392  14.421 -0.07 +0.09    +0.115    49.059
ATOM     41  C   UNL d   1       9.971 -14.482  13.413 -0.00 +0.20    +0.139    49.059
ATOM     42  O   UNL d   1      10.173 -14.271  12.226 +0.01 -1.05    -0.650    49.059
ATOM     43  O   UNL d   1       9.570 -15.714  13.797 -0.48 -1.61    -0.776    49.059
ATOM     44  H   UNL d   1       9.993 -16.197  14.519 +0.02 +0.23    +0.167    49.059
ATOM     45  C   UNL d   1       6.605 -12.378  25.543 -0.28 -0.00    +0.004    49.059
ATOM     46  C   UNL d   1       7.074 -12.660  26.756 -0.41 -0.00    +0.012    49.059
ATOM     47  C   UNL d   1      11.196  -8.070  20.913 -0.28 +0.00    +0.004    49.059
ATOM     48  C   UNL d   1      11.437  -7.023  21.706 -0.35 +0.00    +0.012    49.059
TER
ENDMDL
MODEL       60
USER    Run = 60
USER    Cluster Rank = 15
USER    Number of conformations in this cluster = 1
USER  
USER    RMSD from reference structure       = 38.224 A
USER  
USER    Estimated Free Energy of Binding    =   -7.18 kcal/mol  [=(1)+(2)+(3)-(4)]
USER    Estimated Inhibition Constant, Ki   =    5.47 uM (micromolar)  [Temperature = 298.15 K]
USER    
USER    (1) Final Intermolecular Energy     =  -10.76 kcal/mol
USER        vdW + Hbond + desolv Energy     =   -9.01 kcal/mol
USER        Electrostatic Energy            =   -1.75 kcal/mol
USER    (2) Final Total Internal Energy     =   -1.55 kcal/mol
USER    (3) Torsional Free Energy           =   +3.58 kcal/mol
USER    (4) Unbound System's Energy  [=(2)] =   -1.55 kcal/mol
USER    
USER    
USER  
USER    DPF = D:/Protein_go_brrr/autodock/final/1A3N/heme_Co/dock.dpf
USER    NEWDPF move	heme_Co_opt.pdbqt
USER    NEWDPF about	8.781000 34.984000 -0.736000
USER    NEWDPF tran0	18.563415 -3.553279 10.351907
USER    NEWDPF axisangle0	0.850588 -0.521171 0.069865 -94.592977
USER    NEWDPF quaternion0	0.625074 -0.382994 0.051342 -0.678205
USER    NEWDPF dihe0	-147.38 108.28 -8.65 115.51 17.25 134.53 6.24 -108.52 -161.44 -23.35 167.36 -130.86 
USER  
USER                              x       y       z    vdW   Elec        q     RMS 
ATOM      1  C   UNL d   1      17.320  -1.901   9.690 -0.18 -0.00    +0.064    38.224
ATOM      2  C   UNL d   1      17.961  -6.297   7.994 -0.23 +0.00    +0.064    38.224
ATOM      3  C   UNL d   1      21.368  -7.095  11.247 -0.29 +0.00    +0.064    38.224
ATOM      4  C   UNL d   1      20.464  -2.751  13.241 -0.16 -0.00    +0.064    38.224
ATOM      5  C   UNL d   1      17.270  -3.031   8.964 -0.17 -0.00    +0.066    38.224
ATOM      6  C   UNL d   1      16.325  -3.218   7.936 -0.22 +0.00    -0.021    38.224
ATOM      7  C   UNL d   1      16.501  -4.503   7.463 -0.22 +0.00    -0.025    38.224
ATOM      8  C   UNL d   1      17.555  -5.040   8.211 -0.19 +0.00    +0.066    38.224
ATOM      9  C   UNL d   1      15.714  -5.214   6.351 -0.17 +0.01    +0.051    38.224
ATOM     10  C   UNL d   1      19.053  -6.925   8.695 -0.19 +0.00    +0.066    38.224
ATOM     11  C   UNL d   1      19.618  -8.189   8.419 -0.26 +0.00    -0.021    38.224
ATOM     12  C   UNL d   1      20.612  -8.394   9.380 -0.29 -0.00    +0.000    38.224
ATOM     13  C   UNL d   1      20.589  -7.239  10.161 -0.19 +0.00    +0.070    38.224
ATOM     14  C   UNL d   1      19.281  -9.081   7.252 -0.29 +0.00    +0.052    38.224
ATOM     15  C   UNL d   1      21.436  -5.998  12.192 -0.25 +0.00    +0.066    38.224
ATOM     16  C   UNL d   1      22.160  -5.974  13.376 -0.37 -0.00    -0.021    38.224
ATOM     17  C   UNL d   1      21.900  -4.724  13.956 -0.33 -0.00    +0.000    38.224
ATOM     18  C   UNL d   1      21.049  -4.075  13.068 -0.20 -0.00    +0.070    38.224
ATOM     19  C   UNL d   1      23.035  -7.095  13.891 -0.26 +0.00    +0.052    38.224
ATOM     20  C   UNL d   1      19.566  -2.135  12.435 -0.12 -0.00    +0.066    38.224
ATOM     21  C   UNL d   1      19.048  -0.875  12.726 -0.12 +0.00    -0.025    38.224
ATOM     22  C   UNL d   1      18.161  -0.591  11.704 -0.15 -0.00    -0.021    38.224
ATOM     23  C   UNL d   1      18.172  -1.706  10.840 -0.13 -0.00    +0.066    38.224
ATOM     24  C   UNL d   1      19.368   0.009  13.929 -0.15 -0.01    +0.051    38.224
ATOM     25  N   UNL d   1      18.054  -4.147   9.144 -0.13 +0.00    -0.248    38.224
ATOM     26  N   UNL d   1      19.684  -6.328   9.712 -0.05 -0.01    -0.248    38.224
ATOM     27  N   UNL d   1      20.770  -4.874  12.045 -0.12 -0.00    -0.248    38.224
ATOM     28  N   UNL d   1      19.020  -2.644  11.280 -0.09 +0.00    -0.248    38.224
ATOM     29 FE   UNL d   1      19.492  -4.529  10.682 -0.04 +0.00    +0.000    38.224
ATOM     30  C   UNL d   1      15.253  -2.227   7.495 -0.34 -0.02    +0.052    38.224
ATOM     31  C   UNL d   1      13.868  -2.708   7.923 -0.29 -0.06    +0.115    38.224
ATOM     32  C   UNL d   1      13.933  -3.782   8.988 -0.19 +0.00    +0.139    38.224
ATOM     33  O   UNL d   1      13.397  -4.861   8.787 -0.03 -0.35    -0.650    38.224
ATOM     34  O   UNL d   1      14.611  -3.604  10.146 +0.08 -0.02    -0.776    38.224
ATOM     35  H   UNL d   1      15.013  -4.320  10.656 +0.03 +0.02    +0.167    38.224
ATOM     36  C   UNL d   1      17.909  -5.310  11.812 -0.04 +0.02    +0.190    38.224
ATOM     37  O   UNL d   1      16.516  -5.302  11.932 +0.01 -0.05    -0.399    38.224
ATOM     38  H   UNL d   1      16.204  -4.637  11.257 +0.03 +0.02    +0.209    38.224
ATOM     39  C   UNL d   1      17.303   0.657  11.605 -0.21 +0.01    +0.052    38.224
ATOM     40  C   UNL d   1      16.967   1.197  13.005 -0.12 +0.02    +0.115    38.224
ATOM     41  C   UNL d   1      16.751   2.695  13.061 -0.11 +0.10    +0.139    38.224
ATOM     42  O   UNL d   1      16.316   3.274  12.076 -0.02 -0.72    -0.650    38.224
ATOM     43  O   UNL d   1      16.945   3.398  14.198 -0.36 -0.73    -0.776    38.224
ATOM     44  H   UNL d   1      17.197   2.979  15.032 +0.06 +0.03    +0.167    38.224
ATOM     45  C   UNL d   1      21.588  -9.535   9.636 -0.45 -0.00    +0.004    38.224
ATOM     46  C   UNL d   1      22.901  -9.613   9.435 -0.52 -0.00    +0.012    38.224
ATOM     47  C   UNL d   1      22.356  -4.167  15.264 -0.37 -0.00    +0.004    38.224
ATOM     48  C   UNL d   1      23.063  -4.864  16.157 -0.58 -0.00    +0.012    38.224
TER
ENDMDL
MODEL       36
USER    Run = 36
USER    Cluster Rank = 16
USER    Number of conformations in this cluster = 2
USER  
USER    RMSD from reference structure       = 53.633 A
USER  
USER    Estimated Free Energy of Binding    =   -7.08 kcal/mol  [=(1)+(2)+(3)-(4)]
USER    Estimated Inhibition Constant, Ki   =    6.47 uM (micromolar)  [Temperature = 298.15 K]
USER    
USER    (1) Final Intermolecular Energy     =  -10.66 kcal/mol
USER        vdW + Hbond + desolv Energy     =   -8.16 kcal/mol
USER        Electrostatic Energy            =   -2.50 kcal/mol
USER    (2) Final Total Internal Energy     =   -0.80 kcal/mol
USER    (3) Torsional Free Energy           =   +3.58 kcal/mol
USER    (4) Unbound System's Energy  [=(2)] =   -0.80 kcal/mol
USER    
USER    
USER  
USER    DPF = D:/Protein_go_brrr/autodock/final/1A3N/heme_Co/dock.dpf
USER    NEWDPF move	heme_Co_opt.pdbqt
USER    NEWDPF about	8.781000 34.984000 -0.736000
USER    NEWDPF tran0	25.177034 -5.195917 38.346591
USER    NEWDPF axisangle0	0.571546 -0.539436 -0.618340 -168.766469
USER    NEWDPF quaternion0	0.568802 -0.536846 -0.615371 -0.097874
USER    NEWDPF dihe0	110.19 105.07 -45.14 46.44 78.87 143.46 151.70 -25.39 -15.92 172.59 12.82 -4.95 
USER  
USER                              x       y       z    vdW   Elec        q     RMS 
ATOM      1  C   UNL d   1      26.263  -4.450  40.073 -0.04 +0.03    +0.064    53.633
ATOM      2  C   UNL d   1      24.139  -2.243  36.436 -0.33 +0.01    +0.064    53.633
ATOM      3  C   UNL d   1      23.184  -6.453  34.389 -0.25 +0.01    +0.064    53.633
ATOM      4  C   UNL d   1      25.004  -8.741  38.277 -0.07 +0.06    +0.064    53.633
ATOM      5  C   UNL d   1      25.785  -3.536  39.212 -0.08 +0.02    +0.066    53.633
ATOM      6  C   UNL d   1      25.812  -2.157  39.495 -0.15 -0.01    -0.021    53.633
ATOM      7  C   UNL d   1      25.174  -1.523  38.446 -0.18 -0.00    -0.025    53.633
ATOM      8  C   UNL d   1      24.800  -2.540  37.562 -0.20 +0.01    +0.066    53.633
ATOM      9  C   UNL d   1      24.918  -0.018  38.270 -0.35 +0.00    +0.051    53.633
ATOM     10  C   UNL d   1      23.737  -3.219  35.454 -0.29 +0.01    +0.066    53.633
ATOM     11  C   UNL d   1      23.167  -2.958  34.189 -0.41 -0.00    -0.021    53.633
ATOM     12  C   UNL d   1      22.902  -4.203  33.612 -0.40 +0.00    +0.000    53.633
ATOM     13  C   UNL d   1      23.341  -5.129  34.559 -0.24 +0.01    +0.070    53.633
ATOM     14  C   UNL d   1      22.986  -1.603  33.554 -0.32 +0.01    +0.052    53.633
ATOM     15  C   UNL d   1      23.529  -7.542  35.282 -0.24 +0.02    +0.066    53.633
ATOM     16  C   UNL d   1      23.208  -8.881  35.109 -0.27 -0.01    -0.021    53.633
ATOM     17  C   UNL d   1      23.729  -9.545  36.229 -0.19 +0.00    +0.000    53.633
ATOM     18  C   UNL d   1      24.343  -8.557  36.992 -0.15 +0.04    +0.070    53.633
ATOM     19  C   UNL d   1      22.449  -9.456  33.934 -0.27 +0.01    +0.052    53.633
ATOM     20  C   UNL d   1      25.532  -7.784  39.078 -0.02 +0.07    +0.066    53.633
ATOM     21  C   UNL d   1      26.110  -8.081  40.310 -0.06 -0.02    -0.025    53.633
ATOM     22  C   UNL d   1      26.508  -6.866  40.837 -0.04 -0.01    -0.021    53.633
ATOM     23  C   UNL d   1      26.139  -5.879  39.899 -0.06 +0.05    +0.066    53.633
ATOM     24  C   UNL d   1      26.259  -9.453  40.963 -0.04 +0.03    +0.051    53.633
ATOM     25  N   UNL d   1      25.171  -3.797  38.008 -0.07 -0.08    -0.248    53.633
ATOM     26  N   UNL d   1      23.896  -4.532  35.648 -0.14 -0.06    -0.248    53.633
ATOM     27  N   UNL d   1      24.178  -7.373  36.412 -0.12 -0.12    -0.248    53.633
ATOM     28  N   UNL d   1      25.546  -6.430  38.833 -0.07 -0.22    -0.248    53.633
ATOM     29 FE   UNL d   1      24.647  -5.693  37.165 -0.03 +0.00    +0.000    53.633
ATOM     30  C   UNL d   1      26.356  -1.498  40.758 -0.16 +0.02    +0.052    53.633
ATOM     31  C   UNL d   1      27.786  -1.007  40.534 -0.16 +0.04    +0.115    53.633
ATOM     32  C   UNL d   1      28.215   0.011  41.569 -0.24 +0.08    +0.139    53.633
ATOM     33  O   UNL d   1      27.641   0.051  42.647 -0.02 -0.33    -0.650    53.633
ATOM     34  O   UNL d   1      29.252   0.854  41.359 -0.41 -0.78    -0.776    53.633
ATOM     35  H   UNL d   1      29.156   1.797  41.167 -0.09 +0.15    +0.167    53.633
ATOM     36  C   UNL d   1      22.828  -5.520  38.194 -0.08 +0.05    +0.190    53.633
ATOM     37  O   UNL d   1      22.170  -4.774  39.177 -0.03 -0.07    -0.399    53.633
ATOM     38  H   UNL d   1      22.874  -4.180  39.562 +0.03 +0.04    +0.209    53.633
ATOM     39  C   UNL d   1      27.148  -6.666  42.198 -0.01 +0.02    +0.052    53.633
ATOM     40  C   UNL d   1      28.679  -6.601  42.074 -0.01 +0.06    +0.115    53.633
ATOM     41  C   UNL d   1      29.217  -7.051  40.732 -0.05 +0.14    +0.139    53.633
ATOM     42  O   UNL d   1      29.747  -6.232  39.995 -0.04 -0.70    -0.650    53.633
ATOM     43  O   UNL d   1      29.205  -8.351  40.362 -0.47 -1.21    -0.776    53.633
ATOM     44  H   UNL d   1      29.394  -9.069  40.980 +0.01 +0.14    +0.167    53.633
ATOM     45  C   UNL d   1      22.307  -4.622  32.275 -0.48 +0.00    +0.004    53.633
ATOM     46  C   UNL d   1      22.452  -4.099  31.060 -0.50 +0.00    +0.012    53.633
ATOM     47  C   UNL d   1      23.633 -10.984  36.615 -0.16 +0.00    +0.004    53.633
ATOM     48  C   UNL d   1      24.055 -11.985  35.838 -0.16 +0.00    +0.012    53.633
TER
ENDMDL
MODEL       76
USER    Run = 76
USER    Cluster Rank = 17
USER    Number of conformations in this cluster = 7
USER  
USER    RMSD from reference structure       = 52.875 A
USER  
USER    Estimated Free Energy of Binding    =   -7.06 kcal/mol  [=(1)+(2)+(3)-(4)]
USER    Estimated Inhibition Constant, Ki   =    6.65 uM (micromolar)  [Temperature = 298.15 K]
USER    
USER    (1) Final Intermolecular Energy     =  -10.64 kcal/mol
USER        vdW + Hbond + desolv Energy     =   -8.82 kcal/mol
USER        Electrostatic Energy            =   -1.82 kcal/mol
USER    (2) Final Total Internal Energy     =   -2.86 kcal/mol
USER    (3) Torsional Free Energy           =   +3.58 kcal/mol
USER    (4) Unbound System's Energy  [=(2)] =   -2.86 kcal/mol
USER    
USER    
USER  
USER    DPF = D:/Protein_go_brrr/autodock/final/1A3N/heme_Co/dock.dpf
USER    NEWDPF move	heme_Co_opt.pdbqt
USER    NEWDPF about	8.781000 34.984000 -0.736000
USER    NEWDPF tran0	22.897972 -6.957091 35.932160
USER    NEWDPF axisangle0	-0.589627 -0.713350 -0.378776 156.645545
USER    NEWDPF quaternion0	-0.577424 -0.698586 -0.370937 0.202398
USER    NEWDPF dihe0	121.20 104.53 -27.18 10.49 -36.29 98.47 156.67 -38.42 -75.85 -161.54 -168.52 156.58 
USER  
USER                              x       y       z    vdW   Elec        q     RMS 
ATOM      1  C   UNL d   1      23.107  -9.022  36.572 -0.17 +0.02    +0.064    52.875
ATOM      2  C   UNL d   1      23.701  -6.908  32.354 -0.25 +0.00    +0.064    52.875
ATOM      3  C   UNL d   1      22.156  -2.767  34.169 -0.41 +0.01    +0.064    52.875
ATOM      4  C   UNL d   1      21.909  -4.807  38.578 +0.02 +0.01    +0.064    52.875
ATOM      5  C   UNL d   1      23.348  -8.757  35.277 -0.24 +0.02    +0.066    52.875
ATOM      6  C   UNL d   1      23.893  -9.721  34.407 -0.27 -0.00    -0.021    52.875
ATOM      7  C   UNL d   1      24.084  -9.096  33.190 -0.33 -0.00    -0.025    52.875
ATOM      8  C   UNL d   1      23.633  -7.783  33.366 -0.32 +0.01    +0.066    52.875
ATOM      9  C   UNL d   1      24.669  -9.698  31.903 -0.42 +0.01    +0.051    52.875
ATOM     10  C   UNL d   1      23.237  -5.546  32.433 -0.24 +0.01    +0.066    52.875
ATOM     11  C   UNL d   1      23.150  -4.621  31.370 -0.37 -0.00    -0.021    52.875
ATOM     12  C   UNL d   1      22.693  -3.423  31.926 -0.48 +0.00    +0.000    52.875
ATOM     13  C   UNL d   1      22.523  -3.708  33.281 -0.40 +0.01    +0.070    52.875
ATOM     14  C   UNL d   1      23.400  -4.911  29.912 -0.44 +0.00    +0.052    52.875
ATOM     15  C   UNL d   1      21.985  -2.874  35.605 -0.29 +0.01    +0.066    52.875
ATOM     16  C   UNL d   1      21.745  -1.828  36.485 -0.27 -0.00    -0.021    52.875
ATOM     17  C   UNL d   1      21.675  -2.411  37.758 -0.15 +0.00    +0.000    52.875
ATOM     18  C   UNL d   1      21.862  -3.774  37.551 +0.07 +0.01    +0.070    52.875
ATOM     19  C   UNL d   1      21.599  -0.373  36.099 -0.19 -0.00    +0.052    52.875
ATOM     20  C   UNL d   1      22.175  -6.125  38.411 -0.04 +0.01    +0.066    52.875
ATOM     21  C   UNL d   1      22.227  -7.015  39.481 -0.09 -0.01    -0.025    52.875
ATOM     22  C   UNL d   1      22.542  -8.243  38.930 -0.11 -0.01    -0.021    52.875
ATOM     23  C   UNL d   1      22.679  -8.038  37.540 -0.16 +0.02    +0.066    52.875
ATOM     24  C   UNL d   1      22.008  -6.707  40.960 -0.04 +0.01    +0.051    52.875
ATOM     25  N   UNL d   1      23.166  -7.547  34.647 -0.19 -0.05    -0.248    52.875
ATOM     26  N   UNL d   1      22.799  -5.007  33.576 -0.23 -0.03    -0.248    52.875
ATOM     27  N   UNL d   1      22.074  -4.009  36.261 +0.01 -0.04    -0.248    52.875
ATOM     28  N   UNL d   1      22.460  -6.756  37.222 -0.11 -0.06    -0.248    52.875
ATOM     29 FE   UNL d   1      22.587  -5.675  35.505 -0.06 +0.00    +0.000    52.875
ATOM     30  C   UNL d   1      24.284 -11.151  34.763 -0.22 +0.01    +0.052    52.875
ATOM     31  C   UNL d   1      25.692 -11.191  35.358 -0.13 +0.04    +0.115    52.875
ATOM     32  C   UNL d   1      25.678 -11.332  36.865 -0.12 +0.07    +0.139    52.875
ATOM     33  O   UNL d   1      24.731 -11.880  37.408 +0.01 -0.19    -0.650    52.875
ATOM     34  O   UNL d   1      26.708 -10.912  37.634 +0.00 -0.69    -0.776    52.875
ATOM     35  H   UNL d   1      26.641 -10.212  38.299 +0.00 +0.21    +0.167    52.875
ATOM     36  C   UNL d   1      24.626  -5.328  35.847 -0.02 +0.07    +0.190    52.875
ATOM     37  O   UNL d   1      25.759  -5.865  36.467 -0.14 -0.31    -0.399    52.875
ATOM     38  H   UNL d   1      25.417  -6.635  37.003 +0.05 +0.20    +0.209    52.875
ATOM     39  C   UNL d   1      22.763  -9.527  39.708 -0.06 +0.01    +0.052    52.875
ATOM     40  C   UNL d   1      24.264  -9.828  39.845 -0.04 +0.04    +0.115    52.875
ATOM     41  C   UNL d   1      25.170  -8.673  39.469 -0.07 +0.11    +0.139    52.875
ATOM     42  O   UNL d   1      25.649  -7.977  40.353 -0.02 -0.46    -0.650    52.875
ATOM     43  O   UNL d   1      25.533  -8.443  38.188 -0.57 -1.08    -0.776    52.875
ATOM     44  H   UNL d   1      25.495  -9.127  37.507 +0.02 +0.20    +0.167    52.875
ATOM     45  C   UNL d   1      22.381  -2.055  31.334 -0.55 +0.00    +0.004    52.875
ATOM     46  C   UNL d   1      22.429  -1.625  30.076 -0.60 +0.00    +0.012    52.875
ATOM     47  C   UNL d   1      21.500  -1.767  39.094 -0.10 +0.00    +0.004    52.875
ATOM     48  C   UNL d   1      22.329  -0.839  39.579 -0.10 +0.00    +0.012    52.875
TER
ENDMDL
MODEL       55
USER    Run = 55
USER    Cluster Rank = 18
USER    Number of conformations in this cluster = 1
USER  
USER    RMSD from reference structure       = 37.258 A
USER  
USER    Estimated Free Energy of Binding    =   -7.01 kcal/mol  [=(1)+(2)+(3)-(4)]
USER    Estimated Inhibition Constant, Ki   =    7.22 uM (micromolar)  [Temperature = 298.15 K]
USER    
USER    (1) Final Intermolecular Energy     =  -10.59 kcal/mol
USER        vdW + Hbond + desolv Energy     =   -9.49 kcal/mol
USER        Electrostatic Energy            =   -1.10 kcal/mol
USER    (2) Final Total Internal Energy     =   -0.72 kcal/mol
USER    (3) Torsional Free Energy           =   +3.58 kcal/mol
USER    (4) Unbound System's Energy  [=(2)] =   -0.72 kcal/mol
USER    
USER    
USER  
USER    DPF = D:/Protein_go_brrr/autodock/final/1A3N/heme_Co/dock.dpf
USER    NEWDPF move	heme_Co_opt.pdbqt
USER    NEWDPF about	8.781000 34.984000 -0.736000
USER    NEWDPF tran0	5.862531 -2.278227 -10.446976
USER    NEWDPF axisangle0	-0.294232 0.809672 0.507798 -162.251853
USER    NEWDPF quaternion0	-0.290710 0.799980 0.501720 -0.154263
USER    NEWDPF dihe0	-18.92 -180.00 -168.24 -72.07 -42.69 -109.83 -81.68 -68.96 -41.56 -61.63 43.70 -163.19 
USER  
USER                              x       y       z    vdW   Elec        q     RMS 
ATOM      1  C   UNL d   1       7.107  -2.273  -8.668 -0.28 -0.00    +0.064    37.258
ATOM      2  C   UNL d   1       7.602  -0.202 -12.919 -0.16 +0.00    +0.064    37.258
ATOM      3  C   UNL d   1       3.669  -2.410 -14.495 -0.01 +0.02    +0.064    37.258
ATOM      4  C   UNL d   1       2.927  -4.234 -10.047 -0.17 +0.02    +0.064    37.258
ATOM      5  C   UNL d   1       7.552  -1.573  -9.725 -0.21 -0.00    +0.066    37.258
ATOM      6  C   UNL d   1       8.669  -0.720  -9.640 -0.32 +0.00    -0.021    37.258
ATOM      7  C   UNL d   1       8.795  -0.104 -10.870 -0.24 +0.00    -0.025    37.258
ATOM      8  C   UNL d   1       7.759  -0.620 -11.657 -0.19 +0.00    +0.066    37.258
ATOM      9  C   UNL d   1       9.843   0.932 -11.302 -0.19 -0.00    +0.051    37.258
ATOM     10  C   UNL d   1       6.583  -0.694 -13.812 -0.12 +0.01    +0.066    37.258
ATOM     11  C   UNL d   1       6.452  -0.401 -15.187 -0.11 -0.00    -0.021    37.258
ATOM     12  C   UNL d   1       5.299  -1.061 -15.622 -0.10 +0.00    +0.000    37.258
ATOM     13  C   UNL d   1       4.821  -1.716 -14.487 -0.10 +0.02    +0.070    37.258
ATOM     14  C   UNL d   1       7.427   0.381 -16.029 -0.07 +0.00    +0.052    37.258
ATOM     15  C   UNL d   1       3.004  -3.101 -13.408 -0.10 +0.02    +0.066    37.258
ATOM     16  C   UNL d   1       1.742  -3.677 -13.448 -0.10 -0.01    -0.021    37.258
ATOM     17  C   UNL d   1       1.523  -4.202 -12.167 -0.11 +0.00    +0.000    37.258
ATOM     18  C   UNL d   1       2.679  -3.919 -11.448 -0.11 +0.02    +0.070    37.258
ATOM     19  C   UNL d   1       0.829  -3.704 -14.653 -0.07 +0.02    +0.052    37.258
ATOM     20  C   UNL d   1       4.007  -3.893  -9.303 -0.22 +0.01    +0.066    37.258
ATOM     21  C   UNL d   1       4.114  -4.221  -7.954 -0.33 -0.00    -0.025    37.258
ATOM     22  C   UNL d   1       5.323  -3.694  -7.537 -0.41 -0.00    -0.021    37.258
ATOM     23  C   UNL d   1       5.892  -3.054  -8.659 -0.26 -0.00    +0.066    37.258
ATOM     24  C   UNL d   1       3.106  -4.983  -7.098 -0.34 +0.01    +0.051    37.258
ATOM     25  N   UNL d   1       6.977  -1.536 -10.975 -0.12 +0.01    -0.248    37.258
ATOM     26  N   UNL d   1       5.629  -1.539 -13.407 -0.08 -0.03    -0.248    37.258
ATOM     27  N   UNL d   1       3.527  -3.236 -12.210 -0.06 -0.05    -0.248    37.258
ATOM     28  N   UNL d   1       5.097  -3.170  -9.729 -0.13 +0.00    -0.248    37.258
ATOM     29 FE   UNL d   1       5.150  -2.439 -11.626 -0.04 +0.00    +0.000    37.258
ATOM     30  C   UNL d   1       9.520  -0.456  -8.402 -0.31 +0.00    +0.052    37.258
ATOM     31  C   UNL d   1      11.001  -0.668  -8.713 -0.32 +0.02    +0.115    37.258
ATOM     32  C   UNL d   1      11.876   0.418  -8.124 -0.25 +0.07    +0.139    37.258
ATOM     33  O   UNL d   1      13.015   0.148  -7.773 -0.04 -0.52    -0.650    37.258
ATOM     34  O   UNL d   1      11.454   1.700  -8.016 +0.04 -0.47    -0.776    37.258
ATOM     35  H   UNL d   1      10.754   2.089  -8.558 -0.24 +0.02    +0.167    37.258
ATOM     36  C   UNL d   1       4.191  -0.683 -10.999 -0.08 -0.01    +0.190    37.258
ATOM     37  O   UNL d   1       3.720   0.553 -11.455 -0.83 -0.08    -0.399    37.258
ATOM     38  H   UNL d   1       2.965   0.329 -12.069 -0.49 -0.02    +0.209    37.258
ATOM     39  C   UNL d   1       5.864  -3.749  -6.121 -0.48 +0.00    +0.052    37.258
ATOM     40  C   UNL d   1       4.929  -3.006  -5.152 -0.46 +0.01    +0.115    37.258
ATOM     41  C   UNL d   1       4.231  -3.900  -4.149 -0.42 +0.02    +0.139    37.258
ATOM     42  O   UNL d   1       4.887  -4.432  -3.264 +0.00 -0.04    -0.650    37.258
ATOM     43  O   UNL d   1       2.889  -4.058  -4.150 -0.39 -0.23    -0.776    37.258
ATOM     44  H   UNL d   1       2.406  -4.404  -3.388 +0.09 +0.05    +0.167    37.258
ATOM     45  C   UNL d   1       4.610  -1.162 -16.976 -0.08 +0.00    +0.004    37.258
ATOM     46  C   UNL d   1       3.790  -0.318 -17.596 -0.07 +0.00    +0.012    37.258
ATOM     47  C   UNL d   1       0.314  -4.878 -11.607 -0.17 +0.00    +0.004    37.258
ATOM     48  C   UNL d   1      -0.866  -4.271 -11.455 -0.24 +0.01    +0.012    37.258
TER
ENDMDL
MODEL       98
USER    Run = 98
USER    Cluster Rank = 19
USER    Number of conformations in this cluster = 1
USER  
USER    RMSD from reference structure       = 48.238 A
USER  
USER    Estimated Free Energy of Binding    =   -6.84 kcal/mol  [=(1)+(2)+(3)-(4)]
USER    Estimated Inhibition Constant, Ki   =    9.76 uM (micromolar)  [Temperature = 298.15 K]
USER    
USER    (1) Final Intermolecular Energy     =  -10.42 kcal/mol
USER        vdW + Hbond + desolv Energy     =   -6.95 kcal/mol
USER        Electrostatic Energy            =   -3.47 kcal/mol
USER    (2) Final Total Internal Energy     =   -2.20 kcal/mol
USER    (3) Torsional Free Energy           =   +3.58 kcal/mol
USER    (4) Unbound System's Energy  [=(2)] =   -2.20 kcal/mol
USER    
USER    
USER  
USER    DPF = D:/Protein_go_brrr/autodock/final/1A3N/heme_Co/dock.dpf
USER    NEWDPF move	heme_Co_opt.pdbqt
USER    NEWDPF about	8.781000 34.984000 -0.736000
USER    NEWDPF tran0	14.645103 -13.714750 13.299848
USER    NEWDPF axisangle0	-0.912811 0.293538 -0.283920 149.882218
USER    NEWDPF quaternion0	-0.881465 0.283458 -0.274170 0.259812
USER    NEWDPF dihe0	-137.43 120.26 -101.78 -114.27 78.58 89.23 -79.93 115.39 -62.81 97.53 172.14 -163.45 
USER  
USER                              x       y       z    vdW   Elec        q     RMS 
ATOM      1  C   UNL d   1      12.706 -12.853  12.838 -0.04 +0.03    +0.064    48.238
ATOM      2  C   UNL d   1      16.537 -13.721  10.158 -0.06 +0.01    +0.064    48.238
ATOM      3  C   UNL d   1      18.971 -15.119  14.024 -0.17 +0.01    +0.064    48.238
ATOM      4  C   UNL d   1      14.956 -14.608  16.722 -0.19 +0.05    +0.064    48.238
ATOM      5  C   UNL d   1      13.585 -12.953  11.827 -0.04 +0.03    +0.066    48.238
ATOM      6  C   UNL d   1      13.221 -12.694  10.492 -0.12 -0.01    -0.021    48.238
ATOM      7  C   UNL d   1      14.330 -12.969   9.716 -0.09 -0.01    -0.025    48.238
ATOM      8  C   UNL d   1      15.327 -13.369  10.612 -0.03 +0.02    +0.066    48.238
ATOM      9  C   UNL d   1      14.460 -12.866   8.188 -0.23 +0.01    +0.051    48.238
ATOM     10  C   UNL d   1      17.632 -14.120  11.006 -0.07 +0.01    +0.066    48.238
ATOM     11  C   UNL d   1      18.963 -14.366  10.604 -0.17 -0.00    -0.021    48.238
ATOM     12  C   UNL d   1      19.652 -14.768  11.752 -0.25 +0.00    +0.000    48.238
ATOM     13  C   UNL d   1      18.697 -14.726  12.768 -0.14 +0.01    +0.070    48.238
ATOM     14  C   UNL d   1      19.539 -14.133   9.231 -0.21 +0.01    +0.052    48.238
ATOM     15  C   UNL d   1      18.096 -15.190  15.178 -0.16 +0.02    +0.066    48.238
ATOM     16  C   UNL d   1      18.405 -15.744  16.412 -0.24 -0.01    -0.021    48.238
ATOM     17  C   UNL d   1      17.249 -15.601  17.193 -0.31 +0.00    +0.000    48.238
ATOM     18  C   UNL d   1      16.329 -14.954  16.375 -0.19 +0.04    +0.070    48.238
ATOM     19  C   UNL d   1      19.733 -16.364  16.788 -0.18 +0.01    +0.052    48.238
ATOM     20  C   UNL d   1      14.016 -14.057  15.916 -0.12 +0.05    +0.066    48.238
ATOM     21  C   UNL d   1      12.718 -13.805  16.354 -0.11 -0.02    -0.025    48.238
ATOM     22  C   UNL d   1      12.054 -13.272  15.264 -0.04 -0.01    -0.021    48.238
ATOM     23  C   UNL d   1      12.985 -13.237  14.203 -0.03 +0.04    +0.066    48.238
ATOM     24  C   UNL d   1      12.131 -14.076  17.737 -0.14 +0.06    +0.051    48.238
ATOM     25  N   UNL d   1      14.895 -13.363  11.927 -0.00 -0.09    -0.248    48.238
ATOM     26  N   UNL d   1      17.491 -14.280  12.326 -0.03 -0.06    -0.248    48.238
ATOM     27  N   UNL d   1      16.857 -14.752  15.173 -0.08 -0.10    -0.248    48.238
ATOM     28  N   UNL d   1      14.173 -13.714  14.594 -0.03 -0.13    -0.248    48.238
ATOM     29 FE   UNL d   1      15.932 -14.098  13.649 -0.02 +0.00    +0.000    48.238
ATOM     30  C   UNL d   1      11.842 -12.280   9.989 -0.30 +0.03    +0.052    48.238
ATOM     31  C   UNL d   1      11.132 -13.464   9.332 -0.30 +0.08    +0.115    48.238
ATOM     32  C   UNL d   1       9.888 -13.882  10.085 -0.29 +0.19    +0.139    48.238
ATOM     33  O   UNL d   1       8.957 -14.387   9.476 -0.34 -1.13    -0.650    48.238
ATOM     34  O   UNL d   1       9.789 -13.760  11.430 +0.02 -1.20    -0.776    48.238
ATOM     35  H   UNL d   1       9.357 -14.408  12.004 +0.06 +0.40    +0.167    48.238
ATOM     36  C   UNL d   1      15.250 -16.004  13.105 -0.01 +0.08    +0.190    48.238
ATOM     37  O   UNL d   1      14.092 -16.775  12.965 +0.00 -0.22    -0.399    48.238
ATOM     38  H   UNL d   1      13.339 -16.136  13.110 +0.04 +0.14    +0.209    48.238
ATOM     39  C   UNL d   1      10.588 -12.881  15.231 -0.04 +0.03    +0.052    48.238
ATOM     40  C   UNL d   1       9.694 -14.107  15.478 -0.03 +0.10    +0.115    48.238
ATOM     41  C   UNL d   1       9.333 -14.879  14.226 +0.03 +0.19    +0.139    48.238
ATOM     42  O   UNL d   1       8.198 -14.797  13.779 -0.22 -1.04    -0.650    48.238
ATOM     43  O   UNL d   1      10.255 -15.589  13.539 -0.30 -1.38    -0.776    48.238
ATOM     44  H   UNL d   1      10.722 -15.230  12.774 +0.03 +0.28    +0.167    48.238
ATOM     45  C   UNL d   1      21.099 -15.167  12.008 -0.40 +0.00    +0.004    48.238
ATOM     46  C   UNL d   1      21.613 -16.285  12.515 -0.46 +0.00    +0.012    48.238
ATOM     47  C   UNL d   1      16.974 -16.068  18.584 -0.50 +0.00    +0.004    48.238
ATOM     48  C   UNL d   1      17.720 -15.727  19.638 -0.44 +0.00    +0.012    48.238
TER
ENDMDL
MODEL       82
USER    Run = 82
USER    Cluster Rank = 20
USER    Number of conformations in this cluster = 1
USER  
USER    RMSD from reference structure       = 25.944 A
USER  
USER    Estimated Free Energy of Binding    =   -6.83 kcal/mol  [=(1)+(2)+(3)-(4)]
USER    Estimated Inhibition Constant, Ki   =    9.87 uM (micromolar)  [Temperature = 298.15 K]
USER    
USER    (1) Final Intermolecular Energy     =  -10.41 kcal/mol
USER        vdW + Hbond + desolv Energy     =   -8.92 kcal/mol
USER        Electrostatic Energy            =   -1.49 kcal/mol
USER    (2) Final Total Internal Energy     =   -0.61 kcal/mol
USER    (3) Torsional Free Energy           =   +3.58 kcal/mol
USER    (4) Unbound System's Energy  [=(2)] =   -0.61 kcal/mol
USER    
USER    
USER  
USER    DPF = D:/Protein_go_brrr/autodock/final/1A3N/heme_Co/dock.dpf
USER    NEWDPF move	heme_Co_opt.pdbqt
USER    NEWDPF about	8.781000 34.984000 -0.736000
USER    NEWDPF tran0	17.648257 10.725210 13.994911
USER    NEWDPF axisangle0	0.334465 -0.748457 -0.572665 -82.738665
USER    NEWDPF quaternion0	0.221051 -0.494663 -0.378480 -0.750465
USER    NEWDPF dihe0	-175.92 -28.04 -35.87 65.72 141.41 -80.90 156.16 95.22 112.53 -43.83 60.12 180.00 
USER  
USER                              x       y       z    vdW   Elec        q     RMS 
ATOM      1  C   UNL d   1      18.162  12.519  12.883 -0.12 +0.01    +0.064    25.944
ATOM      2  C   UNL d   1      14.117  10.049  13.271 -0.10 +0.02    +0.064    25.944
ATOM      3  C   UNL d   1      16.347   6.736  15.894 -0.25 +0.04    +0.064    25.944
ATOM      4  C   UNL d   1      20.394   9.434  15.837 -0.14 +0.03    +0.064    25.944
ATOM      5  C   UNL d   1      16.902  12.069  12.766 -0.11 +0.01    +0.066    25.944
ATOM      6  C   UNL d   1      15.901  12.813  12.113 -0.16 -0.00    -0.021    25.944
ATOM      7  C   UNL d   1      14.724  12.103  12.248 -0.11 -0.00    -0.025    25.944
ATOM      8  C   UNL d   1      15.060  10.949  12.963 -0.08 +0.01    +0.066    25.944
ATOM      9  C   UNL d   1      13.328  12.483  11.730 -0.14 +0.00    +0.051    25.944
ATOM     10  C   UNL d   1      14.374   8.821  13.980 -0.10 +0.04    +0.066    25.944
ATOM     11  C   UNL d   1      13.456   7.773  14.211 -0.16 -0.01    -0.021    25.944
ATOM     12  C   UNL d   1      14.134   6.818  14.975 -0.27 +0.00    +0.000    25.944
ATOM     13  C   UNL d   1      15.414   7.347  15.142 -0.17 +0.06    +0.070    25.944
ATOM     14  C   UNL d   1      12.062   7.667  13.649 -0.18 +0.02    +0.052    25.944
ATOM     15  C   UNL d   1      17.694   7.164  16.215 -0.21 +0.03    +0.066    25.944
ATOM     16  C   UNL d   1      18.557   6.558  17.117 -0.26 -0.00    -0.021    25.944
ATOM     17  C   UNL d   1      19.725   7.334  17.106 -0.27 +0.00    +0.000    25.944
ATOM     18  C   UNL d   1      19.488   8.346  16.182 -0.15 +0.02    +0.070    25.944
ATOM     19  C   UNL d   1      18.252   5.315  17.923 -0.49 -0.03    +0.052    25.944
ATOM     20  C   UNL d   1      20.153  10.477  15.007 -0.09 +0.02    +0.066    25.944
ATOM     21  C   UNL d   1      21.091  11.481  14.783 -0.14 -0.01    -0.025    25.944
ATOM     22  C   UNL d   1      20.486  12.370  13.913 -0.15 -0.01    -0.021    25.944
ATOM     23  C   UNL d   1      19.194  11.865  13.657 -0.10 +0.02    +0.066    25.944
ATOM     24  C   UNL d   1      22.490  11.600  15.383 -0.25 +0.04    +0.051    25.944
ATOM     25  N   UNL d   1      16.404  10.898  13.292 -0.03 -0.07    -0.248    25.944
ATOM     26  N   UNL d   1      15.574   8.531  14.493 -0.07 -0.21    -0.248    25.944
ATOM     27  N   UNL d   1      18.257   8.231  15.694 -0.10 -0.13    -0.248    25.944
ATOM     28  N   UNL d   1      18.987  10.721  14.319 -0.03 -0.08    -0.248    25.944
ATOM     29 FE   UNL d   1      17.389   9.487  14.564 -0.03 +0.00    +0.000    25.944
ATOM     30  C   UNL d   1      16.064  14.183  11.463 -0.18 +0.00    +0.052    25.944
ATOM     31  C   UNL d   1      15.196  14.290  10.210 -0.16 +0.01    +0.115    25.944
ATOM     32  C   UNL d   1      15.695  13.410   9.085 -0.21 +0.01    +0.139    25.944
ATOM     33  O   UNL d   1      16.335  12.403   9.349 -0.03 +0.00    -0.650    25.944
ATOM     34  O   UNL d   1      15.415  13.674   7.788 -0.02 +0.01    -0.776    25.944
ATOM     35  H   UNL d   1      15.719  13.134   7.045 -0.43 -0.05    +0.167    25.944
ATOM     36  C   UNL d   1      16.715  10.642  16.179 -0.18 +0.02    +0.190    25.944
ATOM     37  O   UNL d   1      15.984  10.574  17.369 -0.14 +0.02    -0.399    25.944
ATOM     38  H   UNL d   1      15.462  11.424  17.399 -0.40 -0.09    +0.209    25.944
ATOM     39  C   UNL d   1      21.098  13.664  13.410 -0.27 +0.01    +0.052    25.944
ATOM     40  C   UNL d   1      20.995  14.764  14.479 -0.14 +0.05    +0.115    25.944
ATOM     41  C   UNL d   1      22.292  15.498  14.748 -0.22 +0.12    +0.139    25.944
ATOM     42  O   UNL d   1      22.707  15.578  15.896 -0.26 -0.90    -0.650    25.944
ATOM     43  O   UNL d   1      23.049  15.993  13.745 +0.08 -0.54    -0.776    25.944
ATOM     44  H   UNL d   1      23.072  15.593  12.866 -0.45 +0.00    +0.167    25.944
ATOM     45  C   UNL d   1      13.728   5.466  15.546 -0.41 +0.00    +0.004    25.944
ATOM     46  C   UNL d   1      13.263   4.375  14.942 -0.36 +0.01    +0.012    25.944
ATOM     47  C   UNL d   1      20.969   7.198  17.922 -0.24 +0.00    +0.004    25.944
ATOM     48  C   UNL d   1      22.178   6.994  17.394 -0.43 +0.00    +0.012    25.944
TER
ENDMDL
MODEL       31
USER    Run = 31
USER    Cluster Rank = 21
USER    Number of conformations in this cluster = 1
USER  
USER    RMSD from reference structure       = 26.820 A
USER  
USER    Estimated Free Energy of Binding    =   -6.80 kcal/mol  [=(1)+(2)+(3)-(4)]
USER    Estimated Inhibition Constant, Ki   =   10.34 uM (micromolar)  [Temperature = 298.15 K]
USER    
USER    (1) Final Intermolecular Energy     =  -10.38 kcal/mol
USER        vdW + Hbond + desolv Energy     =   -7.45 kcal/mol
USER        Electrostatic Energy            =   -2.93 kcal/mol
USER    (2) Final Total Internal Energy     =   -2.83 kcal/mol
USER    (3) Torsional Free Energy           =   +3.58 kcal/mol
USER    (4) Unbound System's Energy  [=(2)] =   -2.83 kcal/mol
USER    
USER    
USER  
USER    DPF = D:/Protein_go_brrr/autodock/final/1A3N/heme_Co/dock.dpf
USER    NEWDPF move	heme_Co_opt.pdbqt
USER    NEWDPF about	8.781000 34.984000 -0.736000
USER    NEWDPF tran0	12.599883 7.725479 11.378109
USER    NEWDPF axisangle0	-0.868923 -0.480300 -0.119519 165.703577
USER    NEWDPF quaternion0	-0.862169 -0.476567 -0.118590 0.124436
USER    NEWDPF dihe0	34.20 121.79 -29.22 67.20 132.37 89.18 169.20 -45.67 -63.37 -156.68 -163.99 158.22 
USER  
USER                              x       y       z    vdW   Elec        q     RMS 
ATOM      1  C   UNL d   1      11.719   5.908  12.175 -0.12 +0.02    +0.064    26.820
ATOM      2  C   UNL d   1      11.470   7.970   7.898 -0.25 +0.00    +0.064    26.820
ATOM      3  C   UNL d   1      13.976  11.704   9.510 -0.08 +0.01    +0.064    26.820
ATOM      4  C   UNL d   1      14.574   9.444  13.776 -0.08 +0.03    +0.064    26.820
ATOM      5  C   UNL d   1      11.436   6.213  10.898 -0.09 +0.01    +0.066    26.820
ATOM      6  C   UNL d   1      10.760   5.317  10.047 -0.15 +0.00    -0.021    26.820
ATOM      7  C   UNL d   1      10.710   5.911   8.802 -0.21 +0.01    -0.025    26.820
ATOM      8  C   UNL d   1      11.343   7.150   8.949 -0.14 -0.00    +0.066    26.820
ATOM      9  C   UNL d   1      10.095   5.346   7.512 -0.46 -0.03    +0.051    26.820
ATOM     10  C   UNL d   1      12.082   9.273   7.960 -0.16 +0.01    +0.066    26.820
ATOM     11  C   UNL d   1      12.121  10.237   6.928 -0.28 -0.00    -0.021    26.820
ATOM     12  C   UNL d   1      12.854  11.317   7.427 -0.24 +0.00    +0.000    26.820
ATOM     13  C   UNL d   1      13.196  10.940   8.726 -0.10 +0.01    +0.070    26.820
ATOM     14  C   UNL d   1      11.416  10.150   5.599 -0.43 +0.01    +0.052    26.820
ATOM     15  C   UNL d   1      14.468  11.446  10.850 -0.07 +0.01    +0.066    26.820
ATOM     16  C   UNL d   1      15.389  12.212  11.550 -0.13 -0.00    -0.021    26.820
ATOM     17  C   UNL d   1      15.567  11.563  12.780 -0.12 +0.00    +0.000    26.820
ATOM     18  C   UNL d   1      14.724  10.458  12.739 -0.06 +0.02    +0.070    26.820
ATOM     19  C   UNL d   1      16.041  13.480  11.044 -0.18 +0.00    +0.052    26.820
ATOM     20  C   UNL d   1      13.827   8.316  13.724 -0.10 +0.04    +0.066    26.820
ATOM     21  C   UNL d   1      13.792   7.398  14.772 -0.22 -0.01    -0.025    26.820
ATOM     22  C   UNL d   1      12.954   6.382  14.351 -0.24 -0.01    -0.021    26.820
ATOM     23  C   UNL d   1      12.525   6.727  13.051 -0.13 +0.03    +0.066    26.820
ATOM     24  C   UNL d   1      14.537   7.475  16.102 -0.34 +0.02    +0.051    26.820
ATOM     25  N   UNL d   1      11.797   7.366  10.239 -0.02 -0.04    -0.248    26.820
ATOM     26  N   UNL d   1      12.681   9.728   9.065 -0.04 -0.04    -0.248    26.820
ATOM     27  N   UNL d   1      14.108  10.403  11.563 -0.01 -0.06    -0.248    26.820
ATOM     28  N   UNL d   1      13.053   7.895  12.667 -0.04 -0.12    -0.248    26.820
ATOM     29 FE   UNL d   1      13.021   8.973  10.944 -0.02 +0.00    +0.000    26.820
ATOM     30  C   UNL d   1      10.262   3.921  10.408 -0.24 -0.01    +0.052    26.820
ATOM     31  C   UNL d   1      11.411   2.914  10.367 -0.15 -0.05    +0.115    26.820
ATOM     32  C   UNL d   1      11.719   2.335  11.731 -0.19 +0.05    +0.139    26.820
ATOM     33  O   UNL d   1      10.801   2.059  12.488 -0.09 -0.90    -0.650    26.820
ATOM     34  O   UNL d   1      12.985   2.066  12.126 -0.04 -0.35    -0.776    26.820
ATOM     35  H   UNL d   1      13.764   2.553  11.826 +0.06 +0.06    +0.167    26.820
ATOM     36  C   UNL d   1      14.663   7.895  10.212 -0.13 +0.11    +0.190    26.820
ATOM     37  O   UNL d   1      15.392   6.716  10.394 -0.29 -0.50    -0.399    26.820
ATOM     38  H   UNL d   1      14.860   6.184  11.049 +0.06 +0.31    +0.209    26.820
ATOM     39  C   UNL d   1      12.639   5.120  15.132 -0.24 +0.03    +0.052    26.820
ATOM     40  C   UNL d   1      13.473   3.938  14.612 -0.26 +0.09    +0.115    26.820
ATOM     41  C   UNL d   1      14.676   4.337  13.784 -0.11 +0.15    +0.139    26.820
ATOM     42  O   UNL d   1      15.758   4.484  14.334 -0.20 -0.99    -0.650    26.820
ATOM     43  O   UNL d   1      14.606   4.452  12.439 +0.03 -0.95    -0.776    26.820
ATOM     44  H   UNL d   1      13.935   3.998  11.914 +0.06 +0.11    +0.167    26.820
ATOM     45  C   UNL d   1      13.252  12.663   6.836 -0.34 +0.00    +0.004    26.820
ATOM     46  C   UNL d   1      12.504  13.656   6.362 -0.37 +0.00    +0.012    26.820
ATOM     47  C   UNL d   1      16.485  11.895  13.910 -0.18 +0.00    +0.004    26.820
ATOM     48  C   UNL d   1      16.064  12.345  15.094 -0.30 +0.00    +0.012    26.820
TER
ENDMDL
MODEL       72
USER    Run = 72
USER    Cluster Rank = 22
USER    Number of conformations in this cluster = 1
USER  
USER    RMSD from reference structure       = 50.936 A
USER  
USER    Estimated Free Energy of Binding    =   -6.76 kcal/mol  [=(1)+(2)+(3)-(4)]
USER    Estimated Inhibition Constant, Ki   =   11.05 uM (micromolar)  [Temperature = 298.15 K]
USER    
USER    (1) Final Intermolecular Energy     =  -10.34 kcal/mol
USER        vdW + Hbond + desolv Energy     =   -7.72 kcal/mol
USER        Electrostatic Energy            =   -2.62 kcal/mol
USER    (2) Final Total Internal Energy     =   -0.92 kcal/mol
USER    (3) Torsional Free Energy           =   +3.58 kcal/mol
USER    (4) Unbound System's Energy  [=(2)] =   -0.92 kcal/mol
USER    
USER    
USER  
USER    DPF = D:/Protein_go_brrr/autodock/final/1A3N/heme_Co/dock.dpf
USER    NEWDPF move	heme_Co_opt.pdbqt
USER    NEWDPF about	8.781000 34.984000 -0.736000
USER    NEWDPF tran0	14.746619 -1.948998 39.935263
USER    NEWDPF axisangle0	0.375904 0.659540 0.650925 -105.384039
USER    NEWDPF quaternion0	0.298990 0.524591 0.517739 -0.606099
USER    NEWDPF dihe0	133.88 100.50 21.55 135.59 43.29 142.99 -166.72 -86.89 -49.19 -61.67 -142.78 -8.44 
USER  
USER                              x       y       z    vdW   Elec        q     RMS 
ATOM      1  C   UNL d   1      13.954  -3.782  40.788 -0.23 +0.01    +0.064    50.936
ATOM      2  C   UNL d   1      18.211  -2.680  38.980 -0.26 +0.00    +0.064    50.936
ATOM      3  C   UNL d   1      16.599   1.636  37.715 -0.11 +0.01    +0.064    50.936
ATOM      4  C   UNL d   1      12.359   0.678  39.898 -0.21 +0.01    +0.064    50.936
ATOM      5  C   UNL d   1      15.225  -3.811  40.355 -0.13 +0.00    +0.066    50.936
ATOM      6  C   UNL d   1      16.074  -4.906  40.604 -0.21 -0.00    -0.021    50.936
ATOM      7  C   UNL d   1      17.315  -4.572  40.098 -0.25 -0.00    -0.025    50.936
ATOM      8  C   UNL d   1      17.165  -3.295  39.546 -0.12 -0.00    +0.066    50.936
ATOM      9  C   UNL d   1      18.601  -5.411  40.124 -0.23 +0.01    +0.051    50.936
ATOM     10  C   UNL d   1      18.146  -1.378  38.364 -0.22 -0.00    +0.066    50.936
ATOM     11  C   UNL d   1      19.170  -0.739  37.631 -0.21 -0.00    -0.021    50.936
ATOM     12  C   UNL d   1      18.671   0.516  37.271 -0.20 +0.00    +0.000    50.936
ATOM     13  C   UNL d   1      17.380   0.545  37.798 -0.15 +0.00    +0.070    50.936
ATOM     14  C   UNL d   1      20.491  -1.344  37.232 -0.25 +0.00    +0.052    50.936
ATOM     15  C   UNL d   1      15.268   1.857  38.245 -0.13 +0.01    +0.066    50.936
ATOM     16  C   UNL d   1      14.572   3.058  38.250 -0.13 -0.00    -0.021    50.936
ATOM     17  C   UNL d   1      13.350   2.787  38.881 -0.14 +0.00    +0.000    50.936
ATOM     18  C   UNL d   1      13.389   1.433  39.197 -0.16 +0.01    +0.070    50.936
ATOM     19  C   UNL d   1      15.076   4.365  37.680 -0.09 +0.01    +0.052    50.936
ATOM     20  C   UNL d   1      12.411  -0.617  40.293 -0.19 +0.01    +0.066    50.936
ATOM     21  C   UNL d   1      11.370  -1.223  40.993 -0.14 -0.00    -0.025    50.936
ATOM     22  C   UNL d   1      11.789  -2.518  41.238 -0.11 -0.00    -0.021    50.936
ATOM     23  C   UNL d   1      13.081  -2.635  40.681 -0.16 +0.01    +0.066    50.936
ATOM     24  C   UNL d   1      10.048  -0.595  41.426 -0.15 -0.00    +0.051    50.936
ATOM     25  N   UNL d   1      15.879  -2.801  39.686 +0.05 +0.03    -0.248    50.936
ATOM     26  N   UNL d   1      17.044  -0.622  38.410 -0.14 +0.00    -0.248    50.936
ATOM     27  N   UNL d   1      14.558   0.919  38.831 -0.12 -0.03    -0.248    50.936
ATOM     28  N   UNL d   1      13.461  -1.486  40.110 -0.12 -0.04    -0.248    50.936
ATOM     29 FE   UNL d   1      15.176  -0.832  39.234 -0.05 +0.00    +0.000    50.936
ATOM     30  C   UNL d   1      15.720  -6.177  41.369 -0.16 +0.02    +0.052    50.936
ATOM     31  C   UNL d   1      15.270  -5.840  42.791 -0.11 +0.05    +0.115    50.936
ATOM     32  C   UNL d   1      13.950  -6.488  43.148 -0.10 +0.12    +0.139    50.936
ATOM     33  O   UNL d   1      13.870  -7.707  43.189 -0.48 -0.88    -0.650    50.936
ATOM     34  O   UNL d   1      12.857  -5.758  43.472 -0.09 -0.54    -0.776    50.936
ATOM     35  H   UNL d   1      11.983  -5.882  43.076 +0.01 +0.15    +0.167    50.936
ATOM     36  C   UNL d   1      15.937  -0.254  41.101 -0.03 +0.01    +0.190    50.936
ATOM     37  O   UNL d   1      16.445  -0.760  42.301 +0.00 -0.03    -0.399    50.936
ATOM     38  H   UNL d   1      16.229  -1.734  42.282 +0.02 +0.02    +0.209    50.936
ATOM     39  C   UNL d   1      11.014  -3.560  42.022 -0.06 +0.01    +0.052    50.936
ATOM     40  C   UNL d   1      10.157  -4.421  41.080 -0.10 +0.03    +0.115    50.936
ATOM     41  C   UNL d   1      10.595  -5.868  40.982 -0.11 +0.13    +0.139    50.936
ATOM     42  O   UNL d   1      10.764  -6.512  42.008 +0.03 -0.99    -0.650    50.936
ATOM     43  O   UNL d   1      10.722  -6.493  39.791 -0.42 -0.82    -0.776    50.936
ATOM     44  H   UNL d   1      10.932  -6.019  38.976 -0.27 +0.04    +0.167    50.936
ATOM     45  C   UNL d   1      19.256   1.677  36.478 -0.34 +0.00    +0.004    50.936
ATOM     46  C   UNL d   1      18.775   2.338  35.428 -0.39 +0.00    +0.012    50.936
ATOM     47  C   UNL d   1      12.229   3.712  39.225 -0.27 +0.00    +0.004    50.936
ATOM     48  C   UNL d   1      12.028   4.884  38.619 -0.32 +0.00    +0.012    50.936
TER
ENDMDL
MODEL       66
USER    Run = 66
USER    Cluster Rank = 23
USER    Number of conformations in this cluster = 2
USER  
USER    RMSD from reference structure       = 45.847 A
USER  
USER    Estimated Free Energy of Binding    =   -6.70 kcal/mol  [=(1)+(2)+(3)-(4)]
USER    Estimated Inhibition Constant, Ki   =   12.26 uM (micromolar)  [Temperature = 298.15 K]
USER    
USER    (1) Final Intermolecular Energy     =  -10.28 kcal/mol
USER        vdW + Hbond + desolv Energy     =   -8.16 kcal/mol
USER        Electrostatic Energy            =   -2.12 kcal/mol
USER    (2) Final Total Internal Energy     =   -0.76 kcal/mol
USER    (3) Torsional Free Energy           =   +3.58 kcal/mol
USER    (4) Unbound System's Energy  [=(2)] =   -0.76 kcal/mol
USER    
USER    
USER  
USER    DPF = D:/Protein_go_brrr/autodock/final/1A3N/heme_Co/dock.dpf
USER    NEWDPF move	heme_Co_opt.pdbqt
USER    NEWDPF about	8.781000 34.984000 -0.736000
USER    NEWDPF tran0	14.995649 3.374628 37.597660
USER    NEWDPF axisangle0	-0.005258 0.303656 0.952767 79.124500
USER    NEWDPF quaternion0	-0.003349 0.193404 0.606833 0.770933
USER    NEWDPF dihe0	-28.60 108.63 -178.07 115.66 164.38 149.83 99.67 80.70 77.81 40.02 176.81 125.99 
USER  
USER                              x       y       z    vdW   Elec        q     RMS 
ATOM      1  C   UNL d   1      15.354   5.124  36.362 -0.10 +0.03    +0.064    45.847
ATOM      2  C   UNL d   1      11.977   4.101  39.550 -0.27 +0.01    +0.064    45.847
ATOM      3  C   UNL d   1      13.729  -0.317  40.043 -0.17 +0.01    +0.064    45.847
ATOM      4  C   UNL d   1      17.414   0.828  37.082 -0.20 +0.00    +0.064    45.847
ATOM      5  C   UNL d   1      14.281   5.157  37.169 -0.10 +0.02    +0.066    45.847
ATOM      6  C   UNL d   1      13.524   6.330  37.358 -0.15 -0.01    -0.021    45.847
ATOM      7  C   UNL d   1      12.559   6.034  38.302 -0.21 -0.01    -0.025    45.847
ATOM      8  C   UNL d   1      12.758   4.690  38.635 -0.22 +0.02    +0.066    45.847
ATOM      9  C   UNL d   1      11.485   6.969  38.877 -0.01 +0.02    +0.051    45.847
ATOM     10  C   UNL d   1      12.090   2.717  39.937 -0.23 +0.01    +0.066    45.847
ATOM     11  C   UNL d   1      11.214   2.004  40.785 -0.25 -0.00    -0.021    45.847
ATOM     12  C   UNL d   1      11.746   0.718  40.908 -0.19 +0.00    +0.000    45.847
ATOM     13  C   UNL d   1      12.897   0.737  40.119 -0.18 +0.01    +0.070    45.847
ATOM     14  C   UNL d   1       9.911   2.509  41.349 -0.15 +0.01    +0.052    45.847
ATOM     15  C   UNL d   1      14.980  -0.451  39.323 -0.16 +0.00    +0.066    45.847
ATOM     16  C   UNL d   1      15.865  -1.517  39.402 -0.20 +0.00    -0.021    45.847
ATOM     17  C   UNL d   1      16.931  -1.190  38.552 -0.26 -0.00    +0.000    45.847
ATOM     18  C   UNL d   1      16.602   0.046  38.006 -0.20 +0.00    +0.070    45.847
ATOM     19  C   UNL d   1      15.673  -2.755  40.250 -0.19 -0.00    +0.052    45.847
ATOM     20  C   UNL d   1      17.157   2.069  36.605 -0.16 +0.01    +0.066    45.847
ATOM     21  C   UNL d   1      18.032   2.734  35.749 -0.29 -0.00    -0.025    45.847
ATOM     22  C   UNL d   1      17.450   3.963  35.502 -0.26 -0.01    -0.021    45.847
ATOM     23  C   UNL d   1      16.245   3.993  36.234 -0.12 +0.02    +0.066    45.847
ATOM     24  C   UNL d   1      19.368   2.230  35.209 -0.09 +0.01    +0.051    45.847
ATOM     25  N   UNL d   1      13.815   4.120  37.945 -0.08 -0.06    -0.248    45.847
ATOM     26  N   UNL d   1      13.073   1.929  39.489 -0.12 -0.03    -0.248    45.847
ATOM     27  N   UNL d   1      15.449   0.470  38.511 -0.11 -0.02    -0.248    45.847
ATOM     28  N   UNL d   1      16.064   2.850  36.905 -0.05 -0.05    -0.248    45.847
ATOM     29 FE   UNL d   1      14.682   2.187  38.242 -0.04 +0.00    +0.000    45.847
ATOM     30  C   UNL d   1      13.778   7.690  36.717 -0.18 +0.04    +0.052    45.847
ATOM     31  C   UNL d   1      14.521   8.610  37.685 -0.11 +0.10    +0.115    45.847
ATOM     32  C   UNL d   1      13.614   9.654  38.300 -0.02 +0.16    +0.139    45.847
ATOM     33  O   UNL d   1      12.651  10.062  37.667 -0.34 -1.17    -0.650    45.847
ATOM     34  O   UNL d   1      13.805  10.122  39.556 -0.01 -0.49    -0.776    45.847
ATOM     35  H   UNL d   1      14.162   9.594  40.284 +0.02 +0.07    +0.167    45.847
ATOM     36  C   UNL d   1      15.766   3.041  39.820 -0.02 +0.02    +0.190    45.847
ATOM     37  O   UNL d   1      16.030   4.255  40.462 +0.00 -0.05    -0.399    45.847
ATOM     38  H   UNL d   1      15.555   4.942  39.916 +0.02 +0.03    +0.209    45.847
ATOM     39  C   UNL d   1      18.057   5.070  34.659 -0.34 +0.02    +0.052    45.847
ATOM     40  C   UNL d   1      17.970   6.419  35.391 -0.28 +0.04    +0.115    45.847
ATOM     41  C   UNL d   1      17.749   7.610  34.482 -0.44 +0.08    +0.139    45.847
ATOM     42  O   UNL d   1      18.327   8.661  34.722 -0.42 -0.33    -0.650    45.847
ATOM     43  O   UNL d   1      16.999   7.519  33.362 +0.03 -0.75    -0.776    45.847
ATOM     44  H   UNL d   1      16.945   8.233  32.713 -0.43 +0.13    +0.167    45.847
ATOM     45  C   UNL d   1      11.293  -0.526  41.661 -0.11 +0.00    +0.004    45.847
ATOM     46  C   UNL d   1      10.767  -1.664  41.216 -0.13 +0.00    +0.012    45.847
ATOM     47  C   UNL d   1      18.200  -1.931  38.286 -0.32 -0.00    +0.004    45.847
ATOM     48  C   UNL d   1      18.779  -1.993  37.084 -0.33 +0.00    +0.012    45.847
TER
ENDMDL
MODEL       34
USER    Run = 34
USER    Cluster Rank = 24
USER    Number of conformations in this cluster = 2
USER  
USER    RMSD from reference structure       = 39.280 A
USER  
USER    Estimated Free Energy of Binding    =   -6.70 kcal/mol  [=(1)+(2)+(3)-(4)]
USER    Estimated Inhibition Constant, Ki   =   12.33 uM (micromolar)  [Temperature = 298.15 K]
USER    
USER    (1) Final Intermolecular Energy     =  -10.28 kcal/mol
USER        vdW + Hbond + desolv Energy     =   -9.73 kcal/mol
USER        Electrostatic Energy            =   -0.54 kcal/mol
USER    (2) Final Total Internal Energy     =   -2.83 kcal/mol
USER    (3) Torsional Free Energy           =   +3.58 kcal/mol
USER    (4) Unbound System's Energy  [=(2)] =   -2.83 kcal/mol
USER    
USER    
USER  
USER    DPF = D:/Protein_go_brrr/autodock/final/1A3N/heme_Co/dock.dpf
USER    NEWDPF move	heme_Co_opt.pdbqt
USER    NEWDPF about	8.781000 34.984000 -0.736000
USER    NEWDPF tran0	4.250384 -5.194604 -9.045281
USER    NEWDPF axisangle0	0.018246 0.995305 -0.095056 87.803452
USER    NEWDPF quaternion0	0.012652 0.690168 -0.065914 0.720530
USER    NEWDPF dihe0	133.61 87.49 172.95 -55.56 -32.43 145.49 -96.23 -0.60 -102.03 110.10 163.48 -180.00 
USER  
USER                              x       y       z    vdW   Elec        q     RMS 
ATOM      1  C   UNL d   1       4.984  -4.856 -11.061 -0.09 +0.01    +0.064    39.280
ATOM      2  C   UNL d   1       1.518  -7.622  -9.345 -0.18 +0.03    +0.064    39.280
ATOM      3  C   UNL d   1       2.733  -6.438  -4.878 -0.26 +0.01    +0.064    39.280
ATOM      4  C   UNL d   1       6.027  -3.310  -6.618 -0.43 +0.00    +0.064    39.280
ATOM      5  C   UNL d   1       3.971  -5.727 -10.919 -0.08 +0.01    +0.066    39.280
ATOM      6  C   UNL d   1       3.282  -6.259 -12.026 -0.04 -0.00    -0.021    39.280
ATOM      7  C   UNL d   1       2.263  -7.043 -11.522 -0.05 -0.01    -0.025    39.280
ATOM      8  C   UNL d   1       2.383  -6.969 -10.130 -0.11 +0.02    +0.066    39.280
ATOM      9  C   UNL d   1       1.208  -7.837 -12.308 -0.03 +0.02    +0.051    39.280
ATOM     10  C   UNL d   1       1.579  -7.626  -7.905 -0.22 +0.03    +0.066    39.280
ATOM     11  C   UNL d   1       0.789  -8.402  -7.029 -0.26 -0.01    -0.021    39.280
ATOM     12  C   UNL d   1       1.167  -8.040  -5.733 -0.31 +0.00    +0.000    39.280
ATOM     13  C   UNL d   1       2.165  -7.082  -5.913 -0.26 +0.02    +0.070    39.280
ATOM     14  C   UNL d   1      -0.187  -9.479  -7.425 -0.21 +0.02    +0.052    39.280
ATOM     15  C   UNL d   1       3.735  -5.391  -4.885 -0.34 +0.01    +0.066    39.280
ATOM     16  C   UNL d   1       4.175  -4.665  -3.787 -0.42 -0.00    -0.021    39.280
ATOM     17  C   UNL d   1       5.123  -3.760  -4.284 -0.40 +0.00    +0.000    39.280
ATOM     18  C   UNL d   1       5.200  -4.017  -5.648 -0.42 +0.01    +0.070    39.280
ATOM     19  C   UNL d   1       3.695  -4.851  -2.364 -0.37 +0.00    +0.052    39.280
ATOM     20  C   UNL d   1       6.055  -3.484  -7.961 -0.40 +0.00    +0.066    39.280
ATOM     21  C   UNL d   1       6.867  -2.717  -8.793 -0.31 +0.00    -0.025    39.280
ATOM     22  C   UNL d   1       6.609  -3.160 -10.078 -0.23 +0.00    -0.021    39.280
ATOM     23  C   UNL d   1       5.635  -4.176  -9.965 -0.17 +0.00    +0.066    39.280
ATOM     24  C   UNL d   1       7.827  -1.602  -8.388 -0.14 +0.00    +0.051    39.280
ATOM     25  N   UNL d   1       3.437  -6.165  -9.729 -0.08 -0.06    -0.248    39.280
ATOM     26  N   UNL d   1       2.452  -6.874  -7.226 -0.17 -0.08    -0.248    39.280
ATOM     27  N   UNL d   1       4.338  -4.974  -5.976 -0.23 -0.03    -0.248    39.280
ATOM     28  N   UNL d   1       5.295  -4.373  -8.686 -0.16 -0.02    -0.248    39.280
ATOM     29 FE   UNL d   1       3.917  -5.532  -7.742 -0.07 +0.00    +0.000    39.280
ATOM     30  C   UNL d   1       3.550  -5.954 -13.496 -0.02 +0.01    +0.052    39.280
ATOM     31  C   UNL d   1       2.384  -5.175 -14.104 -0.01 +0.03    +0.115    39.280
ATOM     32  C   UNL d   1       2.381  -3.720 -13.687 -0.07 +0.04    +0.139    39.280
ATOM     33  O   UNL d   1       2.200  -2.853 -14.529 -0.40 -0.28    -0.650    39.280
ATOM     34  O   UNL d   1       2.526  -3.344 -12.395 +0.07 -0.22    -0.776    39.280
ATOM     35  H   UNL d   1       3.162  -2.683 -12.089 +0.06 +0.03    +0.167    39.280
ATOM     36  C   UNL d   1       2.463  -4.042  -7.986 -0.26 +0.05    +0.190    39.280
ATOM     37  O   UNL d   1       1.628  -3.445  -8.936 -0.23 -0.16    -0.399    39.280
ATOM     38  H   UNL d   1       2.089  -3.590  -9.810 +0.10 +0.07    +0.209    39.280
ATOM     39  C   UNL d   1       7.219  -2.590 -11.344 -0.14 +0.00    +0.052    39.280
ATOM     40  C   UNL d   1       6.520  -1.280 -11.741 -0.20 +0.00    +0.115    39.280
ATOM     41  C   UNL d   1       5.150  -1.465 -12.361 -0.22 +0.01    +0.139    39.280
ATOM     42  O   UNL d   1       4.238  -0.721 -12.030 -0.18 -0.06    -0.650    39.280
ATOM     43  O   UNL d   1       4.929  -2.375 -13.336 +0.06 -0.12    -0.776    39.280
ATOM     44  H   UNL d   1       4.059  -2.509 -13.733 +0.04 +0.04    +0.167    39.280
ATOM     45  C   UNL d   1       0.715  -8.499  -4.353 -0.43 +0.00    +0.004    39.280
ATOM     46  C   UNL d   1      -0.466  -8.395  -3.749 -0.49 +0.00    +0.012    39.280
ATOM     47  C   UNL d   1       5.881  -2.687  -3.573 -0.36 +0.00    +0.004    39.280
ATOM     48  C   UNL d   1       5.299  -1.731  -2.846 -0.61 +0.00    +0.012    39.280
TER
ENDMDL
MODEL       33
USER    Run = 33
USER    Cluster Rank = 25
USER    Number of conformations in this cluster = 1
USER  
USER    RMSD from reference structure       = 53.042 A
USER  
USER    Estimated Free Energy of Binding    =   -6.68 kcal/mol  [=(1)+(2)+(3)-(4)]
USER    Estimated Inhibition Constant, Ki   =   12.69 uM (micromolar)  [Temperature = 298.15 K]
USER    
USER    (1) Final Intermolecular Energy     =  -10.26 kcal/mol
USER        vdW + Hbond + desolv Energy     =   -7.14 kcal/mol
USER        Electrostatic Energy            =   -3.12 kcal/mol
USER    (2) Final Total Internal Energy     =   -2.24 kcal/mol
USER    (3) Torsional Free Energy           =   +3.58 kcal/mol
USER    (4) Unbound System's Energy  [=(2)] =   -2.24 kcal/mol
USER    
USER    
USER  
USER    DPF = D:/Protein_go_brrr/autodock/final/1A3N/heme_Co/dock.dpf
USER    NEWDPF move	heme_Co_opt.pdbqt
USER    NEWDPF about	8.781000 34.984000 -0.736000
USER    NEWDPF tran0	21.434594 -5.089140 38.449346
USER    NEWDPF axisangle0	0.174736 0.615735 0.768334 170.560110
USER    NEWDPF quaternion0	0.174144 0.613647 0.765729 0.082285
USER    NEWDPF dihe0	39.52 124.32 -158.05 58.70 156.51 94.53 -163.04 178.64 -14.76 93.79 177.19 163.07 
USER  
USER                              x       y       z    vdW   Elec        q     RMS 
ATOM      1  C   UNL d   1      23.255  -6.198  38.034 -0.10 +0.02    +0.064    53.042
ATOM      2  C   UNL d   1      21.804  -1.850  36.769 -0.26 +0.00    +0.064    53.042
ATOM      3  C   UNL d   1      17.552  -2.636  38.802 -0.20 -0.00    +0.064    53.042
ATOM      4  C   UNL d   1      19.144  -6.931  40.440 -0.17 +0.01    +0.064    53.042
ATOM      5  C   UNL d   1      23.158  -4.967  37.508 -0.12 +0.02    +0.066    53.042
ATOM      6  C   UNL d   1      24.248  -4.336  36.875 -0.18 -0.01    -0.021    53.042
ATOM      7  C   UNL d   1      23.828  -3.067  36.531 -0.23 -0.00    -0.025    53.042
ATOM      8  C   UNL d   1      22.497  -2.982  36.952 -0.16 +0.01    +0.066    53.042
ATOM      9  C   UNL d   1      24.638  -1.964  35.832 -0.42 +0.00    +0.051    53.042
ATOM     10  C   UNL d   1      20.423  -1.679  37.146 -0.22 +0.00    +0.066    53.042
ATOM     11  C   UNL d   1      19.601  -0.569  36.855 -0.28 -0.00    -0.021    53.042
ATOM     12  C   UNL d   1      18.366  -0.826  37.456 -0.28 -0.00    +0.000    53.042
ATOM     13  C   UNL d   1      18.521  -2.076  38.056 -0.26 +0.00    +0.070    53.042
ATOM     14  C   UNL d   1      19.962   0.604  35.980 -0.34 +0.00    +0.052    53.042
ATOM     15  C   UNL d   1      17.562  -3.888  39.533 -0.24 +0.00    +0.066    53.042
ATOM     16  C   UNL d   1      16.580  -4.341  40.403 -0.21 -0.00    -0.021    53.042
ATOM     17  C   UNL d   1      17.036  -5.578  40.880 -0.22 +0.00    +0.000    53.042
ATOM     18  C   UNL d   1      18.256  -5.791  40.247 -0.22 +0.01    +0.070    53.042
ATOM     19  C   UNL d   1      15.299  -3.610  40.736 -0.23 +0.01    +0.052    53.042
ATOM     20  C   UNL d   1      20.373  -7.119  39.903 -0.14 +0.01    +0.066    53.042
ATOM     21  C   UNL d   1      21.147  -8.240  40.191 -0.10 -0.00    -0.025    53.042
ATOM     22  C   UNL d   1      22.327  -8.071  39.489 -0.09 -0.00    -0.021    53.042
ATOM     23  C   UNL d   1      22.217  -6.838  38.810 -0.10 +0.02    +0.066    53.042
ATOM     24  C   UNL d   1      20.790  -9.408  41.108 -0.07 +0.01    +0.051    53.042
ATOM     25  N   UNL d   1      22.054  -4.147  37.556 +0.03 -0.04    -0.248    53.042
ATOM     26  N   UNL d   1      19.747  -2.615  37.820 -0.05 -0.02    -0.248    53.042
ATOM     27  N   UNL d   1      18.552  -4.751  39.476 -0.12 -0.02    -0.248    53.042
ATOM     28  N   UNL d   1      21.037  -6.258  39.060 +0.01 -0.04    -0.248    53.042
ATOM     29 FE   UNL d   1      20.200  -4.470  38.573 -0.03 +0.00    +0.000    53.042
ATOM     30  C   UNL d   1      25.648  -4.910  36.691 -0.20 +0.03    +0.052    53.042
ATOM     31  C   UNL d   1      26.594  -4.374  37.765 -0.23 +0.07    +0.115    53.042
ATOM     32  C   UNL d   1      27.860  -5.195  37.882 +0.16 +0.19    +0.139    53.042
ATOM     33  O   UNL d   1      28.664  -5.194  36.962 -0.59 -0.92    -0.650    53.042
ATOM     34  O   UNL d   1      28.159  -5.899  38.999 +0.19 -1.34    -0.776    53.042
ATOM     35  H   UNL d   1      27.503  -6.343  39.553 +0.02 +0.25    +0.167    53.042
ATOM     36  C   UNL d   1      21.090  -3.572  40.245 -0.05 +0.02    +0.190    53.042
ATOM     37  O   UNL d   1      22.157  -3.696  41.141 -0.00 -0.06    -0.399    53.042
ATOM     38  H   UNL d   1      22.744  -4.398  40.744 +0.01 +0.04    +0.209    53.042
ATOM     39  C   UNL d   1      23.515  -9.013  39.525 -0.06 +0.02    +0.052    53.042
ATOM     40  C   UNL d   1      24.555  -8.536  40.551 -0.03 +0.05    +0.115    53.042
ATOM     41  C   UNL d   1      25.625  -7.628  39.982 -0.05 +0.11    +0.139    53.042
ATOM     42  O   UNL d   1      26.134  -7.906  38.905 -0.31 -1.20    -0.650    53.042
ATOM     43  O   UNL d   1      25.972  -6.472  40.588 +0.02 -0.48    -0.776    53.042
ATOM     44  H   UNL d   1      26.318  -5.713  40.101 +0.02 +0.11    +0.167    53.042
ATOM     45  C   UNL d   1      17.058  -0.048  37.517 -0.31 +0.00    +0.004    53.042
ATOM     46  C   UNL d   1      16.337   0.511  36.548 -0.35 +0.00    +0.012    53.042
ATOM     47  C   UNL d   1      16.427  -6.494  41.890 -0.18 +0.00    +0.004    53.042
ATOM     48  C   UNL d   1      16.329  -7.815  41.723 -0.16 +0.01    +0.012    53.042
TER
ENDMDL
MODEL       88
USER    Run = 88
USER    Cluster Rank = 26
USER    Number of conformations in this cluster = 1
USER  
USER    RMSD from reference structure       = 55.239 A
USER  
USER    Estimated Free Energy of Binding    =   -6.64 kcal/mol  [=(1)+(2)+(3)-(4)]
USER    Estimated Inhibition Constant, Ki   =   13.51 uM (micromolar)  [Temperature = 298.15 K]
USER    
USER    (1) Final Intermolecular Energy     =  -10.22 kcal/mol
USER        vdW + Hbond + desolv Energy     =   -8.17 kcal/mol
USER        Electrostatic Energy            =   -2.06 kcal/mol
USER    (2) Final Total Internal Energy     =   -1.98 kcal/mol
USER    (3) Torsional Free Energy           =   +3.58 kcal/mol
USER    (4) Unbound System's Energy  [=(2)] =   -1.98 kcal/mol
USER    
USER    
USER  
USER    DPF = D:/Protein_go_brrr/autodock/final/1A3N/heme_Co/dock.dpf
USER    NEWDPF move	heme_Co_opt.pdbqt
USER    NEWDPF about	8.781000 34.984000 -0.736000
USER    NEWDPF tran0	25.336139 -10.127568 35.489524
USER    NEWDPF axisangle0	-0.631000 0.054897 0.773838 -152.472669
USER    NEWDPF quaternion0	-0.612881 0.053321 0.751618 -0.237918
USER    NEWDPF dihe0	41.10 109.67 118.99 66.85 60.08 107.76 32.71 -42.46 167.47 -139.21 23.86 139.48 
USER  
USER                              x       y       z    vdW   Elec        q     RMS 
ATOM      1  C   UNL d   1      26.149 -11.449  37.009 -0.12 +0.03    +0.064    55.239
ATOM      2  C   UNL d   1      23.757  -7.348  37.288 -0.17 +0.03    +0.064    55.239
ATOM      3  C   UNL d   1      23.855  -6.924  32.530 -0.23 +0.01    +0.064    55.239
ATOM      4  C   UNL d   1      25.958 -11.298  32.196 -0.35 +0.00    +0.064    55.239
ATOM      5  C   UNL d   1      25.520 -10.342  37.437 -0.12 +0.05    +0.066    55.239
ATOM      6  C   UNL d   1      25.227 -10.127  38.798 -0.09 -0.01    -0.021    55.239
ATOM      7  C   UNL d   1      24.513  -8.947  38.870 -0.08 -0.01    -0.025    55.239
ATOM      8  C   UNL d   1      24.415  -8.484  37.554 -0.13 +0.04    +0.066    55.239
ATOM      9  C   UNL d   1      23.938  -8.269  40.123 -0.04 +0.02    +0.051    55.239
ATOM     10  C   UNL d   1      23.627  -6.781  35.969 -0.21 +0.02    +0.066    55.239
ATOM     11  C   UNL d   1      23.072  -5.525  35.642 -0.24 -0.00    -0.021    55.239
ATOM     12  C   UNL d   1      23.117  -5.425  34.249 -0.32 +0.00    +0.000    55.239
ATOM     13  C   UNL d   1      23.706  -6.619  33.831 -0.27 +0.01    +0.070    55.239
ATOM     14  C   UNL d   1      22.624  -4.466  36.617 -0.15 +0.01    +0.052    55.239
ATOM     15  C   UNL d   1      24.392  -8.127  31.923 -0.33 +0.01    +0.066    55.239
ATOM     16  C   UNL d   1      24.385  -8.441  30.571 -0.34 -0.00    -0.021    55.239
ATOM     17  C   UNL d   1      24.988  -9.702  30.470 -0.46 +0.00    +0.000    55.239
ATOM     18  C   UNL d   1      25.332 -10.053  31.772 -0.40 +0.01    +0.070    55.239
ATOM     19  C   UNL d   1      23.827  -7.566  29.471 -0.25 -0.00    +0.052    55.239
ATOM     20  C   UNL d   1      26.223 -11.698  33.463 -0.24 +0.01    +0.066    55.239
ATOM     21  C   UNL d   1      26.796 -12.936  33.748 -0.21 -0.00    -0.025    55.239
ATOM     22  C   UNL d   1      26.890 -12.995  35.127 -0.13 -0.00    -0.021    55.239
ATOM     23  C   UNL d   1      26.354 -11.786  35.619 -0.11 +0.02    +0.066    55.239
ATOM     24  C   UNL d   1      27.215 -14.018  32.757 -0.23 -0.00    +0.051    55.239
ATOM     25  N   UNL d   1      25.035  -9.325  36.645 -0.10 -0.18    -0.248    55.239
ATOM     26  N   UNL d   1      24.065  -7.413  34.875 -0.17 -0.08    -0.248    55.239
ATOM     27  N   UNL d   1      24.935  -9.105  32.614 -0.24 -0.04    -0.248    55.239
ATOM     28  N   UNL d   1      25.947 -10.999  34.615 -0.08 -0.09    -0.248    55.239
ATOM     29 FE   UNL d   1      24.984  -9.211  34.510 -0.06 +0.00    +0.000    55.239
ATOM     30  C   UNL d   1      25.553 -11.063  39.957 -0.03 +0.02    +0.052    55.239
ATOM     31  C   UNL d   1      26.681 -10.487  40.812 -0.04 +0.06    +0.115    55.239
ATOM     32  C   UNL d   1      27.408  -9.354  40.121 +0.02 +0.17    +0.139    55.239
ATOM     33  O   UNL d   1      28.449  -9.584  39.522 +0.04 -1.18    -0.650    55.239
ATOM     34  O   UNL d   1      26.918  -8.093  40.101 -0.03 -1.03    -0.776    55.239
ATOM     35  H   UNL d   1      26.449  -7.680  40.840 +0.01 +0.12    +0.167    55.239
ATOM     36  C   UNL d   1      23.127 -10.180  34.615 -0.21 +0.03    +0.190    55.239
ATOM     37  O   UNL d   1      22.466 -11.259  35.210 -0.02 -0.06    -0.399    55.239
ATOM     38  H   UNL d   1      23.170 -11.735  35.733 +0.06 +0.03    +0.209    55.239
ATOM     39  C   UNL d   1      27.406 -14.178  35.923 -0.06 +0.00    +0.052    55.239
ATOM     40  C   UNL d   1      26.313 -14.721  36.859 -0.02 +0.01    +0.115    55.239
ATOM     41  C   UNL d   1      24.911 -14.645  36.292 -0.04 +0.01    +0.139    55.239
ATOM     42  O   UNL d   1      24.437 -15.624  35.734 +0.01 -0.01    -0.650    55.239
ATOM     43  O   UNL d   1      24.134 -13.552  36.463 +0.03 -0.09    -0.776    55.239
ATOM     44  H   UNL d   1      23.731 -13.081  35.722 +0.04 +0.02    +0.167    55.239
ATOM     45  C   UNL d   1      22.691  -4.338  33.271 -0.47 +0.00    +0.004    55.239
ATOM     46  C   UNL d   1      23.070  -3.067  33.171 -0.51 +0.00    +0.012    55.239
ATOM     47  C   UNL d   1      25.197 -10.567  29.270 -0.49 +0.00    +0.004    55.239
ATOM     48  C   UNL d   1      25.531 -10.091  28.068 -0.59 -0.00    +0.012    55.239
TER
ENDMDL
MODEL       77
USER    Run = 77
USER    Cluster Rank = 27
USER    Number of conformations in this cluster = 1
USER  
USER    RMSD from reference structure       = 29.634 A
USER  
USER    Estimated Free Energy of Binding    =   -6.63 kcal/mol  [=(1)+(2)+(3)-(4)]
USER    Estimated Inhibition Constant, Ki   =   13.89 uM (micromolar)  [Temperature = 298.15 K]
USER    
USER    (1) Final Intermolecular Energy     =  -10.21 kcal/mol
USER        vdW + Hbond + desolv Energy     =   -8.01 kcal/mol
USER        Electrostatic Energy            =   -2.20 kcal/mol
USER    (2) Final Total Internal Energy     =   -2.04 kcal/mol
USER    (3) Torsional Free Energy           =   +3.58 kcal/mol
USER    (4) Unbound System's Energy  [=(2)] =   -2.04 kcal/mol
USER    
USER    
USER  
USER    DPF = D:/Protein_go_brrr/autodock/final/1A3N/heme_Co/dock.dpf
USER    NEWDPF move	heme_Co_opt.pdbqt
USER    NEWDPF about	8.781000 34.984000 -0.736000
USER    NEWDPF tran0	13.328041 5.393234 14.160307
USER    NEWDPF axisangle0	-0.110536 -0.942432 0.315600 140.554523
USER    NEWDPF quaternion0	-0.104052 -0.887146 0.297086 0.337469
USER    NEWDPF dihe0	-15.90 169.88 -136.57 112.22 77.46 -160.73 118.97 77.46 90.96 117.43 -123.76 -172.25 
USER  
USER                              x       y       z    vdW   Elec        q     RMS 
ATOM      1  C   UNL d   1      14.516   6.332  15.717 -0.30 +0.03    +0.064    29.634
ATOM      2  C   UNL d   1      14.552   1.948  13.876 -0.16 +0.03    +0.064    29.634
ATOM      3  C   UNL d   1      10.732   2.998  11.204 -0.19 +0.00    +0.064    29.634
ATOM      4  C   UNL d   1      10.910   7.596  12.781 -0.10 +0.02    +0.064    29.634
ATOM      5  C   UNL d   1      14.784   5.046  15.437 -0.27 +0.04    +0.066    29.634
ATOM      6  C   UNL d   1      15.900   4.380  15.981 -0.23 -0.01    -0.021    29.634
ATOM      7  C   UNL d   1      15.919   3.115  15.426 -0.20 -0.00    -0.025    29.634
ATOM      8  C   UNL d   1      14.805   3.058  14.580 -0.15 +0.04    +0.066    29.634
ATOM      9  C   UNL d   1      16.939   1.993  15.671 -0.20 -0.03    +0.051    29.634
ATOM     10  C   UNL d   1      13.417   1.788  13.001 -0.14 +0.04    +0.066    29.634
ATOM     11  C   UNL d   1      13.019   0.603  12.344 -0.14 -0.01    -0.021    29.634
ATOM     12  C   UNL d   1      11.900   0.937  11.576 -0.22 +0.00    +0.000    29.634
ATOM     13  C   UNL d   1      11.692   2.293  11.829 -0.18 +0.03    +0.070    29.634
ATOM     14  C   UNL d   1      13.622  -0.765  12.528 -0.08 +0.01    +0.052    29.634
ATOM     15  C   UNL d   1      10.413   4.408  11.307 -0.09 +0.01    +0.066    29.634
ATOM     16  C   UNL d   1       9.502   5.104  10.525 -0.16 +0.00    -0.021    29.634
ATOM     17  C   UNL d   1       9.551   6.432  10.974 -0.13 +0.00    +0.000    29.634
ATOM     18  C   UNL d   1      10.479   6.437  12.010 -0.10 +0.02    +0.070    29.634
ATOM     19  C   UNL d   1       8.655   4.507   9.423 -0.22 -0.02    +0.052    29.634
ATOM     20  C   UNL d   1      11.872   7.642  13.734 -0.13 +0.02    +0.066    29.634
ATOM     21  C   UNL d   1      12.222   8.825  14.381 -0.19 -0.01    -0.025    29.634
ATOM     22  C   UNL d   1      13.240   8.486  15.254 -0.25 -0.01    -0.021    29.634
ATOM     23  C   UNL d   1      13.470   7.104  15.086 -0.26 +0.03    +0.066    29.634
ATOM     24  C   UNL d   1      11.631  10.215  14.164 -0.29 +0.01    +0.051    29.634
ATOM     25  N   UNL d   1      14.081   4.238  14.572 -0.17 -0.18    -0.248    29.634
ATOM     26  N   UNL d   1      12.576   2.792  12.735 -0.11 -0.21    -0.248    29.634
ATOM     27  N   UNL d   1      10.994   5.221  12.160 -0.00 -0.09    -0.248    29.634
ATOM     28  N   UNL d   1      12.645   6.589  14.165 -0.13 -0.13    -0.248    29.634
ATOM     29 FE   UNL d   1      12.446   4.762  13.296 -0.05 +0.00    +0.000    29.634
ATOM     30  C   UNL d   1      16.940   4.970  16.927 -0.41 -0.01    +0.052    29.634
ATOM     31  C   UNL d   1      17.277   6.406  16.526 -0.29 +0.04    +0.115    29.634
ATOM     32  C   UNL d   1      18.442   6.478  15.562 -0.16 +0.10    +0.139    29.634
ATOM     33  O   UNL d   1      19.111   5.477  15.352 +0.02 -0.37    -0.650    29.634
ATOM     34  O   UNL d   1      18.742   7.608  14.881 +0.08 -0.68    -0.776    29.634
ATOM     35  H   UNL d   1      18.120   8.334  14.732 +0.03 +0.15    +0.167    29.634
ATOM     36  C   UNL d   1      13.880   5.266  11.853 -0.12 +0.16    +0.190    29.634
ATOM     37  O   UNL d   1      15.067   4.824  11.259 -0.49 -0.61    -0.399    29.634
ATOM     38  H   UNL d   1      14.851   3.919  10.898 +0.07 +0.15    +0.209    29.634
ATOM     39  C   UNL d   1      13.990   9.454  16.149 -0.35 +0.01    +0.052    29.634
ATOM     40  C   UNL d   1      14.908  10.363  15.316 -0.20 +0.02    +0.115    29.634
ATOM     41  C   UNL d   1      16.076   9.649  14.670 -0.11 +0.06    +0.139    29.634
ATOM     42  O   UNL d   1      17.150  10.226  14.570 +0.05 -0.25    -0.650    29.634
ATOM     43  O   UNL d   1      15.991   8.358  14.280 -0.37 -0.90    -0.776    29.634
ATOM     44  H   UNL d   1      16.654   7.697  14.521 +0.03 +0.28    +0.167    29.634
ATOM     45  C   UNL d   1      10.998   0.131  10.651 -0.16 -0.00    +0.004    29.634
ATOM     46  C   UNL d   1       9.771  -0.346  10.838 -0.30 -0.01    +0.012    29.634
ATOM     47  C   UNL d   1       8.837   7.639  10.462 -0.19 -0.00    +0.004    29.634
ATOM     48  C   UNL d   1       7.509   7.718  10.351 -0.33 -0.00    +0.012    29.634
TER
ENDMDL
MODEL       38
USER    Run = 38
USER    Cluster Rank = 28
USER    Number of conformations in this cluster = 1
USER  
USER    RMSD from reference structure       = 36.420 A
USER  
USER    Estimated Free Energy of Binding    =   -6.52 kcal/mol  [=(1)+(2)+(3)-(4)]
USER    Estimated Inhibition Constant, Ki   =   16.49 uM (micromolar)  [Temperature = 298.15 K]
USER    
USER    (1) Final Intermolecular Energy     =  -10.10 kcal/mol
USER        vdW + Hbond + desolv Energy     =   -6.18 kcal/mol
USER        Electrostatic Energy            =   -3.93 kcal/mol
USER    (2) Final Total Internal Energy     =   -0.84 kcal/mol
USER    (3) Torsional Free Energy           =   +3.58 kcal/mol
USER    (4) Unbound System's Energy  [=(2)] =   -0.84 kcal/mol
USER    
USER    
USER  
USER    DPF = D:/Protein_go_brrr/autodock/final/1A3N/heme_Co/dock.dpf
USER    NEWDPF move	heme_Co_opt.pdbqt
USER    NEWDPF about	8.781000 34.984000 -0.736000
USER    NEWDPF tran0	13.917580 17.338276 35.437108
USER    NEWDPF axisangle0	-0.191779 -0.799011 -0.569914 54.145286
USER    NEWDPF quaternion0	-0.087282 -0.363646 -0.259379 0.890430
USER    NEWDPF dihe0	27.73 111.39 21.53 120.84 -56.51 153.07 1.75 -48.16 -122.46 1.40 -15.47 10.75 
USER  
USER                              x       y       z    vdW   Elec        q     RMS 
ATOM      1  C   UNL d   1      11.967  16.718  36.162 -0.10 +0.03    +0.064    36.420
ATOM      2  C   UNL d   1      16.371  15.242  37.179 -0.12 +0.03    +0.064    36.420
ATOM      3  C   UNL d   1      18.156  18.133  33.819 -0.18 +0.00    +0.064    36.420
ATOM      4  C   UNL d   1      13.709  19.938  33.029 -0.24 +0.00    +0.064    36.420
ATOM      5  C   UNL d   1      13.036  16.075  36.662 -0.13 +0.03    +0.066    36.420
ATOM      6  C   UNL d   1      12.930  15.175  37.739 -0.11 -0.01    -0.021    36.420
ATOM      7  C   UNL d   1      14.214  14.767  38.045 -0.10 -0.02    -0.025    36.420
ATOM      8  C   UNL d   1      15.045  15.423  37.131 -0.13 +0.04    +0.066    36.420
ATOM      9  C   UNL d   1      14.656  13.798  39.152 -0.09 +0.03    +0.051    36.420
ATOM     10  C   UNL d   1      17.303  15.853  36.264 -0.09 +0.02    +0.066    36.420
ATOM     11  C   UNL d   1      18.688  15.595  36.172 -0.15 -0.00    -0.021    36.420
ATOM     12  C   UNL d   1      19.183  16.448  35.182 -0.18 +0.00    +0.000    36.420
ATOM     13  C   UNL d   1      18.064  17.153  34.736 -0.18 +0.01    +0.070    36.420
ATOM     14  C   UNL d   1      19.449  14.532  36.922 -0.14 +0.00    +0.052    36.420
ATOM     15  C   UNL d   1      17.119  18.993  33.285 -0.22 +0.00    +0.066    36.420
ATOM     16  C   UNL d   1      17.304  20.083  32.447 -0.24 +0.00    -0.021    36.420
ATOM     17  C   UNL d   1      16.024  20.609  32.219 -0.31 -0.00    +0.000    36.420
ATOM     18  C   UNL d   1      15.154  19.784  32.924 -0.25 +0.00    +0.070    36.420
ATOM     19  C   UNL d   1      18.636  20.566  31.918 -0.14 -0.02    +0.052    36.420
ATOM     20  C   UNL d   1      12.853  19.201  33.777 -0.13 +0.01    +0.066    36.420
ATOM     21  C   UNL d   1      11.487  19.469  33.824 -0.15 -0.00    -0.025    36.420
ATOM     22  C   UNL d   1      10.954  18.538  34.697 -0.12 -0.01    -0.021    36.420
ATOM     23  C   UNL d   1      12.033  17.750  35.153 -0.07 +0.02    +0.066    36.420
ATOM     24  C   UNL d   1      10.728  20.570  33.089 -0.14 +0.01    +0.051    36.420
ATOM     25  N   UNL d   1      14.342  16.236  36.258 -0.10 -0.11    -0.248    36.420
ATOM     26  N   UNL d   1      16.920  16.752  35.351 -0.13 -0.06    -0.248    36.420
ATOM     27  N   UNL d   1      15.844  18.851  33.572 -0.14 -0.02    -0.248    36.420
ATOM     28  N   UNL d   1      13.184  18.150  34.600 +0.21 -0.06    -0.248    36.420
ATOM     29 FE   UNL d   1      15.134  17.622  34.834 -0.05 +0.00    +0.000    36.420
ATOM     30  C   UNL d   1      11.655  14.795  38.486 -0.05 +0.03    +0.052    36.420
ATOM     31  C   UNL d   1      10.731  13.975  37.587 -0.06 +0.08    +0.115    36.420
ATOM     32  C   UNL d   1      11.411  12.744  37.028 -0.05 +0.18    +0.139    36.420
ATOM     33  O   UNL d   1      11.388  12.539  35.824 -0.31 -1.30    -0.650    36.420
ATOM     34  O   UNL d   1      12.092  11.880  37.817 -0.02 -1.18    -0.776    36.420
ATOM     35  H   UNL d   1      11.939  11.774  38.766 +0.02 +0.15    +0.167    36.420
ATOM     36  C   UNL d   1      15.332  18.971  36.427 -0.05 +0.03    +0.190    36.420
ATOM     37  O   UNL d   1      15.097  19.119  37.797 -0.00 -0.05    -0.399    36.420
ATOM     38  H   UNL d   1      14.661  18.266  38.076 +0.02 +0.04    +0.209    36.420
ATOM     39  C   UNL d   1       9.499  18.457  35.117 -0.07 +0.02    +0.052    36.420
ATOM     40  C   UNL d   1       8.843  17.182  34.562 -0.11 +0.06    +0.115    36.420
ATOM     41  C   UNL d   1       7.414  16.966  35.013 +0.03 +0.16    +0.139    36.420
ATOM     42  O   UNL d   1       6.500  17.430  34.347 -0.33 -0.77    -0.650    36.420
ATOM     43  O   UNL d   1       7.117  16.201  36.087 -0.37 -1.45    -0.776    36.420
ATOM     44  H   UNL d   1       7.728  16.082  36.825 +0.01 +0.18    +0.167    36.420
ATOM     45  C   UNL d   1      20.572  16.665  34.597 -0.19 +0.00    +0.004    36.420
ATOM     46  C   UNL d   1      21.050  16.406  33.383 -0.25 +0.00    +0.012    36.420
ATOM     47  C   UNL d   1      15.614  21.820  31.446 -0.29 -0.00    +0.004    36.420
ATOM     48  C   UNL d   1      15.722  23.065  31.916 -0.19 -0.00    +0.012    36.420
TER
ENDMDL
MODEL       26
USER    Run = 26
USER    Cluster Rank = 29
USER    Number of conformations in this cluster = 1
USER  
USER    RMSD from reference structure       = 43.536 A
USER  
USER    Estimated Free Energy of Binding    =   -6.41 kcal/mol  [=(1)+(2)+(3)-(4)]
USER    Estimated Inhibition Constant, Ki   =   19.87 uM (micromolar)  [Temperature = 298.15 K]
USER    
USER    (1) Final Intermolecular Energy     =   -9.99 kcal/mol
USER        vdW + Hbond + desolv Energy     =   -6.79 kcal/mol
USER        Electrostatic Energy            =   -3.21 kcal/mol
USER    (2) Final Total Internal Energy     =   -0.72 kcal/mol
USER    (3) Torsional Free Energy           =   +3.58 kcal/mol
USER    (4) Unbound System's Energy  [=(2)] =   -0.72 kcal/mol
USER    
USER    
USER  
USER    DPF = D:/Protein_go_brrr/autodock/final/1A3N/heme_Co/dock.dpf
USER    NEWDPF move	heme_Co_opt.pdbqt
USER    NEWDPF about	8.781000 34.984000 -0.736000
USER    NEWDPF tran0	12.469278 -9.702435 12.175718
USER    NEWDPF axisangle0	-0.696070 -0.713507 -0.079960 110.950684
USER    NEWDPF quaternion0	-0.573480 -0.587846 -0.065878 0.566761
USER    NEWDPF dihe0	-4.02 105.65 54.52 -43.54 97.96 87.26 46.81 21.89 7.52 -61.49 159.70 161.98 
USER  
USER                              x       y       z    vdW   Elec        q     RMS 
ATOM      1  C   UNL d   1      11.557 -10.498  13.978 -0.08 +0.03    +0.064    43.536
ATOM      2  C   UNL d   1      13.111 -12.581   9.996 -0.17 +0.03    +0.064    43.536
ATOM      3  C   UNL d   1      14.044  -8.306   8.079 -0.15 +0.03    +0.064    43.536
ATOM      4  C   UNL d   1      12.825  -6.172  12.277 -0.09 +0.03    +0.064    43.536
ATOM      5  C   UNL d   1      11.879 -11.380  13.018 -0.09 +0.03    +0.066    43.536
ATOM      6  C   UNL d   1      11.811 -12.771  13.227 -0.08 -0.01    -0.021    43.536
ATOM      7  C   UNL d   1      12.284 -13.371  12.076 -0.10 -0.02    -0.025    43.536
ATOM      8  C   UNL d   1      12.606 -12.321  11.209 -0.11 +0.03    +0.066    43.536
ATOM      9  C   UNL d   1      12.435 -14.873  11.789 -0.13 +0.04    +0.051    43.536
ATOM     10  C   UNL d   1      13.447 -11.568   9.027 -0.17 +0.02    +0.066    43.536
ATOM     11  C   UNL d   1      13.847 -11.780   7.690 -0.29 -0.00    -0.021    43.536
ATOM     12  C   UNL d   1      14.109 -10.516   7.153 -0.26 +0.00    +0.000    43.536
ATOM     13  C   UNL d   1      13.838  -9.629   8.195 -0.17 +0.02    +0.070    43.536
ATOM     14  C   UNL d   1      13.878 -13.101   6.966 -0.20 +0.01    +0.052    43.536
ATOM     15  C   UNL d   1      13.868  -7.257   9.065 -0.08 +0.04    +0.066    43.536
ATOM     16  C   UNL d   1      14.238  -5.927   8.927 -0.13 -0.01    -0.021    43.536
ATOM     17  C   UNL d   1      13.891  -5.308  10.136 -0.13 +0.00    +0.000    43.536
ATOM     18  C   UNL d   1      13.319  -6.310  10.913 -0.11 +0.04    +0.070    43.536
ATOM     19  C   UNL d   1      14.883  -5.319   7.701 -0.21 +0.01    +0.052    43.536
ATOM     20  C   UNL d   1      12.345  -7.149  13.083 -0.09 +0.03    +0.066    43.536
ATOM     21  C   UNL d   1      11.934  -6.899  14.390 -0.05 -0.01    -0.025    43.536
ATOM     22  C   UNL d   1      11.536  -8.123  14.896 -0.06 -0.01    -0.021    43.536
ATOM     23  C   UNL d   1      11.736  -9.069  13.868 -0.09 +0.03    +0.066    43.536
ATOM     24  C   UNL d   1      11.938  -5.564  15.129 -0.03 +0.02    +0.051    43.536
ATOM     25  N   UNL d   1      12.359 -11.077  11.764 -0.08 -0.11    -0.248    43.536
ATOM     26  N   UNL d   1      13.383 -10.263   9.310 -0.09 -0.09    -0.248    43.536
ATOM     27  N   UNL d   1      13.349  -7.463  10.255 -0.09 -0.14    -0.248    43.536
ATOM     28  N   UNL d   1      12.228  -8.483  12.769 -0.09 -0.09    -0.248    43.536
ATOM     29 FE   UNL d   1      12.882  -9.161  10.967 -0.03 +0.00    +0.000    43.536
ATOM     30  C   UNL d   1      11.385 -13.479  14.509 -0.05 +0.04    +0.052    43.536
ATOM     31  C   UNL d   1      12.548 -14.282  15.091 -0.05 +0.09    +0.115    43.536
ATOM     32  C   UNL d   1      12.136 -15.109  16.289 -0.01 +0.19    +0.139    43.536
ATOM     33  O   UNL d   1      12.084 -14.586  17.392 -0.16 -0.93    -0.650    43.536
ATOM     34  O   UNL d   1      11.774 -16.408  16.173 -0.45 -1.55    -0.776    43.536
ATOM     35  H   UNL d   1      11.642 -16.863  15.330 +0.02 +0.23    +0.167    43.536
ATOM     36  C   UNL d   1      14.798  -9.481  11.757 -0.02 +0.06    +0.190    43.536
ATOM     37  O   UNL d   1      15.502  -9.601  12.960 -0.22 -0.14    -0.399    43.536
ATOM     38  H   UNL d   1      14.840  -9.364  13.668 +0.04 +0.08    +0.209    43.536
ATOM     39  C   UNL d   1      11.052  -8.375  16.312 -0.05 +0.02    +0.052    43.536
ATOM     40  C   UNL d   1      12.201  -8.888  17.195 -0.12 +0.05    +0.115    43.536
ATOM     41  C   UNL d   1      12.627  -7.928  18.286 -0.16 +0.11    +0.139    43.536
ATOM     42  O   UNL d   1      13.248  -8.354  19.250 -0.56 -0.66    -0.650    43.536
ATOM     43  O   UNL d   1      12.415  -6.597  18.184 -0.42 -0.81    -0.776    43.536
ATOM     44  H   UNL d   1      11.531  -6.216  18.105 +0.03 +0.10    +0.167    43.536
ATOM     45  C   UNL d   1      14.564 -10.046   5.778 -0.39 +0.00    +0.004    43.536
ATOM     46  C   UNL d   1      15.597 -10.427   5.030 -0.44 -0.00    +0.012    43.536
ATOM     47  C   UNL d   1      14.110  -3.900  10.584 -0.12 +0.00    +0.004    43.536
ATOM     48  C   UNL d   1      13.376  -2.869  10.160 -0.20 -0.00    +0.012    43.536
TER
ENDMDL
MODEL       12
USER    Run = 12
USER    Cluster Rank = 30
USER    Number of conformations in this cluster = 1
USER  
USER    RMSD from reference structure       = 29.684 A
USER  
USER    Estimated Free Energy of Binding    =   -6.34 kcal/mol  [=(1)+(2)+(3)-(4)]
USER    Estimated Inhibition Constant, Ki   =   22.57 uM (micromolar)  [Temperature = 298.15 K]
USER    
USER    (1) Final Intermolecular Energy     =   -9.92 kcal/mol
USER        vdW + Hbond + desolv Energy     =   -7.02 kcal/mol
USER        Electrostatic Energy            =   -2.90 kcal/mol
USER    (2) Final Total Internal Energy     =   -2.34 kcal/mol
USER    (3) Torsional Free Energy           =   +3.58 kcal/mol
USER    (4) Unbound System's Energy  [=(2)] =   -2.34 kcal/mol
USER    
USER    
USER  
USER    DPF = D:/Protein_go_brrr/autodock/final/1A3N/heme_Co/dock.dpf
USER    NEWDPF move	heme_Co_opt.pdbqt
USER    NEWDPF about	8.781000 34.984000 -0.736000
USER    NEWDPF tran0	25.155406 9.820766 -9.310833
USER    NEWDPF axisangle0	0.323150 0.705882 -0.630321 52.321993
USER    NEWDPF quaternion0	0.142475 0.311220 -0.277905 0.897559
USER    NEWDPF dihe0	-176.20 124.64 -6.56 -41.11 132.64 40.99 -128.93 177.17 116.91 157.03 5.58 16.69 
USER  
USER                              x       y       z    vdW   Elec        q     RMS 
ATOM      1  C   UNL d   1      24.232   9.015 -11.103 -0.04 +0.08    +0.064    29.684
ATOM      2  C   UNL d   1      23.761   7.923  -6.499 -0.33 +0.02    +0.064    29.684
ATOM      3  C   UNL d   1      27.220  11.020  -5.372 -0.35 +0.01    +0.064    29.684
ATOM      4  C   UNL d   1      27.452  12.433 -10.022 -0.09 +0.02    +0.064    29.684
ATOM      5  C   UNL d   1      23.874   8.463  -9.932 -0.12 +0.07    +0.066    29.684
ATOM      6  C   UNL d   1      22.817   7.538  -9.834 -0.16 -0.01    -0.021    29.684
ATOM      7  C   UNL d   1      22.669   7.241  -8.493 -0.23 -0.01    -0.025    29.684
ATOM      8  C   UNL d   1      23.653   7.985  -7.833 -0.25 +0.03    +0.066    29.684
ATOM      9  C   UNL d   1      21.646   6.297  -7.844 -0.13 +0.02    +0.051    29.684
ATOM     10  C   UNL d   1      24.758   8.631  -5.736 -0.33 +0.02    +0.066    29.684
ATOM     11  C   UNL d   1      25.013   8.500  -4.354 -0.40 -0.00    -0.021    29.684
ATOM     12  C   UNL d   1      26.029   9.412  -4.053 -0.48 +0.00    +0.000    29.684
ATOM     13  C   UNL d   1      26.326  10.021  -5.272 -0.39 +0.01    +0.070    29.684
ATOM     14  C   UNL d   1      24.384   7.497  -3.422 -0.39 +0.01    +0.052    29.684
ATOM     15  C   UNL d   1      27.609  11.793  -6.536 -0.30 +0.01    +0.066    29.684
ATOM     16  C   UNL d   1      28.433  12.910  -6.544 -0.28 -0.00    -0.021    29.684
ATOM     17  C   UNL d   1      28.501  13.323  -7.882 -0.14 +0.00    +0.000    29.684
ATOM     18  C   UNL d   1      27.724  12.411  -8.590 -0.14 +0.02    +0.070    29.684
ATOM     19  C   UNL d   1      29.096  13.520  -5.329 -0.34 +0.00    +0.052    29.684
ATOM     20  C   UNL d   1      26.632  11.609 -10.717 -0.09 +0.04    +0.066    29.684
ATOM     21  C   UNL d   1      26.423  11.752 -12.087 -0.07 -0.01    -0.025    29.684
ATOM     22  C   UNL d   1      25.522  10.762 -12.433 -0.08 -0.02    -0.021    29.684
ATOM     23  C   UNL d   1      25.213  10.066 -11.244 +0.09 +0.08    +0.066    29.684
ATOM     24  C   UNL d   1      27.037  12.793 -13.020 -0.02 +0.02    +0.051    29.684
ATOM     25  N   UNL d   1      24.418   8.747  -8.700 -0.15 -0.22    -0.248    29.684
ATOM     26  N   UNL d   1      25.597   9.508  -6.299 -0.21 -0.09    -0.248    29.684
ATOM     27  N   UNL d   1      27.185  11.532  -7.752 -0.15 -0.09    -0.248    29.684
ATOM     28  N   UNL d   1      25.882  10.578 -10.203 -0.06 -0.26    -0.248    29.684
ATOM     29 FE   UNL d   1      25.884  10.223  -8.201 -0.05 +0.00    +0.000    29.684
ATOM     30  C   UNL d   1      21.941   7.032 -10.976 -0.11 +0.02    +0.052    29.684
ATOM     31  C   UNL d   1      22.552   5.782 -11.609 -0.08 +0.06    +0.115    29.684
ATOM     32  C   UNL d   1      23.878   6.064 -12.281 -0.08 +0.12    +0.139    29.684
ATOM     33  O   UNL d   1      24.917   5.763 -11.711 -0.04 -0.94    -0.650    29.684
ATOM     34  O   UNL d   1      23.954   6.598 -13.522 +0.02 -0.51    -0.776    29.684
ATOM     35  H   UNL d   1      24.783   6.796 -13.979 +0.01 +0.13    +0.167    29.684
ATOM     36  C   UNL d   1      24.288  11.556  -7.939 -0.01 +0.06    +0.190    29.684
ATOM     37  O   UNL d   1      23.708  12.716  -8.463 -0.10 -0.11    -0.399    29.684
ATOM     38  H   UNL d   1      24.167  12.861  -9.337 +0.06 +0.06    +0.209    29.684
ATOM     39  C   UNL d   1      24.942  10.544 -13.818 -0.03 +0.03    +0.052    29.684
ATOM     40  C   UNL d   1      25.335   9.159 -14.359 -0.04 +0.07    +0.115    29.684
ATOM     41  C   UNL d   1      26.650   8.631 -13.825 +0.04 +0.16    +0.139    29.684
ATOM     42  O   UNL d   1      27.618   9.377 -13.772 -0.06 -0.57    -0.650    29.684
ATOM     43  O   UNL d   1      26.762   7.380 -13.325 +0.18 -1.51    -0.776    29.684
ATOM     44  H   UNL d   1      26.015   6.769 -13.282 +0.01 +0.28    +0.167    29.684
ATOM     45  C   UNL d   1      26.761   9.762  -2.765 -0.42 +0.00    +0.004    29.684
ATOM     46  C   UNL d   1      26.293  10.056  -1.555 -0.53 +0.00    +0.012    29.684
ATOM     47  C   UNL d   1      29.188  14.505  -8.482 -0.07 +0.00    +0.004    29.684
ATOM     48  C   UNL d   1      30.259  14.411  -9.275 -0.05 +0.00    +0.012    29.684
TER
ENDMDL
MODEL       85
USER    Run = 85
USER    Cluster Rank = 31
USER    Number of conformations in this cluster = 2
USER  
USER    RMSD from reference structure       = 51.931 A
USER  
USER    Estimated Free Energy of Binding    =   -6.30 kcal/mol  [=(1)+(2)+(3)-(4)]
USER    Estimated Inhibition Constant, Ki   =   24.01 uM (micromolar)  [Temperature = 298.15 K]
USER    
USER    (1) Final Intermolecular Energy     =   -9.88 kcal/mol
USER        vdW + Hbond + desolv Energy     =   -5.96 kcal/mol
USER        Electrostatic Energy            =   -3.92 kcal/mol
USER    (2) Final Total Internal Energy     =   -2.08 kcal/mol
USER    (3) Torsional Free Energy           =   +3.58 kcal/mol
USER    (4) Unbound System's Energy  [=(2)] =   -2.08 kcal/mol
USER    
USER    
USER  
USER    DPF = D:/Protein_go_brrr/autodock/final/1A3N/heme_Co/dock.dpf
USER    NEWDPF move	heme_Co_opt.pdbqt
USER    NEWDPF about	8.781000 34.984000 -0.736000
USER    NEWDPF tran0	6.748590 -16.697455 18.416438
USER    NEWDPF axisangle0	-0.501196 -0.033552 -0.864683 -150.548284
USER    NEWDPF quaternion0	-0.484733 -0.032450 -0.836281 -0.254194
USER    NEWDPF dihe0	-107.67 53.07 -0.92 -47.20 126.90 158.32 27.92 149.26 179.40 -43.94 -178.23 6.11 
USER  
USER                              x       y       z    vdW   Elec        q     RMS 
ATOM      1  C   UNL d   1       7.077 -16.625  16.271 -0.01 +0.04    +0.064    51.931
ATOM      2  C   UNL d   1       8.324 -13.687  19.796 -0.15 +0.03    +0.064    51.931
ATOM      3  C   UNL d   1       5.881 -16.344  22.926 -0.17 +0.02    +0.064    51.931
ATOM      4  C   UNL d   1       4.915 -19.569  19.414 -0.08 +0.01    +0.064    51.931
ATOM      5  C   UNL d   1       7.567 -15.607  16.998 -0.03 +0.04    +0.066    51.931
ATOM      6  C   UNL d   1       8.416 -14.631  16.440 -0.02 -0.02    -0.021    51.931
ATOM      7  C   UNL d   1       8.793 -13.794  17.472 -0.05 -0.02    -0.025    51.931
ATOM      8  C   UNL d   1       8.146 -14.285  18.611 -0.10 +0.04    +0.066    51.931
ATOM      9  C   UNL d   1       9.726 -12.576  17.404 -0.05 +0.03    +0.051    51.931
ATOM     10  C   UNL d   1       7.680 -14.104  21.016 -0.15 +0.03    +0.066    51.931
ATOM     11  C   UNL d   1       7.715 -13.436  22.259 -0.23 -0.00    -0.021    51.931
ATOM     12  C   UNL d   1       6.991 -14.231  23.153 -0.23 +0.00    +0.000    51.931
ATOM     13  C   UNL d   1       6.559 -15.315  22.388 -0.20 +0.02    +0.070    51.931
ATOM     14  C   UNL d   1       8.323 -12.084  22.529 -0.25 +0.00    +0.052    51.931
ATOM     15  C   UNL d   1       5.406 -17.561  22.298 -0.06 +0.02    +0.066    51.931
ATOM     16  C   UNL d   1       4.838 -18.652  22.941 -0.14 -0.00    -0.021    51.931
ATOM     17  C   UNL d   1       4.560 -19.586  21.933 -0.13 +0.00    +0.000    51.931
ATOM     18  C   UNL d   1       4.966 -18.981  20.747 -0.11 +0.02    +0.070    51.931
ATOM     19  C   UNL d   1       4.593 -18.762  24.429 -0.14 +0.01    +0.052    51.931
ATOM     20  C   UNL d   1       5.382 -19.036  18.260 -0.05 +0.02    +0.066    51.931
ATOM     21  C   UNL d   1       5.308 -19.713  17.045 -0.03 -0.01    -0.025    51.931
ATOM     22  C   UNL d   1       5.898 -18.876  16.115 -0.02 -0.01    -0.021    51.931
ATOM     23  C   UNL d   1       6.316 -17.726  16.817 -0.02 +0.03    +0.066    51.931
ATOM     24  C   UNL d   1       4.722 -21.098  16.785 -0.05 +0.00    +0.051    51.931
ATOM     25  N   UNL d   1       7.375 -15.404  18.346 -0.06 -0.15    -0.248    51.931
ATOM     26  N   UNL d   1       6.929 -15.208  21.084 -0.15 -0.12    -0.248    51.931
ATOM     27  N   UNL d   1       5.492 -17.789  21.006 -0.04 -0.08    -0.248    51.931
ATOM     28  N   UNL d   1       6.008 -17.819  18.116 -0.03 -0.10    -0.248    51.931
ATOM     29 FE   UNL d   1       6.376 -16.669  19.752 -0.03 +0.00    +0.000    51.931
ATOM     30  C   UNL d   1       8.900 -14.565  14.995 -0.06 +0.05    +0.052    51.931
ATOM     31  C   UNL d   1      10.258 -15.253  14.853 -0.06 +0.13    +0.115    51.931
ATOM     32  C   UNL d   1      10.790 -15.760  16.176 -0.04 +0.20    +0.139    51.931
ATOM     33  O   UNL d   1      11.656 -15.124  16.759 -0.43 -1.03    -0.650    51.931
ATOM     34  O   UNL d   1      10.304 -16.877  16.764 -0.06 -1.41    -0.776    51.931
ATOM     35  H   UNL d   1       9.794 -16.881  17.586 +0.02 +0.30    +0.167    51.931
ATOM     36  C   UNL d   1       8.222 -17.622  20.035 -0.10 +0.15    +0.190    51.931
ATOM     37  O   UNL d   1       9.570 -17.574  19.662 -0.62 -0.68    -0.399    51.931
ATOM     38  H   UNL d   1       9.565 -17.687  18.670 +0.02 +0.36    +0.209    51.931
ATOM     39  C   UNL d   1       6.103 -19.198  14.647 -0.08 +0.02    +0.052    51.931
ATOM     40  C   UNL d   1       5.138 -18.382  13.772 -0.18 +0.06    +0.115    51.931
ATOM     41  C   UNL d   1       5.799 -17.665  12.613 -0.24 +0.17    +0.139    51.931
ATOM     42  O   UNL d   1       6.495 -16.685  12.835 +0.06 -1.22    -0.650    51.931
ATOM     43  O   UNL d   1       5.712 -18.130  11.347 -0.71 -1.05    -0.776    51.931
ATOM     44  H   UNL d   1       5.165 -18.890  11.110 +0.06 +0.15    +0.167    51.931
ATOM     45  C   UNL d   1       6.644 -14.082  24.628 -0.23 +0.00    +0.004    51.931
ATOM     46  C   UNL d   1       7.428 -13.910  25.689 -0.34 +0.00    +0.012    51.931
ATOM     47  C   UNL d   1       4.006 -20.968  22.040 -0.10 +0.00    +0.004    51.931
ATOM     48  C   UNL d   1       2.752 -21.287  21.708 -0.10 +0.00    +0.012    51.931
TER
ENDMDL
MODEL       28
USER    Run = 28
USER    Cluster Rank = 32
USER    Number of conformations in this cluster = 3
USER  
USER    RMSD from reference structure       = 38.299 A
USER  
USER    Estimated Free Energy of Binding    =   -6.28 kcal/mol  [=(1)+(2)+(3)-(4)]
USER    Estimated Inhibition Constant, Ki   =   24.76 uM (micromolar)  [Temperature = 298.15 K]
USER    
USER    (1) Final Intermolecular Energy     =   -9.86 kcal/mol
USER        vdW + Hbond + desolv Energy     =   -8.29 kcal/mol
USER        Electrostatic Energy            =   -1.58 kcal/mol
USER    (2) Final Total Internal Energy     =   -0.94 kcal/mol
USER    (3) Torsional Free Energy           =   +3.58 kcal/mol
USER    (4) Unbound System's Energy  [=(2)] =   -0.94 kcal/mol
USER    
USER    
USER  
USER    DPF = D:/Protein_go_brrr/autodock/final/1A3N/heme_Co/dock.dpf
USER    NEWDPF move	heme_Co_opt.pdbqt
USER    NEWDPF about	8.781000 34.984000 -0.736000
USER    NEWDPF tran0	4.456277 -2.548438 -13.086465
USER    NEWDPF axisangle0	0.111236 0.991804 0.062861 54.172157
USER    NEWDPF quaternion0	0.050649 0.451597 0.028623 0.890323
USER    NEWDPF dihe0	47.49 -174.54 80.29 -100.99 52.75 57.15 -137.89 102.99 91.92 -65.77 -162.71 19.77 
USER  
USER                              x       y       z    vdW   Elec        q     RMS 
ATOM      1  C   UNL d   1       4.043  -2.141 -15.179 -0.07 +0.02    +0.064    38.299
ATOM      2  C   UNL d   1       1.537  -4.357 -11.800 -0.13 +0.03    +0.064    38.299
ATOM      3  C   UNL d   1       5.190  -3.920  -8.751 -0.27 +0.00    +0.064    38.299
ATOM      4  C   UNL d   1       7.624  -1.315 -12.061 -0.11 +0.00    +0.064    38.299
ATOM      5  C   UNL d   1       3.103  -2.811 -14.491 -0.05 +0.02    +0.066    38.299
ATOM      6  C   UNL d   1       1.830  -3.077 -15.030 -0.08 -0.01    -0.021    38.299
ATOM      7  C   UNL d   1       1.099  -3.700 -14.038 -0.08 -0.01    -0.025    38.299
ATOM      8  C   UNL d   1       1.962  -3.801 -12.941 -0.09 +0.02    +0.066    38.299
ATOM      9  C   UNL d   1      -0.357  -4.185 -14.103 -0.06 +0.02    +0.051    38.299
ATOM     10  C   UNL d   1       2.360  -4.528 -10.629 -0.13 +0.02    +0.066    38.299
ATOM     11  C   UNL d   1       2.018  -5.227  -9.451 -0.22 -0.01    -0.021    38.299
ATOM     12  C   UNL d   1       3.102  -5.087  -8.581 -0.26 +0.00    +0.000    38.299
ATOM     13  C   UNL d   1       4.029  -4.326  -9.295 -0.20 +0.01    +0.070    38.299
ATOM     14  C   UNL d   1       0.773  -6.047  -9.230 -0.07 +0.06    +0.052    38.299
ATOM     15  C   UNL d   1       6.233  -3.091  -9.323 -0.25 -0.00    +0.066    38.299
ATOM     16  C   UNL d   1       7.341  -2.587  -8.657 -0.38 +0.00    -0.021    38.299
ATOM     17  C   UNL d   1       8.045  -1.833  -9.607 -0.32 -0.00    +0.000    38.299
ATOM     18  C   UNL d   1       7.316  -1.951 -10.786 -0.18 -0.00    +0.070    38.299
ATOM     19  C   UNL d   1       7.675  -2.829  -7.202 -0.25 -0.00    +0.052    38.299
ATOM     20  C   UNL d   1       6.885  -1.345 -13.197 -0.08 +0.01    +0.066    38.299
ATOM     21  C   UNL d   1       7.267  -0.664 -14.350 -0.08 -0.00    -0.025    38.299
ATOM     22  C   UNL d   1       6.268  -0.907 -15.275 -0.09 -0.00    -0.021    38.299
ATOM     23  C   UNL d   1       5.313  -1.722 -14.631 -0.09 +0.01    +0.066    38.299
ATOM     24  C   UNL d   1       8.512   0.194 -14.556 -0.07 +0.00    +0.051    38.299
ATOM     25  N   UNL d   1       3.213  -3.264 -13.196 -0.05 -0.06    -0.248    38.299
ATOM     26  N   UNL d   1       3.602  -4.037 -10.553 -0.07 -0.04    -0.248    38.299
ATOM     27  N   UNL d   1       6.228  -2.682 -10.572 -0.10 +0.01    -0.248    38.299
ATOM     28  N   UNL d   1       5.681  -1.987 -13.372 -0.05 -0.03    -0.248    38.299
ATOM     29 FE   UNL d   1       4.812  -2.954 -11.809 -0.03 +0.00    +0.000    38.299
ATOM     30  C   UNL d   1       1.324  -2.672 -16.411 -0.08 +0.02    +0.052    38.299
ATOM     31  C   UNL d   1       0.923  -1.197 -16.425 -0.12 +0.07    +0.115    38.299
ATOM     32  C   UNL d   1      -0.530  -0.990 -16.055 -0.17 +0.15    +0.139    38.299
ATOM     33  O   UNL d   1      -0.829  -0.778 -14.890 -0.21 -0.76    -0.650    38.299
ATOM     34  O   UNL d   1      -1.513  -0.985 -16.985 -0.56 -1.04    -0.776    38.299
ATOM     35  H   UNL d   1      -1.575  -1.616 -17.715 +0.02 +0.12    +0.167    38.299
ATOM     36  C   UNL d   1       3.826  -1.194 -11.239 -0.33 +0.01    +0.190    38.299
ATOM     37  O   UNL d   1       3.807   0.189 -11.445 -0.84 -0.05    -0.399    38.299
ATOM     38  H   UNL d   1       3.429   0.306 -12.361 -0.48 -0.00    +0.209    38.299
ATOM     39  C   UNL d   1       6.209  -0.332 -16.678 -0.07 +0.01    +0.052    38.299
ATOM     40  C   UNL d   1       6.173  -1.457 -17.725 -0.02 +0.01    +0.115    38.299
ATOM     41  C   UNL d   1       4.838  -1.621 -18.421 -0.01 +0.02    +0.139    38.299
ATOM     42  O   UNL d   1       4.234  -2.679 -18.315 +0.01 -0.10    -0.650    38.299
ATOM     43  O   UNL d   1       4.253  -0.600 -19.085 +0.02 -0.12    -0.776    38.299
ATOM     44  H   UNL d   1       4.447  -0.404 -20.010 +0.01 +0.02    +0.167    38.299
ATOM     45  C   UNL d   1       3.376  -5.597  -7.172 -0.34 +0.00    +0.004    38.299
ATOM     46  C   UNL d   1       3.441  -4.947  -6.013 -0.44 +0.00    +0.012    38.299
ATOM     47  C   UNL d   1       9.280  -1.009  -9.447 -0.37 +0.00    +0.004    38.299
ATOM     48  C   UNL d   1      10.248  -1.295  -8.571 -0.42 +0.00    +0.012    38.299
TER
ENDMDL
MODEL       73
USER    Run = 73
USER    Cluster Rank = 33
USER    Number of conformations in this cluster = 1
USER  
USER    RMSD from reference structure       = 41.319 A
USER  
USER    Estimated Free Energy of Binding    =   -6.20 kcal/mol  [=(1)+(2)+(3)-(4)]
USER    Estimated Inhibition Constant, Ki   =   28.53 uM (micromolar)  [Temperature = 298.15 K]
USER    
USER    (1) Final Intermolecular Energy     =   -9.78 kcal/mol
USER        vdW + Hbond + desolv Energy     =   -9.36 kcal/mol
USER        Electrostatic Energy            =   -0.42 kcal/mol
USER    (2) Final Total Internal Energy     =   -1.91 kcal/mol
USER    (3) Torsional Free Energy           =   +3.58 kcal/mol
USER    (4) Unbound System's Energy  [=(2)] =   -1.91 kcal/mol
USER    
USER    
USER  
USER    DPF = D:/Protein_go_brrr/autodock/final/1A3N/heme_Co/dock.dpf
USER    NEWDPF move	heme_Co_opt.pdbqt
USER    NEWDPF about	8.781000 34.984000 -0.736000
USER    NEWDPF tran0	1.461250 -6.692295 -7.721617
USER    NEWDPF axisangle0	0.463349 -0.197200 0.863956 145.389256
USER    NEWDPF quaternion0	0.442374 -0.188273 0.824847 0.297464
USER    NEWDPF dihe0	-105.82 130.40 148.70 -103.85 81.05 79.79 156.02 -12.59 -7.14 179.89 24.25 178.41 
USER  
USER                              x       y       z    vdW   Elec        q     RMS 
ATOM      1  C   UNL d   1       1.743  -5.755  -9.660 -0.18 +0.04    +0.064    41.319
ATOM      2  C   UNL d   1       3.481  -4.759  -5.348 -0.42 +0.01    +0.064    41.319
ATOM      3  C   UNL d   1       0.766  -8.186  -3.421 -0.36 +0.01    +0.064    41.319
ATOM      4  C   UNL d   1      -0.735  -9.478  -7.864 -0.05 +0.03    +0.064    41.319
ATOM      5  C   UNL d   1       2.390  -5.208  -8.619 -0.23 +0.02    +0.066    41.319
ATOM      6  C   UNL d   1       3.354  -4.194  -8.787 -0.28 -0.00    -0.021    41.319
ATOM      7  C   UNL d   1       3.871  -3.925  -7.535 -0.38 -0.00    -0.025    41.319
ATOM      8  C   UNL d   1       3.190  -4.773  -6.655 -0.28 +0.01    +0.066    41.319
ATOM      9  C   UNL d   1       4.966  -2.912  -7.166 -0.48 +0.00    +0.051    41.319
ATOM     10  C   UNL d   1       2.815  -5.576  -4.364 -0.19 +0.01    +0.066    41.319
ATOM     11  C   UNL d   1       2.975  -5.508  -2.963 -0.03 -0.00    -0.021    41.319
ATOM     12  C   UNL d   1       2.169  -6.516  -2.426 -0.18 -0.00    +0.000    41.319
ATOM     13  C   UNL d   1       1.569  -7.113  -3.534 -0.32 +0.01    +0.070    41.319
ATOM     14  C   UNL d   1       3.775  -4.480  -2.205 -0.44 +0.00    +0.052    41.319
ATOM     15  C   UNL d   1       0.107  -8.956  -4.457 -0.34 +0.01    +0.066    41.319
ATOM     16  C   UNL d   1      -0.592 -10.142  -4.283 -0.33 -0.00    -0.021    41.319
ATOM     17  C   UNL d   1      -1.025 -10.520  -5.562 -0.18 +0.00    +0.000    41.319
ATOM     18  C   UNL d   1      -0.568  -9.522  -6.417 -0.09 +0.03    +0.070    41.319
ATOM     19  C   UNL d   1      -0.813 -10.844  -2.962 -0.28 +0.00    +0.052    41.319
ATOM     20  C   UNL d   1      -0.226  -8.565  -8.725 -0.11 +0.05    +0.066    41.319
ATOM     21  C   UNL d   1      -0.425  -8.648 -10.101 -0.10 -0.02    -0.025    41.319
ATOM     22  C   UNL d   1       0.253  -7.572 -10.643 -0.11 -0.02    -0.021    41.319
ATOM     23  C   UNL d   1       0.848  -6.886  -9.562 -0.15 +0.06    +0.066    41.319
ATOM     24  C   UNL d   1      -1.207  -9.713 -10.866 -0.07 +0.02    +0.051    41.319
ATOM     25  N   UNL d   1       2.262  -5.574  -7.298 -0.01 -0.09    -0.248    41.319
ATOM     26  N   UNL d   1       1.917  -6.508  -4.701 -0.17 -0.06    -0.248    41.319
ATOM     27  N   UNL d   1       0.128  -8.624  -5.729 -0.19 -0.08    -0.248    41.319
ATOM     28  N   UNL d   1       0.562  -7.485  -8.400 -0.15 -0.21    -0.248    41.319
ATOM     29 FE   UNL d   1       1.130  -7.190  -6.470 -0.07 +0.00    +0.000    41.319
ATOM     30  C   UNL d   1       3.807  -3.580 -10.107 -0.23 +0.01    +0.052    41.319
ATOM     31  C   UNL d   1       3.284  -2.150 -10.241 -0.33 +0.01    +0.115    41.319
ATOM     32  C   UNL d   1       3.883  -1.425 -11.427 -0.35 +0.01    +0.139    41.319
ATOM     33  O   UNL d   1       4.276  -2.068 -12.389 +0.02 -0.09    -0.650    41.319
ATOM     34  O   UNL d   1       3.957  -0.074 -11.480 -0.40 -0.07    -0.776    41.319
ATOM     35  H   UNL d   1       3.429   0.476 -12.074 -0.51 +0.03    +0.167    41.319
ATOM     36  C   UNL d   1       2.830  -8.382  -6.764 -0.13 +0.03    +0.190    41.319
ATOM     37  O   UNL d   1       3.573  -9.040  -7.750 +0.00 -0.06    -0.399    41.319
ATOM     38  H   UNL d   1       3.277  -8.629  -8.610 +0.07 +0.04    +0.209    41.319
ATOM     39  C   UNL d   1       0.374  -7.263 -12.123 -0.05 +0.03    +0.052    41.319
ATOM     40  C   UNL d   1       1.463  -8.133 -12.772 -0.01 +0.03    +0.115    41.319
ATOM     41  C   UNL d   1       2.249  -8.982 -11.795 -0.03 +0.03    +0.139    41.319
ATOM     42  O   UNL d   1       2.322 -10.189 -11.976 +0.02 -0.11    -0.650    41.319
ATOM     43  O   UNL d   1       2.945  -8.432 -10.776 +0.04 -0.17    -0.776    41.319
ATOM     44  H   UNL d   1       3.152  -8.917  -9.967 +0.04 +0.03    +0.167    41.319
ATOM     45  C   UNL d   1       1.884  -6.967  -1.000 -0.44 +0.00    +0.004    41.319
ATOM     46  C   UNL d   1       2.201  -8.094  -0.368 -0.51 -0.00    +0.012    41.319
ATOM     47  C   UNL d   1      -1.767 -11.741  -5.996 -0.18 +0.00    +0.004    41.319
ATOM     48  C   UNL d   1      -2.973 -12.075  -5.531 -0.19 +0.00    +0.012    41.319
TER
ENDMDL
MODEL       17
USER    Run = 17
USER    Cluster Rank = 34
USER    Number of conformations in this cluster = 1
USER  
USER    RMSD from reference structure       = 27.529 A
USER  
USER    Estimated Free Energy of Binding    =   -6.11 kcal/mol  [=(1)+(2)+(3)-(4)]
USER    Estimated Inhibition Constant, Ki   =   33.41 uM (micromolar)  [Temperature = 298.15 K]
USER    
USER    (1) Final Intermolecular Energy     =   -9.69 kcal/mol
USER        vdW + Hbond + desolv Energy     =   -8.12 kcal/mol
USER        Electrostatic Energy            =   -1.57 kcal/mol
USER    (2) Final Total Internal Energy     =   -0.85 kcal/mol
USER    (3) Torsional Free Energy           =   +3.58 kcal/mol
USER    (4) Unbound System's Energy  [=(2)] =   -0.85 kcal/mol
USER    
USER    
USER  
USER    DPF = D:/Protein_go_brrr/autodock/final/1A3N/heme_Co/dock.dpf
USER    NEWDPF move	heme_Co_opt.pdbqt
USER    NEWDPF about	8.781000 34.984000 -0.736000
USER    NEWDPF tran0	15.695673 8.774505 14.831539
USER    NEWDPF axisangle0	-0.961033 -0.054907 -0.270926 -142.831124
USER    NEWDPF quaternion0	-0.910920 -0.052044 -0.256799 -0.318702
USER    NEWDPF dihe0	140.65 152.19 86.74 101.48 151.16 151.80 13.10 128.49 -161.95 -44.54 -1.25 -179.96 
USER  
USER                              x       y       z    vdW   Elec        q     RMS 
ATOM      1  C   UNL d   1      13.786   7.997  14.151 -0.13 +0.03    +0.064    27.529
ATOM      2  C   UNL d   1      15.808  12.284  13.771 -0.18 +0.00    +0.064    27.529
ATOM      3  C   UNL d   1      19.470  10.838  16.479 -0.15 +0.02    +0.064    27.529
ATOM      4  C   UNL d   1      17.617   6.341  16.561 -0.27 +0.02    +0.064    27.529
ATOM      5  C   UNL d   1      14.052   9.285  13.879 -0.09 +0.03    +0.066    27.529
ATOM      6  C   UNL d   1      13.230  10.055  13.032 -0.09 -0.01    -0.021    27.529
ATOM      7  C   UNL d   1      13.833  11.291  12.907 -0.13 -0.00    -0.025    27.529
ATOM      8  C   UNL d   1      14.988  11.228  13.695 -0.12 +0.01    +0.066    27.529
ATOM      9  C   UNL d   1      13.354  12.494  12.082 +0.03 -0.00    +0.051    27.529
ATOM     10  C   UNL d   1      17.003  12.321  14.576 -0.16 +0.01    +0.066    27.529
ATOM     11  C   UNL d   1      17.829  13.442  14.809 -0.18 -0.00    -0.021    27.529
ATOM     12  C   UNL d   1      18.887  12.993  15.605 -0.16 +0.00    +0.000    27.529
ATOM     13  C   UNL d   1      18.622  11.638  15.808 -0.12 +0.01    +0.070    27.529
ATOM     14  C   UNL d   1      17.555  14.858  14.372 +0.08 +0.01    +0.052    27.529
ATOM     15  C   UNL d   1      19.380   9.414  16.737 -0.17 +0.02    +0.066    27.529
ATOM     16  C   UNL d   1      20.361   8.618  17.311 -0.29 -0.01    -0.021    27.529
ATOM     17  C   UNL d   1      19.832   7.320  17.335 -0.30 +0.00    +0.000    27.529
ATOM     18  C   UNL d   1      18.559   7.430  16.786 -0.20 +0.02    +0.070    27.529
ATOM     19  C   UNL d   1      21.710   9.102  17.796 -0.24 +0.03    +0.052    27.529
ATOM     20  C   UNL d   1      16.409   6.409  15.951 -0.26 +0.04    +0.066    27.529
ATOM     21  C   UNL d   1      15.608   5.285  15.760 -0.29 -0.02    -0.025    27.529
ATOM     22  C   UNL d   1      14.484   5.737  15.093 -0.29 -0.02    -0.021    27.529
ATOM     23  C   UNL d   1      14.662   7.123  14.898 -0.20 +0.05    +0.066    27.529
ATOM     24  C   UNL d   1      15.907   3.847  16.175 -0.11 +0.00    +0.051    27.529
ATOM     25  N   UNL d   1      15.145   9.999  14.313 -0.04 -0.09    -0.248    27.529
ATOM     26  N   UNL d   1      17.454  11.246  15.233 -0.06 -0.04    -0.248    27.529
ATOM     27  N   UNL d   1      18.335   8.685  16.414 -0.10 -0.08    -0.248    27.529
ATOM     28  N   UNL d   1      15.827   7.533  15.413 -0.14 -0.19    -0.248    27.529
ATOM     29 FE   UNL d   1      16.833   9.300  15.426 -0.04 +0.00    +0.000    27.529
ATOM     30  C   UNL d   1      11.968   9.585  12.317 -0.10 +0.01    +0.052    27.529
ATOM     31  C   UNL d   1      10.761   9.658  13.252 -0.18 +0.02    +0.115    27.529
ATOM     32  C   UNL d   1      11.026  10.517  14.470 -0.31 +0.02    +0.139    27.529
ATOM     33  O   UNL d   1      11.010  10.006  15.580 -0.01 -0.12    -0.650    27.529
ATOM     34  O   UNL d   1      11.330  11.831  14.368 +0.04 -0.09    -0.776    27.529
ATOM     35  H   UNL d   1      10.955  12.521  14.933 -0.49 +0.01    +0.167    27.529
ATOM     36  C   UNL d   1      17.716   8.837  13.582 +0.08 +0.21    +0.190    27.529
ATOM     37  O   UNL d   1      17.481   8.837  12.203 -0.19 -0.49    -0.399    27.529
ATOM     38  H   UNL d   1      16.968   9.676  12.030 +0.05 +0.14    +0.209    27.529
ATOM     39  C   UNL d   1      13.336   4.867  14.615 -0.33 +0.04    +0.052    27.529
ATOM     40  C   UNL d   1      13.714   4.134  13.318 -0.20 +0.09    +0.115    27.529
ATOM     41  C   UNL d   1      13.448   2.644  13.342 -0.17 +0.11    +0.139    27.529
ATOM     42  O   UNL d   1      14.344   1.881  13.673 +0.02 -0.33    -0.650    27.529
ATOM     43  O   UNL d   1      12.220   2.138  13.091 -0.41 -1.17    -0.776    27.529
ATOM     44  H   UNL d   1      11.945   1.857  12.208 +0.04 +0.13    +0.167    27.529
ATOM     45  C   UNL d   1      20.100  13.688  16.209 -0.23 +0.00    +0.004    27.529
ATOM     46  C   UNL d   1      20.271  14.250  17.402 -0.38 +0.00    +0.012    27.529
ATOM     47  C   UNL d   1      20.462   6.041  17.782 -0.41 -0.00    +0.004    27.529
ATOM     48  C   UNL d   1      19.882   5.193  18.634 -0.56 -0.01    +0.012    27.529
TER
ENDMDL
MODEL       89
USER    Run = 89
USER    Cluster Rank = 35
USER    Number of conformations in this cluster = 1
USER  
USER    RMSD from reference structure       = 37.788 A
USER  
USER    Estimated Free Energy of Binding    =   -6.08 kcal/mol  [=(1)+(2)+(3)-(4)]
USER    Estimated Inhibition Constant, Ki   =   34.88 uM (micromolar)  [Temperature = 298.15 K]
USER    
USER    (1) Final Intermolecular Energy     =   -9.66 kcal/mol
USER        vdW + Hbond + desolv Energy     =   -7.44 kcal/mol
USER        Electrostatic Energy            =   -2.22 kcal/mol
USER    (2) Final Total Internal Energy     =   -2.61 kcal/mol
USER    (3) Torsional Free Energy           =   +3.58 kcal/mol
USER    (4) Unbound System's Energy  [=(2)] =   -2.61 kcal/mol
USER    
USER    
USER  
USER    DPF = D:/Protein_go_brrr/autodock/final/1A3N/heme_Co/dock.dpf
USER    NEWDPF move	heme_Co_opt.pdbqt
USER    NEWDPF about	8.781000 34.984000 -0.736000
USER    NEWDPF tran0	5.358107 -2.422671 -11.479787
USER    NEWDPF axisangle0	-0.951075 -0.275145 -0.140536 169.255705
USER    NEWDPF quaternion0	-0.946898 -0.273937 -0.139919 0.093624
USER    NEWDPF dihe0	84.96 104.27 94.54 55.09 -83.66 160.03 -90.84 -140.34 54.77 -63.33 26.24 26.26 
USER  
USER                              x       y       z    vdW   Elec        q     RMS 
ATOM      1  C   UNL d   1       3.766  -3.807 -10.965 -0.12 +0.01    +0.064    37.788
ATOM      2  C   UNL d   1       4.658  -1.283 -14.895 -0.05 +0.02    +0.064    37.788
ATOM      3  C   UNL d   1       8.347   0.850 -12.733 -0.16 +0.00    +0.064    37.788
ATOM      4  C   UNL d   1       7.694  -1.995  -8.841 -0.28 -0.00    +0.064    37.788
ATOM      5  C   UNL d   1       3.717  -3.248 -12.185 -0.11 +0.01    +0.066    37.788
ATOM      6  C   UNL d   1       2.794  -3.668 -13.163 -0.08 -0.01    -0.021    37.788
ATOM      7  C   UNL d   1       3.072  -2.948 -14.308 -0.08 -0.01    -0.025    37.788
ATOM      8  C   UNL d   1       4.141  -2.108 -13.976 -0.06 +0.02    +0.066    37.788
ATOM      9  C   UNL d   1       2.369  -3.037 -15.671 -0.07 +0.02    +0.051    37.788
ATOM     10  C   UNL d   1       5.739  -0.365 -14.637 -0.14 +0.01    +0.066    37.788
ATOM     11  C   UNL d   1       6.234   0.624 -15.515 -0.15 -0.00    -0.021    37.788
ATOM     12  C   UNL d   1       7.306   1.234 -14.858 -0.16 +0.00    +0.000    37.788
ATOM     13  C   UNL d   1       7.379   0.582 -13.627 -0.16 +0.01    +0.070    37.788
ATOM     14  C   UNL d   1       5.644   1.009 -16.848 -0.11 +0.01    +0.052    37.788
ATOM     15  C   UNL d   1       8.602   0.240 -11.443 -0.21 +0.00    +0.066    37.788
ATOM     16  C   UNL d   1       9.705   0.462 -10.631 -0.20 +0.00    -0.021    37.788
ATOM     17  C   UNL d   1       9.523  -0.358  -9.509 -0.33 +0.00    +0.000    37.788
ATOM     18  C   UNL d   1       8.310  -1.006  -9.717 -0.29 -0.00    +0.070    37.788
ATOM     19  C   UNL d   1      10.846   1.405 -10.941 -0.16 +0.00    +0.052    37.788
ATOM     20  C   UNL d   1       6.560  -2.701  -9.064 -0.20 -0.01    +0.066    37.788
ATOM     21  C   UNL d   1       6.087  -3.652  -8.162 -0.40 -0.00    -0.025    37.788
ATOM     22  C   UNL d   1       4.940  -4.170  -8.735 -0.27 -0.00    -0.021    37.788
ATOM     23  C   UNL d   1       4.775  -3.513  -9.972 -0.19 +0.00    +0.066    37.788
ATOM     24  C   UNL d   1       6.709  -4.062  -6.830 -0.38 +0.00    +0.051    37.788
ATOM     25  N   UNL d   1       4.557  -2.269 -12.665 -0.09 -0.04    -0.248    37.788
ATOM     26  N   UNL d   1       6.396  -0.345 -13.473 -0.12 -0.03    -0.248    37.788
ATOM     27  N   UNL d   1       7.804  -0.648 -10.892 -0.16 +0.00    -0.248    37.788
ATOM     28  N   UNL d   1       5.754  -2.624 -10.176 -0.11 +0.02    -0.248    37.788
ATOM     29 FE   UNL d   1       6.276  -1.412 -11.723 -0.05 +0.00    +0.000    37.788
ATOM     30  C   UNL d   1       1.751  -4.771 -13.015 -0.05 +0.02    +0.052    37.788
ATOM     31  C   UNL d   1       0.343  -4.178 -12.984 -0.09 +0.05    +0.115    37.788
ATOM     32  C   UNL d   1      -0.451  -4.640 -11.782 -0.15 +0.12    +0.139    37.788
ATOM     33  O   UNL d   1      -1.164  -3.842 -11.190 -0.00 -0.75    -0.650    37.788
ATOM     34  O   UNL d   1      -0.437  -5.926 -11.363 -0.20 -0.95    -0.776    37.788
ATOM     35  H   UNL d   1       0.264  -6.315 -10.822 +0.03 +0.18    +0.167    37.788
ATOM     36  C   UNL d   1       7.386  -2.962 -12.594 -0.03 +0.01    +0.190    37.788
ATOM     37  O   UNL d   1       7.287  -4.046 -13.472 +0.00 -0.03    -0.399    37.788
ATOM     38  H   UNL d   1       6.310  -4.143 -13.652 +0.02 +0.02    +0.209    37.788
ATOM     39  C   UNL d   1       4.090  -5.283  -8.149 -0.26 +0.01    +0.052    37.788
ATOM     40  C   UNL d   1       2.615  -4.857  -8.075 -0.25 +0.04    +0.115    37.788
ATOM     41  C   UNL d   1       1.702  -5.596  -9.030 -0.22 +0.08    +0.139    37.788
ATOM     42  O   UNL d   1       2.180  -6.420  -9.798 +0.02 -0.27    -0.650    37.788
ATOM     43  O   UNL d   1       0.360  -5.435  -8.999 -0.23 -1.07    -0.776    37.788
ATOM     44  H   UNL d   1      -0.110  -4.872  -9.627 +0.05 +0.30    +0.167    37.788
ATOM     45  C   UNL d   1       8.253   2.363 -15.242 -0.13 +0.00    +0.004    37.788
ATOM     46  C   UNL d   1       8.006   3.558 -15.771 -0.15 -0.00    +0.012    37.788
ATOM     47  C   UNL d   1      10.420  -0.584  -8.336 -0.42 +0.00    +0.004    37.788
ATOM     48  C   UNL d   1      11.142  -1.693  -8.162 -0.46 +0.00    +0.012    37.788
TER
ENDMDL
MODEL       25
USER    Run = 25
USER    Cluster Rank = 36
USER    Number of conformations in this cluster = 1
USER  
USER    RMSD from reference structure       = 48.975 A
USER  
USER    Estimated Free Energy of Binding    =   -6.07 kcal/mol  [=(1)+(2)+(3)-(4)]
USER    Estimated Inhibition Constant, Ki   =   35.64 uM (micromolar)  [Temperature = 298.15 K]
USER    
USER    (1) Final Intermolecular Energy     =   -9.65 kcal/mol
USER        vdW + Hbond + desolv Energy     =   -7.67 kcal/mol
USER        Electrostatic Energy            =   -1.98 kcal/mol
USER    (2) Final Total Internal Energy     =   -0.96 kcal/mol
USER    (3) Torsional Free Energy           =   +3.58 kcal/mol
USER    (4) Unbound System's Energy  [=(2)] =   -0.96 kcal/mol
USER    
USER    
USER  
USER    DPF = D:/Protein_go_brrr/autodock/final/1A3N/heme_Co/dock.dpf
USER    NEWDPF move	heme_Co_opt.pdbqt
USER    NEWDPF about	8.781000 34.984000 -0.736000
USER    NEWDPF tran0	6.290473 -15.165693 14.964921
USER    NEWDPF axisangle0	0.996939 0.076707 -0.015149 110.392135
USER    NEWDPF quaternion0	0.818596 0.062985 -0.012439 0.570770
USER    NEWDPF dihe0	174.53 5.29 -4.33 -97.30 -70.05 -134.47 -177.77 -24.70 78.40 153.35 22.86 -179.98 
USER  
USER                              x       y       z    vdW   Elec        q     RMS 
ATOM      1  C   UNL d   1       4.494 -16.356  14.694 -0.12 +0.03    +0.064    48.975
ATOM      2  C   UNL d   1       5.162 -11.818  15.948 -0.24 +0.02    +0.064    48.975
ATOM      3  C   UNL d   1       9.892 -12.492  16.012 -0.02 +0.04    +0.064    48.975
ATOM      4  C   UNL d   1       9.255 -17.022  14.357 -0.00 +0.10    +0.064    48.975
ATOM      5  C   UNL d   1       4.327 -15.076  15.067 -0.13 +0.02    +0.066    48.975
ATOM      6  C   UNL d   1       3.058 -14.467  15.102 -0.27 -0.01    -0.021    48.975
ATOM      7  C   UNL d   1       3.260 -13.145  15.445 -0.33 -0.01    -0.025    48.975
ATOM      8  C   UNL d   1       4.641 -13.007  15.620 -0.18 +0.02    +0.066    48.975
ATOM      9  C   UNL d   1       2.203 -12.041  15.604 -0.40 +0.01    +0.051    48.975
ATOM     10  C   UNL d   1       6.566 -11.587  16.175 -0.10 +0.02    +0.066    48.975
ATOM     11  C   UNL d   1       7.159 -10.399  16.657 -0.10 -0.01    -0.021    48.975
ATOM     12  C   UNL d   1       8.538 -10.625  16.670 -0.05 +0.00    +0.000    48.975
ATOM     13  C   UNL d   1       8.684 -11.933  16.208 -0.03 +0.03    +0.070    48.975
ATOM     14  C   UNL d   1       6.431  -9.178  17.158 -0.15 +0.01    +0.052    48.975
ATOM     15  C   UNL d   1      10.225 -13.804  15.494 -0.02 +0.05    +0.066    48.975
ATOM     16  C   UNL d   1      11.495 -14.267  15.179 -0.04 -0.02    -0.021    48.975
ATOM     17  C   UNL d   1      11.316 -15.572  14.699 -0.07 +0.00    +0.000    48.975
ATOM     18  C   UNL d   1       9.948 -15.809  14.775 -0.05 +0.09    +0.070    48.975
ATOM     19  C   UNL d   1      12.778 -13.482  15.338 -0.07 +0.03    +0.052    48.975
ATOM     20  C   UNL d   1       7.919 -17.243  14.340 -0.04 +0.09    +0.066    48.975
ATOM     21  C   UNL d   1       7.369 -18.438  13.881 -0.09 -0.03    -0.025    48.975
ATOM     22  C   UNL d   1       5.999 -18.286  13.993 -0.12 -0.01    -0.021    48.975
ATOM     23  C   UNL d   1       5.779 -16.991  14.509 -0.08 +0.05    +0.066    48.975
ATOM     24  C   UNL d   1       8.111 -19.658  13.342 -0.11 +0.04    +0.051    48.975
ATOM     25  N   UNL d   1       5.327 -14.189  15.398 -0.04 -0.11    -0.248    48.975
ATOM     26  N   UNL d   1       7.488 -12.532  15.962 -0.02 -0.12    -0.248    48.975
ATOM     27  N   UNL d   1       9.326 -14.725  15.224 -0.02 -0.24    -0.248    48.975
ATOM     28  N   UNL d   1       6.938 -16.356  14.718 -0.03 -0.24    -0.248    48.975
ATOM     29 FE   UNL d   1       7.445 -14.476  15.306 -0.02 +0.00    +0.000    48.975
ATOM     30  C   UNL d   1       1.727 -15.118  14.740 -0.32 +0.00    +0.052    48.975
ATOM     31  C   UNL d   1       0.900 -15.386  15.998 -0.41 +0.03    +0.115    48.975
ATOM     32  C   UNL d   1       0.921 -16.845  16.402 -0.44 +0.02    +0.139    48.975
ATOM     33  O   UNL d   1       1.993 -17.415  16.538 -0.03 -0.07    -0.650    48.975
ATOM     34  O   UNL d   1      -0.214 -17.532  16.666 -0.32 -0.32    -0.776    48.975
ATOM     35  H   UNL d   1      -0.253 -18.490  16.796 -0.43 -0.11    +0.167    48.975
ATOM     36  C   UNL d   1       7.336 -13.802  13.324 -0.18 +0.21    +0.190    48.975
ATOM     37  O   UNL d   1       7.115 -12.661  12.545 -0.67 -0.39    -0.399    48.975
ATOM     38  H   UNL d   1       6.212 -12.796  12.143 +0.05 +0.17    +0.209    48.975
ATOM     39  C   UNL d   1       4.963 -19.308  13.566 -0.18 +0.02    +0.052    48.975
ATOM     40  C   UNL d   1       4.762 -19.273  12.042 -0.29 +0.06    +0.115    48.975
ATOM     41  C   UNL d   1       4.944 -17.904  11.419 -0.37 +0.14    +0.139    48.975
ATOM     42  O   UNL d   1       5.885 -17.713  10.661 -0.74 -1.12    -0.650    48.975
ATOM     43  O   UNL d   1       4.047 -16.912  11.610 -0.17 -0.60    -0.776    48.975
ATOM     44  H   UNL d   1       3.268 -17.017  12.171 +0.04 +0.08    +0.167    48.975
ATOM     45  C   UNL d   1       9.727  -9.767  17.080 -0.04 +0.00    +0.004    48.975
ATOM     46  C   UNL d   1      10.639  -9.140  16.342 -0.06 +0.00    +0.012    48.975
ATOM     47  C   UNL d   1      12.320 -16.533  14.154 -0.08 +0.00    +0.004    48.975
ATOM     48  C   UNL d   1      12.623 -16.627  12.857 -0.10 +0.01    +0.012    48.975
TER
ENDMDL
MODEL        2
USER    Run = 2
USER    Cluster Rank = 37
USER    Number of conformations in this cluster = 1
USER  
USER    RMSD from reference structure       = 45.430 A
USER  
USER    Estimated Free Energy of Binding    =   -6.02 kcal/mol  [=(1)+(2)+(3)-(4)]
USER    Estimated Inhibition Constant, Ki   =   38.67 uM (micromolar)  [Temperature = 298.15 K]
USER    
USER    (1) Final Intermolecular Energy     =   -9.60 kcal/mol
USER        vdW + Hbond + desolv Energy     =   -6.52 kcal/mol
USER        Electrostatic Energy            =   -3.08 kcal/mol
USER    (2) Final Total Internal Energy     =   -1.64 kcal/mol
USER    (3) Torsional Free Energy           =   +3.58 kcal/mol
USER    (4) Unbound System's Energy  [=(2)] =   -1.64 kcal/mol
USER    
USER    
USER  
USER    DPF = D:/Protein_go_brrr/autodock/final/1A3N/heme_Co/dock.dpf
USER    NEWDPF move	heme_Co_opt.pdbqt
USER    NEWDPF about	8.781000 34.984000 -0.736000
USER    NEWDPF tran0	19.624091 5.818474 38.178267
USER    NEWDPF axisangle0	0.787854 -0.570060 0.233063 -89.971610
USER    NEWDPF quaternion0	0.556959 -0.402993 0.164760 -0.707282
USER    NEWDPF dihe0	6.78 106.64 -39.37 86.55 132.72 90.99 -160.57 147.78 -1.82 27.27 -145.46 -178.70 
USER  
USER                              x       y       z    vdW   Elec        q     RMS 
ATOM      1  C   UNL d   1      18.411   7.181  37.000 -0.14 -0.00    +0.064    45.430
ATOM      2  C   UNL d   1      19.563   2.605  36.411 -0.32 +0.00    +0.064    45.430
ATOM      3  C   UNL d   1      22.446   2.802  40.217 -0.20 +0.01    +0.064    45.430
ATOM      4  C   UNL d   1      20.989   7.365  41.068 -0.09 -0.01    +0.064    45.430
ATOM      5  C   UNL d   1      18.542   5.927  36.538 -0.17 +0.00    +0.066    45.430
ATOM      6  C   UNL d   1      17.786   5.448  35.450 -0.25 -0.01    -0.021    45.430
ATOM      7  C   UNL d   1      18.108   4.114  35.298 -0.32 -0.01    -0.025    45.430
ATOM      8  C   UNL d   1      19.057   3.839  36.289 -0.12 +0.00    +0.066    45.430
ATOM      9  C   UNL d   1      17.550   3.122  34.266 -0.31 +0.03    +0.051    45.430
ATOM     10  C   UNL d   1      20.563   2.236  37.382 -0.23 +0.00    +0.066    45.430
ATOM     11  C   UNL d   1      21.235   0.998  37.471 -0.14 +0.00    -0.021    45.430
ATOM     12  C   UNL d   1      22.072   1.084  38.587 -0.19 -0.00    +0.000    45.430
ATOM     13  C   UNL d   1      21.859   2.369  39.087 -0.20 +0.00    +0.070    45.430
ATOM     14  C   UNL d   1      21.140  -0.142  36.489 -0.28 -0.00    +0.052    45.430
ATOM     15  C   UNL d   1      22.299   4.072  40.900 -0.17 +0.01    +0.066    45.430
ATOM     16  C   UNL d   1      22.821   4.404  42.142 -0.14 -0.00    -0.021    45.430
ATOM     17  C   UNL d   1      22.402   5.718  42.393 -0.11 +0.00    +0.000    45.430
ATOM     18  C   UNL d   1      21.668   6.092  41.273 -0.11 +0.00    +0.070    45.430
ATOM     19  C   UNL d   1      23.664   3.495  43.010 -0.07 +0.01    +0.052    45.430
ATOM     20  C   UNL d   1      20.199   7.719  40.026 -0.10 -0.02    +0.066    45.430
ATOM     21  C   UNL d   1      19.571   8.961  39.959 -0.08 +0.01    -0.025    45.430
ATOM     22  C   UNL d   1      18.843   8.948  38.782 -0.07 +0.01    -0.021    45.430
ATOM     23  C   UNL d   1      19.056   7.684  38.192 -0.06 -0.02    +0.066    45.430
ATOM     24  C   UNL d   1      19.643  10.098  40.974 -0.04 -0.01    +0.051    45.430
ATOM     25  N   UNL d   1      19.349   4.946  37.068 -0.12 +0.01    -0.248    45.430
ATOM     26  N   UNL d   1      20.988   3.083  38.325 -0.14 -0.01    -0.248    45.430
ATOM     27  N   UNL d   1      21.602   5.077  40.418 -0.10 -0.01    -0.248    45.430
ATOM     28  N   UNL d   1      19.874   6.936  38.943 -0.09 +0.07    -0.248    45.430
ATOM     29 FE   UNL d   1      20.542   5.019  38.842 -0.04 -0.00    +0.000    45.430
ATOM     30  C   UNL d   1      16.744   6.227  34.654 -0.31 +0.04    +0.052    45.430
ATOM     31  C   UNL d   1      15.596   6.670  35.560 -0.17 +0.08    +0.115    45.430
ATOM     32  C   UNL d   1      14.582   7.524  34.831 -0.27 +0.14    +0.139    45.430
ATOM     33  O   UNL d   1      13.863   7.012  33.985 -0.05 -0.67    -0.650    45.430
ATOM     34  O   UNL d   1      14.408   8.835  35.119 -0.23 -1.44    -0.776    45.430
ATOM     35  H   UNL d   1      14.931   9.322  35.770 +0.05 +0.35    +0.167    45.430
ATOM     36  C   UNL d   1      18.845   4.349  39.875 -0.02 +0.01    +0.190    45.430
ATOM     37  O   UNL d   1      17.536   4.705  40.218 +0.00 -0.03    -0.399    45.430
ATOM     38  H   UNL d   1      17.436   5.646  39.902 +0.01 +0.02    +0.209    45.430
ATOM     39  C   UNL d   1      17.944  10.066  38.291 -0.13 +0.00    +0.052    45.430
ATOM     40  C   UNL d   1      16.608  10.063  39.054 -0.07 +0.04    +0.115    45.430
ATOM     41  C   UNL d   1      15.475  10.760  38.332 -0.07 +0.13    +0.139    45.430
ATOM     42  O   UNL d   1      15.462  11.981  38.276 -0.03 -0.64    -0.650    45.430
ATOM     43  O   UNL d   1      14.521  10.066  37.671 -0.23 -1.40    -0.776    45.430
ATOM     44  H   UNL d   1      14.703   9.229  37.225 +0.03 +0.23    +0.167    45.430
ATOM     45  C   UNL d   1      23.058   0.113  39.223 -0.22 +0.00    +0.004    45.430
ATOM     46  C   UNL d   1      24.295  -0.222  38.868 -0.31 +0.00    +0.012    45.430
ATOM     47  C   UNL d   1      22.610   6.571  43.601 -0.05 +0.00    +0.004    45.430
ATOM     48  C   UNL d   1      23.392   7.653  43.613 -0.06 +0.00    +0.012    45.430
TER
ENDMDL
MODEL       52
USER    Run = 52
USER    Cluster Rank = 38
USER    Number of conformations in this cluster = 1
USER  
USER    RMSD from reference structure       = 43.944 A
USER  
USER    Estimated Free Energy of Binding    =   -6.00 kcal/mol  [=(1)+(2)+(3)-(4)]
USER    Estimated Inhibition Constant, Ki   =   39.67 uM (micromolar)  [Temperature = 298.15 K]
USER    
USER    (1) Final Intermolecular Energy     =   -9.58 kcal/mol
USER        vdW + Hbond + desolv Energy     =   -7.45 kcal/mol
USER        Electrostatic Energy            =   -2.13 kcal/mol
USER    (2) Final Total Internal Energy     =   -2.17 kcal/mol
USER    (3) Torsional Free Energy           =   +3.58 kcal/mol
USER    (4) Unbound System's Energy  [=(2)] =   -2.17 kcal/mol
USER    
USER    
USER  
USER    DPF = D:/Protein_go_brrr/autodock/final/1A3N/heme_Co/dock.dpf
USER    NEWDPF move	heme_Co_opt.pdbqt
USER    NEWDPF about	8.781000 34.984000 -0.736000
USER    NEWDPF tran0	17.282912 6.567939 36.917376
USER    NEWDPF axisangle0	-0.881159 0.463498 0.093427 83.098525
USER    NEWDPF quaternion0	-0.584441 0.307422 0.061967 0.748386
USER    NEWDPF dihe0	171.81 114.29 -72.61 -62.64 10.93 110.10 -142.58 -175.22 -76.96 31.72 -180.00 166.15 
USER  
USER                              x       y       z    vdW   Elec        q     RMS 
ATOM      1  C   UNL d   1      16.048   8.308  36.514 -0.15 +0.04    +0.064    43.944
ATOM      2  C   UNL d   1      15.780   3.792  35.051 -0.26 +0.04    +0.064    43.944
ATOM      3  C   UNL d   1      19.908   2.797  37.241 -0.22 +0.00    +0.064    43.944
ATOM      4  C   UNL d   1      20.009   7.304  39.069 -0.10 -0.02    +0.064    43.944
ATOM      5  C   UNL d   1      15.690   7.156  35.923 -0.13 +0.04    +0.066    43.944
ATOM      6  C   UNL d   1      14.473   7.020  35.227 -0.23 -0.02    -0.021    43.944
ATOM      7  C   UNL d   1      14.390   5.702  34.825 -0.18 -0.02    -0.025    43.944
ATOM      8  C   UNL d   1      15.566   5.094  35.277 -0.18 +0.04    +0.066    43.944
ATOM      9  C   UNL d   1      13.253   5.025  34.044 -0.37 +0.04    +0.051    43.944
ATOM     10  C   UNL d   1      16.970   3.087  35.456 -0.24 +0.02    +0.066    43.944
ATOM     11  C   UNL d   1      17.317   1.758  35.128 -0.37 -0.00    -0.021    43.944
ATOM     12  C   UNL d   1      18.527   1.496  35.776 -0.33 +0.00    +0.000    43.944
ATOM     13  C   UNL d   1      18.835   2.684  36.439 -0.23 +0.01    +0.070    43.944
ATOM     14  C   UNL d   1      16.576   0.851  34.179 -0.31 +0.00    +0.052    43.944
ATOM     15  C   UNL d   1      20.345   3.926  38.039 -0.21 +0.00    +0.066    43.944
ATOM     16  C   UNL d   1      21.383   3.931  38.960 -0.25 -0.00    -0.021    43.944
ATOM     17  C   UNL d   1      21.415   5.228  39.492 -0.18 +0.00    +0.000    43.944
ATOM     18  C   UNL d   1      20.400   5.919  38.838 -0.15 -0.01    +0.070    43.944
ATOM     19  C   UNL d   1      22.270   2.750  39.288 -0.31 +0.00    +0.052    43.944
ATOM     20  C   UNL d   1      18.972   7.972  38.509 -0.06 -0.02    +0.066    43.944
ATOM     21  C   UNL d   1      18.674   9.293  38.838 -0.09 +0.01    -0.025    43.944
ATOM     22  C   UNL d   1      17.554   9.618  38.095 -0.12 -0.00    -0.021    43.944
ATOM     23  C   UNL d   1      17.214   8.467  37.353 -0.11 +0.02    +0.066    43.944
ATOM     24  C   UNL d   1      19.407  10.195  39.827 -0.08 -0.01    +0.051    43.944
ATOM     25  N   UNL d   1      16.393   5.973  35.956 -0.06 -0.11    -0.248    43.944
ATOM     26  N   UNL d   1      17.921   3.663  36.199 -0.11 -0.05    -0.248    43.944
ATOM     27  N   UNL d   1      19.765   5.105  38.003 -0.11 +0.01    -0.248    43.944
ATOM     28  N   UNL d   1      18.069   7.468  37.602 -0.05 +0.00    -0.248    43.944
ATOM     29 FE   UNL d   1      18.179   5.517  37.041 -0.04 +0.00    +0.000    43.944
ATOM     30  C   UNL d   1      13.409   8.096  35.036 -0.31 +0.06    +0.052    43.944
ATOM     31  C   UNL d   1      12.316   7.965  36.096 -0.24 +0.10    +0.115    43.944
ATOM     32  C   UNL d   1      12.476   8.968  37.218 -0.07 +0.17    +0.139    43.944
ATOM     33  O   UNL d   1      11.969  10.075  37.110 -0.05 -1.13    -0.650    43.944
ATOM     34  O   UNL d   1      13.124   8.664  38.366 -0.01 -0.58    -0.776    43.944
ATOM     35  H   UNL d   1      13.395   9.316  39.027 +0.03 +0.12    +0.167    43.944
ATOM     36  C   UNL d   1      16.935   4.964  38.635 -0.01 +0.03    +0.190    43.944
ATOM     37  O   UNL d   1      15.807   5.364  39.359 +0.01 -0.07    -0.399    43.944
ATOM     38  H   UNL d   1      15.512   6.212  38.925 +0.03 +0.05    +0.209    43.944
ATOM     39  C   UNL d   1      16.817  10.943  38.150 -0.10 +0.03    +0.052    43.944
ATOM     40  C   UNL d   1      15.673  10.886  39.176 -0.09 +0.07    +0.115    43.944
ATOM     41  C   UNL d   1      14.533  11.843  38.896 -0.09 +0.13    +0.139    43.944
ATOM     42  O   UNL d   1      14.781  12.951  38.441 -0.00 -0.59    -0.650    43.944
ATOM     43  O   UNL d   1      13.242  11.475  39.051 -0.18 -0.73    -0.776    43.944
ATOM     44  H   UNL d   1      12.824  10.803  38.498 +0.02 +0.22    +0.167    43.944
ATOM     45  C   UNL d   1      19.433   0.273  35.829 -0.41 +0.00    +0.004    43.944
ATOM     46  C   UNL d   1      19.264  -0.904  36.426 -0.39 -0.00    +0.012    43.944
ATOM     47  C   UNL d   1      22.280   5.797  40.567 -0.16 +0.00    +0.004    43.944
ATOM     48  C   UNL d   1      23.065   5.055  41.352 -0.25 +0.00    +0.012    43.944
TER
ENDMDL
MODEL       62
USER    Run = 62
USER    Cluster Rank = 39
USER    Number of conformations in this cluster = 1
USER  
USER    RMSD from reference structure       = 47.329 A
USER  
USER    Estimated Free Energy of Binding    =   -5.95 kcal/mol  [=(1)+(2)+(3)-(4)]
USER    Estimated Inhibition Constant, Ki   =   43.80 uM (micromolar)  [Temperature = 298.15 K]
USER    
USER    (1) Final Intermolecular Energy     =   -9.53 kcal/mol
USER        vdW + Hbond + desolv Energy     =   -6.42 kcal/mol
USER        Electrostatic Energy            =   -3.11 kcal/mol
USER    (2) Final Total Internal Energy     =   -1.82 kcal/mol
USER    (3) Torsional Free Energy           =   +3.58 kcal/mol
USER    (4) Unbound System's Energy  [=(2)] =   -1.82 kcal/mol
USER    
USER    
USER  
USER    DPF = D:/Protein_go_brrr/autodock/final/1A3N/heme_Co/dock.dpf
USER    NEWDPF move	heme_Co_opt.pdbqt
USER    NEWDPF about	8.781000 34.984000 -0.736000
USER    NEWDPF tran0	9.474506 -11.729655 19.364813
USER    NEWDPF axisangle0	-0.572319 -0.407981 -0.711339 154.813489
USER    NEWDPF quaternion0	-0.558550 -0.398166 -0.694226 0.218028
USER    NEWDPF dihe0	112.32 -149.88 34.76 -104.26 130.09 167.80 -87.84 -149.15 32.80 -64.82 15.66 54.33 
USER  
USER                              x       y       z    vdW   Elec        q     RMS 
ATOM      1  C   UNL d   1       9.282 -13.732  18.547 -0.11 +0.04    +0.064    47.329
ATOM      2  C   UNL d   1      12.096 -10.072  17.407 -0.12 +0.03    +0.064    47.329
ATOM      3  C   UNL d   1       9.851  -7.306  20.591 -0.10 +0.01    +0.064    47.329
ATOM      4  C   UNL d   1       7.225 -11.134  22.045 -0.13 +0.01    +0.064    47.329
ATOM      5  C   UNL d   1      10.192 -12.925  17.976 -0.08 +0.04    +0.066    47.329
ATOM      6  C   UNL d   1      11.114 -13.396  17.021 -0.08 -0.02    -0.021    47.329
ATOM      7  C   UNL d   1      11.942 -12.336  16.711 -0.08 -0.01    -0.025    47.329
ATOM      8  C   UNL d   1      11.481 -11.260  17.477 -0.06 +0.03    +0.066    47.329
ATOM      9  C   UNL d   1      13.127 -12.321  15.733 -0.12 +0.03    +0.051    47.329
ATOM     10  C   UNL d   1      11.676  -8.902  18.137 -0.09 +0.03    +0.066    47.329
ATOM     11  C   UNL d   1      12.191  -7.594  18.002 -0.13 -0.01    -0.021    47.329
ATOM     12  C   UNL d   1      11.516  -6.807  18.940 -0.12 +0.00    +0.000    47.329
ATOM     13  C   UNL d   1      10.634  -7.688  19.566 -0.07 +0.02    +0.070    47.329
ATOM     14  C   UNL d   1      13.191  -7.131  16.975 +0.01 +0.04    +0.052    47.329
ATOM     15  C   UNL d   1       8.925  -8.091  21.384 -0.11 +0.01    +0.066    47.329
ATOM     16  C   UNL d   1       8.255  -7.671  22.523 -0.25 -0.00    -0.021    47.329
ATOM     17  C   UNL d   1       7.498  -8.772  22.948 -0.24 +0.00    +0.000    47.329
ATOM     18  C   UNL d   1       7.754  -9.776  22.020 -0.12 +0.01    +0.070    47.329
ATOM     19  C   UNL d   1       8.356  -6.294  23.142 -0.40 +0.01    +0.052    47.329
ATOM     20  C   UNL d   1       7.527 -12.152  21.205 -0.14 +0.02    +0.066    47.329
ATOM     21  C   UNL d   1       6.980 -13.425  21.352 -0.19 -0.01    -0.025    47.329
ATOM     22  C   UNL d   1       7.533 -14.188  20.340 -0.17 -0.01    -0.021    47.329
ATOM     23  C   UNL d   1       8.405 -13.339  19.627 -0.12 +0.03    +0.066    47.329
ATOM     24  C   UNL d   1       5.994 -13.897  22.418 -0.23 +0.02    +0.051    47.329
ATOM     25  N   UNL d   1      10.393 -11.595  18.266 -0.02 -0.11    -0.248    47.329
ATOM     26  N   UNL d   1      10.692  -8.941  19.041 -0.02 -0.08    -0.248    47.329
ATOM     27  N   UNL d   1       8.632  -9.345  21.121 -0.04 -0.04    -0.248    47.329
ATOM     28  N   UNL d   1       8.407 -12.107  20.149 -0.06 -0.08    -0.248    47.329
ATOM     29 FE   UNL d   1       9.458 -10.406  19.778 -0.03 +0.00    +0.000    47.329
ATOM     30  C   UNL d   1      11.234 -14.825  16.500 -0.06 +0.06    +0.052    47.329
ATOM     31  C   UNL d   1      10.550 -14.960  15.140 -0.05 +0.12    +0.115    47.329
ATOM     32  C   UNL d   1       9.978 -16.343  14.917 -0.07 +0.17    +0.139    47.329
ATOM     33  O   UNL d   1       8.914 -16.466  14.329 -0.44 -1.06    -0.650    47.329
ATOM     34  O   UNL d   1      10.633 -17.462  15.306 -0.02 -0.97    -0.776    47.329
ATOM     35  H   UNL d   1      10.364 -18.018  16.051 +0.01 +0.22    +0.167    47.329
ATOM     36  C   UNL d   1      10.986 -11.043  21.065 -0.25 +0.05    +0.190    47.329
ATOM     37  O   UNL d   1      12.232 -11.677  21.086 -0.15 -0.14    -0.399    47.329
ATOM     38  H   UNL d   1      12.898 -10.933  21.112 -0.08 +0.05    +0.209    47.329
ATOM     39  C   UNL d   1       7.282 -15.668  20.117 -0.16 +0.03    +0.052    47.329
ATOM     40  C   UNL d   1       7.535 -16.045  18.648 -0.11 +0.07    +0.115    47.329
ATOM     41  C   UNL d   1       8.771 -16.891  18.424 -0.12 +0.16    +0.139    47.329
ATOM     42  O   UNL d   1       9.568 -17.039  19.339 -0.53 -1.20    -0.650    47.329
ATOM     43  O   UNL d   1       8.974 -17.560  17.267 +0.04 -0.84    -0.776    47.329
ATOM     44  H   UNL d   1       8.776 -17.175  16.404 +0.02 +0.16    +0.167    47.329
ATOM     45  C   UNL d   1      11.590  -5.330  19.300 -0.11 +0.00    +0.004    47.329
ATOM     46  C   UNL d   1      12.014  -4.729  20.409 -0.30 +0.00    +0.012    47.329
ATOM     47  C   UNL d   1       6.630  -8.925  24.154 -0.32 -0.00    +0.004    47.329
ATOM     48  C   UNL d   1       5.297  -8.978  24.100 -0.30 +0.00    +0.012    47.329
TER
ENDMDL
MODEL       23
USER    Run = 23
USER    Cluster Rank = 40
USER    Number of conformations in this cluster = 1
USER  
USER    RMSD from reference structure       = 35.166 A
USER  
USER    Estimated Free Energy of Binding    =   -5.93 kcal/mol  [=(1)+(2)+(3)-(4)]
USER    Estimated Inhibition Constant, Ki   =   44.74 uM (micromolar)  [Temperature = 298.15 K]
USER    
USER    (1) Final Intermolecular Energy     =   -9.51 kcal/mol
USER        vdW + Hbond + desolv Energy     =   -7.23 kcal/mol
USER        Electrostatic Energy            =   -2.28 kcal/mol
USER    (2) Final Total Internal Energy     =   -1.19 kcal/mol
USER    (3) Torsional Free Energy           =   +3.58 kcal/mol
USER    (4) Unbound System's Energy  [=(2)] =   -1.19 kcal/mol
USER    
USER    
USER  
USER    DPF = D:/Protein_go_brrr/autodock/final/1A3N/heme_Co/dock.dpf
USER    NEWDPF move	heme_Co_opt.pdbqt
USER    NEWDPF about	8.781000 34.984000 -0.736000
USER    NEWDPF tran0	10.955178 -0.494348 13.816428
USER    NEWDPF axisangle0	-0.913999 -0.349283 0.206414 -175.126521
USER    NEWDPF quaternion0	-0.913173 -0.348967 0.206227 -0.042516
USER    NEWDPF dihe0	11.04 -127.33 180.00 -90.58 -54.93 -173.70 11.98 -29.17 -120.58 32.24 159.64 162.15 
USER  
USER                              x       y       z    vdW   Elec        q     RMS 
ATOM      1  C   UNL d   1      10.311  -2.081  15.152 -0.08 +0.05    +0.064    35.166
ATOM      2  C   UNL d   1       7.990   0.499  11.901 -0.28 +0.02    +0.064    35.166
ATOM      3  C   UNL d   1      11.896   3.148  11.159 -0.18 +0.01    +0.064    35.166
ATOM      4  C   UNL d   1      14.398   0.284  14.192 -0.09 +0.02    +0.064    35.166
ATOM      5  C   UNL d   1       9.379  -1.547  14.344 -0.09 +0.06    +0.066    35.166
ATOM      6  C   UNL d   1       8.091  -2.103  14.221 -0.14 -0.01    -0.021    35.166
ATOM      7  C   UNL d   1       7.429  -1.365  13.259 -0.21 -0.01    -0.025    35.166
ATOM      8  C   UNL d   1       8.335  -0.381  12.850 -0.18 +0.04    +0.066    35.166
ATOM      9  C   UNL d   1       5.999  -1.566  12.735 -0.34 +0.01    +0.051    35.166
ATOM     10  C   UNL d   1       8.845   1.561  11.434 -0.19 +0.01    +0.066    35.166
ATOM     11  C   UNL d   1       8.493   2.599  10.545 -0.30 +0.01    -0.021    35.166
ATOM     12  C   UNL d   1       9.649   3.359  10.349 -0.25 -0.00    +0.000    35.166
ATOM     13  C   UNL d   1      10.616   2.738  11.141 -0.20 -0.00    +0.070    35.166
ATOM     14  C   UNL d   1       7.114   2.883  10.006 -0.15 -0.01    +0.052    35.166
ATOM     15  C   UNL d   1      13.029   2.594  11.874 -0.16 +0.03    +0.066    35.166
ATOM     16  C   UNL d   1      14.356   2.976  11.736 -0.18 -0.01    -0.021    35.166
ATOM     17  C   UNL d   1      15.082   2.151  12.607 -0.15 +0.00    +0.000    35.166
ATOM     18  C   UNL d   1      14.135   1.339  13.222 -0.11 +0.03    +0.070    35.166
ATOM     19  C   UNL d   1      14.864   4.066  10.818 -0.24 +0.04    +0.052    35.166
ATOM     20  C   UNL d   1      13.505  -0.575  14.739 -0.10 +0.03    +0.066    35.166
ATOM     21  C   UNL d   1      13.885  -1.573  15.634 -0.12 -0.00    -0.025    35.166
ATOM     22  C   UNL d   1      12.722  -2.252  15.950 -0.09 -0.01    -0.021    35.166
ATOM     23  C   UNL d   1      11.685  -1.638  15.217 -0.09 +0.05    +0.066    35.166
ATOM     24  C   UNL d   1      15.289  -1.878  16.148 -0.20 -0.01    +0.051    35.166
ATOM     25  N   UNL d   1       9.550  -0.467  13.509 +0.14 -0.32    -0.248    35.166
ATOM     26  N   UNL d   1      10.114   1.685  11.840 -0.11 -0.13    -0.248    35.166
ATOM     27  N   UNL d   1      12.927   1.610  12.739 -0.09 -0.18    -0.248    35.166
ATOM     28  N   UNL d   1      12.155  -0.624  14.481 -0.04 -0.26    -0.248    35.166
ATOM     29 FE   UNL d   1      11.340   0.631  13.104 -0.05 +0.00    +0.000    35.166
ATOM     30  C   UNL d   1       7.560  -3.339  14.940 -0.15 +0.02    +0.052    35.166
ATOM     31  C   UNL d   1       7.232  -4.445  13.937 -0.14 +0.04    +0.115    35.166
ATOM     32  C   UNL d   1       8.427  -4.832  13.093 -0.20 +0.07    +0.139    35.166
ATOM     33  O   UNL d   1       8.387  -4.668  11.883 -0.32 -0.57    -0.650    35.166
ATOM     34  O   UNL d   1       9.568  -5.312  13.642 +0.07 -0.36    -0.776    35.166
ATOM     35  H   UNL d   1       9.671  -5.530  14.578 +0.04 +0.06    +0.167    35.166
ATOM     36  C   UNL d   1      11.714  -0.759  11.580 -0.16 -0.01    +0.190    35.166
ATOM     37  O   UNL d   1      11.081  -1.588  10.649 -0.11 +0.17    -0.399    35.166
ATOM     38  H   UNL d   1      11.403  -1.268   9.760 -0.43 -0.39    +0.209    35.166
ATOM     39  C   UNL d   1      12.632  -3.465  16.857 -0.07 +0.03    +0.052    35.166
ATOM     40  C   UNL d   1      12.638  -4.762  16.031 -0.04 +0.06    +0.115    35.166
ATOM     41  C   UNL d   1      11.943  -5.931  16.697 -0.05 +0.08    +0.139    35.166
ATOM     42  O   UNL d   1      10.871  -6.321  16.254 +0.05 -0.26    -0.650    35.166
ATOM     43  O   UNL d   1      12.515  -6.612  17.714 -0.38 -0.77    -0.776    35.166
ATOM     44  H   UNL d   1      12.124  -7.412  18.088 +0.04 +0.12    +0.167    35.166
ATOM     45  C   UNL d   1       9.946   4.605   9.525 -0.27 -0.00    +0.004    35.166
ATOM     46  C   UNL d   1      10.512   4.737   8.328 -0.40 -0.01    +0.012    35.166
ATOM     47  C   UNL d   1      16.556   2.066  12.834 -0.19 +0.00    +0.004    35.166
ATOM     48  C   UNL d   1      17.398   1.462  11.992 -0.23 +0.00    +0.012    35.166
TER
ENDMDL
MODEL       86
USER    Run = 86
USER    Cluster Rank = 41
USER    Number of conformations in this cluster = 1
USER  
USER    RMSD from reference structure       = 47.920 A
USER  
USER    Estimated Free Energy of Binding    =   -5.74 kcal/mol  [=(1)+(2)+(3)-(4)]
USER    Estimated Inhibition Constant, Ki   =   62.23 uM (micromolar)  [Temperature = 298.15 K]
USER    
USER    (1) Final Intermolecular Energy     =   -9.32 kcal/mol
USER        vdW + Hbond + desolv Energy     =   -8.38 kcal/mol
USER        Electrostatic Energy            =   -0.94 kcal/mol
USER    (2) Final Total Internal Energy     =   -0.63 kcal/mol
USER    (3) Torsional Free Energy           =   +3.58 kcal/mol
USER    (4) Unbound System's Energy  [=(2)] =   -0.63 kcal/mol
USER    
USER    
USER  
USER    DPF = D:/Protein_go_brrr/autodock/final/1A3N/heme_Co/dock.dpf
USER    NEWDPF move	heme_Co_opt.pdbqt
USER    NEWDPF about	8.781000 34.984000 -0.736000
USER    NEWDPF tran0	3.956458 -9.519027 24.628377
USER    NEWDPF axisangle0	0.081457 -0.598623 0.796878 -144.781625
USER    NEWDPF quaternion0	0.077640 -0.570573 0.759538 -0.302523
USER    NEWDPF dihe0	-75.53 104.95 9.62 102.03 -70.38 -52.19 67.00 -116.08 -90.44 -79.18 148.11 -56.56 
USER  
USER                              x       y       z    vdW   Elec        q     RMS 
ATOM      1  C   UNL d   1       5.434  -9.543  23.037 -0.17 +0.02    +0.064    47.920
ATOM      2  C   UNL d   1       5.029 -12.047  27.059 -0.15 +0.00    +0.064    47.920
ATOM      3  C   UNL d   1       1.238  -9.440  28.345 -0.07 -0.01    +0.064    47.920
ATOM      4  C   UNL d   1       1.395  -7.125  24.070 -0.29 -0.01    +0.064    47.920
ATOM      5  C   UNL d   1       5.624 -10.395  24.058 -0.18 +0.01    +0.066    47.920
ATOM      6  C   UNL d   1       6.619 -11.391  24.025 -0.21 +0.00    -0.021    47.920
ATOM      7  C   UNL d   1       6.482 -12.129  25.184 -0.23 +0.00    -0.025    47.920
ATOM      8  C   UNL d   1       5.421 -11.542  25.882 -0.17 -0.00    +0.066    47.920
ATOM      9  C   UNL d   1       7.310 -13.344  25.631 -0.32 +0.00    +0.051    47.920
ATOM     10  C   UNL d   1       3.966 -11.495  27.860 +0.03 -0.00    +0.066    47.920
ATOM     11  C   UNL d   1       3.600 -11.892  29.165 -0.06 +0.00    -0.021    47.920
ATOM     12  C   UNL d   1       2.494 -11.112  29.517 -0.12 -0.00    +0.000    47.920
ATOM     13  C   UNL d   1       2.276 -10.292  28.410 -0.11 -0.01    +0.070    47.920
ATOM     14  C   UNL d   1       4.331 -12.882  30.034 -0.14 -0.00    +0.052    47.920
ATOM     15  C   UNL d   1       0.835  -8.562  27.265 -0.08 -0.01    +0.066    47.920
ATOM     16  C   UNL d   1      -0.332  -7.813  27.205 -0.10 +0.00    -0.021    47.920
ATOM     17  C   UNL d   1      -0.293  -7.146  25.972 -0.23 -0.00    +0.000    47.920
ATOM     18  C   UNL d   1       0.908  -7.528  25.383 -0.21 -0.01    +0.070    47.920
ATOM     19  C   UNL d   1      -1.399  -7.764  28.276 -0.07 -0.00    +0.052    47.920
ATOM     20  C   UNL d   1       2.516  -7.551  23.440 -0.22 +0.01    +0.066    47.920
ATOM     21  C   UNL d   1       2.860  -7.119  22.161 -0.33 -0.00    -0.025    47.920
ATOM     22  C   UNL d   1       4.036  -7.777  21.849 -0.26 -0.01    -0.021    47.920
ATOM     23  C   UNL d   1       4.347  -8.594  22.957 -0.18 +0.02    +0.066    47.920
ATOM     24  C   UNL d   1       2.097  -6.142  21.272 -0.43 -0.01    +0.051    47.920
ATOM     25  N   UNL d   1       4.874 -10.462  25.211 -0.13 -0.02    -0.248    47.920
ATOM     26  N   UNL d   1       3.201 -10.485  27.432 -0.09 +0.02    -0.248    47.920
ATOM     27  N   UNL d   1       1.539  -8.395  26.168 -0.07 +0.01    -0.248    47.920
ATOM     28  N   UNL d   1       3.428  -8.462  23.921 -0.14 -0.07    -0.248    47.920
ATOM     29 FE   UNL d   1       3.108  -9.365  25.715 -0.04 +0.00    +0.000    47.920
ATOM     30  C   UNL d   1       7.597 -11.662  22.886 -0.25 +0.00    +0.052    47.920
ATOM     31  C   UNL d   1       7.553 -13.135  22.480 -0.23 +0.02    +0.115    47.920
ATOM     32  C   UNL d   1       6.493 -13.414  21.436 -0.16 +0.06    +0.139    47.920
ATOM     33  O   UNL d   1       5.318 -13.221  21.706 -0.52 -0.42    -0.650    47.920
ATOM     34  O   UNL d   1       6.809 -13.827  20.186 -0.18 -0.40    -0.776    47.920
ATOM     35  H   UNL d   1       7.112 -13.241  19.480 +0.04 +0.07    +0.167    47.920
ATOM     36  C   UNL d   1       2.026 -10.896  24.777 +0.02 +0.15    +0.190    47.920
ATOM     37  O   UNL d   1       0.785 -11.541  24.771 -0.35 -0.28    -0.399    47.920
ATOM     38  H   UNL d   1       0.303 -11.176  25.565 +0.07 +0.04    +0.209    47.920
ATOM     39  C   UNL d   1       4.779  -7.672  20.531 -0.28 +0.01    +0.052    47.920
ATOM     40  C   UNL d   1       4.875  -6.206  20.077 -0.26 +0.00    +0.115    47.920
ATOM     41  C   UNL d   1       6.163  -5.513  20.469 -0.30 +0.01    +0.139    47.920
ATOM     42  O   UNL d   1       7.153  -6.187  20.716 +0.03 -0.08    -0.650    47.920
ATOM     43  O   UNL d   1       6.274  -4.167  20.469 +0.05 -0.03    -0.776    47.920
ATOM     44  H   UNL d   1       5.505  -3.582  20.445 -0.36 -0.03    +0.167    47.920
ATOM     45  C   UNL d   1       1.636 -11.036  30.772 -0.08 -0.00    +0.004    47.920
ATOM     46  C   UNL d   1       1.729 -10.245  31.838 -0.09 -0.00    +0.012    47.920
ATOM     47  C   UNL d   1      -1.307  -6.251  25.339 -0.38 -0.00    +0.004    47.920
ATOM     48  C   UNL d   1      -2.256  -6.686  24.506 -0.43 -0.01    +0.012    47.920
TER
ENDMDL
MODEL       14
USER    Run = 14
USER    Cluster Rank = 42
USER    Number of conformations in this cluster = 1
USER  
USER    RMSD from reference structure       = 17.601 A
USER  
USER    Estimated Free Energy of Binding    =   -5.64 kcal/mol  [=(1)+(2)+(3)-(4)]
USER    Estimated Inhibition Constant, Ki   =   72.87 uM (micromolar)  [Temperature = 298.15 K]
USER    
USER    (1) Final Intermolecular Energy     =   -9.22 kcal/mol
USER        vdW + Hbond + desolv Energy     =   -7.87 kcal/mol
USER        Electrostatic Energy            =   -1.35 kcal/mol
USER    (2) Final Total Internal Energy     =   -0.71 kcal/mol
USER    (3) Torsional Free Energy           =   +3.58 kcal/mol
USER    (4) Unbound System's Energy  [=(2)] =   -0.71 kcal/mol
USER    
USER    
USER  
USER    DPF = D:/Protein_go_brrr/autodock/final/1A3N/heme_Co/dock.dpf
USER    NEWDPF move	heme_Co_opt.pdbqt
USER    NEWDPF about	8.781000 34.984000 -0.736000
USER    NEWDPF tran0	5.771189 17.323835 -2.060175
USER    NEWDPF axisangle0	-0.370190 -0.279859 0.885798 115.525272
USER    NEWDPF quaternion0	-0.313123 -0.236717 0.749249 0.533428
USER    NEWDPF dihe0	-7.30 -75.35 161.50 -88.57 -89.10 -10.45 147.94 -126.85 5.13 -44.90 180.00 -167.60 
USER  
USER                              x       y       z    vdW   Elec        q     RMS 
ATOM      1  C   UNL d   1       6.883  19.010  -1.262 -0.04 -0.01    +0.064    17.601
ATOM      2  C   UNL d   1       3.257  16.466   0.468 -0.14 -0.02    +0.064    17.601
ATOM      3  C   UNL d   1       2.969  14.021  -3.627 -0.22 -0.01    +0.064    17.601
ATOM      4  C   UNL d   1       6.916  16.340  -5.273 -0.07 -0.01    +0.064    17.601
ATOM      5  C   UNL d   1       5.890  18.519  -0.502 -0.07 -0.02    +0.066    17.601
ATOM      6  C   UNL d   1       5.688  18.941   0.827 -0.14 +0.01    -0.021    17.601
ATOM      7  C   UNL d   1       4.649  18.183   1.332 -0.15 +0.01    -0.025    17.601
ATOM      8  C   UNL d   1       4.251  17.344   0.285 -0.10 -0.02    +0.066    17.601
ATOM      9  C   UNL d   1       4.044  18.234   2.743 -0.29 -0.02    +0.051    17.601
ATOM     10  C   UNL d   1       2.762  15.582  -0.557 -0.11 -0.01    +0.066    17.601
ATOM     11  C   UNL d   1       1.633  14.738  -0.471 -0.24 +0.00    -0.021    17.601
ATOM     12  C   UNL d   1       1.570  14.040  -1.680 -0.33 -0.00    +0.000    17.601
ATOM     13  C   UNL d   1       2.654  14.517  -2.417 -0.17 -0.01    +0.070    17.601
ATOM     14  C   UNL d   1       0.640  14.690   0.662 -0.34 -0.01    +0.052    17.601
ATOM     15  C   UNL d   1       4.077  14.358  -4.499 -0.13 -0.01    +0.066    17.601
ATOM     16  C   UNL d   1       4.429  13.706  -5.672 -0.18 +0.00    -0.021    17.601
ATOM     17  C   UNL d   1       5.568  14.369  -6.149 -0.08 -0.00    +0.000    17.601
ATOM     18  C   UNL d   1       5.813  15.388  -5.235 -0.05 -0.01    +0.070    17.601
ATOM     19  C   UNL d   1       3.699  12.524  -6.271 -0.28 -0.02    +0.052    17.601
ATOM     20  C   UNL d   1       7.224  17.283  -4.351 -0.07 -0.01    +0.066    17.601
ATOM     21  C   UNL d   1       8.333  18.116  -4.481 -0.10 +0.00    -0.025    17.601
ATOM     22  C   UNL d   1       8.332  18.916  -3.353 -0.08 +0.00    -0.021    17.601
ATOM     23  C   UNL d   1       7.221  18.520  -2.579 -0.04 -0.01    +0.066    17.601
ATOM     24  C   UNL d   1       9.355  18.135  -5.614 +0.13 -0.00    +0.051    17.601
ATOM     25  N   UNL d   1       4.999  17.535  -0.865 -0.03 +0.06    -0.248    17.601
ATOM     26  N   UNL d   1       3.341  15.489  -1.759 -0.04 +0.04    -0.248    17.601
ATOM     27  N   UNL d   1       4.923  15.332  -4.249 -0.02 +0.03    -0.248    17.601
ATOM     28  N   UNL d   1       6.549  17.530  -3.178 -0.01 +0.03    -0.248    17.601
ATOM     29 FE   UNL d   1       4.961  16.370  -2.659 -0.02 -0.00    +0.000    17.601
ATOM     30  C   UNL d   1       6.517  19.968   1.592 -0.24 +0.00    +0.052    17.601
ATOM     31  C   UNL d   1       7.588  19.274   2.433 -0.18 +0.01    +0.115    17.601
ATOM     32  C   UNL d   1       8.385  20.251   3.271 -0.29 +0.08    +0.139    17.601
ATOM     33  O   UNL d   1       7.936  21.367   3.483 -0.13 -0.37    -0.650    17.601
ATOM     34  O   UNL d   1       9.566  19.912   3.838 -0.25 -1.15    -0.776    17.601
ATOM     35  H   UNL d   1       9.905  19.008   3.890 -0.07 +0.23    +0.167    17.601
ATOM     36  C   UNL d   1       6.235  15.025  -1.678 -0.21 -0.04    +0.190    17.601
ATOM     37  O   UNL d   1       7.096  13.945  -1.897 -0.17 +0.10    -0.399    17.601
ATOM     38  H   UNL d   1       7.549  13.796  -1.020 -0.25 -0.10    +0.209    17.601
ATOM     39  C   UNL d   1       9.382  19.957  -3.013 -0.09 -0.00    +0.052    17.601
ATOM     40  C   UNL d   1      10.739  19.289  -2.736 -0.18 +0.00    +0.115    17.601
ATOM     41  C   UNL d   1      11.899  19.888  -3.503 -0.17 +0.01    +0.139    17.601
ATOM     42  O   UNL d   1      11.741  20.946  -4.097 -0.01 -0.01    -0.650    17.601
ATOM     43  O   UNL d   1      13.130  19.332  -3.479 -0.53 -0.04    -0.776    17.601
ATOM     44  H   UNL d   1      13.832  19.596  -4.089 -0.14 -0.07    +0.167    17.601
ATOM     45  C   UNL d   1       0.605  12.998  -2.228 -0.62 -0.00    +0.004    17.601
ATOM     46  C   UNL d   1       0.687  11.670  -2.254 -0.66 -0.00    +0.012    17.601
ATOM     47  C   UNL d   1       6.419  14.068  -7.339 -0.09 -0.00    +0.004    17.601
ATOM     48  C   UNL d   1       7.670  13.610  -7.254 -0.17 -0.00    +0.012    17.601
TER
ENDMDL
MODEL       11
USER    Run = 11
USER    Cluster Rank = 43
USER    Number of conformations in this cluster = 1
USER  
USER    RMSD from reference structure       = 48.053 A
USER  
USER    Estimated Free Energy of Binding    =   -5.60 kcal/mol  [=(1)+(2)+(3)-(4)]
USER    Estimated Inhibition Constant, Ki   =   78.09 uM (micromolar)  [Temperature = 298.15 K]
USER    
USER    (1) Final Intermolecular Energy     =   -9.18 kcal/mol
USER        vdW + Hbond + desolv Energy     =   -8.63 kcal/mol
USER        Electrostatic Energy            =   -0.55 kcal/mol
USER    (2) Final Total Internal Energy     =   -3.73 kcal/mol
USER    (3) Torsional Free Energy           =   +3.58 kcal/mol
USER    (4) Unbound System's Energy  [=(2)] =   -3.73 kcal/mol
USER    
USER    
USER  
USER    DPF = D:/Protein_go_brrr/autodock/final/1A3N/heme_Co/dock.dpf
USER    NEWDPF move	heme_Co_opt.pdbqt
USER    NEWDPF about	8.781000 34.984000 -0.736000
USER    NEWDPF tran0	18.658886 -14.280315 5.164964
USER    NEWDPF axisangle0	-0.912555 -0.193505 -0.360277 123.304428
USER    NEWDPF quaternion0	-0.803123 -0.170300 -0.317073 0.474822
USER    NEWDPF dihe0	49.72 140.68 -129.40 67.43 62.65 93.92 28.57 119.04 180.00 133.45 -172.88 -180.00 
USER  
USER                              x       y       z    vdW   Elec        q     RMS 
ATOM      1  C   UNL d   1      16.641 -15.081   5.223 -0.21 -0.01    +0.064    48.053
ATOM      2  C   UNL d   1      20.153 -15.496   2.044 -0.13 -0.01    +0.064    48.053
ATOM      3  C   UNL d   1      22.827 -12.423   4.541 -0.20 -0.00    +0.064    48.053
ATOM      4  C   UNL d   1      19.409 -12.280   8.000 -0.12 +0.01    +0.064    48.053
ATOM      5  C   UNL d   1      17.390 -15.392   4.152 -0.18 -0.01    +0.066    48.053
ATOM      6  C   UNL d   1      16.973 -16.341   3.198 -0.30 +0.00    -0.021    48.053
ATOM      7  C   UNL d   1      18.005 -16.474   2.291 -0.20 +0.00    -0.025    48.053
ATOM      8  C   UNL d   1      19.001 -15.590   2.720 -0.17 -0.01    +0.066    48.053
ATOM      9  C   UNL d   1      18.067 -17.395   1.063 -0.14 -0.01    +0.051    48.053
ATOM     10  C   UNL d   1      21.224 -14.596   2.395 -0.17 -0.01    +0.066    48.053
ATOM     11  C   UNL d   1      22.397 -14.349   1.649 -0.17 +0.00    -0.021    48.053
ATOM     12  C   UNL d   1      23.157 -13.447   2.399 -0.21 -0.00    +0.000    48.053
ATOM     13  C   UNL d   1      22.388 -13.201   3.536 -0.18 +0.00    +0.070    48.053
ATOM     14  C   UNL d   1      22.706 -14.877   0.272 -0.15 -0.01    +0.052    48.053
ATOM     15  C   UNL d   1      22.190 -12.105   5.804 -0.26 +0.01    +0.066    48.053
ATOM     16  C   UNL d   1      22.761 -11.412   6.862 -0.41 -0.00    -0.021    48.053
ATOM     17  C   UNL d   1      21.780 -11.370   7.863 -0.30 +0.00    +0.000    48.053
ATOM     18  C   UNL d   1      20.678 -12.029   7.328 -0.20 +0.01    +0.070    48.053
ATOM     19  C   UNL d   1      24.161 -10.840   6.882 -0.49 -0.01    +0.052    48.053
ATOM     20  C   UNL d   1      18.356 -12.992   7.533 -0.08 +0.01    +0.066    48.053
ATOM     21  C   UNL d   1      17.202 -13.194   8.287 -0.07 -0.00    -0.025    48.053
ATOM     22  C   UNL d   1      16.374 -13.974   7.500 -0.14 -0.00    -0.021    48.053
ATOM     23  C   UNL d   1      17.075 -14.221   6.300 -0.15 -0.00    +0.066    48.053
ATOM     24  C   UNL d   1      16.910 -12.687   9.696 -0.04 +0.01    +0.051    48.053
ATOM     25  N   UNL d   1      18.644 -14.902   3.867 -0.12 +0.04    -0.248    48.053
ATOM     26  N   UNL d   1      21.195 -13.853   3.506 -0.11 -0.00    -0.248    48.053
ATOM     27  N   UNL d   1      20.969 -12.479   6.113 -0.13 -0.06    -0.248    48.053
ATOM     28  N   UNL d   1      18.275 -13.630   6.317 -0.04 -0.02    -0.248    48.053
ATOM     29 FE   UNL d   1      19.873 -13.618   5.059 -0.04 +0.00    +0.000    48.053
ATOM     30  C   UNL d   1      15.672 -17.137   3.216 -0.36 -0.01    +0.052    48.053
ATOM     31  C   UNL d   1      15.848 -18.436   4.002 -0.24 +0.01    +0.115    48.053
ATOM     32  C   UNL d   1      17.261 -18.615   4.512 -0.12 +0.01    +0.139    48.053
ATOM     33  O   UNL d   1      18.024 -19.362   3.918 -0.20 -0.09    -0.650    48.053
ATOM     34  O   UNL d   1      17.728 -17.935   5.585 +0.07 -0.07    -0.776    48.053
ATOM     35  H   UNL d   1      17.242 -17.827   6.415 +0.05 +0.02    +0.167    48.053
ATOM     36  C   UNL d   1      20.623 -15.357   5.958 -0.06 +0.14    +0.190    48.053
ATOM     37  O   UNL d   1      20.245 -16.476   6.707 -0.28 -0.26    -0.399    48.053
ATOM     38  H   UNL d   1      19.290 -16.635   6.467 +0.07 +0.07    +0.209    48.053
ATOM     39  C   UNL d   1      15.014 -14.505   7.912 -0.20 +0.01    +0.052    48.053
ATOM     40  C   UNL d   1      15.163 -15.729   8.829 -0.12 +0.03    +0.115    48.053
ATOM     41  C   UNL d   1      16.058 -16.819   8.276 -0.25 +0.03    +0.139    48.053
ATOM     42  O   UNL d   1      15.551 -17.822   7.795 -0.09 -0.17    -0.650    48.053
ATOM     43  O   UNL d   1      17.401 -16.675   8.221 -0.21 -0.25    -0.776    48.053
ATOM     44  H   UNL d   1      17.897 -16.752   7.396 +0.04 +0.05    +0.167    48.053
ATOM     45  C   UNL d   1      24.504 -12.777   2.163 -0.31 -0.00    +0.004    48.053
ATOM     46  C   UNL d   1      24.916 -11.983   1.178 -0.37 -0.00    +0.012    48.053
ATOM     47  C   UNL d   1      21.851 -10.810   9.246 -0.38 +0.00    +0.004    48.053
ATOM     48  C   UNL d   1      22.452  -9.655   9.544 -0.54 -0.00    +0.012    48.053
TER
ENDMDL
MODEL       30
USER    Run = 30
USER    Cluster Rank = 44
USER    Number of conformations in this cluster = 1
USER  
USER    RMSD from reference structure       = 39.093 A
USER  
USER    Estimated Free Energy of Binding    =   -5.58 kcal/mol  [=(1)+(2)+(3)-(4)]
USER    Estimated Inhibition Constant, Ki   =   81.69 uM (micromolar)  [Temperature = 298.15 K]
USER    
USER    (1) Final Intermolecular Energy     =   -9.16 kcal/mol
USER        vdW + Hbond + desolv Energy     =   -6.35 kcal/mol
USER        Electrostatic Energy            =   -2.81 kcal/mol
USER    (2) Final Total Internal Energy     =   -1.86 kcal/mol
USER    (3) Torsional Free Energy           =   +3.58 kcal/mol
USER    (4) Unbound System's Energy  [=(2)] =   -1.86 kcal/mol
USER    
USER    
USER  
USER    DPF = D:/Protein_go_brrr/autodock/final/1A3N/heme_Co/dock.dpf
USER    NEWDPF move	heme_Co_opt.pdbqt
USER    NEWDPF about	8.781000 34.984000 -0.736000
USER    NEWDPF tran0	-10.265314 14.585536 30.191321
USER    NEWDPF axisangle0	-0.281871 0.488659 0.825688 151.744869
USER    NEWDPF quaternion0	-0.273346 0.473879 0.800715 0.244082
USER    NEWDPF dihe0	138.87 130.45 92.05 117.15 138.11 129.38 -104.63 -43.21 -124.68 174.80 163.42 -177.58 
USER  
USER                              x       y       z    vdW   Elec        q     RMS 
ATOM      1  C   UNL d   1      -8.216  15.096  30.695 -0.26 +0.03    +0.064    39.093
ATOM      2  C   UNL d   1     -11.986  17.762  29.561 -0.16 -0.01    +0.064    39.093
ATOM      3  C   UNL d   1     -14.556  13.828  28.699 -0.10 -0.03    +0.064    39.093
ATOM      4  C   UNL d   1     -10.841  11.083  30.223 -0.12 -0.01    +0.064    39.093
ATOM      5  C   UNL d   1      -9.046  16.114  30.413 -0.21 +0.01    +0.066    39.093
ATOM      6  C   UNL d   1      -8.675  17.458  30.613 -0.18 -0.00    -0.021    39.093
ATOM      7  C   UNL d   1      -9.781  18.226  30.304 -0.13 +0.00    -0.025    39.093
ATOM      8  C   UNL d   1     -10.772  17.320  29.914 -0.12 -0.01    +0.066    39.093
ATOM      9  C   UNL d   1      -9.914  19.755  30.370 -0.12 +0.00    +0.051    39.093
ATOM     10  C   UNL d   1     -13.060  16.908  29.120 -0.14 -0.01    +0.066    39.093
ATOM     11  C   UNL d   1     -14.308  17.319  28.603 -0.11 +0.00    -0.021    39.093
ATOM     12  C   UNL d   1     -15.036  16.152  28.357 -0.10 -0.00    +0.000    39.093
ATOM     13  C   UNL d   1     -14.176  15.117  28.728 -0.11 -0.02    +0.070    39.093
ATOM     14  C   UNL d   1     -14.719  18.734  28.285 -0.10 -0.00    +0.052    39.093
ATOM     15  C   UNL d   1     -13.820  12.643  29.094 -0.10 -0.04    +0.066    39.093
ATOM     16  C   UNL d   1     -14.322  11.352  29.177 -0.08 +0.01    -0.021    39.093
ATOM     17  C   UNL d   1     -13.254  10.557  29.618 -0.10 -0.00    +0.000    39.093
ATOM     18  C   UNL d   1     -12.177  11.426  29.754 -0.10 -0.04    +0.070    39.093
ATOM     19  C   UNL d   1     -15.739  10.939  28.848 -0.03 -0.01    +0.052    39.093
ATOM     20  C   UNL d   1      -9.803  11.925  30.446 -0.09 +0.00    +0.066    39.093
ATOM     21  C   UNL d   1      -8.576  11.480  30.933 -0.29 -0.01    -0.025    39.093
ATOM     22  C   UNL d   1      -7.790  12.611  31.051 -0.30 -0.01    -0.021    39.093
ATOM     23  C   UNL d   1      -8.587  13.700  30.639 -0.18 +0.02    +0.066    39.093
ATOM     24  C   UNL d   1      -8.178  10.050  31.287 -0.23 +0.04    +0.051    39.093
ATOM     25  N   UNL d   1     -10.343  16.005  29.966 -0.10 +0.01    -0.248    39.093
ATOM     26  N   UNL d   1     -12.962  15.574  29.136 -0.09 +0.07    -0.248    39.093
ATOM     27  N   UNL d   1     -12.559  12.665  29.463 -0.05 +0.19    -0.248    39.093
ATOM     28  N   UNL d   1      -9.807  13.289  30.274 -0.11 +0.00    -0.248    39.093
ATOM     29 FE   UNL d   1     -11.514  14.234  29.700 -0.04 -0.00    +0.000    39.093
ATOM     30  C   UNL d   1      -7.342  17.963  31.156 -0.19 +0.02    +0.052    39.093
ATOM     31  C   UNL d   1      -7.530  18.601  32.532 -0.09 +0.07    +0.115    39.093
ATOM     32  C   UNL d   1      -8.238  17.681  33.503 -0.00 +0.15    +0.139    39.093
ATOM     33  O   UNL d   1      -7.720  17.433  34.582 -0.38 -1.20    -0.650    39.093
ATOM     34  O   UNL d   1      -9.457  17.157  33.237 +0.01 -0.44    -0.776    39.093
ATOM     35  H   UNL d   1      -9.693  16.230  33.380 +0.02 +0.10    +0.167    39.093
ATOM     36  C   UNL d   1     -12.094  14.452  31.703 -0.01 +0.01    +0.190    39.093
ATOM     37  O   UNL d   1     -11.690  14.995  32.927 +0.01 -0.08    -0.399    39.093
ATOM     38  H   UNL d   1     -10.976  15.652  32.693 +0.03 +0.06    +0.209    39.093
ATOM     39  C   UNL d   1      -6.373  12.645  31.593 -0.50 +0.04    +0.052    39.093
ATOM     40  C   UNL d   1      -6.376  12.524  33.126 -0.27 +0.14    +0.115    39.093
ATOM     41  C   UNL d   1      -7.744  12.660  33.761 -0.20 +0.18    +0.139    39.093
ATOM     42  O   UNL d   1      -8.389  11.652  34.012 -0.35 -1.08    -0.650    39.093
ATOM     43  O   UNL d   1      -8.235  13.860  34.140 -0.31 -1.12    -0.776    39.093
ATOM     44  H   UNL d   1      -8.854  14.363  33.594 +0.03 +0.18    +0.167    39.093
ATOM     45  C   UNL d   1     -16.429  15.895  27.799 -0.07 -0.00    +0.004    39.093
ATOM     46  C   UNL d   1     -16.815  15.393  26.628 -0.08 -0.00    +0.012    39.093
ATOM     47  C   UNL d   1     -13.222   9.100  29.948 -0.06 -0.00    +0.004    39.093
ATOM     48  C   UNL d   1     -12.485   8.209  29.280 -0.09 -0.00    +0.012    39.093
TER
ENDMDL
MODEL       68
USER    Run = 68
USER    Cluster Rank = 45
USER    Number of conformations in this cluster = 1
USER  
USER    RMSD from reference structure       = 32.276 A
USER  
USER    Estimated Free Energy of Binding    =   -5.46 kcal/mol  [=(1)+(2)+(3)-(4)]
USER    Estimated Inhibition Constant, Ki   =  100.15 uM (micromolar)  [Temperature = 298.15 K]
USER    
USER    (1) Final Intermolecular Energy     =   -9.04 kcal/mol
USER        vdW + Hbond + desolv Energy     =   -6.86 kcal/mol
USER        Electrostatic Energy            =   -2.18 kcal/mol
USER    (2) Final Total Internal Energy     =   -2.69 kcal/mol
USER    (3) Torsional Free Energy           =   +3.58 kcal/mol
USER    (4) Unbound System's Energy  [=(2)] =   -2.69 kcal/mol
USER    
USER    
USER  
USER    DPF = D:/Protein_go_brrr/autodock/final/1A3N/heme_Co/dock.dpf
USER    NEWDPF move	heme_Co_opt.pdbqt
USER    NEWDPF about	8.781000 34.984000 -0.736000
USER    NEWDPF tran0	21.190939 4.770758 -10.787255
USER    NEWDPF axisangle0	-0.211707 0.943904 0.253426 144.021582
USER    NEWDPF quaternion0	-0.201358 0.897761 0.241037 0.308838
USER    NEWDPF dihe0	-131.70 123.21 -145.20 122.14 -79.44 111.49 -21.88 174.24 -54.78 67.97 165.28 172.68 
USER  
USER                              x       y       z    vdW   Elec        q     RMS 
ATOM      1  C   UNL d   1      23.048   5.897 -10.805 -0.12 +0.04    +0.064    32.276
ATOM      2  C   UNL d   1      20.263   4.271 -14.300 -0.05 +0.01    +0.064    32.276
ATOM      3  C   UNL d   1      17.485   2.054 -11.106 -0.17 +0.01    +0.064    32.276
ATOM      4  C   UNL d   1      20.088   4.020  -7.497 -0.13 +0.01    +0.064    32.276
ATOM      5  C   UNL d   1      22.512   5.585 -11.997 -0.07 +0.03    +0.066    32.276
ATOM      6  C   UNL d   1      23.012   6.115 -13.203 -0.03 -0.01    -0.021    32.276
ATOM      7  C   UNL d   1      22.186   5.658 -14.211 -0.01 -0.01    -0.025    32.276
ATOM      8  C   UNL d   1      21.228   4.857 -13.580 -0.04 +0.02    +0.066    32.276
ATOM      9  C   UNL d   1      22.282   5.956 -15.715 +0.00 +0.01    +0.051    32.276
ATOM     10  C   UNL d   1      19.251   3.409 -13.742 -0.09 +0.01    +0.066    32.276
ATOM     11  C   UNL d   1      18.297   2.653 -14.459 -0.08 -0.00    -0.021    32.276
ATOM     12  C   UNL d   1      17.503   2.014 -13.503 -0.13 +0.00    +0.000    32.276
ATOM     13  C   UNL d   1      18.037   2.415 -12.278 -0.13 +0.01    +0.070    32.276
ATOM     14  C   UNL d   1      18.229   2.492 -15.956 -0.04 +0.01    +0.052    32.276
ATOM     15  C   UNL d   1      17.872   2.418  -9.757 -0.06 +0.01    +0.066    32.276
ATOM     16  C   UNL d   1      17.172   2.129  -8.594 -0.34 -0.01    -0.021    32.276
ATOM     17  C   UNL d   1      17.918   2.696  -7.551 -0.40 +0.00    +0.000    32.276
ATOM     18  C   UNL d   1      19.026   3.273  -8.160 -0.30 +0.01    +0.070    32.276
ATOM     19  C   UNL d   1      15.873   1.358  -8.521 -0.32 +0.03    +0.052    32.276
ATOM     20  C   UNL d   1      21.129   4.664  -8.077 -0.22 +0.02    +0.066    32.276
ATOM     21  C   UNL d   1      22.067   5.379  -7.336 -0.30 -0.01    -0.025    32.276
ATOM     22  C   UNL d   1      22.949   5.907  -8.261 -0.26 -0.01    -0.021    32.276
ATOM     23  C   UNL d   1      22.496   5.494  -9.532 -0.18 +0.03    +0.066    32.276
ATOM     24  C   UNL d   1      22.110   5.568  -5.822 -0.31 +0.01    +0.051    32.276
ATOM     25  N   UNL d   1      21.409   4.789 -12.209 -0.06 -0.08    -0.248    32.276
ATOM     26  N   UNL d   1      19.128   3.213 -12.425 -0.09 -0.04    -0.248    32.276
ATOM     27  N   UNL d   1      18.951   3.115  -9.477 -0.08 -0.05    -0.248    32.276
ATOM     28  N   UNL d   1      21.393   4.743  -9.425 -0.13 -0.08    -0.248    32.276
ATOM     29 FE   UNL d   1      20.109   3.903 -10.760 -0.05 +0.00    +0.000    32.276
ATOM     30  C   UNL d   1      24.182   7.082 -13.356 -0.05 +0.04    +0.052    32.276
ATOM     31  C   UNL d   1      23.686   8.458 -13.798 -0.03 +0.06    +0.115    32.276
ATOM     32  C   UNL d   1      24.106   9.556 -12.845 -0.05 +0.10    +0.139    32.276
ATOM     33  O   UNL d   1      23.411  10.555 -12.735 +0.01 -0.30    -0.650    32.276
ATOM     34  O   UNL d   1      25.209   9.449 -12.067 -0.42 -1.27    -0.776    32.276
ATOM     35  H   UNL d   1      25.241   9.693 -11.132 +0.01 +0.28    +0.167    32.276
ATOM     36  C   UNL d   1      18.995   5.677 -10.840 -0.09 +0.05    +0.190    32.276
ATOM     37  O   UNL d   1      19.119   7.070 -10.873 -0.07 -0.13    -0.399    32.276
ATOM     38  H   UNL d   1      20.092   7.238 -11.016 +0.05 +0.07    +0.209    32.276
ATOM     39  C   UNL d   1      24.124   6.813  -7.939 -0.21 +0.03    +0.052    32.276
ATOM     40  C   UNL d   1      23.674   8.281  -7.870 -0.26 +0.06    +0.115    32.276
ATOM     41  C   UNL d   1      24.320   9.182  -8.902 -0.21 +0.11    +0.139    32.276
ATOM     42  O   UNL d   1      25.531   9.134  -9.063 -0.00 -0.92    -0.650    32.276
ATOM     43  O   UNL d   1      23.585   9.977  -9.711 +0.03 -0.47    -0.776    32.276
ATOM     44  H   UNL d   1      23.788  10.093 -10.648 +0.03 +0.12    +0.167    32.276
ATOM     45  C   UNL d   1      16.320   1.060 -13.606 -0.11 +0.00    +0.004    32.276
ATOM     46  C   UNL d   1      16.207  -0.219 -13.260 -0.17 +0.00    +0.012    32.276
ATOM     47  C   UNL d   1      17.619   2.757  -6.089 -0.58 +0.00    +0.004    32.276
ATOM     48  C   UNL d   1      17.132   3.841  -5.480 -0.57 +0.01    +0.012    32.276
TER
ENDMDL
MODEL       81
USER    Run = 81
USER    Cluster Rank = 46
USER    Number of conformations in this cluster = 1
USER  
USER    RMSD from reference structure       = 22.865 A
USER  
USER    Estimated Free Energy of Binding    =   -5.33 kcal/mol  [=(1)+(2)+(3)-(4)]
USER    Estimated Inhibition Constant, Ki   =  124.30 uM (micromolar)  [Temperature = 298.15 K]
USER    
USER    (1) Final Intermolecular Energy     =   -8.91 kcal/mol
USER        vdW + Hbond + desolv Energy     =   -6.93 kcal/mol
USER        Electrostatic Energy            =   -1.98 kcal/mol
USER    (2) Final Total Internal Energy     =   -2.29 kcal/mol
USER    (3) Torsional Free Energy           =   +3.58 kcal/mol
USER    (4) Unbound System's Energy  [=(2)] =   -2.29 kcal/mol
USER    
USER    
USER  
USER    DPF = D:/Protein_go_brrr/autodock/final/1A3N/heme_Co/dock.dpf
USER    NEWDPF move	heme_Co_opt.pdbqt
USER    NEWDPF about	8.781000 34.984000 -0.736000
USER    NEWDPF tran0	-6.242791 25.747956 18.209286
USER    NEWDPF axisangle0	-0.065216 -0.898245 -0.434630 -102.604330
USER    NEWDPF quaternion0	-0.050898 -0.701039 -0.339209 -0.625213
USER    NEWDPF dihe0	147.16 98.09 -26.44 105.46 75.96 128.67 44.15 157.27 -80.63 27.28 -174.18 180.00 
USER  
USER                              x       y       z    vdW   Elec        q     RMS 
ATOM      1  C   UNL d   1      -4.868  26.354  16.642 -0.23 +0.01    +0.064    22.865
ATOM      2  C   UNL d   1      -9.599  25.890  16.737 -0.13 +0.00    +0.064    22.865
ATOM      3  C   UNL d   1      -9.374  24.127  21.173 -0.17 -0.00    +0.064    22.865
ATOM      4  C   UNL d   1      -4.580  24.952  21.243 -0.17 -0.00    +0.064    22.865
ATOM      5  C   UNL d   1      -6.173  26.323  16.329 -0.21 +0.01    +0.066    22.865
ATOM      6  C   UNL d   1      -6.662  26.834  15.111 -0.19 -0.00    -0.021    22.865
ATOM      7  C   UNL d   1      -8.038  26.717  15.153 -0.12 -0.00    -0.025    22.865
ATOM      8  C   UNL d   1      -8.328  26.126  16.387 -0.14 +0.00    +0.066    22.865
ATOM      9  C   UNL d   1      -9.053  27.143  14.082 -0.06 +0.00    +0.051    22.865
ATOM     10  C   UNL d   1      -9.992  25.261  17.974 -0.09 -0.00    +0.066    22.865
ATOM     11  C   UNL d   1     -11.296  24.859  18.339 -0.13 +0.00    -0.021    22.865
ATOM     12  C   UNL d   1     -11.200  24.345  19.635 -0.07 -0.00    +0.000    22.865
ATOM     13  C   UNL d   1      -9.848  24.459  19.959 +0.09 -0.01    +0.070    22.865
ATOM     14  C   UNL d   1     -12.517  24.885  17.456 -0.10 -0.00    +0.052    22.865
ATOM     15  C   UNL d   1      -8.024  24.230  21.693 -0.19 -0.00    +0.066    22.865
ATOM     16  C   UNL d   1      -7.628  24.005  23.003 -0.17 +0.00    -0.021    22.865
ATOM     17  C   UNL d   1      -6.247  24.244  23.029 -0.16 -0.00    +0.000    22.865
ATOM     18  C   UNL d   1      -5.905  24.580  21.724 -0.15 -0.00    +0.070    22.865
ATOM     19  C   UNL d   1      -8.540  23.591  24.137 -0.18 -0.00    +0.052    22.865
ATOM     20  C   UNL d   1      -4.240  25.366  19.999 -0.20 +0.00    +0.066    22.865
ATOM     21  C   UNL d   1      -2.938  25.731  19.667 -0.31 -0.00    -0.025    22.865
ATOM     22  C   UNL d   1      -2.984  26.112  18.338 -0.31 -0.00    -0.021    22.865
ATOM     23  C   UNL d   1      -4.326  25.971  17.926 -0.23 +0.01    +0.066    22.865
ATOM     24  C   UNL d   1      -1.711  25.736  20.576 -0.30 -0.00    +0.051    22.865
ATOM     25  N   UNL d   1      -7.192  25.865  17.134 -0.11 -0.01    -0.248    22.865
ATOM     26  N   UNL d   1      -9.110  24.961  18.933 -0.04 +0.00    -0.248    22.865
ATOM     27  N   UNL d   1      -6.994  24.591  20.962 -0.11 +0.01    -0.248    22.865
ATOM     28  N   UNL d   1      -5.090  25.521  18.929 -0.10 -0.01    -0.248    22.865
ATOM     29 FE   UNL d   1      -7.083  25.190  19.161 -0.05 +0.00    +0.000    22.865
ATOM     30  C   UNL d   1      -5.840  27.478  13.999 -0.20 +0.01    +0.052    22.865
ATOM     31  C   UNL d   1      -5.727  28.986  14.220 -0.08 +0.03    +0.115    22.865
ATOM     32  C   UNL d   1      -4.428  29.375  14.893 -0.11 +0.07    +0.139    22.865
ATOM     33  O   UNL d   1      -4.351  29.343  16.112 +0.00 -0.26    -0.650    22.865
ATOM     34  O   UNL d   1      -3.326  29.713  14.185 -0.52 -0.97    -0.776    22.865
ATOM     35  H   UNL d   1      -2.701  30.403  14.448 +0.01 +0.25    +0.167    22.865
ATOM     36  C   UNL d   1      -7.373  27.189  19.723 -0.02 +0.00    +0.190    22.865
ATOM     37  O   UNL d   1      -7.193  28.506  19.289 +0.00 -0.02    -0.399    22.865
ATOM     38  H   UNL d   1      -6.560  28.438  18.521 +0.02 +0.01    +0.209    22.865
ATOM     39  C   UNL d   1      -1.813  26.644  17.534 -0.39 +0.02    +0.052    22.865
ATOM     40  C   UNL d   1      -1.554  28.123  17.867 -0.30 +0.04    +0.115    22.865
ATOM     41  C   UNL d   1      -0.791  28.879  16.799 -0.22 +0.11    +0.139    22.865
ATOM     42  O   UNL d   1       0.361  28.557  16.545 -0.00 -0.49    -0.650    22.865
ATOM     43  O   UNL d   1      -1.378  29.844  16.056 +0.03 -0.96    -0.776    22.865
ATOM     44  H   UNL d   1      -2.336  29.912  15.956 +0.02 +0.17    +0.167    22.865
ATOM     45  C   UNL d   1     -12.222  23.745  20.592 -0.17 -0.00    +0.004    22.865
ATOM     46  C   UNL d   1     -12.531  22.476  20.844 -0.28 -0.00    +0.012    22.865
ATOM     47  C   UNL d   1      -5.296  24.220  24.181 -0.15 -0.00    +0.004    22.865
ATOM     48  C   UNL d   1      -5.157  23.175  25.000 -0.22 -0.00    +0.012    22.865
TER
ENDMDL
MODEL       27
USER    Run = 27
USER    Cluster Rank = 47
USER    Number of conformations in this cluster = 1
USER  
USER    RMSD from reference structure       = 47.495 A
USER  
USER    Estimated Free Energy of Binding    =   -5.27 kcal/mol  [=(1)+(2)+(3)-(4)]
USER    Estimated Inhibition Constant, Ki   =  135.98 uM (micromolar)  [Temperature = 298.15 K]
USER    
USER    (1) Final Intermolecular Energy     =   -8.85 kcal/mol
USER        vdW + Hbond + desolv Energy     =   -5.95 kcal/mol
USER        Electrostatic Energy            =   -2.91 kcal/mol
USER    (2) Final Total Internal Energy     =   -2.00 kcal/mol
USER    (3) Torsional Free Energy           =   +3.58 kcal/mol
USER    (4) Unbound System's Energy  [=(2)] =   -2.00 kcal/mol
USER    
USER    
USER  
USER    DPF = D:/Protein_go_brrr/autodock/final/1A3N/heme_Co/dock.dpf
USER    NEWDPF move	heme_Co_opt.pdbqt
USER    NEWDPF about	8.781000 34.984000 -0.736000
USER    NEWDPF tran0	13.804622 -13.946132 11.443087
USER    NEWDPF axisangle0	-0.821737 0.221523 0.525048 -150.666896
USER    NEWDPF quaternion0	-0.794961 0.214305 0.507940 -0.253193
USER    NEWDPF dihe0	-174.01 -140.93 -114.34 68.08 -7.97 -169.20 -178.89 178.38 -77.91 41.41 -175.82 -179.70 
USER  
USER                              x       y       z    vdW   Elec        q     RMS 
ATOM      1  C   UNL d   1      13.342 -14.701  13.426 -0.02 +0.04    +0.064    47.495
ATOM      2  C   UNL d   1      12.815 -10.415  11.435 -0.13 +0.02    +0.064    47.495
ATOM      3  C   UNL d   1      15.031 -11.935   7.485 -0.17 +0.01    +0.064    47.495
ATOM      4  C   UNL d   1      15.237 -16.426   9.345 -0.14 +0.02    +0.064    47.495
ATOM      5  C   UNL d   1      13.067 -13.408  13.186 -0.03 +0.04    +0.066    47.495
ATOM      6  C   UNL d   1      12.343 -12.616  14.099 -0.04 -0.01    -0.021    47.495
ATOM      7  C   UNL d   1      12.173 -11.380  13.506 -0.08 -0.01    -0.025    47.495
ATOM      8  C   UNL d   1      12.815 -11.465  12.266 -0.07 +0.03    +0.066    47.495
ATOM      9  C   UNL d   1      11.437 -10.157  14.073 -0.11 +0.02    +0.051    47.495
ATOM     10  C   UNL d   1      13.471 -10.401  10.152 -0.11 +0.02    +0.066    47.495
ATOM     11  C   UNL d   1      13.627  -9.288   9.296 -0.15 -0.01    -0.021    47.495
ATOM     12  C   UNL d   1      14.280  -9.759   8.154 -0.16 +0.00    +0.000    47.495
ATOM     13  C   UNL d   1      14.484 -11.117   8.401 -0.11 +0.02    +0.070    47.495
ATOM     14  C   UNL d   1      13.256  -7.862   9.611 +0.09 +0.03    +0.052    47.495
ATOM     15  C   UNL d   1      15.267 -13.364   7.552 -0.19 +0.01    +0.066    47.495
ATOM     16  C   UNL d   1      15.702 -14.176   6.515 -0.25 +0.00    -0.021    47.495
ATOM     17  C   UNL d   1      15.761 -15.473   7.046 -0.27 +0.00    +0.000    47.495
ATOM     18  C   UNL d   1      15.371 -15.346   8.375 -0.13 +0.01    +0.070    47.495
ATOM     19  C   UNL d   1      16.031 -13.709   5.114 -0.28 -0.02    +0.052    47.495
ATOM     20  C   UNL d   1      14.778 -16.339  10.616 -0.13 +0.03    +0.066    47.495
ATOM     21  C   UNL d   1      14.661 -17.455  11.442 -0.12 -0.01    -0.025    47.495
ATOM     22  C   UNL d   1      14.144 -16.984  12.635 -0.05 -0.01    -0.021    47.495
ATOM     23  C   UNL d   1      13.959 -15.595  12.473 -0.04 +0.03    +0.066    47.495
ATOM     24  C   UNL d   1      15.005 -18.904  11.105 -0.17 +0.02    +0.051    47.495
ATOM     25  N   UNL d   1      13.383 -12.708  12.044 -0.01 -0.11    -0.248    47.495
ATOM     26  N   UNL d   1      14.045 -11.491   9.632 -0.03 -0.07    -0.248    47.495
ATOM     27  N   UNL d   1      15.056 -14.082   8.633 -0.09 -0.05    -0.248    47.495
ATOM     28  N   UNL d   1      14.340 -15.201  11.252 -0.04 -0.11    -0.248    47.495
ATOM     29 FE   UNL d   1      14.270 -13.439  10.239 -0.03 +0.00    +0.000    47.495
ATOM     30  C   UNL d   1      11.774 -13.065  15.441 -0.05 +0.03    +0.052    47.495
ATOM     31  C   UNL d   1      10.339 -13.565  15.276 -0.03 +0.09    +0.115    47.495
ATOM     32  C   UNL d   1      10.256 -15.076  15.230 -0.05 +0.15    +0.139    47.495
ATOM     33  O   UNL d   1      10.792 -15.734  16.109 -0.33 -0.91    -0.650    47.495
ATOM     34  O   UNL d   1       9.562 -15.727  14.267 -0.54 -1.23    -0.776    47.495
ATOM     35  H   UNL d   1       9.467 -16.688  14.222 +0.01 +0.28    +0.167    47.495
ATOM     36  C   UNL d   1      12.323 -13.864   9.587 -0.17 +0.11    +0.190    47.495
ATOM     37  O   UNL d   1      11.006 -13.395   9.630 -0.25 -0.30    -0.399    47.495
ATOM     38  H   UNL d   1      10.837 -13.021   8.721 -0.19 +0.09    +0.209    47.495
ATOM     39  C   UNL d   1      13.789 -17.838  13.838 -0.04 +0.03    +0.052    47.495
ATOM     40  C   UNL d   1      12.443 -18.548  13.620 -0.05 +0.08    +0.115    47.495
ATOM     41  C   UNL d   1      11.600 -18.687  14.871 -0.06 +0.13    +0.139    47.495
ATOM     42  O   UNL d   1      12.134 -19.028  15.917 -0.05 -0.81    -0.650    47.495
ATOM     43  O   UNL d   1      10.289 -18.361  14.884 +0.02 -0.80    -0.776    47.495
ATOM     44  H   UNL d   1       9.954 -17.575  15.334 +0.02 +0.19    +0.167    47.495
ATOM     45  C   UNL d   1      14.749  -9.082   6.873 -0.27 +0.00    +0.004    47.495
ATOM     46  C   UNL d   1      15.605  -8.081   6.685 -0.21 +0.00    +0.012    47.495
ATOM     47  C   UNL d   1      16.101 -16.764   6.376 -0.34 +0.00    +0.004    47.495
ATOM     48  C   UNL d   1      15.873 -17.005   5.083 -0.32 -0.00    +0.012    47.495
TER
ENDMDL
MODEL       39
USER    Run = 39
USER    Cluster Rank = 48
USER    Number of conformations in this cluster = 1
USER  
USER    RMSD from reference structure       = 40.062 A
USER  
USER    Estimated Free Energy of Binding    =   -5.23 kcal/mol  [=(1)+(2)+(3)-(4)]
USER    Estimated Inhibition Constant, Ki   =  145.69 uM (micromolar)  [Temperature = 298.15 K]
USER    
USER    (1) Final Intermolecular Energy     =   -8.81 kcal/mol
USER        vdW + Hbond + desolv Energy     =   -6.92 kcal/mol
USER        Electrostatic Energy            =   -1.89 kcal/mol
USER    (2) Final Total Internal Energy     =   -2.18 kcal/mol
USER    (3) Torsional Free Energy           =   +3.58 kcal/mol
USER    (4) Unbound System's Energy  [=(2)] =   -2.18 kcal/mol
USER    
USER    
USER  
USER    DPF = D:/Protein_go_brrr/autodock/final/1A3N/heme_Co/dock.dpf
USER    NEWDPF move	heme_Co_opt.pdbqt
USER    NEWDPF about	8.781000 34.984000 -0.736000
USER    NEWDPF tran0	9.376635 -5.033439 15.729073
USER    NEWDPF axisangle0	-0.206840 -0.715971 -0.666786 -84.282064
USER    NEWDPF quaternion0	-0.138781 -0.480386 -0.447385 -0.741496
USER    NEWDPF dihe0	102.71 78.60 140.24 0.78 123.57 145.73 -131.19 134.71 -136.45 148.91 -176.96 21.37 
USER  
USER                              x       y       z    vdW   Elec        q     RMS 
ATOM      1  C   UNL d   1      10.007  -4.268  13.797 -0.07 +0.03    +0.064    40.062
ATOM      2  C   UNL d   1       5.864  -4.054  16.122 -0.28 +0.01    +0.064    40.062
ATOM      3  C   UNL d   1       7.612  -6.860  19.572 -0.08 +0.01    +0.064    40.062
ATOM      4  C   UNL d   1      11.970  -6.778  17.412 -0.07 +0.04    +0.064    40.062
ATOM      5  C   UNL d   1       8.735  -4.033  14.161 -0.07 +0.03    +0.066    40.062
ATOM      6  C   UNL d   1       7.894  -3.175  13.426 -0.14 -0.01    -0.021    40.062
ATOM      7  C   UNL d   1       6.701  -3.098  14.117 -0.18 -0.01    -0.025    40.062
ATOM      8  C   UNL d   1       6.859  -3.925  15.234 -0.15 +0.02    +0.066    40.062
ATOM      9  C   UNL d   1       5.452  -2.282  13.753 -0.35 +0.01    +0.051    40.062
ATOM     10  C   UNL d   1       5.926  -4.902  17.286 -0.23 +0.01    +0.066    40.062
ATOM     11  C   UNL d   1       4.869  -5.189  18.178 -0.38 -0.00    -0.021    40.062
ATOM     12  C   UNL d   1       5.406  -6.012  19.172 -0.29 +0.00    +0.000    40.062
ATOM     13  C   UNL d   1       6.742  -6.176  18.807 -0.13 +0.01    +0.070    40.062
ATOM     14  C   UNL d   1       3.430  -4.772  18.018 -0.41 +0.00    +0.052    40.062
ATOM     15  C   UNL d   1       9.031  -7.083  19.375 -0.04 +0.01    +0.066    40.062
ATOM     16  C   UNL d   1       9.904  -7.676  20.277 -0.09 -0.01    -0.021    40.062
ATOM     17  C   UNL d   1      11.162  -7.652  19.659 -0.14 +0.00    +0.000    40.062
ATOM     18  C   UNL d   1      10.954  -7.060  18.418 -0.06 +0.03    +0.070    40.062
ATOM     19  C   UNL d   1       9.524  -8.218  21.637 -0.20 +0.01    +0.052    40.062
ATOM     20  C   UNL d   1      11.807  -6.126  16.236 -0.04 +0.03    +0.066    40.062
ATOM     21  C   UNL d   1      12.869  -5.883  15.367 -0.06 -0.01    -0.025    40.062
ATOM     22  C   UNL d   1      12.327  -5.186  14.302 -0.02 -0.01    -0.021    40.062
ATOM     23  C   UNL d   1      10.953  -5.027  14.582 -0.02 +0.03    +0.066    40.062
ATOM     24  C   UNL d   1      14.332  -6.277  15.551 -0.13 +0.03    +0.051    40.062
ATOM     25  N   UNL d   1       8.108  -4.522  15.284 -0.03 -0.08    -0.248    40.062
ATOM     26  N   UNL d   1       7.041  -5.551  17.637 -0.06 -0.04    -0.248    40.062
ATOM     27  N   UNL d   1       9.679  -6.707  18.295 -0.00 -0.07    -0.248    40.062
ATOM     28  N   UNL d   1      10.635  -5.593  15.753 +0.00 -0.09    -0.248    40.062
ATOM     29 FE   UNL d   1       8.943  -5.680  16.877 -0.02 +0.00    +0.000    40.062
ATOM     30  C   UNL d   1       8.262  -2.404  12.162 -0.22 +0.02    +0.052    40.062
ATOM     31  C   UNL d   1       8.761  -1.003  12.513 -0.20 +0.05    +0.115    40.062
ATOM     32  C   UNL d   1       9.678  -1.002  13.717 -0.05 +0.15    +0.139    40.062
ATOM     33  O   UNL d   1      10.888  -0.969  13.550 -0.04 -0.64    -0.650    40.062
ATOM     34  O   UNL d   1       9.201  -0.988  14.983 -0.42 -1.05    -0.776    40.062
ATOM     35  H   UNL d   1       9.114  -1.773  15.540 +0.05 +0.13    +0.167    40.062
ATOM     36  C   UNL d   1       9.431  -3.859  17.794 -0.06 +0.05    +0.190    40.062
ATOM     37  O   UNL d   1       9.471  -2.478  17.577 -0.05 -0.15    -0.399    40.062
ATOM     38  H   UNL d   1       9.716  -2.376  16.615 +0.06 +0.11    +0.209    40.062
ATOM     39  C   UNL d   1      13.106  -4.648  13.116 -0.03 +0.02    +0.052    40.062
ATOM     40  C   UNL d   1      12.543  -5.208  11.799 -0.12 +0.05    +0.115    40.062
ATOM     41  C   UNL d   1      12.073  -6.645  11.881 -0.16 +0.08    +0.139    40.062
ATOM     42  O   UNL d   1      12.875  -7.549  11.691 -0.01 -0.29    -0.650    40.062
ATOM     43  O   UNL d   1      10.811  -6.960  12.246 +0.05 -0.46    -0.776    40.062
ATOM     44  H   UNL d   1      10.342  -7.725  11.887 -0.54 +0.06    +0.167    40.062
ATOM     45  C   UNL d   1       4.808  -6.674  20.406 -0.36 +0.00    +0.004    40.062
ATOM     46  C   UNL d   1       3.608  -6.540  20.965 -0.43 +0.00    +0.012    40.062
ATOM     47  C   UNL d   1      12.490  -8.094  20.182 -0.24 +0.00    +0.004    40.062
ATOM     48  C   UNL d   1      13.070  -9.247  19.842 -0.39 +0.01    +0.012    40.062
TER
ENDMDL
MODEL       56
USER    Run = 56
USER    Cluster Rank = 49
USER    Number of conformations in this cluster = 1
USER  
USER    RMSD from reference structure       = 44.592 A
USER  
USER    Estimated Free Energy of Binding    =   -5.06 kcal/mol  [=(1)+(2)+(3)-(4)]
USER    Estimated Inhibition Constant, Ki   =  194.51 uM (micromolar)  [Temperature = 298.15 K]
USER    
USER    (1) Final Intermolecular Energy     =   -8.64 kcal/mol
USER        vdW + Hbond + desolv Energy     =   -7.23 kcal/mol
USER        Electrostatic Energy            =   -1.41 kcal/mol
USER    (2) Final Total Internal Energy     =   -2.27 kcal/mol
USER    (3) Torsional Free Energy           =   +3.58 kcal/mol
USER    (4) Unbound System's Energy  [=(2)] =   -2.27 kcal/mol
USER    
USER    
USER  
USER    DPF = D:/Protein_go_brrr/autodock/final/1A3N/heme_Co/dock.dpf
USER    NEWDPF move	heme_Co_opt.pdbqt
USER    NEWDPF about	8.781000 34.984000 -0.736000
USER    NEWDPF tran0	40.690173 0.282218 -4.692825
USER    NEWDPF axisangle0	-0.344282 0.686507 -0.640451 -157.011162
USER    NEWDPF quaternion0	-0.337377 0.672739 -0.627606 -0.199272
USER    NEWDPF dihe0	-156.44 -111.00 -9.10 116.65 47.32 16.23 41.41 145.19 -76.92 25.23 -179.21 -180.00 
USER  
USER                              x       y       z    vdW   Elec        q     RMS 
ATOM      1  C   UNL d   1      41.341   2.240  -5.369 -0.18 -0.00    +0.064    44.592
ATOM      2  C   UNL d   1      43.594  -1.257  -3.066 -0.11 -0.05    +0.064    44.592
ATOM      3  C   UNL d   1      39.524  -3.743  -2.783 -0.10 -0.02    +0.064    44.592
ATOM      4  C   UNL d   1      37.287  -0.362  -5.471 -0.35 +0.02    +0.064    44.592
ATOM      5  C   UNL d   1      42.248   1.484  -4.729 -0.16 -0.02    +0.066    44.592
ATOM      6  C   UNL d   1      43.607   1.846  -4.657 -0.13 +0.01    -0.021    44.592
ATOM      7  C   UNL d   1      44.260   0.817  -4.007 -0.12 +0.01    -0.025    44.592
ATOM      8  C   UNL d   1      43.270  -0.121  -3.696 -0.05 -0.05    +0.066    44.592
ATOM      9  C   UNL d   1      45.758   0.707  -3.685 -0.07 -0.01    +0.051    44.592
ATOM     10  C   UNL d   1      42.641  -2.267  -2.682 -0.09 -0.05    +0.066    44.592
ATOM     11  C   UNL d   1      42.895  -3.413  -1.896 -0.07 +0.01    -0.021    44.592
ATOM     12  C   UNL d   1      41.691  -4.118  -1.826 -0.07 -0.00    +0.000    44.592
ATOM     13  C   UNL d   1      40.790  -3.346  -2.561 -0.09 -0.03    +0.070    44.592
ATOM     14  C   UNL d   1      44.186  -3.741  -1.190 -0.04 -0.02    +0.052    44.592
ATOM     15  C   UNL d   1      38.481  -3.101  -3.557 -0.15 -0.01    +0.066    44.592
ATOM     16  C   UNL d   1      37.238  -3.635  -3.867 -0.22 +0.00    -0.021    44.592
ATOM     17  C   UNL d   1      36.590  -2.664  -4.645 -0.33 +0.00    +0.000    44.592
ATOM     18  C   UNL d   1      37.486  -1.604  -4.733 -0.31 +0.02    +0.070    44.592
ATOM     19  C   UNL d   1      36.734  -4.993  -3.433 -0.19 -0.02    +0.052    44.592
ATOM     20  C   UNL d   1      38.175   0.646  -5.643 -0.24 +0.02    +0.066    44.592
ATOM     21  C   UNL d   1      37.881   1.775  -6.404 -0.34 -0.01    -0.025    44.592
ATOM     22  C   UNL d   1      39.021   2.556  -6.369 -0.25 -0.01    -0.021    44.592
ATOM     23  C   UNL d   1      39.967   1.854  -5.592 -0.15 +0.01    +0.066    44.592
ATOM     24  C   UNL d   1      36.584   2.085  -7.147 -0.43 +0.01    +0.051    44.592
ATOM     25  N   UNL d   1      42.013   0.269  -4.126 -0.11 +0.16    -0.248    44.592
ATOM     26  N   UNL d   1      41.351  -2.200  -3.030 -0.09 +0.15    -0.248    44.592
ATOM     27  N   UNL d   1      38.612  -1.911  -4.100 -0.15 -0.01    -0.248    44.592
ATOM     28  N   UNL d   1      39.460   0.696  -5.152 +0.02 -0.03    -0.248    44.592
ATOM     29 FE   UNL d   1      40.210  -0.883  -4.114 -0.06 -0.00    +0.000    44.592
ATOM     30  C   UNL d   1      44.250   3.090  -5.262 -0.09 -0.01    +0.052    44.592
ATOM     31  C   UNL d   1      44.840   2.775  -6.636 -0.01 -0.00    +0.115    44.592
ATOM     32  C   UNL d   1      43.950   3.245  -7.767 -0.00 +0.01    +0.139    44.592
ATOM     33  O   UNL d   1      43.077   2.504  -8.192 +0.03 -0.08    -0.650    44.592
ATOM     34  O   UNL d   1      44.058   4.486  -8.297 +0.02 -0.10    -0.776    44.592
ATOM     35  H   UNL d   1      43.365   4.919  -8.813 +0.01 +0.04    +0.167    44.592
ATOM     36  C   UNL d   1      40.890  -1.759  -5.892 -0.09 +0.06    +0.190    44.592
ATOM     37  O   UNL d   1      40.471  -2.181  -7.158 -0.49 -0.52    -0.399    44.592
ATOM     38  H   UNL d   1      41.175  -1.852  -7.784 +0.02 +0.19    +0.209    44.592
ATOM     39  C   UNL d   1      39.208   3.873  -7.099 -0.25 +0.02    +0.052    44.592
ATOM     40  C   UNL d   1      39.516   3.631  -8.586 -0.10 +0.05    +0.115    44.592
ATOM     41  C   UNL d   1      40.168   4.804  -9.288 -0.08 +0.10    +0.139    44.592
ATOM     42  O   UNL d   1      39.482   5.764  -9.611 -0.51 -0.96    -0.650    44.592
ATOM     43  O   UNL d   1      41.503   4.858  -9.491 +0.02 -0.36    -0.776    44.592
ATOM     44  H   UNL d   1      42.105   4.175  -9.167 +0.01 +0.05    +0.167    44.592
ATOM     45  C   UNL d   1      41.284  -5.414  -1.138 -0.05 -0.00    +0.004    44.592
ATOM     46  C   UNL d   1      40.518  -5.625  -0.071 -0.08 -0.00    +0.012    44.592
ATOM     47  C   UNL d   1      35.256  -2.713  -5.313 -0.36 +0.00    +0.004    44.592
ATOM     48  C   UNL d   1      34.248  -3.482  -4.893 -0.60 -0.00    +0.012    44.592
TER
ENDMDL
MODEL       93
USER    Run = 93
USER    Cluster Rank = 50
USER    Number of conformations in this cluster = 1
USER  
USER    RMSD from reference structure       = 41.219 A
USER  
USER    Estimated Free Energy of Binding    =   -5.04 kcal/mol  [=(1)+(2)+(3)-(4)]
USER    Estimated Inhibition Constant, Ki   =  202.71 uM (micromolar)  [Temperature = 298.15 K]
USER    
USER    (1) Final Intermolecular Energy     =   -8.62 kcal/mol
USER        vdW + Hbond + desolv Energy     =   -7.24 kcal/mol
USER        Electrostatic Energy            =   -1.38 kcal/mol
USER    (2) Final Total Internal Energy     =   -4.11 kcal/mol
USER    (3) Torsional Free Energy           =   +3.58 kcal/mol
USER    (4) Unbound System's Energy  [=(2)] =   -4.11 kcal/mol
USER    
USER    
USER  
USER    DPF = D:/Protein_go_brrr/autodock/final/1A3N/heme_Co/dock.dpf
USER    NEWDPF move	heme_Co_opt.pdbqt
USER    NEWDPF about	8.781000 34.984000 -0.736000
USER    NEWDPF tran0	2.224227 -6.916876 -10.241988
USER    NEWDPF axisangle0	0.245063 0.906712 -0.343245 65.229384
USER    NEWDPF quaternion0	0.132086 0.488706 -0.185004 0.842314
USER    NEWDPF dihe0	148.91 112.92 -68.50 -9.95 145.47 108.77 -112.94 -31.98 -129.41 -150.97 -179.45 156.40 
USER  
USER                              x       y       z    vdW   Elec        q     RMS 
ATOM      1  C   UNL d   1       1.996  -7.358 -12.356 -0.02 +0.02    +0.064    41.219
ATOM      2  C   UNL d   1      -0.204  -9.032  -8.488 -0.18 +0.04    +0.064    41.219
ATOM      3  C   UNL d   1       2.731  -6.513  -5.682 -0.29 +0.01    +0.064    41.219
ATOM      4  C   UNL d   1       4.742  -4.492  -9.623 -0.17 +0.01    +0.064    41.219
ATOM      5  C   UNL d   1       1.203  -8.028 -11.504 -0.04 +0.03    +0.066    41.219
ATOM      6  C   UNL d   1       0.142  -8.840 -11.952 -0.03 -0.01    -0.021    41.219
ATOM      7  C   UNL d   1      -0.507  -9.305 -10.826 -0.07 -0.01    -0.025    41.219
ATOM      8  C   UNL d   1       0.195  -8.771  -9.739 -0.12 +0.04    +0.066    41.219
ATOM      9  C   UNL d   1      -1.742 -10.216 -10.758 -0.07 +0.02    +0.051    41.219
ATOM     10  C   UNL d   1       0.470  -8.550  -7.308 -0.22 +0.03    +0.066    41.219
ATOM     11  C   UNL d   1       0.186  -8.901  -5.971 -0.27 -0.01    -0.021    41.219
ATOM     12  C   UNL d   1       1.059  -8.155  -5.174 -0.35 +0.00    +0.000    41.219
ATOM     13  C   UNL d   1       1.817  -7.416  -6.082 -0.20 +0.02    +0.070    41.219
ATOM     14  C   UNL d   1      -0.792  -9.953  -5.513 -0.23 +0.01    +0.052    41.219
ATOM     15  C   UNL d   1       3.561  -5.631  -6.477 -0.21 +0.01    +0.066    41.219
ATOM     16  C   UNL d   1       4.380  -4.618  -5.998 -0.42 -0.00    -0.021    41.219
ATOM     17  C   UNL d   1       4.961  -4.030  -7.132 -0.43 +0.00    +0.000    41.219
ATOM     18  C   UNL d   1       4.461  -4.745  -8.215 -0.24 +0.01    +0.070    41.219
ATOM     19  C   UNL d   1       4.572  -4.260  -4.541 -0.49 +0.01    +0.052    41.219
ATOM     20  C   UNL d   1       4.201  -5.116 -10.697 -0.10 +0.01    +0.066    41.219
ATOM     21  C   UNL d   1       4.524  -4.760 -12.004 -0.06 -0.00    -0.025    41.219
ATOM     22  C   UNL d   1       3.769  -5.589 -12.814 -0.03 -0.00    -0.021    41.219
ATOM     23  C   UNL d   1       3.009  -6.408 -11.953 -0.04 +0.02    +0.066    41.219
ATOM     24  C   UNL d   1       5.489  -3.669 -12.461 -0.07 +0.01    +0.051    41.219
ATOM     25  N   UNL d   1       1.262  -7.981 -10.130 -0.06 -0.12    -0.248    41.219
ATOM     26  N   UNL d   1       1.498  -7.697  -7.373 -0.16 -0.10    -0.248    41.219
ATOM     27  N   UNL d   1       3.607  -5.670  -7.790 -0.16 -0.05    -0.248    41.219
ATOM     28  N   UNL d   1       3.265  -6.124 -10.671 -0.05 -0.06    -0.248    41.219
ATOM     29 FE   UNL d   1       2.506  -6.756  -8.894 -0.04 +0.00    +0.000    41.219
ATOM     30  C   UNL d   1      -0.269  -9.082 -13.401 -0.00 +0.01    +0.052    41.219
ATOM     31  C   UNL d   1      -1.389  -8.125 -13.809 -0.01 +0.04    +0.115    41.219
ATOM     32  C   UNL d   1      -1.085  -6.690 -13.439 -0.02 +0.07    +0.139    41.219
ATOM     33  O   UNL d   1      -0.980  -5.851 -14.321 +0.02 -0.25    -0.650    41.219
ATOM     34  O   UNL d   1      -0.973  -6.289 -12.151 -0.00 -0.70    -0.776    41.219
ATOM     35  H   UNL d   1      -0.355  -5.611 -11.844 +0.03 +0.15    +0.167    41.219
ATOM     36  C   UNL d   1       0.993  -5.309  -8.999 -0.11 +0.17    +0.190    41.219
ATOM     37  O   UNL d   1       0.129  -4.663  -9.890 -0.32 -0.53    -0.399    41.219
ATOM     38  H   UNL d   1       0.342  -5.054 -10.783 +0.06 +0.21    +0.209    41.219
ATOM     39  C   UNL d   1       3.737  -5.546 -14.330 -0.01 +0.01    +0.052    41.219
ATOM     40  C   UNL d   1       2.466  -4.837 -14.826 -0.01 +0.03    +0.115    41.219
ATOM     41  C   UNL d   1       1.849  -3.886 -13.822 -0.06 +0.05    +0.139    41.219
ATOM     42  O   UNL d   1       1.962  -2.680 -13.991 -0.25 -0.31    -0.650    41.219
ATOM     43  O   UNL d   1       1.100  -4.332 -12.789 +0.07 -0.32    -0.776    41.219
ATOM     44  H   UNL d   1       0.274  -4.815 -12.917 +0.03 +0.08    +0.167    41.219
ATOM     45  C   UNL d   1       1.276  -8.071  -3.669 -0.38 +0.00    +0.004    41.219
ATOM     46  C   UNL d   1       0.491  -8.438  -2.659 -0.48 +0.00    +0.012    41.219
ATOM     47  C   UNL d   1       5.877  -2.856  -7.233 -0.49 +0.00    +0.004    41.219
ATOM     48  C   UNL d   1       7.075  -2.904  -7.821 -0.53 -0.00    +0.012    41.219
TER
ENDMDL
MODEL       20
USER    Run = 20
USER    Cluster Rank = 51
USER    Number of conformations in this cluster = 1
USER  
USER    RMSD from reference structure       = 26.530 A
USER  
USER    Estimated Free Energy of Binding    =   -4.95 kcal/mol  [=(1)+(2)+(3)-(4)]
USER    Estimated Inhibition Constant, Ki   =  233.54 uM (micromolar)  [Temperature = 298.15 K]
USER    
USER    (1) Final Intermolecular Energy     =   -8.53 kcal/mol
USER        vdW + Hbond + desolv Energy     =   -8.85 kcal/mol
USER        Electrostatic Energy            =   +0.32 kcal/mol
USER    (2) Final Total Internal Energy     =   -2.16 kcal/mol
USER    (3) Torsional Free Energy           =   +3.58 kcal/mol
USER    (4) Unbound System's Energy  [=(2)] =   -2.16 kcal/mol
USER    
USER    
USER  
USER    DPF = D:/Protein_go_brrr/autodock/final/1A3N/heme_Co/dock.dpf
USER    NEWDPF move	heme_Co_opt.pdbqt
USER    NEWDPF about	8.781000 34.984000 -0.736000
USER    NEWDPF tran0	11.398067 8.496195 11.653977
USER    NEWDPF axisangle0	-0.878051 -0.038545 -0.477013 122.306630
USER    NEWDPF quaternion0	-0.769097 -0.033762 -0.417822 0.482468
USER    NEWDPF dihe0	-176.91 122.40 -173.87 46.71 -78.02 125.04 43.61 -154.81 160.21 -3.63 -152.05 151.08 
USER  
USER                              x       y       z    vdW   Elec        q     RMS 
ATOM      1  C   UNL d   1       9.394   7.957  11.015 -0.10 +0.00    +0.064    26.530
ATOM      2  C   UNL d   1      13.667   7.279   9.042 -0.22 +0.01    +0.064    26.530
ATOM      3  C   UNL d   1      15.718   9.841  12.515 -0.07 +0.04    +0.064    26.530
ATOM      4  C   UNL d   1      11.418  10.221  14.757 -0.30 +0.01    +0.064    26.530
ATOM      5  C   UNL d   1      10.406   7.614  10.202 -0.07 +0.01    +0.066    26.530
ATOM      6  C   UNL d   1      10.215   6.782   9.081 -0.16 +0.00    -0.021    26.530
ATOM      7  C   UNL d   1      11.462   6.570   8.526 -0.23 +0.00    -0.025    26.530
ATOM      8  C   UNL d   1      12.357   7.294   9.320 -0.13 +0.01    +0.066    26.530
ATOM      9  C   UNL d   1      11.813   5.720   7.295 -0.43 -0.03    +0.051    26.530
ATOM     10  C   UNL d   1      14.659   8.014   9.787 -0.16 +0.03    +0.066    26.530
ATOM     11  C   UNL d   1      16.026   8.152   9.463 -0.26 -0.01    -0.021    26.530
ATOM     12  C   UNL d   1      16.599   8.907  10.490 -0.17 +0.00    +0.000    26.530
ATOM     13  C   UNL d   1      15.540   9.183  11.355 -0.08 +0.05    +0.070    26.530
ATOM     14  C   UNL d   1      16.698   7.668   8.203 -0.41 +0.01    +0.052    26.530
ATOM     15  C   UNL d   1      14.752  10.165  13.546 -0.08 +0.02    +0.066    26.530
ATOM     16  C   UNL d   1      15.028  10.719  14.788 -0.17 -0.00    -0.021    26.530
ATOM     17  C   UNL d   1      13.792  10.828  15.439 -0.33 +0.00    +0.000    26.530
ATOM     18  C   UNL d   1      12.853  10.346  14.533 -0.20 +0.01    +0.070    26.530
ATOM     19  C   UNL d   1      16.402  11.106  15.289 -0.20 +0.01    +0.052    26.530
ATOM     20  C   UNL d   1      10.498   9.677  13.925 -0.24 +0.01    +0.066    26.530
ATOM     21  C   UNL d   1       9.151   9.580  14.267 -0.38 -0.00    -0.025    26.530
ATOM     22  C   UNL d   1       8.538   8.957  13.195 -0.27 -0.00    -0.021    26.530
ATOM     23  C   UNL d   1       9.552   8.692  12.249 -0.13 +0.01    +0.066    26.530
ATOM     24  C   UNL d   1       8.483  10.040  15.560 -0.45 -0.00    +0.051    26.530
ATOM     25  N   UNL d   1      11.730   7.956  10.362 -0.01 -0.04    -0.248    26.530
ATOM     26  N   UNL d   1      14.357   8.691  10.900 -0.04 -0.12    -0.248    26.530
ATOM     27  N   UNL d   1      13.464   9.932  13.428 -0.03 -0.07    -0.248    26.530
ATOM     28  N   UNL d   1      10.740   9.124  12.688 -0.06 -0.05    -0.248    26.530
ATOM     29 FE   UNL d   1      12.645   9.003  11.987 -0.02 +0.00    +0.000    26.530
ATOM     30  C   UNL d   1       8.901   6.158   8.625 -0.30 -0.01    +0.052    26.530
ATOM     31  C   UNL d   1       8.426   5.109   9.630 -0.21 -0.02    +0.115    26.530
ATOM     32  C   UNL d   1       9.554   4.582  10.490 -0.17 -0.01    +0.139    26.530
ATOM     33  O   UNL d   1      10.235   3.652  10.084 +0.02 +0.29    -0.650    26.530
ATOM     34  O   UNL d   1       9.869   5.140  11.682 +0.10 -0.18    -0.776    26.530
ATOM     35  H   UNL d   1      10.573   4.820  12.263 +0.05 +0.08    +0.167    26.530
ATOM     36  C   UNL d   1      12.890   7.135  12.906 -0.10 +0.10    +0.190    26.530
ATOM     37  O   UNL d   1      12.326   5.859  13.003 -0.07 -0.21    -0.399    26.530
ATOM     38  H   UNL d   1      11.620   5.836  12.298 +0.06 +0.08    +0.209    26.530
ATOM     39  C   UNL d   1       7.070   8.582  13.118 -0.40 -0.01    +0.052    26.530
ATOM     40  C   UNL d   1       6.892   7.060  13.247 -0.31 -0.01    +0.115    26.530
ATOM     41  C   UNL d   1       5.454   6.611  13.401 -0.40 -0.04    +0.139    26.530
ATOM     42  O   UNL d   1       4.602   7.429  13.720 -0.04 +0.30    -0.650    26.530
ATOM     43  O   UNL d   1       5.070   5.348  13.112 +0.08 +0.09    -0.776    26.530
ATOM     44  H   UNL d   1       4.141   5.092  13.035 +0.10 -0.02    +0.167    26.530
ATOM     45  C   UNL d   1      18.014   9.411  10.742 -0.25 +0.00    +0.004    26.530
ATOM     46  C   UNL d   1      18.929   9.882   9.899 -0.42 +0.00    +0.012    26.530
ATOM     47  C   UNL d   1      13.480  11.295  16.823 -0.54 +0.00    +0.004    26.530
ATOM     48  C   UNL d   1      13.253  10.468  17.846 -0.64 +0.00    +0.012    26.530
TER
ENDMDL
MODEL        8
USER    Run = 8
USER    Cluster Rank = 52
USER    Number of conformations in this cluster = 1
USER  
USER    RMSD from reference structure       = 31.810 A
USER  
USER    Estimated Free Energy of Binding    =   -4.93 kcal/mol  [=(1)+(2)+(3)-(4)]
USER    Estimated Inhibition Constant, Ki   =  242.68 uM (micromolar)  [Temperature = 298.15 K]
USER    
USER    (1) Final Intermolecular Energy     =   -8.51 kcal/mol
USER        vdW + Hbond + desolv Energy     =   -7.13 kcal/mol
USER        Electrostatic Energy            =   -1.38 kcal/mol
USER    (2) Final Total Internal Energy     =   -3.12 kcal/mol
USER    (3) Torsional Free Energy           =   +3.58 kcal/mol
USER    (4) Unbound System's Energy  [=(2)] =   -3.12 kcal/mol
USER    
USER    
USER  
USER    DPF = D:/Protein_go_brrr/autodock/final/1A3N/heme_Co/dock.dpf
USER    NEWDPF move	heme_Co_opt.pdbqt
USER    NEWDPF about	8.781000 34.984000 -0.736000
USER    NEWDPF tran0	12.559072 1.762215 10.853367
USER    NEWDPF axisangle0	-0.144175 -0.541614 -0.828172 133.665563
USER    NEWDPF quaternion0	-0.132549 -0.497938 -0.761388 0.393416
USER    NEWDPF dihe0	13.36 130.70 140.59 5.55 -80.57 115.88 25.97 -52.55 -166.05 127.86 179.89 -179.90 
USER  
USER                              x       y       z    vdW   Elec        q     RMS 
ATOM      1  C   UNL d   1      13.089  -0.305  11.253 -0.15 -0.01    +0.064    31.810
ATOM      2  C   UNL d   1      15.724   3.575  10.471 -0.27 +0.04    +0.064    31.810
ATOM      3  C   UNL d   1      11.778   6.123   9.594 -0.14 -0.00    +0.064    31.810
ATOM      4  C   UNL d   1       9.047   2.272  10.765 -0.25 -0.02    +0.064    31.810
ATOM      5  C   UNL d   1      14.101   0.559  11.068 -0.14 -0.01    +0.066    31.810
ATOM      6  C   UNL d   1      15.443   0.201  11.304 -0.14 -0.00    -0.021    31.810
ATOM      7  C   UNL d   1      16.201   1.336  11.098 -0.23 -0.00    -0.025    31.810
ATOM      8  C   UNL d   1      15.292   2.334  10.729 -0.16 +0.02    +0.066    31.810
ATOM      9  C   UNL d   1      17.722   1.493  11.240 -0.29 +0.01    +0.051    31.810
ATOM     10  C   UNL d   1      14.867   4.659  10.059 -0.26 +0.04    +0.066    31.810
ATOM     11  C   UNL d   1      15.275   5.944   9.638 -0.32 -0.01    -0.021    31.810
ATOM     12  C   UNL d   1      14.105   6.665   9.385 -0.27 +0.00    +0.000    31.810
ATOM     13  C   UNL d   1      13.073   5.765   9.657 -0.21 +0.01    +0.070    31.810
ATOM     14  C   UNL d   1      16.693   6.399   9.409 -0.35 +0.04    +0.052    31.810
ATOM     15  C   UNL d   1      10.593   5.343   9.890 -0.13 -0.01    +0.066    31.810
ATOM     16  C   UNL d   1       9.289   5.815   9.946 -0.16 +0.00    -0.021    31.810
ATOM     17  C   UNL d   1       8.498   4.709  10.286 -0.22 -0.00    +0.000    31.810
ATOM     18  C   UNL d   1       9.383   3.641  10.394 -0.21 -0.02    +0.070    31.810
ATOM     19  C   UNL d   1       8.862   7.243   9.686 -0.21 -0.00    +0.052    31.810
ATOM     20  C   UNL d   1       9.900   1.238  10.961 -0.13 -0.03    +0.066    31.810
ATOM     21  C   UNL d   1       9.460  -0.025  11.351 -0.28 +0.00    -0.025    31.810
ATOM     22  C   UNL d   1      10.601  -0.797  11.472 -0.23 +0.00    -0.021    31.810
ATOM     23  C   UNL d   1      11.690   0.043  11.158 -0.19 -0.02    +0.066    31.810
ATOM     24  C   UNL d   1       8.024  -0.470  11.617 -0.32 +0.01    +0.051    31.810
ATOM     25  N   UNL d   1      13.985   1.879  10.696 +0.07 +0.01    -0.248    31.810
ATOM     26  N   UNL d   1      13.537   4.537  10.010 -0.08 -0.04    -0.248    31.810
ATOM     27  N   UNL d   1      10.625   4.062  10.182 -0.12 +0.07    -0.248    31.810
ATOM     28  N   UNL d   1      11.270   1.277  10.851 -0.15 +0.13    -0.248    31.810
ATOM     29 FE   UNL d   1      12.203   3.032  10.424 -0.05 -0.00    +0.000    31.810
ATOM     30  C   UNL d   1      15.951  -1.154  11.786 -0.07 +0.00    +0.052    31.810
ATOM     31  C   UNL d   1      16.143  -1.147  13.303 -0.04 +0.00    +0.115    31.810
ATOM     32  C   UNL d   1      15.517   0.065  13.958 -0.07 +0.01    +0.139    31.810
ATOM     33  O   UNL d   1      16.232   0.985  14.328 +0.04 +0.02    -0.650    31.810
ATOM     34  O   UNL d   1      14.178   0.189  14.108 +0.07 -0.26    -0.776    31.810
ATOM     35  H   UNL d   1      13.544  -0.520  13.933 +0.04 +0.07    +0.167    31.810
ATOM     36  C   UNL d   1      12.323   3.491  12.466 -0.14 +0.13    +0.190    31.810
ATOM     37  O   UNL d   1      12.640   2.945  13.714 -0.37 -0.49    -0.399    31.810
ATOM     38  H   UNL d   1      13.161   2.119  13.508 +0.06 +0.20    +0.209    31.810
ATOM     39  C   UNL d   1      10.640  -2.243  11.927 -0.17 +0.01    +0.052    31.810
ATOM     40  C   UNL d   1      10.511  -2.334  13.457 -0.09 +0.06    +0.115    31.810
ATOM     41  C   UNL d   1      11.575  -1.574  14.220 -0.08 +0.10    +0.139    31.810
ATOM     42  O   UNL d   1      11.411  -0.384  14.450 +0.30 -1.17    -0.650    31.810
ATOM     43  O   UNL d   1      12.662  -2.193  14.731 +0.08 -0.33    -0.776    31.810
ATOM     44  H   UNL d   1      13.524  -1.761  14.794 +0.04 +0.05    +0.167    31.810
ATOM     45  C   UNL d   1      13.844   8.085   8.903 -0.21 +0.00    +0.004    31.810
ATOM     46  C   UNL d   1      14.689   9.076   8.630 -0.23 +0.00    +0.012    31.810
ATOM     47  C   UNL d   1       7.030   4.630  10.548 -0.35 -0.00    +0.004    31.810
ATOM     48  C   UNL d   1       6.502   4.561  11.772 -0.36 +0.00    +0.012    31.810
TER
ENDMDL
MODEL        7
USER    Run = 7
USER    Cluster Rank = 53
USER    Number of conformations in this cluster = 1
USER  
USER    RMSD from reference structure       = 42.250 A
USER  
USER    Estimated Free Energy of Binding    =   -4.85 kcal/mol  [=(1)+(2)+(3)-(4)]
USER    Estimated Inhibition Constant, Ki   =  277.26 uM (micromolar)  [Temperature = 298.15 K]
USER    
USER    (1) Final Intermolecular Energy     =   -8.43 kcal/mol
USER        vdW + Hbond + desolv Energy     =   -8.01 kcal/mol
USER        Electrostatic Energy            =   -0.42 kcal/mol
USER    (2) Final Total Internal Energy     =   -2.76 kcal/mol
USER    (3) Torsional Free Energy           =   +3.58 kcal/mol
USER    (4) Unbound System's Energy  [=(2)] =   -2.76 kcal/mol
USER    
USER    
USER  
USER    DPF = D:/Protein_go_brrr/autodock/final/1A3N/heme_Co/dock.dpf
USER    NEWDPF move	heme_Co_opt.pdbqt
USER    NEWDPF about	8.781000 34.984000 -0.736000
USER    NEWDPF tran0	0.983896 -7.293204 -8.756923
USER    NEWDPF axisangle0	0.899169 0.327300 0.290464 -173.500387
USER    NEWDPF quaternion0	0.897723 0.326774 0.289996 -0.056689
USER    NEWDPF dihe0	-107.85 101.74 113.99 93.75 81.85 96.33 -56.93 -75.99 -54.95 125.77 -179.80 -179.18 
USER  
USER                              x       y       z    vdW   Elec        q     RMS 
ATOM      1  C   UNL d   1      -0.410  -8.956  -8.846 -0.10 +0.04    +0.064    42.250
ATOM      2  C   UNL d   1       0.978  -5.773 -12.095 -0.07 +0.03    +0.064    42.250
ATOM      3  C   UNL d   1       3.552  -3.470  -8.793 -0.30 +0.01    +0.064    42.250
ATOM      4  C   UNL d   1       2.459  -6.926  -5.549 -0.28 +0.01    +0.064    42.250
ATOM      5  C   UNL d   1      -0.249  -8.235  -9.967 -0.11 +0.06    +0.066    42.250
ATOM      6  C   UNL d   1      -0.802  -8.635 -11.199 -0.08 -0.01    -0.021    42.250
ATOM      7  C   UNL d   1      -0.377  -7.721 -12.143 -0.06 -0.01    -0.025    42.250
ATOM      8  C   UNL d   1       0.403  -6.793 -11.444 -0.08 +0.05    +0.066    42.250
ATOM      9  C   UNL d   1      -0.685  -7.707 -13.648 -0.01 +0.02    +0.051    42.250
ATOM     10  C   UNL d   1       1.775  -4.756 -11.456 -0.10 +0.03    +0.066    42.250
ATOM     11  C   UNL d   1       2.289  -3.586 -12.057 -0.14 -0.01    -0.021    42.250
ATOM     12  C   UNL d   1       3.032  -2.931 -11.071 -0.23 +0.00    +0.000    42.250
ATOM     13  C   UNL d   1       2.907  -3.741  -9.942 -0.21 +0.02    +0.070    42.250
ATOM     14  C   UNL d   1       1.997  -3.098 -13.453 -0.14 +0.02    +0.052    42.250
ATOM     15  C   UNL d   1       3.578  -4.221  -7.554 -0.33 +0.01    +0.066    42.250
ATOM     16  C   UNL d   1       4.381  -3.964  -6.452 -0.43 -0.00    -0.021    42.250
ATOM     17  C   UNL d   1       4.071  -4.959  -5.514 -0.42 +0.00    +0.000    42.250
ATOM     18  C   UNL d   1       3.087  -5.738  -6.114 -0.26 +0.02    +0.070    42.250
ATOM     19  C   UNL d   1       5.374  -2.829  -6.336 -0.45 +0.00    +0.052    42.250
ATOM     20  C   UNL d   1       1.564  -7.749  -6.146 -0.28 +0.02    +0.066    42.250
ATOM     21  C   UNL d   1       1.058  -8.882  -5.514 -0.32 -0.01    -0.025    42.250
ATOM     22  C   UNL d   1       0.206  -9.471  -6.430 -0.24 -0.01    -0.021    42.250
ATOM     23  C   UNL d   1       0.244  -8.668  -7.589 -0.17 +0.04    +0.066    42.250
ATOM     24  C   UNL d   1       1.385  -9.390  -4.112 -0.32 +0.01    +0.051    42.250
ATOM     25  N   UNL d   1       0.495  -7.083 -10.094 -0.10 -0.24    -0.248    42.250
ATOM     26  N   UNL d   1       2.101  -4.814 -10.160 -0.09 -0.10    -0.248    42.250
ATOM     27  N   UNL d   1       2.840  -5.288  -7.339 -0.19 -0.07    -0.248    42.250
ATOM     28  N   UNL d   1       1.067  -7.626  -7.423 -0.13 -0.13    -0.248    42.250
ATOM     29 FE   UNL d   1       1.736  -6.135  -8.632 -0.05 +0.00    +0.000    42.250
ATOM     30  C   UNL d   1      -1.632  -9.888 -11.459 -0.05 +0.02    +0.052    42.250
ATOM     31  C   UNL d   1      -0.747 -11.020 -11.980 -0.01 +0.02    +0.115    42.250
ATOM     32  C   UNL d   1      -0.831 -12.262 -11.119 -0.01 +0.02    +0.139    42.250
ATOM     33  O   UNL d   1      -0.270 -13.284 -11.483 +0.01 -0.07    -0.650    42.250
ATOM     34  O   UNL d   1      -1.472 -12.266  -9.928 +0.02 -0.13    -0.776    42.250
ATOM     35  H   UNL d   1      -1.031 -12.365  -9.073 +0.02 +0.03    +0.167    42.250
ATOM     36  C   UNL d   1       3.291  -7.360  -9.322 -0.11 +0.05    +0.190    42.250
ATOM     37  O   UNL d   1       3.660  -8.697  -9.501 -0.08 -0.07    -0.399    42.250
ATOM     38  H   UNL d   1       2.973  -9.222  -9.004 +0.06 +0.04    +0.209    42.250
ATOM     39  C   UNL d   1      -0.550 -10.770  -6.219 -0.22 +0.01    +0.052    42.250
ATOM     40  C   UNL d   1       0.384 -11.977  -6.406 -0.16 +0.01    +0.115    42.250
ATOM     41  C   UNL d   1       1.020 -12.069  -7.777 -0.12 +0.02    +0.139    42.250
ATOM     42  O   UNL d   1       1.762 -11.173  -8.153 +0.04 -0.10    -0.650    42.250
ATOM     43  O   UNL d   1       0.860 -13.157  -8.563 +0.02 -0.07    -0.776    42.250
ATOM     44  H   UNL d   1       0.459 -13.109  -9.441 +0.02 +0.02    +0.167    42.250
ATOM     45  C   UNL d   1       3.826  -1.632 -11.060 -0.40 +0.00    +0.004    42.250
ATOM     46  C   UNL d   1       3.433  -0.379 -10.847 -0.55 +0.00    +0.012    42.250
ATOM     47  C   UNL d   1       4.667  -5.223  -4.170 -0.32 +0.00    +0.004    42.250
ATOM     48  C   UNL d   1       4.645  -4.340  -3.168 -0.49 +0.00    +0.012    42.250
TER
ENDMDL
MODEL       10
USER    Run = 10
USER    Cluster Rank = 54
USER    Number of conformations in this cluster = 1
USER  
USER    RMSD from reference structure       = 44.157 A
USER  
USER    Estimated Free Energy of Binding    =   -4.82 kcal/mol  [=(1)+(2)+(3)-(4)]
USER    Estimated Inhibition Constant, Ki   =  290.63 uM (micromolar)  [Temperature = 298.15 K]
USER    
USER    (1) Final Intermolecular Energy     =   -8.40 kcal/mol
USER        vdW + Hbond + desolv Energy     =   -5.41 kcal/mol
USER        Electrostatic Energy            =   -3.00 kcal/mol
USER    (2) Final Total Internal Energy     =   -2.21 kcal/mol
USER    (3) Torsional Free Energy           =   +3.58 kcal/mol
USER    (4) Unbound System's Energy  [=(2)] =   -2.21 kcal/mol
USER    
USER    
USER  
USER    DPF = D:/Protein_go_brrr/autodock/final/1A3N/heme_Co/dock.dpf
USER    NEWDPF move	heme_Co_opt.pdbqt
USER    NEWDPF about	8.781000 34.984000 -0.736000
USER    NEWDPF tran0	9.275325 -9.211150 16.638494
USER    NEWDPF axisangle0	-0.324771 -0.719072 -0.614377 147.675559
USER    NEWDPF quaternion0	-0.311935 -0.690652 -0.590096 0.278358
USER    NEWDPF dihe0	-63.49 127.76 129.23 131.74 140.55 -150.31 77.60 -56.08 20.96 -63.90 -0.25 -2.11 
USER  
USER                              x       y       z    vdW   Elec        q     RMS 
ATOM      1  C   UNL d   1       9.945 -11.171  17.290 -0.02 +0.03    +0.064    44.157
ATOM      2  C   UNL d   1      11.665  -8.109  14.084 -0.10 +0.03    +0.064    44.157
ATOM      3  C   UNL d   1       7.906  -5.238  14.755 -0.09 +0.02    +0.064    44.157
ATOM      4  C   UNL d   1       6.326  -8.158  18.309 -0.10 +0.01    +0.064    44.157
ATOM      5  C   UNL d   1      10.673 -10.563  16.338 -0.03 +0.03    +0.066    44.157
ATOM      6  C   UNL d   1      11.915 -11.071  15.909 -0.06 -0.01    -0.021    44.157
ATOM      7  C   UNL d   1      12.420 -10.167  14.995 -0.08 -0.01    -0.025    44.157
ATOM      8  C   UNL d   1      11.458  -9.155  14.894 -0.06 +0.03    +0.066    44.157
ATOM      9  C   UNL d   1      13.755 -10.238  14.239 -0.10 +0.02    +0.051    44.157
ATOM     10  C   UNL d   1      10.722  -7.036  13.896 -0.11 +0.03    +0.066    44.157
ATOM     11  C   UNL d   1      10.817  -5.984  12.958 -0.16 -0.01    -0.021    44.157
ATOM     12  C   UNL d   1       9.706  -5.164  13.172 -0.18 +0.00    +0.000    44.157
ATOM     13  C   UNL d   1       9.011  -5.780  14.213 -0.12 +0.03    +0.070    44.157
ATOM     14  C   UNL d   1      11.856  -5.846  11.875 -0.15 +0.03    +0.052    44.157
ATOM     15  C   UNL d   1       7.098  -5.709  15.862 -0.03 +0.02    +0.066    44.157
ATOM     16  C   UNL d   1       6.052  -5.026  16.466 -0.21 -0.00    -0.021    44.157
ATOM     17  C   UNL d   1       5.594  -5.863  17.494 -0.27 +0.00    +0.000    44.157
ATOM     18  C   UNL d   1       6.389  -7.002  17.424 -0.12 +0.01    +0.070    44.157
ATOM     19  C   UNL d   1       5.548  -3.658  16.062 -0.24 +0.01    +0.052    44.157
ATOM     20  C   UNL d   1       7.143  -9.238  18.315 -0.04 +0.02    +0.066    44.157
ATOM     21  C   UNL d   1       7.005 -10.270  19.241 -0.06 -0.01    -0.025    44.157
ATOM     22  C   UNL d   1       8.017 -11.168  18.953 -0.05 -0.01    -0.021    44.157
ATOM     23  C   UNL d   1       8.736 -10.628  17.865 -0.02 +0.02    +0.066    44.157
ATOM     24  C   UNL d   1       5.971 -10.387  20.358 -0.15 +0.02    +0.051    44.157
ATOM     25  N   UNL d   1      10.363  -9.378  15.711 -0.03 -0.10    -0.248    44.157
ATOM     26  N   UNL d   1       9.597  -6.941  14.611 -0.07 -0.11    -0.248    44.157
ATOM     27  N   UNL d   1       7.293  -6.862  16.460 -0.05 -0.06    -0.248    44.157
ATOM     28  N   UNL d   1       8.212  -9.459  17.478 -0.01 -0.07    -0.248    44.157
ATOM     29 FE   UNL d   1       8.735  -8.048  16.110 -0.02 +0.00    +0.000    44.157
ATOM     30  C   UNL d   1      12.611 -12.327  16.422 -0.12 +0.03    +0.052    44.157
ATOM     31  C   UNL d   1      12.084 -13.566  15.700 -0.05 +0.08    +0.115    44.157
ATOM     32  C   UNL d   1      12.377 -14.844  16.456 -0.01 +0.18    +0.139    44.157
ATOM     33  O   UNL d   1      13.520 -15.078  16.821 -0.09 -0.82    -0.650    44.157
ATOM     34  O   UNL d   1      11.402 -15.721  16.789 -0.38 -1.67    -0.776    44.157
ATOM     35  H   UNL d   1      10.701 -15.539  17.430 +0.02 +0.32    +0.167    44.157
ATOM     36  C   UNL d   1       9.986  -7.119  17.513 -0.01 +0.06    +0.190    44.157
ATOM     37  O   UNL d   1      11.236  -6.510  17.659 -0.10 -0.20    -0.399    44.157
ATOM     38  H   UNL d   1      11.546  -6.332  16.727 +0.03 +0.11    +0.209    44.157
ATOM     39  C   UNL d   1       8.311 -12.439  19.726 -0.12 +0.02    +0.052    44.157
ATOM     40  C   UNL d   1       7.717 -13.662  19.007 -0.11 +0.06    +0.115    44.157
ATOM     41  C   UNL d   1       8.746 -14.593  18.402 -0.11 +0.10    +0.139    44.157
ATOM     42  O   UNL d   1       9.296 -15.421  19.115 -0.31 -0.77    -0.650    44.157
ATOM     43  O   UNL d   1       9.012 -14.594  17.077 +0.06 -0.61    -0.776    44.157
ATOM     44  H   UNL d   1       9.913 -14.621  16.728 +0.03 +0.16    +0.167    44.157
ATOM     45  C   UNL d   1       9.214  -3.887  12.505 -0.22 +0.00    +0.004    44.157
ATOM     46  C   UNL d   1       8.053  -3.609  11.917 -0.24 +0.01    +0.012    44.157
ATOM     47  C   UNL d   1       4.531  -5.626  18.516 -0.46 +0.00    +0.004    44.157
ATOM     48  C   UNL d   1       3.433  -6.378  18.625 -0.46 +0.00    +0.012    44.157
TER
ENDMDL
MODEL      100
USER    Run = 100
USER    Cluster Rank = 55
USER    Number of conformations in this cluster = 1
USER  
USER    RMSD from reference structure       = 58.657 A
USER  
USER    Estimated Free Energy of Binding    =   -4.74 kcal/mol  [=(1)+(2)+(3)-(4)]
USER    Estimated Inhibition Constant, Ki   =  332.89 uM (micromolar)  [Temperature = 298.15 K]
USER    
USER    (1) Final Intermolecular Energy     =   -8.32 kcal/mol
USER        vdW + Hbond + desolv Energy     =   -6.58 kcal/mol
USER        Electrostatic Energy            =   -1.74 kcal/mol
USER    (2) Final Total Internal Energy     =   -2.27 kcal/mol
USER    (3) Torsional Free Energy           =   +3.58 kcal/mol
USER    (4) Unbound System's Energy  [=(2)] =   -2.27 kcal/mol
USER    
USER    
USER  
USER    DPF = D:/Protein_go_brrr/autodock/final/1A3N/heme_Co/dock.dpf
USER    NEWDPF move	heme_Co_opt.pdbqt
USER    NEWDPF about	8.781000 34.984000 -0.736000
USER    NEWDPF tran0	24.102901 -13.961087 35.742399
USER    NEWDPF axisangle0	-0.874613 -0.126741 0.467962 111.920507
USER    NEWDPF quaternion0	-0.724748 -0.105024 0.387776 0.559768
USER    NEWDPF dihe0	156.55 129.02 9.65 135.87 118.35 131.53 -137.95 131.84 -135.78 106.06 -175.83 22.34 
USER  
USER                              x       y       z    vdW   Elec        q     RMS 
ATOM      1  C   UNL d   1      23.463 -12.832  37.483 -0.07 +0.01    +0.064    58.657
ATOM      2  C   UNL d   1      21.096 -15.587  34.415 -0.29 +0.00    +0.064    58.657
ATOM      3  C   UNL d   1      25.051 -16.125  31.789 -0.17 -0.01    +0.064    58.657
ATOM      4  C   UNL d   1      27.581 -13.633  35.113 -0.10 +0.01    +0.064    58.657
ATOM      5  C   UNL d   1      22.517 -13.515  36.818 -0.11 +0.01    +0.066    58.657
ATOM      6  C   UNL d   1      21.208 -13.658  37.318 -0.14 -0.00    -0.021    58.657
ATOM      7  C   UNL d   1      20.532 -14.477  36.435 -0.21 -0.00    -0.025    58.657
ATOM      8  C   UNL d   1      21.451 -14.786  35.427 -0.19 +0.00    +0.066    58.657
ATOM      9  C   UNL d   1      19.076 -14.960  36.524 -0.17 +0.00    +0.051    58.657
ATOM     10  C   UNL d   1      21.965 -15.939  33.320 -0.15 +0.00    +0.066    58.657
ATOM     11  C   UNL d   1      21.610 -16.659  32.159 -0.30 -0.00    -0.021    58.657
ATOM     12  C   UNL d   1      22.781 -16.798  31.409 -0.27 -0.00    +0.000    58.657
ATOM     13  C   UNL d   1      23.758 -16.144  32.159 -0.15 -0.00    +0.070    58.657
ATOM     14  C   UNL d   1      20.220 -17.091  31.767 -0.37 +0.01    +0.052    58.657
ATOM     15  C   UNL d   1      26.194 -15.545  32.466 -0.14 -0.01    +0.066    58.657
ATOM     16  C   UNL d   1      27.525 -15.687  32.102 -0.19 +0.01    -0.021    58.657
ATOM     17  C   UNL d   1      28.259 -14.972  33.060 -0.17 -0.00    +0.000    58.657
ATOM     18  C   UNL d   1      27.312 -14.435  33.925 -0.10 -0.00    +0.070    58.657
ATOM     19  C   UNL d   1      28.030 -16.466  30.908 -0.21 -0.04    +0.052    58.657
ATOM     20  C   UNL d   1      26.684 -13.173  36.017 -0.09 +0.01    +0.066    58.657
ATOM     21  C   UNL d   1      27.068 -12.443  37.140 -0.10 -0.01    -0.025    58.657
ATOM     22  C   UNL d   1      25.898 -12.173  37.827 -0.07 -0.01    -0.021    58.657
ATOM     23  C   UNL d   1      24.852 -12.767  37.090 -0.06 +0.01    +0.066    58.657
ATOM     24  C   UNL d   1      28.481 -12.038  37.549 -0.09 +0.03    +0.051    58.657
ATOM     25  N   UNL d   1      22.688 -14.199  35.636 -0.08 -0.02    -0.248    58.657
ATOM     26  N   UNL d   1      23.252 -15.577  33.287 -0.08 -0.00    -0.248    58.657
ATOM     27  N   UNL d   1      26.096 -14.822  33.559 -0.07 +0.01    -0.248    58.657
ATOM     28  N   UNL d   1      25.324 -13.375  35.995 -0.04 -0.04    -0.248    58.657
ATOM     29 FE   UNL d   1      24.494 -14.526  34.538 -0.02 +0.00    +0.000    58.657
ATOM     30  C   UNL d   1      20.668 -13.095  38.628 -0.13 +0.00    +0.052    58.657
ATOM     31  C   UNL d   1      20.833 -14.111  39.758 -0.04 +0.01    +0.115    58.657
ATOM     32  C   UNL d   1      22.178 -14.804  39.720 -0.02 +0.01    +0.139    58.657
ATOM     33  O   UNL d   1      23.109 -14.345  40.364 +0.00 -0.05    -0.650    58.657
ATOM     34  O   UNL d   1      22.374 -15.951  39.029 +0.01 -0.03    -0.776    58.657
ATOM     35  H   UNL d   1      23.224 -16.222  38.656 +0.00 +0.01    +0.167    58.657
ATOM     36  C   UNL d   1      24.763 -16.244  35.710 -0.03 -0.00    +0.190    58.657
ATOM     37  O   UNL d   1      24.412 -16.823  36.934 -0.00 -0.00    -0.399    58.657
ATOM     38  H   UNL d   1      23.634 -16.289  37.257 +0.01 +0.01    +0.209    58.657
ATOM     39  C   UNL d   1      25.806 -11.440  39.152 -0.06 +0.02    +0.052    58.657
ATOM     40  C   UNL d   1      24.873 -10.224  39.036 -0.07 +0.06    +0.115    58.657
ATOM     41  C   UNL d   1      25.507  -9.009  38.393 +0.00 +0.16    +0.139    58.657
ATOM     42  O   UNL d   1      26.080  -8.189  39.097 -0.33 -1.06    -0.650    58.657
ATOM     43  O   UNL d   1      25.534  -8.848  37.051 -0.38 -0.95    -0.776    58.657
ATOM     44  H   UNL d   1      24.971  -9.359  36.456 +0.04 +0.11    +0.167    58.657
ATOM     45  C   UNL d   1      23.084 -17.453  30.068 -0.33 -0.00    +0.004    58.657
ATOM     46  C   UNL d   1      23.687 -16.971  28.984 -0.50 -0.00    +0.012    58.657
ATOM     47  C   UNL d   1      29.737 -14.825  33.213 -0.21 -0.00    +0.004    58.657
ATOM     48  C   UNL d   1      30.426 -13.781  32.746 -0.35 -0.00    +0.012    58.657
TER
ENDMDL
MODEL       70
USER    Run = 70
USER    Cluster Rank = 56
USER    Number of conformations in this cluster = 1
USER  
USER    RMSD from reference structure       = 15.243 A
USER  
USER    Estimated Free Energy of Binding    =   -4.65 kcal/mol  [=(1)+(2)+(3)-(4)]
USER    Estimated Inhibition Constant, Ki   =  387.64 uM (micromolar)  [Temperature = 298.15 K]
USER    
USER    (1) Final Intermolecular Energy     =   -8.23 kcal/mol
USER        vdW + Hbond + desolv Energy     =   -6.13 kcal/mol
USER        Electrostatic Energy            =   -2.11 kcal/mol
USER    (2) Final Total Internal Energy     =   -3.33 kcal/mol
USER    (3) Torsional Free Energy           =   +3.58 kcal/mol
USER    (4) Unbound System's Energy  [=(2)] =   -3.33 kcal/mol
USER    
USER    
USER  
USER    DPF = D:/Protein_go_brrr/autodock/final/1A3N/heme_Co/dock.dpf
USER    NEWDPF move	heme_Co_opt.pdbqt
USER    NEWDPF about	8.781000 34.984000 -0.736000
USER    NEWDPF tran0	14.205160 21.018909 12.114273
USER    NEWDPF axisangle0	-0.999357 0.019928 0.029813 -103.068232
USER    NEWDPF quaternion0	-0.782475 0.015603 0.023343 -0.622049
USER    NEWDPF dihe0	87.57 143.28 58.13 115.50 -88.39 85.91 33.81 -33.29 139.89 -163.19 -138.24 168.69 
USER  
USER                              x       y       z    vdW   Elec        q     RMS 
ATOM      1  C   UNL d   1      12.261  20.069  11.928 -0.19 +0.02    +0.064    15.243
ATOM      2  C   UNL d   1      13.596  24.314  13.605 -0.13 +0.01    +0.064    15.243
ATOM      3  C   UNL d   1      18.191  23.143  13.017 -0.03 +0.01    +0.064    15.243
ATOM      4  C   UNL d   1      16.844  18.954  10.942 -0.07 +0.02    +0.064    15.243
ATOM      5  C   UNL d   1      12.289  21.301  12.464 -0.17 +0.02    +0.066    15.243
ATOM      6  C   UNL d   1      11.113  22.031  12.722 -0.26 -0.01    -0.021    15.243
ATOM      7  C   UNL d   1      11.506  23.270  13.187 -0.26 -0.01    -0.025    15.243
ATOM      8  C   UNL d   1      12.905  23.238  13.208 -0.16 +0.01    +0.066    15.243
ATOM      9  C   UNL d   1      10.613  24.450  13.599 -0.47 +0.01    +0.051    15.243
ATOM     10  C   UNL d   1      15.035  24.365  13.685 -0.09 +0.01    +0.066    15.243
ATOM     11  C   UNL d   1      15.813  25.412  14.225 -0.09 -0.00    -0.021    15.243
ATOM     12  C   UNL d   1      17.149  25.042  14.044 -0.06 +0.00    +0.000    15.243
ATOM     13  C   UNL d   1      17.087  23.796  13.420 -0.05 +0.01    +0.070    15.243
ATOM     14  C   UNL d   1      15.294  26.629  14.947 -0.14 -0.00    +0.052    15.243
ATOM     15  C   UNL d   1      18.308  21.880  12.315 -0.03 +0.01    +0.066    15.243
ATOM     16  C   UNL d   1      19.472  21.330  11.798 -0.04 -0.00    -0.021    15.243
ATOM     17  C   UNL d   1      19.089  20.123  11.196 -0.06 +0.00    +0.000    15.243
ATOM     18  C   UNL d   1      17.718  20.023  11.410 -0.04 +0.02    +0.070    15.243
ATOM     19  C   UNL d   1      20.850  21.948  11.889 -0.07 +0.01    +0.052    15.243
ATOM     20  C   UNL d   1      15.497  18.878  11.063 -0.07 +0.02    +0.066    15.243
ATOM     21  C   UNL d   1      14.763  17.816  10.539 -0.11 -0.01    -0.025    15.243
ATOM     22  C   UNL d   1      13.441  18.096  10.834 -0.16 -0.01    -0.021    15.243
ATOM     23  C   UNL d   1      13.433  19.331  11.517 -0.14 +0.02    +0.066    15.243
ATOM     24  C   UNL d   1      15.292  16.604   9.778 -0.12 +0.01    +0.051    15.243
ATOM     25  N   UNL d   1      13.417  22.028  12.771 -0.06 -0.05    -0.248    15.243
ATOM     26  N   UNL d   1      15.809  23.362  13.255 -0.04 -0.04    -0.248    15.243
ATOM     27  N   UNL d   1      17.282  21.101  12.053 -0.01 -0.05    -0.248    15.243
ATOM     28  N   UNL d   1      14.676  19.809  11.656 -0.03 -0.06    -0.248    15.243
ATOM     29 FE   UNL d   1      15.463  21.534  12.389 -0.02 +0.00    +0.000    15.243
ATOM     30  C   UNL d   1       9.682  21.576  12.452 -0.36 +0.01    +0.052    15.243
ATOM     31  C   UNL d   1       9.522  21.145  10.994 -0.32 +0.05    +0.115    15.243
ATOM     32  C   UNL d   1      10.228  22.080  10.035 -0.27 +0.10    +0.139    15.243
ATOM     33  O   UNL d   1       9.596  22.976   9.496 -0.60 -0.61    -0.650    15.243
ATOM     34  O   UNL d   1      11.555  21.986   9.788 -0.01 -0.51    -0.776    15.243
ATOM     35  H   UNL d   1      11.948  21.376   9.149 +0.03 +0.15    +0.167    15.243
ATOM     36  C   UNL d   1      15.223  22.463  10.526 -0.02 +0.04    +0.190    15.243
ATOM     37  O   UNL d   1      14.581  22.333   9.290 -0.02 -0.13    -0.399    15.243
ATOM     38  H   UNL d   1      13.737  21.840   9.491 +0.04 +0.09    +0.209    15.243
ATOM     39  C   UNL d   1      12.250  17.252  10.421 -0.25 +0.02    +0.052    15.243
ATOM     40  C   UNL d   1      11.716  17.701   9.050 -0.22 +0.09    +0.115    15.243
ATOM     41  C   UNL d   1      12.622  18.663   8.311 -0.04 +0.17    +0.139    15.243
ATOM     42  O   UNL d   1      13.282  18.256   7.365 -0.41 -0.76    -0.650    15.243
ATOM     43  O   UNL d   1      12.657  19.979   8.612 -0.07 -0.90    -0.776    15.243
ATOM     44  H   UNL d   1      12.963  20.309   9.467 +0.05 +0.11    +0.167    15.243
ATOM     45  C   UNL d   1      18.469  25.711  14.403 -0.04 +0.00    +0.004    15.243
ATOM     46  C   UNL d   1      19.360  25.418  15.347 -0.05 +0.00    +0.012    15.243
ATOM     47  C   UNL d   1      19.906  19.138  10.427 -0.14 +0.00    +0.004    15.243
ATOM     48  C   UNL d   1      19.786  18.948   9.111 -0.24 +0.00    +0.012    15.243
TER
ENDMDL
MODEL        4
USER    Run = 4
USER    Cluster Rank = 57
USER    Number of conformations in this cluster = 1
USER  
USER    RMSD from reference structure       = 57.190 A
USER  
USER    Estimated Free Energy of Binding    =   -4.26 kcal/mol  [=(1)+(2)+(3)-(4)]
USER    Estimated Inhibition Constant, Ki   =  758.69 uM (micromolar)  [Temperature = 298.15 K]
USER    
USER    (1) Final Intermolecular Energy     =   -7.84 kcal/mol
USER        vdW + Hbond + desolv Energy     =   -4.89 kcal/mol
USER        Electrostatic Energy            =   -2.95 kcal/mol
USER    (2) Final Total Internal Energy     =   -2.25 kcal/mol
USER    (3) Torsional Free Energy           =   +3.58 kcal/mol
USER    (4) Unbound System's Energy  [=(2)] =   -2.25 kcal/mol
USER    
USER    
USER  
USER    DPF = D:/Protein_go_brrr/autodock/final/1A3N/heme_Co/dock.dpf
USER    NEWDPF move	heme_Co_opt.pdbqt
USER    NEWDPF about	8.781000 34.984000 -0.736000
USER    NEWDPF tran0	10.430082 -20.094807 25.261018
USER    NEWDPF axisangle0	0.497740 -0.356713 0.790576 -137.848893
USER    NEWDPF quaternion0	0.464445 -0.332852 0.737692 -0.359599
USER    NEWDPF dihe0	35.16 108.57 180.00 125.84 132.99 132.76 -28.87 65.98 33.19 -72.29 40.91 17.66 
USER  
USER                              x       y       z    vdW   Elec        q     RMS 
ATOM      1  C   UNL d   1      10.232 -20.081  23.099 -0.11 +0.02    +0.064    57.190
ATOM      2  C   UNL d   1      13.741 -21.502  25.976 -0.20 +0.01    +0.064    57.190
ATOM      3  C   UNL d   1      11.329 -19.890  29.774 -0.13 +0.00    +0.064    57.190
ATOM      4  C   UNL d   1       7.566 -18.781  26.897 -0.07 +0.02    +0.064    57.190
ATOM      5  C   UNL d   1      11.383 -20.555  23.602 -0.13 +0.02    +0.066    57.190
ATOM      6  C   UNL d   1      12.348 -21.189  22.795 -0.15 -0.01    -0.021    57.190
ATOM      7  C   UNL d   1      13.353 -21.619  23.638 -0.19 -0.01    -0.025    57.190
ATOM      8  C   UNL d   1      12.968 -21.215  24.921 -0.16 +0.01    +0.066    57.190
ATOM      9  C   UNL d   1      14.633 -22.384  23.266 -0.22 +0.01    +0.051    57.190
ATOM     10  C   UNL d   1      13.439 -21.104  27.329 -0.14 +0.01    +0.066    57.190
ATOM     11  C   UNL d   1      14.275 -21.250  28.458 -0.14 -0.00    -0.021    57.190
ATOM     12  C   UNL d   1      13.549 -20.769  29.550 -0.10 -0.00    +0.000    57.190
ATOM     13  C   UNL d   1      12.332 -20.354  29.007 -0.12 +0.00    +0.070    57.190
ATOM     14  C   UNL d   1      15.703 -21.731  28.453 -0.16 -0.00    +0.052    57.190
ATOM     15  C   UNL d   1       9.996 -19.470  29.388 -0.05 +0.03    +0.066    57.190
ATOM     16  C   UNL d   1       8.958 -19.138  30.247 -0.09 -0.01    -0.021    57.190
ATOM     17  C   UNL d   1       7.869 -18.820  29.422 -0.08 +0.00    +0.000    57.190
ATOM     18  C   UNL d   1       8.337 -18.967  28.120 -0.08 +0.04    +0.070    57.190
ATOM     19  C   UNL d   1       9.034 -19.137  31.757 -0.10 -0.00    +0.052    57.190
ATOM     20  C   UNL d   1       7.974 -19.002  25.624 -0.08 +0.02    +0.066    57.190
ATOM     21  C   UNL d   1       7.129 -18.822  24.531 -0.06 -0.01    -0.025    57.190
ATOM     22  C   UNL d   1       7.879 -19.162  23.420 -0.08 -0.01    -0.021    57.190
ATOM     23  C   UNL d   1       9.151 -19.546  23.895 -0.09 +0.02    +0.066    57.190
ATOM     24  C   UNL d   1       5.672 -18.369  24.545 -0.10 +0.01    +0.051    57.190
ATOM     25  N   UNL d   1      11.754 -20.548  24.928 -0.07 -0.06    -0.248    57.190
ATOM     26  N   UNL d   1      12.289 -20.505  27.657 -0.07 -0.04    -0.248    57.190
ATOM     27  N   UNL d   1       9.598 -19.384  28.139 -0.04 -0.13    -0.248    57.190
ATOM     28  N   UNL d   1       9.212 -19.453  25.229 -0.06 -0.08    -0.248    57.190
ATOM     29 FE   UNL d   1      10.610 -19.930  26.626 -0.03 +0.00    +0.000    57.190
ATOM     30  C   UNL d   1      12.255 -21.437  21.293 -0.13 +0.02    +0.052    57.190
ATOM     31  C   UNL d   1      13.474 -20.856  20.577 -0.12 +0.07    +0.115    57.190
ATOM     32  C   UNL d   1      13.150 -20.383  19.176 +0.12 +0.16    +0.139    57.190
ATOM     33  O   UNL d   1      14.049 -20.270  18.357 -0.15 -0.63    -0.650    57.190
ATOM     34  O   UNL d   1      11.882 -20.123  18.782 -0.40 -1.25    -0.776    57.190
ATOM     35  H   UNL d   1      11.185 -19.798  19.370 +0.01 +0.27    +0.167    57.190
ATOM     36  C   UNL d   1       9.886 -21.896  26.712 -0.01 +0.03    +0.190    57.190
ATOM     37  O   UNL d   1       9.696 -23.048  25.943 +0.00 -0.04    -0.399    57.190
ATOM     38  H   UNL d   1       9.967 -22.786  25.019 +0.01 +0.03    +0.209    57.190
ATOM     39  C   UNL d   1       7.375 -19.177  21.989 -0.09 +0.02    +0.052    57.190
ATOM     40  C   UNL d   1       8.173 -18.189  21.122 -0.12 +0.07    +0.115    57.190
ATOM     41  C   UNL d   1       9.219 -18.837  20.239 -0.15 +0.13    +0.139    57.190
ATOM     42  O   UNL d   1      10.177 -18.176  19.863 -0.22 -1.34    -0.650    57.190
ATOM     43  O   UNL d   1       9.169 -20.150  19.926 +0.03 -0.47    -0.776    57.190
ATOM     44  H   UNL d   1       9.875 -20.596  19.440 +0.02 +0.11    +0.167    57.190
ATOM     45  C   UNL d   1      13.869 -20.636  31.033 -0.19 -0.00    +0.004    57.190
ATOM     46  C   UNL d   1      13.959 -19.558  31.806 -0.29 -0.01    +0.012    57.190
ATOM     47  C   UNL d   1       6.469 -18.452  29.789 -0.05 +0.00    +0.004    57.190
ATOM     48  C   UNL d   1       5.954 -17.235  29.603 -0.06 +0.00    +0.012    57.190
TER
ENDMDL
MODEL       29
USER    Run = 29
USER    Cluster Rank = 58
USER    Number of conformations in this cluster = 1
USER  
USER    RMSD from reference structure       = 57.740 A
USER  
USER    Estimated Free Energy of Binding    =   -3.47 kcal/mol  [=(1)+(2)+(3)-(4)]
USER    Estimated Inhibition Constant, Ki   =    2.85 mM (millimolar)  [Temperature = 298.15 K]
USER    
USER    (1) Final Intermolecular Energy     =   -7.05 kcal/mol
USER        vdW + Hbond + desolv Energy     =   -5.84 kcal/mol
USER        Electrostatic Energy            =   -1.21 kcal/mol
USER    (2) Final Total Internal Energy     =   -3.73 kcal/mol
USER    (3) Torsional Free Energy           =   +3.58 kcal/mol
USER    (4) Unbound System's Energy  [=(2)] =   -3.73 kcal/mol
USER    
USER    
USER  
USER    DPF = D:/Protein_go_brrr/autodock/final/1A3N/heme_Co/dock.dpf
USER    NEWDPF move	heme_Co_opt.pdbqt
USER    NEWDPF about	8.781000 34.984000 -0.736000
USER    NEWDPF tran0	17.231347 -23.424821 17.186721
USER    NEWDPF axisangle0	0.809711 -0.491234 -0.321025 138.135407
USER    NEWDPF quaternion0	0.756273 -0.458814 -0.299838 0.357265
USER    NEWDPF dihe0	52.24 82.96 -132.60 99.25 134.87 120.29 36.57 116.58 170.25 135.47 -164.49 -180.00 
USER  
USER                              x       y       z    vdW   Elec        q     RMS 
ATOM      1  C   UNL d   1      16.113 -23.351  19.046 -0.17 +0.00    +0.064    57.740
ATOM      2  C   UNL d   1      18.562 -20.048  16.658 -0.30 +0.00    +0.064    57.740
ATOM      3  C   UNL d   1      20.004 -23.340  13.510 -0.01 -0.05    +0.064    57.740
ATOM      4  C   UNL d   1      17.200 -26.652  15.708 -0.04 -0.01    +0.064    57.740
ATOM      5  C   UNL d   1      16.705 -22.214  18.646 -0.20 +0.00    +0.066    57.740
ATOM      6  C   UNL d   1      16.468 -20.982  19.286 -0.37 -0.01    -0.021    57.740
ATOM      7  C   UNL d   1      17.163 -20.024  18.575 -0.39 -0.01    -0.025    57.740
ATOM      8  C   UNL d   1      17.807 -20.713  17.542 -0.27 +0.01    +0.066    57.740
ATOM      9  C   UNL d   1      17.227 -18.512  18.845 -0.32 +0.03    +0.051    57.740
ATOM     10  C   UNL d   1      19.283 -20.676  15.579 -0.24 -0.01    +0.066    57.740
ATOM     11  C   UNL d   1      20.201 -20.055  14.705 -0.28 +0.00    -0.021    57.740
ATOM     12  C   UNL d   1      20.609 -21.038  13.800 -0.32 -0.00    +0.000    57.740
ATOM     13  C   UNL d   1      19.922 -22.186  14.195 -0.14 -0.04    +0.070    57.740
ATOM     14  C   UNL d   1      20.713 -18.641  14.806 -0.33 +0.00    +0.052    57.740
ATOM     15  C   UNL d   1      19.326 -24.600  13.745 -0.11 -0.04    +0.066    57.740
ATOM     16  C   UNL d   1      19.342 -25.711  12.914 -0.07 +0.01    -0.021    57.740
ATOM     17  C   UNL d   1      18.533 -26.668  13.543 -0.04 -0.00    +0.000    57.740
ATOM     18  C   UNL d   1      18.099 -26.069  14.720 -0.06 -0.02    +0.070    57.740
ATOM     19  C   UNL d   1      20.095 -25.817  11.606 -0.06 -0.01    +0.052    57.740
ATOM     20  C   UNL d   1      16.696 -26.058  16.816 -0.05 -0.01    +0.066    57.740
ATOM     21  C   UNL d   1      15.811 -26.710  17.672 -0.03 +0.00    -0.025    57.740
ATOM     22  C   UNL d   1      15.503 -25.793  18.660 -0.04 +0.00    -0.021    57.740
ATOM     23  C   UNL d   1      16.211 -24.613  18.348 -0.10 -0.00    +0.066    57.740
ATOM     24  C   UNL d   1      15.269 -28.132  17.545 -0.01 -0.00    +0.051    57.740
ATOM     25  N   UNL d   1      17.546 -22.073  17.566 -0.07 +0.02    -0.248    57.740
ATOM     26  N   UNL d   1      19.164 -21.979  15.305 -0.17 +0.08    -0.248    57.740
ATOM     27  N   UNL d   1      18.566 -24.827  14.793 -0.10 +0.09    -0.248    57.740
ATOM     28  N   UNL d   1      16.933 -24.769  17.232 -0.07 +0.04    -0.248    57.740
ATOM     29 FE   UNL d   1      18.085 -23.534  16.099 -0.04 -0.00    +0.000    57.740
ATOM     30  C   UNL d   1      15.546 -20.738  20.477 -0.26 +0.03    +0.052    57.740
ATOM     31  C   UNL d   1      14.092 -20.639  20.019 -0.13 +0.08    +0.115    57.740
ATOM     32  C   UNL d   1      13.966 -20.524  18.515 -0.12 +0.12    +0.139    57.740
ATOM     33  O   UNL d   1      13.909 -19.417  18.000 -0.18 -1.02    -0.650    57.740
ATOM     34  O   UNL d   1      13.964 -21.611  17.709 +0.05 -0.36    -0.776    57.740
ATOM     35  H   UNL d   1      13.422 -22.398  17.860 +0.02 +0.06    +0.167    57.740
ATOM     36  C   UNL d   1      16.398 -22.911  15.022 -0.03 +0.00    +0.190    57.740
ATOM     37  O   UNL d   1      15.089 -22.440  15.175 +0.01 -0.06    -0.399    57.740
ATOM     38  H   UNL d   1      14.767 -22.851  16.025 +0.02 +0.03    +0.209    57.740
ATOM     39  C   UNL d   1      14.529 -26.022  19.800 -0.03 +0.00    +0.052    57.740
ATOM     40  C   UNL d   1      13.078 -25.867  19.315 -0.00 +0.01    +0.115    57.740
ATOM     41  C   UNL d   1      12.812 -24.596  18.536 -0.00 +0.02    +0.139    57.740
ATOM     42  O   UNL d   1      12.197 -23.685  19.071 +0.02 -0.14    -0.650    57.740
ATOM     43  O   UNL d   1      13.311 -24.407  17.295 +0.02 -0.10    -0.776    57.740
ATOM     44  H   UNL d   1      13.834 -23.629  17.058 +0.01 +0.03    +0.167    57.740
ATOM     45  C   UNL d   1      21.578 -21.031  12.625 -0.31 -0.00    +0.004    57.740
ATOM     46  C   UNL d   1      22.881 -21.297  12.575 -0.53 -0.00    +0.012    57.740
ATOM     47  C   UNL d   1      18.133 -28.031  13.081 -0.01 -0.00    +0.004    57.740
ATOM     48  C   UNL d   1      18.525 -29.157  13.681 -0.01 -0.00    +0.012    57.740
TER
ENDMDL
MODEL       91
USER    Run = 91
USER    Cluster Rank = 59
USER    Number of conformations in this cluster = 1
USER  
USER    RMSD from reference structure       = 42.230 A
USER  
USER    Estimated Free Energy of Binding    =   -3.31 kcal/mol  [=(1)+(2)+(3)-(4)]
USER    Estimated Inhibition Constant, Ki   =    3.72 mM (millimolar)  [Temperature = 298.15 K]
USER    
USER    (1) Final Intermolecular Energy     =   -6.89 kcal/mol
USER        vdW + Hbond + desolv Energy     =   -6.64 kcal/mol
USER        Electrostatic Energy            =   -0.26 kcal/mol
USER    (2) Final Total Internal Energy     =   -3.18 kcal/mol
USER    (3) Torsional Free Energy           =   +3.58 kcal/mol
USER    (4) Unbound System's Energy  [=(2)] =   -3.18 kcal/mol
USER    
USER    
USER  
USER    DPF = D:/Protein_go_brrr/autodock/final/1A3N/heme_Co/dock.dpf
USER    NEWDPF move	heme_Co_opt.pdbqt
USER    NEWDPF about	8.781000 34.984000 -0.736000
USER    NEWDPF tran0	14.565874 -8.495148 8.320066
USER    NEWDPF axisangle0	-0.290355 -0.110867 -0.950475 -129.611504
USER    NEWDPF quaternion0	-0.262734 -0.100320 -0.860056 -0.425688
USER    NEWDPF dihe0	114.31 89.65 -46.87 81.74 -51.88 105.37 -167.17 -13.10 -105.17 177.90 -177.66 178.72 
USER  
USER                              x       y       z    vdW   Elec        q     RMS 
ATOM      1  C   UNL d   1      15.613  -7.825   6.539 -0.13 +0.01    +0.064    42.230
ATOM      2  C   UNL d   1      14.265  -5.558  10.496 -0.09 +0.02    +0.064    42.230
ATOM      3  C   UNL d   1      12.025  -9.490  12.031 -0.03 +0.02    +0.064    42.230
ATOM      4  C   UNL d   1      13.714 -11.939   8.182 -0.24 +0.02    +0.064    42.230
ATOM      5  C   UNL d   1      15.378  -6.906   7.491 -0.14 +0.01    +0.066    42.230
ATOM      6  C   UNL d   1      15.940  -5.616   7.438 -0.18 -0.00    -0.021    42.230
ATOM      7  C   UNL d   1      15.564  -4.970   8.599 -0.11 -0.00    -0.025    42.230
ATOM      8  C   UNL d   1      14.777  -5.887   9.303 -0.09 +0.02    +0.066    42.230
ATOM      9  C   UNL d   1      15.926  -3.545   9.045 -0.14 -0.00    +0.051    42.230
ATOM     10  C   UNL d   1      13.422  -6.426  11.280 -0.10 +0.03    +0.066    42.230
ATOM     11  C   UNL d   1      12.740  -6.091  12.470 -0.09 -0.01    -0.021    42.230
ATOM     12  C   UNL d   1      12.092  -7.254  12.894 -0.13 +0.00    +0.000    42.230
ATOM     13  C   UNL d   1      12.415  -8.207  11.927 -0.11 +0.03    +0.070    42.230
ATOM     14  C   UNL d   1      12.650  -4.720  13.090 -0.04 +0.02    +0.052    42.230
ATOM     15  C   UNL d   1      12.310 -10.611  11.157 -0.11 +0.03    +0.066    42.230
ATOM     16  C   UNL d   1      11.999 -11.942  11.397 -0.16 -0.01    -0.021    42.230
ATOM     17  C   UNL d   1      12.486 -12.653  10.291 -0.21 +0.00    +0.000    42.230
ATOM     18  C   UNL d   1      13.044 -11.693   9.452 -0.18 +0.03    +0.070    42.230
ATOM     19  C   UNL d   1      11.281 -12.467  12.620 -0.15 +0.03    +0.052    42.230
ATOM     20  C   UNL d   1      14.339 -11.034   7.391 -0.21 +0.01    +0.066    42.230
ATOM     21  C   UNL d   1      14.981 -11.397   6.209 -0.27 +0.00    -0.025    42.230
ATOM     22  C   UNL d   1      15.512 -10.226   5.698 -0.30 -0.00    -0.021    42.230
ATOM     23  C   UNL d   1      15.177  -9.201   6.608 -0.19 +0.01    +0.066    42.230
ATOM     24  C   UNL d   1      15.099 -12.793   5.604 -0.38 -0.01    +0.051    42.230
ATOM     25  N   UNL d   1      14.639  -7.093   8.637 -0.06 -0.09    -0.248    42.230
ATOM     26  N   UNL d   1      13.172  -7.690  10.923 -0.10 -0.12    -0.248    42.230
ATOM     27  N   UNL d   1      12.948 -10.493  10.014 -0.11 -0.10    -0.248    42.230
ATOM     28  N   UNL d   1      14.469  -9.686   7.635 -0.08 -0.06    -0.248    42.230
ATOM     29 FE   UNL d   1      13.744  -8.896   9.363 -0.03 +0.00    +0.000    42.230
ATOM     30  C   UNL d   1      16.863  -5.069   6.354 +0.04 +0.00    +0.052    42.230
ATOM     31  C   UNL d   1      18.327  -5.269   6.743 -0.39 -0.00    +0.115    42.230
ATOM     32  C   UNL d   1      18.761  -6.715   6.638 -0.41 +0.01    +0.139    42.230
ATOM     33  O   UNL d   1      18.753  -7.267   5.548 -0.47 -0.08    -0.650    42.230
ATOM     34  O   UNL d   1      19.206  -7.411   7.710 +0.02 -0.01    -0.776    42.230
ATOM     35  H   UNL d   1      18.719  -8.133   8.130 +0.06 +0.01    +0.167    42.230
ATOM     36  C   UNL d   1      15.565  -9.278  10.329 -0.01 +0.04    +0.190    42.230
ATOM     37  O   UNL d   1      16.948  -9.325  10.122 +0.01 -0.06    -0.399    42.230
ATOM     38  H   UNL d   1      17.055  -9.478   9.142 +0.04 +0.03    +0.209    42.230
ATOM     39  C   UNL d   1      16.352 -10.117   4.439 -0.41 -0.00    +0.052    42.230
ATOM     40  C   UNL d   1      17.806 -10.532   4.719 -0.34 -0.00    +0.115    42.230
ATOM     41  C   UNL d   1      18.118 -10.770   6.182 -0.17 +0.00    +0.139    42.230
ATOM     42  O   UNL d   1      18.597 -11.842   6.525 +0.06 -0.04    -0.650    42.230
ATOM     43  O   UNL d   1      17.962  -9.799   7.108 +0.10 -0.05    -0.776    42.230
ATOM     44  H   UNL d   1      18.207  -8.879   6.942 +0.07 +0.01    +0.167    42.230
ATOM     45  C   UNL d   1      11.195  -7.568  14.083 -0.12 +0.00    +0.004    42.230
ATOM     46  C   UNL d   1       9.932  -7.229  14.329 -0.14 +0.01    +0.012    42.230
ATOM     47  C   UNL d   1      12.494 -14.123  10.030 -0.23 +0.00    +0.004    42.230
ATOM     48  C   UNL d   1      13.308 -14.978  10.653 -0.18 +0.01    +0.012    42.230
TER
ENDMDL


AVSFLD: # AVS field file
AVSFLD: #
AVSFLD: # Created by AutoDock
AVSFLD: #
AVSFLD: ndim=2           # number of dimensions in the field
AVSFLD: nspace=1         # number of physical coordinates
AVSFLD: veclen=7         # vector size
AVSFLD: dim1=48          # atoms
AVSFLD: dim2=59          # conformations
AVSFLD: data=Real       # data type (byte,integer,Real,double)
AVSFLD: field=uniform    # field coordinate layout
AVSFLD: label= x y z vdW Elec q RMS
AVSFLD: variable 1 file = D:/Protein_go_brrr/autodock/final/1A3N/heme_Co/dock.dlg.pdb filetype = ascii offset = 5 stride = 12
AVSFLD: variable 2 file = D:/Protein_go_brrr/autodock/final/1A3N/heme_Co/dock.dlg.pdb filetype = ascii offset = 6 stride = 12
AVSFLD: variable 3 file = D:/Protein_go_brrr/autodock/final/1A3N/heme_Co/dock.dlg.pdb filetype = ascii offset = 7 stride = 12
AVSFLD: variable 4 file = D:/Protein_go_brrr/autodock/final/1A3N/heme_Co/dock.dlg.pdb filetype = ascii offset = 8 stride = 12
AVSFLD: variable 5 file = D:/Protein_go_brrr/autodock/final/1A3N/heme_Co/dock.dlg.pdb filetype = ascii offset = 9 stride = 12
AVSFLD: variable 6 file = D:/Protein_go_brrr/autodock/final/1A3N/heme_Co/dock.dlg.pdb filetype = ascii offset = 10 stride = 12
AVSFLD: variable 7 file = D:/Protein_go_brrr/autodock/final/1A3N/heme_Co/dock.dlg.pdb filetype = ascii offset = 11 stride = 12
AVSFLD: # end of file

>>> Closing the docking parameter file (DPF)...
This docking finished at:			5:57 49" a.m., 10/16/2025


________________________________________________________________________________

D:/autodockScripts/autodock4.exe: Successful Completion on "ACER"

Real= 12h 53m 54.09s,  CPU= 53.69s,  System= 1m 15.84s
________________________________________________________________________________

