          AutoDock 4.2 Release 4.2.6   
         (C) 1989-2012 The Scripps Research Institute
        AutoDock comes with ABSOLUTELY NO WARRANTY.
        AutoDock is free software, and you are welcome
        to redistribute it under certain conditions;
        for details type 'autodock4 -C'

                     main.cc  $Revision: 1.213 $

                   Compiled on Jul 18 2014 at 15:34:58


This file was created at:			11:40 07" a.m., 01/15/2026
                   on host:		"ACER"
Current Working Directory = "D:\Protein_go_brrr\autodock\final\AncMH_nat\heme_O2"

      ________________________________________________________________

                   SETTING UP DEFAULT PARAMETER LIBRARY
      ________________________________________________________________


Random number generator was seeded with values 21212, 1768473607.
Docking parameter file (DPF) used for this docking:		D:/Protein_go_brrr/autodock/final/AncMH_nat/heme_O2/dock.dpf
DPF> autodock_parameter_version 4.2       # used by autodock to validate parameter set

	Autodock parameter version 4.2.
DPF> outlev 1                             # diagnostic output level

Output Level = 1  ADT-COMPATIBLE OUTPUT DURING DOCKING.
DPF> intelec                              # calculate internal electrostatics

Electrostatic energies will be calculated for all non-bonds between moving atoms.
DPF> seed pid time                        # seeds for random generator

Random number generator was seeded with values 21212, 1768473607.
DPF> ligand_types A C OA N Fe HD          # atoms types in ligand

DPF> fld opt_AncMH_nat.maps.fld           # grid_data_file

Opening Grid Map Dimensions file:		opt_AncMH_nat.maps.fld
Grid Point Spacing =				0.642 Angstroms

Even Number of User-specified Grid Points =	126 x-points
						126 y-points
						126 z-points

Coordinates of Central Grid Point of Maps =	(-1.644, 0.366, 1.789)
Macromolecule file used to create Grid Maps =	opt_AncMH_nat.pdbqt
Grid Parameter file used to create Grid Maps =	D:/Protein_go_brrr/autodock/final/AncMH_nat/heme_O2/grid.gpf
Minimum coordinates in grid = (-42.090, -40.080, -38.657)
Maximum coordinates in grid = (38.802, 40.812, 42.235)

DPF> map opt_AncMH_nat.A.map              # atom-specific affinity map

DPF> map opt_AncMH_nat.C.map              # atom-specific affinity map

DPF> map opt_AncMH_nat.OA.map             # atom-specific affinity map

DPF> map opt_AncMH_nat.N.map              # atom-specific affinity map

DPF> map opt_AncMH_nat.Fe.map             # atom-specific affinity map

DPF> map opt_AncMH_nat.HD.map             # atom-specific affinity map

DPF> elecmap opt_AncMH_nat.e.map          # electrostatics map

DPF> desolvmap opt_AncMH_nat.d.map        # desolvation map

DPF> move heme_O2_opt.pdbqt               # small molecule

1,4-interactions will be _ignored_ in the non-bonded internal energy calculation.

Ligand PDBQT file = "heme_O2_opt.pdbqt"

INPUT LIGAND PDBQT FILE:
________________________

INPUT-LIGAND-PDBQT: REMARK  10 active torsions:
INPUT-LIGAND-PDBQT: REMARK  status: ('A' for Active; 'I' for Inactive)
INPUT-LIGAND-PDBQT: REMARK    1  A    between atoms: C_6  and  C_10 
INPUT-LIGAND-PDBQT: REMARK    2  A    between atoms: C_10  and  C_11 
INPUT-LIGAND-PDBQT: REMARK    3  A    between atoms: C_11  and  C_12 
INPUT-LIGAND-PDBQT: REMARK    4  A    between atoms: C_12  and  O_14 
INPUT-LIGAND-PDBQT: REMARK    5  A    between atoms: C_17  and  C_20 
INPUT-LIGAND-PDBQT: REMARK    6  A    between atoms: C_24  and  C_27 
INPUT-LIGAND-PDBQT: REMARK    7  A    between atoms: C_31  and  C_34 
INPUT-LIGAND-PDBQT: REMARK    8  A    between atoms: C_34  and  C_35 
INPUT-LIGAND-PDBQT: REMARK    9  A    between atoms: C_35  and  C_36 
INPUT-LIGAND-PDBQT: REMARK   10  A    between atoms: C_36  and  O_38 
INPUT-LIGAND-PDBQT: ROOT
INPUT-LIGAND-PDBQT: ATOM      1  C   UNL d   1       6.417  35.070  -1.470  0.00  0.00     0.064 A 
INPUT-LIGAND-PDBQT: ATOM      2  C   UNL d   1       7.592  32.343   2.237  0.00  0.00     0.064 A 
INPUT-LIGAND-PDBQT: ATOM      3  C   UNL d   1      12.269  32.904   1.285  0.00  0.00     0.064 C 
INPUT-LIGAND-PDBQT: ATOM      4  C   UNL d   1      11.084  36.099  -2.244  0.00  0.00     0.064 A 
INPUT-LIGAND-PDBQT: ATOM      5  C   UNL d   1       6.355  34.284  -0.383  0.00  0.00     0.066 A 
INPUT-LIGAND-PDBQT: ATOM      6  C   UNL d   1       5.162  33.858   0.208  0.00  0.00    -0.021 A 
INPUT-LIGAND-PDBQT: ATOM      7  C   UNL d   1       5.501  33.104   1.307  0.00  0.00    -0.025 A 
INPUT-LIGAND-PDBQT: ATOM      8  C   UNL d   1       6.892  33.050   1.329  0.00  0.00     0.066 A 
INPUT-LIGAND-PDBQT: ATOM      9  C   UNL d   1       4.513  32.505   2.284  0.00  0.00     0.051 C 
INPUT-LIGAND-PDBQT: ATOM     10  C   UNL d   1       9.050  32.230   2.297  0.00  0.00     0.066 A 
INPUT-LIGAND-PDBQT: ATOM     11  C   UNL d   1       9.719  31.353   3.158  0.00  0.00    -0.021 A 
INPUT-LIGAND-PDBQT: ATOM     12  C   UNL d   1      11.068  31.487   2.886  0.00  0.00     0.000 A 
INPUT-LIGAND-PDBQT: ATOM     13  C   UNL d   1      11.148  32.469   1.860  0.00  0.00     0.070 A 
INPUT-LIGAND-PDBQT: ATOM     14  C   UNL d   1       9.096  30.407   4.178  0.00  0.00     0.052 C 
INPUT-LIGAND-PDBQT: ATOM     15  C   UNL d   1      12.395  33.921   0.269  0.00  0.00     0.066 A 
INPUT-LIGAND-PDBQT: ATOM     16  C   UNL d   1      13.607  34.449  -0.175  0.00  0.00    -0.021 A 
INPUT-LIGAND-PDBQT: ATOM     17  C   UNL d   1      13.294  35.363  -1.181  0.00  0.00     0.000 A 
INPUT-LIGAND-PDBQT: ATOM     18  C   UNL d   1      11.896  35.322  -1.278  0.00  0.00     0.070 A 
INPUT-LIGAND-PDBQT: ATOM     19  C   UNL d   1      14.937  34.079   0.432  0.00  0.00     0.052 C 
INPUT-LIGAND-PDBQT: ATOM     20  C   UNL d   1       9.740  36.116  -2.335  0.00  0.00     0.066 A 
INPUT-LIGAND-PDBQT: ATOM     21  C   UNL d   1       9.031  36.855  -3.278  0.00  0.00    -0.025 A 
INPUT-LIGAND-PDBQT: ATOM     22  C   UNL d   1       7.701  36.553  -3.090  0.00  0.00    -0.021 A 
INPUT-LIGAND-PDBQT: ATOM     23  C   UNL d   1       7.646  35.651  -2.023  0.00  0.00     0.066 A 
INPUT-LIGAND-PDBQT: ATOM     24  C   UNL d   1       9.594  37.804  -4.304  0.00  0.00     0.051 C 
INPUT-LIGAND-PDBQT: ATOM     25  N   UNL d   1       7.418  33.831   0.326  0.00  0.00    -0.248 N 
INPUT-LIGAND-PDBQT: ATOM     26  N   UNL d   1       9.916  32.919   1.511  0.00  0.00    -0.248 N 
INPUT-LIGAND-PDBQT: ATOM     27  N   UNL d   1      11.363  34.498  -0.340  0.00  0.00    -0.248 N 
INPUT-LIGAND-PDBQT: ATOM     28  N   UNL d   1       8.884  35.423  -1.538  0.00  0.00    -0.248 N 
INPUT-LIGAND-PDBQT: ATOM     29 FE   UNL d   1       9.399  34.181  -0.025  0.00  0.00     0.000 Fe
INPUT-LIGAND-PDBQT: ATOM     30  O   UNL d   1       8.866  34.841   1.280  0.00  0.00     0.000 OA
INPUT-LIGAND-PDBQT: ATOM     31  O   UNL d   1       9.881  35.626   0.366  0.00  0.00     0.000 OA
INPUT-LIGAND-PDBQT: ENDROOT
INPUT-LIGAND-PDBQT: BRANCH   6  32
INPUT-LIGAND-PDBQT: ATOM     32  C   UNL d   1       3.756  34.255  -0.161  0.00  0.00     0.052 C 
INPUT-LIGAND-PDBQT: BRANCH  32  33
INPUT-LIGAND-PDBQT: ATOM     33  C   UNL d   1       3.190  33.429  -1.312  0.00  0.00     0.115 C 
INPUT-LIGAND-PDBQT: BRANCH  33  34
INPUT-LIGAND-PDBQT: ATOM     34  C   UNL d   1       1.764  33.798  -1.638  0.00  0.00     0.139 C 
INPUT-LIGAND-PDBQT: ATOM     35  O   UNL d   1       1.015  32.956  -2.107  0.00  0.00    -0.650 OA
INPUT-LIGAND-PDBQT: BRANCH  34  36
INPUT-LIGAND-PDBQT: ATOM     36  O   UNL d   1       1.301  35.051  -1.449  0.00  0.00    -0.776 OA
INPUT-LIGAND-PDBQT: ATOM     37  H   UNL d   1       1.861  35.756  -1.104  0.00  0.00     0.167 HD
INPUT-LIGAND-PDBQT: ENDBRANCH  34  36
INPUT-LIGAND-PDBQT: ENDBRANCH  33  34
INPUT-LIGAND-PDBQT: ENDBRANCH  32  33
INPUT-LIGAND-PDBQT: ENDBRANCH   6  32
INPUT-LIGAND-PDBQT: BRANCH  22  38
INPUT-LIGAND-PDBQT: ATOM     38  C   UNL d   1       6.548  37.151  -3.854  0.00  0.00     0.052 C 
INPUT-LIGAND-PDBQT: BRANCH  38  39
INPUT-LIGAND-PDBQT: ATOM     39  C   UNL d   1       6.010  36.208  -4.928  0.00  0.00     0.115 C 
INPUT-LIGAND-PDBQT: BRANCH  39  40
INPUT-LIGAND-PDBQT: ATOM     40  C   UNL d   1       4.838  36.794  -5.675  0.00  0.00     0.139 C 
INPUT-LIGAND-PDBQT: ATOM     41  O   UNL d   1       4.700  36.561  -6.865  0.00  0.00    -0.650 OA
INPUT-LIGAND-PDBQT: BRANCH  40  42
INPUT-LIGAND-PDBQT: ATOM     42  O   UNL d   1       3.907  37.532  -5.040  0.00  0.00    -0.776 OA
INPUT-LIGAND-PDBQT: ATOM     43  H   UNL d   1       3.982  37.740  -4.101  0.00  0.00     0.167 HD
INPUT-LIGAND-PDBQT: ENDBRANCH  40  42
INPUT-LIGAND-PDBQT: ENDBRANCH  39  40
INPUT-LIGAND-PDBQT: ENDBRANCH  38  39
INPUT-LIGAND-PDBQT: ENDBRANCH  22  38
INPUT-LIGAND-PDBQT: BRANCH  12  44
INPUT-LIGAND-PDBQT: ATOM     44  C   UNL d   1      12.120  30.683   3.621  0.00  0.00     0.004 C 
INPUT-LIGAND-PDBQT: ATOM     45  C   UNL d   1      13.434  30.659   3.401  0.00  0.00     0.012 C 
INPUT-LIGAND-PDBQT: ENDBRANCH  12  44
INPUT-LIGAND-PDBQT: BRANCH  17  46
INPUT-LIGAND-PDBQT: ATOM     46  C   UNL d   1      14.171  36.282  -1.989  0.00  0.00     0.004 C 
INPUT-LIGAND-PDBQT: ATOM     47  C   UNL d   1      15.480  36.522  -1.839  0.00  0.00     0.012 C 
INPUT-LIGAND-PDBQT: ENDBRANCH  17  46
INPUT-LIGAND-PDBQT: TORSDOF 10
________________________________________________________________________________

Total charge on ligand                               =	-2.002 e
REMARK  10 active torsions:
REMARK  status: ('A' for Active; 'I' for Inactive)
REMARK    1  A    between atoms: C_6  and  C_10 
REMARK    2  A    between atoms: C_10  and  C_11 
REMARK    3  A    between atoms: C_11  and  C_12 
REMARK    4  A    between atoms: C_12  and  O_14 
REMARK    5  A    between atoms: C_17  and  C_20 
REMARK    6  A    between atoms: C_24  and  C_27 
REMARK    7  A    between atoms: C_31  and  C_34 
REMARK    8  A    between atoms: C_34  and  C_35 
REMARK    9  A    between atoms: C_35  and  C_36 
REMARK   10  A    between atoms: C_36  and  O_38 


Number of Rotatable Bonds in Small Molecule =	10 torsions
Number of atoms in ligand:  47

Number of non-hydrogen atoms in ligand:  45

Number of vibrational degrees of freedom of ligand:  135


Number of torsional degrees of freedom = 10
Estimated loss of torsional free energy upon binding = +2.9830 kcal/mol


DPF> about 8.287 34.468 -0.670            # small molecule center

Small molecule center of rotation =	(+8.287, +34.468, -0.670)

DPF> tran0 random                         # initial coordinates/A or random

Initial translation =			(-31.186, 35.900, -26.896) Angstroms
DPF> quaternion0 random                   # initial orientation

Each run will begin with a new, random initial orientation.
Initial quaternion,  (x,y,z,w) =	( 0.462, 0.305, 0.403, 0.729 ),
DPF> dihe0 random                         # initial dihedrals (relative) or random

DPF> torsdof 10                            # torsional degrees of freedom

Number of torsional degrees of freedom = 10
Free energy coefficient for torsional degrees of freedom = 0.2983, the factory default value.

Estimated loss of torsional free energy upon binding = +2.9830 kcal/mol

DPF> rmstol 2.0                           # cluster_tolerance/A

Maximum RMS tolerance for conformational cluster analysis = 2.00 Angstroms
DPF> extnrg 1000.0                        # external grid energy

External grid energy (beyond grid map walls) = 1000.00

DPF> e0max 0.0 10000                      # max initial energy; max number of retries

Using user-specified maximum number of retries for simanneal initialization, 10000 retries.
If the simanneal initial energy is greater than e0max, 0.000,
then a new, random initial state will be created.

DPF> ga_pop_size 150                      # number of individuals in population

A population of 150 individuals will be used
DPF> ga_num_evals 25000000                # maximum number of energy evaluations

There will be at most 25000000 function evaluations used.
DPF> ga_num_generations 27000             # maximum number of generations

The GA will run for at most 27000 generations.
DPF> ga_elitism 1                         # number of top individuals to survive to next generation

The 1 best will be preserved each GA generation.
DPF> ga_mutation_rate 0.02                # rate of gene mutation

The mutation rate is 0.020000.
DPF> ga_crossover_rate 0.8                # rate of crossover

The crossover rate is 0.800000.
DPF> ga_window_size 10                    # 

The GA's selection window is 10 generations.
DPF> ga_cauchy_alpha 0.0                  # Alpha parameter of Cauchy distribution

The alpha parameter (for the Cauchy distribution) is being set to 0.000000.
DPF> ga_cauchy_beta 1.0                   # Beta parameter Cauchy distribution

The beta parameter (for the Cauchy distribution) is being set to 1.000000.
DPF> set_ga                               # set the above parameters for GA or LGA

DPF> sw_max_its 300                       # iterations of Solis & Wets local search

Solis & Wets algorithms will perform at most 300 iterations.
DPF> sw_max_succ 4                        # consecutive successes before changing rho

Solis & Wets algorithms expand rho every 4 in a row successes.
DPF> sw_max_fail 4                        # consecutive failures before changing rho

Solis & Wets algorithms contract rho every 4 in a row failures.
DPF> sw_rho 1.0                           # size of local search space to sample

rho is set to 1.000000.
DPF> sw_lb_rho 0.01                       # lower bound on rho

rho will never get smaller than 0.010000.
DPF> ls_search_freq 0.06                  # probability of performing local search on individual

Local search will be performed with frequency 0.060000.
DPF> set_psw1                             # set the above pseudo-Solis & Wets parameters

Creating a new Local Search object using the pseudo-Solis-Wets algorithm (pSW1) with the current settings.

DPF> unbound_model bound                  # state of unbound ligand

DPF> ga_run 100                           # do this many hybrid GA-LS runs

centering ligand on specified point: 8.287 34.468 -0.670
Furthest true ligand atom from "about" center is 7.588 Angstroms (maxrad).
Number of requested GA dockings = 100 runs
Unbound model to be used is 'same as bound' [AutoDock 4.2 default].

	BEGINNING GENETIC ALGORITHM DOCKING 1 of 100
Run: 1 Seed: 1009795605 1189555482 [ Run 1 of 100 GA/GALS ]
Beginning LAMARCKIAN GENETIC ALGORITHM (LGA), with a maximum of 25000000 energy evaluations.

Final-Value: -16.926


	FINAL GENETIC ALGORITHM DOCKED STATE
	_______________________________________________


Detailed state:  trans -9.843 0.722 3.905 quatxyzw -0.894263 0.007692 -0.406022 0.188099 center 8.287 34.468 -0.670 ntor 10 15.1511 -109.2684 -0.4536 -73.9773 -176.3387 -179.0123 12.9609 72.9576 57.2808 157.0296
State:	 -9.843   0.722   3.905  -0.911  0.008 -0.413 158.316     15.15 -109.27   -0.45  -73.98 -176.34 -179.01   12.96   72.96   57.28  157.03

DOCKED: MODEL        1
DOCKED: USER    Run = 1
DOCKED: USER    DPF = D:/Protein_go_brrr/autodock/final/AncMH_nat/heme_O2/dock.dpf
DOCKED: USER  
DOCKED: USER    Estimated Free Energy of Binding    =  -13.65 kcal/mol  [=(1)+(2)+(3)-(4)]
DOCKED: USER    Estimated Inhibition Constant, Ki   =   97.96 pM (picomolar)  [Temperature = 298.15 K]
DOCKED: USER    
DOCKED: USER    (1) Final Intermolecular Energy     =  -16.64 kcal/mol
DOCKED: USER        vdW + Hbond + desolv Energy     =  -14.00 kcal/mol
DOCKED: USER        Electrostatic Energy            =   -2.64 kcal/mol
DOCKED: USER    (2) Final Total Internal Energy     =   -0.29 kcal/mol
DOCKED: USER    (3) Torsional Free Energy           =   +2.98 kcal/mol
DOCKED: USER    (4) Unbound System's Energy  [=(2)] =   -0.29 kcal/mol
DOCKED: USER    
DOCKED: USER    
DOCKED: USER    NEWDPF move heme_O2_opt.pdbqt
DOCKED: USER    NEWDPF about 8.287000 34.468000 -0.670000
DOCKED: USER    NEWDPF tran0 -9.843079 0.721673 3.905332
DOCKED: USER    NEWDPF quaternion0 -0.894263 0.007692 -0.406022 0.188099
DOCKED: USER    NEWDPF axisangle0 -0.910515 0.007832 -0.413401 158.316249
DOCKED: USER    NEWDPF quat0 -0.910515 0.007832 -0.413401 158.316249
DOCKED: USER    NEWDPF dihe0 15.15 -109.27 -0.45 -73.98 -176.34 -179.01 12.96 72.96 57.28 157.03 
DOCKED: USER  keepresnum = 1 
DOCKED: USER  
DOCKED: REMARK  10 active torsions:
DOCKED: REMARK  status: ('A' for Active; 'I' for Inactive)
DOCKED: REMARK    1  A    between atoms: C_6  and  C_10 
DOCKED: REMARK    2  A    between atoms: C_10  and  C_11 
DOCKED: REMARK    3  A    between atoms: C_11  and  C_12 
DOCKED: REMARK    4  A    between atoms: C_12  and  O_14 
DOCKED: REMARK    5  A    between atoms: C_17  and  C_20 
DOCKED: REMARK    6  A    between atoms: C_24  and  C_27 
DOCKED: REMARK    7  A    between atoms: C_31  and  C_34 
DOCKED: REMARK    8  A    between atoms: C_34  and  C_35 
DOCKED: REMARK    9  A    between atoms: C_35  and  C_36 
DOCKED: REMARK   10  A    between atoms: C_36  and  O_38 
DOCKED: USER                              x       y       z     vdW  Elec       q    Type
DOCKED: USER                           _______ _______ _______ _____ _____    ______ ____
DOCKED: ROOT
DOCKED: ATOM      1  C   UNL d   1     -11.775   0.177   3.220 -0.24 +0.03    +0.064 A 
DOCKED: ATOM      2  C   UNL d   1      -7.852   1.603   0.954 -0.38 +0.01    +0.064 A 
DOCKED: ATOM      3  C   UNL d   1      -5.500   2.058   5.120 -0.29 +0.00    +0.064 C 
DOCKED: ATOM      4  C   UNL d   1      -9.379   0.134   7.427 -0.25 +0.01    +0.064 A 
DOCKED: ATOM      5  C   UNL d   1     -10.900   0.526   2.264 -0.28 +0.03    +0.066 A 
DOCKED: ATOM      6  C   UNL d   1     -11.201   0.553   0.899 -0.29 -0.01    -0.021 A 
DOCKED: ATOM      7  C   UNL d   1     -10.053   0.924   0.239 -0.35 -0.01    -0.025 A 
DOCKED: ATOM      8  C   UNL d   1      -9.096   1.160   1.222 -0.34 +0.02    +0.066 A 
DOCKED: ATOM      9  C   UNL d   1      -9.909   1.009  -1.265 -0.28 +0.01    +0.051 C 
DOCKED: ATOM     10  C   UNL d   1      -6.813   1.890   1.944 -0.36 +0.01    +0.066 A 
DOCKED: ATOM     11  C   UNL d   1      -5.596   2.503   1.626 -0.41 -0.00    -0.021 A 
DOCKED: ATOM     12  C   UNL d   1      -4.911   2.659   2.817 -0.38 +0.00    +0.000 A 
DOCKED: ATOM     13  C   UNL d   1      -5.763   2.110   3.814 -0.33 +0.00    +0.070 A 
DOCKED: ATOM     14  C   UNL d   1      -5.118   2.946   0.248 -0.50 -0.00    +0.052 C 
DOCKED: ATOM     15  C   UNL d   1      -6.320   1.479   6.157 -0.36 +0.00    +0.066 A 
DOCKED: ATOM     16  C   UNL d   1      -5.917   1.309   7.481 -0.43 -0.00    -0.021 A 
DOCKED: ATOM     17  C   UNL d   1      -7.006   0.761   8.158 -0.46 +0.00    +0.000 A 
DOCKED: ATOM     18  C   UNL d   1      -8.006   0.638   7.183 -0.38 +0.01    +0.070 A 
DOCKED: ATOM     19  C   UNL d   1      -4.525   1.630   7.965 -0.45 -0.00    +0.052 C 
DOCKED: ATOM     20  C   UNL d   1     -10.348  -0.037   6.507 -0.37 +0.01    +0.066 A 
DOCKED: ATOM     21  C   UNL d   1     -11.628  -0.499   6.799 -0.31 -0.00    -0.025 A 
DOCKED: ATOM     22  C   UNL d   1     -12.333  -0.468   5.617 -0.35 -0.01    -0.021 A 
DOCKED: ATOM     23  C   UNL d   1     -11.448  -0.003   4.640 -0.28 +0.02    +0.066 A 
DOCKED: ATOM     24  C   UNL d   1     -12.151  -0.951   8.138 -0.48 +0.00    +0.051 C 
DOCKED: ATOM     25  N   UNL d   1      -9.599   0.851   2.464 -0.20 -0.08    -0.248 N 
DOCKED: ATOM     26  N   UNL d   1      -6.916   1.640   3.274 -0.20 -0.03    -0.248 N 
DOCKED: ATOM     27  N   UNL d   1      -7.548   1.008   5.960 -0.13 -0.05    -0.248 N 
DOCKED: ATOM     28  N   UNL d   1     -10.230   0.215   5.176 -0.24 -0.07    -0.248 N 
DOCKED: ATOM     29 FE   UNL d   1      -8.584   0.922   4.235 -0.08 +0.00    +0.000 Fe
DOCKED: ATOM     30  O   UNL d   1      -8.107  -0.213   3.282 -0.49 +0.00    +0.000 OA
DOCKED: ATOM     31  O   UNL d   1      -8.218  -0.488   4.829 -0.83 +0.00    +0.000 OA
DOCKED: ENDROOT
DOCKED: BRANCH   6  32
DOCKED: ATOM     32  C   UNL d   1     -12.476   0.115   0.226 -0.27 +0.05    +0.052 C 
DOCKED: BRANCH  32  33
DOCKED: ATOM     33  C   UNL d   1     -12.881   1.029  -0.926 -0.14 +0.14    +0.115 C 
DOCKED: BRANCH  33  34
DOCKED: ATOM     34  C   UNL d   1     -14.276   0.742  -1.424 -0.04 +0.20    +0.139 C 
DOCKED: ATOM     35  O   UNL d   1     -15.130   0.359  -0.640 -0.06 -1.27    -0.650 OA
DOCKED: BRANCH  34  36
DOCKED: ATOM     36  O   UNL d   1     -14.599   0.874  -2.727 +0.05 -0.65    -0.776 OA
DOCKED: ATOM     37  H   UNL d   1     -13.927   0.938  -3.416 +0.04 +0.09    +0.167 HD
DOCKED: ENDBRANCH  34  36
DOCKED: ENDBRANCH  33  34
DOCKED: ENDBRANCH  32  33
DOCKED: ENDBRANCH   6  32
DOCKED: BRANCH  22  38
DOCKED: ATOM     38  C   UNL d   1     -13.758  -0.922   5.432 +0.01 +0.02    +0.052 C 
DOCKED: BRANCH  38  39
DOCKED: ATOM     39  C   UNL d   1     -13.849  -2.310   4.803 -0.27 +0.05    +0.115 C 
DOCKED: BRANCH  39  40
DOCKED: ATOM     40  C   UNL d   1     -14.336  -2.266   3.376 -0.21 +0.10    +0.139 C 
DOCKED: ATOM     41  O   UNL d   1     -15.157  -1.427   3.042 +0.03 -0.57    -0.650 OA
DOCKED: BRANCH  40  42
DOCKED: ATOM     42  O   UNL d   1     -13.842  -3.105   2.446 -0.37 -0.94    -0.776 OA
DOCKED: ATOM     43  H   UNL d   1     -13.235  -2.799   1.761 +0.05 +0.23    +0.167 HD
DOCKED: ENDBRANCH  40  42
DOCKED: ENDBRANCH  39  40
DOCKED: ENDBRANCH  38  39
DOCKED: ENDBRANCH  22  38
DOCKED: BRANCH  12  44
DOCKED: ATOM     44  C   UNL d   1      -3.540   3.301   2.878 -0.47 -0.00    +0.004 C 
DOCKED: ATOM     45  C   UNL d   1      -2.819   3.589   3.960 -0.55 -0.00    +0.012 C 
DOCKED: ENDBRANCH  12  44
DOCKED: BRANCH  17  46
DOCKED: ATOM     46  C   UNL d   1      -7.156   0.306   9.585 -0.37 +0.00    +0.004 C 
DOCKED: ATOM     47  C   UNL d   1      -6.764  -0.853  10.130 -0.70 +0.00    +0.012 C 
DOCKED: ENDBRANCH  17  46
DOCKED: TORSDOF 10
DOCKED: TER
DOCKED: ENDMDL
________________________________________________________________________________


	BEGINNING GENETIC ALGORITHM DOCKING 2 of 100
Run: 2 Seed: 289461414 2017071503 [ Run 2 of 100 GA/GALS ]
Beginning LAMARCKIAN GENETIC ALGORITHM (LGA), with a maximum of 25000000 energy evaluations.

Final-Value: -9.295


	FINAL GENETIC ALGORITHM DOCKED STATE
	_______________________________________________


Detailed state:  trans 11.057 -11.767 -5.290 quatxyzw 0.478680 0.587091 -0.644507 -0.103922 center 8.287 34.468 -0.670 ntor 10 166.4527 -56.0541 -40.2254 -24.5666 178.4541 156.8234 -70.8231 7.5545 -159.7387 168.1741
State:	 11.057 -11.767  -5.290   0.481  0.590 -0.648 -168.070    166.45  -56.05  -40.23  -24.57  178.45  156.82  -70.82    7.55 -159.74  168.17

DOCKED: MODEL        2
DOCKED: USER    Run = 2
DOCKED: USER    DPF = D:/Protein_go_brrr/autodock/final/AncMH_nat/heme_O2/dock.dpf
DOCKED: USER  
DOCKED: USER    Estimated Free Energy of Binding    =   -4.10 kcal/mol  [=(1)+(2)+(3)-(4)]
DOCKED: USER    Estimated Inhibition Constant, Ki   =  985.61 uM (micromolar)  [Temperature = 298.15 K]
DOCKED: USER    
DOCKED: USER    (1) Final Intermolecular Energy     =   -7.08 kcal/mol
DOCKED: USER        vdW + Hbond + desolv Energy     =   -7.38 kcal/mol
DOCKED: USER        Electrostatic Energy            =   +0.30 kcal/mol
DOCKED: USER    (2) Final Total Internal Energy     =   -2.21 kcal/mol
DOCKED: USER    (3) Torsional Free Energy           =   +2.98 kcal/mol
DOCKED: USER    (4) Unbound System's Energy  [=(2)] =   -2.21 kcal/mol
DOCKED: USER    
DOCKED: USER    
DOCKED: USER    NEWDPF move heme_O2_opt.pdbqt
DOCKED: USER    NEWDPF about 8.287000 34.468000 -0.670000
DOCKED: USER    NEWDPF tran0 11.057096 -11.767223 -5.289770
DOCKED: USER    NEWDPF quaternion0 0.478680 0.587091 -0.644507 -0.103922
DOCKED: USER    NEWDPF axisangle0 0.481286 0.590287 -0.648016 -168.069886
DOCKED: USER    NEWDPF quat0 0.481286 0.590287 -0.648016 -168.069886
DOCKED: USER    NEWDPF dihe0 166.45 -56.05 -40.23 -24.57 178.45 156.82 -70.82 7.55 -159.74 168.17 
DOCKED: USER  keepresnum = 1 
DOCKED: USER  
DOCKED: REMARK  10 active torsions:
DOCKED: REMARK  status: ('A' for Active; 'I' for Inactive)
DOCKED: REMARK    1  A    between atoms: C_6  and  C_10 
DOCKED: REMARK    2  A    between atoms: C_10  and  C_11 
DOCKED: REMARK    3  A    between atoms: C_11  and  C_12 
DOCKED: REMARK    4  A    between atoms: C_12  and  O_14 
DOCKED: REMARK    5  A    between atoms: C_17  and  C_20 
DOCKED: REMARK    6  A    between atoms: C_24  and  C_27 
DOCKED: REMARK    7  A    between atoms: C_31  and  C_34 
DOCKED: REMARK    8  A    between atoms: C_34  and  C_35 
DOCKED: REMARK    9  A    between atoms: C_35  and  C_36 
DOCKED: REMARK   10  A    between atoms: C_36  and  O_38 
DOCKED: USER                              x       y       z     vdW  Elec       q    Type
DOCKED: USER                           _______ _______ _______ _____ _____    ______ ____
DOCKED: ROOT
DOCKED: ATOM      1  C   UNL d   1      12.845 -12.057  -4.185 -0.20 -0.02    +0.064 A 
DOCKED: ATOM      2  C   UNL d   1       8.501 -13.940  -3.809 -0.15 -0.01    +0.064 A 
DOCKED: ATOM      3  C   UNL d   1       6.930 -11.284  -7.493 -0.25 -0.01    +0.064 C 
DOCKED: ATOM      4  C   UNL d   1      11.517  -9.694  -8.197 -0.27 -0.04    +0.064 A 
DOCKED: ATOM      5  C   UNL d   1      11.792 -12.787  -3.783 -0.18 -0.02    +0.066 A 
DOCKED: ATOM      6  C   UNL d   1      11.823 -13.681  -2.709 -0.12 +0.01    -0.021 A 
DOCKED: ATOM      7  C   UNL d   1      10.578 -14.258  -2.626 -0.11 +0.00    -0.025 A 
DOCKED: ATOM      8  C   UNL d   1       9.806 -13.666  -3.622 -0.16 -0.01    +0.066 A 
DOCKED: ATOM      9  C   UNL d   1      10.192 -15.345  -1.646 -0.05 -0.01    +0.051 C 
DOCKED: ATOM     10  C   UNL d   1       7.634 -13.334  -4.821 -0.17 -0.00    +0.066 A 
DOCKED: ATOM     11  C   UNL d   1       6.249 -13.532  -4.866 -0.09 -0.00    -0.021 A 
DOCKED: ATOM     12  C   UNL d   1       5.776 -12.760  -5.911 -0.21 +0.00    +0.000 A 
DOCKED: ATOM     13  C   UNL d   1       6.925 -12.131  -6.464 -0.20 -0.00    +0.070 A 
DOCKED: ATOM     14  C   UNL d   1       5.410 -14.398  -3.934 -0.16 +0.00    +0.052 C 
DOCKED: ATOM     15  C   UNL d   1       8.075 -10.655  -8.105 -0.21 -0.01    +0.066 A 
DOCKED: ATOM     16  C   UNL d   1       8.032  -9.908  -9.282 -0.23 +0.00    -0.021 A 
DOCKED: ATOM     17  C   UNL d   1       9.329  -9.445  -9.503 -0.27 -0.00    +0.000 A 
DOCKED: ATOM     18  C   UNL d   1      10.075  -9.948  -8.429 -0.27 -0.03    +0.070 A 
DOCKED: ATOM     19  C   UNL d   1       6.782  -9.752 -10.111 -0.28 -0.01    +0.052 C 
DOCKED: ATOM     20  C   UNL d   1      12.273 -10.196  -7.201 -0.27 -0.03    +0.066 A 
DOCKED: ATOM     21  C   UNL d   1      13.622  -9.906  -7.024 -0.27 +0.01    -0.025 A 
DOCKED: ATOM     22  C   UNL d   1      14.011 -10.549  -5.870 -0.26 +0.00    -0.021 A 
DOCKED: ATOM     23  C   UNL d   1      12.884 -11.225  -5.394 -0.25 -0.02    +0.066 A 
DOCKED: ATOM     24  C   UNL d   1      14.498  -9.060  -7.912 -0.32 -0.03    +0.051 C 
DOCKED: ATOM     25  N   UNL d   1      10.573 -12.808  -4.376 -0.11 +0.08    -0.248 N 
DOCKED: ATOM     26  N   UNL d   1       8.052 -12.490  -5.798 -0.13 +0.04    -0.248 N 
DOCKED: ATOM     27  N   UNL d   1       9.315 -10.742  -7.632 -0.14 +0.09    -0.248 N 
DOCKED: ATOM     28  N   UNL d   1      11.841 -11.044  -6.231 -0.17 +0.10    -0.248 N 
DOCKED: ATOM     29 FE   UNL d   1       9.960 -11.761  -6.018 -0.05 -0.00    +0.000 Fe
DOCKED: ATOM     30  O   UNL d   1      10.050 -13.297  -6.251 -0.12 -0.00    +0.000 OA
DOCKED: ATOM     31  O   UNL d   1      10.521 -12.307  -7.382 -0.13 -0.00    +0.000 OA
DOCKED: ENDROOT
DOCKED: BRANCH   6  32
DOCKED: ATOM     32  C   UNL d   1      13.014 -14.081  -1.876 -0.07 -0.01    +0.052 C 
DOCKED: BRANCH  32  33
DOCKED: ATOM     33  C   UNL d   1      13.941 -15.054  -2.598 -0.01 -0.02    +0.115 C 
DOCKED: BRANCH  33  34
DOCKED: ATOM     34  C   UNL d   1      15.227 -14.401  -3.040 -0.01 -0.02    +0.139 C 
DOCKED: ATOM     35  O   UNL d   1      15.661 -13.442  -2.422 +0.03 +0.09    -0.650 OA
DOCKED: BRANCH  34  36
DOCKED: ATOM     36  O   UNL d   1      15.900 -14.836  -4.126 +0.01 +0.09    -0.776 OA
DOCKED: ATOM     37  H   UNL d   1      16.610 -14.321  -4.527 +0.00 -0.02    +0.167 HD
DOCKED: ENDBRANCH  34  36
DOCKED: ENDBRANCH  33  34
DOCKED: ENDBRANCH  32  33
DOCKED: ENDBRANCH   6  32
DOCKED: BRANCH  22  38
DOCKED: ATOM     38  C   UNL d   1      15.405 -10.561  -5.298 -0.20 -0.00    +0.052 C 
DOCKED: BRANCH  38  39
DOCKED: ATOM     39  C   UNL d   1      16.242 -11.723  -5.829 -0.06 -0.01    +0.115 C 
DOCKED: BRANCH  39  40
DOCKED: ATOM     40  C   UNL d   1      17.582 -11.828  -5.145 -0.03 -0.01    +0.139 C 
DOCKED: ATOM     41  O   UNL d   1      18.357 -10.886  -5.183 +0.01 +0.06    -0.650 OA
DOCKED: BRANCH  40  42
DOCKED: ATOM     42  O   UNL d   1      17.922 -12.928  -4.446 +0.02 +0.08    -0.776 OA
DOCKED: ATOM     43  H   UNL d   1      17.356 -13.276  -3.746 +0.01 -0.02    +0.167 HD
DOCKED: ENDBRANCH  40  42
DOCKED: ENDBRANCH  39  40
DOCKED: ENDBRANCH  38  39
DOCKED: ENDBRANCH  22  38
DOCKED: BRANCH  12  44
DOCKED: ATOM     44  C   UNL d   1       4.305 -12.706  -6.268 -0.31 -0.00    +0.004 C 
DOCKED: ATOM     45  C   UNL d   1       3.571 -11.632  -6.557 -0.49 +0.00    +0.012 C 
DOCKED: ENDBRANCH  12  44
DOCKED: BRANCH  17  46
DOCKED: ATOM     46  C   UNL d   1       9.912  -8.643 -10.636 -0.27 -0.00    +0.004 C 
DOCKED: ATOM     47  C   UNL d   1       9.547  -8.642 -11.924 -0.22 -0.00    +0.012 C 
DOCKED: ENDBRANCH  17  46
DOCKED: TORSDOF 10
DOCKED: TER
DOCKED: ENDMDL
________________________________________________________________________________


	BEGINNING GENETIC ALGORITHM DOCKING 3 of 100
Run: 3 Seed: 312222617 337486741 [ Run 3 of 100 GA/GALS ]
Beginning LAMARCKIAN GENETIC ALGORITHM (LGA), with a maximum of 25000000 energy evaluations.

Final-Value: -11.657


	FINAL GENETIC ALGORITHM DOCKED STATE
	_______________________________________________


Detailed state:  trans -14.134 0.447 -0.972 quatxyzw -0.961121 -0.104021 -0.234127 0.103006 center 8.287 34.468 -0.670 ntor 10 -6.3099 21.2800 -56.1179 -8.1468 -155.5404 106.0942 -119.8499 -163.3684 179.9546 -10.1346
State:	-14.134   0.447  -0.972  -0.966 -0.105 -0.235 168.175     -6.31   21.28  -56.12   -8.15 -155.54  106.09 -119.85 -163.37  179.95  -10.13

DOCKED: MODEL        3
DOCKED: USER    Run = 3
DOCKED: USER    DPF = D:/Protein_go_brrr/autodock/final/AncMH_nat/heme_O2/dock.dpf
DOCKED: USER  
DOCKED: USER    Estimated Free Energy of Binding    =   -7.97 kcal/mol  [=(1)+(2)+(3)-(4)]
DOCKED: USER    Estimated Inhibition Constant, Ki   =    1.43 uM (micromolar)  [Temperature = 298.15 K]
DOCKED: USER    
DOCKED: USER    (1) Final Intermolecular Energy     =  -10.95 kcal/mol
DOCKED: USER        vdW + Hbond + desolv Energy     =   -7.39 kcal/mol
DOCKED: USER        Electrostatic Energy            =   -3.56 kcal/mol
DOCKED: USER    (2) Final Total Internal Energy     =   -0.70 kcal/mol
DOCKED: USER    (3) Torsional Free Energy           =   +2.98 kcal/mol
DOCKED: USER    (4) Unbound System's Energy  [=(2)] =   -0.70 kcal/mol
DOCKED: USER    
DOCKED: USER    
DOCKED: USER    NEWDPF move heme_O2_opt.pdbqt
DOCKED: USER    NEWDPF about 8.287000 34.468000 -0.670000
DOCKED: USER    NEWDPF tran0 -14.133719 0.446586 -0.971775
DOCKED: USER    NEWDPF quaternion0 -0.961121 -0.104021 -0.234127 0.103006
DOCKED: USER    NEWDPF axisangle0 -0.966261 -0.104577 -0.235379 168.175451
DOCKED: USER    NEWDPF quat0 -0.966261 -0.104577 -0.235379 168.175451
DOCKED: USER    NEWDPF dihe0 -6.31 21.28 -56.12 -8.15 -155.54 106.09 -119.85 -163.37 179.95 -10.13 
DOCKED: USER  keepresnum = 1 
DOCKED: USER  
DOCKED: REMARK  10 active torsions:
DOCKED: REMARK  status: ('A' for Active; 'I' for Inactive)
DOCKED: REMARK    1  A    between atoms: C_6  and  C_10 
DOCKED: REMARK    2  A    between atoms: C_10  and  C_11 
DOCKED: REMARK    3  A    between atoms: C_11  and  C_12 
DOCKED: REMARK    4  A    between atoms: C_12  and  O_14 
DOCKED: REMARK    5  A    between atoms: C_17  and  C_20 
DOCKED: REMARK    6  A    between atoms: C_24  and  C_27 
DOCKED: REMARK    7  A    between atoms: C_31  and  C_34 
DOCKED: REMARK    8  A    between atoms: C_34  and  C_35 
DOCKED: REMARK    9  A    between atoms: C_35  and  C_36 
DOCKED: REMARK   10  A    between atoms: C_36  and  O_38 
DOCKED: USER                              x       y       z     vdW  Elec       q    Type
DOCKED: USER                           _______ _______ _______ _____ _____    ______ ____
DOCKED: ROOT
DOCKED: ATOM      1  C   UNL d   1     -16.044  -0.474  -0.929 -0.11 +0.08    +0.064 A 
DOCKED: ATOM      2  C   UNL d   1     -13.689   1.874  -4.321 -0.03 +0.02    +0.064 A 
DOCKED: ATOM      3  C   UNL d   1      -9.990   2.640  -1.350 -0.11 +0.01    +0.064 C 
DOCKED: ATOM      4  C   UNL d   1     -12.199  -0.185   1.997 -0.25 +0.05    +0.064 A 
DOCKED: ATOM      5  C   UNL d   1     -15.705   0.100  -2.095 -0.09 +0.07    +0.066 A 
DOCKED: ATOM      6  C   UNL d   1     -16.527   0.124  -3.225 -0.03 -0.01    -0.021 A 
DOCKED: ATOM      7  C   UNL d   1     -15.829   0.766  -4.221 -0.02 -0.01    -0.025 A 
DOCKED: ATOM      8  C   UNL d   1     -14.618   1.159  -3.657 -0.04 +0.04    +0.066 A 
DOCKED: ATOM      9  C   UNL d   1     -16.317   0.948  -5.641 +0.00 +0.01    +0.051 C 
DOCKED: ATOM     10  C   UNL d   1     -12.412   2.335  -3.776 -0.07 +0.01    +0.066 A 
DOCKED: ATOM     11  C   UNL d   1     -11.557   3.212  -4.454 -0.13 +0.00    -0.021 A 
DOCKED: ATOM     12  C   UNL d   1     -10.493   3.459  -3.606 -0.22 -0.00    +0.000 A 
DOCKED: ATOM     13  C   UNL d   1     -10.759   2.692  -2.438 -0.20 +0.01    +0.070 A 
DOCKED: ATOM     14  C   UNL d   1     -11.761   3.811  -5.841 -0.09 -0.03    +0.052 C 
DOCKED: ATOM     15  C   UNL d   1     -10.205   1.850  -0.162 -0.25 +0.02    +0.066 A 
DOCKED: ATOM     16  C   UNL d   1      -9.282   1.711   0.874 -0.32 -0.01    -0.021 A 
DOCKED: ATOM     17  C   UNL d   1      -9.889   0.909   1.839 -0.34 +0.00    +0.000 A 
DOCKED: ATOM     18  C   UNL d   1     -11.156   0.616   1.314 -0.27 +0.04    +0.070 A 
DOCKED: ATOM     19  C   UNL d   1      -7.896   2.305   0.825 -0.35 +0.01    +0.052 C 
DOCKED: ATOM     20  C   UNL d   1     -13.406  -0.522   1.505 -0.24 +0.07    +0.066 A 
DOCKED: ATOM     21  C   UNL d   1     -14.355  -1.264   2.203 -0.24 -0.03    -0.025 A 
DOCKED: ATOM     22  C   UNL d   1     -15.467  -1.333   1.395 -0.18 -0.03    -0.021 A 
DOCKED: ATOM     23  C   UNL d   1     -15.149  -0.643   0.221 -0.11 +0.10    +0.066 A 
DOCKED: ATOM     24  C   UNL d   1     -14.206  -1.880   3.570 -0.25 +0.04    +0.051 C 
DOCKED: ATOM     25  N   UNL d   1     -14.516   0.692  -2.367 -0.07 -0.24    -0.248 N 
DOCKED: ATOM     26  N   UNL d   1     -11.925   2.008  -2.551 -0.07 -0.10    -0.248 N 
DOCKED: ATOM     27  N   UNL d   1     -11.301   1.132   0.067 -0.14 -0.17    -0.248 N 
DOCKED: ATOM     28  N   UNL d   1     -13.879  -0.190   0.274 -0.12 -0.37    -0.248 N 
DOCKED: ATOM     29 FE   UNL d   1     -12.907   0.901  -1.127 -0.04 +0.00    +0.000 Fe
DOCKED: ATOM     30  O   UNL d   1     -12.655  -0.058  -2.326 -0.26 +0.00    +0.000 OA
DOCKED: ATOM     31  O   UNL d   1     -12.085  -0.421  -0.903 -0.17 +0.00    +0.000 OA
DOCKED: ENDROOT
DOCKED: BRANCH   6  32
DOCKED: ATOM     32  C   UNL d   1     -17.862  -0.550  -3.409 -0.01 +0.03    +0.052 C 
DOCKED: BRANCH  32  33
DOCKED: ATOM     33  C   UNL d   1     -17.752  -1.901  -4.108 -0.02 +0.06    +0.115 C 
DOCKED: BRANCH  33  34
DOCKED: ATOM     34  C   UNL d   1     -16.852  -2.860  -3.369 -0.09 +0.12    +0.139 C 
DOCKED: ATOM     35  O   UNL d   1     -17.055  -3.090  -2.188 +0.05 -0.73    -0.650 OA
DOCKED: BRANCH  34  36
DOCKED: ATOM     36  O   UNL d   1     -15.805  -3.453  -3.979 -0.31 -0.81    -0.776 OA
DOCKED: ATOM     37  H   UNL d   1     -15.641  -3.355  -4.924 +0.02 +0.11    +0.167 HD
DOCKED: ENDBRANCH  34  36
DOCKED: ENDBRANCH  33  34
DOCKED: ENDBRANCH  32  33
DOCKED: ENDBRANCH   6  32
DOCKED: BRANCH  22  38
DOCKED: ATOM     38  C   UNL d   1     -16.739  -2.078   1.712 -0.11 +0.05    +0.052 C 
DOCKED: BRANCH  38  39
DOCKED: ATOM     39  C   UNL d   1     -17.770  -1.196   2.412 -0.07 +0.11    +0.115 C 
DOCKED: BRANCH  39  40
DOCKED: ATOM     40  C   UNL d   1     -17.448   0.273   2.294 -0.16 +0.21    +0.139 C 
DOCKED: ATOM     41  O   UNL d   1     -17.074   0.893   3.276 -0.06 -1.01    -0.650 OA
DOCKED: BRANCH  40  42
DOCKED: ATOM     42  O   UNL d   1     -17.516   0.907   1.107 -0.27 -1.53    -0.776 OA
DOCKED: ATOM     43  H   UNL d   1     -18.073   0.579   0.391 +0.02 +0.23    +0.167 HD
DOCKED: ENDBRANCH  40  42
DOCKED: ENDBRANCH  39  40
DOCKED: ENDBRANCH  38  39
DOCKED: ENDBRANCH  22  38
DOCKED: BRANCH  12  44
DOCKED: ATOM     44  C   UNL d   1      -9.355   4.380  -3.992 -0.30 -0.00    +0.004 C 
DOCKED: ATOM     45  C   UNL d   1      -8.965   5.499  -3.384 -0.49 -0.00    +0.012 C 
DOCKED: ENDBRANCH  12  44
DOCKED: BRANCH  17  46
DOCKED: ATOM     46  C   UNL d   1      -9.369   0.368   3.144 -0.38 +0.00    +0.004 C 
DOCKED: ATOM     47  C   UNL d   1      -8.100   0.308   3.569 -0.38 +0.00    +0.012 C 
DOCKED: ENDBRANCH  17  46
DOCKED: TORSDOF 10
DOCKED: TER
DOCKED: ENDMDL
________________________________________________________________________________


	BEGINNING GENETIC ALGORITHM DOCKING 4 of 100
Run: 4 Seed: 1489366009 172750603 [ Run 4 of 100 GA/GALS ]
Beginning LAMARCKIAN GENETIC ALGORITHM (LGA), with a maximum of 25000000 energy evaluations.

Final-Value: -9.603


	FINAL GENETIC ALGORITHM DOCKED STATE
	_______________________________________________


Detailed state:  trans -9.509 -7.190 19.981 quatxyzw 0.832342 0.139768 0.071126 0.531613 center 8.287 34.468 -0.670 ntor 10 6.9859 55.1421 62.4719 130.0749 174.8049 93.6431 -25.2259 -96.8675 -33.7566 145.2323
State:	 -9.509  -7.190  19.981   0.983  0.165  0.084 115.771      6.99   55.14   62.47  130.07  174.80   93.64  -25.23  -96.87  -33.76  145.23

DOCKED: MODEL        4
DOCKED: USER    Run = 4
DOCKED: USER    DPF = D:/Protein_go_brrr/autodock/final/AncMH_nat/heme_O2/dock.dpf
DOCKED: USER  
DOCKED: USER    Estimated Free Energy of Binding    =   -5.95 kcal/mol  [=(1)+(2)+(3)-(4)]
DOCKED: USER    Estimated Inhibition Constant, Ki   =   43.68 uM (micromolar)  [Temperature = 298.15 K]
DOCKED: USER    
DOCKED: USER    (1) Final Intermolecular Energy     =   -8.93 kcal/mol
DOCKED: USER        vdW + Hbond + desolv Energy     =   -6.35 kcal/mol
DOCKED: USER        Electrostatic Energy            =   -2.58 kcal/mol
DOCKED: USER    (2) Final Total Internal Energy     =   -0.67 kcal/mol
DOCKED: USER    (3) Torsional Free Energy           =   +2.98 kcal/mol
DOCKED: USER    (4) Unbound System's Energy  [=(2)] =   -0.67 kcal/mol
DOCKED: USER    
DOCKED: USER    
DOCKED: USER    NEWDPF move heme_O2_opt.pdbqt
DOCKED: USER    NEWDPF about 8.287000 34.468000 -0.670000
DOCKED: USER    NEWDPF tran0 -9.508888 -7.190032 19.980874
DOCKED: USER    NEWDPF quaternion0 0.832342 0.139768 0.071126 0.531613
DOCKED: USER    NEWDPF axisangle0 0.982709 0.165018 0.083976 115.770999
DOCKED: USER    NEWDPF quat0 0.982709 0.165018 0.083976 115.770999
DOCKED: USER    NEWDPF dihe0 6.99 55.14 62.47 130.07 174.80 93.64 -25.23 -96.87 -33.76 145.23 
DOCKED: USER  keepresnum = 1 
DOCKED: USER  
DOCKED: REMARK  10 active torsions:
DOCKED: REMARK  status: ('A' for Active; 'I' for Inactive)
DOCKED: REMARK    1  A    between atoms: C_6  and  C_10 
DOCKED: REMARK    2  A    between atoms: C_10  and  C_11 
DOCKED: REMARK    3  A    between atoms: C_11  and  C_12 
DOCKED: REMARK    4  A    between atoms: C_12  and  O_14 
DOCKED: REMARK    5  A    between atoms: C_17  and  C_20 
DOCKED: REMARK    6  A    between atoms: C_24  and  C_27 
DOCKED: REMARK    7  A    between atoms: C_31  and  C_34 
DOCKED: REMARK    8  A    between atoms: C_34  and  C_35 
DOCKED: REMARK    9  A    between atoms: C_35  and  C_36 
DOCKED: REMARK   10  A    between atoms: C_36  and  O_38 
DOCKED: USER                              x       y       z     vdW  Elec       q    Type
DOCKED: USER                           _______ _______ _______ _____ _____    ______ ____
DOCKED: ROOT
DOCKED: ATOM      1  C   UNL d   1     -11.077  -8.446  19.301 -0.07 +0.01    +0.064 A 
DOCKED: ATOM      2  C   UNL d   1     -10.913  -3.828  20.399 -0.12 -0.01    +0.064 A 
DOCKED: ATOM      3  C   UNL d   1      -6.264  -4.177  21.567 -0.11 -0.01    +0.064 C 
DOCKED: ATOM      4  C   UNL d   1      -6.299  -8.820  19.985 -0.18 -0.01    +0.064 A 
DOCKED: ATOM      5  C   UNL d   1     -11.411  -7.161  19.502 -0.10 +0.01    +0.066 A 
DOCKED: ATOM      6  C   UNL d   1     -12.695  -6.645  19.301 -0.13 -0.01    -0.021 A 
DOCKED: ATOM      7  C   UNL d   1     -12.638  -5.299  19.577 -0.13 -0.01    -0.025 A 
DOCKED: ATOM      8  C   UNL d   1     -11.333  -5.039  19.986 -0.13 +0.00    +0.066 A 
DOCKED: ATOM      9  C   UNL d   1     -13.792  -4.333  19.417 -0.14 +0.01    +0.051 C 
DOCKED: ATOM     10  C   UNL d   1      -9.563  -3.500  20.861 -0.13 -0.01    +0.066 A 
DOCKED: ATOM     11  C   UNL d   1      -9.223  -2.269  21.432 -0.11 +0.00    -0.021 A 
DOCKED: ATOM     12  C   UNL d   1      -7.891  -2.356  21.792 -0.12 -0.00    +0.000 A 
DOCKED: ATOM     13  C   UNL d   1      -7.481  -3.660  21.400 -0.14 -0.01    +0.070 A 
DOCKED: ATOM     14  C   UNL d   1     -10.138  -1.069  21.651 -0.09 -0.01    +0.052 C 
DOCKED: ATOM     15  C   UNL d   1      -5.800  -5.479  21.152 -0.10 -0.01    +0.066 A 
DOCKED: ATOM     16  C   UNL d   1      -4.471  -5.899  21.208 -0.16 +0.01    -0.021 A 
DOCKED: ATOM     17  C   UNL d   1      -4.457  -7.220  20.761 -0.23 -0.00    +0.000 A 
DOCKED: ATOM     18  C   UNL d   1      -5.796  -7.511  20.464 -0.20 -0.01    +0.070 A 
DOCKED: ATOM     19  C   UNL d   1      -3.339  -4.995  21.625 -0.15 -0.02    +0.052 C 
DOCKED: ATOM     20  C   UNL d   1      -7.569  -9.121  19.650 -0.12 -0.00    +0.066 A 
DOCKED: ATOM     21  C   UNL d   1      -7.987 -10.378  19.222 -0.08 -0.00    -0.025 A 
DOCKED: ATOM     22  C   UNL d   1      -9.350 -10.297  19.048 -0.07 -0.00    -0.021 A 
DOCKED: ATOM     23  C   UNL d   1      -9.713  -8.983  19.361 -0.07 +0.00    +0.066 A 
DOCKED: ATOM     24  C   UNL d   1      -7.128 -11.593  18.987 -0.09 +0.00    +0.051 C 
DOCKED: ATOM     25  N   UNL d   1     -10.562  -6.173  19.877 -0.07 -0.02    -0.248 N 
DOCKED: ATOM     26  N   UNL d   1      -8.503  -4.348  20.830 -0.13 +0.02    -0.248 N 
DOCKED: ATOM     27  N   UNL d   1      -6.585  -6.420  20.636 -0.11 +0.03    -0.248 N 
DOCKED: ATOM     28  N   UNL d   1      -8.621  -8.260  19.683 -0.05 -0.00    -0.248 N 
DOCKED: ATOM     29 FE   UNL d   1      -8.560  -6.318  20.252 -0.03 -0.00    +0.000 Fe
DOCKED: ATOM     30  O   UNL d   1      -8.902  -5.482  18.985 -0.42 -0.00    +0.000 OA
DOCKED: ATOM     31  O   UNL d   1      -7.668  -6.461  18.965 -0.32 -0.00    +0.000 OA
DOCKED: ENDROOT
DOCKED: BRANCH   6  32
DOCKED: ATOM     32  C   UNL d   1     -13.898  -7.357  18.739 -0.15 +0.04    +0.052 C 
DOCKED: BRANCH  32  33
DOCKED: ATOM     33  C   UNL d   1     -14.165  -8.696  19.419 -0.10 +0.06    +0.115 C 
DOCKED: BRANCH  33  34
DOCKED: ATOM     34  C   UNL d   1     -15.623  -9.084  19.373 -0.09 +0.10    +0.139 C 
DOCKED: ATOM     35  O   UNL d   1     -16.342  -8.622  18.502 -0.26 -1.23    -0.650 OA
DOCKED: BRANCH  34  36
DOCKED: ATOM     36  O   UNL d   1     -16.159  -9.911  20.294 +0.01 -0.24    -0.776 OA
DOCKED: ATOM     37  H   UNL d   1     -15.665 -10.203  21.069 +0.01 +0.03    +0.167 HD
DOCKED: ENDBRANCH  34  36
DOCKED: ENDBRANCH  33  34
DOCKED: ENDBRANCH  32  33
DOCKED: ENDBRANCH   6  32
DOCKED: BRANCH  22  38
DOCKED: ATOM     38  C   UNL d   1     -10.239 -11.406  18.548 -0.09 +0.01    +0.052 C 
DOCKED: BRANCH  38  39
DOCKED: ATOM     39  C   UNL d   1     -10.835 -11.099  17.175 -0.22 +0.03    +0.115 C 
DOCKED: BRANCH  39  40
DOCKED: ATOM     40  C   UNL d   1      -9.880 -11.411  16.050 -0.22 +0.10    +0.139 C 
DOCKED: ATOM     41  O   UNL d   1      -9.551 -10.529  15.273 -0.04 -0.68    -0.650 OA
DOCKED: BRANCH  40  42
DOCKED: ATOM     42  O   UNL d   1      -9.340 -12.637  15.915 -0.42 -0.85    -0.776 OA
DOCKED: ATOM     43  H   UNL d   1      -9.891 -13.423  15.817 -0.30 +0.08    +0.167 HD
DOCKED: ENDBRANCH  40  42
DOCKED: ENDBRANCH  39  40
DOCKED: ENDBRANCH  38  39
DOCKED: ENDBRANCH  22  38
DOCKED: BRANCH  12  44
DOCKED: ATOM     44  C   UNL d   1      -7.161  -1.208  22.456 -0.06 -0.00    +0.004 C 
DOCKED: ATOM     45  C   UNL d   1      -6.065  -0.579  22.032 -0.06 -0.00    +0.012 C 
DOCKED: ENDBRANCH  12  44
DOCKED: BRANCH  17  46
DOCKED: ATOM     46  C   UNL d   1      -3.315  -8.177  20.543 -0.14 -0.00    +0.004 C 
DOCKED: ATOM     47  C   UNL d   1      -3.139  -9.392  21.078 -0.13 -0.00    +0.012 C 
DOCKED: ENDBRANCH  17  46
DOCKED: TORSDOF 10
DOCKED: TER
DOCKED: ENDMDL
________________________________________________________________________________


	BEGINNING GENETIC ALGORITHM DOCKING 5 of 100
Run: 5 Seed: 558488140 1007309053 [ Run 5 of 100 GA/GALS ]
Beginning LAMARCKIAN GENETIC ALGORITHM (LGA), with a maximum of 25000000 energy evaluations.

Final-Value: -11.122


	FINAL GENETIC ALGORITHM DOCKED STATE
	_______________________________________________


Detailed state:  trans -16.722 -1.573 3.870 quatxyzw 0.650317 -0.214774 0.720596 -0.108178 center 8.287 34.468 -0.670 ntor 10 -80.9469 9.0016 -59.5942 -126.2978 175.0845 -42.9583 -75.6993 -179.9544 -29.3788 -1.1134
State:	-16.722  -1.573   3.870   0.654 -0.216  0.725 -167.579    -80.95    9.00  -59.59 -126.30  175.08  -42.96  -75.70 -179.95  -29.38   -1.11

DOCKED: MODEL        5
DOCKED: USER    Run = 5
DOCKED: USER    DPF = D:/Protein_go_brrr/autodock/final/AncMH_nat/heme_O2/dock.dpf
DOCKED: USER  
DOCKED: USER    Estimated Free Energy of Binding    =   -7.53 kcal/mol  [=(1)+(2)+(3)-(4)]
DOCKED: USER    Estimated Inhibition Constant, Ki   =    3.05 uM (micromolar)  [Temperature = 298.15 K]
DOCKED: USER    
DOCKED: USER    (1) Final Intermolecular Energy     =  -10.51 kcal/mol
DOCKED: USER        vdW + Hbond + desolv Energy     =   -6.72 kcal/mol
DOCKED: USER        Electrostatic Energy            =   -3.79 kcal/mol
DOCKED: USER    (2) Final Total Internal Energy     =   -0.61 kcal/mol
DOCKED: USER    (3) Torsional Free Energy           =   +2.98 kcal/mol
DOCKED: USER    (4) Unbound System's Energy  [=(2)] =   -0.61 kcal/mol
DOCKED: USER    
DOCKED: USER    
DOCKED: USER    NEWDPF move heme_O2_opt.pdbqt
DOCKED: USER    NEWDPF about 8.287000 34.468000 -0.670000
DOCKED: USER    NEWDPF tran0 -16.721521 -1.573232 3.869566
DOCKED: USER    NEWDPF quaternion0 0.650317 -0.214774 0.720596 -0.108178
DOCKED: USER    NEWDPF axisangle0 0.654155 -0.216041 0.724849 -167.579374
DOCKED: USER    NEWDPF quat0 0.654155 -0.216041 0.724849 -167.579374
DOCKED: USER    NEWDPF dihe0 -80.95 9.00 -59.59 -126.30 175.08 -42.96 -75.70 -179.95 -29.38 -1.11 
DOCKED: USER  keepresnum = 1 
DOCKED: USER  
DOCKED: REMARK  10 active torsions:
DOCKED: REMARK  status: ('A' for Active; 'I' for Inactive)
DOCKED: REMARK    1  A    between atoms: C_6  and  C_10 
DOCKED: REMARK    2  A    between atoms: C_10  and  C_11 
DOCKED: REMARK    3  A    between atoms: C_11  and  C_12 
DOCKED: REMARK    4  A    between atoms: C_12  and  O_14 
DOCKED: REMARK    5  A    between atoms: C_17  and  C_20 
DOCKED: REMARK    6  A    between atoms: C_24  and  C_27 
DOCKED: REMARK    7  A    between atoms: C_31  and  C_34 
DOCKED: REMARK    8  A    between atoms: C_34  and  C_35 
DOCKED: REMARK    9  A    between atoms: C_35  and  C_36 
DOCKED: REMARK   10  A    between atoms: C_36  and  O_38 
DOCKED: USER                              x       y       z     vdW  Elec       q    Type
DOCKED: USER                           _______ _______ _______ _____ _____    ______ ____
DOCKED: ROOT
DOCKED: ATOM      1  C   UNL d   1     -17.452  -1.515   1.879 -0.06 +0.06    +0.064 A 
DOCKED: ATOM      2  C   UNL d   1     -13.116  -0.917   3.725 -0.21 +0.04    +0.064 A 
DOCKED: ATOM      3  C   UNL d   1     -14.820  -1.562   8.172 -0.32 +0.01    +0.064 C 
DOCKED: ATOM      4  C   UNL d   1     -19.199  -2.652   6.248 -0.06 +0.03    +0.064 A 
DOCKED: ATOM      5  C   UNL d   1     -16.133  -1.301   2.018 -0.13 +0.07    +0.066 A 
DOCKED: ATOM      6  C   UNL d   1     -15.265  -1.043   0.953 -0.19 -0.03    -0.021 A 
DOCKED: ATOM      7  C   UNL d   1     -14.002  -0.913   1.482 -0.25 -0.03    -0.025 A 
DOCKED: ATOM      8  C   UNL d   1     -14.141  -1.047   2.860 -0.22 +0.06    +0.066 A 
DOCKED: ATOM      9  C   UNL d   1     -12.742  -0.701   0.671 -0.22 +0.05    +0.051 C 
DOCKED: ATOM     10  C   UNL d   1     -13.204  -1.024   5.182 -0.26 +0.02    +0.066 A 
DOCKED: ATOM     11  C   UNL d   1     -12.143  -0.719   6.041 -0.36 -0.00    -0.021 A 
DOCKED: ATOM     12  C   UNL d   1     -12.620  -0.881   7.329 -0.46 +0.00    +0.000 A 
DOCKED: ATOM     13  C   UNL d   1     -13.972  -1.298   7.178 -0.21 +0.01    +0.070 A 
DOCKED: ATOM     14  C   UNL d   1     -10.741  -0.265   5.651 -0.45 +0.01    +0.052 C 
DOCKED: ATOM     15  C   UNL d   1     -16.184  -2.019   8.061 -0.21 +0.02    +0.066 A 
DOCKED: ATOM     16  C   UNL d   1     -16.968  -2.436   9.137 -0.21 -0.00    -0.021 A 
DOCKED: ATOM     17  C   UNL d   1     -18.221  -2.753   8.612 -0.14 +0.00    +0.000 A 
DOCKED: ATOM     18  C   UNL d   1     -18.107  -2.500   7.238 -0.09 +0.02    +0.070 A 
DOCKED: ATOM     19  C   UNL d   1     -16.440  -2.546  10.545 -0.28 +0.01    +0.052 C 
DOCKED: ATOM     20  C   UNL d   1     -19.112  -2.460   4.918 -0.03 +0.04    +0.066 A 
DOCKED: ATOM     21  C   UNL d   1     -20.181  -2.602   4.037 -0.02 -0.01    -0.025 A 
DOCKED: ATOM     22  C   UNL d   1     -19.708  -2.255   2.791 -0.01 -0.01    -0.021 A 
DOCKED: ATOM     23  C   UNL d   1     -18.358  -1.931   2.956 -0.02 +0.05    +0.066 A 
DOCKED: ATOM     24  C   UNL d   1     -21.581  -3.049   4.367 -0.01 +0.02    +0.051 C 
DOCKED: ATOM     25  N   UNL d   1     -15.443  -1.351   3.184 -0.09 -0.21    -0.248 N 
DOCKED: ATOM     26  N   UNL d   1     -14.318  -1.386   5.869 -0.03 -0.08    -0.248 N 
DOCKED: ATOM     27  N   UNL d   1     -16.843  -2.128   6.911 -0.07 -0.09    -0.248 N 
DOCKED: ATOM     28  N   UNL d   1     -17.988  -2.101   4.242 -0.01 -0.16    -0.248 N 
DOCKED: ATOM     29 FE   UNL d   1     -16.167  -1.747   5.052 -0.04 +0.00    +0.000 Fe
DOCKED: ATOM     30  O   UNL d   1     -15.223  -2.853   4.497 -0.20 +0.00    +0.000 OA
DOCKED: ATOM     31  O   UNL d   1     -16.511  -3.260   5.306 -0.16 +0.00    +0.000 OA
DOCKED: ENDROOT
DOCKED: BRANCH   6  32
DOCKED: ATOM     32  C   UNL d   1     -15.583  -1.055  -0.520 -0.15 +0.07    +0.052 C 
DOCKED: BRANCH  32  33
DOCKED: ATOM     33  C   UNL d   1     -16.749  -0.140  -0.882 -0.07 +0.15    +0.115 C 
DOCKED: BRANCH  33  34
DOCKED: ATOM     34  C   UNL d   1     -16.291   1.161  -1.494 +0.17 +0.22    +0.139 C 
DOCKED: ATOM     35  O   UNL d   1     -15.204   1.217  -2.048 +0.01 -0.85    -0.650 OA
DOCKED: BRANCH  34  36
DOCKED: ATOM     36  O   UNL d   1     -17.045   2.277  -1.421 -0.04 -1.24    -0.776 OA
DOCKED: ATOM     37  H   UNL d   1     -17.785   2.434  -2.018 +0.01 +0.16    +0.167 HD
DOCKED: ENDBRANCH  34  36
DOCKED: ENDBRANCH  33  34
DOCKED: ENDBRANCH  32  33
DOCKED: ENDBRANCH   6  32
DOCKED: BRANCH  22  38
DOCKED: ATOM     38  C   UNL d   1     -20.498  -2.298   1.509 +0.00 +0.03    +0.052 C 
DOCKED: BRANCH  38  39
DOCKED: ATOM     39  C   UNL d   1     -20.997  -0.918   1.087 -0.00 +0.08    +0.115 C 
DOCKED: BRANCH  39  40
DOCKED: ATOM     40  C   UNL d   1     -20.605   0.161   2.065 +0.02 +0.19    +0.139 C 
DOCKED: ATOM     41  O   UNL d   1     -19.666   0.898   1.812 -0.14 -1.17    -0.650 OA
DOCKED: BRANCH  40  42
DOCKED: ATOM     42  O   UNL d   1     -21.308   0.362   3.197 -0.29 -1.48    -0.776 OA
DOCKED: ATOM     43  H   UNL d   1     -21.970  -0.272   3.500 +0.01 +0.18    +0.167 HD
DOCKED: ENDBRANCH  40  42
DOCKED: ENDBRANCH  39  40
DOCKED: ENDBRANCH  38  39
DOCKED: ENDBRANCH  22  38
DOCKED: BRANCH  12  44
DOCKED: ATOM     44  C   UNL d   1     -11.753  -0.631   8.545 -0.55 +0.00    +0.004 C 
DOCKED: ATOM     45  C   UNL d   1     -11.914   0.296   9.489 -0.38 +0.00    +0.012 C 
DOCKED: ENDBRANCH  12  44
DOCKED: BRANCH  17  46
DOCKED: ATOM     46  C   UNL d   1     -19.455  -3.310   9.270 -0.13 +0.00    +0.004 C 
DOCKED: ATOM     47  C   UNL d   1     -20.233  -4.317   8.853 -0.16 +0.00    +0.012 C 
DOCKED: ENDBRANCH  17  46
DOCKED: TORSDOF 10
DOCKED: TER
DOCKED: ENDMDL
________________________________________________________________________________


	BEGINNING GENETIC ALGORITHM DOCKING 6 of 100
Run: 6 Seed: 1143838805 21922433 [ Run 6 of 100 GA/GALS ]
Beginning LAMARCKIAN GENETIC ALGORITHM (LGA), with a maximum of 25000000 energy evaluations.

Final-Value: -12.203


	FINAL GENETIC ALGORITHM DOCKED STATE
	_______________________________________________


Detailed state:  trans -14.027 -0.575 1.303 quatxyzw 0.449285 -0.289524 0.836140 0.123243 center 8.287 34.468 -0.670 ntor 10 -31.1911 -68.9980 -67.8828 -95.1022 -137.6895 179.2005 157.5346 -74.6274 9.6966 129.6923
State:	-14.027  -0.575   1.303   0.453 -0.292  0.843 165.841    -31.19  -69.00  -67.88  -95.10 -137.69  179.20  157.53  -74.63    9.70  129.69

DOCKED: MODEL        6
DOCKED: USER    Run = 6
DOCKED: USER    DPF = D:/Protein_go_brrr/autodock/final/AncMH_nat/heme_O2/dock.dpf
DOCKED: USER  
DOCKED: USER    Estimated Free Energy of Binding    =   -8.54 kcal/mol  [=(1)+(2)+(3)-(4)]
DOCKED: USER    Estimated Inhibition Constant, Ki   =  546.01 nM (nanomolar)  [Temperature = 298.15 K]
DOCKED: USER    
DOCKED: USER    (1) Final Intermolecular Energy     =  -11.53 kcal/mol
DOCKED: USER        vdW + Hbond + desolv Energy     =   -8.71 kcal/mol
DOCKED: USER        Electrostatic Energy            =   -2.82 kcal/mol
DOCKED: USER    (2) Final Total Internal Energy     =   -0.68 kcal/mol
DOCKED: USER    (3) Torsional Free Energy           =   +2.98 kcal/mol
DOCKED: USER    (4) Unbound System's Energy  [=(2)] =   -0.68 kcal/mol
DOCKED: USER    
DOCKED: USER    
DOCKED: USER    NEWDPF move heme_O2_opt.pdbqt
DOCKED: USER    NEWDPF about 8.287000 34.468000 -0.670000
DOCKED: USER    NEWDPF tran0 -14.026506 -0.575234 1.302970
DOCKED: USER    NEWDPF quaternion0 0.449285 -0.289524 0.836140 0.123243
DOCKED: USER    NEWDPF axisangle0 0.452736 -0.291748 0.842563 165.841433
DOCKED: USER    NEWDPF quat0 0.452736 -0.291748 0.842563 165.841433
DOCKED: USER    NEWDPF dihe0 -31.19 -69.00 -67.88 -95.10 -137.69 179.20 157.53 -74.63 9.70 129.69 
DOCKED: USER  keepresnum = 1 
DOCKED: USER  
DOCKED: REMARK  10 active torsions:
DOCKED: REMARK  status: ('A' for Active; 'I' for Inactive)
DOCKED: REMARK    1  A    between atoms: C_6  and  C_10 
DOCKED: REMARK    2  A    between atoms: C_10  and  C_11 
DOCKED: REMARK    3  A    between atoms: C_11  and  C_12 
DOCKED: REMARK    4  A    between atoms: C_12  and  O_14 
DOCKED: REMARK    5  A    between atoms: C_17  and  C_20 
DOCKED: REMARK    6  A    between atoms: C_24  and  C_27 
DOCKED: REMARK    7  A    between atoms: C_31  and  C_34 
DOCKED: REMARK    8  A    between atoms: C_34  and  C_35 
DOCKED: REMARK    9  A    between atoms: C_35  and  C_36 
DOCKED: REMARK   10  A    between atoms: C_36  and  O_38 
DOCKED: USER                              x       y       z     vdW  Elec       q    Type
DOCKED: USER                           _______ _______ _______ _____ _____    ______ ____
DOCKED: ROOT
DOCKED: ATOM      1  C   UNL d   1     -13.659   0.113  -0.670 -0.13 +0.09    +0.064 A 
DOCKED: ATOM      2  C   UNL d   1     -11.127   0.367   3.341 -0.30 +0.03    +0.064 A 
DOCKED: ATOM      3  C   UNL d   1     -14.587  -1.908   5.779 -0.24 +0.02    +0.064 C 
DOCKED: ATOM      4  C   UNL d   1     -16.992  -2.600   1.560 -0.07 +0.06    +0.064 A 
DOCKED: ATOM      5  C   UNL d   1     -12.687   0.366   0.222 -0.20 +0.08    +0.066 A 
DOCKED: ATOM      6  C   UNL d   1     -11.503   1.043  -0.083 -0.26 -0.02    -0.021 A 
DOCKED: ATOM      7  C   UNL d   1     -10.750   1.079   1.067 -0.29 -0.01    -0.025 A 
DOCKED: ATOM      8  C   UNL d   1     -11.516   0.466   2.055 -0.27 +0.04    +0.066 A 
DOCKED: ATOM      9  C   UNL d   1      -9.354   1.656   1.171 -0.36 +0.01    +0.051 C 
DOCKED: ATOM     10  C   UNL d   1     -11.896  -0.244   4.425 -0.26 +0.02    +0.066 A 
DOCKED: ATOM     11  C   UNL d   1     -11.519  -0.174   5.771 -0.42 -0.00    -0.021 A 
DOCKED: ATOM     12  C   UNL d   1     -12.514  -0.809   6.492 -0.40 +0.00    +0.000 A 
DOCKED: ATOM     13  C   UNL d   1     -13.456  -1.251   5.522 -0.19 +0.02    +0.070 A 
DOCKED: ATOM     14  C   UNL d   1     -10.276   0.494   6.347 -0.42 +0.01    +0.052 C 
DOCKED: ATOM     15  C   UNL d   1     -15.549  -2.403   4.824 -0.12 +0.03    +0.066 A 
DOCKED: ATOM     16  C   UNL d   1     -16.629  -3.225   5.144 -0.11 -0.01    -0.021 A 
DOCKED: ATOM     17  C   UNL d   1     -17.329  -3.437   3.956 -0.08 +0.00    +0.000 A 
DOCKED: ATOM     18  C   UNL d   1     -16.615  -2.716   2.988 -0.07 +0.06    +0.070 A 
DOCKED: ATOM     19  C   UNL d   1     -16.862  -3.775   6.529 -0.18 +0.02    +0.052 C 
DOCKED: ATOM     20  C   UNL d   1     -16.308  -1.953   0.597 -0.08 +0.08    +0.066 A 
DOCKED: ATOM     21  C   UNL d   1     -16.722  -1.863  -0.729 -0.08 -0.03    -0.025 A 
DOCKED: ATOM     22  C   UNL d   1     -15.799  -1.070  -1.373 -0.13 -0.02    -0.021 A 
DOCKED: ATOM     23  C   UNL d   1     -14.841  -0.720  -0.417 -0.12 +0.09    +0.066 A 
DOCKED: ATOM     24  C   UNL d   1     -17.936  -2.503  -1.351 -0.08 +0.04    +0.051 C 
DOCKED: ATOM     25  N   UNL d   1     -12.681  -0.031   1.518 -0.16 -0.25    -0.248 N 
DOCKED: ATOM     26  N   UNL d   1     -13.070  -0.907   4.267 -0.18 -0.12    -0.248 N 
DOCKED: ATOM     27  N   UNL d   1     -15.497  -2.157   3.518 -0.07 -0.18    -0.248 N 
DOCKED: ATOM     28  N   UNL d   1     -15.130  -1.295   0.769 -0.14 -0.33    -0.248 N 
DOCKED: ATOM     29 FE   UNL d   1     -14.110  -1.104   2.506 -0.05 +0.00    +0.000 Fe
DOCKED: ATOM     30  O   UNL d   1     -12.770  -1.873   2.311 -0.04 +0.00    +0.000 OA
DOCKED: ATOM     31  O   UNL d   1     -14.139  -2.634   2.142 -0.49 +0.00    +0.000 OA
DOCKED: ENDROOT
DOCKED: BRANCH   6  32
DOCKED: ATOM     32  C   UNL d   1     -11.032   1.518  -1.433 -0.29 +0.02    +0.052 C 
DOCKED: BRANCH  32  33
DOCKED: ATOM     33  C   UNL d   1     -11.419   2.966  -1.720 -0.19 +0.05    +0.115 C 
DOCKED: BRANCH  33  34
DOCKED: ATOM     34  C   UNL d   1     -12.630   3.404  -0.934 -0.09 +0.16    +0.139 C 
DOCKED: ATOM     35  O   UNL d   1     -12.536   3.580   0.271 -0.24 -0.95    -0.650 OA
DOCKED: BRANCH  34  36
DOCKED: ATOM     36  O   UNL d   1     -13.828   3.581  -1.528 -0.01 -1.19    -0.776 OA
DOCKED: ATOM     37  H   UNL d   1     -13.906   3.867  -2.445 +0.04 +0.14    +0.167 HD
DOCKED: ENDBRANCH  34  36
DOCKED: ENDBRANCH  33  34
DOCKED: ENDBRANCH  32  33
DOCKED: ENDBRANCH   6  32
DOCKED: BRANCH  22  38
DOCKED: ATOM     38  C   UNL d   1     -15.807  -0.727  -2.840 -0.10 +0.04    +0.052 C 
DOCKED: BRANCH  38  39
DOCKED: ATOM     39  C   UNL d   1     -14.466  -1.015  -3.513 -0.11 +0.08    +0.115 C 
DOCKED: BRANCH  39  40
DOCKED: ATOM     40  C   UNL d   1     -14.501  -2.265  -4.356 -0.09 +0.10    +0.139 C 
DOCKED: ATOM     41  O   UNL d   1     -15.159  -3.225  -3.989 -0.38 -0.73    -0.650 OA
DOCKED: BRANCH  40  42
DOCKED: ATOM     42  O   UNL d   1     -13.857  -2.325  -5.538 +0.04 -0.33    -0.776 OA
DOCKED: ATOM     43  H   UNL d   1     -14.129  -1.784  -6.289 +0.03 +0.05    +0.167 HD
DOCKED: ENDBRANCH  40  42
DOCKED: ENDBRANCH  39  40
DOCKED: ENDBRANCH  38  39
DOCKED: ENDBRANCH  22  38
DOCKED: BRANCH  12  44
DOCKED: ATOM     44  C   UNL d   1     -12.461  -0.929   8.000 -0.56 +0.00    +0.004 C 
DOCKED: ATOM     45  C   UNL d   1     -13.203  -0.284   8.900 -0.55 +0.00    +0.012 C 
DOCKED: ENDBRANCH  12  44
DOCKED: BRANCH  17  46
DOCKED: ATOM     46  C   UNL d   1     -18.540  -4.281   3.659 -0.08 +0.00    +0.004 C 
DOCKED: ATOM     47  C   UNL d   1     -18.587  -5.484   3.074 -0.12 +0.01    +0.012 C 
DOCKED: ENDBRANCH  17  46
DOCKED: TORSDOF 10
DOCKED: TER
DOCKED: ENDMDL
________________________________________________________________________________


	BEGINNING GENETIC ALGORITHM DOCKING 7 of 100
Run: 7 Seed: 1207993373 1999891446 [ Run 7 of 100 GA/GALS ]
Beginning LAMARCKIAN GENETIC ALGORITHM (LGA), with a maximum of 25000000 energy evaluations.

Final-Value: -11.103


	FINAL GENETIC ALGORITHM DOCKED STATE
	_______________________________________________


Detailed state:  trans -9.734 -7.933 19.388 quatxyzw -0.720125 0.350565 -0.177834 -0.571751 center 8.287 34.468 -0.670 ntor 10 -150.1576 21.4169 100.7273 -68.5710 -27.8770 -29.9485 -59.0651 -7.7377 -131.0602 -3.2519
State:	 -9.734  -7.933  19.388  -0.878  0.427 -0.217 -110.255   -150.16   21.42  100.73  -68.57  -27.88  -29.95  -59.07   -7.74 -131.06   -3.25

DOCKED: MODEL        7
DOCKED: USER    Run = 7
DOCKED: USER    DPF = D:/Protein_go_brrr/autodock/final/AncMH_nat/heme_O2/dock.dpf
DOCKED: USER  
DOCKED: USER    Estimated Free Energy of Binding    =   -6.00 kcal/mol  [=(1)+(2)+(3)-(4)]
DOCKED: USER    Estimated Inhibition Constant, Ki   =   40.00 uM (micromolar)  [Temperature = 298.15 K]
DOCKED: USER    
DOCKED: USER    (1) Final Intermolecular Energy     =   -8.98 kcal/mol
DOCKED: USER        vdW + Hbond + desolv Energy     =   -6.93 kcal/mol
DOCKED: USER        Electrostatic Energy            =   -2.06 kcal/mol
DOCKED: USER    (2) Final Total Internal Energy     =   -2.12 kcal/mol
DOCKED: USER    (3) Torsional Free Energy           =   +2.98 kcal/mol
DOCKED: USER    (4) Unbound System's Energy  [=(2)] =   -2.12 kcal/mol
DOCKED: USER    
DOCKED: USER    
DOCKED: USER    NEWDPF move heme_O2_opt.pdbqt
DOCKED: USER    NEWDPF about 8.287000 34.468000 -0.670000
DOCKED: USER    NEWDPF tran0 -9.734460 -7.932666 19.387901
DOCKED: USER    NEWDPF quaternion0 -0.720125 0.350565 -0.177834 -0.571751
DOCKED: USER    NEWDPF axisangle0 -0.877744 0.427295 -0.216758 -110.255160
DOCKED: USER    NEWDPF quat0 -0.877744 0.427295 -0.216758 -110.255160
DOCKED: USER    NEWDPF dihe0 -150.16 21.42 100.73 -68.57 -27.88 -29.95 -59.07 -7.74 -131.06 -3.25 
DOCKED: USER  keepresnum = 1 
DOCKED: USER  
DOCKED: REMARK  10 active torsions:
DOCKED: REMARK  status: ('A' for Active; 'I' for Inactive)
DOCKED: REMARK    1  A    between atoms: C_6  and  C_10 
DOCKED: REMARK    2  A    between atoms: C_10  and  C_11 
DOCKED: REMARK    3  A    between atoms: C_11  and  C_12 
DOCKED: REMARK    4  A    between atoms: C_12  and  O_14 
DOCKED: REMARK    5  A    between atoms: C_17  and  C_20 
DOCKED: REMARK    6  A    between atoms: C_24  and  C_27 
DOCKED: REMARK    7  A    between atoms: C_31  and  C_34 
DOCKED: REMARK    8  A    between atoms: C_34  and  C_35 
DOCKED: REMARK    9  A    between atoms: C_35  and  C_36 
DOCKED: REMARK   10  A    between atoms: C_36  and  O_38 
DOCKED: USER                              x       y       z     vdW  Elec       q    Type
DOCKED: USER                           _______ _______ _______ _____ _____    ______ ____
DOCKED: ROOT
DOCKED: ATOM      1  C   UNL d   1     -11.734  -7.228  19.314 -0.11 +0.01    +0.064 A 
DOCKED: ATOM      2  C   UNL d   1      -7.664  -5.196  20.681 -0.17 -0.01    +0.064 A 
DOCKED: ATOM      3  C   UNL d   1      -5.227  -9.230  19.741 -0.18 -0.01    +0.064 C 
DOCKED: ATOM      4  C   UNL d   1      -9.328 -11.177  17.882 -0.11 +0.01    +0.064 A 
DOCKED: ATOM      5  C   UNL d   1     -10.825  -6.345  19.761 -0.12 +0.01    +0.066 A 
DOCKED: ATOM      6  C   UNL d   1     -11.133  -5.045  20.170 -0.14 -0.00    -0.021 A 
DOCKED: ATOM      7  C   UNL d   1      -9.949  -4.441  20.525 -0.17 +0.00    -0.025 A 
DOCKED: ATOM      8  C   UNL d   1      -8.957  -5.405  20.369 -0.18 -0.00    +0.066 A 
DOCKED: ATOM      9  C   UNL d   1      -9.809  -2.998  20.960 -0.08 -0.01    +0.051 C 
DOCKED: ATOM     10  C   UNL d   1      -6.583  -6.175  20.560 -0.15 -0.01    +0.066 A 
DOCKED: ATOM     11  C   UNL d   1      -5.291  -5.959  21.051 -0.15 +0.00    -0.021 A 
DOCKED: ATOM     12  C   UNL d   1      -4.578  -7.118  20.806 -0.22 -0.00    +0.000 A 
DOCKED: ATOM     13  C   UNL d   1      -5.493  -7.990  20.153 -0.23 -0.01    +0.070 A 
DOCKED: ATOM     14  C   UNL d   1      -4.766  -4.710  21.749 -0.13 -0.01    +0.052 C 
DOCKED: ATOM     15  C   UNL d   1      -6.114 -10.131  19.046 -0.16 -0.00    +0.066 A 
DOCKED: ATOM     16  C   UNL d   1      -5.728 -11.353  18.496 -0.13 -0.00    -0.021 A 
DOCKED: ATOM     17  C   UNL d   1      -6.880 -11.926  17.959 -0.14 +0.00    +0.000 A 
DOCKED: ATOM     18  C   UNL d   1      -7.898 -10.999  18.228 -0.12 +0.01    +0.070 A 
DOCKED: ATOM     19  C   UNL d   1      -4.298 -11.833  18.482 -0.09 -0.00    +0.052 C 
DOCKED: ATOM     20  C   UNL d   1     -10.321 -10.291  18.086 -0.11 +0.01    +0.066 A 
DOCKED: ATOM     21  C   UNL d   1     -11.654 -10.522  17.755 -0.18 -0.01    -0.025 A 
DOCKED: ATOM     22  C   UNL d   1     -12.358  -9.418  18.181 -0.16 -0.01    -0.021 A 
DOCKED: ATOM     23  C   UNL d   1     -11.423  -8.543  18.742 -0.11 +0.01    +0.066 A 
DOCKED: ATOM     24  C   UNL d   1     -12.225 -11.733  17.064 -0.10 +0.00    +0.051 C 
DOCKED: ATOM     25  N   UNL d   1      -9.488  -6.557  19.836 -0.08 -0.01    -0.248 N 
DOCKED: ATOM     26  N   UNL d   1      -6.709  -7.407  20.004 -0.15 +0.03    -0.248 N 
DOCKED: ATOM     27  N   UNL d   1      -7.401  -9.884  18.821 -0.09 -0.01    -0.248 N 
DOCKED: ATOM     28  N   UNL d   1     -10.180  -9.058  18.642 -0.04 -0.03    -0.248 N 
DOCKED: ATOM     29 FE   UNL d   1      -8.456  -8.241  19.317 -0.04 -0.00    +0.000 Fe
DOCKED: ATOM     30  O   UNL d   1      -8.166  -7.018  18.399 -0.44 -0.00    +0.000 OA
DOCKED: ATOM     31  O   UNL d   1      -8.302  -8.454  17.766 -0.38 -0.00    +0.000 OA
DOCKED: ENDROOT
DOCKED: BRANCH   6  32
DOCKED: ATOM     32  C   UNL d   1     -12.467  -4.346  20.102 -0.14 +0.00    +0.052 C 
DOCKED: BRANCH  32  33
DOCKED: ATOM     33  C   UNL d   1     -13.150  -4.507  18.747 -0.12 +0.03    +0.115 C 
DOCKED: BRANCH  33  34
DOCKED: ATOM     34  C   UNL d   1     -14.477  -5.216  18.853 -0.14 +0.09    +0.139 C 
DOCKED: ATOM     35  O   UNL d   1     -15.127  -5.434  17.843 -0.12 -0.94    -0.650 OA
DOCKED: BRANCH  34  36
DOCKED: ATOM     36  O   UNL d   1     -14.980  -5.594  20.047 +0.03 -0.36    -0.776 OA
DOCKED: ATOM     37  H   UNL d   1     -15.547  -6.368  20.141 +0.02 +0.10    +0.167 HD
DOCKED: ENDBRANCH  34  36
DOCKED: ENDBRANCH  33  34
DOCKED: ENDBRANCH  32  33
DOCKED: ENDBRANCH   6  32
DOCKED: BRANCH  22  38
DOCKED: ATOM     38  C   UNL d   1     -13.837  -9.195  17.997 -0.08 +0.03    +0.052 C 
DOCKED: BRANCH  38  39
DOCKED: ATOM     39  C   UNL d   1     -14.638  -9.546  19.248 -0.11 +0.05    +0.115 C 
DOCKED: BRANCH  39  40
DOCKED: ATOM     40  C   UNL d   1     -16.083  -9.126  19.144 -0.07 +0.12    +0.139 C 
DOCKED: ATOM     41  O   UNL d   1     -16.961  -9.973  19.125 -0.06 -0.36    -0.650 OA
DOCKED: BRANCH  40  42
DOCKED: ATOM     42  O   UNL d   1     -16.429  -7.824  19.124 -0.49 -1.13    -0.776 OA
DOCKED: ATOM     43  H   UNL d   1     -15.811  -7.142  18.833 +0.02 +0.30    +0.167 HD
DOCKED: ENDBRANCH  40  42
DOCKED: ENDBRANCH  39  40
DOCKED: ENDBRANCH  38  39
DOCKED: ENDBRANCH  22  38
DOCKED: BRANCH  12  44
DOCKED: ATOM     44  C   UNL d   1      -3.125  -7.269  21.208 -0.20 -0.00    +0.004 C 
DOCKED: ATOM     45  C   UNL d   1      -2.045  -6.864  20.541 -0.26 -0.01    +0.012 C 
DOCKED: ENDBRANCH  12  44
DOCKED: BRANCH  17  46
DOCKED: ATOM     46  C   UNL d   1      -7.082 -13.204  17.189 -0.19 +0.00    +0.004 C 
DOCKED: ATOM     47  C   UNL d   1      -6.773 -13.459  15.912 -0.35 +0.01    +0.012 C 
DOCKED: ENDBRANCH  17  46
DOCKED: TORSDOF 10
DOCKED: TER
DOCKED: ENDMDL
________________________________________________________________________________


	BEGINNING GENETIC ALGORITHM DOCKING 8 of 100
Run: 8 Seed: 182634047 716866446 [ Run 8 of 100 GA/GALS ]
Beginning LAMARCKIAN GENETIC ALGORITHM (LGA), with a maximum of 25000000 energy evaluations.

Final-Value: -16.486


	FINAL GENETIC ALGORITHM DOCKED STATE
	_______________________________________________


Detailed state:  trans -9.973 0.740 4.291 quatxyzw 0.892006 -0.036521 0.426733 -0.144540 center 8.287 34.468 -0.670 ntor 10 -169.9613 -179.4654 -4.6723 -31.9657 -48.8616 12.9880 30.1456 84.0146 143.8521 157.3537
State:	 -9.973   0.740   4.291   0.901 -0.037  0.431 -163.379   -169.96 -179.47   -4.67  -31.97  -48.86   12.99   30.15   84.01  143.85  157.35

DOCKED: MODEL        8
DOCKED: USER    Run = 8
DOCKED: USER    DPF = D:/Protein_go_brrr/autodock/final/AncMH_nat/heme_O2/dock.dpf
DOCKED: USER  
DOCKED: USER    Estimated Free Energy of Binding    =  -13.09 kcal/mol  [=(1)+(2)+(3)-(4)]
DOCKED: USER    Estimated Inhibition Constant, Ki   =  255.25 pM (picomolar)  [Temperature = 298.15 K]
DOCKED: USER    
DOCKED: USER    (1) Final Intermolecular Energy     =  -16.07 kcal/mol
DOCKED: USER        vdW + Hbond + desolv Energy     =  -13.92 kcal/mol
DOCKED: USER        Electrostatic Energy            =   -2.15 kcal/mol
DOCKED: USER    (2) Final Total Internal Energy     =   -0.42 kcal/mol
DOCKED: USER    (3) Torsional Free Energy           =   +2.98 kcal/mol
DOCKED: USER    (4) Unbound System's Energy  [=(2)] =   -0.42 kcal/mol
DOCKED: USER    
DOCKED: USER    
DOCKED: USER    NEWDPF move heme_O2_opt.pdbqt
DOCKED: USER    NEWDPF about 8.287000 34.468000 -0.670000
DOCKED: USER    NEWDPF tran0 -9.973013 0.739551 4.291304
DOCKED: USER    NEWDPF quaternion0 0.892006 -0.036521 0.426733 -0.144540
DOCKED: USER    NEWDPF axisangle0 0.901472 -0.036908 0.431261 -163.378760
DOCKED: USER    NEWDPF quat0 0.901472 -0.036908 0.431261 -163.378760
DOCKED: USER    NEWDPF dihe0 -169.96 -179.47 -4.67 -31.97 -48.86 12.99 30.15 84.01 143.85 157.35 
DOCKED: USER  keepresnum = 1 
DOCKED: USER  
DOCKED: REMARK  10 active torsions:
DOCKED: REMARK  status: ('A' for Active; 'I' for Inactive)
DOCKED: REMARK    1  A    between atoms: C_6  and  C_10 
DOCKED: REMARK    2  A    between atoms: C_10  and  C_11 
DOCKED: REMARK    3  A    between atoms: C_11  and  C_12 
DOCKED: REMARK    4  A    between atoms: C_12  and  O_14 
DOCKED: REMARK    5  A    between atoms: C_17  and  C_20 
DOCKED: REMARK    6  A    between atoms: C_24  and  C_27 
DOCKED: REMARK    7  A    between atoms: C_31  and  C_34 
DOCKED: REMARK    8  A    between atoms: C_34  and  C_35 
DOCKED: REMARK    9  A    between atoms: C_35  and  C_36 
DOCKED: REMARK   10  A    between atoms: C_36  and  O_38 
DOCKED: USER                              x       y       z     vdW  Elec       q    Type
DOCKED: USER                           _______ _______ _______ _____ _____    ______ ____
DOCKED: ROOT
DOCKED: ATOM      1  C   UNL d   1     -11.871   0.287   3.460 -0.29 +0.03    +0.064 A 
DOCKED: ATOM      2  C   UNL d   1      -7.830   1.889   1.546 -0.33 +0.01    +0.064 A 
DOCKED: ATOM      3  C   UNL d   1      -5.689   1.901   5.849 -0.29 +0.00    +0.064 C 
DOCKED: ATOM      4  C   UNL d   1      -9.691  -0.201   7.755 -0.10 +0.01    +0.064 A 
DOCKED: ATOM      5  C   UNL d   1     -10.946   0.720   2.588 -0.29 +0.03    +0.066 A 
DOCKED: ATOM      6  C   UNL d   1     -11.177   0.887   1.219 -0.29 -0.01    -0.021 A 
DOCKED: ATOM      7  C   UNL d   1      -9.996   1.309   0.657 -0.32 -0.01    -0.025 A 
DOCKED: ATOM      8  C   UNL d   1      -9.088   1.436   1.706 -0.29 +0.02    +0.066 A 
DOCKED: ATOM      9  C   UNL d   1      -9.775   1.542  -0.821 -0.28 +0.01    +0.051 C 
DOCKED: ATOM     10  C   UNL d   1      -6.841   2.065   2.610 -0.31 +0.01    +0.066 A 
DOCKED: ATOM     11  C   UNL d   1      -5.605   2.693   2.417 -0.38 -0.00    -0.021 A 
DOCKED: ATOM     12  C   UNL d   1      -4.981   2.722   3.650 -0.38 -0.00    +0.000 A 
DOCKED: ATOM     13  C   UNL d   1      -5.885   2.085   4.544 -0.32 +0.00    +0.070 A 
DOCKED: ATOM     14  C   UNL d   1      -5.056   3.266   1.115 -0.45 -0.00    +0.052 C 
DOCKED: ATOM     15  C   UNL d   1      -6.564   1.230   6.780 -0.38 +0.00    +0.066 A 
DOCKED: ATOM     16  C   UNL d   1      -6.230   0.924   8.099 -0.47 -0.00    -0.021 A 
DOCKED: ATOM     17  C   UNL d   1      -7.355   0.323   8.662 -0.46 +0.00    +0.000 A 
DOCKED: ATOM     18  C   UNL d   1      -8.305   0.309   7.632 -0.38 +0.01    +0.070 A 
DOCKED: ATOM     19  C   UNL d   1      -4.862   1.180   8.681 -0.59 -0.00    +0.052 C 
DOCKED: ATOM     20  C   UNL d   1     -10.614  -0.269   6.775 -0.35 +0.01    +0.066 A 
DOCKED: ATOM     21  C   UNL d   1     -11.910  -0.744   6.956 -0.32 -0.00    -0.025 A 
DOCKED: ATOM     22  C   UNL d   1     -12.554  -0.587   5.749 -0.35 -0.01    -0.021 A 
DOCKED: ATOM     23  C   UNL d   1     -11.618  -0.037   4.868 -0.32 +0.02    +0.066 A 
DOCKED: ATOM     24  C   UNL d   1     -12.503  -1.322   8.215 -0.36 +0.00    +0.051 C 
DOCKED: ATOM     25  N   UNL d   1      -9.655   1.010   2.885 -0.16 -0.08    -0.248 N 
DOCKED: ATOM     26  N   UNL d   1      -7.012   1.684   3.902 -0.02 -0.03    -0.248 N 
DOCKED: ATOM     27  N   UNL d   1      -7.783   0.795   6.476 -0.22 -0.04    -0.248 N 
DOCKED: ATOM     28  N   UNL d   1     -10.427   0.113   5.484 -0.27 -0.06    -0.248 N 
DOCKED: ATOM     29 FE   UNL d   1      -8.731   0.892   4.701 -0.08 +0.00    +0.000 Fe
DOCKED: ATOM     30  O   UNL d   1      -8.213  -0.147   3.664 -0.61 +0.00    +0.000 OA
DOCKED: ATOM     31  O   UNL d   1      -8.404  -0.574   5.169 -0.86 +0.00    +0.000 OA
DOCKED: ENDROOT
DOCKED: BRANCH   6  32
DOCKED: ATOM     32  C   UNL d   1     -12.419   0.532   0.443 -0.25 +0.06    +0.052 C 
DOCKED: BRANCH  32  33
DOCKED: ATOM     33  C   UNL d   1     -12.118  -0.246  -0.834 -0.11 +0.09    +0.115 C 
DOCKED: BRANCH  33  34
DOCKED: ATOM     34  C   UNL d   1     -13.162  -0.028  -1.900 -0.14 +0.12    +0.139 C 
DOCKED: ATOM     35  O   UNL d   1     -12.894  -0.271  -3.066 +0.00 -0.37    -0.650 OA
DOCKED: BRANCH  34  36
DOCKED: ATOM     36  O   UNL d   1     -14.384   0.459  -1.599 +0.04 -0.98    -0.776 OA
DOCKED: ATOM     37  H   UNL d   1     -15.104   0.466  -2.241 +0.03 +0.17    +0.167 HD
DOCKED: ENDBRANCH  34  36
DOCKED: ENDBRANCH  33  34
DOCKED: ENDBRANCH  32  33
DOCKED: ENDBRANCH   6  32
DOCKED: BRANCH  22  38
DOCKED: ATOM     38  C   UNL d   1     -13.970  -1.005   5.449 +0.20 +0.02    +0.052 C 
DOCKED: BRANCH  38  39
DOCKED: ATOM     39  C   UNL d   1     -14.038  -2.327   4.687 -0.25 +0.05    +0.115 C 
DOCKED: BRANCH  39  40
DOCKED: ATOM     40  C   UNL d   1     -14.185  -2.128   3.199 -0.21 +0.11    +0.139 C 
DOCKED: ATOM     41  O   UNL d   1     -13.849  -3.016   2.432 -0.44 -0.77    -0.650 OA
DOCKED: BRANCH  40  42
DOCKED: ATOM     42  O   UNL d   1     -14.730  -1.002   2.698 +0.06 -0.76    -0.776 OA
DOCKED: ATOM     43  H   UNL d   1     -14.870  -0.887   1.751 +0.05 +0.21    +0.167 HD
DOCKED: ENDBRANCH  40  42
DOCKED: ENDBRANCH  39  40
DOCKED: ENDBRANCH  38  39
DOCKED: ENDBRANCH  22  38
DOCKED: BRANCH  12  44
DOCKED: ATOM     44  C   UNL d   1      -3.611   3.339   3.843 -0.46 -0.00    +0.004 C 
DOCKED: ATOM     45  C   UNL d   1      -2.976   3.580   4.989 -0.60 -0.00    +0.012 C 
DOCKED: ENDBRANCH  12  44
DOCKED: BRANCH  17  46
DOCKED: ATOM     46  C   UNL d   1      -7.580  -0.270  10.028 -0.61 +0.00    +0.004 C 
DOCKED: ATOM     47  C   UNL d   1      -6.729  -0.994  10.767 -0.70 -0.00    +0.012 C 
DOCKED: ENDBRANCH  17  46
DOCKED: TORSDOF 10
DOCKED: TER
DOCKED: ENDMDL
________________________________________________________________________________


	BEGINNING GENETIC ALGORITHM DOCKING 9 of 100
Run: 9 Seed: 994695838 1967723685 [ Run 9 of 100 GA/GALS ]
Beginning LAMARCKIAN GENETIC ALGORITHM (LGA), with a maximum of 25000000 energy evaluations.

Final-Value: -13.819


	FINAL GENETIC ALGORITHM DOCKED STATE
	_______________________________________________


Detailed state:  trans -13.632 -0.764 1.300 quatxyzw -0.074016 -0.574732 -0.079216 -0.811129 center 8.287 34.468 -0.670 ntor 10 -13.0762 140.8003 -17.2475 21.4651 77.9345 -76.0960 -144.7891 141.8165 172.7476 177.0550
State:	-13.632  -0.764   1.300  -0.127 -0.983 -0.135 -71.587    -13.08  140.80  -17.25   21.47   77.93  -76.10 -144.79  141.82  172.75  177.05

DOCKED: MODEL        9
DOCKED: USER    Run = 9
DOCKED: USER    DPF = D:/Protein_go_brrr/autodock/final/AncMH_nat/heme_O2/dock.dpf
DOCKED: USER  
DOCKED: USER    Estimated Free Energy of Binding    =   -9.45 kcal/mol  [=(1)+(2)+(3)-(4)]
DOCKED: USER    Estimated Inhibition Constant, Ki   =  118.44 nM (nanomolar)  [Temperature = 298.15 K]
DOCKED: USER    
DOCKED: USER    (1) Final Intermolecular Energy     =  -12.43 kcal/mol
DOCKED: USER        vdW + Hbond + desolv Energy     =   -8.97 kcal/mol
DOCKED: USER        Electrostatic Energy            =   -3.46 kcal/mol
DOCKED: USER    (2) Final Total Internal Energy     =   -1.39 kcal/mol
DOCKED: USER    (3) Torsional Free Energy           =   +2.98 kcal/mol
DOCKED: USER    (4) Unbound System's Energy  [=(2)] =   -1.39 kcal/mol
DOCKED: USER    
DOCKED: USER    
DOCKED: USER    NEWDPF move heme_O2_opt.pdbqt
DOCKED: USER    NEWDPF about 8.287000 34.468000 -0.670000
DOCKED: USER    NEWDPF tran0 -13.632405 -0.763603 1.299579
DOCKED: USER    NEWDPF quaternion0 -0.074016 -0.574732 -0.079216 -0.811129
DOCKED: USER    NEWDPF axisangle0 -0.126552 -0.982670 -0.135442 -71.587280
DOCKED: USER    NEWDPF quat0 -0.126552 -0.982670 -0.135442 -71.587280
DOCKED: USER    NEWDPF dihe0 -13.08 140.80 -17.25 21.47 77.93 -76.10 -144.79 141.82 172.75 177.05 
DOCKED: USER  keepresnum = 1 
DOCKED: USER  
DOCKED: REMARK  10 active torsions:
DOCKED: REMARK  status: ('A' for Active; 'I' for Inactive)
DOCKED: REMARK    1  A    between atoms: C_6  and  C_10 
DOCKED: REMARK    2  A    between atoms: C_10  and  C_11 
DOCKED: REMARK    3  A    between atoms: C_11  and  C_12 
DOCKED: REMARK    4  A    between atoms: C_12  and  O_14 
DOCKED: REMARK    5  A    between atoms: C_17  and  C_20 
DOCKED: REMARK    6  A    between atoms: C_24  and  C_27 
DOCKED: REMARK    7  A    between atoms: C_31  and  C_34 
DOCKED: REMARK    8  A    between atoms: C_34  and  C_35 
DOCKED: REMARK    9  A    between atoms: C_35  and  C_36 
DOCKED: REMARK   10  A    between atoms: C_36  and  O_38 
DOCKED: USER                              x       y       z     vdW  Elec       q    Type
DOCKED: USER                           _______ _______ _______ _____ _____    ______ ____
DOCKED: ROOT
DOCKED: ATOM      1  C   UNL d   1     -13.378  -0.263  -0.746 -0.14 +0.07    +0.064 A 
DOCKED: ATOM      2  C   UNL d   1     -16.990  -2.195   1.660 -0.08 +0.06    +0.064 A 
DOCKED: ATOM      3  C   UNL d   1     -14.465  -2.051   5.746 -0.26 +0.02    +0.064 C 
DOCKED: ATOM      4  C   UNL d   1     -10.921   0.375   3.376 -0.29 +0.03    +0.064 A 
DOCKED: ATOM      5  C   UNL d   1     -14.567  -0.799  -0.425 -0.09 +0.09    +0.066 A 
DOCKED: ATOM      6  C   UNL d   1     -15.592  -1.038  -1.345 -0.12 -0.02    -0.021 A 
DOCKED: ATOM      7  C   UNL d   1     -16.654  -1.557  -0.642 -0.12 -0.03    -0.025 A 
DOCKED: ATOM      8  C   UNL d   1     -16.232  -1.666   0.680 -0.12 +0.08    +0.066 A 
DOCKED: ATOM      9  C   UNL d   1     -18.005  -1.893  -1.236 -0.07 +0.04    +0.051 C 
DOCKED: ATOM     10  C   UNL d   1     -16.593  -2.356   3.059 -0.08 +0.05    +0.066 A 
DOCKED: ATOM     11  C   UNL d   1     -17.354  -3.059   3.999 -0.06 -0.01    -0.021 A 
DOCKED: ATOM     12  C   UNL d   1     -16.634  -3.045   5.179 -0.11 +0.00    +0.000 A 
DOCKED: ATOM     13  C   UNL d   1     -15.454  -2.306   4.890 -0.13 +0.04    +0.070 A 
DOCKED: ATOM     14  C   UNL d   1     -18.699  -3.741   3.773 -0.06 +0.03    +0.052 C 
DOCKED: ATOM     15  C   UNL d   1     -13.271  -1.278   5.502 -0.26 +0.02    +0.066 A 
DOCKED: ATOM     16  C   UNL d   1     -12.354  -0.909   6.485 -0.37 -0.00    -0.021 A 
DOCKED: ATOM     17  C   UNL d   1     -11.334  -0.215   5.833 -0.45 +0.00    +0.000 A 
DOCKED: ATOM     18  C   UNL d   1     -11.711  -0.215   4.482 -0.24 +0.02    +0.070 A 
DOCKED: ATOM     19  C   UNL d   1     -12.557  -1.200   7.951 -0.42 +0.00    +0.052 C 
DOCKED: ATOM     20  C   UNL d   1     -11.273   0.431   2.077 -0.27 +0.04    +0.066 A 
DOCKED: ATOM     21  C   UNL d   1     -10.478   0.984   1.076 -0.30 -0.01    -0.025 A 
DOCKED: ATOM     22  C   UNL d   1     -11.151   0.787  -0.109 -0.29 -0.01    -0.021 A 
DOCKED: ATOM     23  C   UNL d   1     -12.344   0.134   0.216 -0.22 +0.06    +0.066 A 
DOCKED: ATOM     24  C   UNL d   1      -9.147   1.670   1.243 -0.36 +0.01    +0.051 C 
DOCKED: ATOM     25  N   UNL d   1     -14.969  -1.138   0.825 -0.14 -0.33    -0.248 N 
DOCKED: ATOM     26  N   UNL d   1     -15.439  -1.886   3.599 -0.08 -0.18    -0.248 N 
DOCKED: ATOM     27  N   UNL d   1     -12.925  -0.798   4.311 -0.18 -0.11    -0.248 N 
DOCKED: ATOM     28  N   UNL d   1     -12.434  -0.040   1.550 -0.16 -0.23    -0.248 N 
DOCKED: ATOM     29 FE   UNL d   1     -13.924  -0.956   2.570 -0.05 +0.00    +0.000 Fe
DOCKED: ATOM     30  O   UNL d   1     -15.159  -0.013   2.476 -0.31 +0.00    +0.000 OA
DOCKED: ATOM     31  O   UNL d   1     -13.818   0.517   3.111 -0.25 +0.00    +0.000 OA
DOCKED: ENDROOT
DOCKED: BRANCH   6  32
DOCKED: ATOM     32  C   UNL d   1     -15.627  -0.667  -2.805 -0.11 +0.04    +0.052 C 
DOCKED: BRANCH  32  33
DOCKED: ATOM     33  C   UNL d   1     -16.500   0.552  -3.086 -0.03 +0.08    +0.115 C 
DOCKED: BRANCH  33  34
DOCKED: ATOM     34  C   UNL d   1     -16.481   1.546  -1.951 +0.02 +0.18    +0.139 C 
DOCKED: ATOM     35  O   UNL d   1     -17.073   1.291  -0.915 -0.11 -1.12    -0.650 OA
DOCKED: BRANCH  34  36
DOCKED: ATOM     36  O   UNL d   1     -15.846   2.731  -2.066 -0.24 -1.20    -0.776 OA
DOCKED: ATOM     37  H   UNL d   1     -15.236   2.916  -2.789 +0.01 +0.16    +0.167 HD
DOCKED: ENDBRANCH  34  36
DOCKED: ENDBRANCH  33  34
DOCKED: ENDBRANCH  32  33
DOCKED: ENDBRANCH   6  32
DOCKED: BRANCH  22  38
DOCKED: ATOM     38  C   UNL d   1     -10.696   1.260  -1.466 -0.32 +0.02    +0.052 C 
DOCKED: BRANCH  38  39
DOCKED: ATOM     39  C   UNL d   1     -11.022   2.732  -1.708 -0.21 +0.04    +0.115 C 
DOCKED: BRANCH  39  40
DOCKED: ATOM     40  C   UNL d   1     -12.373   3.121  -1.162 -0.16 +0.13    +0.139 C 
DOCKED: ATOM     41  O   UNL d   1     -12.554   3.147   0.045 -0.35 -1.04    -0.650 OA
DOCKED: BRANCH  40  42
DOCKED: ATOM     42  O   UNL d   1     -13.375   3.491  -1.983 +0.03 -0.76    -0.776 OA
DOCKED: ATOM     43  H   UNL d   1     -14.292   3.255  -1.799 +0.03 +0.27    +0.167 HD
DOCKED: ENDBRANCH  40  42
DOCKED: ENDBRANCH  39  40
DOCKED: ENDBRANCH  38  39
DOCKED: ENDBRANCH  22  38
DOCKED: BRANCH  12  44
DOCKED: ATOM     44  C   UNL d   1     -17.139  -3.720   6.437 -0.17 +0.00    +0.004 C 
DOCKED: ATOM     45  C   UNL d   1     -16.429  -4.128   7.489 -0.35 +0.00    +0.012 C 
DOCKED: ENDBRANCH  12  44
DOCKED: BRANCH  17  46
DOCKED: ATOM     46  C   UNL d   1     -10.108   0.474   6.369 -0.44 +0.00    +0.004 C 
DOCKED: ATOM     47  C   UNL d   1      -9.557   0.358   7.584 -0.50 +0.00    +0.012 C 
DOCKED: ENDBRANCH  17  46
DOCKED: TORSDOF 10
DOCKED: TER
DOCKED: ENDMDL
________________________________________________________________________________


	BEGINNING GENETIC ALGORITHM DOCKING 10 of 100
Run: 10 Seed: 2089724103 1010414533 [ Run 10 of 100 GA/GALS ]
Beginning LAMARCKIAN GENETIC ALGORITHM (LGA), with a maximum of 25000000 energy evaluations.

Final-Value: -11.617


	FINAL GENETIC ALGORITHM DOCKED STATE
	_______________________________________________


Detailed state:  trans -15.479 3.884 -2.614 quatxyzw 0.217916 0.440606 0.633743 -0.597285 center 8.287 34.468 -0.670 ntor 10 111.2102 -10.7596 -61.5645 -103.7076 -69.7009 -9.8314 66.5062 122.9720 -33.7384 180.0000
State:	-15.479   3.884  -2.614   0.272  0.549  0.790 -106.649    111.21  -10.76  -61.56 -103.71  -69.70   -9.83   66.51  122.97  -33.74  180.00

DOCKED: MODEL       10
DOCKED: USER    Run = 10
DOCKED: USER    DPF = D:/Protein_go_brrr/autodock/final/AncMH_nat/heme_O2/dock.dpf
DOCKED: USER  
DOCKED: USER    Estimated Free Energy of Binding    =   -6.33 kcal/mol  [=(1)+(2)+(3)-(4)]
DOCKED: USER    Estimated Inhibition Constant, Ki   =   22.77 uM (micromolar)  [Temperature = 298.15 K]
DOCKED: USER    
DOCKED: USER    (1) Final Intermolecular Energy     =   -9.32 kcal/mol
DOCKED: USER        vdW + Hbond + desolv Energy     =   -5.63 kcal/mol
DOCKED: USER        Electrostatic Energy            =   -3.68 kcal/mol
DOCKED: USER    (2) Final Total Internal Energy     =   -2.30 kcal/mol
DOCKED: USER    (3) Torsional Free Energy           =   +2.98 kcal/mol
DOCKED: USER    (4) Unbound System's Energy  [=(2)] =   -2.30 kcal/mol
DOCKED: USER    
DOCKED: USER    
DOCKED: USER    NEWDPF move heme_O2_opt.pdbqt
DOCKED: USER    NEWDPF about 8.287000 34.468000 -0.670000
DOCKED: USER    NEWDPF tran0 -15.479307 3.884193 -2.613849
DOCKED: USER    NEWDPF quaternion0 0.217916 0.440606 0.633743 -0.597285
DOCKED: USER    NEWDPF axisangle0 0.271706 0.549363 0.790174 -106.648639
DOCKED: USER    NEWDPF quat0 0.271706 0.549363 0.790174 -106.648639
DOCKED: USER    NEWDPF dihe0 111.21 -10.76 -61.56 -103.71 -69.70 -9.83 66.51 122.97 -33.74 180.00 
DOCKED: USER  keepresnum = 1 
DOCKED: USER  
DOCKED: REMARK  10 active torsions:
DOCKED: REMARK  status: ('A' for Active; 'I' for Inactive)
DOCKED: REMARK    1  A    between atoms: C_6  and  C_10 
DOCKED: REMARK    2  A    between atoms: C_10  and  C_11 
DOCKED: REMARK    3  A    between atoms: C_11  and  C_12 
DOCKED: REMARK    4  A    between atoms: C_12  and  O_14 
DOCKED: REMARK    5  A    between atoms: C_17  and  C_20 
DOCKED: REMARK    6  A    between atoms: C_24  and  C_27 
DOCKED: REMARK    7  A    between atoms: C_31  and  C_34 
DOCKED: REMARK    8  A    between atoms: C_34  and  C_35 
DOCKED: REMARK    9  A    between atoms: C_35  and  C_36 
DOCKED: REMARK   10  A    between atoms: C_36  and  O_38 
DOCKED: USER                              x       y       z     vdW  Elec       q    Type
DOCKED: USER                           _______ _______ _______ _____ _____    ______ ____
DOCKED: ROOT
DOCKED: ATOM      1  C   UNL d   1     -16.103   1.932  -2.067 +0.01 +0.09    +0.064 A 
DOCKED: ATOM      2  C   UNL d   1     -11.813   3.875  -2.678 -0.14 +0.02    +0.064 A 
DOCKED: ATOM      3  C   UNL d   1     -13.789   8.087  -3.880 -0.15 +0.00    +0.064 C 
DOCKED: ATOM      4  C   UNL d   1     -18.200   6.235  -2.791 -0.01 +0.02    +0.064 A 
DOCKED: ATOM      5  C   UNL d   1     -14.775   2.117  -2.133 +0.05 +0.09    +0.066 A 
DOCKED: ATOM      6  C   UNL d   1     -13.831   1.118  -1.878 -0.10 -0.02    -0.021 A 
DOCKED: ATOM      7  C   UNL d   1     -12.588   1.691  -2.012 -0.15 -0.02    -0.025 A 
DOCKED: ATOM      8  C   UNL d   1     -12.807   3.012  -2.393 -0.12 +0.04    +0.066 A 
DOCKED: ATOM      9  C   UNL d   1     -11.277   0.983  -1.751 -0.29 +0.02    +0.051 C 
DOCKED: ATOM     10  C   UNL d   1     -11.980   5.265  -3.104 -0.15 +0.01    +0.066 A 
DOCKED: ATOM     11  C   UNL d   1     -10.921   6.068  -3.544 -0.27 +0.00    -0.021 A 
DOCKED: ATOM     12  C   UNL d   1     -11.474   7.280  -3.913 -0.31 -0.00    +0.000 A 
DOCKED: ATOM     13  C   UNL d   1     -12.867   7.150  -3.659 -0.18 +0.00    +0.070 A 
DOCKED: ATOM     14  C   UNL d   1      -9.449   5.684  -3.636 -0.43 -0.01    +0.052 C 
DOCKED: ATOM     15  C   UNL d   1     -15.203   8.007  -3.604 -0.10 +0.01    +0.066 A 
DOCKED: ATOM     16  C   UNL d   1     -16.090   9.079  -3.704 -0.08 -0.00    -0.021 A 
DOCKED: ATOM     17  C   UNL d   1     -17.354   8.575  -3.397 -0.04 +0.00    +0.000 A 
DOCKED: ATOM     18  C   UNL d   1     -17.141   7.215  -3.132 -0.03 +0.02    +0.070 A 
DOCKED: ATOM     19  C   UNL d   1     -15.649  10.485  -4.026 -0.09 +0.00    +0.052 C 
DOCKED: ATOM     20  C   UNL d   1     -18.025   4.935  -2.488 -0.03 +0.03    +0.066 A 
DOCKED: ATOM     21  C   UNL d   1     -19.064   4.056  -2.193 -0.01 -0.01    -0.025 A 
DOCKED: ATOM     22  C   UNL d   1     -18.487   2.819  -2.011 -0.04 -0.02    -0.021 A 
DOCKED: ATOM     23  C   UNL d   1     -17.111   2.993  -2.184 -0.05 +0.07    +0.066 A 
DOCKED: ATOM     24  C   UNL d   1     -20.531   4.381  -2.087 -0.00 +0.02    +0.051 C 
DOCKED: ATOM     25  N   UNL d   1     -14.154   3.292  -2.403 -0.06 -0.25    -0.248 N 
DOCKED: ATOM     26  N   UNL d   1     -13.166   5.923  -3.163 -0.06 -0.05    -0.248 N 
DOCKED: ATOM     27  N   UNL d   1     -15.821   6.905  -3.188 -0.03 -0.06    -0.248 N 
DOCKED: ATOM     28  N   UNL d   1     -16.830   4.289  -2.430 -0.05 -0.20    -0.248 N 
DOCKED: ATOM     29 FE   UNL d   1     -15.012   5.103  -2.794 -0.02 +0.00    +0.000 Fe
DOCKED: ATOM     30  O   UNL d   1     -14.236   5.053  -1.446 -0.37 +0.00    +0.000 OA
DOCKED: ATOM     31  O   UNL d   1     -15.607   5.824  -1.529 -0.25 +0.00    +0.000 OA
DOCKED: ENDROOT
DOCKED: BRANCH   6  32
DOCKED: ATOM     32  C   UNL d   1     -14.083  -0.286  -1.392 -0.16 +0.06    +0.052 C 
DOCKED: BRANCH  32  33
DOCKED: ATOM     33  C   UNL d   1     -15.146  -1.014  -2.208 -0.10 +0.11    +0.115 C 
DOCKED: BRANCH  33  34
DOCKED: ATOM     34  C   UNL d   1     -16.369  -1.350  -1.390 -0.12 +0.15    +0.139 C 
DOCKED: ATOM     35  O   UNL d   1     -17.478  -1.219  -1.881 +0.01 -0.52    -0.650 OA
DOCKED: BRANCH  34  36
DOCKED: ATOM     36  O   UNL d   1     -16.266  -1.768  -0.111 +0.00 -0.96    -0.776 OA
DOCKED: ATOM     37  H   UNL d   1     -16.564  -1.226   0.629 +0.03 +0.20    +0.167 HD
DOCKED: ENDBRANCH  34  36
DOCKED: ENDBRANCH  33  34
DOCKED: ENDBRANCH  32  33
DOCKED: ENDBRANCH   6  32
DOCKED: BRANCH  22  38
DOCKED: ATOM     38  C   UNL d   1     -19.217   1.557  -1.627 -0.02 +0.04    +0.052 C 
DOCKED: BRANCH  38  39
DOCKED: ATOM     39  C   UNL d   1     -19.555   1.510  -0.139 -0.06 +0.12    +0.115 C 
DOCKED: BRANCH  39  40
DOCKED: ATOM     40  C   UNL d   1     -18.330   1.615   0.734 -0.11 +0.23    +0.139 C 
DOCKED: ATOM     41  O   UNL d   1     -18.336   2.360   1.701 -0.60 -1.48    -0.650 OA
DOCKED: BRANCH  40  42
DOCKED: ATOM     42  O   UNL d   1     -17.239   0.861   0.496 -0.24 -1.68    -0.776 OA
DOCKED: ATOM     43  H   UNL d   1     -17.248   0.155  -0.162 +0.02 +0.24    +0.167 HD
DOCKED: ENDBRANCH  40  42
DOCKED: ENDBRANCH  39  40
DOCKED: ENDBRANCH  38  39
DOCKED: ENDBRANCH  22  38
DOCKED: BRANCH  12  44
DOCKED: ATOM     44  C   UNL d   1     -10.631   8.416  -4.454 -0.33 -0.00    +0.004 C 
DOCKED: ATOM     45  C   UNL d   1     -10.656   8.943  -5.678 -0.39 -0.00    +0.012 C 
DOCKED: ENDBRANCH  12  44
DOCKED: BRANCH  17  46
DOCKED: ATOM     46  C   UNL d   1     -18.690   9.260  -3.282 -0.02 +0.00    +0.004 C 
DOCKED: ATOM     47  C   UNL d   1     -19.415   9.481  -2.178 -0.01 +0.00    +0.012 C 
DOCKED: ENDBRANCH  17  46
DOCKED: TORSDOF 10
DOCKED: TER
DOCKED: ENDMDL
________________________________________________________________________________


	BEGINNING GENETIC ALGORITHM DOCKING 11 of 100
Run: 11 Seed: 387830101 1012165686 [ Run 11 of 100 GA/GALS ]
Beginning LAMARCKIAN GENETIC ALGORITHM (LGA), with a maximum of 25000000 energy evaluations.

Final-Value: -12.470


	FINAL GENETIC ALGORITHM DOCKED STATE
	_______________________________________________


Detailed state:  trans -11.094 -0.230 2.244 quatxyzw 0.111309 0.681141 0.197398 0.696197 center 8.287 34.468 -0.670 ntor 10 -25.0532 4.0472 -28.2443 144.8702 -137.2892 85.7951 169.2278 -48.1483 -179.7544 -179.7561
State:	-11.094  -0.230   2.244   0.155  0.949  0.275 91.755    -25.05    4.05  -28.24  144.87 -137.29   85.80  169.23  -48.15 -179.75 -179.76

DOCKED: MODEL       11
DOCKED: USER    Run = 11
DOCKED: USER    DPF = D:/Protein_go_brrr/autodock/final/AncMH_nat/heme_O2/dock.dpf
DOCKED: USER  
DOCKED: USER    Estimated Free Energy of Binding    =   -8.98 kcal/mol  [=(1)+(2)+(3)-(4)]
DOCKED: USER    Estimated Inhibition Constant, Ki   =  260.55 nM (nanomolar)  [Temperature = 298.15 K]
DOCKED: USER    
DOCKED: USER    (1) Final Intermolecular Energy     =  -11.97 kcal/mol
DOCKED: USER        vdW + Hbond + desolv Energy     =  -10.36 kcal/mol
DOCKED: USER        Electrostatic Energy            =   -1.61 kcal/mol
DOCKED: USER    (2) Final Total Internal Energy     =   -0.50 kcal/mol
DOCKED: USER    (3) Torsional Free Energy           =   +2.98 kcal/mol
DOCKED: USER    (4) Unbound System's Energy  [=(2)] =   -0.50 kcal/mol
DOCKED: USER    
DOCKED: USER    
DOCKED: USER    NEWDPF move heme_O2_opt.pdbqt
DOCKED: USER    NEWDPF about 8.287000 34.468000 -0.670000
DOCKED: USER    NEWDPF tran0 -11.093576 -0.230254 2.244109
DOCKED: USER    NEWDPF quaternion0 0.111309 0.681141 0.197398 0.696197
DOCKED: USER    NEWDPF axisangle0 0.155059 0.948862 0.274985 91.754581
DOCKED: USER    NEWDPF quat0 0.155059 0.948862 0.274985 91.754581
DOCKED: USER    NEWDPF dihe0 -25.05 4.05 -28.24 144.87 -137.29 85.80 169.23 -48.15 -179.75 -179.76 
DOCKED: USER  keepresnum = 1 
DOCKED: USER  
DOCKED: REMARK  10 active torsions:
DOCKED: REMARK  status: ('A' for Active; 'I' for Inactive)
DOCKED: REMARK    1  A    between atoms: C_6  and  C_10 
DOCKED: REMARK    2  A    between atoms: C_10  and  C_11 
DOCKED: REMARK    3  A    between atoms: C_11  and  C_12 
DOCKED: REMARK    4  A    between atoms: C_12  and  O_14 
DOCKED: REMARK    5  A    between atoms: C_17  and  C_20 
DOCKED: REMARK    6  A    between atoms: C_24  and  C_27 
DOCKED: REMARK    7  A    between atoms: C_31  and  C_34 
DOCKED: REMARK    8  A    between atoms: C_34  and  C_35 
DOCKED: REMARK    9  A    between atoms: C_35  and  C_36 
DOCKED: REMARK   10  A    between atoms: C_36  and  O_38 
DOCKED: USER                              x       y       z     vdW  Elec       q    Type
DOCKED: USER                           _______ _______ _______ _____ _____    ______ ____
DOCKED: ROOT
DOCKED: ATOM      1  C   UNL d   1     -10.102   0.201   0.419 -0.34 +0.02    +0.064 A 
DOCKED: ATOM      2  C   UNL d   1     -14.625  -0.819   1.450 -0.20 +0.08    +0.064 A 
DOCKED: ATOM      3  C   UNL d   1     -13.552  -1.296   6.110 -0.26 +0.02    +0.064 C 
DOCKED: ATOM      4  C   UNL d   1      -8.991   0.221   5.131 +0.09 +0.02    +0.064 A 
DOCKED: ATOM      5  C   UNL d   1     -11.420  -0.036   0.319 -0.26 +0.04    +0.066 A 
DOCKED: ATOM      6  C   UNL d   1     -12.130  -0.020  -0.885 -0.16 -0.02    -0.021 A 
DOCKED: ATOM      7  C   UNL d   1     -13.447  -0.273  -0.582 -0.17 -0.03    -0.025 A 
DOCKED: ATOM      8  C   UNL d   1     -13.498  -0.483   0.793 -0.20 +0.08    +0.066 A 
DOCKED: ATOM      9  C   UNL d   1     -14.581  -0.274  -1.585 -0.17 +0.06    +0.051 C 
DOCKED: ATOM     10  C   UNL d   1     -14.736  -1.075   2.887 -0.20 +0.06    +0.066 A 
DOCKED: ATOM     11  C   UNL d   1     -15.893  -1.579   3.491 -0.13 -0.02    -0.021 A 
DOCKED: ATOM     12  C   UNL d   1     -15.597  -1.740   4.833 -0.12 +0.00    +0.000 A 
DOCKED: ATOM     13  C   UNL d   1     -14.251  -1.304   4.975 +0.07 +0.03    +0.070 A 
DOCKED: ATOM     14  C   UNL d   1     -17.215  -1.919   2.814 -0.08 +0.04    +0.052 C 
DOCKED: ATOM     15  C   UNL d   1     -12.200  -0.829   6.303 -0.33 +0.01    +0.066 A 
DOCKED: ATOM     16  C   UNL d   1     -11.580  -0.693   7.545 -0.18 -0.00    -0.021 A 
DOCKED: ATOM     17  C   UNL d   1     -10.279  -0.261   7.291 -0.29 +0.00    +0.000 A 
DOCKED: ATOM     18  C   UNL d   1     -10.201  -0.166   5.894 -0.36 +0.02    +0.070 A 
DOCKED: ATOM     19  C   UNL d   1     -12.295  -0.932   8.851 -0.42 +0.00    +0.052 C 
DOCKED: ATOM     20  C   UNL d   1      -8.893   0.364   3.795 -0.17 +0.02    +0.066 A 
DOCKED: ATOM     21  C   UNL d   1      -7.721   0.714   3.131 -0.30 -0.00    -0.025 A 
DOCKED: ATOM     22  C   UNL d   1      -8.012   0.687   1.786 -0.34 -0.00    -0.021 A 
DOCKED: ATOM     23  C   UNL d   1      -9.362   0.337   1.679 -0.36 +0.02    +0.066 A 
DOCKED: ATOM     24  C   UNL d   1      -6.392   1.062   3.749 -0.38 +0.00    +0.051 C 
DOCKED: ATOM     25  N   UNL d   1     -12.261  -0.273   1.356 -0.17 -0.21    -0.248 N 
DOCKED: ATOM     26  N   UNL d   1     -13.736  -0.896   3.787 -0.16 -0.16    -0.248 N 
DOCKED: ATOM     27  N   UNL d   1     -11.397  -0.442   5.316 -0.22 -0.06    -0.248 N 
DOCKED: ATOM     28  N   UNL d   1      -9.905   0.185   2.904 -0.16 -0.08    -0.248 N 
DOCKED: ATOM     29 FE   UNL d   1     -11.806  -0.351   3.345 -0.07 +0.00    +0.000 Fe
DOCKED: ATOM     30  O   UNL d   1     -12.702   0.860   2.953 -0.42 +0.00    +0.000 OA
DOCKED: ATOM     31  O   UNL d   1     -11.546   1.052   4.007 -0.47 +0.00    +0.000 OA
DOCKED: ENDROOT
DOCKED: BRANCH   6  32
DOCKED: ATOM     32  C   UNL d   1     -11.618   0.353  -2.252 -0.25 +0.02    +0.052 C 
DOCKED: BRANCH  32  33
DOCKED: ATOM     33  C   UNL d   1     -11.903   1.807  -2.615 -0.16 +0.05    +0.115 C 
DOCKED: BRANCH  33  34
DOCKED: ATOM     34  C   UNL d   1     -12.892   2.451  -1.675 -0.11 +0.15    +0.139 C 
DOCKED: ATOM     35  O   UNL d   1     -12.552   2.721  -0.534 -0.34 -0.93    -0.650 OA
DOCKED: BRANCH  34  36
DOCKED: ATOM     36  O   UNL d   1     -14.159   2.712  -2.058 -0.03 -1.03    -0.776 OA
DOCKED: ATOM     37  H   UNL d   1     -14.398   2.837  -2.984 +0.02 +0.13    +0.167 HD
DOCKED: ENDBRANCH  34  36
DOCKED: ENDBRANCH  33  34
DOCKED: ENDBRANCH  32  33
DOCKED: ENDBRANCH   6  32
DOCKED: BRANCH  22  38
DOCKED: ATOM     38  C   UNL d   1      -7.059   1.042   0.673 -0.32 +0.01    +0.052 C 
DOCKED: BRANCH  38  39
DOCKED: ATOM     39  C   UNL d   1      -6.891   2.551   0.510 -0.29 +0.01    +0.115 C 
DOCKED: BRANCH  39  40
DOCKED: ATOM     40  C   UNL d   1      -5.442   2.966   0.448 -0.43 +0.00    +0.139 C 
DOCKED: ATOM     41  O   UNL d   1      -5.038   3.865   1.168 +0.04 +0.00    -0.650 OA
DOCKED: BRANCH  40  42
DOCKED: ATOM     42  O   UNL d   1      -4.570   2.326  -0.355 -0.02 +0.06    -0.776 OA
DOCKED: ATOM     43  H   UNL d   1      -4.860   1.653  -0.981 -0.44 -0.04    +0.167 HD
DOCKED: ENDBRANCH  40  42
DOCKED: ENDBRANCH  39  40
DOCKED: ENDBRANCH  38  39
DOCKED: ENDBRANCH  22  38
DOCKED: BRANCH  12  44
DOCKED: ATOM     44  C   UNL d   1     -16.611  -2.280   5.820 -0.15 +0.00    +0.004 C 
DOCKED: ATOM     45  C   UNL d   1     -16.385  -3.023   6.902 -0.22 +0.00    +0.012 C 
DOCKED: ENDBRANCH  12  44
DOCKED: BRANCH  17  46
DOCKED: ATOM     46  C   UNL d   1      -9.161   0.113   8.227 -0.30 +0.00    +0.004 C 
DOCKED: ATOM     47  C   UNL d   1      -7.861  -0.193   8.130 -0.44 +0.00    +0.012 C 
DOCKED: ENDBRANCH  17  46
DOCKED: TORSDOF 10
DOCKED: TER
DOCKED: ENDMDL
________________________________________________________________________________


	BEGINNING GENETIC ALGORITHM DOCKING 12 of 100
Run: 12 Seed: 2097699360 415714733 [ Run 12 of 100 GA/GALS ]
Beginning LAMARCKIAN GENETIC ALGORITHM (LGA), with a maximum of 25000000 energy evaluations.

Final-Value: -14.475


	FINAL GENETIC ALGORITHM DOCKED STATE
	_______________________________________________


Detailed state:  trans -13.254 -1.116 3.166 quatxyzw 0.311898 -0.209207 -0.280011 0.883485 center 8.287 34.468 -0.670 ntor 10 107.8097 3.6772 124.5849 142.6734 179.9322 -51.4917 -100.4114 -179.7541 -167.4135 175.2265
State:	-13.254  -1.116   3.166   0.666 -0.447 -0.598 55.869    107.81    3.68  124.58  142.67  179.93  -51.49 -100.41 -179.75 -167.41  175.23

DOCKED: MODEL       12
DOCKED: USER    Run = 12
DOCKED: USER    DPF = D:/Protein_go_brrr/autodock/final/AncMH_nat/heme_O2/dock.dpf
DOCKED: USER  
DOCKED: USER    Estimated Free Energy of Binding    =   -9.27 kcal/mol  [=(1)+(2)+(3)-(4)]
DOCKED: USER    Estimated Inhibition Constant, Ki   =  160.96 nM (nanomolar)  [Temperature = 298.15 K]
DOCKED: USER    
DOCKED: USER    (1) Final Intermolecular Energy     =  -12.25 kcal/mol
DOCKED: USER        vdW + Hbond + desolv Energy     =   -8.79 kcal/mol
DOCKED: USER        Electrostatic Energy            =   -3.46 kcal/mol
DOCKED: USER    (2) Final Total Internal Energy     =   -2.22 kcal/mol
DOCKED: USER    (3) Torsional Free Energy           =   +2.98 kcal/mol
DOCKED: USER    (4) Unbound System's Energy  [=(2)] =   -2.22 kcal/mol
DOCKED: USER    
DOCKED: USER    
DOCKED: USER    NEWDPF move heme_O2_opt.pdbqt
DOCKED: USER    NEWDPF about 8.287000 34.468000 -0.670000
DOCKED: USER    NEWDPF tran0 -13.254401 -1.115587 3.165830
DOCKED: USER    NEWDPF quaternion0 0.311898 -0.209207 -0.280011 0.883485
DOCKED: USER    NEWDPF axisangle0 0.665796 -0.446586 -0.597727 55.868670
DOCKED: USER    NEWDPF quat0 0.665796 -0.446586 -0.597727 55.868670
DOCKED: USER    NEWDPF dihe0 107.81 3.68 124.58 142.67 179.93 -51.49 -100.41 -179.75 -167.41 175.23 
DOCKED: USER  keepresnum = 1 
DOCKED: USER  
DOCKED: REMARK  10 active torsions:
DOCKED: REMARK  status: ('A' for Active; 'I' for Inactive)
DOCKED: REMARK    1  A    between atoms: C_6  and  C_10 
DOCKED: REMARK    2  A    between atoms: C_10  and  C_11 
DOCKED: REMARK    3  A    between atoms: C_11  and  C_12 
DOCKED: REMARK    4  A    between atoms: C_12  and  O_14 
DOCKED: REMARK    5  A    between atoms: C_17  and  C_20 
DOCKED: REMARK    6  A    between atoms: C_24  and  C_27 
DOCKED: REMARK    7  A    between atoms: C_31  and  C_34 
DOCKED: REMARK    8  A    between atoms: C_34  and  C_35 
DOCKED: REMARK    9  A    between atoms: C_35  and  C_36 
DOCKED: REMARK   10  A    between atoms: C_36  and  O_38 
DOCKED: USER                              x       y       z     vdW  Elec       q    Type
DOCKED: USER                           _______ _______ _______ _____ _____    ______ ____
DOCKED: ROOT
DOCKED: ATOM      1  C   UNL d   1     -15.200  -1.941   3.348 -0.15 +0.05    +0.064 A 
DOCKED: ATOM      2  C   UNL d   1     -11.884  -0.804   6.553 -0.28 +0.01    +0.064 A 
DOCKED: ATOM      3  C   UNL d   1      -8.886   0.627   3.081 -0.25 +0.02    +0.064 C 
DOCKED: ATOM      4  C   UNL d   1     -12.468  -0.091  -0.194 -0.20 +0.06    +0.064 A 
DOCKED: ATOM      5  C   UNL d   1     -14.543  -1.747   4.503 -0.18 +0.04    +0.066 A 
DOCKED: ATOM      6  C   UNL d   1     -15.063  -2.063   5.762 -0.18 -0.01    -0.021 A 
DOCKED: ATOM      7  C   UNL d   1     -14.121  -1.694   6.694 -0.31 -0.01    -0.025 A 
DOCKED: ATOM      8  C   UNL d   1     -13.032  -1.208   5.976 -0.30 +0.02    +0.066 A 
DOCKED: ATOM      9  C   UNL d   1     -14.303  -1.790   8.193 -0.22 +0.00    +0.051 C 
DOCKED: ATOM     10  C   UNL d   1     -10.700  -0.307   5.852 -0.36 +0.01    +0.066 A 
DOCKED: ATOM     11  C   UNL d   1      -9.478  -0.056   6.486 -0.32 -0.00    -0.021 A 
DOCKED: ATOM     12  C   UNL d   1      -8.596   0.340   5.499 -0.11 +0.00    +0.000 A 
DOCKED: ATOM     13  C   UNL d   1      -9.349   0.321   4.292 +0.09 +0.03    +0.070 A 
DOCKED: ATOM     14  C   UNL d   1      -9.159  -0.215   7.968 -0.15 +0.01    +0.052 C 
DOCKED: ATOM     15  C   UNL d   1      -9.625   0.654   1.841 -0.32 +0.02    +0.066 A 
DOCKED: ATOM     16  C   UNL d   1      -9.126   1.141   0.634 -0.39 -0.00    -0.021 A 
DOCKED: ATOM     17  C   UNL d   1     -10.130   0.947  -0.315 -0.35 +0.00    +0.000 A 
DOCKED: ATOM     18  C   UNL d   1     -11.180   0.347   0.394 -0.27 +0.04    +0.070 A 
DOCKED: ATOM     19  C   UNL d   1      -7.771   1.791   0.506 -0.42 +0.01    +0.052 C 
DOCKED: ATOM     20  C   UNL d   1     -13.512  -0.630   0.464 -0.15 +0.08    +0.066 A 
DOCKED: ATOM     21  C   UNL d   1     -14.693  -1.039  -0.147 -0.01 -0.03    -0.025 A 
DOCKED: ATOM     22  C   UNL d   1     -15.473  -1.594   0.843 -0.15 -0.03    -0.021 A 
DOCKED: ATOM     23  C   UNL d   1     -14.742  -1.486   2.030 -0.20 +0.07    +0.066 A 
DOCKED: ATOM     24  C   UNL d   1     -15.061  -0.904  -1.602 -0.14 +0.06    +0.051 C 
DOCKED: ATOM     25  N   UNL d   1     -13.319  -1.180   4.630 -0.18 -0.11    -0.248 N 
DOCKED: ATOM     26  N   UNL d   1     -10.630  -0.069   4.517 -0.17 -0.08    -0.248 N 
DOCKED: ATOM     27  N   UNL d   1     -10.884   0.245   1.715 -0.17 -0.12    -0.248 N 
DOCKED: ATOM     28  N   UNL d   1     -13.570  -0.859   1.803 -0.17 -0.26    -0.248 N 
DOCKED: ATOM     29 FE   UNL d   1     -12.109  -0.466   3.148 -0.07 +0.00    +0.000 Fe
DOCKED: ATOM     30  O   UNL d   1     -12.670   0.640   4.089 -0.16 +0.00    +0.000 OA
DOCKED: ATOM     31  O   UNL d   1     -12.572   0.908   2.539 -0.42 +0.00    +0.000 OA
DOCKED: ENDROOT
DOCKED: BRANCH   6  32
DOCKED: ATOM     32  C   UNL d   1     -16.446  -2.564   6.090 -0.15 +0.02    +0.052 C 
DOCKED: BRANCH  32  33
DOCKED: ATOM     33  C   UNL d   1     -17.471  -1.440   6.209 -0.11 +0.06    +0.115 C 
DOCKED: BRANCH  33  34
DOCKED: ATOM     34  C   UNL d   1     -17.915  -0.923   4.863 -0.12 +0.11    +0.139 C 
DOCKED: ATOM     35  O   UNL d   1     -17.911  -1.670   3.898 +0.05 -0.48    -0.650 OA
DOCKED: BRANCH  34  36
DOCKED: ATOM     36  O   UNL d   1     -18.292   0.361   4.693 +0.05 -1.03    -0.776 OA
DOCKED: ATOM     37  H   UNL d   1     -17.745   0.996   4.215 +0.02 +0.26    +0.167 HD
DOCKED: ENDBRANCH  34  36
DOCKED: ENDBRANCH  33  34
DOCKED: ENDBRANCH  32  33
DOCKED: ENDBRANCH   6  32
DOCKED: BRANCH  22  38
DOCKED: ATOM     38  C   UNL d   1     -16.867  -2.137   0.662 -0.11 +0.06    +0.052 C 
DOCKED: BRANCH  38  39
DOCKED: ATOM     39  C   UNL d   1     -17.929  -1.040   0.709 -0.05 +0.11    +0.115 C 
DOCKED: BRANCH  39  40
DOCKED: ATOM     40  C   UNL d   1     -17.336   0.327   0.946 +0.04 +0.23    +0.139 C 
DOCKED: ATOM     41  O   UNL d   1     -17.052   1.037  -0.005 -0.20 -1.47    -0.650 OA
DOCKED: BRANCH  40  42
DOCKED: ATOM     42  O   UNL d   1     -17.160   0.801   2.194 -0.14 -1.43    -0.776 OA
DOCKED: ATOM     43  H   UNL d   1     -17.320   0.252   2.970 +0.04 +0.23    +0.167 HD
DOCKED: ENDBRANCH  40  42
DOCKED: ENDBRANCH  39  40
DOCKED: ENDBRANCH  38  39
DOCKED: ENDBRANCH  22  38
DOCKED: BRANCH  12  44
DOCKED: ATOM     44  C   UNL d   1      -7.155   0.693   5.802 -0.39 +0.00    +0.004 C 
DOCKED: ATOM     45  C   UNL d   1      -6.699   1.648   6.612 -0.48 +0.00    +0.012 C 
DOCKED: ENDBRANCH  12  44
DOCKED: BRANCH  17  46
DOCKED: ATOM     46  C   UNL d   1     -10.200   1.323  -1.771 -0.29 +0.00    +0.004 C 
DOCKED: ATOM     47  C   UNL d   1     -10.636   0.582  -2.798 -0.29 +0.00    +0.012 C 
DOCKED: ENDBRANCH  17  46
DOCKED: TORSDOF 10
DOCKED: TER
DOCKED: ENDMDL
________________________________________________________________________________


	BEGINNING GENETIC ALGORITHM DOCKING 13 of 100
Run: 13 Seed: 1481733091 660570362 [ Run 13 of 100 GA/GALS ]
Beginning LAMARCKIAN GENETIC ALGORITHM (LGA), with a maximum of 25000000 energy evaluations.

Final-Value: -10.235


	FINAL GENETIC ALGORITHM DOCKED STATE
	_______________________________________________


Detailed state:  trans -2.832 17.493 14.219 quatxyzw 0.103045 -0.255009 -0.821307 -0.499807 center 8.287 34.468 -0.670 ntor 10 45.8725 150.3844 54.0015 -112.7943 -138.8241 95.3023 170.5439 -112.2150 11.4247 -6.2670
State:	 -2.832  17.493  14.219   0.119 -0.294 -0.948 -120.026     45.87  150.38   54.00 -112.79 -138.82   95.30  170.54 -112.21   11.42   -6.27

DOCKED: MODEL       13
DOCKED: USER    Run = 13
DOCKED: USER    DPF = D:/Protein_go_brrr/autodock/final/AncMH_nat/heme_O2/dock.dpf
DOCKED: USER  
DOCKED: USER    Estimated Free Energy of Binding    =   -5.14 kcal/mol  [=(1)+(2)+(3)-(4)]
DOCKED: USER    Estimated Inhibition Constant, Ki   =  171.74 uM (micromolar)  [Temperature = 298.15 K]
DOCKED: USER    
DOCKED: USER    (1) Final Intermolecular Energy     =   -8.12 kcal/mol
DOCKED: USER        vdW + Hbond + desolv Energy     =   -5.60 kcal/mol
DOCKED: USER        Electrostatic Energy            =   -2.52 kcal/mol
DOCKED: USER    (2) Final Total Internal Energy     =   -2.12 kcal/mol
DOCKED: USER    (3) Torsional Free Energy           =   +2.98 kcal/mol
DOCKED: USER    (4) Unbound System's Energy  [=(2)] =   -2.12 kcal/mol
DOCKED: USER    
DOCKED: USER    
DOCKED: USER    NEWDPF move heme_O2_opt.pdbqt
DOCKED: USER    NEWDPF about 8.287000 34.468000 -0.670000
DOCKED: USER    NEWDPF tran0 -2.831626 17.492828 14.218940
DOCKED: USER    NEWDPF quaternion0 0.103045 -0.255009 -0.821307 -0.499807
DOCKED: USER    NEWDPF axisangle0 0.118971 -0.294421 -0.948242 -120.025545
DOCKED: USER    NEWDPF quat0 0.118971 -0.294421 -0.948242 -120.025545
DOCKED: USER    NEWDPF dihe0 45.87 150.38 54.00 -112.79 -138.82 95.30 170.54 -112.21 11.42 -6.27 
DOCKED: USER  keepresnum = 1 
DOCKED: USER  
DOCKED: REMARK  10 active torsions:
DOCKED: REMARK  status: ('A' for Active; 'I' for Inactive)
DOCKED: REMARK    1  A    between atoms: C_6  and  C_10 
DOCKED: REMARK    2  A    between atoms: C_10  and  C_11 
DOCKED: REMARK    3  A    between atoms: C_11  and  C_12 
DOCKED: REMARK    4  A    between atoms: C_12  and  O_14 
DOCKED: REMARK    5  A    between atoms: C_17  and  C_20 
DOCKED: REMARK    6  A    between atoms: C_24  and  C_27 
DOCKED: REMARK    7  A    between atoms: C_31  and  C_34 
DOCKED: REMARK    8  A    between atoms: C_34  and  C_35 
DOCKED: REMARK    9  A    between atoms: C_35  and  C_36 
DOCKED: REMARK   10  A    between atoms: C_36  and  O_38 
DOCKED: USER                              x       y       z     vdW  Elec       q    Type
DOCKED: USER                           _______ _______ _______ _____ _____    ______ ____
DOCKED: ROOT
DOCKED: ATOM      1  C   UNL d   1      -1.134  18.651  13.694 -0.05 +0.05    +0.064 A 
DOCKED: ATOM      2  C   UNL d   1      -5.365  19.805  15.518 -0.11 +0.01    +0.064 A 
DOCKED: ATOM      3  C   UNL d   1      -6.771  15.211  15.403 -0.25 -0.02    +0.064 C 
DOCKED: ATOM      4  C   UNL d   1      -2.251  13.948  13.974 -0.14 -0.01    +0.064 A 
DOCKED: ATOM      5  C   UNL d   1      -2.169  19.339  14.201 -0.07 +0.05    +0.066 A 
DOCKED: ATOM      6  C   UNL d   1      -2.175  20.726  14.378 -0.07 -0.01    -0.021 A 
DOCKED: ATOM      7  C   UNL d   1      -3.383  21.056  14.946 -0.06 -0.01    -0.025 A 
DOCKED: ATOM      8  C   UNL d   1      -4.101  19.868  15.056 -0.10 +0.02    +0.066 A 
DOCKED: ATOM      9  C   UNL d   1      -3.785  22.450  15.378 -0.02 +0.01    +0.051 C 
DOCKED: ATOM     10  C   UNL d   1      -6.175  18.592  15.634 -0.13 -0.00    +0.066 A 
DOCKED: ATOM     11  C   UNL d   1      -7.535  18.605  15.965 -0.18 +0.01    -0.021 A 
DOCKED: ATOM     12  C   UNL d   1      -7.963  17.291  15.919 -0.21 -0.00    +0.000 A 
DOCKED: ATOM     13  C   UNL d   1      -6.812  16.533  15.568 -0.19 -0.02    +0.070 A 
DOCKED: ATOM     14  C   UNL d   1      -8.396  19.821  16.283 -0.13 -0.02    +0.052 C 
DOCKED: ATOM     15  C   UNL d   1      -5.619  14.403  15.082 -0.22 -0.01    +0.066 A 
DOCKED: ATOM     16  C   UNL d   1      -5.605  13.009  15.085 -0.25 +0.00    -0.021 A 
DOCKED: ATOM     17  C   UNL d   1      -4.326  12.626  14.681 -0.24 -0.00    +0.000 A 
DOCKED: ATOM     18  C   UNL d   1      -3.647  13.832  14.458 -0.16 -0.01    +0.070 A 
DOCKED: ATOM     19  C   UNL d   1      -6.784  12.176  15.521 -0.30 -0.01    +0.052 C 
DOCKED: ATOM     20  C   UNL d   1      -1.555  15.087  13.790 -0.10 +0.00    +0.066 A 
DOCKED: ATOM     21  C   UNL d   1      -0.248  15.135  13.315 -0.08 +0.00    -0.025 A 
DOCKED: ATOM     22  C   UNL d   1       0.078  16.468  13.203 -0.06 -0.01    -0.021 A 
DOCKED: ATOM     23  C   UNL d   1      -1.042  17.187  13.633 -0.07 +0.03    +0.066 A 
DOCKED: ATOM     24  C   UNL d   1       0.647  13.968  12.988 -0.04 -0.02    +0.051 C 
DOCKED: ATOM     25  N   UNL d   1      -3.327  18.802  14.657 -0.09 -0.13    -0.248 N 
DOCKED: ATOM     26  N   UNL d   1      -5.728  17.332  15.401 -0.12 -0.00    -0.248 N 
DOCKED: ATOM     27  N   UNL d   1      -4.422  14.899  14.778 -0.10 +0.00    -0.248 N 
DOCKED: ATOM     28  N   UNL d   1      -2.016  16.343  14.032 -0.07 -0.09    -0.248 N 
DOCKED: ATOM     29 FE   UNL d   1      -3.859  16.831  14.712 -0.04 +0.00    +0.000 Fe
DOCKED: ATOM     30  O   UNL d   1      -3.650  17.465  16.118 -0.08 +0.00    +0.000 OA
DOCKED: ATOM     31  O   UNL d   1      -3.145  15.999  15.839 -0.07 +0.00    +0.000 OA
DOCKED: ENDROOT
DOCKED: BRANCH   6  32
DOCKED: ATOM     32  C   UNL d   1      -1.040  21.691  14.152 -0.02 +0.02    +0.052 C 
DOCKED: BRANCH  32  33
DOCKED: ATOM     33  C   UNL d   1      -1.081  22.340  12.772 -0.02 +0.04    +0.115 C 
DOCKED: BRANCH  33  34
DOCKED: ATOM     34  C   UNL d   1      -2.070  21.671  11.850 -0.03 +0.13    +0.139 C 
DOCKED: ATOM     35  O   UNL d   1      -3.267  21.795  12.057 -0.42 -0.60    -0.650 OA
DOCKED: BRANCH  34  36
DOCKED: ATOM     36  O   UNL d   1      -1.663  20.910  10.813 -0.11 -1.13    -0.776 OA
DOCKED: ATOM     37  H   UNL d   1      -0.971  20.245  10.908 +0.00 +0.24    +0.167 HD
DOCKED: ENDBRANCH  34  36
DOCKED: ENDBRANCH  33  34
DOCKED: ENDBRANCH  32  33
DOCKED: ENDBRANCH   6  32
DOCKED: BRANCH  22  38
DOCKED: ATOM     38  C   UNL d   1       1.414  17.013  12.768 -0.02 +0.01    +0.052 C 
DOCKED: BRANCH  38  39
DOCKED: ATOM     39  C   UNL d   1       1.448  17.350  11.279 -0.03 +0.03    +0.115 C 
DOCKED: BRANCH  39  40
DOCKED: ATOM     40  C   UNL d   1       0.536  18.499  10.928 -0.05 +0.10    +0.139 C 
DOCKED: ATOM     41  O   UNL d   1      -0.370  18.332  10.128 -0.31 -0.81    -0.650 OA
DOCKED: BRANCH  40  42
DOCKED: ATOM     42  O   UNL d   1       0.672  19.701  11.521 +0.00 -0.45    -0.776 OA
DOCKED: ATOM     43  H   UNL d   1       0.396  20.515  11.082 +0.01 +0.10    +0.167 HD
DOCKED: ENDBRANCH  40  42
DOCKED: ENDBRANCH  39  40
DOCKED: ENDBRANCH  38  39
DOCKED: ENDBRANCH  22  38
DOCKED: BRANCH  12  44
DOCKED: ATOM     44  C   UNL d   1      -9.397  16.902  16.214 -0.14 -0.00    +0.004 C 
DOCKED: ATOM     45  C   UNL d   1      -9.834  15.951  17.039 -0.14 -0.01    +0.012 C 
DOCKED: ENDBRANCH  12  44
DOCKED: BRANCH  17  46
DOCKED: ATOM     46  C   UNL d   1      -3.698  11.264  14.550 -0.26 -0.00    +0.004 C 
DOCKED: ATOM     47  C   UNL d   1      -2.622  10.784  15.187 -0.26 -0.00    +0.012 C 
DOCKED: ENDBRANCH  17  46
DOCKED: TORSDOF 10
DOCKED: TER
DOCKED: ENDMDL
________________________________________________________________________________


	BEGINNING GENETIC ALGORITHM DOCKING 14 of 100
Run: 14 Seed: 1933669007 1538809468 [ Run 14 of 100 GA/GALS ]
Beginning LAMARCKIAN GENETIC ALGORITHM (LGA), with a maximum of 25000000 energy evaluations.

Final-Value: -17.457


	FINAL GENETIC ALGORITHM DOCKED STATE
	_______________________________________________


Detailed state:  trans -9.789 0.719 3.795 quatxyzw 0.882136 -0.014103 0.431770 -0.187648 center 8.287 34.468 -0.670 ntor 10 30.3785 -166.0985 -1.8993 -52.9889 -31.9043 165.8509 25.1750 66.9028 49.0832 137.0108
State:	 -9.789   0.719   3.795   0.898 -0.014  0.440 -158.369     30.38 -166.10   -1.90  -52.99  -31.90  165.85   25.18   66.90   49.08  137.01

DOCKED: MODEL       14
DOCKED: USER    Run = 14
DOCKED: USER    DPF = D:/Protein_go_brrr/autodock/final/AncMH_nat/heme_O2/dock.dpf
DOCKED: USER  
DOCKED: USER    Estimated Free Energy of Binding    =  -12.98 kcal/mol  [=(1)+(2)+(3)-(4)]
DOCKED: USER    Estimated Inhibition Constant, Ki   =  304.60 pM (picomolar)  [Temperature = 298.15 K]
DOCKED: USER    
DOCKED: USER    (1) Final Intermolecular Energy     =  -15.97 kcal/mol
DOCKED: USER        vdW + Hbond + desolv Energy     =  -13.36 kcal/mol
DOCKED: USER        Electrostatic Energy            =   -2.60 kcal/mol
DOCKED: USER    (2) Final Total Internal Energy     =   -1.49 kcal/mol
DOCKED: USER    (3) Torsional Free Energy           =   +2.98 kcal/mol
DOCKED: USER    (4) Unbound System's Energy  [=(2)] =   -1.49 kcal/mol
DOCKED: USER    
DOCKED: USER    
DOCKED: USER    NEWDPF move heme_O2_opt.pdbqt
DOCKED: USER    NEWDPF about 8.287000 34.468000 -0.670000
DOCKED: USER    NEWDPF tran0 -9.789362 0.719149 3.794717
DOCKED: USER    NEWDPF quaternion0 0.882136 -0.014103 0.431770 -0.187648
DOCKED: USER    NEWDPF axisangle0 0.898089 -0.014358 0.439579 -158.368872
DOCKED: USER    NEWDPF quat0 0.898089 -0.014358 0.439579 -158.368872
DOCKED: USER    NEWDPF dihe0 30.38 -166.10 -1.90 -52.99 -31.90 165.85 25.18 66.90 49.08 137.01 
DOCKED: USER  keepresnum = 1 
DOCKED: USER  
DOCKED: REMARK  10 active torsions:
DOCKED: REMARK  status: ('A' for Active; 'I' for Inactive)
DOCKED: REMARK    1  A    between atoms: C_6  and  C_10 
DOCKED: REMARK    2  A    between atoms: C_10  and  C_11 
DOCKED: REMARK    3  A    between atoms: C_11  and  C_12 
DOCKED: REMARK    4  A    between atoms: C_12  and  O_14 
DOCKED: REMARK    5  A    between atoms: C_17  and  C_20 
DOCKED: REMARK    6  A    between atoms: C_24  and  C_27 
DOCKED: REMARK    7  A    between atoms: C_31  and  C_34 
DOCKED: REMARK    8  A    between atoms: C_34  and  C_35 
DOCKED: REMARK    9  A    between atoms: C_35  and  C_36 
DOCKED: REMARK   10  A    between atoms: C_36  and  O_38 
DOCKED: USER                              x       y       z     vdW  Elec       q    Type
DOCKED: USER                           _______ _______ _______ _____ _____    ______ ____
DOCKED: ROOT
DOCKED: ATOM      1  C   UNL d   1     -11.679   0.178   2.998 -0.22 +0.03    +0.064 A 
DOCKED: ATOM      2  C   UNL d   1      -7.629   1.601   0.966 -0.39 +0.01    +0.064 A 
DOCKED: ATOM      3  C   UNL d   1      -5.522   2.048   5.262 -0.29 +0.00    +0.064 C 
DOCKED: ATOM      4  C   UNL d   1      -9.532   0.128   7.337 -0.27 +0.01    +0.064 A 
DOCKED: ATOM      5  C   UNL d   1     -10.749   0.527   2.094 -0.28 +0.03    +0.066 A 
DOCKED: ATOM      6  C   UNL d   1     -10.970   0.556   0.714 -0.30 -0.01    -0.021 A 
DOCKED: ATOM      7  C   UNL d   1      -9.785   0.926   0.122 -0.36 -0.01    -0.025 A 
DOCKED: ATOM      8  C   UNL d   1      -8.886   1.159   1.160 -0.36 +0.01    +0.066 A 
DOCKED: ATOM      9  C   UNL d   1      -9.553   1.012  -1.371 +0.04 +0.01    +0.051 C 
DOCKED: ATOM     10  C   UNL d   1      -6.648   1.885   2.015 -0.36 +0.01    +0.066 A 
DOCKED: ATOM     11  C   UNL d   1      -5.414   2.496   1.769 -0.40 -0.00    -0.021 A 
DOCKED: ATOM     12  C   UNL d   1      -4.799   2.650   2.998 -0.38 -0.00    +0.000 A 
DOCKED: ATOM     13  C   UNL d   1      -5.709   2.101   3.943 -0.32 +0.00    +0.070 A 
DOCKED: ATOM     14  C   UNL d   1      -4.856   2.939   0.421 -0.53 -0.00    +0.052 C 
DOCKED: ATOM     15  C   UNL d   1      -6.402   1.469   6.249 -0.36 +0.00    +0.066 A 
DOCKED: ATOM     16  C   UNL d   1      -6.077   1.297   7.594 -0.44 -0.00    -0.021 A 
DOCKED: ATOM     17  C   UNL d   1      -7.205   0.750   8.205 -0.46 +0.00    +0.000 A 
DOCKED: ATOM     18  C   UNL d   1      -8.147   0.629   7.174 -0.37 +0.01    +0.070 A 
DOCKED: ATOM     19  C   UNL d   1      -4.715   1.614   8.158 -0.50 -0.00    +0.052 C 
DOCKED: ATOM     20  C   UNL d   1     -10.446  -0.041   6.362 -0.38 +0.01    +0.066 A 
DOCKED: ATOM     21  C   UNL d   1     -11.742  -0.502   6.579 -0.35 -0.00    -0.025 A 
DOCKED: ATOM     22  C   UNL d   1     -12.377  -0.468   5.357 -0.33 -0.01    -0.021 A 
DOCKED: ATOM     23  C   UNL d   1     -11.436  -0.004   4.434 -0.24 +0.02    +0.066 A 
DOCKED: ATOM     24  C   UNL d   1     -12.343  -0.954   7.884 -0.46 +0.01    +0.051 C 
DOCKED: ATOM     25  N   UNL d   1      -9.461   0.850   2.371 -0.20 -0.07    -0.248 N 
DOCKED: ATOM     26  N   UNL d   1      -6.829   1.633   3.336 -0.21 -0.03    -0.248 N 
DOCKED: ATOM     27  N   UNL d   1      -7.617   1.000   5.980 -0.11 -0.05    -0.248 N 
DOCKED: ATOM     28  N   UNL d   1     -10.250   0.212   5.040 -0.24 -0.08    -0.248 N 
DOCKED: ATOM     29 FE   UNL d   1      -8.551   0.917   4.197 -0.08 +0.00    +0.000 Fe
DOCKED: ATOM     30  O   UNL d   1      -8.021  -0.217   3.272 -0.48 +0.00    +0.000 OA
DOCKED: ATOM     31  O   UNL d   1      -8.223  -0.494   4.810 -0.83 +0.00    +0.000 OA
DOCKED: ENDROOT
DOCKED: BRANCH   6  32
DOCKED: ATOM     32  C   UNL d   1     -12.204   0.121  -0.032 -0.27 +0.05    +0.052 C 
DOCKED: BRANCH  32  33
DOCKED: ATOM     33  C   UNL d   1     -12.655   1.138  -1.076 -0.17 +0.12    +0.115 C 
DOCKED: BRANCH  33  34
DOCKED: ATOM     34  C   UNL d   1     -14.118   1.003  -1.417 -0.00 +0.21    +0.139 C 
DOCKED: ATOM     35  O   UNL d   1     -14.630   1.787  -2.200 +0.00 -0.82    -0.650 OA
DOCKED: BRANCH  34  36
DOCKED: ATOM     36  O   UNL d   1     -14.887   0.049  -0.852 -0.03 -1.22    -0.776 OA
DOCKED: ATOM     37  H   UNL d   1     -14.719  -0.282   0.038 +0.04 +0.27    +0.167 HD
DOCKED: ENDBRANCH  34  36
DOCKED: ENDBRANCH  33  34
DOCKED: ENDBRANCH  32  33
DOCKED: ENDBRANCH   6  32
DOCKED: BRANCH  22  38
DOCKED: ATOM     38  C   UNL d   1     -13.789  -0.919   5.089 -0.04 +0.02    +0.052 C 
DOCKED: BRANCH  38  39
DOCKED: ATOM     39  C   UNL d   1     -13.856  -2.034   4.047 -0.25 +0.07    +0.115 C 
DOCKED: BRANCH  39  40
DOCKED: ATOM     40  C   UNL d   1     -14.554  -1.599   2.782 -0.21 +0.12    +0.139 C 
DOCKED: ATOM     41  O   UNL d   1     -15.638  -1.044   2.849 +0.02 -0.64    -0.650 OA
DOCKED: BRANCH  40  42
DOCKED: ATOM     42  O   UNL d   1     -13.977  -1.767   1.576 -0.04 -0.89    -0.776 OA
DOCKED: ATOM     43  H   UNL d   1     -14.290  -1.292   0.797 +0.05 +0.21    +0.167 HD
DOCKED: ENDBRANCH  40  42
DOCKED: ENDBRANCH  39  40
DOCKED: ENDBRANCH  38  39
DOCKED: ENDBRANCH  22  38
DOCKED: BRANCH  12  44
DOCKED: ATOM     44  C   UNL d   1      -3.434   3.289   3.139 -0.47 -0.00    +0.004 C 
DOCKED: ATOM     45  C   UNL d   1      -2.787   3.599   4.262 -0.58 -0.00    +0.012 C 
DOCKED: ENDBRANCH  12  44
DOCKED: BRANCH  17  46
DOCKED: ATOM     46  C   UNL d   1      -7.438   0.293   9.621 -0.27 +0.00    +0.004 C 
DOCKED: ATOM     47  C   UNL d   1      -6.784  -0.655  10.304 -0.69 +0.00    +0.012 C 
DOCKED: ENDBRANCH  17  46
DOCKED: TORSDOF 10
DOCKED: TER
DOCKED: ENDMDL
________________________________________________________________________________


	BEGINNING GENETIC ALGORITHM DOCKING 15 of 100
Run: 15 Seed: 1705550902 502629743 [ Run 15 of 100 GA/GALS ]
Beginning LAMARCKIAN GENETIC ALGORITHM (LGA), with a maximum of 25000000 energy evaluations.

Final-Value: -13.798


	FINAL GENETIC ALGORITHM DOCKED STATE
	_______________________________________________


Detailed state:  trans -13.449 -0.962 3.489 quatxyzw 0.291768 -0.443679 -0.327461 0.781530 center 8.287 34.468 -0.670 ntor 10 121.7248 -3.6155 38.0262 109.7424 43.2849 137.0553 -53.8793 159.8677 -42.4271 -172.6407
State:	-13.449  -0.962   3.489   0.468 -0.711 -0.525 77.198    121.72   -3.62   38.03  109.74   43.28  137.06  -53.88  159.87  -42.43 -172.64

DOCKED: MODEL       15
DOCKED: USER    Run = 15
DOCKED: USER    DPF = D:/Protein_go_brrr/autodock/final/AncMH_nat/heme_O2/dock.dpf
DOCKED: USER  
DOCKED: USER    Estimated Free Energy of Binding    =  -10.18 kcal/mol  [=(1)+(2)+(3)-(4)]
DOCKED: USER    Estimated Inhibition Constant, Ki   =   34.32 nM (nanomolar)  [Temperature = 298.15 K]
DOCKED: USER    
DOCKED: USER    (1) Final Intermolecular Energy     =  -13.17 kcal/mol
DOCKED: USER        vdW + Hbond + desolv Energy     =  -10.89 kcal/mol
DOCKED: USER        Electrostatic Energy            =   -2.27 kcal/mol
DOCKED: USER    (2) Final Total Internal Energy     =   -0.63 kcal/mol
DOCKED: USER    (3) Torsional Free Energy           =   +2.98 kcal/mol
DOCKED: USER    (4) Unbound System's Energy  [=(2)] =   -0.63 kcal/mol
DOCKED: USER    
DOCKED: USER    
DOCKED: USER    NEWDPF move heme_O2_opt.pdbqt
DOCKED: USER    NEWDPF about 8.287000 34.468000 -0.670000
DOCKED: USER    NEWDPF tran0 -13.449447 -0.961946 3.489239
DOCKED: USER    NEWDPF quaternion0 0.291768 -0.443679 -0.327461 0.781530
DOCKED: USER    NEWDPF axisangle0 0.467676 -0.711175 -0.524889 77.198177
DOCKED: USER    NEWDPF quat0 0.467676 -0.711175 -0.524889 77.198177
DOCKED: USER    NEWDPF dihe0 121.72 -3.62 38.03 109.74 43.28 137.06 -53.88 159.87 -42.43 -172.64 
DOCKED: USER  keepresnum = 1 
DOCKED: USER  
DOCKED: REMARK  10 active torsions:
DOCKED: REMARK  status: ('A' for Active; 'I' for Inactive)
DOCKED: REMARK    1  A    between atoms: C_6  and  C_10 
DOCKED: REMARK    2  A    between atoms: C_10  and  C_11 
DOCKED: REMARK    3  A    between atoms: C_11  and  C_12 
DOCKED: REMARK    4  A    between atoms: C_12  and  O_14 
DOCKED: REMARK    5  A    between atoms: C_17  and  C_20 
DOCKED: REMARK    6  A    between atoms: C_24  and  C_27 
DOCKED: REMARK    7  A    between atoms: C_31  and  C_34 
DOCKED: REMARK    8  A    between atoms: C_34  and  C_35 
DOCKED: REMARK    9  A    between atoms: C_35  and  C_36 
DOCKED: REMARK   10  A    between atoms: C_36  and  O_38 
DOCKED: USER                              x       y       z     vdW  Elec       q    Type
DOCKED: USER                           _______ _______ _______ _____ _____    ______ ____
DOCKED: ROOT
DOCKED: ATOM      1  C   UNL d   1     -15.048  -1.662   4.695 -0.13 +0.03    +0.064 A 
DOCKED: ATOM      2  C   UNL d   1     -10.623  -0.275   5.723 -0.38 +0.01    +0.064 A 
DOCKED: ATOM      3  C   UNL d   1      -9.701   0.543   1.078 -0.40 +0.02    +0.064 C 
DOCKED: ATOM      4  C   UNL d   1     -14.401  -0.426   0.059 -0.14 +0.10    +0.064 A 
DOCKED: ATOM      5  C   UNL d   1     -13.920  -1.350   5.354 -0.09 +0.02    +0.066 A 
DOCKED: ATOM      6  C   UNL d   1     -13.763  -1.472   6.737 -0.32 -0.00    -0.021 A 
DOCKED: ATOM      7  C   UNL d   1     -12.497  -1.030   7.041 -0.32 -0.00    -0.025 A 
DOCKED: ATOM      8  C   UNL d   1     -11.899  -0.695   5.830 -0.33 +0.01    +0.066 A 
DOCKED: ATOM      9  C   UNL d   1     -11.931  -0.919   8.441 -0.51 +0.00    +0.051 C 
DOCKED: ATOM     10  C   UNL d   1      -9.935   0.069   4.478 -0.10 +0.02    +0.066 A 
DOCKED: ATOM     11  C   UNL d   1      -8.564   0.342   4.407 +0.03 -0.01    -0.021 A 
DOCKED: ATOM     12  C   UNL d   1      -8.276   0.562   3.073 -0.33 +0.00    +0.000 A 
DOCKED: ATOM     13  C   UNL d   1      -9.517   0.421   2.392 -0.31 +0.02    +0.070 A 
DOCKED: ATOM     14  C   UNL d   1      -7.567   0.364   5.560 -0.38 +0.01    +0.052 C 
DOCKED: ATOM     15  C   UNL d   1     -10.946   0.442   0.355 -0.29 +0.04    +0.066 A 
DOCKED: ATOM     16  C   UNL d   1     -11.102   0.742  -0.998 -0.28 -0.01    -0.021 A 
DOCKED: ATOM     17  C   UNL d   1     -12.434   0.474  -1.311 -0.22 +0.00    +0.000 A 
DOCKED: ATOM     18  C   UNL d   1     -12.999   0.022  -0.110 -0.18 +0.08    +0.070 A 
DOCKED: ATOM     19  C   UNL d   1      -9.990   1.304  -1.848 -0.22 +0.01    +0.052 C 
DOCKED: ATOM     20  C   UNL d   1     -14.987  -0.824   1.205 -0.17 +0.09    +0.066 A 
DOCKED: ATOM     21  C   UNL d   1     -16.308  -1.252   1.299 -0.14 -0.03    -0.025 A 
DOCKED: ATOM     22  C   UNL d   1     -16.502  -1.634   2.607 -0.11 -0.02    -0.021 A 
DOCKED: ATOM     23  C   UNL d   1     -15.292  -1.406   3.271 -0.15 +0.06    +0.066 A 
DOCKED: ATOM     24  C   UNL d   1     -17.334  -1.292   0.196 -0.10 +0.05    +0.051 C 
DOCKED: ATOM     25  N   UNL d   1     -12.799  -0.830   4.798 -0.20 -0.09    -0.248 N 
DOCKED: ATOM     26  N   UNL d   1     -10.522   0.125   3.256 -0.09 -0.09    -0.248 N 
DOCKED: ATOM     27  N   UNL d   1     -12.101   0.081   0.907 -0.16 -0.22    -0.248 N 
DOCKED: ATOM     28  N   UNL d   1     -14.388  -0.871   2.425 -0.15 -0.26    -0.248 N 
DOCKED: ATOM     29 FE   UNL d   1     -12.468  -0.376   2.834 -0.06 +0.00    +0.000 Fe
DOCKED: ATOM     30  O   UNL d   1     -12.530   0.870   3.766 -0.39 +0.00    +0.000 OA
DOCKED: ATOM     31  O   UNL d   1     -13.197   0.927   2.339 -0.47 +0.00    +0.000 OA
DOCKED: ENDROOT
DOCKED: BRANCH   6  32
DOCKED: ATOM     32  C   UNL d   1     -14.805  -1.859   7.754 -0.33 +0.01    +0.052 C 
DOCKED: BRANCH  32  33
DOCKED: ATOM     33  C   UNL d   1     -15.697  -3.003   7.282 -0.25 +0.03    +0.115 C 
DOCKED: BRANCH  33  34
DOCKED: ATOM     34  C   UNL d   1     -15.691  -4.170   8.238 -0.40 +0.03    +0.139 C 
DOCKED: ATOM     35  O   UNL d   1     -15.111  -5.199   7.930 -0.22 -0.22    -0.650 OA
DOCKED: BRANCH  34  36
DOCKED: ATOM     36  O   UNL d   1     -16.337  -4.114   9.421 -0.40 -0.16    -0.776 OA
DOCKED: ATOM     37  H   UNL d   1     -17.025  -4.746   9.658 -0.52 -0.02    +0.167 HD
DOCKED: ENDBRANCH  34  36
DOCKED: ENDBRANCH  33  34
DOCKED: ENDBRANCH  32  33
DOCKED: ENDBRANCH   6  32
DOCKED: BRANCH  22  38
DOCKED: ATOM     38  C   UNL d   1     -17.798  -2.128   3.195 -0.05 +0.04    +0.052 C 
DOCKED: BRANCH  38  39
DOCKED: ATOM     39  C   UNL d   1     -18.841  -1.020   3.319 -0.07 +0.11    +0.115 C 
DOCKED: BRANCH  39  40
DOCKED: ATOM     40  C   UNL d   1     -18.222   0.356   3.325 -0.14 +0.21    +0.139 C 
DOCKED: ATOM     41  O   UNL d   1     -17.700   0.781   4.343 +0.02 -0.92    -0.650 OA
DOCKED: BRANCH  40  42
DOCKED: ATOM     42  O   UNL d   1     -18.189   1.109   2.209 -0.31 -1.51    -0.776 OA
DOCKED: ATOM     43  H   UNL d   1     -18.548   0.788   1.373 +0.03 +0.26    +0.167 HD
DOCKED: ENDBRANCH  40  42
DOCKED: ENDBRANCH  39  40
DOCKED: ENDBRANCH  38  39
DOCKED: ENDBRANCH  22  38
DOCKED: BRANCH  12  44
DOCKED: ATOM     44  C   UNL d   1      -6.874   0.883   2.596 -0.35 +0.00    +0.004 C 
DOCKED: ATOM     45  C   UNL d   1      -6.514   1.673   1.586 -0.47 +0.00    +0.012 C 
DOCKED: ENDBRANCH  12  44
DOCKED: BRANCH  17  46
DOCKED: ATOM     46  C   UNL d   1     -13.205   0.658  -2.591 -0.17 +0.00    +0.004 C 
DOCKED: ATOM     47  C   UNL d   1     -13.566  -0.275  -3.482 -0.16 +0.01    +0.012 C 
DOCKED: ENDBRANCH  17  46
DOCKED: TORSDOF 10
DOCKED: TER
DOCKED: ENDMDL
________________________________________________________________________________


	BEGINNING GENETIC ALGORITHM DOCKING 16 of 100
Run: 16 Seed: 699943244 1840852296 [ Run 16 of 100 GA/GALS ]
Beginning LAMARCKIAN GENETIC ALGORITHM (LGA), with a maximum of 25000000 energy evaluations.

Final-Value: -13.271


	FINAL GENETIC ALGORITHM DOCKED STATE
	_______________________________________________


Detailed state:  trans -13.835 -0.813 1.254 quatxyzw -0.051245 -0.569776 -0.054502 -0.818388 center 8.287 34.468 -0.670 ntor 10 1.8131 68.0836 1.4094 35.7331 89.8405 -63.7204 -173.2803 149.4053 -173.5041 -177.9806
State:	-13.835  -0.813   1.254  -0.089 -0.991 -0.095 -70.153      1.81   68.08    1.41   35.73   89.84  -63.72 -173.28  149.41 -173.50 -177.98

DOCKED: MODEL       16
DOCKED: USER    Run = 16
DOCKED: USER    DPF = D:/Protein_go_brrr/autodock/final/AncMH_nat/heme_O2/dock.dpf
DOCKED: USER  
DOCKED: USER    Estimated Free Energy of Binding    =   -9.05 kcal/mol  [=(1)+(2)+(3)-(4)]
DOCKED: USER    Estimated Inhibition Constant, Ki   =  231.34 nM (nanomolar)  [Temperature = 298.15 K]
DOCKED: USER    
DOCKED: USER    (1) Final Intermolecular Energy     =  -12.04 kcal/mol
DOCKED: USER        vdW + Hbond + desolv Energy     =   -8.28 kcal/mol
DOCKED: USER        Electrostatic Energy            =   -3.75 kcal/mol
DOCKED: USER    (2) Final Total Internal Energy     =   -1.24 kcal/mol
DOCKED: USER    (3) Torsional Free Energy           =   +2.98 kcal/mol
DOCKED: USER    (4) Unbound System's Energy  [=(2)] =   -1.24 kcal/mol
DOCKED: USER    
DOCKED: USER    
DOCKED: USER    NEWDPF move heme_O2_opt.pdbqt
DOCKED: USER    NEWDPF about 8.287000 34.468000 -0.670000
DOCKED: USER    NEWDPF tran0 -13.835017 -0.812877 1.253628
DOCKED: USER    NEWDPF quaternion0 -0.051245 -0.569776 -0.054502 -0.818388
DOCKED: USER    NEWDPF axisangle0 -0.089173 -0.991490 -0.094841 -70.152557
DOCKED: USER    NEWDPF quat0 -0.089173 -0.991490 -0.094841 -70.152557
DOCKED: USER    NEWDPF dihe0 1.81 68.08 1.41 35.73 89.84 -63.72 -173.28 149.41 -173.50 -177.98 
DOCKED: USER  keepresnum = 1 
DOCKED: USER  
DOCKED: REMARK  10 active torsions:
DOCKED: REMARK  status: ('A' for Active; 'I' for Inactive)
DOCKED: REMARK    1  A    between atoms: C_6  and  C_10 
DOCKED: REMARK    2  A    between atoms: C_10  and  C_11 
DOCKED: REMARK    3  A    between atoms: C_11  and  C_12 
DOCKED: REMARK    4  A    between atoms: C_12  and  O_14 
DOCKED: REMARK    5  A    between atoms: C_17  and  C_20 
DOCKED: REMARK    6  A    between atoms: C_24  and  C_27 
DOCKED: REMARK    7  A    between atoms: C_31  and  C_34 
DOCKED: REMARK    8  A    between atoms: C_34  and  C_35 
DOCKED: REMARK    9  A    between atoms: C_35  and  C_36 
DOCKED: REMARK   10  A    between atoms: C_36  and  O_38 
DOCKED: USER                              x       y       z     vdW  Elec       q    Type
DOCKED: USER                           _______ _______ _______ _____ _____    ______ ____
DOCKED: ROOT
DOCKED: ATOM      1  C   UNL d   1     -13.649  -0.277  -0.790 -0.15 +0.08    +0.064 A 
DOCKED: ATOM      2  C   UNL d   1     -17.083  -2.468   1.652 -0.08 +0.06    +0.064 A 
DOCKED: ATOM      3  C   UNL d   1     -14.505  -2.197   5.699 -0.27 +0.02    +0.064 C 
DOCKED: ATOM      4  C   UNL d   1     -11.171   0.484   3.298 -0.30 +0.03    +0.064 A 
DOCKED: ATOM      5  C   UNL d   1     -14.794  -0.893  -0.456 -0.11 +0.09    +0.066 A 
DOCKED: ATOM      6  C   UNL d   1     -15.816  -1.192  -1.362 -0.12 -0.02    -0.021 A 
DOCKED: ATOM      7  C   UNL d   1     -16.830  -1.787  -0.647 -0.09 -0.03    -0.025 A 
DOCKED: ATOM      8  C   UNL d   1     -16.378  -1.880   0.666 -0.10 +0.08    +0.066 A 
DOCKED: ATOM      9  C   UNL d   1     -18.164  -2.206  -1.224 -0.07 +0.04    +0.051 C 
DOCKED: ATOM     10  C   UNL d   1     -16.653  -2.616   3.043 -0.07 +0.05    +0.066 A 
DOCKED: ATOM     11  C   UNL d   1     -17.350  -3.378   3.987 -0.07 -0.01    -0.021 A 
DOCKED: ATOM     12  C   UNL d   1     -16.613  -3.327   5.156 -0.12 +0.00    +0.000 A 
DOCKED: ATOM     13  C   UNL d   1     -15.489  -2.508   4.855 -0.13 +0.04    +0.070 A 
DOCKED: ATOM     14  C   UNL d   1     -18.650  -4.146   3.776 -0.07 +0.03    +0.052 C 
DOCKED: ATOM     15  C   UNL d   1     -13.370  -1.343   5.444 -0.25 +0.02    +0.066 A 
DOCKED: ATOM     16  C   UNL d   1     -12.463  -0.923   6.416 -0.38 -0.00    -0.021 A 
DOCKED: ATOM     17  C   UNL d   1     -11.503  -0.157   5.755 -0.44 +0.00    +0.000 A 
DOCKED: ATOM     18  C   UNL d   1     -11.901  -0.168   4.411 -0.27 +0.03    +0.070 A 
DOCKED: ATOM     19  C   UNL d   1     -12.621  -1.242   7.882 -0.40 +0.00    +0.052 C 
DOCKED: ATOM     20  C   UNL d   1     -11.547   0.529   2.006 -0.27 +0.04    +0.066 A 
DOCKED: ATOM     21  C   UNL d   1     -10.809   1.144   0.999 -0.29 -0.01    -0.025 A 
DOCKED: ATOM     22  C   UNL d   1     -11.486   0.914  -0.178 -0.27 -0.02    -0.021 A 
DOCKED: ATOM     23  C   UNL d   1     -12.627   0.179   0.159 -0.21 +0.07    +0.066 A 
DOCKED: ATOM     24  C   UNL d   1      -9.523   1.915   1.152 -0.29 +0.01    +0.051 C 
DOCKED: ATOM     25  N   UNL d   1     -15.152  -1.271   0.796 -0.14 -0.33    -0.248 N 
DOCKED: ATOM     26  N   UNL d   1     -15.524  -2.076   3.569 -0.07 -0.18    -0.248 N 
DOCKED: ATOM     27  N   UNL d   1     -13.076  -0.830   4.253 -0.18 -0.12    -0.248 N 
DOCKED: ATOM     28  N   UNL d   1     -12.684  -0.014   1.493 -0.16 -0.25    -0.248 N 
DOCKED: ATOM     29 FE   UNL d   1     -14.092  -1.037   2.526 -0.05 +0.00    +0.000 Fe
DOCKED: ATOM     30  O   UNL d   1     -15.388  -0.177   2.462 -0.30 +0.00    +0.000 OA
DOCKED: ATOM     31  O   UNL d   1     -14.075   0.434   3.082 -0.29 +0.00    +0.000 OA
DOCKED: ENDROOT
DOCKED: BRANCH   6  32
DOCKED: ATOM     32  C   UNL d   1     -15.900  -0.810  -2.817 -0.10 +0.04    +0.052 C 
DOCKED: BRANCH  32  33
DOCKED: ATOM     33  C   UNL d   1     -16.580   0.539  -3.037 -0.03 +0.08    +0.115 C 
DOCKED: BRANCH  33  34
DOCKED: ATOM     34  C   UNL d   1     -16.915   1.232  -1.740 -0.02 +0.17    +0.139 C 
DOCKED: ATOM     35  O   UNL d   1     -17.680   0.700  -0.951 -0.04 -0.78    -0.650 OA
DOCKED: BRANCH  34  36
DOCKED: ATOM     36  O   UNL d   1     -16.410   2.447  -1.441 +0.09 -1.62    -0.776 OA
DOCKED: ATOM     37  H   UNL d   1     -15.842   2.929  -2.053 +0.01 +0.26    +0.167 HD
DOCKED: ENDBRANCH  34  36
DOCKED: ENDBRANCH  33  34
DOCKED: ENDBRANCH  32  33
DOCKED: ENDBRANCH   6  32
DOCKED: BRANCH  22  38
DOCKED: ATOM     38  C   UNL d   1     -11.087   1.429  -1.536 -0.29 +0.02    +0.052 C 
DOCKED: BRANCH  38  39
DOCKED: ATOM     39  C   UNL d   1     -11.405   2.912  -1.713 -0.19 +0.05    +0.115 C 
DOCKED: BRANCH  39  40
DOCKED: ATOM     40  C   UNL d   1     -12.630   3.335  -0.940 -0.08 +0.16    +0.139 C 
DOCKED: ATOM     41  O   UNL d   1     -12.541   3.574   0.253 -0.24 -0.96    -0.650 OA
DOCKED: BRANCH  40  42
DOCKED: ATOM     42  O   UNL d   1     -13.816   3.504  -1.555 +0.00 -1.19    -0.776 OA
DOCKED: ATOM     43  H   UNL d   1     -14.322   2.754  -1.890 +0.02 +0.27    +0.167 HD
DOCKED: ENDBRANCH  40  42
DOCKED: ENDBRANCH  39  40
DOCKED: ENDBRANCH  38  39
DOCKED: ENDBRANCH  22  38
DOCKED: BRANCH  12  44
DOCKED: ATOM     44  C   UNL d   1     -17.050  -4.047   6.414 -0.18 +0.00    +0.004 C 
DOCKED: ATOM     45  C   UNL d   1     -16.408  -4.122   7.580 -0.36 +0.00    +0.012 C 
DOCKED: ENDBRANCH  12  44
DOCKED: BRANCH  17  46
DOCKED: ATOM     46  C   UNL d   1     -10.316   0.607   6.279 -0.39 +0.00    +0.004 C 
DOCKED: ATOM     47  C   UNL d   1      -9.578   0.347   7.365 -0.49 +0.00    +0.012 C 
DOCKED: ENDBRANCH  17  46
DOCKED: TORSDOF 10
DOCKED: TER
DOCKED: ENDMDL
________________________________________________________________________________


	BEGINNING GENETIC ALGORITHM DOCKING 17 of 100
Run: 17 Seed: 1159268171 848140072 [ Run 17 of 100 GA/GALS ]
Beginning LAMARCKIAN GENETIC ALGORITHM (LGA), with a maximum of 25000000 energy evaluations.

Final-Value: -14.816


	FINAL GENETIC ALGORITHM DOCKED STATE
	_______________________________________________


Detailed state:  trans -13.128 -1.006 3.179 quatxyzw 0.308793 -0.216173 -0.263233 0.888045 center 8.287 34.468 -0.670 ntor 10 108.4382 43.3469 113.1034 -104.6607 -134.1648 -152.6049 -71.2975 -116.8731 178.0354 132.4969
State:	-13.128  -1.006   3.179   0.672 -0.470 -0.573 54.743    108.44   43.35  113.10 -104.66 -134.16 -152.60  -71.30 -116.87  178.04  132.50

DOCKED: MODEL       17
DOCKED: USER    Run = 17
DOCKED: USER    DPF = D:/Protein_go_brrr/autodock/final/AncMH_nat/heme_O2/dock.dpf
DOCKED: USER  
DOCKED: USER    Estimated Free Energy of Binding    =  -10.11 kcal/mol  [=(1)+(2)+(3)-(4)]
DOCKED: USER    Estimated Inhibition Constant, Ki   =   38.58 nM (nanomolar)  [Temperature = 298.15 K]
DOCKED: USER    
DOCKED: USER    (1) Final Intermolecular Energy     =  -13.10 kcal/mol
DOCKED: USER        vdW + Hbond + desolv Energy     =   -9.76 kcal/mol
DOCKED: USER        Electrostatic Energy            =   -3.34 kcal/mol
DOCKED: USER    (2) Final Total Internal Energy     =   -1.72 kcal/mol
DOCKED: USER    (3) Torsional Free Energy           =   +2.98 kcal/mol
DOCKED: USER    (4) Unbound System's Energy  [=(2)] =   -1.72 kcal/mol
DOCKED: USER    
DOCKED: USER    
DOCKED: USER    NEWDPF move heme_O2_opt.pdbqt
DOCKED: USER    NEWDPF about 8.287000 34.468000 -0.670000
DOCKED: USER    NEWDPF tran0 -13.128140 -1.005561 3.178585
DOCKED: USER    NEWDPF quaternion0 0.308793 -0.216173 -0.263233 0.888045
DOCKED: USER    NEWDPF axisangle0 0.671645 -0.470191 -0.572550 54.742780
DOCKED: USER    NEWDPF quat0 0.671645 -0.470191 -0.572550 54.742780
DOCKED: USER    NEWDPF dihe0 108.44 43.35 113.10 -104.66 -134.16 -152.60 -71.30 -116.87 178.04 132.50 
DOCKED: USER  keepresnum = 1 
DOCKED: USER  
DOCKED: REMARK  10 active torsions:
DOCKED: REMARK  status: ('A' for Active; 'I' for Inactive)
DOCKED: REMARK    1  A    between atoms: C_6  and  C_10 
DOCKED: REMARK    2  A    between atoms: C_10  and  C_11 
DOCKED: REMARK    3  A    between atoms: C_11  and  C_12 
DOCKED: REMARK    4  A    between atoms: C_12  and  O_14 
DOCKED: REMARK    5  A    between atoms: C_17  and  C_20 
DOCKED: REMARK    6  A    between atoms: C_24  and  C_27 
DOCKED: REMARK    7  A    between atoms: C_31  and  C_34 
DOCKED: REMARK    8  A    between atoms: C_34  and  C_35 
DOCKED: REMARK    9  A    between atoms: C_35  and  C_36 
DOCKED: REMARK   10  A    between atoms: C_36  and  O_38 
DOCKED: USER                              x       y       z     vdW  Elec       q    Type
DOCKED: USER                           _______ _______ _______ _____ _____    ______ ____
DOCKED: ROOT
DOCKED: ATOM      1  C   UNL d   1     -15.103  -1.756   3.366 -0.16 +0.05    +0.064 A 
DOCKED: ATOM      2  C   UNL d   1     -11.741  -0.738   6.563 -0.23 +0.01    +0.064 A 
DOCKED: ATOM      3  C   UNL d   1      -8.697   0.570   3.082 -0.29 +0.02    +0.064 C 
DOCKED: ATOM      4  C   UNL d   1     -12.309  -0.020  -0.186 -0.21 +0.06    +0.064 A 
DOCKED: ATOM      5  C   UNL d   1     -14.438  -1.584   4.520 -0.19 +0.04    +0.066 A 
DOCKED: ATOM      6  C   UNL d   1     -14.967  -1.877   5.780 -0.17 -0.01    -0.021 A 
DOCKED: ATOM      7  C   UNL d   1     -14.010  -1.542   6.709 -0.31 -0.01    -0.025 A 
DOCKED: ATOM      8  C   UNL d   1     -12.905  -1.099   5.988 -0.30 +0.02    +0.066 A 
DOCKED: ATOM      9  C   UNL d   1     -14.193  -1.626   8.209 -0.27 +0.00    +0.051 C 
DOCKED: ATOM     10  C   UNL d   1     -10.540  -0.287   5.858 -0.37 +0.01    +0.066 A 
DOCKED: ATOM     11  C   UNL d   1      -9.309  -0.081   6.490 -0.31 -0.00    -0.021 A 
DOCKED: ATOM     12  C   UNL d   1      -8.414   0.279   5.500 -0.19 +0.00    +0.000 A 
DOCKED: ATOM     13  C   UNL d   1      -9.169   0.285   4.295 +0.07 +0.03    +0.070 A 
DOCKED: ATOM     14  C   UNL d   1      -8.993  -0.248   7.972 -0.16 +0.01    +0.052 C 
DOCKED: ATOM     15  C   UNL d   1      -9.437   0.622   1.843 -0.33 +0.02    +0.066 A 
DOCKED: ATOM     16  C   UNL d   1      -8.922   1.086   0.634 -0.40 -0.00    -0.021 A 
DOCKED: ATOM     17  C   UNL d   1      -9.934   0.929  -0.313 -0.36 +0.00    +0.000 A 
DOCKED: ATOM     18  C   UNL d   1     -11.004   0.370   0.400 -0.28 +0.04    +0.070 A 
DOCKED: ATOM     19  C   UNL d   1      -7.543   1.685   0.502 -0.43 +0.01    +0.052 C 
DOCKED: ATOM     20  C   UNL d   1     -13.371  -0.518   0.476 -0.17 +0.08    +0.066 A 
DOCKED: ATOM     21  C   UNL d   1     -14.569  -0.883  -0.132 -0.13 -0.03    -0.025 A 
DOCKED: ATOM     22  C   UNL d   1     -15.367  -1.406   0.860 -0.17 -0.03    -0.021 A 
DOCKED: ATOM     23  C   UNL d   1     -14.631  -1.322   2.046 -0.21 +0.07    +0.066 A 
DOCKED: ATOM     24  C   UNL d   1     -14.934  -0.738  -1.587 -0.13 +0.06    +0.051 C 
DOCKED: ATOM     25  N   UNL d   1     -13.192  -1.063   4.643 -0.20 -0.10    -0.248 N 
DOCKED: ATOM     26  N   UNL d   1     -10.463  -0.056   4.523 -0.17 -0.08    -0.248 N 
DOCKED: ATOM     27  N   UNL d   1     -10.711   0.261   1.721 -0.17 -0.12    -0.248 N 
DOCKED: ATOM     28  N   UNL d   1     -13.436  -0.740   1.816 -0.17 -0.26    -0.248 N 
DOCKED: ATOM     29 FE   UNL d   1     -11.959  -0.399   3.157 -0.07 +0.00    +0.000 Fe
DOCKED: ATOM     30  O   UNL d   1     -12.476   0.729   4.096 -0.35 +0.00    +0.000 OA
DOCKED: ATOM     31  O   UNL d   1     -12.371   0.990   2.546 -0.42 +0.00    +0.000 OA
DOCKED: ENDROOT
DOCKED: BRANCH   6  32
DOCKED: ATOM     32  C   UNL d   1     -16.367  -2.325   6.112 -0.16 +0.02    +0.052 C 
DOCKED: BRANCH  32  33
DOCKED: ATOM     33  C   UNL d   1     -17.262  -1.179   6.574 -0.11 +0.06    +0.115 C 
DOCKED: BRANCH  33  34
DOCKED: ATOM     34  C   UNL d   1     -18.271  -0.778   5.526 -0.12 +0.11    +0.139 C 
DOCKED: ATOM     35  O   UNL d   1     -19.242  -1.488   5.322 +0.03 -0.44    -0.650 OA
DOCKED: BRANCH  34  36
DOCKED: ATOM     36  O   UNL d   1     -18.110   0.338   4.786 +0.06 -0.97    -0.776 OA
DOCKED: ATOM     37  H   UNL d   1     -17.885   0.302   3.849 +0.03 +0.23    +0.167 HD
DOCKED: ENDBRANCH  34  36
DOCKED: ENDBRANCH  33  34
DOCKED: ENDBRANCH  32  33
DOCKED: ENDBRANCH   6  32
DOCKED: BRANCH  22  38
DOCKED: ATOM     38  C   UNL d   1     -16.781  -1.896   0.684 -0.12 +0.06    +0.052 C 
DOCKED: BRANCH  38  39
DOCKED: ATOM     39  C   UNL d   1     -17.755  -1.221   1.647 -0.06 +0.11    +0.115 C 
DOCKED: BRANCH  39  40
DOCKED: ATOM     40  C   UNL d   1     -17.835   0.270   1.436 -0.11 +0.20    +0.139 C 
DOCKED: ATOM     41  O   UNL d   1     -17.055   0.817   0.672 -0.28 -1.49    -0.650 OA
DOCKED: BRANCH  40  42
DOCKED: ATOM     42  O   UNL d   1     -18.787   1.008   2.039 -0.27 -1.50    -0.776 OA
DOCKED: ATOM     43  H   UNL d   1     -18.992   0.900   2.976 +0.02 +0.40    +0.167 HD
DOCKED: ENDBRANCH  40  42
DOCKED: ENDBRANCH  39  40
DOCKED: ENDBRANCH  38  39
DOCKED: ENDBRANCH  22  38
DOCKED: BRANCH  12  44
DOCKED: ATOM     44  C   UNL d   1      -6.960   0.578   5.801 -0.42 +0.00    +0.004 C 
DOCKED: ATOM     45  C   UNL d   1      -6.455   1.636   6.434 -0.47 +0.00    +0.012 C 
DOCKED: ENDBRANCH  12  44
DOCKED: BRANCH  17  46
DOCKED: ATOM     46  C   UNL d   1      -9.992   1.303  -1.770 -0.27 +0.00    +0.004 C 
DOCKED: ATOM     47  C   UNL d   1     -10.740   2.248  -2.353 -0.28 +0.00    +0.012 C 
DOCKED: ENDBRANCH  17  46
DOCKED: TORSDOF 10
DOCKED: TER
DOCKED: ENDMDL
________________________________________________________________________________


	BEGINNING GENETIC ALGORITHM DOCKING 18 of 100
Run: 18 Seed: 167959271 1859111335 [ Run 18 of 100 GA/GALS ]
Beginning LAMARCKIAN GENETIC ALGORITHM (LGA), with a maximum of 25000000 energy evaluations.

Final-Value: -18.428


	FINAL GENETIC ALGORITHM DOCKED STATE
	_______________________________________________


Detailed state:  trans -9.925 0.746 4.187 quatxyzw -0.887863 0.043556 -0.433055 0.149216 center 8.287 34.468 -0.670 ntor 10 107.0183 -107.5177 -10.1623 -25.9314 147.8107 125.3531 -49.8997 58.7641 -135.3244 -164.3362
State:	 -9.925   0.746   4.187  -0.898  0.044 -0.438 162.837    107.02 -107.52  -10.16  -25.93  147.81  125.35  -49.90   58.76 -135.32 -164.34

DOCKED: MODEL       18
DOCKED: USER    Run = 18
DOCKED: USER    DPF = D:/Protein_go_brrr/autodock/final/AncMH_nat/heme_O2/dock.dpf
DOCKED: USER  
DOCKED: USER    Estimated Free Energy of Binding    =  -13.41 kcal/mol  [=(1)+(2)+(3)-(4)]
DOCKED: USER    Estimated Inhibition Constant, Ki   =  147.64 pM (picomolar)  [Temperature = 298.15 K]
DOCKED: USER    
DOCKED: USER    (1) Final Intermolecular Energy     =  -16.39 kcal/mol
DOCKED: USER        vdW + Hbond + desolv Energy     =  -13.66 kcal/mol
DOCKED: USER        Electrostatic Energy            =   -2.74 kcal/mol
DOCKED: USER    (2) Final Total Internal Energy     =   -2.03 kcal/mol
DOCKED: USER    (3) Torsional Free Energy           =   +2.98 kcal/mol
DOCKED: USER    (4) Unbound System's Energy  [=(2)] =   -2.03 kcal/mol
DOCKED: USER    
DOCKED: USER    
DOCKED: USER    NEWDPF move heme_O2_opt.pdbqt
DOCKED: USER    NEWDPF about 8.287000 34.468000 -0.670000
DOCKED: USER    NEWDPF tran0 -9.925098 0.746092 4.186942
DOCKED: USER    NEWDPF quaternion0 -0.887863 0.043556 -0.433055 0.149216
DOCKED: USER    NEWDPF axisangle0 -0.897915 0.044049 -0.437958 162.837003
DOCKED: USER    NEWDPF quat0 -0.897915 0.044049 -0.437958 162.837003
DOCKED: USER    NEWDPF dihe0 107.02 -107.52 -10.16 -25.93 147.81 125.35 -49.90 58.76 -135.32 -164.34 
DOCKED: USER  keepresnum = 1 
DOCKED: USER  
DOCKED: REMARK  10 active torsions:
DOCKED: REMARK  status: ('A' for Active; 'I' for Inactive)
DOCKED: REMARK    1  A    between atoms: C_6  and  C_10 
DOCKED: REMARK    2  A    between atoms: C_10  and  C_11 
DOCKED: REMARK    3  A    between atoms: C_11  and  C_12 
DOCKED: REMARK    4  A    between atoms: C_12  and  O_14 
DOCKED: REMARK    5  A    between atoms: C_17  and  C_20 
DOCKED: REMARK    6  A    between atoms: C_24  and  C_27 
DOCKED: REMARK    7  A    between atoms: C_31  and  C_34 
DOCKED: REMARK    8  A    between atoms: C_34  and  C_35 
DOCKED: REMARK    9  A    between atoms: C_35  and  C_36 
DOCKED: REMARK   10  A    between atoms: C_36  and  O_38 
DOCKED: USER                              x       y       z     vdW  Elec       q    Type
DOCKED: USER                           _______ _______ _______ _____ _____    ______ ____
DOCKED: ROOT
DOCKED: ATOM      1  C   UNL d   1     -11.816   0.318   3.326 -0.29 +0.03    +0.064 A 
DOCKED: ATOM      2  C   UNL d   1      -7.720   1.852   1.473 -0.35 +0.01    +0.064 A 
DOCKED: ATOM      3  C   UNL d   1      -5.651   1.849   5.811 -0.28 +0.00    +0.064 C 
DOCKED: ATOM      4  C   UNL d   1      -9.715  -0.185   7.658 -0.11 +0.01    +0.064 A 
DOCKED: ATOM      5  C   UNL d   1     -10.870   0.734   2.468 -0.28 +0.03    +0.066 A 
DOCKED: ATOM      6  C   UNL d   1     -11.076   0.899   1.095 -0.29 -0.01    -0.021 A 
DOCKED: ATOM      7  C   UNL d   1      -9.879   1.301   0.551 -0.33 -0.01    -0.025 A 
DOCKED: ATOM      8  C   UNL d   1      -8.987   1.418   1.614 -0.30 +0.02    +0.066 A 
DOCKED: ATOM      9  C   UNL d   1      -9.631   1.524  -0.925 -0.15 +0.01    +0.051 C 
DOCKED: ATOM     10  C   UNL d   1      -6.746   2.017   2.553 -0.34 +0.01    +0.066 A 
DOCKED: ATOM     11  C   UNL d   1      -5.498   2.626   2.377 -0.38 -0.00    -0.021 A 
DOCKED: ATOM     12  C   UNL d   1      -4.894   2.651   3.620 -0.37 -0.00    +0.000 A 
DOCKED: ATOM     13  C   UNL d   1      -5.822   2.031   4.502 -0.30 +0.00    +0.070 A 
DOCKED: ATOM     14  C   UNL d   1      -4.919   3.185   1.083 -0.46 -0.00    +0.052 C 
DOCKED: ATOM     15  C   UNL d   1      -6.551   1.196   6.730 -0.38 +0.00    +0.066 A 
DOCKED: ATOM     16  C   UNL d   1      -6.243   0.890   8.055 -0.47 -0.00    -0.021 A 
DOCKED: ATOM     17  C   UNL d   1      -7.386   0.309   8.602 -0.46 +0.00    +0.000 A 
DOCKED: ATOM     18  C   UNL d   1      -8.319   0.305   7.556 -0.37 +0.01    +0.070 A 
DOCKED: ATOM     19  C   UNL d   1      -4.881   1.128   8.659 -0.59 -0.00    +0.052 C 
DOCKED: ATOM     20  C   UNL d   1     -10.622  -0.243   6.664 -0.37 +0.01    +0.066 A 
DOCKED: ATOM     21  C   UNL d   1     -11.928  -0.698   6.825 -0.34 -0.00    -0.025 A 
DOCKED: ATOM     22  C   UNL d   1     -12.549  -0.536   5.607 -0.34 -0.01    -0.021 A 
DOCKED: ATOM     23  C   UNL d   1     -11.590  -0.003   4.740 -0.31 +0.02    +0.066 A 
DOCKED: ATOM     24  C   UNL d   1     -12.550  -1.261   8.076 -0.41 +0.00    +0.051 C 
DOCKED: ATOM     25  N   UNL d   1      -9.580   1.006   2.785 -0.17 -0.08    -0.248 N 
DOCKED: ATOM     26  N   UNL d   1      -6.944   1.645   3.843 -0.12 -0.03    -0.248 N 
DOCKED: ATOM     27  N   UNL d   1      -7.771   0.777   6.408 -0.21 -0.04    -0.248 N 
DOCKED: ATOM     28  N   UNL d   1     -10.408   0.131   5.375 -0.27 -0.07    -0.248 N 
DOCKED: ATOM     29 FE   UNL d   1      -8.687   0.882   4.617 -0.08 +0.00    +0.000 Fe
DOCKED: ATOM     30  O   UNL d   1      -8.168  -0.169   3.593 -0.58 +0.00    +0.000 OA
DOCKED: ATOM     31  O   UNL d   1      -8.391  -0.587   5.095 -0.86 +0.00    +0.000 OA
DOCKED: ENDROOT
DOCKED: BRANCH   6  32
DOCKED: ATOM     32  C   UNL d   1     -12.311   0.560   0.300 -0.26 +0.06    +0.052 C 
DOCKED: BRANCH  32  33
DOCKED: ATOM     33  C   UNL d   1     -12.797  -0.866   0.541 -0.14 +0.12    +0.115 C 
DOCKED: BRANCH  33  34
DOCKED: ATOM     34  C   UNL d   1     -14.259  -0.920   0.913 -0.21 +0.18    +0.139 C 
DOCKED: ATOM     35  O   UNL d   1     -14.886   0.119   1.045 +0.08 -1.40    -0.650 OA
DOCKED: BRANCH  34  36
DOCKED: ATOM     36  O   UNL d   1     -14.886  -2.094   1.133 +0.05 -1.03    -0.776 OA
DOCKED: ATOM     37  H   UNL d   1     -15.139  -2.380   2.018 +0.04 +0.19    +0.167 HD
DOCKED: ENDBRANCH  34  36
DOCKED: ENDBRANCH  33  34
DOCKED: ENDBRANCH  32  33
DOCKED: ENDBRANCH   6  32
DOCKED: BRANCH  22  38
DOCKED: ATOM     38  C   UNL d   1     -13.967  -0.934   5.285 +0.19 +0.02    +0.052 C 
DOCKED: BRANCH  38  39
DOCKED: ATOM     39  C   UNL d   1     -14.195  -2.437   5.423 -0.26 +0.04    +0.115 C 
DOCKED: BRANCH  39  40
DOCKED: ATOM     40  C   UNL d   1     -14.696  -3.064   4.146 -0.19 +0.08    +0.139 C 
DOCKED: ATOM     41  O   UNL d   1     -15.896  -3.137   3.937 +0.07 -0.42    -0.650 OA
DOCKED: BRANCH  40  42
DOCKED: ATOM     42  O   UNL d   1     -13.839  -3.501   3.202 -0.18 -0.69    -0.776 OA
DOCKED: ATOM     43  H   UNL d   1     -13.695  -3.009   2.385 +0.05 +0.20    +0.167 HD
DOCKED: ENDBRANCH  40  42
DOCKED: ENDBRANCH  39  40
DOCKED: ENDBRANCH  38  39
DOCKED: ENDBRANCH  22  38
DOCKED: BRANCH  12  44
DOCKED: ATOM     44  C   UNL d   1      -3.518   3.248   3.834 -0.45 -0.00    +0.004 C 
DOCKED: ATOM     45  C   UNL d   1      -2.938   3.576   4.988 -0.60 -0.00    +0.012 C 
DOCKED: ENDBRANCH  12  44
DOCKED: BRANCH  17  46
DOCKED: ATOM     46  C   UNL d   1      -7.642  -0.276   9.966 -0.61 +0.00    +0.004 C 
DOCKED: ATOM     47  C   UNL d   1      -6.781  -0.914  10.769 -0.70 -0.00    +0.012 C 
DOCKED: ENDBRANCH  17  46
DOCKED: TORSDOF 10
DOCKED: TER
DOCKED: ENDMDL
________________________________________________________________________________


	BEGINNING GENETIC ALGORITHM DOCKING 19 of 100
Run: 19 Seed: 700863301 603659556 [ Run 19 of 100 GA/GALS ]
Beginning LAMARCKIAN GENETIC ALGORITHM (LGA), with a maximum of 25000000 energy evaluations.

Final-Value: -13.620


	FINAL GENETIC ALGORITHM DOCKED STATE
	_______________________________________________


Detailed state:  trans -13.818 -0.760 1.250 quatxyzw -0.072117 -0.566194 -0.080217 -0.817183 center 8.287 34.468 -0.670 ntor 10 -163.1256 60.0804 -14.7986 17.2325 51.0840 -76.1335 -99.4631 163.2055 170.4929 169.8351
State:	-13.818  -0.760   1.250  -0.125 -0.982 -0.139 -70.392   -163.13   60.08  -14.80   17.23   51.08  -76.13  -99.46  163.21  170.49  169.84

DOCKED: MODEL       19
DOCKED: USER    Run = 19
DOCKED: USER    DPF = D:/Protein_go_brrr/autodock/final/AncMH_nat/heme_O2/dock.dpf
DOCKED: USER  
DOCKED: USER    Estimated Free Energy of Binding    =   -8.72 kcal/mol  [=(1)+(2)+(3)-(4)]
DOCKED: USER    Estimated Inhibition Constant, Ki   =  402.53 nM (nanomolar)  [Temperature = 298.15 K]
DOCKED: USER    
DOCKED: USER    (1) Final Intermolecular Energy     =  -11.71 kcal/mol
DOCKED: USER        vdW + Hbond + desolv Energy     =   -8.44 kcal/mol
DOCKED: USER        Electrostatic Energy            =   -3.26 kcal/mol
DOCKED: USER    (2) Final Total Internal Energy     =   -1.91 kcal/mol
DOCKED: USER    (3) Torsional Free Energy           =   +2.98 kcal/mol
DOCKED: USER    (4) Unbound System's Energy  [=(2)] =   -1.91 kcal/mol
DOCKED: USER    
DOCKED: USER    
DOCKED: USER    NEWDPF move heme_O2_opt.pdbqt
DOCKED: USER    NEWDPF about 8.287000 34.468000 -0.670000
DOCKED: USER    NEWDPF tran0 -13.817935 -0.760092 1.249972
DOCKED: USER    NEWDPF quaternion0 -0.072117 -0.566194 -0.080217 -0.817183
DOCKED: USER    NEWDPF axisangle0 -0.125121 -0.982332 -0.139174 -70.392348
DOCKED: USER    NEWDPF quat0 -0.125121 -0.982332 -0.139174 -70.392348
DOCKED: USER    NEWDPF dihe0 -163.13 60.08 -14.80 17.23 51.08 -76.13 -99.46 163.21 170.49 169.84 
DOCKED: USER  keepresnum = 1 
DOCKED: USER  
DOCKED: REMARK  10 active torsions:
DOCKED: REMARK  status: ('A' for Active; 'I' for Inactive)
DOCKED: REMARK    1  A    between atoms: C_6  and  C_10 
DOCKED: REMARK    2  A    between atoms: C_10  and  C_11 
DOCKED: REMARK    3  A    between atoms: C_11  and  C_12 
DOCKED: REMARK    4  A    between atoms: C_12  and  O_14 
DOCKED: REMARK    5  A    between atoms: C_17  and  C_20 
DOCKED: REMARK    6  A    between atoms: C_24  and  C_27 
DOCKED: REMARK    7  A    between atoms: C_31  and  C_34 
DOCKED: REMARK    8  A    between atoms: C_34  and  C_35 
DOCKED: REMARK    9  A    between atoms: C_35  and  C_36 
DOCKED: REMARK   10  A    between atoms: C_36  and  O_38 
DOCKED: USER                              x       y       z     vdW  Elec       q    Type
DOCKED: USER                           _______ _______ _______ _____ _____    ______ ____
DOCKED: ROOT
DOCKED: ATOM      1  C   UNL d   1     -13.606  -0.247  -0.797 -0.14 +0.08    +0.064 A 
DOCKED: ATOM      2  C   UNL d   1     -17.167  -2.195   1.669 -0.07 +0.06    +0.064 A 
DOCKED: ATOM      3  C   UNL d   1     -14.559  -2.077   5.704 -0.25 +0.02    +0.064 C 
DOCKED: ATOM      4  C   UNL d   1     -11.065   0.366   3.278 -0.29 +0.03    +0.064 A 
DOCKED: ATOM      5  C   UNL d   1     -14.788  -0.784  -0.455 -0.11 +0.09    +0.066 A 
DOCKED: ATOM      6  C   UNL d   1     -15.831  -1.018  -1.356 -0.13 -0.02    -0.021 A 
DOCKED: ATOM      7  C   UNL d   1     -16.879  -1.542  -0.635 -0.11 -0.03    -0.025 A 
DOCKED: ATOM      8  C   UNL d   1     -16.429  -1.659   0.678 -0.12 +0.08    +0.066 A 
DOCKED: ATOM      9  C   UNL d   1     -18.241  -1.874  -1.204 -0.05 +0.04    +0.051 C 
DOCKED: ATOM     10  C   UNL d   1     -16.741  -2.365   3.059 -0.07 +0.05    +0.066 A 
DOCKED: ATOM     11  C   UNL d   1     -17.483  -3.074   4.010 -0.06 -0.01    -0.021 A 
DOCKED: ATOM     12  C   UNL d   1     -16.739  -3.067   5.175 -0.11 +0.00    +0.000 A 
DOCKED: ATOM     13  C   UNL d   1     -15.565  -2.326   4.866 -0.12 +0.04    +0.070 A 
DOCKED: ATOM     14  C   UNL d   1     -18.832  -3.755   3.807 -0.05 +0.03    +0.052 C 
DOCKED: ATOM     15  C   UNL d   1     -13.371  -1.301   5.441 -0.24 +0.02    +0.066 A 
DOCKED: ATOM     16  C   UNL d   1     -12.434  -0.938   6.407 -0.36 -0.00    -0.021 A 
DOCKED: ATOM     17  C   UNL d   1     -11.428  -0.240   5.739 -0.44 +0.00    +0.000 A 
DOCKED: ATOM     18  C   UNL d   1     -11.832  -0.231   4.396 -0.24 +0.03    +0.070 A 
DOCKED: ATOM     19  C   UNL d   1     -12.607  -1.239   7.875 -0.40 +0.00    +0.052 C 
DOCKED: ATOM     20  C   UNL d   1     -11.443   0.430   1.987 -0.27 +0.04    +0.066 A 
DOCKED: ATOM     21  C   UNL d   1     -10.669   0.990   0.974 -0.30 -0.01    -0.025 A 
DOCKED: ATOM     22  C   UNL d   1     -11.366   0.800  -0.199 -0.28 -0.01    -0.021 A 
DOCKED: ATOM     23  C   UNL d   1     -12.552   0.145   0.146 -0.22 +0.07    +0.066 A 
DOCKED: ATOM     24  C   UNL d   1      -9.335   1.675   1.118 -0.36 +0.01    +0.051 C 
DOCKED: ATOM     25  N   UNL d   1     -15.164  -1.131   0.800 -0.14 -0.34    -0.248 N 
DOCKED: ATOM     26  N   UNL d   1     -15.577  -1.898   3.578 -0.07 -0.18    -0.248 N 
DOCKED: ATOM     27  N   UNL d   1     -13.049  -0.814   4.246 -0.18 -0.12    -0.248 N 
DOCKED: ATOM     28  N   UNL d   1     -12.615  -0.038   1.481 -0.16 -0.24    -0.248 N 
DOCKED: ATOM     29 FE   UNL d   1     -14.084  -0.961   2.524 -0.05 +0.00    +0.000 Fe
DOCKED: ATOM     30  O   UNL d   1     -15.320  -0.017   2.462 -0.31 +0.00    +0.000 OA
DOCKED: ATOM     31  O   UNL d   1     -13.967   0.508   3.073 -0.30 +0.00    +0.000 OA
DOCKED: ENDROOT
DOCKED: BRANCH   6  32
DOCKED: ATOM     32  C   UNL d   1     -15.896  -0.638  -2.812 -0.10 +0.04    +0.052 C 
DOCKED: BRANCH  32  33
DOCKED: ATOM     33  C   UNL d   1     -16.818   0.549  -3.074 -0.02 +0.08    +0.115 C 
DOCKED: BRANCH  33  34
DOCKED: ATOM     34  C   UNL d   1     -16.174   1.867  -2.721 -0.05 +0.13    +0.139 C 
DOCKED: ATOM     35  O   UNL d   1     -16.443   2.404  -1.658 -0.00 -1.18    -0.650 OA
DOCKED: BRANCH  34  36
DOCKED: ATOM     36  O   UNL d   1     -15.324   2.484  -3.567 +0.02 -0.47    -0.776 OA
DOCKED: ATOM     37  H   UNL d   1     -14.727   3.181  -3.274 +0.02 +0.11    +0.167 HD
DOCKED: ENDBRANCH  34  36
DOCKED: ENDBRANCH  33  34
DOCKED: ENDBRANCH  32  33
DOCKED: ENDBRANCH   6  32
DOCKED: BRANCH  22  38
DOCKED: ATOM     38  C   UNL d   1     -10.939   1.282  -1.561 -0.30 +0.02    +0.052 C 
DOCKED: BRANCH  38  39
DOCKED: ATOM     39  C   UNL d   1     -11.424   2.700  -1.856 -0.19 +0.05    +0.115 C 
DOCKED: BRANCH  39  40
DOCKED: ATOM     40  C   UNL d   1     -12.548   3.125  -0.944 -0.14 +0.16    +0.139 C 
DOCKED: ATOM     41  O   UNL d   1     -12.330   3.308   0.242 -0.28 -0.90    -0.650 OA
DOCKED: BRANCH  40  42
DOCKED: ATOM     42  O   UNL d   1     -13.785   3.358  -1.426 +0.04 -1.29    -0.776 OA
DOCKED: ATOM     43  H   UNL d   1     -14.304   2.659  -1.841 +0.02 +0.28    +0.167 HD
DOCKED: ENDBRANCH  40  42
DOCKED: ENDBRANCH  39  40
DOCKED: ENDBRANCH  38  39
DOCKED: ENDBRANCH  22  38
DOCKED: BRANCH  12  44
DOCKED: ATOM     44  C   UNL d   1     -17.218  -3.751   6.439 -0.17 +0.00    +0.004 C 
DOCKED: ATOM     45  C   UNL d   1     -16.493  -4.125   7.492 -0.34 +0.00    +0.012 C 
DOCKED: ENDBRANCH  12  44
DOCKED: BRANCH  17  46
DOCKED: ATOM     46  C   UNL d   1     -10.191   0.446   6.254 -0.45 +0.00    +0.004 C 
DOCKED: ATOM     47  C   UNL d   1      -9.659   0.382   7.482 -0.50 +0.00    +0.012 C 
DOCKED: ENDBRANCH  17  46
DOCKED: TORSDOF 10
DOCKED: TER
DOCKED: ENDMDL
________________________________________________________________________________


	BEGINNING GENETIC ALGORITHM DOCKING 20 of 100
Run: 20 Seed: 1117218942 1989526065 [ Run 20 of 100 GA/GALS ]
Beginning LAMARCKIAN GENETIC ALGORITHM (LGA), with a maximum of 25000000 energy evaluations.

Final-Value: -10.297


	FINAL GENETIC ALGORITHM DOCKED STATE
	_______________________________________________


Detailed state:  trans -11.837 -9.273 18.792 quatxyzw -0.770978 0.313748 -0.090399 -0.546793 center 8.287 34.468 -0.670 ntor 10 150.9960 -117.2912 -46.1492 -109.3708 -108.3054 -16.8313 -103.0824 -54.4726 132.5659 29.8161
State:	-11.837  -9.273  18.792  -0.921  0.375 -0.108 -113.705    151.00 -117.29  -46.15 -109.37 -108.31  -16.83 -103.08  -54.47  132.57   29.82

DOCKED: MODEL       20
DOCKED: USER    Run = 20
DOCKED: USER    DPF = D:/Protein_go_brrr/autodock/final/AncMH_nat/heme_O2/dock.dpf
DOCKED: USER  
DOCKED: USER    Estimated Free Energy of Binding    =   -7.12 kcal/mol  [=(1)+(2)+(3)-(4)]
DOCKED: USER    Estimated Inhibition Constant, Ki   =    6.02 uM (micromolar)  [Temperature = 298.15 K]
DOCKED: USER    
DOCKED: USER    (1) Final Intermolecular Energy     =  -10.11 kcal/mol
DOCKED: USER        vdW + Hbond + desolv Energy     =   -7.84 kcal/mol
DOCKED: USER        Electrostatic Energy            =   -2.27 kcal/mol
DOCKED: USER    (2) Final Total Internal Energy     =   -0.19 kcal/mol
DOCKED: USER    (3) Torsional Free Energy           =   +2.98 kcal/mol
DOCKED: USER    (4) Unbound System's Energy  [=(2)] =   -0.19 kcal/mol
DOCKED: USER    
DOCKED: USER    
DOCKED: USER    NEWDPF move heme_O2_opt.pdbqt
DOCKED: USER    NEWDPF about 8.287000 34.468000 -0.670000
DOCKED: USER    NEWDPF tran0 -11.837308 -9.272627 18.792435
DOCKED: USER    NEWDPF quaternion0 -0.770978 0.313748 -0.090399 -0.546793
DOCKED: USER    NEWDPF axisangle0 -0.920826 0.374729 -0.107970 -113.705414
DOCKED: USER    NEWDPF quat0 -0.920826 0.374729 -0.107970 -113.705414
DOCKED: USER    NEWDPF dihe0 151.00 -117.29 -46.15 -109.37 -108.31 -16.83 -103.08 -54.47 132.57 29.82 
DOCKED: USER  keepresnum = 1 
DOCKED: USER  
DOCKED: REMARK  10 active torsions:
DOCKED: REMARK  status: ('A' for Active; 'I' for Inactive)
DOCKED: REMARK    1  A    between atoms: C_6  and  C_10 
DOCKED: REMARK    2  A    between atoms: C_10  and  C_11 
DOCKED: REMARK    3  A    between atoms: C_11  and  C_12 
DOCKED: REMARK    4  A    between atoms: C_12  and  O_14 
DOCKED: REMARK    5  A    between atoms: C_17  and  C_20 
DOCKED: REMARK    6  A    between atoms: C_24  and  C_27 
DOCKED: REMARK    7  A    between atoms: C_31  and  C_34 
DOCKED: REMARK    8  A    between atoms: C_34  and  C_35 
DOCKED: REMARK    9  A    between atoms: C_35  and  C_36 
DOCKED: REMARK   10  A    between atoms: C_36  and  O_38 
DOCKED: USER                              x       y       z     vdW  Elec       q    Type
DOCKED: USER                           _______ _______ _______ _____ _____    ______ ____
DOCKED: ROOT
DOCKED: ATOM      1  C   UNL d   1     -13.926  -8.936  18.940 -0.12 +0.03    +0.064 A 
DOCKED: ATOM      2  C   UNL d   1     -10.164  -6.146  19.725 -0.15 +0.00    +0.064 A 
DOCKED: ATOM      3  C   UNL d   1      -7.159  -9.734  18.635 -0.22 +0.00    +0.064 C 
DOCKED: ATOM      4  C   UNL d   1     -11.024 -12.475  17.362 -0.13 +0.00    +0.064 A 
DOCKED: ATOM      5  C   UNL d   1     -13.148  -7.884  19.241 -0.10 +0.03    +0.066 A 
DOCKED: ATOM      6  C   UNL d   1     -13.638  -6.636  19.639 -0.10 -0.01    -0.021 A 
DOCKED: ATOM      7  C   UNL d   1     -12.550  -5.815  19.825 -0.11 -0.01    -0.025 A 
DOCKED: ATOM      8  C   UNL d   1     -11.425  -6.597  19.582 -0.11 +0.01    +0.066 A 
DOCKED: ATOM      9  C   UNL d   1     -12.626  -4.348  20.188 -0.13 +0.01    +0.051 C 
DOCKED: ATOM     10  C   UNL d   1      -8.944  -6.925  19.507 -0.19 +0.00    +0.066 A 
DOCKED: ATOM     11  C   UNL d   1      -7.665  -6.458  19.827 -0.23 +0.00    -0.021 A 
DOCKED: ATOM     12  C   UNL d   1      -6.786  -7.485  19.537 -0.24 -0.00    +0.000 A 
DOCKED: ATOM     13  C   UNL d   1      -7.596  -8.540  19.033 -0.20 -0.00    +0.070 A 
DOCKED: ATOM     14  C   UNL d   1      -7.298  -5.098  20.412 -0.20 -0.00    +0.052 C 
DOCKED: ATOM     15  C   UNL d   1      -7.942 -10.815  18.086 -0.14 +0.01    +0.066 A 
DOCKED: ATOM     16  C   UNL d   1      -7.405 -11.979  17.535 -0.16 -0.01    -0.021 A 
DOCKED: ATOM     17  C   UNL d   1      -8.489 -12.775  17.164 -0.18 +0.00    +0.000 A 
DOCKED: ATOM     18  C   UNL d   1      -9.620 -12.029  17.523 -0.14 +0.02    +0.070 A 
DOCKED: ATOM     19  C   UNL d   1      -5.924 -12.201  17.363 -0.19 +0.01    +0.052 C 
DOCKED: ATOM     20  C   UNL d   1     -12.132 -11.767  17.656 -0.17 +0.01    +0.066 A 
DOCKED: ATOM     21  C   UNL d   1     -13.429 -12.247  17.499 -0.17 +0.00    -0.025 A 
DOCKED: ATOM     22  C   UNL d   1     -14.269 -11.262  17.969 -0.17 -0.00    -0.021 A 
DOCKED: ATOM     23  C   UNL d   1     -13.450 -10.206  18.380 -0.14 +0.02    +0.066 A 
DOCKED: ATOM     24  C   UNL d   1     -13.847 -13.576  16.926 -0.10 -0.03    +0.051 C 
DOCKED: ATOM     25  N   UNL d   1     -11.795  -7.852  19.159 -0.05 -0.06    -0.248 N 
DOCKED: ATOM     26  N   UNL d   1      -8.907  -8.189  19.013 -0.09 -0.01    -0.248 N 
DOCKED: ATOM     27  N   UNL d   1      -9.269 -10.811  18.012 -0.05 -0.05    -0.248 N 
DOCKED: ATOM     28  N   UNL d   1     -12.154 -10.499  18.146 -0.09 -0.05    -0.248 N 
DOCKED: ATOM     29 FE   UNL d   1     -10.541  -9.354  18.575 -0.03 +0.00    +0.000 Fe
DOCKED: ATOM     30  O   UNL d   1     -10.584  -8.153  17.587 -0.31 +0.00    +0.000 OA
DOCKED: ATOM     31  O   UNL d   1     -10.529  -9.624  17.026 -0.30 +0.00    +0.000 OA
DOCKED: ENDROOT
DOCKED: BRANCH   6  32
DOCKED: ATOM     32  C   UNL d   1     -15.075  -6.189  19.711 -0.09 +0.03    +0.052 C 
DOCKED: BRANCH  32  33
DOCKED: ATOM     33  C   UNL d   1     -15.261  -4.728  19.311 -0.09 +0.06    +0.115 C 
DOCKED: BRANCH  33  34
DOCKED: ATOM     34  C   UNL d   1     -15.149  -4.521  17.821 -0.14 +0.12    +0.139 C 
DOCKED: ATOM     35  O   UNL d   1     -16.162  -4.402  17.151 -0.42 -0.90    -0.650 OA
DOCKED: BRANCH  34  36
DOCKED: ATOM     36  O   UNL d   1     -13.950  -4.491  17.203 -0.02 -0.42    -0.776 OA
DOCKED: ATOM     37  H   UNL d   1     -13.842  -4.762  16.285 -0.46 +0.06    +0.167 HD
DOCKED: ENDBRANCH  34  36
DOCKED: ENDBRANCH  33  34
DOCKED: ENDBRANCH  32  33
DOCKED: ENDBRANCH   6  32
DOCKED: BRANCH  22  38
DOCKED: ATOM     38  C   UNL d   1     -15.775 -11.314  17.960 -0.15 +0.01    +0.052 C 
DOCKED: BRANCH  38  39
DOCKED: ATOM     39  C   UNL d   1     -16.378 -10.926  19.309 -0.07 +0.03    +0.115 C 
DOCKED: BRANCH  39  40
DOCKED: ATOM     40  C   UNL d   1     -17.364  -9.790  19.193 -0.08 +0.08    +0.139 C 
DOCKED: ATOM     41  O   UNL d   1     -18.482  -9.908  19.668 +0.01 -0.22    -0.650 OA
DOCKED: BRANCH  40  42
DOCKED: ATOM     42  O   UNL d   1     -17.016  -8.623  18.618 -0.43 -1.30    -0.776 OA
DOCKED: ATOM     43  H   UNL d   1     -16.977  -7.803  19.125 +0.01 +0.23    +0.167 HD
DOCKED: ENDBRANCH  40  42
DOCKED: ENDBRANCH  39  40
DOCKED: ENDBRANCH  38  39
DOCKED: ENDBRANCH  22  38
DOCKED: BRANCH  12  44
DOCKED: ATOM     44  C   UNL d   1      -5.294  -7.355  19.763 -0.29 -0.00    +0.004 C 
DOCKED: ATOM     45  C   UNL d   1      -4.488  -8.195  20.410 -0.25 -0.00    +0.012 C 
DOCKED: ENDBRANCH  12  44
DOCKED: BRANCH  17  46
DOCKED: ATOM     46  C   UNL d   1      -8.543 -14.110  16.470 -0.32 +0.00    +0.004 C 
DOCKED: ATOM     47  C   UNL d   1      -9.067 -14.401  15.273 -0.36 +0.01    +0.012 C 
DOCKED: ENDBRANCH  17  46
DOCKED: TORSDOF 10
DOCKED: TER
DOCKED: ENDMDL
________________________________________________________________________________


	BEGINNING GENETIC ALGORITHM DOCKING 21 of 100
Run: 21 Seed: 259773205 1713339951 [ Run 21 of 100 GA/GALS ]
Beginning LAMARCKIAN GENETIC ALGORITHM (LGA), with a maximum of 25000000 energy evaluations.

Final-Value: -13.377


	FINAL GENETIC ALGORITHM DOCKED STATE
	_______________________________________________


Detailed state:  trans -13.747 -0.666 1.114 quatxyzw 0.051054 0.579919 0.089643 0.808116 center 8.287 34.468 -0.670 ntor 10 24.9873 65.9902 -0.3121 8.7953 106.2740 -76.5477 125.3011 166.8766 -144.3844 163.8933
State:	-13.747  -0.666   1.114   0.087  0.985  0.152 72.175     24.99   65.99   -0.31    8.80  106.27  -76.55  125.30  166.88 -144.38  163.89

DOCKED: MODEL       21
DOCKED: USER    Run = 21
DOCKED: USER    DPF = D:/Protein_go_brrr/autodock/final/AncMH_nat/heme_O2/dock.dpf
DOCKED: USER  
DOCKED: USER    Estimated Free Energy of Binding    =   -8.82 kcal/mol  [=(1)+(2)+(3)-(4)]
DOCKED: USER    Estimated Inhibition Constant, Ki   =  344.69 nM (nanomolar)  [Temperature = 298.15 K]
DOCKED: USER    
DOCKED: USER    (1) Final Intermolecular Energy     =  -11.80 kcal/mol
DOCKED: USER        vdW + Hbond + desolv Energy     =   -8.48 kcal/mol
DOCKED: USER        Electrostatic Energy            =   -3.32 kcal/mol
DOCKED: USER    (2) Final Total Internal Energy     =   -1.58 kcal/mol
DOCKED: USER    (3) Torsional Free Energy           =   +2.98 kcal/mol
DOCKED: USER    (4) Unbound System's Energy  [=(2)] =   -1.58 kcal/mol
DOCKED: USER    
DOCKED: USER    
DOCKED: USER    NEWDPF move heme_O2_opt.pdbqt
DOCKED: USER    NEWDPF about 8.287000 34.468000 -0.670000
DOCKED: USER    NEWDPF tran0 -13.747039 -0.666073 1.114438
DOCKED: USER    NEWDPF quaternion0 0.051054 0.579919 0.089643 0.808116
DOCKED: USER    NEWDPF axisangle0 0.086676 0.984543 0.152189 72.175470
DOCKED: USER    NEWDPF quat0 0.086676 0.984543 0.152189 72.175470
DOCKED: USER    NEWDPF dihe0 24.99 65.99 -0.31 8.80 106.27 -76.55 125.30 166.88 -144.38 163.89 
DOCKED: USER  keepresnum = 1 
DOCKED: USER  
DOCKED: REMARK  10 active torsions:
DOCKED: REMARK  status: ('A' for Active; 'I' for Inactive)
DOCKED: REMARK    1  A    between atoms: C_6  and  C_10 
DOCKED: REMARK    2  A    between atoms: C_10  and  C_11 
DOCKED: REMARK    3  A    between atoms: C_11  and  C_12 
DOCKED: REMARK    4  A    between atoms: C_12  and  O_14 
DOCKED: REMARK    5  A    between atoms: C_17  and  C_20 
DOCKED: REMARK    6  A    between atoms: C_24  and  C_27 
DOCKED: REMARK    7  A    between atoms: C_31  and  C_34 
DOCKED: REMARK    8  A    between atoms: C_34  and  C_35 
DOCKED: REMARK    9  A    between atoms: C_35  and  C_36 
DOCKED: REMARK   10  A    between atoms: C_36  and  O_38 
DOCKED: USER                              x       y       z     vdW  Elec       q    Type
DOCKED: USER                           _______ _______ _______ _____ _____    ______ ____
DOCKED: ROOT
DOCKED: ATOM      1  C   UNL d   1     -13.464  -0.066  -0.900 -0.14 +0.08    +0.064 A 
DOCKED: ATOM      2  C   UNL d   1     -17.095  -2.144   1.348 -0.08 +0.06    +0.064 A 
DOCKED: ATOM      3  C   UNL d   1     -14.641  -2.173   5.479 -0.25 +0.03    +0.064 C 
DOCKED: ATOM      4  C   UNL d   1     -11.083   0.397   3.290 -0.29 +0.03    +0.064 A 
DOCKED: ATOM      5  C   UNL d   1     -14.652  -0.627  -0.626 -0.10 +0.09    +0.066 A 
DOCKED: ATOM      6  C   UNL d   1     -15.659  -0.832  -1.573 -0.14 -0.02    -0.021 A 
DOCKED: ATOM      7  C   UNL d   1     -16.728  -1.394  -0.915 -0.11 -0.03    -0.025 A 
DOCKED: ATOM      8  C   UNL d   1     -16.326  -1.562   0.408 -0.13 +0.08    +0.066 A 
DOCKED: ATOM      9  C   UNL d   1     -18.064  -1.713  -1.548 -0.06 +0.04    +0.051 C 
DOCKED: ATOM     10  C   UNL d   1     -16.720  -2.368   2.744 -0.08 +0.06    +0.066 A 
DOCKED: ATOM     11  C   UNL d   1     -17.490  -3.124   3.636 -0.05 -0.01    -0.021 A 
DOCKED: ATOM     12  C   UNL d   1     -16.790  -3.159   4.828 -0.10 +0.00    +0.000 A 
DOCKED: ATOM     13  C   UNL d   1     -15.613  -2.396   4.594 -0.12 +0.04    +0.070 A 
DOCKED: ATOM     14  C   UNL d   1     -18.824  -3.806   3.355 -0.05 +0.03    +0.052 C 
DOCKED: ATOM     15  C   UNL d   1     -13.451  -1.378   5.293 -0.24 +0.02    +0.066 A 
DOCKED: ATOM     16  C   UNL d   1     -12.554  -1.048   6.309 -0.35 -0.00    -0.021 A 
DOCKED: ATOM     17  C   UNL d   1     -11.531  -0.314   5.708 -0.43 +0.00    +0.000 A 
DOCKED: ATOM     18  C   UNL d   1     -11.885  -0.253   4.353 -0.25 +0.03    +0.070 A 
DOCKED: ATOM     19  C   UNL d   1     -12.779  -1.411   7.755 -0.35 +0.00    +0.052 C 
DOCKED: ATOM     20  C   UNL d   1     -11.413   0.512   1.989 -0.27 +0.04    +0.066 A 
DOCKED: ATOM     21  C   UNL d   1     -10.608   1.120   1.030 -0.29 -0.01    -0.025 A 
DOCKED: ATOM     22  C   UNL d   1     -11.258   0.973  -0.175 -0.28 -0.01    -0.021 A 
DOCKED: ATOM     23  C   UNL d   1     -12.449   0.294   0.097 -0.22 +0.07    +0.066 A 
DOCKED: ATOM     24  C   UNL d   1      -9.286   1.809   1.252 -0.30 +0.01    +0.051 C 
DOCKED: ATOM     25  N   UNL d   1     -15.072  -1.029   0.599 -0.14 -0.34    -0.248 N 
DOCKED: ATOM     26  N   UNL d   1     -15.580  -1.915   3.326 -0.08 -0.20    -0.248 N 
DOCKED: ATOM     27  N   UNL d   1     -13.090  -0.839   4.133 -0.18 -0.12    -0.248 N 
DOCKED: ATOM     28  N   UNL d   1     -12.561   0.056   1.420 -0.16 -0.25    -0.248 N 
DOCKED: ATOM     29 FE   UNL d   1     -14.058  -0.922   2.369 -0.05 +0.00    +0.000 Fe
DOCKED: ATOM     30  O   UNL d   1     -15.301   0.013   2.299 -0.32 +0.00    +0.000 OA
DOCKED: ATOM     31  O   UNL d   1     -13.976   0.524   2.982 -0.30 +0.00    +0.000 OA
DOCKED: ENDROOT
DOCKED: BRANCH   6  32
DOCKED: ATOM     32  C   UNL d   1     -15.674  -0.391  -3.014 -0.09 +0.04    +0.052 C 
DOCKED: BRANCH  32  33
DOCKED: ATOM     33  C   UNL d   1     -15.572   1.123  -3.172 -0.04 +0.08    +0.115 C 
DOCKED: BRANCH  33  34
DOCKED: ATOM     34  C   UNL d   1     -16.669   1.852  -2.439 -0.04 +0.14    +0.139 C 
DOCKED: ATOM     35  O   UNL d   1     -17.819   1.450  -2.518 +0.02 -0.48    -0.650 OA
DOCKED: BRANCH  34  36
DOCKED: ATOM     36  O   UNL d   1     -16.414   2.962  -1.715 -0.17 -1.41    -0.776 OA
DOCKED: ATOM     37  H   UNL d   1     -15.659   3.532  -1.902 +0.02 +0.29    +0.167 HD
DOCKED: ENDBRANCH  34  36
DOCKED: ENDBRANCH  33  34
DOCKED: ENDBRANCH  32  33
DOCKED: ENDBRANCH   6  32
DOCKED: BRANCH  22  38
DOCKED: ATOM     38  C   UNL d   1     -10.786   1.515  -1.500 -0.30 +0.02    +0.052 C 
DOCKED: BRANCH  38  39
DOCKED: ATOM     39  C   UNL d   1     -11.390   2.881  -1.819 -0.19 +0.05    +0.115 C 
DOCKED: BRANCH  39  40
DOCKED: ATOM     40  C   UNL d   1     -12.560   3.215  -0.928 -0.14 +0.16    +0.139 C 
DOCKED: ATOM     41  O   UNL d   1     -12.378   3.423   0.260 -0.25 -0.91    -0.650 OA
DOCKED: BRANCH  40  42
DOCKED: ATOM     42  O   UNL d   1     -13.804   3.340  -1.431 +0.04 -1.30    -0.776 OA
DOCKED: ATOM     43  H   UNL d   1     -14.289   2.579  -1.773 +0.02 +0.29    +0.167 HD
DOCKED: ENDBRANCH  40  42
DOCKED: ENDBRANCH  39  40
DOCKED: ENDBRANCH  38  39
DOCKED: ENDBRANCH  22  38
DOCKED: BRANCH  12  44
DOCKED: ATOM     44  C   UNL d   1     -17.309  -3.899   6.043 -0.14 +0.00    +0.004 C 
DOCKED: ATOM     45  C   UNL d   1     -16.698  -4.081   7.214 -0.28 +0.00    +0.012 C 
DOCKED: ENDBRANCH  12  44
DOCKED: BRANCH  17  46
DOCKED: ATOM     46  C   UNL d   1     -10.321   0.359   6.297 -0.52 +0.00    +0.004 C 
DOCKED: ATOM     47  C   UNL d   1      -9.920   0.373   7.575 -0.51 +0.00    +0.012 C 
DOCKED: ENDBRANCH  17  46
DOCKED: TORSDOF 10
DOCKED: TER
DOCKED: ENDMDL
________________________________________________________________________________


	BEGINNING GENETIC ALGORITHM DOCKING 22 of 100
Run: 22 Seed: 139698501 257528930 [ Run 22 of 100 GA/GALS ]
Beginning LAMARCKIAN GENETIC ALGORITHM (LGA), with a maximum of 25000000 energy evaluations.

Final-Value: -16.811


	FINAL GENETIC ALGORITHM DOCKED STATE
	_______________________________________________


Detailed state:  trans -10.113 0.716 4.520 quatxyzw -0.921856 0.028626 -0.351330 0.161026 center 8.287 34.468 -0.670 ntor 10 -150.3302 97.9224 -23.9386 -75.0669 37.1479 76.9046 -76.2774 35.0835 -179.1584 150.3162
State:	-10.113   0.716   4.520  -0.934  0.029 -0.356 161.467   -150.33   97.92  -23.94  -75.07   37.15   76.90  -76.28   35.08 -179.16  150.32

DOCKED: MODEL       22
DOCKED: USER    Run = 22
DOCKED: USER    DPF = D:/Protein_go_brrr/autodock/final/AncMH_nat/heme_O2/dock.dpf
DOCKED: USER  
DOCKED: USER    Estimated Free Energy of Binding    =  -11.91 kcal/mol  [=(1)+(2)+(3)-(4)]
DOCKED: USER    Estimated Inhibition Constant, Ki   =    1.85 nM (nanomolar)  [Temperature = 298.15 K]
DOCKED: USER    
DOCKED: USER    (1) Final Intermolecular Energy     =  -14.90 kcal/mol
DOCKED: USER        vdW + Hbond + desolv Energy     =  -12.94 kcal/mol
DOCKED: USER        Electrostatic Energy            =   -1.96 kcal/mol
DOCKED: USER    (2) Final Total Internal Energy     =   -1.91 kcal/mol
DOCKED: USER    (3) Torsional Free Energy           =   +2.98 kcal/mol
DOCKED: USER    (4) Unbound System's Energy  [=(2)] =   -1.91 kcal/mol
DOCKED: USER    
DOCKED: USER    
DOCKED: USER    NEWDPF move heme_O2_opt.pdbqt
DOCKED: USER    NEWDPF about 8.287000 34.468000 -0.670000
DOCKED: USER    NEWDPF tran0 -10.112597 0.715744 4.519698
DOCKED: USER    NEWDPF quaternion0 -0.921856 0.028626 -0.351330 0.161026
DOCKED: USER    NEWDPF axisangle0 -0.934045 0.029005 -0.355976 161.467089
DOCKED: USER    NEWDPF quat0 -0.934045 0.029005 -0.355976 161.467089
DOCKED: USER    NEWDPF dihe0 -150.33 97.92 -23.94 -75.07 37.15 76.90 -76.28 35.08 -179.16 150.32 
DOCKED: USER  keepresnum = 1 
DOCKED: USER  
DOCKED: REMARK  10 active torsions:
DOCKED: REMARK  status: ('A' for Active; 'I' for Inactive)
DOCKED: REMARK    1  A    between atoms: C_6  and  C_10 
DOCKED: REMARK    2  A    between atoms: C_10  and  C_11 
DOCKED: REMARK    3  A    between atoms: C_11  and  C_12 
DOCKED: REMARK    4  A    between atoms: C_12  and  O_14 
DOCKED: REMARK    5  A    between atoms: C_17  and  C_20 
DOCKED: REMARK    6  A    between atoms: C_24  and  C_27 
DOCKED: REMARK    7  A    between atoms: C_31  and  C_34 
DOCKED: REMARK    8  A    between atoms: C_34  and  C_35 
DOCKED: REMARK    9  A    between atoms: C_35  and  C_36 
DOCKED: REMARK   10  A    between atoms: C_36  and  O_38 
DOCKED: USER                              x       y       z     vdW  Elec       q    Type
DOCKED: USER                           _______ _______ _______ _____ _____    ______ ____
DOCKED: ROOT
DOCKED: ATOM      1  C   UNL d   1     -12.129   0.287   4.019 -0.28 +0.03    +0.064 A 
DOCKED: ATOM      2  C   UNL d   1      -8.426   1.764   1.436 -0.30 +0.01    +0.064 A 
DOCKED: ATOM      3  C   UNL d   1      -5.612   1.817   5.332 -0.23 +0.00    +0.064 C 
DOCKED: ATOM      4  C   UNL d   1      -9.286  -0.160   7.912 -0.07 +0.01    +0.064 A 
DOCKED: ATOM      5  C   UNL d   1     -11.351   0.682   2.998 -0.31 +0.03    +0.066 A 
DOCKED: ATOM      6  C   UNL d   1     -11.799   0.826   1.682 -0.29 -0.02    -0.021 A 
DOCKED: ATOM      7  C   UNL d   1     -10.718   1.212   0.925 -0.29 -0.01    -0.025 A 
DOCKED: ATOM      8  C   UNL d   1      -9.649   1.340   1.809 -0.27 +0.02    +0.066 A 
DOCKED: ATOM      9  C   UNL d   1     -10.737   1.409  -0.575 -0.32 +0.02    +0.051 C 
DOCKED: ATOM     10  C   UNL d   1      -7.273   1.940   2.321 -0.29 +0.01    +0.066 A 
DOCKED: ATOM     11  C   UNL d   1      -6.075   2.537   1.914 -0.40 -0.00    -0.021 A 
DOCKED: ATOM     12  C   UNL d   1      -5.257   2.578   3.028 -0.39 +0.00    +0.000 A 
DOCKED: ATOM     13  C   UNL d   1      -6.015   1.979   4.072 -0.33 +0.00    +0.070 A 
DOCKED: ATOM     14  C   UNL d   1      -5.735   3.072   0.527 -0.42 +0.00    +0.052 C 
DOCKED: ATOM     15  C   UNL d   1      -6.335   1.184   6.409 -0.36 +0.00    +0.066 A 
DOCKED: ATOM     16  C   UNL d   1      -5.795   0.898   7.662 -0.46 -0.00    -0.021 A 
DOCKED: ATOM     17  C   UNL d   1      -6.825   0.333   8.415 -0.47 +0.00    +0.000 A 
DOCKED: ATOM     18  C   UNL d   1      -7.930   0.318   7.553 -0.38 +0.01    +0.070 A 
DOCKED: ATOM     19  C   UNL d   1      -4.347   1.136   8.008 -0.40 -0.00    +0.052 C 
DOCKED: ATOM     20  C   UNL d   1     -10.357  -0.229   7.098 -0.29 +0.01    +0.066 A 
DOCKED: ATOM     21  C   UNL d   1     -11.615  -0.672   7.498 -0.21 -0.00    -0.025 A 
DOCKED: ATOM     22  C   UNL d   1     -12.444  -0.526   6.409 -0.37 -0.00    -0.021 A 
DOCKED: ATOM     23  C   UNL d   1     -11.655  -0.014   5.375 -0.36 +0.02    +0.066 A 
DOCKED: ATOM     24  C   UNL d   1     -12.004  -1.211   8.850 -0.16 +0.00    +0.051 C 
DOCKED: ATOM     25  N   UNL d   1     -10.024   0.950   3.074 -0.17 -0.09    -0.248 N 
DOCKED: ATOM     26  N   UNL d   1      -7.239   1.589   3.632 -0.08 -0.04    -0.248 N 
DOCKED: ATOM     27  N   UNL d   1      -7.595   0.768   6.317 -0.22 -0.04    -0.248 N 
DOCKED: ATOM     28  N   UNL d   1     -10.377   0.123   5.785 -0.28 -0.06    -0.248 N 
DOCKED: ATOM     29 FE   UNL d   1      -8.817   0.850   4.718 -0.08 +0.00    +0.000 Fe
DOCKED: ATOM     30  O   UNL d   1      -8.494  -0.220   3.636 -0.59 +0.00    +0.000 OA
DOCKED: ATOM     31  O   UNL d   1      -8.445  -0.612   5.161 -0.86 +0.00    +0.000 OA
DOCKED: ENDROOT
DOCKED: BRANCH   6  32
DOCKED: ATOM     32  C   UNL d   1     -13.157   0.482   1.127 -0.06 +0.08    +0.052 C 
DOCKED: BRANCH  32  33
DOCKED: ATOM     33  C   UNL d   1     -13.207  -0.908   0.502 -0.12 +0.13    +0.115 C 
DOCKED: BRANCH  33  34
DOCKED: ATOM     34  C   UNL d   1     -13.854  -1.924   1.411 +0.01 +0.17    +0.139 C 
DOCKED: ATOM     35  O   UNL d   1     -13.185  -2.839   1.865 -0.63 -0.88    -0.650 OA
DOCKED: BRANCH  34  36
DOCKED: ATOM     36  O   UNL d   1     -15.167  -1.863   1.713 +0.05 -0.90    -0.776 OA
DOCKED: ATOM     37  H   UNL d   1     -15.514  -2.184   2.554 +0.05 +0.16    +0.167 HD
DOCKED: ENDBRANCH  34  36
DOCKED: ENDBRANCH  33  34
DOCKED: ENDBRANCH  32  33
DOCKED: ENDBRANCH   6  32
DOCKED: BRANCH  22  38
DOCKED: ATOM     38  C   UNL d   1     -13.898  -0.919   6.353 +0.10 +0.01    +0.052 C 
DOCKED: BRANCH  38  39
DOCKED: ATOM     39  C   UNL d   1     -14.131  -2.163   5.497 -0.26 +0.04    +0.115 C 
DOCKED: BRANCH  39  40
DOCKED: ATOM     40  C   UNL d   1     -15.451  -2.121   4.768 -0.13 +0.07    +0.139 C 
DOCKED: ATOM     41  O   UNL d   1     -16.136  -3.128   4.696 +0.09 -0.34    -0.650 OA
DOCKED: BRANCH  40  42
DOCKED: ATOM     42  O   UNL d   1     -15.914  -0.974   4.234 +0.12 -0.57    -0.776 OA
DOCKED: ATOM     43  H   UNL d   1     -15.834  -0.788   3.291 +0.05 +0.16    +0.167 HD
DOCKED: ENDBRANCH  40  42
DOCKED: ENDBRANCH  39  40
DOCKED: ENDBRANCH  38  39
DOCKED: ENDBRANCH  22  38
DOCKED: BRANCH  12  44
DOCKED: ATOM     44  C   UNL d   1      -3.864   3.169   2.981 -0.45 -0.00    +0.004 C 
DOCKED: ATOM     45  C   UNL d   1      -3.184   3.742   3.974 -0.52 -0.00    +0.012 C 
DOCKED: ENDBRANCH  12  44
DOCKED: BRANCH  17  46
DOCKED: ATOM     46  C   UNL d   1      -6.834  -0.228   9.812 -0.62 +0.00    +0.004 C 
DOCKED: ATOM     47  C   UNL d   1      -6.450  -1.445  10.219 -0.69 -0.00    +0.012 C 
DOCKED: ENDBRANCH  17  46
DOCKED: TORSDOF 10
DOCKED: TER
DOCKED: ENDMDL
________________________________________________________________________________


	BEGINNING GENETIC ALGORITHM DOCKING 23 of 100
Run: 23 Seed: 828864485 665530833 [ Run 23 of 100 GA/GALS ]
Beginning LAMARCKIAN GENETIC ALGORITHM (LGA), with a maximum of 25000000 energy evaluations.

Final-Value: -11.086


	FINAL GENETIC ALGORITHM DOCKED STATE
	_______________________________________________


Detailed state:  trans -14.907 8.403 -2.344 quatxyzw -0.796404 -0.145320 0.506082 -0.297495 center 8.287 34.468 -0.670 ntor 10 22.1937 170.1741 -47.7381 129.1546 -126.2968 -107.5317 -29.4438 96.6018 177.6423 176.5685
State:	-14.907   8.403  -2.344  -0.834 -0.152  0.530 -145.386     22.19  170.17  -47.74  129.15 -126.30 -107.53  -29.44   96.60  177.64  176.57

DOCKED: MODEL       23
DOCKED: USER    Run = 23
DOCKED: USER    DPF = D:/Protein_go_brrr/autodock/final/AncMH_nat/heme_O2/dock.dpf
DOCKED: USER  
DOCKED: USER    Estimated Free Energy of Binding    =   -6.14 kcal/mol  [=(1)+(2)+(3)-(4)]
DOCKED: USER    Estimated Inhibition Constant, Ki   =   31.65 uM (micromolar)  [Temperature = 298.15 K]
DOCKED: USER    
DOCKED: USER    (1) Final Intermolecular Energy     =   -9.12 kcal/mol
DOCKED: USER        vdW + Hbond + desolv Energy     =   -5.55 kcal/mol
DOCKED: USER        Electrostatic Energy            =   -3.57 kcal/mol
DOCKED: USER    (2) Final Total Internal Energy     =   -1.96 kcal/mol
DOCKED: USER    (3) Torsional Free Energy           =   +2.98 kcal/mol
DOCKED: USER    (4) Unbound System's Energy  [=(2)] =   -1.96 kcal/mol
DOCKED: USER    
DOCKED: USER    
DOCKED: USER    NEWDPF move heme_O2_opt.pdbqt
DOCKED: USER    NEWDPF about 8.287000 34.468000 -0.670000
DOCKED: USER    NEWDPF tran0 -14.907110 8.403243 -2.343781
DOCKED: USER    NEWDPF quaternion0 -0.796404 -0.145320 0.506082 -0.297495
DOCKED: USER    NEWDPF axisangle0 -0.834173 -0.152212 0.530082 -145.385533
DOCKED: USER    NEWDPF quat0 -0.834173 -0.152212 0.530082 -145.385533
DOCKED: USER    NEWDPF dihe0 22.19 170.17 -47.74 129.15 -126.30 -107.53 -29.44 96.60 177.64 176.57 
DOCKED: USER  keepresnum = 1 
DOCKED: USER  
DOCKED: REMARK  10 active torsions:
DOCKED: REMARK  status: ('A' for Active; 'I' for Inactive)
DOCKED: REMARK    1  A    between atoms: C_6  and  C_10 
DOCKED: REMARK    2  A    between atoms: C_10  and  C_11 
DOCKED: REMARK    3  A    between atoms: C_11  and  C_12 
DOCKED: REMARK    4  A    between atoms: C_12  and  O_14 
DOCKED: REMARK    5  A    between atoms: C_17  and  C_20 
DOCKED: REMARK    6  A    between atoms: C_24  and  C_27 
DOCKED: REMARK    7  A    between atoms: C_31  and  C_34 
DOCKED: REMARK    8  A    between atoms: C_34  and  C_35 
DOCKED: REMARK    9  A    between atoms: C_35  and  C_36 
DOCKED: REMARK   10  A    between atoms: C_36  and  O_38 
DOCKED: USER                              x       y       z     vdW  Elec       q    Type
DOCKED: USER                           _______ _______ _______ _____ _____    ______ ____
DOCKED: ROOT
DOCKED: ATOM      1  C   UNL d   1     -15.068   6.676  -1.123 -0.22 +0.03    +0.064 A 
DOCKED: ATOM      2  C   UNL d   1     -17.663  10.642  -1.428 -0.07 -0.00    +0.064 A 
DOCKED: ATOM      3  C   UNL d   1     -14.769  12.384  -4.846 -0.14 -0.00    +0.064 C 
DOCKED: ATOM      4  C   UNL d   1     -12.370   8.105  -4.880 -0.17 -0.01    +0.064 A 
DOCKED: ATOM      5  C   UNL d   1     -16.011   7.612  -0.928 -0.20 +0.02    +0.066 A 
DOCKED: ATOM      6  C   UNL d   1     -17.041   7.502   0.011 -0.18 -0.01    -0.021 A 
DOCKED: ATOM      7  C   UNL d   1     -17.818   8.630  -0.106 -0.10 -0.00    -0.025 A 
DOCKED: ATOM      8  C   UNL d   1     -17.214   9.421  -1.081 -0.10 +0.00    +0.066 A 
DOCKED: ATOM      9  C   UNL d   1     -19.088   8.891   0.673 -0.06 +0.01    +0.051 C 
DOCKED: ATOM     10  C   UNL d   1     -17.060  11.526  -2.425 -0.08 -0.01    +0.066 A 
DOCKED: ATOM     11  C   UNL d   1     -17.469  12.849  -2.630 -0.06 +0.00    -0.021 A 
DOCKED: ATOM     12  C   UNL d   1     -16.634  13.374  -3.599 -0.07 -0.00    +0.000 A 
DOCKED: ATOM     13  C   UNL d   1     -15.751  12.314  -3.948 -0.10 -0.00    +0.070 A 
DOCKED: ATOM     14  C   UNL d   1     -18.591  13.589  -1.911 -0.03 -0.01    +0.052 C 
DOCKED: ATOM     15  C   UNL d   1     -13.877  11.325  -5.252 -0.10 -0.00    +0.066 A 
DOCKED: ATOM     16  C   UNL d   1     -12.977  11.413  -6.314 -0.17 +0.00    -0.021 A 
DOCKED: ATOM     17  C   UNL d   1     -12.283  10.204  -6.344 -0.21 -0.00    +0.000 A 
DOCKED: ATOM     18  C   UNL d   1     -12.816   9.460  -5.282 -0.08 -0.00    +0.070 A 
DOCKED: ATOM     19  C   UNL d   1     -12.901  12.609  -7.230 -0.14 -0.01    +0.052 C 
DOCKED: ATOM     20  C   UNL d   1     -12.888   7.346  -3.895 -0.17 +0.00    +0.066 A 
DOCKED: ATOM     21  C   UNL d   1     -12.414   6.084  -3.551 -0.16 -0.00    -0.025 A 
DOCKED: ATOM     22  C   UNL d   1     -13.153   5.672  -2.465 -0.18 -0.01    -0.021 A 
DOCKED: ATOM     23  C   UNL d   1     -14.067   6.696  -2.197 -0.20 +0.02    +0.066 A 
DOCKED: ATOM     24  C   UNL d   1     -11.314   5.307  -4.227 -0.19 -0.01    +0.051 C 
DOCKED: ATOM     25  N   UNL d   1     -16.139   8.763  -1.632 -0.10 -0.03    -0.248 N 
DOCKED: ATOM     26  N   UNL d   1     -16.020  11.193  -3.232 -0.06 +0.00    -0.248 N 
DOCKED: ATOM     27  N   UNL d   1     -13.833  10.126  -4.679 +0.06 -0.00    -0.248 N 
DOCKED: ATOM     28  N   UNL d   1     -13.933   7.692  -3.097 -0.11 -0.03    -0.248 N 
DOCKED: ATOM     29 FE   UNL d   1     -14.967   9.430  -3.166 -0.04 +0.00    +0.000 Fe
DOCKED: ATOM     30  O   UNL d   1     -16.416   9.058  -3.598 -0.09 +0.00    +0.000 OA
DOCKED: ATOM     31  O   UNL d   1     -15.202   8.687  -4.532 -0.10 +0.00    +0.000 OA
DOCKED: ENDROOT
DOCKED: BRANCH   6  32
DOCKED: ATOM     32  C   UNL d   1     -17.365   6.323   0.891 -0.08 +0.04    +0.052 C 
DOCKED: BRANCH  32  33
DOCKED: ATOM     33  C   UNL d   1     -18.493   5.460   0.333 -0.13 +0.10    +0.115 C 
DOCKED: BRANCH  33  34
DOCKED: ATOM     34  C   UNL d   1     -18.336   4.004   0.695 -0.10 +0.20    +0.139 C 
DOCKED: ATOM     35  O   UNL d   1     -18.717   3.609   1.785 -0.34 -1.39    -0.650 OA
DOCKED: BRANCH  34  36
DOCKED: ATOM     36  O   UNL d   1     -17.756   3.127  -0.151 +0.04 -1.38    -0.776 OA
DOCKED: ATOM     37  H   UNL d   1     -17.151   3.412  -0.846 +0.01 +0.32    +0.167 HD
DOCKED: ENDBRANCH  34  36
DOCKED: ENDBRANCH  33  34
DOCKED: ENDBRANCH  32  33
DOCKED: ENDBRANCH   6  32
DOCKED: BRANCH  22  38
DOCKED: ATOM     38  C   UNL d   1     -13.027   4.342  -1.769 -0.20 +0.04    +0.052 C 
DOCKED: BRANCH  38  39
DOCKED: ATOM     39  C   UNL d   1     -13.784   3.232  -2.494 -0.10 +0.10    +0.115 C 
DOCKED: BRANCH  39  40
DOCKED: ATOM     40  C   UNL d   1     -15.242   3.183  -2.111 +0.25 +0.21    +0.139 C 
DOCKED: ATOM     41  O   UNL d   1     -15.850   4.221  -1.908 -0.56 -0.88    -0.650 OA
DOCKED: BRANCH  40  42
DOCKED: ATOM     42  O   UNL d   1     -15.903   2.012  -2.037 -0.04 -1.14    -0.776 OA
DOCKED: ATOM     43  H   UNL d   1     -16.805   1.961  -1.697 +0.01 +0.25    +0.167 HD
DOCKED: ENDBRANCH  40  42
DOCKED: ENDBRANCH  39  40
DOCKED: ENDBRANCH  38  39
DOCKED: ENDBRANCH  22  38
DOCKED: BRANCH  12  44
DOCKED: ATOM     44  C   UNL d   1     -16.766  14.802  -4.085 -0.04 -0.00    +0.004 C 
DOCKED: ATOM     45  C   UNL d   1     -15.814  15.731  -4.163 -0.05 +0.00    +0.012 C 
DOCKED: ENDBRANCH  12  44
DOCKED: BRANCH  17  46
DOCKED: ATOM     46  C   UNL d   1     -11.235   9.690  -7.295 -0.26 -0.00    +0.004 C 
DOCKED: ATOM     47  C   UNL d   1      -9.992   9.277  -7.014 -0.32 -0.00    +0.012 C 
DOCKED: ENDBRANCH  17  46
DOCKED: TORSDOF 10
DOCKED: TER
DOCKED: ENDMDL
________________________________________________________________________________


	BEGINNING GENETIC ALGORITHM DOCKING 24 of 100
Run: 24 Seed: 800434628 1525020166 [ Run 24 of 100 GA/GALS ]
Beginning LAMARCKIAN GENETIC ALGORITHM (LGA), with a maximum of 25000000 energy evaluations.

Final-Value: -9.753


	FINAL GENETIC ALGORITHM DOCKED STATE
	_______________________________________________


Detailed state:  trans -2.739 17.963 14.064 quatxyzw -0.130220 0.163089 0.822704 0.528775 center 8.287 34.468 -0.670 ntor 10 -73.4774 -22.7034 71.8629 -88.8093 -119.2587 151.1061 -140.7474 179.6741 -16.2309 5.1881
State:	 -2.739  17.963  14.064  -0.153  0.192  0.969 116.155    -73.48  -22.70   71.86  -88.81 -119.26  151.11 -140.75  179.67  -16.23    5.19

DOCKED: MODEL       24
DOCKED: USER    Run = 24
DOCKED: USER    DPF = D:/Protein_go_brrr/autodock/final/AncMH_nat/heme_O2/dock.dpf
DOCKED: USER  
DOCKED: USER    Estimated Free Energy of Binding    =   -5.13 kcal/mol  [=(1)+(2)+(3)-(4)]
DOCKED: USER    Estimated Inhibition Constant, Ki   =  174.36 uM (micromolar)  [Temperature = 298.15 K]
DOCKED: USER    
DOCKED: USER    (1) Final Intermolecular Energy     =   -8.11 kcal/mol
DOCKED: USER        vdW + Hbond + desolv Energy     =   -5.48 kcal/mol
DOCKED: USER        Electrostatic Energy            =   -2.63 kcal/mol
DOCKED: USER    (2) Final Total Internal Energy     =   -1.64 kcal/mol
DOCKED: USER    (3) Torsional Free Energy           =   +2.98 kcal/mol
DOCKED: USER    (4) Unbound System's Energy  [=(2)] =   -1.64 kcal/mol
DOCKED: USER    
DOCKED: USER    
DOCKED: USER    NEWDPF move heme_O2_opt.pdbqt
DOCKED: USER    NEWDPF about 8.287000 34.468000 -0.670000
DOCKED: USER    NEWDPF tran0 -2.739398 17.963448 14.064135
DOCKED: USER    NEWDPF quaternion0 -0.130220 0.163089 0.822704 0.528775
DOCKED: USER    NEWDPF axisangle0 -0.153423 0.192149 0.969299 116.154558
DOCKED: USER    NEWDPF quat0 -0.153423 0.192149 0.969299 116.154558
DOCKED: USER    NEWDPF dihe0 -73.48 -22.70 71.86 -88.81 -119.26 151.11 -140.75 179.67 -16.23 5.19 
DOCKED: USER  keepresnum = 1 
DOCKED: USER  
DOCKED: REMARK  10 active torsions:
DOCKED: REMARK  status: ('A' for Active; 'I' for Inactive)
DOCKED: REMARK    1  A    between atoms: C_6  and  C_10 
DOCKED: REMARK    2  A    between atoms: C_10  and  C_11 
DOCKED: REMARK    3  A    between atoms: C_11  and  C_12 
DOCKED: REMARK    4  A    between atoms: C_12  and  O_14 
DOCKED: REMARK    5  A    between atoms: C_17  and  C_20 
DOCKED: REMARK    6  A    between atoms: C_24  and  C_27 
DOCKED: REMARK    7  A    between atoms: C_31  and  C_34 
DOCKED: REMARK    8  A    between atoms: C_34  and  C_35 
DOCKED: REMARK    9  A    between atoms: C_35  and  C_36 
DOCKED: REMARK   10  A    between atoms: C_36  and  O_38 
DOCKED: USER                              x       y       z     vdW  Elec       q    Type
DOCKED: USER                           _______ _______ _______ _____ _____    ______ ____
DOCKED: ROOT
DOCKED: ATOM      1  C   UNL d   1      -1.171  19.332  13.656 -0.05 +0.05    +0.064 A 
DOCKED: ATOM      2  C   UNL d   1      -5.339  19.801  15.884 -0.09 +0.00    +0.064 A 
DOCKED: ATOM      3  C   UNL d   1      -6.410  15.191  15.047 -0.26 -0.01    +0.064 C 
DOCKED: ATOM      4  C   UNL d   1      -1.919  14.573  13.173 -0.17 -0.01    +0.064 A 
DOCKED: ATOM      5  C   UNL d   1      -2.217  19.835  14.332 -0.08 +0.04    +0.066 A 
DOCKED: ATOM      6  C   UNL d   1      -2.312  21.166  14.749 -0.05 -0.01    -0.021 A 
DOCKED: ATOM      7  C   UNL d   1      -3.499  21.293  15.431 -0.04 -0.00    -0.025 A 
DOCKED: ATOM      8  C   UNL d   1      -4.118  20.047  15.372 -0.09 +0.02    +0.066 A 
DOCKED: ATOM      9  C   UNL d   1      -3.971  22.554  16.121 -0.01 +0.00    +0.051 C 
DOCKED: ATOM     10  C   UNL d   1      -6.049  18.522  15.832 -0.13 -0.00    +0.066 A 
DOCKED: ATOM     11  C   UNL d   1      -7.380  18.364  16.234 -0.16 +0.01    -0.021 A 
DOCKED: ATOM     12  C   UNL d   1      -7.713  17.046  15.984 -0.21 -0.00    +0.000 A 
DOCKED: ATOM     13  C   UNL d   1      -6.536  16.458  15.442 -0.19 -0.01    +0.070 A 
DOCKED: ATOM     14  C   UNL d   1      -8.304  19.433  16.807 -0.11 -0.02    +0.052 C 
DOCKED: ATOM     15  C   UNL d   1      -5.227  14.549  14.528 -0.26 -0.01    +0.066 A 
DOCKED: ATOM     16  C   UNL d   1      -5.111  13.181  14.286 -0.32 +0.00    -0.021 A 
DOCKED: ATOM     17  C   UNL d   1      -3.838  12.981  13.752 -0.32 -0.00    +0.000 A 
DOCKED: ATOM     18  C   UNL d   1      -3.266  14.260  13.705 -0.21 -0.00    +0.070 A 
DOCKED: ATOM     19  C   UNL d   1      -6.193  12.190  14.634 -0.30 -0.01    +0.052 C 
DOCKED: ATOM     20  C   UNL d   1      -1.323  15.781  13.153 -0.12 +0.02    +0.066 A 
DOCKED: ATOM     21  C   UNL d   1      -0.058  16.019  12.621 -0.09 -0.00    -0.025 A 
DOCKED: ATOM     22  C   UNL d   1       0.160  17.374  12.726 -0.06 -0.01    -0.021 A 
DOCKED: ATOM     23  C   UNL d   1      -0.976  17.913  13.336 -0.07 +0.05    +0.066 A 
DOCKED: ATOM     24  C   UNL d   1       0.895  15.003  12.047 -0.09 -0.01    +0.051 C 
DOCKED: ATOM     25  N   UNL d   1      -3.298  19.133  14.751 -0.09 -0.12    -0.248 N 
DOCKED: ATOM     26  N   UNL d   1      -5.528  17.362  15.358 -0.12 -0.01    -0.248 N 
DOCKED: ATOM     27  N   UNL d   1      -4.094  15.188  14.249 -0.12 -0.02    -0.248 N 
DOCKED: ATOM     28  N   UNL d   1      -1.856  16.935  13.635 -0.02 -0.15    -0.248 N 
DOCKED: ATOM     29 FE   UNL d   1      -3.679  17.144  14.490 -0.04 +0.00    +0.000 Fe
DOCKED: ATOM     30  O   UNL d   1      -3.420  17.545  15.972 -0.08 +0.00    +0.000 OA
DOCKED: ATOM     31  O   UNL d   1      -2.830  16.195  15.413 -0.09 +0.00    +0.000 OA
DOCKED: ENDROOT
DOCKED: BRANCH   6  32
DOCKED: ATOM     32  C   UNL d   1      -1.269  22.247  14.632 -0.01 +0.01    +0.052 C 
DOCKED: BRANCH  32  33
DOCKED: ATOM     33  C   UNL d   1      -1.002  22.659  13.187 -0.01 +0.03    +0.115 C 
DOCKED: BRANCH  33  34
DOCKED: ATOM     34  C   UNL d   1      -2.256  22.660  12.348 -0.04 +0.06    +0.139 C 
DOCKED: ATOM     35  O   UNL d   1      -2.931  23.674  12.274 +0.01 -0.17    -0.650 OA
DOCKED: BRANCH  34  36
DOCKED: ATOM     36  O   UNL d   1      -2.667  21.552  11.697 -0.52 -0.90    -0.776 OA
DOCKED: ATOM     37  H   UNL d   1      -2.217  21.227  10.908 +0.00 +0.25    +0.167 HD
DOCKED: ENDBRANCH  34  36
DOCKED: ENDBRANCH  33  34
DOCKED: ENDBRANCH  32  33
DOCKED: ENDBRANCH   6  32
DOCKED: BRANCH  22  38
DOCKED: ATOM     38  C   UNL d   1       1.420  18.094  12.320 -0.02 +0.02    +0.052 C 
DOCKED: BRANCH  38  39
DOCKED: ATOM     39  C   UNL d   1       1.236  18.914  11.044 -0.03 +0.05    +0.115 C 
DOCKED: BRANCH  39  40
DOCKED: ATOM     40  C   UNL d   1      -0.153  18.782  10.470 +0.12 +0.16    +0.139 C 
DOCKED: ATOM     41  O   UNL d   1      -0.539  17.699  10.061 -0.34 -0.82    -0.650 OA
DOCKED: BRANCH  40  42
DOCKED: ATOM     42  O   UNL d   1      -0.998  19.830  10.446 +0.21 -1.26    -0.776 OA
DOCKED: ATOM     43  H   UNL d   1      -0.874  20.592  11.025 +0.00 +0.19    +0.167 HD
DOCKED: ENDBRANCH  40  42
DOCKED: ENDBRANCH  39  40
DOCKED: ENDBRANCH  38  39
DOCKED: ENDBRANCH  22  38
DOCKED: BRANCH  12  44
DOCKED: ATOM     44  C   UNL d   1      -9.091  16.493  16.284 -0.11 -0.00    +0.004 C 
DOCKED: ATOM     45  C   UNL d   1      -9.428  15.590  17.204 -0.14 -0.00    +0.012 C 
DOCKED: ENDBRANCH  12  44
DOCKED: BRANCH  17  46
DOCKED: ATOM     46  C   UNL d   1      -3.122  11.719  13.351 -0.24 -0.00    +0.004 C 
DOCKED: ATOM     47  C   UNL d   1      -2.256  10.993  14.070 -0.34 -0.00    +0.012 C 
DOCKED: ENDBRANCH  17  46
DOCKED: TORSDOF 10
DOCKED: TER
DOCKED: ENDMDL
________________________________________________________________________________


	BEGINNING GENETIC ALGORITHM DOCKING 25 of 100
Run: 25 Seed: 866545961 1733235399 [ Run 25 of 100 GA/GALS ]
Beginning LAMARCKIAN GENETIC ALGORITHM (LGA), with a maximum of 25000000 energy evaluations.

Final-Value: -13.174


	FINAL GENETIC ALGORITHM DOCKED STATE
	_______________________________________________


Detailed state:  trans -14.251 -1.056 1.841 quatxyzw 0.297621 -0.072839 -0.242222 0.920568 center 8.287 34.468 -0.670 ntor 10 -39.7247 142.5107 -56.1737 -108.5847 59.1325 -72.7204 -158.5372 122.3878 179.3979 -180.0000
State:	-14.251  -1.056   1.841   0.762 -0.186 -0.620 45.982    -39.72  142.51  -56.17 -108.58   59.13  -72.72 -158.54  122.39  179.40 -180.00

DOCKED: MODEL       25
DOCKED: USER    Run = 25
DOCKED: USER    DPF = D:/Protein_go_brrr/autodock/final/AncMH_nat/heme_O2/dock.dpf
DOCKED: USER  
DOCKED: USER    Estimated Free Energy of Binding    =   -8.00 kcal/mol  [=(1)+(2)+(3)-(4)]
DOCKED: USER    Estimated Inhibition Constant, Ki   =    1.37 uM (micromolar)  [Temperature = 298.15 K]
DOCKED: USER    
DOCKED: USER    (1) Final Intermolecular Energy     =  -10.98 kcal/mol
DOCKED: USER        vdW + Hbond + desolv Energy     =   -7.86 kcal/mol
DOCKED: USER        Electrostatic Energy            =   -3.13 kcal/mol
DOCKED: USER    (2) Final Total Internal Energy     =   -2.19 kcal/mol
DOCKED: USER    (3) Torsional Free Energy           =   +2.98 kcal/mol
DOCKED: USER    (4) Unbound System's Energy  [=(2)] =   -2.19 kcal/mol
DOCKED: USER    
DOCKED: USER    
DOCKED: USER    NEWDPF move heme_O2_opt.pdbqt
DOCKED: USER    NEWDPF about 8.287000 34.468000 -0.670000
DOCKED: USER    NEWDPF tran0 -14.250839 -1.056212 1.841243
DOCKED: USER    NEWDPF quaternion0 0.297621 -0.072839 -0.242222 0.920568
DOCKED: USER    NEWDPF axisangle0 0.761991 -0.186489 -0.620154 45.981561
DOCKED: USER    NEWDPF quat0 0.761991 -0.186489 -0.620154 45.981561
DOCKED: USER    NEWDPF dihe0 -39.72 142.51 -56.17 -108.58 59.13 -72.72 -158.54 122.39 179.40 -180.00 
DOCKED: USER  keepresnum = 1 
DOCKED: USER  
DOCKED: REMARK  10 active torsions:
DOCKED: REMARK  status: ('A' for Active; 'I' for Inactive)
DOCKED: REMARK    1  A    between atoms: C_6  and  C_10 
DOCKED: REMARK    2  A    between atoms: C_10  and  C_11 
DOCKED: REMARK    3  A    between atoms: C_11  and  C_12 
DOCKED: REMARK    4  A    between atoms: C_12  and  O_14 
DOCKED: REMARK    5  A    between atoms: C_17  and  C_20 
DOCKED: REMARK    6  A    between atoms: C_24  and  C_27 
DOCKED: REMARK    7  A    between atoms: C_31  and  C_34 
DOCKED: REMARK    8  A    between atoms: C_34  and  C_35 
DOCKED: REMARK    9  A    between atoms: C_35  and  C_36 
DOCKED: REMARK   10  A    between atoms: C_36  and  O_38 
DOCKED: USER                              x       y       z     vdW  Elec       q    Type
DOCKED: USER                           _______ _______ _______ _____ _____    ______ ____
DOCKED: ROOT
DOCKED: ATOM      1  C   UNL d   1     -16.168  -1.851   1.403 -0.11 +0.07    +0.064 A 
DOCKED: ATOM      2  C   UNL d   1     -13.846  -1.140   5.485 +0.00 +0.02    +0.064 A 
DOCKED: ATOM      3  C   UNL d   1     -10.033   0.584   3.123 -0.27 +0.02    +0.064 C 
DOCKED: ATOM      4  C   UNL d   1     -12.594   0.303  -1.052 -0.19 +0.06    +0.064 A 
DOCKED: ATOM      5  C   UNL d   1     -15.848  -1.796   2.706 -0.12 +0.06    +0.066 A 
DOCKED: ATOM      6  C   UNL d   1     -16.686  -2.233   3.737 -0.08 -0.01    -0.021 A 
DOCKED: ATOM      7  C   UNL d   1     -16.033  -1.987   4.922 -0.11 -0.01    -0.025 A 
DOCKED: ATOM      8  C   UNL d   1     -14.794  -1.452   4.580 -0.04 +0.04    +0.066 A 
DOCKED: ATOM      9  C   UNL d   1     -16.611  -2.238   6.297 -0.15 +0.02    +0.051 C 
DOCKED: ATOM     10  C   UNL d   1     -12.520  -0.597   5.186 -0.30 +0.02    +0.066 A 
DOCKED: ATOM     11  C   UNL d   1     -11.516  -0.445   6.149 -0.36 -0.00    -0.021 A 
DOCKED: ATOM     12  C   UNL d   1     -10.403   0.034   5.484 -0.39 +0.00    +0.000 A 
DOCKED: ATOM     13  C   UNL d   1     -10.803   0.161   4.125 -0.16 +0.02    +0.070 A 
DOCKED: ATOM     14  C   UNL d   1     -11.607  -0.768   7.636 -0.21 +0.01    +0.052 C 
DOCKED: ATOM     15  C   UNL d   1     -10.410   0.759   1.741 -0.29 +0.03    +0.066 A 
DOCKED: ATOM     16  C   UNL d   1      -9.607   1.361   0.773 -0.34 -0.01    -0.021 A 
DOCKED: ATOM     17  C   UNL d   1     -10.317   1.293  -0.426 -0.33 +0.00    +0.000 A 
DOCKED: ATOM     18  C   UNL d   1     -11.515   0.645  -0.095 -0.25 +0.05    +0.070 A 
DOCKED: ATOM     19  C   UNL d   1      -8.272   1.989   1.085 -0.38 +0.01    +0.052 C 
DOCKED: ATOM     20  C   UNL d   1     -13.773  -0.280  -0.760 -0.15 +0.08    +0.066 A 
DOCKED: ATOM     21  C   UNL d   1     -14.744  -0.594  -1.708 -0.11 -0.03    -0.025 A 
DOCKED: ATOM     22  C   UNL d   1     -15.758  -1.233  -1.030 -0.13 -0.03    -0.021 A 
DOCKED: ATOM     23  C   UNL d   1     -15.375  -1.269   0.314 -0.14 +0.09    +0.066 A 
DOCKED: ATOM     24  C   UNL d   1     -14.707  -0.296  -3.184 -0.12 +0.04    +0.051 C 
DOCKED: ATOM     25  N   UNL d   1     -14.707  -1.275   3.219 -0.12 -0.21    -0.248 N 
DOCKED: ATOM     26  N   UNL d   1     -12.094  -0.221   3.954 -0.19 -0.11    -0.248 N 
DOCKED: ATOM     27  N   UNL d   1     -11.586   0.396   1.238 -0.16 -0.18    -0.248 N 
DOCKED: ATOM     28  N   UNL d   1     -14.189  -0.648   0.480 -0.15 -0.35    -0.248 N 
DOCKED: ATOM     29 FE   UNL d   1     -13.147  -0.435   2.203 -0.06 +0.00    +0.000 Fe
DOCKED: ATOM     30  O   UNL d   1     -13.948   0.577   3.073 -0.28 +0.00    +0.000 OA
DOCKED: ATOM     31  O   UNL d   1     -13.438   1.007   1.645 -0.29 +0.00    +0.000 OA
DOCKED: ENDROOT
DOCKED: BRANCH   6  32
DOCKED: ATOM     32  C   UNL d   1     -18.103  -2.734   3.625 -0.04 +0.03    +0.052 C 
DOCKED: BRANCH  32  33
DOCKED: ATOM     33  C   UNL d   1     -19.139  -1.649   3.905 -0.05 +0.09    +0.115 C 
DOCKED: BRANCH  33  34
DOCKED: ATOM     34  C   UNL d   1     -18.567  -0.260   3.773 -0.12 +0.17    +0.139 C 
DOCKED: ATOM     35  O   UNL d   1     -18.103   0.298   4.754 +0.01 -0.80    -0.650 OA
DOCKED: BRANCH  34  36
DOCKED: ATOM     36  O   UNL d   1     -18.582   0.398   2.595 -0.07 -1.25    -0.776 OA
DOCKED: ATOM     37  H   UNL d   1     -18.408  -0.049   1.758 +0.03 +0.21    +0.167 HD
DOCKED: ENDBRANCH  34  36
DOCKED: ENDBRANCH  33  34
DOCKED: ENDBRANCH  32  33
DOCKED: ENDBRANCH   6  32
DOCKED: BRANCH  22  38
DOCKED: ATOM     38  C   UNL d   1     -17.048  -1.721  -1.636 -0.11 +0.05    +0.052 C 
DOCKED: BRANCH  38  39
DOCKED: ATOM     39  C   UNL d   1     -18.048  -0.589  -1.866 -0.02 +0.08    +0.115 C 
DOCKED: BRANCH  39  40
DOCKED: ATOM     40  C   UNL d   1     -18.398   0.138  -0.591 -0.03 +0.13    +0.139 C 
DOCKED: ATOM     41  O   UNL d   1     -17.576   0.872  -0.067 -0.26 -1.08    -0.650 OA
DOCKED: BRANCH  40  42
DOCKED: ATOM     42  O   UNL d   1     -19.624   0.032  -0.044 +0.05 -0.64    -0.776 OA
DOCKED: ATOM     43  H   UNL d   1     -19.753   0.036   0.912 +0.02 +0.17    +0.167 HD
DOCKED: ENDBRANCH  40  42
DOCKED: ENDBRANCH  39  40
DOCKED: ENDBRANCH  38  39
DOCKED: ENDBRANCH  22  38
DOCKED: BRANCH  12  44
DOCKED: ATOM     44  C   UNL d   1      -9.099   0.319   6.200 -0.41 +0.00    +0.004 C 
DOCKED: ATOM     45  C   UNL d   1      -7.907  -0.235   5.983 -0.44 +0.00    +0.012 C 
DOCKED: ENDBRANCH  12  44
DOCKED: BRANCH  17  46
DOCKED: ATOM     46  C   UNL d   1      -9.994   1.823  -1.798 -0.21 +0.00    +0.004 C 
DOCKED: ATOM     47  C   UNL d   1     -10.640   2.767  -2.495 -0.27 +0.00    +0.012 C 
DOCKED: ENDBRANCH  17  46
DOCKED: TORSDOF 10
DOCKED: TER
DOCKED: ENDMDL
________________________________________________________________________________


	BEGINNING GENETIC ALGORITHM DOCKING 26 of 100
Run: 26 Seed: 909001618 12354983 [ Run 26 of 100 GA/GALS ]
Beginning LAMARCKIAN GENETIC ALGORITHM (LGA), with a maximum of 25000000 energy evaluations.

Final-Value: -13.042


	FINAL GENETIC ALGORITHM DOCKED STATE
	_______________________________________________


Detailed state:  trans -14.864 -0.732 1.530 quatxyzw 0.846094 -0.056877 0.504033 -0.163832 center 8.287 34.468 -0.670 ntor 10 149.0426 2.6437 110.1282 155.1897 106.2093 -61.0053 91.9343 131.7391 -160.7720 16.0352
State:	-14.864  -0.732   1.530   0.858 -0.058  0.511 -161.141    149.04    2.64  110.13  155.19  106.21  -61.01   91.93  131.74 -160.77   16.04

DOCKED: MODEL       26
DOCKED: USER    Run = 26
DOCKED: USER    DPF = D:/Protein_go_brrr/autodock/final/AncMH_nat/heme_O2/dock.dpf
DOCKED: USER  
DOCKED: USER    Estimated Free Energy of Binding    =   -9.26 kcal/mol  [=(1)+(2)+(3)-(4)]
DOCKED: USER    Estimated Inhibition Constant, Ki   =  163.45 nM (nanomolar)  [Temperature = 298.15 K]
DOCKED: USER    
DOCKED: USER    (1) Final Intermolecular Energy     =  -12.24 kcal/mol
DOCKED: USER        vdW + Hbond + desolv Energy     =   -8.55 kcal/mol
DOCKED: USER        Electrostatic Energy            =   -3.69 kcal/mol
DOCKED: USER    (2) Final Total Internal Energy     =   -0.80 kcal/mol
DOCKED: USER    (3) Torsional Free Energy           =   +2.98 kcal/mol
DOCKED: USER    (4) Unbound System's Energy  [=(2)] =   -0.80 kcal/mol
DOCKED: USER    
DOCKED: USER    
DOCKED: USER    NEWDPF move heme_O2_opt.pdbqt
DOCKED: USER    NEWDPF about 8.287000 34.468000 -0.670000
DOCKED: USER    NEWDPF tran0 -14.863583 -0.731676 1.530023
DOCKED: USER    NEWDPF quaternion0 0.846094 -0.056877 0.504033 -0.163832
DOCKED: USER    NEWDPF axisangle0 0.857683 -0.057656 0.510937 -161.141216
DOCKED: USER    NEWDPF quat0 0.857683 -0.057656 0.510937 -161.141216
DOCKED: USER    NEWDPF dihe0 149.04 2.64 110.13 155.19 106.21 -61.01 91.93 131.74 -160.77 16.04 
DOCKED: USER  keepresnum = 1 
DOCKED: USER  
DOCKED: REMARK  10 active torsions:
DOCKED: REMARK  status: ('A' for Active; 'I' for Inactive)
DOCKED: REMARK    1  A    between atoms: C_6  and  C_10 
DOCKED: REMARK    2  A    between atoms: C_10  and  C_11 
DOCKED: REMARK    3  A    between atoms: C_11  and  C_12 
DOCKED: REMARK    4  A    between atoms: C_12  and  O_14 
DOCKED: REMARK    5  A    between atoms: C_17  and  C_20 
DOCKED: REMARK    6  A    between atoms: C_24  and  C_27 
DOCKED: REMARK    7  A    between atoms: C_31  and  C_34 
DOCKED: REMARK    8  A    between atoms: C_34  and  C_35 
DOCKED: REMARK    9  A    between atoms: C_35  and  C_36 
DOCKED: REMARK   10  A    between atoms: C_36  and  O_38 
DOCKED: USER                              x       y       z     vdW  Elec       q    Type
DOCKED: USER                           _______ _______ _______ _____ _____    ______ ____
DOCKED: ROOT
DOCKED: ATOM      1  C   UNL d   1     -16.596  -1.159   0.383 -0.12 +0.08    +0.064 A 
DOCKED: ATOM      2  C   UNL d   1     -12.220   0.245  -0.817 -0.19 +0.05    +0.064 A 
DOCKED: ATOM      3  C   UNL d   1     -10.891   0.359   3.800 -0.35 +0.02    +0.064 C 
DOCKED: ATOM      4  C   UNL d   1     -15.245  -1.545   5.016 -0.05 +0.03    +0.064 A 
DOCKED: ATOM      5  C   UNL d   1     -15.514  -0.788  -0.320 -0.14 +0.09    +0.066 A 
DOCKED: ATOM      6  C   UNL d   1     -15.489  -0.667  -1.712 -0.13 -0.02    -0.021 A 
DOCKED: ATOM      7  C   UNL d   1     -14.210  -0.303  -2.064 -0.14 -0.02    -0.025 A 
DOCKED: ATOM      8  C   UNL d   1     -13.502  -0.164  -0.874 -0.14 +0.08    +0.066 A 
DOCKED: ATOM      9  C   UNL d   1     -13.718  -0.135  -3.485 -0.13 +0.03    +0.051 C 
DOCKED: ATOM     10  C   UNL d   1     -11.433   0.432   0.403 -0.26 +0.05    +0.066 A 
DOCKED: ATOM     11  C   UNL d   1     -10.161   1.014   0.416 -0.34 -0.01    -0.021 A 
DOCKED: ATOM     12  C   UNL d   1      -9.768   1.072   1.740 -0.34 +0.00    +0.000 A 
DOCKED: ATOM     13  C   UNL d   1     -10.841   0.498   2.475 -0.28 +0.03    +0.070 A 
DOCKED: ATOM     14  C   UNL d   1      -9.365   1.519  -0.782 -0.21 +0.01    +0.052 C 
DOCKED: ATOM     15  C   UNL d   1     -11.943  -0.249   4.579 -0.29 +0.02    +0.066 A 
DOCKED: ATOM     16  C   UNL d   1     -11.863  -0.513   5.946 -0.38 -0.00    -0.021 A 
DOCKED: ATOM     17  C   UNL d   1     -13.093  -1.057   6.315 -0.35 +0.00    +0.000 A 
DOCKED: ATOM     18  C   UNL d   1     -13.842  -1.082   5.130 -0.03 +0.03    +0.070 A 
DOCKED: ATOM     19  C   UNL d   1     -10.614  -0.277   6.757 -0.42 +0.01    +0.052 C 
DOCKED: ATOM     20  C   UNL d   1     -15.978  -1.623   3.888 -0.11 +0.05    +0.066 A 
DOCKED: ATOM     21  C   UNL d   1     -17.302  -2.051   3.846 -0.06 -0.02    -0.025 A 
DOCKED: ATOM     22  C   UNL d   1     -17.712  -1.922   2.538 -0.05 -0.02    -0.021 A 
DOCKED: ATOM     23  C   UNL d   1     -16.613  -1.435   1.824 -0.10 +0.07    +0.066 A 
DOCKED: ATOM     24  C   UNL d   1     -18.133  -2.561   4.995 -0.07 +0.03    +0.051 C 
DOCKED: ATOM     25  N   UNL d   1     -14.288  -0.526   0.196 -0.13 -0.36    -0.248 N 
DOCKED: ATOM     26  N   UNL d   1     -11.848   0.107   1.653 -0.16 -0.18    -0.248 N 
DOCKED: ATOM     27  N   UNL d   1     -13.103  -0.658   4.073 -0.18 -0.13    -0.248 N 
DOCKED: ATOM     28  N   UNL d   1     -15.548  -1.298   2.641 -0.10 -0.25    -0.248 N 
DOCKED: ATOM     29 FE   UNL d   1     -13.711  -0.601   2.153 -0.05 +0.00    +0.000 Fe
DOCKED: ATOM     30  O   UNL d   1     -13.053  -1.695   1.262 -0.43 +0.00    +0.000 OA
DOCKED: ATOM     31  O   UNL d   1     -13.528  -2.057   2.720 -0.38 +0.00    +0.000 OA
DOCKED: ENDROOT
DOCKED: BRANCH   6  32
DOCKED: ATOM     32  C   UNL d   1     -16.583  -1.014  -2.689 -0.09 +0.04    +0.052 C 
DOCKED: BRANCH  32  33
DOCKED: ATOM     33  C   UNL d   1     -16.709  -2.515  -2.929 -0.07 +0.11    +0.115 C 
DOCKED: BRANCH  33  34
DOCKED: ATOM     34  C   UNL d   1     -15.852  -2.989  -4.076 -0.09 +0.12    +0.139 C 
DOCKED: ATOM     35  O   UNL d   1     -15.829  -2.351  -5.116 +0.00 -0.32    -0.650 OA
DOCKED: BRANCH  34  36
DOCKED: ATOM     36  O   UNL d   1     -15.126  -4.123  -3.990 -0.45 -1.11    -0.776 OA
DOCKED: ATOM     37  H   UNL d   1     -14.936  -4.668  -4.763 +0.03 +0.15    +0.167 HD
DOCKED: ENDBRANCH  34  36
DOCKED: ENDBRANCH  33  34
DOCKED: ENDBRANCH  32  33
DOCKED: ENDBRANCH   6  32
DOCKED: BRANCH  22  38
DOCKED: ATOM     38  C   UNL d   1     -19.065  -2.308   2.000 -0.01 +0.04    +0.052 C 
DOCKED: BRANCH  38  39
DOCKED: ATOM     39  C   UNL d   1     -19.827  -1.113   1.430 -0.01 +0.09    +0.115 C 
DOCKED: BRANCH  39  40
DOCKED: ATOM     40  C   UNL d   1     -19.850   0.061   2.376 +0.02 +0.21    +0.139 C 
DOCKED: ATOM     41  O   UNL d   1     -18.905   0.833   2.406 -0.19 -1.31    -0.650 OA
DOCKED: BRANCH  40  42
DOCKED: ATOM     42  O   UNL d   1     -20.920   0.304   3.158 -0.11 -1.56    -0.776 OA
DOCKED: ATOM     43  H   UNL d   1     -21.668  -0.304   3.192 +0.01 +0.19    +0.167 HD
DOCKED: ENDBRANCH  40  42
DOCKED: ENDBRANCH  39  40
DOCKED: ENDBRANCH  38  39
DOCKED: ENDBRANCH  22  38
DOCKED: BRANCH  12  44
DOCKED: ATOM     44  C   UNL d   1      -8.434   1.654   2.158 -0.24 +0.00    +0.004 C 
DOCKED: ATOM     45  C   UNL d   1      -7.225   1.110   2.024 -0.43 +0.00    +0.012 C 
DOCKED: ENDBRANCH  12  44
DOCKED: BRANCH  17  46
DOCKED: ATOM     46  C   UNL d   1     -13.582  -1.590   7.635 -0.45 +0.00    +0.004 C 
DOCKED: ATOM     47  C   UNL d   1     -14.828  -1.570   8.127 -0.35 +0.00    +0.012 C 
DOCKED: ENDBRANCH  17  46
DOCKED: TORSDOF 10
DOCKED: TER
DOCKED: ENDMDL
________________________________________________________________________________


	BEGINNING GENETIC ALGORITHM DOCKING 27 of 100
Run: 27 Seed: 414144141 1849991923 [ Run 27 of 100 GA/GALS ]
Beginning LAMARCKIAN GENETIC ALGORITHM (LGA), with a maximum of 25000000 energy evaluations.

Final-Value: -10.814


	FINAL GENETIC ALGORITHM DOCKED STATE
	_______________________________________________


Detailed state:  trans -19.854 7.809 2.484 quatxyzw 0.478576 0.146065 0.865317 0.029258 center 8.287 34.468 -0.670 ntor 10 -59.3614 15.6951 27.6662 -108.6910 -60.7888 130.4956 -69.3692 -136.1256 172.7326 138.6669
State:	-19.854   7.809   2.484   0.479  0.146  0.866 176.647    -59.36   15.70   27.67 -108.69  -60.79  130.50  -69.37 -136.13  172.73  138.67

DOCKED: MODEL       27
DOCKED: USER    Run = 27
DOCKED: USER    DPF = D:/Protein_go_brrr/autodock/final/AncMH_nat/heme_O2/dock.dpf
DOCKED: USER  
DOCKED: USER    Estimated Free Energy of Binding    =   -6.68 kcal/mol  [=(1)+(2)+(3)-(4)]
DOCKED: USER    Estimated Inhibition Constant, Ki   =   12.75 uM (micromolar)  [Temperature = 298.15 K]
DOCKED: USER    
DOCKED: USER    (1) Final Intermolecular Energy     =   -9.66 kcal/mol
DOCKED: USER        vdW + Hbond + desolv Energy     =   -5.89 kcal/mol
DOCKED: USER        Electrostatic Energy            =   -3.77 kcal/mol
DOCKED: USER    (2) Final Total Internal Energy     =   -1.15 kcal/mol
DOCKED: USER    (3) Torsional Free Energy           =   +2.98 kcal/mol
DOCKED: USER    (4) Unbound System's Energy  [=(2)] =   -1.15 kcal/mol
DOCKED: USER    
DOCKED: USER    
DOCKED: USER    NEWDPF move heme_O2_opt.pdbqt
DOCKED: USER    NEWDPF about 8.287000 34.468000 -0.670000
DOCKED: USER    NEWDPF tran0 -19.853641 7.808804 2.483587
DOCKED: USER    NEWDPF quaternion0 0.478576 0.146065 0.865317 0.029258
DOCKED: USER    NEWDPF axisangle0 0.478781 0.146128 0.865688 176.646790
DOCKED: USER    NEWDPF quat0 0.478781 0.146128 0.865688 176.646790
DOCKED: USER    NEWDPF dihe0 -59.36 15.70 27.67 -108.69 -60.79 130.50 -69.37 -136.13 172.73 138.67 
DOCKED: USER  keepresnum = 1 
DOCKED: USER  
DOCKED: REMARK  10 active torsions:
DOCKED: REMARK  status: ('A' for Active; 'I' for Inactive)
DOCKED: REMARK    1  A    between atoms: C_6  and  C_10 
DOCKED: REMARK    2  A    between atoms: C_10  and  C_11 
DOCKED: REMARK    3  A    between atoms: C_11  and  C_12 
DOCKED: REMARK    4  A    between atoms: C_12  and  O_14 
DOCKED: REMARK    5  A    between atoms: C_17  and  C_20 
DOCKED: REMARK    6  A    between atoms: C_24  and  C_27 
DOCKED: REMARK    7  A    between atoms: C_31  and  C_34 
DOCKED: REMARK    8  A    between atoms: C_34  and  C_35 
DOCKED: REMARK    9  A    between atoms: C_35  and  C_36 
DOCKED: REMARK   10  A    between atoms: C_36  and  O_38 
DOCKED: USER                              x       y       z     vdW  Elec       q    Type
DOCKED: USER                           _______ _______ _______ _____ _____    ______ ____
DOCKED: ROOT
DOCKED: ATOM      1  C   UNL d   1     -19.385   6.842   0.655 -0.06 +0.03    +0.064 A 
DOCKED: ATOM      2  C   UNL d   1     -17.500  10.594   2.876 -0.24 -0.01    +0.064 A 
DOCKED: ATOM      3  C   UNL d   1     -20.700  10.207   6.440 -0.11 +0.01    +0.064 C 
DOCKED: ATOM      4  C   UNL d   1     -22.344   6.058   4.405 -0.10 +0.05    +0.064 A 
DOCKED: ATOM      5  C   UNL d   1     -18.610   7.893   0.969 -0.09 +0.02    +0.066 A 
DOCKED: ATOM      6  C   UNL d   1     -17.562   8.360   0.170 -0.13 -0.00    -0.021 A 
DOCKED: ATOM      7  C   UNL d   1     -16.988   9.419   0.833 -0.23 -0.00    -0.025 A 
DOCKED: ATOM      8  C   UNL d   1     -17.732   9.601   1.996 -0.18 +0.00    +0.066 A 
DOCKED: ATOM      9  C   UNL d   1     -15.767  10.178   0.359 -0.33 -0.01    +0.051 C 
DOCKED: ATOM     10  C   UNL d   1     -18.260  10.849   4.100 -0.21 +0.00    +0.066 A 
DOCKED: ATOM     11  C   UNL d   1     -18.083  11.988   4.893 -0.22 +0.00    -0.021 A 
DOCKED: ATOM     12  C   UNL d   1     -19.009  11.904   5.916 -0.16 +0.00    +0.000 A 
DOCKED: ATOM     13  C   UNL d   1     -19.706  10.685   5.691 -0.12 +0.01    +0.070 A 
DOCKED: ATOM     14  C   UNL d   1     -17.090  13.123   4.668 -0.12 -0.01    +0.052 C 
DOCKED: ATOM     15  C   UNL d   1     -21.407   8.962   6.267 -0.07 +0.02    +0.066 A 
DOCKED: ATOM     16  C   UNL d   1     -22.325   8.440   7.178 -0.05 -0.00    -0.021 A 
DOCKED: ATOM     17  C   UNL d   1     -22.807   7.257   6.619 -0.06 +0.00    +0.000 A 
DOCKED: ATOM     18  C   UNL d   1     -22.139   7.144   5.392 -0.08 +0.03    +0.070 A 
DOCKED: ATOM     19  C   UNL d   1     -22.617   9.083   8.511 -0.05 +0.01    +0.052 C 
DOCKED: ATOM     20  C   UNL d   1     -21.690   5.896   3.239 -0.08 +0.07    +0.066 A 
DOCKED: ATOM     21  C   UNL d   1     -21.939   4.862   2.341 +0.02 -0.03    -0.025 A 
DOCKED: ATOM     22  C   UNL d   1     -21.124   5.085   1.254 -0.08 -0.02    -0.021 A 
DOCKED: ATOM     23  C   UNL d   1     -20.391   6.241   1.538 -0.08 +0.05    +0.066 A 
DOCKED: ATOM     24  C   UNL d   1     -22.903   3.717   2.513 -0.02 +0.06    +0.051 C 
DOCKED: ATOM     25  N   UNL d   1     -18.689   8.620   2.110 -0.05 -0.06    -0.248 N 
DOCKED: ATOM     26  N   UNL d   1     -19.241  10.047   4.587 -0.07 -0.04    -0.248 N 
DOCKED: ATOM     27  N   UNL d   1     -21.239   8.147   5.229 -0.05 -0.08    -0.248 N 
DOCKED: ATOM     28  N   UNL d   1     -20.706   6.706   2.764 -0.07 -0.17    -0.248 N 
DOCKED: ATOM     29 FE   UNL d   1     -19.980   8.363   3.672 -0.03 +0.00    +0.000 Fe
DOCKED: ATOM     30  O   UNL d   1     -18.497   8.052   4.025 -0.33 +0.00    +0.000 OA
DOCKED: ATOM     31  O   UNL d   1     -19.645   7.135   4.595 -0.26 +0.00    +0.000 OA
DOCKED: ENDROOT
DOCKED: BRANCH   6  32
DOCKED: ATOM     32  C   UNL d   1     -17.029   7.751  -1.102 -0.12 +0.01    +0.052 C 
DOCKED: BRANCH  32  33
DOCKED: ATOM     33  C   UNL d   1     -15.716   7.003  -0.895 -0.22 +0.05    +0.115 C 
DOCKED: BRANCH  33  34
DOCKED: ATOM     34  C   UNL d   1     -15.885   5.507  -0.996 -0.06 +0.14    +0.139 C 
DOCKED: ATOM     35  O   UNL d   1     -14.970   4.824  -1.428 -0.43 -0.85    -0.650 OA
DOCKED: BRANCH  34  36
DOCKED: ATOM     36  O   UNL d   1     -17.040   4.904  -0.645 -0.16 -0.97    -0.776 OA
DOCKED: ATOM     37  H   UNL d   1     -17.405   4.978   0.245 +0.02 +0.22    +0.167 HD
DOCKED: ENDBRANCH  34  36
DOCKED: ENDBRANCH  33  34
DOCKED: ENDBRANCH  32  33
DOCKED: ENDBRANCH   6  32
DOCKED: BRANCH  22  38
DOCKED: ATOM     38  C   UNL d   1     -21.013   4.196   0.042 -0.05 +0.04    +0.052 C 
DOCKED: BRANCH  38  39
DOCKED: ATOM     39  C   UNL d   1     -19.601   3.647  -0.151 -0.08 +0.11    +0.115 C 
DOCKED: BRANCH  39  40
DOCKED: ATOM     40  C   UNL d   1     -18.978   3.191   1.145 -0.12 +0.25    +0.139 C 
DOCKED: ATOM     41  O   UNL d   1     -18.410   3.999   1.862 -0.23 -1.23    -0.650 OA
DOCKED: BRANCH  40  42
DOCKED: ATOM     42  O   UNL d   1     -19.082   1.911   1.554 -0.33 -1.70    -0.776 OA
DOCKED: ATOM     43  H   UNL d   1     -19.312   1.203   0.941 +0.02 +0.24    +0.167 HD
DOCKED: ENDBRANCH  40  42
DOCKED: ENDBRANCH  39  40
DOCKED: ENDBRANCH  38  39
DOCKED: ENDBRANCH  22  38
DOCKED: BRANCH  12  44
DOCKED: ATOM     44  C   UNL d   1     -19.128  12.972   6.983 -0.14 +0.00    +0.004 C 
DOCKED: ATOM     45  C   UNL d   1     -19.631  12.851   8.210 -0.14 +0.00    +0.012 C 
DOCKED: ENDBRANCH  12  44
DOCKED: BRANCH  17  46
DOCKED: ATOM     46  C   UNL d   1     -23.768   6.230   7.156 -0.04 +0.00    +0.004 C 
DOCKED: ATOM     47  C   UNL d   1     -23.527   4.948   7.460 -0.06 +0.00    +0.012 C 
DOCKED: ENDBRANCH  17  46
DOCKED: TORSDOF 10
DOCKED: TER
DOCKED: ENDMDL
________________________________________________________________________________


	BEGINNING GENETIC ALGORITHM DOCKING 28 of 100
Run: 28 Seed: 1741459309 1999105487 [ Run 28 of 100 GA/GALS ]
Beginning LAMARCKIAN GENETIC ALGORITHM (LGA), with a maximum of 25000000 energy evaluations.

Final-Value: -16.935


	FINAL GENETIC ALGORITHM DOCKED STATE
	_______________________________________________


Detailed state:  trans -9.869 0.708 3.954 quatxyzw 0.895514 -0.005929 0.401923 -0.190988 center 8.287 34.468 -0.670 ntor 10 76.1976 -176.2713 13.3273 -77.0144 40.4303 -76.2213 -58.3759 -72.0896 -106.6792 -164.4971
State:	 -9.869   0.708   3.954   0.912 -0.006  0.409 -157.979     76.20 -176.27   13.33  -77.01   40.43  -76.22  -58.38  -72.09 -106.68 -164.50

DOCKED: MODEL       28
DOCKED: USER    Run = 28
DOCKED: USER    DPF = D:/Protein_go_brrr/autodock/final/AncMH_nat/heme_O2/dock.dpf
DOCKED: USER  
DOCKED: USER    Estimated Free Energy of Binding    =  -13.58 kcal/mol  [=(1)+(2)+(3)-(4)]
DOCKED: USER    Estimated Inhibition Constant, Ki   =  110.43 pM (picomolar)  [Temperature = 298.15 K]
DOCKED: USER    
DOCKED: USER    (1) Final Intermolecular Energy     =  -16.57 kcal/mol
DOCKED: USER        vdW + Hbond + desolv Energy     =  -14.72 kcal/mol
DOCKED: USER        Electrostatic Energy            =   -1.84 kcal/mol
DOCKED: USER    (2) Final Total Internal Energy     =   -0.37 kcal/mol
DOCKED: USER    (3) Torsional Free Energy           =   +2.98 kcal/mol
DOCKED: USER    (4) Unbound System's Energy  [=(2)] =   -0.37 kcal/mol
DOCKED: USER    
DOCKED: USER    
DOCKED: USER    NEWDPF move heme_O2_opt.pdbqt
DOCKED: USER    NEWDPF about 8.287000 34.468000 -0.670000
DOCKED: USER    NEWDPF tran0 -9.868822 0.708136 3.953787
DOCKED: USER    NEWDPF quaternion0 0.895514 -0.005929 0.401923 -0.190988
DOCKED: USER    NEWDPF axisangle0 0.912308 -0.006040 0.409461 -157.979142
DOCKED: USER    NEWDPF quat0 0.912308 -0.006040 0.409461 -157.979142
DOCKED: USER    NEWDPF dihe0 76.20 -176.27 13.33 -77.01 40.43 -76.22 -58.38 -72.09 -106.68 -164.50 
DOCKED: USER  keepresnum = 1 
DOCKED: USER  
DOCKED: REMARK  10 active torsions:
DOCKED: REMARK  status: ('A' for Active; 'I' for Inactive)
DOCKED: REMARK    1  A    between atoms: C_6  and  C_10 
DOCKED: REMARK    2  A    between atoms: C_10  and  C_11 
DOCKED: REMARK    3  A    between atoms: C_11  and  C_12 
DOCKED: REMARK    4  A    between atoms: C_12  and  O_14 
DOCKED: REMARK    5  A    between atoms: C_17  and  C_20 
DOCKED: REMARK    6  A    between atoms: C_24  and  C_27 
DOCKED: REMARK    7  A    between atoms: C_31  and  C_34 
DOCKED: REMARK    8  A    between atoms: C_34  and  C_35 
DOCKED: REMARK    9  A    between atoms: C_35  and  C_36 
DOCKED: REMARK   10  A    between atoms: C_36  and  O_38 
DOCKED: USER                              x       y       z     vdW  Elec       q    Type
DOCKED: USER                           _______ _______ _______ _____ _____    ______ ____
DOCKED: ROOT
DOCKED: ATOM      1  C   UNL d   1     -11.807   0.160   3.290 -0.24 +0.03    +0.064 A 
DOCKED: ATOM      2  C   UNL d   1      -7.904   1.570   0.979 -0.38 +0.01    +0.064 A 
DOCKED: ATOM      3  C   UNL d   1      -5.514   2.049   5.121 -0.29 +0.00    +0.064 C 
DOCKED: ATOM      4  C   UNL d   1      -9.373   0.142   7.474 -0.25 +0.01    +0.064 A 
DOCKED: ATOM      5  C   UNL d   1     -10.940   0.503   2.323 -0.28 +0.03    +0.066 A 
DOCKED: ATOM      6  C   UNL d   1     -11.254   0.522   0.961 -0.29 -0.01    -0.021 A 
DOCKED: ATOM      7  C   UNL d   1     -10.112   0.889   0.288 -0.34 -0.01    -0.025 A 
DOCKED: ATOM      8  C   UNL d   1      -9.146   1.130   1.261 -0.34 +0.02    +0.066 A 
DOCKED: ATOM      9  C   UNL d   1      -9.981   0.964  -1.218 -0.31 +0.01    +0.051 C 
DOCKED: ATOM     10  C   UNL d   1      -6.856   1.863   1.958 -0.36 +0.01    +0.066 A 
DOCKED: ATOM     11  C   UNL d   1      -5.641   2.473   1.625 -0.41 -0.00    -0.021 A 
DOCKED: ATOM     12  C   UNL d   1      -4.945   2.636   2.809 -0.38 +0.00    +0.000 A 
DOCKED: ATOM     13  C   UNL d   1      -5.789   2.093   3.817 -0.33 +0.00    +0.070 A 
DOCKED: ATOM     14  C   UNL d   1      -5.176   2.907   0.240 -0.49 -0.00    +0.052 C 
DOCKED: ATOM     15  C   UNL d   1      -6.325   1.477   6.169 -0.36 +0.00    +0.066 A 
DOCKED: ATOM     16  C   UNL d   1      -5.910   1.314   7.490 -0.43 -0.00    -0.021 A 
DOCKED: ATOM     17  C   UNL d   1      -6.993   0.771   8.180 -0.47 +0.00    +0.000 A 
DOCKED: ATOM     18  C   UNL d   1      -8.003   0.643   7.215 -0.38 +0.01    +0.070 A 
DOCKED: ATOM     19  C   UNL d   1      -4.513   1.637   7.959 -0.45 -0.00    +0.052 C 
DOCKED: ATOM     20  C   UNL d   1     -10.351  -0.034   6.564 -0.36 +0.01    +0.066 A 
DOCKED: ATOM     21  C   UNL d   1     -11.629  -0.494   6.871 -0.31 -0.00    -0.025 A 
DOCKED: ATOM     22  C   UNL d   1     -12.344  -0.469   5.695 -0.35 -0.01    -0.021 A 
DOCKED: ATOM     23  C   UNL d   1     -11.468  -0.011   4.707 -0.29 +0.02    +0.066 A 
DOCKED: ATOM     24  C   UNL d   1     -12.139  -0.937   8.218 -0.51 +0.00    +0.051 C 
DOCKED: ATOM     25  N   UNL d   1      -9.638   0.829   2.510 -0.19 -0.08    -0.248 N 
DOCKED: ATOM     26  N   UNL d   1      -6.947   1.620   3.290 -0.19 -0.03    -0.248 N 
DOCKED: ATOM     27  N   UNL d   1      -7.555   1.005   5.986 -0.14 -0.05    -0.248 N 
DOCKED: ATOM     28  N   UNL d   1     -10.244   0.209   5.231 -0.25 -0.07    -0.248 N 
DOCKED: ATOM     29 FE   UNL d   1      -8.606   0.909   4.270 -0.08 +0.00    +0.000 Fe
DOCKED: ATOM     30  O   UNL d   1      -8.139  -0.231   3.320 -0.50 +0.00    +0.000 OA
DOCKED: ATOM     31  O   UNL d   1      -8.237  -0.497   4.870 -0.84 +0.00    +0.000 OA
DOCKED: ENDROOT
DOCKED: BRANCH   6  32
DOCKED: ATOM     32  C   UNL d   1     -12.535   0.082   0.303 -0.27 +0.05    +0.052 C 
DOCKED: BRANCH  32  33
DOCKED: ATOM     33  C   UNL d   1     -13.327  -0.908   1.151 -0.27 +0.12    +0.115 C 
DOCKED: BRANCH  33  34
DOCKED: ATOM     34  C   UNL d   1     -14.697  -0.389   1.513 -0.16 +0.21    +0.139 C 
DOCKED: ATOM     35  O   UNL d   1     -14.941  -0.087   2.670 -0.02 -0.84    -0.650 OA
DOCKED: BRANCH  34  36
DOCKED: ATOM     36  O   UNL d   1     -15.673  -0.277   0.589 -0.39 -1.38    -0.776 OA
DOCKED: ATOM     37  H   UNL d   1     -16.162  -1.042   0.267 +0.03 +0.22    +0.167 HD
DOCKED: ENDBRANCH  34  36
DOCKED: ENDBRANCH  33  34
DOCKED: ENDBRANCH  32  33
DOCKED: ENDBRANCH   6  32
DOCKED: BRANCH  22  38
DOCKED: ATOM     38  C   UNL d   1     -13.771  -0.923   5.526 +0.04 +0.02    +0.052 C 
DOCKED: BRANCH  38  39
DOCKED: ATOM     39  C   UNL d   1     -13.949  -2.410   5.828 -0.29 +0.04    +0.115 C 
DOCKED: BRANCH  39  40
DOCKED: ATOM     40  C   UNL d   1     -14.652  -2.651   7.141 -0.30 +0.03    +0.139 C 
DOCKED: ATOM     41  O   UNL d   1     -15.829  -2.353   7.261 +0.05 -0.18    -0.650 OA
DOCKED: BRANCH  40  42
DOCKED: ATOM     42  O   UNL d   1     -14.017  -3.239   8.172 +0.17 -0.02    -0.776 OA
DOCKED: ATOM     43  H   UNL d   1     -14.484  -3.480   8.981 -0.50 -0.03    +0.167 HD
DOCKED: ENDBRANCH  40  42
DOCKED: ENDBRANCH  39  40
DOCKED: ENDBRANCH  38  39
DOCKED: ENDBRANCH  22  38
DOCKED: BRANCH  12  44
DOCKED: ATOM     44  C   UNL d   1      -3.574   3.276   2.853 -0.47 -0.00    +0.004 C 
DOCKED: ATOM     45  C   UNL d   1      -2.736   3.345   3.887 -0.50 -0.00    +0.012 C 
DOCKED: ENDBRANCH  12  44
DOCKED: BRANCH  17  46
DOCKED: ATOM     46  C   UNL d   1      -7.131   0.325   9.611 -0.35 +0.00    +0.004 C 
DOCKED: ATOM     47  C   UNL d   1      -6.785  -0.852  10.149 -0.70 +0.00    +0.012 C 
DOCKED: ENDBRANCH  17  46
DOCKED: TORSDOF 10
DOCKED: TER
DOCKED: ENDMDL
________________________________________________________________________________


	BEGINNING GENETIC ALGORITHM DOCKING 29 of 100
Run: 29 Seed: 339226458 154418210 [ Run 29 of 100 GA/GALS ]
Beginning LAMARCKIAN GENETIC ALGORITHM (LGA), with a maximum of 25000000 energy evaluations.

Final-Value: -16.380


	FINAL GENETIC ALGORITHM DOCKED STATE
	_______________________________________________


Detailed state:  trans -9.791 0.720 3.769 quatxyzw 0.879485 -0.014064 0.437185 -0.187555 center 8.287 34.468 -0.670 ntor 10 23.3335 -74.3953 0.2415 -45.2878 -155.4854 30.6933 9.8925 84.9588 34.2454 -180.0000
State:	 -9.791   0.720   3.769   0.895 -0.014  0.445 -158.380     23.33  -74.40    0.24  -45.29 -155.49   30.69    9.89   84.96   34.25 -180.00

DOCKED: MODEL       29
DOCKED: USER    Run = 29
DOCKED: USER    DPF = D:/Protein_go_brrr/autodock/final/AncMH_nat/heme_O2/dock.dpf
DOCKED: USER  
DOCKED: USER    Estimated Free Energy of Binding    =  -12.92 kcal/mol  [=(1)+(2)+(3)-(4)]
DOCKED: USER    Estimated Inhibition Constant, Ki   =  338.07 pM (picomolar)  [Temperature = 298.15 K]
DOCKED: USER    
DOCKED: USER    (1) Final Intermolecular Energy     =  -15.90 kcal/mol
DOCKED: USER        vdW + Hbond + desolv Energy     =  -13.48 kcal/mol
DOCKED: USER        Electrostatic Energy            =   -2.42 kcal/mol
DOCKED: USER    (2) Final Total Internal Energy     =   -0.48 kcal/mol
DOCKED: USER    (3) Torsional Free Energy           =   +2.98 kcal/mol
DOCKED: USER    (4) Unbound System's Energy  [=(2)] =   -0.48 kcal/mol
DOCKED: USER    
DOCKED: USER    
DOCKED: USER    NEWDPF move heme_O2_opt.pdbqt
DOCKED: USER    NEWDPF about 8.287000 34.468000 -0.670000
DOCKED: USER    NEWDPF tran0 -9.790652 0.719512 3.769253
DOCKED: USER    NEWDPF quaternion0 0.879485 -0.014064 0.437185 -0.187555
DOCKED: USER    NEWDPF axisangle0 0.895375 -0.014318 0.445083 -158.379721
DOCKED: USER    NEWDPF quat0 0.895375 -0.014318 0.445083 -158.379721
DOCKED: USER    NEWDPF dihe0 23.33 -74.40 0.24 -45.29 -155.49 30.69 9.89 84.96 34.25 -180.00 
DOCKED: USER  keepresnum = 1 
DOCKED: USER  
DOCKED: REMARK  10 active torsions:
DOCKED: REMARK  status: ('A' for Active; 'I' for Inactive)
DOCKED: REMARK    1  A    between atoms: C_6  and  C_10 
DOCKED: REMARK    2  A    between atoms: C_10  and  C_11 
DOCKED: REMARK    3  A    between atoms: C_11  and  C_12 
DOCKED: REMARK    4  A    between atoms: C_12  and  O_14 
DOCKED: REMARK    5  A    between atoms: C_17  and  C_20 
DOCKED: REMARK    6  A    between atoms: C_24  and  C_27 
DOCKED: REMARK    7  A    between atoms: C_31  and  C_34 
DOCKED: REMARK    8  A    between atoms: C_34  and  C_35 
DOCKED: REMARK    9  A    between atoms: C_35  and  C_36 
DOCKED: REMARK   10  A    between atoms: C_36  and  O_38 
DOCKED: USER                              x       y       z     vdW  Elec       q    Type
DOCKED: USER                           _______ _______ _______ _____ _____    ______ ____
DOCKED: ROOT
DOCKED: ATOM      1  C   UNL d   1     -11.670   0.173   2.950 -0.22 +0.03    +0.064 A 
DOCKED: ATOM      2  C   UNL d   1      -7.599   1.603   0.965 -0.39 +0.01    +0.064 A 
DOCKED: ATOM      3  C   UNL d   1      -5.544   2.058   5.286 -0.30 +0.00    +0.064 C 
DOCKED: ATOM      4  C   UNL d   1      -9.574   0.132   7.314 -0.28 +0.01    +0.064 A 
DOCKED: ATOM      5  C   UNL d   1     -10.729   0.523   2.058 -0.28 +0.03    +0.066 A 
DOCKED: ATOM      6  C   UNL d   1     -10.934   0.551   0.675 -0.31 -0.01    -0.021 A 
DOCKED: ATOM      7  C   UNL d   1      -9.743   0.923   0.097 -0.36 -0.01    -0.025 A 
DOCKED: ATOM      8  C   UNL d   1      -8.858   1.159   1.145 -0.36 +0.01    +0.066 A 
DOCKED: ATOM      9  C   UNL d   1      -9.494   1.007  -1.393 +0.11 +0.00    +0.051 C 
DOCKED: ATOM     10  C   UNL d   1      -6.631   1.890   2.025 -0.36 +0.01    +0.066 A 
DOCKED: ATOM     11  C   UNL d   1      -5.395   2.504   1.793 -0.40 -0.00    -0.021 A 
DOCKED: ATOM     12  C   UNL d   1      -4.795   2.660   3.029 -0.38 -0.00    +0.000 A 
DOCKED: ATOM     13  C   UNL d   1      -5.715   2.110   3.965 -0.32 +0.00    +0.070 A 
DOCKED: ATOM     14  C   UNL d   1      -4.822   2.947   0.452 -0.53 -0.00    +0.052 C 
DOCKED: ATOM     15  C   UNL d   1      -6.434   1.479   6.262 -0.36 +0.00    +0.066 A 
DOCKED: ATOM     16  C   UNL d   1      -6.125   1.309   7.611 -0.44 -0.00    -0.021 A 
DOCKED: ATOM     17  C   UNL d   1      -7.259   0.760   8.210 -0.46 +0.00    +0.000 A 
DOCKED: ATOM     18  C   UNL d   1      -8.188   0.637   7.168 -0.37 +0.01    +0.070 A 
DOCKED: ATOM     19  C   UNL d   1      -4.770   1.630   8.191 -0.51 -0.00    +0.052 C 
DOCKED: ATOM     20  C   UNL d   1     -10.476  -0.040   6.329 -0.39 +0.01    +0.066 A 
DOCKED: ATOM     21  C   UNL d   1     -11.774  -0.503   6.531 -0.36 -0.00    -0.025 A 
DOCKED: ATOM     22  C   UNL d   1     -12.394  -0.471   5.302 -0.33 -0.01    -0.021 A 
DOCKED: ATOM     23  C   UNL d   1     -11.443  -0.006   4.389 -0.23 +0.02    +0.066 A 
DOCKED: ATOM     24  C   UNL d   1     -12.389  -0.955   7.830 -0.47 +0.01    +0.051 C 
DOCKED: ATOM     25  N   UNL d   1      -9.446   0.850   2.349 -0.20 -0.07    -0.248 N 
DOCKED: ATOM     26  N   UNL d   1      -6.827   1.639   3.345 -0.21 -0.03    -0.248 N 
DOCKED: ATOM     27  N   UNL d   1      -7.645   1.007   5.980 -0.09 -0.05    -0.248 N 
DOCKED: ATOM     28  N   UNL d   1     -10.265   0.212   5.010 -0.24 -0.08    -0.248 N 
DOCKED: ATOM     29 FE   UNL d   1      -8.557   0.920   4.186 -0.08 +0.00    +0.000 Fe
DOCKED: ATOM     30  O   UNL d   1      -8.014  -0.214   3.269 -0.48 +0.00    +0.000 OA
DOCKED: ATOM     31  O   UNL d   1      -8.234  -0.489   4.804 -0.83 +0.00    +0.000 OA
DOCKED: ENDROOT
DOCKED: BRANCH   6  32
DOCKED: ATOM     32  C   UNL d   1     -12.159   0.112  -0.085 -0.27 +0.05    +0.052 C 
DOCKED: BRANCH  32  33
DOCKED: ATOM     33  C   UNL d   1     -12.810   1.250  -0.866 -0.07 +0.15    +0.115 C 
DOCKED: BRANCH  33  34
DOCKED: ATOM     34  C   UNL d   1     -14.132   0.849  -1.472 -0.05 +0.20    +0.139 C 
DOCKED: ATOM     35  O   UNL d   1     -15.000   0.367  -0.762 -0.07 -1.19    -0.650 OA
DOCKED: BRANCH  34  36
DOCKED: ATOM     36  O   UNL d   1     -14.370   0.984  -2.793 +0.05 -0.62    -0.776 OA
DOCKED: ATOM     37  H   UNL d   1     -13.657   1.013  -3.441 +0.04 +0.09    +0.167 HD
DOCKED: ENDBRANCH  34  36
DOCKED: ENDBRANCH  33  34
DOCKED: ENDBRANCH  32  33
DOCKED: ENDBRANCH   6  32
DOCKED: BRANCH  22  38
DOCKED: ATOM     38  C   UNL d   1     -13.802  -0.926   5.018 -0.06 +0.02    +0.052 C 
DOCKED: BRANCH  38  39
DOCKED: ATOM     39  C   UNL d   1     -13.915  -2.446   4.926 -0.27 +0.05    +0.115 C 
DOCKED: BRANCH  39  40
DOCKED: ATOM     40  C   UNL d   1     -13.851  -2.945   3.504 -0.20 +0.10    +0.139 C 
DOCKED: ATOM     41  O   UNL d   1     -13.842  -4.145   3.282 -0.22 -0.59    -0.650 OA
DOCKED: BRANCH  40  42
DOCKED: ATOM     42  O   UNL d   1     -13.855  -2.086   2.465 -0.04 -0.74    -0.776 OA
DOCKED: ATOM     43  H   UNL d   1     -14.649  -1.598   2.217 +0.06 +0.17    +0.167 HD
DOCKED: ENDBRANCH  40  42
DOCKED: ENDBRANCH  39  40
DOCKED: ENDBRANCH  38  39
DOCKED: ENDBRANCH  22  38
DOCKED: BRANCH  12  44
DOCKED: ATOM     44  C   UNL d   1      -3.433   3.302   3.186 -0.47 -0.00    +0.004 C 
DOCKED: ATOM     45  C   UNL d   1      -2.783   3.579   4.316 -0.58 -0.00    +0.012 C 
DOCKED: ENDBRANCH  12  44
DOCKED: BRANCH  17  46
DOCKED: ATOM     46  C   UNL d   1      -7.508   0.305   9.623 -0.24 +0.00    +0.004 C 
DOCKED: ATOM     47  C   UNL d   1      -6.776  -0.538  10.363 -0.68 +0.00    +0.012 C 
DOCKED: ENDBRANCH  17  46
DOCKED: TORSDOF 10
DOCKED: TER
DOCKED: ENDMDL
________________________________________________________________________________


	BEGINNING GENETIC ALGORITHM DOCKING 30 of 100
Run: 30 Seed: 1231618681 165547020 [ Run 30 of 100 GA/GALS ]
Beginning LAMARCKIAN GENETIC ALGORITHM (LGA), with a maximum of 25000000 energy evaluations.

Final-Value: -9.989


	FINAL GENETIC ALGORITHM DOCKED STATE
	_______________________________________________


Detailed state:  trans -5.140 20.203 6.083 quatxyzw -0.080704 0.967735 0.032610 0.236458 center 8.287 34.468 -0.670 ntor 10 -22.9608 -21.3077 -104.1323 139.9604 169.0598 -46.1527 -19.8812 151.3041 -31.7808 11.4303
State:	 -5.140  20.203   6.083  -0.083  0.996  0.034 152.645    -22.96  -21.31 -104.13  139.96  169.06  -46.15  -19.88  151.30  -31.78   11.43

DOCKED: MODEL       30
DOCKED: USER    Run = 30
DOCKED: USER    DPF = D:/Protein_go_brrr/autodock/final/AncMH_nat/heme_O2/dock.dpf
DOCKED: USER  
DOCKED: USER    Estimated Free Energy of Binding    =   -6.35 kcal/mol  [=(1)+(2)+(3)-(4)]
DOCKED: USER    Estimated Inhibition Constant, Ki   =   22.10 uM (micromolar)  [Temperature = 298.15 K]
DOCKED: USER    
DOCKED: USER    (1) Final Intermolecular Energy     =   -9.33 kcal/mol
DOCKED: USER        vdW + Hbond + desolv Energy     =   -6.28 kcal/mol
DOCKED: USER        Electrostatic Energy            =   -3.05 kcal/mol
DOCKED: USER    (2) Final Total Internal Energy     =   -0.66 kcal/mol
DOCKED: USER    (3) Torsional Free Energy           =   +2.98 kcal/mol
DOCKED: USER    (4) Unbound System's Energy  [=(2)] =   -0.66 kcal/mol
DOCKED: USER    
DOCKED: USER    
DOCKED: USER    NEWDPF move heme_O2_opt.pdbqt
DOCKED: USER    NEWDPF about 8.287000 34.468000 -0.670000
DOCKED: USER    NEWDPF tran0 -5.139850 20.203237 6.082778
DOCKED: USER    NEWDPF quaternion0 -0.080704 0.967735 0.032610 0.236458
DOCKED: USER    NEWDPF axisangle0 -0.083059 0.995979 0.033561 152.644894
DOCKED: USER    NEWDPF quat0 -0.083059 0.995979 0.033561 152.644894
DOCKED: USER    NEWDPF dihe0 -22.96 -21.31 -104.13 139.96 169.06 -46.15 -19.88 151.30 -31.78 11.43 
DOCKED: USER  keepresnum = 1 
DOCKED: USER  
DOCKED: REMARK  10 active torsions:
DOCKED: REMARK  status: ('A' for Active; 'I' for Inactive)
DOCKED: REMARK    1  A    between atoms: C_6  and  C_10 
DOCKED: REMARK    2  A    between atoms: C_10  and  C_11 
DOCKED: REMARK    3  A    between atoms: C_11  and  C_12 
DOCKED: REMARK    4  A    between atoms: C_12  and  O_14 
DOCKED: REMARK    5  A    between atoms: C_17  and  C_20 
DOCKED: REMARK    6  A    between atoms: C_24  and  C_27 
DOCKED: REMARK    7  A    between atoms: C_31  and  C_34 
DOCKED: REMARK    8  A    between atoms: C_34  and  C_35 
DOCKED: REMARK    9  A    between atoms: C_35  and  C_36 
DOCKED: REMARK   10  A    between atoms: C_36  and  O_38 
DOCKED: USER                              x       y       z     vdW  Elec       q    Type
DOCKED: USER                           _______ _______ _______ _____ _____    ______ ____
DOCKED: ROOT
DOCKED: ATOM      1  C   UNL d   1      -3.218  21.097   6.007 -0.03 +0.02    +0.064 A 
DOCKED: ATOM      2  C   UNL d   1      -5.578  18.302   2.977 -0.20 +0.00    +0.064 A 
DOCKED: ATOM      3  C   UNL d   1      -9.310  18.028   5.994 -0.20 -0.01    +0.064 C 
DOCKED: ATOM      4  C   UNL d   1      -7.089  21.290   8.908 -0.11 +0.01    +0.064 A 
DOCKED: ATOM      5  C   UNL d   1      -3.556  20.361   4.936 -0.06 +0.01    +0.066 A 
DOCKED: ATOM      6  C   UNL d   1      -2.726  20.161   3.829 -0.09 -0.00    -0.021 A 
DOCKED: ATOM      7  C   UNL d   1      -3.425  19.387   2.933 -0.14 -0.00    -0.025 A 
DOCKED: ATOM      8  C   UNL d   1      -4.645  19.096   3.537 -0.15 +0.00    +0.066 A 
DOCKED: ATOM      9  C   UNL d   1      -2.928  18.991   1.559 -0.12 +0.00    +0.051 C 
DOCKED: ATOM     10  C   UNL d   1      -6.866  17.942   3.572 -0.11 -0.01    +0.066 A 
DOCKED: ATOM     11  C   UNL d   1      -7.727  16.985   3.023 -0.29 +0.00    -0.021 A 
DOCKED: ATOM     12  C   UNL d   1      -8.800  16.879   3.888 -0.32 -0.00    +0.000 A 
DOCKED: ATOM     13  C   UNL d   1      -8.533  17.807   4.933 -0.18 -0.01    +0.070 A 
DOCKED: ATOM     14  C   UNL d   1      -7.520  16.186   1.742 -0.44 +0.01    +0.052 C 
DOCKED: ATOM     15  C   UNL d   1      -9.093  18.983   7.054 -0.12 -0.02    +0.066 A 
DOCKED: ATOM     16  C   UNL d   1     -10.022  19.284   8.049 -0.19 +0.01    -0.021 A 
DOCKED: ATOM     17  C   UNL d   1      -9.411  20.213   8.891 -0.19 -0.00    +0.000 A 
DOCKED: ATOM     18  C   UNL d   1      -8.137  20.410   8.341 -0.15 -0.01    +0.070 A 
DOCKED: ATOM     19  C   UNL d   1     -11.415  18.706   8.075 -0.19 -0.03    +0.052 C 
DOCKED: ATOM     20  C   UNL d   1      -5.873  21.535   8.382 -0.08 +0.02    +0.066 A 
DOCKED: ATOM     21  C   UNL d   1      -4.920  22.361   8.972 -0.06 -0.01    -0.025 A 
DOCKED: ATOM     22  C   UNL d   1      -3.800  22.297   8.173 -0.04 -0.01    -0.021 A 
DOCKED: ATOM     23  C   UNL d   1      -4.119  21.445   7.111 -0.04 +0.02    +0.066 A 
DOCKED: ATOM     24  C   UNL d   1      -5.071  23.174  10.232 -0.05 +0.01    +0.051 C 
DOCKED: ATOM     25  N   UNL d   1      -4.751  19.750   4.743 -0.05 -0.03    -0.248 N 
DOCKED: ATOM     26  N   UNL d   1      -7.357  18.453   4.730 -0.10 +0.03    -0.248 N 
DOCKED: ATOM     27  N   UNL d   1      -7.989  19.713   7.185 -0.11 +0.03    -0.248 N 
DOCKED: ATOM     28  N   UNL d   1      -5.395  21.020   7.219 -0.04 -0.07    -0.248 N 
DOCKED: ATOM     29 FE   UNL d   1      -6.371  19.746   5.985 -0.03 +0.00    +0.000 Fe
DOCKED: ATOM     30  O   UNL d   1      -6.602  20.520   4.655 -0.06 +0.00    +0.000 OA
DOCKED: ATOM     31  O   UNL d   1      -7.177  21.096   6.003 -0.05 +0.00    +0.000 OA
DOCKED: ENDROOT
DOCKED: BRANCH   6  32
DOCKED: ATOM     32  C   UNL d   1      -1.380  20.784   3.560 -0.10 +0.01    +0.052 C 
DOCKED: BRANCH  32  33
DOCKED: ATOM     33  C   UNL d   1      -0.406  20.615   4.722 -0.11 +0.04    +0.115 C 
DOCKED: BRANCH  33  34
DOCKED: ATOM     34  C   UNL d   1       1.033  20.739   4.289 -0.14 +0.09    +0.139 C 
DOCKED: ATOM     35  O   UNL d   1       1.299  21.269   3.222 -0.05 -0.40    -0.650 OA
DOCKED: BRANCH  34  36
DOCKED: ATOM     36  O   UNL d   1       2.040  20.251   5.043 -0.43 -1.03    -0.776 OA
DOCKED: ATOM     37  H   UNL d   1       1.942  20.103   5.991 +0.02 +0.16    +0.167 HD
DOCKED: ENDBRANCH  34  36
DOCKED: ENDBRANCH  33  34
DOCKED: ENDBRANCH  32  33
DOCKED: ENDBRANCH   6  32
DOCKED: BRANCH  22  38
DOCKED: ATOM     38  C   UNL d   1      -2.522  23.065   8.389 -0.01 +0.02    +0.052 C 
DOCKED: BRANCH  38  39
DOCKED: ATOM     39  C   UNL d   1      -1.347  22.153   8.735 -0.02 +0.05    +0.115 C 
DOCKED: BRANCH  39  40
DOCKED: ATOM     40  C   UNL d   1      -1.780  20.906   9.465 -0.01 +0.15    +0.139 C 
DOCKED: ATOM     41  O   UNL d   1      -1.922  19.862   8.850 -0.01 -0.94    -0.650 OA
DOCKED: BRANCH  40  42
DOCKED: ATOM     42  O   UNL d   1      -1.965  20.911  10.800 -0.01 -1.31    -0.776 OA
DOCKED: ATOM     43  H   UNL d   1      -1.587  21.600  11.359 +0.00 +0.15    +0.167 HD
DOCKED: ENDBRANCH  40  42
DOCKED: ENDBRANCH  39  40
DOCKED: ENDBRANCH  38  39
DOCKED: ENDBRANCH  22  38
DOCKED: BRANCH  12  44
DOCKED: ATOM     44  C   UNL d   1      -9.948  15.925   3.631 -0.47 -0.00    +0.004 C 
DOCKED: ATOM     45  C   UNL d   1      -9.942  14.595   3.718 -0.61 -0.00    +0.012 C 
DOCKED: ENDBRANCH  12  44
DOCKED: BRANCH  17  46
DOCKED: ATOM     46  C   UNL d   1      -9.934  20.947  10.097 -0.18 -0.00    +0.004 C 
DOCKED: ATOM     47  C   UNL d   1      -9.342  21.113  11.287 -0.13 -0.01    +0.012 C 
DOCKED: ENDBRANCH  17  46
DOCKED: TORSDOF 10
DOCKED: TER
DOCKED: ENDMDL
________________________________________________________________________________


	BEGINNING GENETIC ALGORITHM DOCKING 31 of 100
Run: 31 Seed: 204345540 285349986 [ Run 31 of 100 GA/GALS ]
Beginning LAMARCKIAN GENETIC ALGORITHM (LGA), with a maximum of 25000000 energy evaluations.

Final-Value: -10.025


	FINAL GENETIC ALGORITHM DOCKED STATE
	_______________________________________________


Detailed state:  trans -17.368 9.247 -0.478 quatxyzw -0.591697 -0.525683 -0.605175 0.085525 center 8.287 34.468 -0.670 ntor 10 -36.8589 52.8825 65.4789 -139.9418 106.2265 -167.0924 -62.0370 38.3045 -154.9445 -3.1158
State:	-17.368   9.247  -0.478  -0.594 -0.528 -0.607 170.188    -36.86   52.88   65.48 -139.94  106.23 -167.09  -62.04   38.30 -154.94   -3.12

DOCKED: MODEL       31
DOCKED: USER    Run = 31
DOCKED: USER    DPF = D:/Protein_go_brrr/autodock/final/AncMH_nat/heme_O2/dock.dpf
DOCKED: USER  
DOCKED: USER    Estimated Free Energy of Binding    =   -6.45 kcal/mol  [=(1)+(2)+(3)-(4)]
DOCKED: USER    Estimated Inhibition Constant, Ki   =   18.76 uM (micromolar)  [Temperature = 298.15 K]
DOCKED: USER    
DOCKED: USER    (1) Final Intermolecular Energy     =   -9.43 kcal/mol
DOCKED: USER        vdW + Hbond + desolv Energy     =   -5.60 kcal/mol
DOCKED: USER        Electrostatic Energy            =   -3.84 kcal/mol
DOCKED: USER    (2) Final Total Internal Energy     =   -0.59 kcal/mol
DOCKED: USER    (3) Torsional Free Energy           =   +2.98 kcal/mol
DOCKED: USER    (4) Unbound System's Energy  [=(2)] =   -0.59 kcal/mol
DOCKED: USER    
DOCKED: USER    
DOCKED: USER    NEWDPF move heme_O2_opt.pdbqt
DOCKED: USER    NEWDPF about 8.287000 34.468000 -0.670000
DOCKED: USER    NEWDPF tran0 -17.367784 9.246849 -0.477581
DOCKED: USER    NEWDPF quaternion0 -0.591697 -0.525683 -0.605175 0.085525
DOCKED: USER    NEWDPF axisangle0 -0.593873 -0.527616 -0.607401 170.187519
DOCKED: USER    NEWDPF quat0 -0.593873 -0.527616 -0.607401 170.187519
DOCKED: USER    NEWDPF dihe0 -36.86 52.88 65.48 -139.94 106.23 -167.09 -62.04 38.30 -154.94 -3.12 
DOCKED: USER  keepresnum = 1 
DOCKED: USER  
DOCKED: REMARK  10 active torsions:
DOCKED: REMARK  status: ('A' for Active; 'I' for Inactive)
DOCKED: REMARK    1  A    between atoms: C_6  and  C_10 
DOCKED: REMARK    2  A    between atoms: C_10  and  C_11 
DOCKED: REMARK    3  A    between atoms: C_11  and  C_12 
DOCKED: REMARK    4  A    between atoms: C_12  and  O_14 
DOCKED: REMARK    5  A    between atoms: C_17  and  C_20 
DOCKED: REMARK    6  A    between atoms: C_24  and  C_27 
DOCKED: REMARK    7  A    between atoms: C_31  and  C_34 
DOCKED: REMARK    8  A    between atoms: C_34  and  C_35 
DOCKED: REMARK    9  A    between atoms: C_35  and  C_36 
DOCKED: REMARK   10  A    between atoms: C_36  and  O_38 
DOCKED: USER                              x       y       z     vdW  Elec       q    Type
DOCKED: USER                           _______ _______ _______ _____ _____    ______ ____
DOCKED: ROOT
DOCKED: ATOM      1  C   UNL d   1     -17.167   7.201  -1.002 -0.10 +0.02    +0.064 A 
DOCKED: ATOM      2  C   UNL d   1     -15.928  11.217  -3.215 -0.02 -0.00    +0.064 A 
DOCKED: ATOM      3  C   UNL d   1     -17.738  13.859   0.368 -0.06 -0.05    +0.064 C 
DOCKED: ATOM      4  C   UNL d   1     -18.588   9.728   2.875 -0.12 +0.01    +0.064 A 
DOCKED: ATOM      5  C   UNL d   1     -16.681   8.078  -1.896 -0.09 +0.01    +0.066 A 
DOCKED: ATOM      6  C   UNL d   1     -16.085   7.713  -3.106 -0.08 -0.00    -0.021 A 
DOCKED: ATOM      7  C   UNL d   1     -15.687   8.873  -3.728 -0.09 -0.00    -0.025 A 
DOCKED: ATOM      8  C   UNL d   1     -16.094   9.918  -2.902 -0.02 +0.00    +0.066 A 
DOCKED: ATOM      9  C   UNL d   1     -14.928   8.938  -5.036 -0.09 +0.00    +0.051 C 
DOCKED: ATOM     10  C   UNL d   1     -16.354  12.356  -2.401 -0.12 -0.01    +0.066 A 
DOCKED: ATOM     11  C   UNL d   1     -16.306  13.682  -2.846 -0.11 +0.00    -0.021 A 
DOCKED: ATOM     12  C   UNL d   1     -16.840  14.457  -1.834 -0.10 -0.00    +0.000 A 
DOCKED: ATOM     13  C   UNL d   1     -17.181  13.541  -0.800 -0.11 -0.04    +0.070 A 
DOCKED: ATOM     14  C   UNL d   1     -15.797  14.185  -4.192 -0.08 -0.00    +0.052 C 
DOCKED: ATOM     15  C   UNL d   1     -18.066  12.967   1.454 -0.02 -0.04    +0.066 A 
DOCKED: ATOM     16  C   UNL d   1     -18.496  13.380   2.715 -0.11 +0.01    -0.021 A 
DOCKED: ATOM     17  C   UNL d   1     -18.743  12.219   3.447 -0.12 -0.00    +0.000 A 
DOCKED: ATOM     18  C   UNL d   1     -18.444  11.171   2.566 -0.11 -0.01    +0.070 A 
DOCKED: ATOM     19  C   UNL d   1     -18.578  14.830   3.121 -0.09 -0.02    +0.052 C 
DOCKED: ATOM     20  C   UNL d   1     -18.270   8.697   2.069 -0.14 +0.01    +0.066 A 
DOCKED: ATOM     21  C   UNL d   1     -18.444   7.358   2.408 -0.21 -0.01    -0.025 A 
DOCKED: ATOM     22  C   UNL d   1     -18.070   6.625   1.305 -0.18 -0.01    -0.021 A 
DOCKED: ATOM     23  C   UNL d   1     -17.662   7.546   0.336 -0.13 +0.03    +0.066 A 
DOCKED: ATOM     24  C   UNL d   1     -18.940   6.807   3.720 -0.23 +0.04    +0.051 C 
DOCKED: ATOM     25  N   UNL d   1     -16.647   9.425  -1.743 -0.08 -0.01    -0.248 N 
DOCKED: ATOM     26  N   UNL d   1     -16.878  12.266  -1.151 -0.10 +0.09    -0.248 N 
DOCKED: ATOM     27  N   UNL d   1     -17.963  11.642   1.387 -0.08 +0.10    -0.248 N 
DOCKED: ATOM     28  N   UNL d   1     -17.742   8.802   0.820 -0.07 -0.04    -0.248 N 
DOCKED: ATOM     29 FE   UNL d   1     -17.314  10.523  -0.156 -0.03 -0.00    +0.000 Fe
DOCKED: ATOM     30  O   UNL d   1     -15.768  10.549  -0.333 -0.34 -0.00    +0.000 OA
DOCKED: ATOM     31  O   UNL d   1     -16.387  10.457   1.113 -0.40 -0.00    +0.000 OA
DOCKED: ENDROOT
DOCKED: BRANCH   6  32
DOCKED: ATOM     32  C   UNL d   1     -15.776   6.324  -3.601 -0.05 +0.01    +0.052 C 
DOCKED: BRANCH  32  33
DOCKED: ATOM     33  C   UNL d   1     -14.631   5.664  -2.837 -0.10 +0.05    +0.115 C 
DOCKED: BRANCH  33  34
DOCKED: ATOM     34  C   UNL d   1     -15.079   4.444  -2.071 -0.07 +0.15    +0.139 C 
DOCKED: ATOM     35  O   UNL d   1     -16.111   4.485  -1.421 -0.53 -0.99    -0.650 OA
DOCKED: BRANCH  34  36
DOCKED: ATOM     36  O   UNL d   1     -14.347   3.311  -2.063 -0.17 -1.03    -0.776 OA
DOCKED: ATOM     37  H   UNL d   1     -13.865   3.009  -2.842 +0.03 +0.12    +0.167 HD
DOCKED: ENDBRANCH  34  36
DOCKED: ENDBRANCH  33  34
DOCKED: ENDBRANCH  32  33
DOCKED: ENDBRANCH   6  32
DOCKED: BRANCH  22  38
DOCKED: ATOM     38  C   UNL d   1     -18.047   5.121   1.217 -0.01 +0.06    +0.052 C 
DOCKED: BRANCH  38  39
DOCKED: ATOM     39  C   UNL d   1     -19.286   4.559   0.523 -0.13 +0.12    +0.115 C 
DOCKED: BRANCH  39  40
DOCKED: ATOM     40  C   UNL d   1     -19.757   3.267   1.142 -0.00 +0.24    +0.139 C 
DOCKED: ATOM     41  O   UNL d   1     -18.977   2.582   1.783 -0.40 -1.69    -0.650 OA
DOCKED: BRANCH  40  42
DOCKED: ATOM     42  O   UNL d   1     -21.043   2.876   1.043 +0.01 -1.10    -0.776 OA
DOCKED: ATOM     43  H   UNL d   1     -21.478   2.785   0.187 +0.01 +0.14    +0.167 HD
DOCKED: ENDBRANCH  40  42
DOCKED: ENDBRANCH  39  40
DOCKED: ENDBRANCH  38  39
DOCKED: ENDBRANCH  22  38
DOCKED: BRANCH  12  44
DOCKED: ATOM     44  C   UNL d   1     -16.965  15.962  -1.954 -0.07 -0.00    +0.004 C 
DOCKED: ATOM     45  C   UNL d   1     -16.399  16.894  -1.187 -0.13 +0.00    +0.012 C 
DOCKED: ENDBRANCH  12  44
DOCKED: BRANCH  17  46
DOCKED: ATOM     46  C   UNL d   1     -19.168  12.026   4.879 -0.15 -0.00    +0.004 C 
DOCKED: ATOM     47  C   UNL d   1     -18.837  11.033   5.714 -0.22 +0.00    +0.012 C 
DOCKED: ENDBRANCH  17  46
DOCKED: TORSDOF 10
DOCKED: TER
DOCKED: ENDMDL
________________________________________________________________________________


	BEGINNING GENETIC ALGORITHM DOCKING 32 of 100
Run: 32 Seed: 399078393 2067100044 [ Run 32 of 100 GA/GALS ]
Beginning LAMARCKIAN GENETIC ALGORITHM (LGA), with a maximum of 25000000 energy evaluations.

Final-Value: -11.033


	FINAL GENETIC ALGORITHM DOCKED STATE
	_______________________________________________


Detailed state:  trans -17.568 -3.168 5.103 quatxyzw 0.105278 0.731581 0.161805 0.653853 center 8.287 34.468 -0.670 ntor 10 -79.8500 -156.3633 -43.4973 48.8885 57.4428 115.8510 -105.2923 89.4449 169.0752 -179.3160
State:	-17.568  -3.168   5.103   0.139  0.967  0.214 98.334    -79.85 -156.36  -43.50   48.89   57.44  115.85 -105.29   89.44  169.08 -179.32

DOCKED: MODEL       32
DOCKED: USER    Run = 32
DOCKED: USER    DPF = D:/Protein_go_brrr/autodock/final/AncMH_nat/heme_O2/dock.dpf
DOCKED: USER  
DOCKED: USER    Estimated Free Energy of Binding    =   -5.63 kcal/mol  [=(1)+(2)+(3)-(4)]
DOCKED: USER    Estimated Inhibition Constant, Ki   =   74.27 uM (micromolar)  [Temperature = 298.15 K]
DOCKED: USER    
DOCKED: USER    (1) Final Intermolecular Energy     =   -8.62 kcal/mol
DOCKED: USER        vdW + Hbond + desolv Energy     =   -5.02 kcal/mol
DOCKED: USER        Electrostatic Energy            =   -3.60 kcal/mol
DOCKED: USER    (2) Final Total Internal Energy     =   -2.42 kcal/mol
DOCKED: USER    (3) Torsional Free Energy           =   +2.98 kcal/mol
DOCKED: USER    (4) Unbound System's Energy  [=(2)] =   -2.42 kcal/mol
DOCKED: USER    
DOCKED: USER    
DOCKED: USER    NEWDPF move heme_O2_opt.pdbqt
DOCKED: USER    NEWDPF about 8.287000 34.468000 -0.670000
DOCKED: USER    NEWDPF tran0 -17.568204 -3.168137 5.103223
DOCKED: USER    NEWDPF quaternion0 0.105278 0.731581 0.161805 0.653853
DOCKED: USER    NEWDPF axisangle0 0.139143 0.966906 0.213852 98.334457
DOCKED: USER    NEWDPF quat0 0.139143 0.966906 0.213852 98.334457
DOCKED: USER    NEWDPF dihe0 -79.85 -156.36 -43.50 48.89 57.44 115.85 -105.29 89.44 169.08 -179.32 
DOCKED: USER  keepresnum = 1 
DOCKED: USER  
DOCKED: REMARK  10 active torsions:
DOCKED: REMARK  status: ('A' for Active; 'I' for Inactive)
DOCKED: REMARK    1  A    between atoms: C_6  and  C_10 
DOCKED: REMARK    2  A    between atoms: C_10  and  C_11 
DOCKED: REMARK    3  A    between atoms: C_11  and  C_12 
DOCKED: REMARK    4  A    between atoms: C_12  and  O_14 
DOCKED: REMARK    5  A    between atoms: C_17  and  C_20 
DOCKED: REMARK    6  A    between atoms: C_24  and  C_27 
DOCKED: REMARK    7  A    between atoms: C_31  and  C_34 
DOCKED: REMARK    8  A    between atoms: C_34  and  C_35 
DOCKED: REMARK    9  A    between atoms: C_35  and  C_36 
DOCKED: REMARK   10  A    between atoms: C_36  and  O_38 
DOCKED: USER                              x       y       z     vdW  Elec       q    Type
DOCKED: USER                           _______ _______ _______ _____ _____    ______ ____
DOCKED: ROOT
DOCKED: ATOM      1  C   UNL d   1     -16.380  -2.803   3.384 -0.08 +0.05    +0.064 A 
DOCKED: ATOM      2  C   UNL d   1     -20.942  -4.006   3.935 -0.03 +0.02    +0.064 A 
DOCKED: ATOM      3  C   UNL d   1     -20.433  -4.113   8.712 -0.13 +0.02    +0.064 C 
DOCKED: ATOM      4  C   UNL d   1     -15.863  -2.409   8.182 -0.24 +0.01    +0.064 A 
DOCKED: ATOM      5  C   UNL d   1     -17.663  -3.120   3.144 -0.04 +0.04    +0.066 A 
DOCKED: ATOM      6  C   UNL d   1     -18.218  -3.224   1.865 -0.05 -0.02    -0.021 A 
DOCKED: ATOM      7  C   UNL d   1     -19.549  -3.530   2.025 -0.01 -0.01    -0.025 A 
DOCKED: ATOM      8  C   UNL d   1     -19.760  -3.652   3.396 -0.02 +0.03    +0.066 A 
DOCKED: ATOM      9  C   UNL d   1     -20.548  -3.662   0.896 +0.00 +0.02    +0.051 C 
DOCKED: ATOM     10  C   UNL d   1     -21.218  -4.172   5.363 -0.05 +0.02    +0.066 A 
DOCKED: ATOM     11  C   UNL d   1     -22.415  -4.700   5.859 -0.05 -0.01    -0.021 A 
DOCKED: ATOM     12  C   UNL d   1     -22.280  -4.756   7.234 -0.06 +0.00    +0.000 A 
DOCKED: ATOM     13  C   UNL d   1     -20.985  -4.236   7.505 -0.08 +0.02    +0.070 A 
DOCKED: ATOM     14  C   UNL d   1     -23.625  -5.158   5.054 -0.02 +0.01    +0.052 C 
DOCKED: ATOM     15  C   UNL d   1     -19.139  -3.559   9.032 -0.11 +0.02    +0.066 A 
DOCKED: ATOM     16  C   UNL d   1     -18.685  -3.307  10.326 -0.09 -0.01    -0.021 A 
DOCKED: ATOM     17  C   UNL d   1     -17.384  -2.819  10.200 -0.22 +0.00    +0.000 A 
DOCKED: ATOM     18  C   UNL d   1     -17.138  -2.813   8.820 -0.19 +0.01    +0.070 A 
DOCKED: ATOM     19  C   UNL d   1     -19.544  -3.498  11.551 -0.09 +0.02    +0.052 C 
DOCKED: ATOM     20  C   UNL d   1     -15.608  -2.350   6.860 -0.19 +0.02    +0.066 A 
DOCKED: ATOM     21  C   UNL d   1     -14.381  -1.978   6.318 -0.27 -0.01    -0.025 A 
DOCKED: ATOM     22  C   UNL d   1     -14.501  -2.111   4.953 -0.22 -0.01    -0.021 A 
DOCKED: ATOM     23  C   UNL d   1     -15.809  -2.543   4.711 -0.11 +0.04    +0.066 A 
DOCKED: ATOM     24  C   UNL d   1     -13.156  -1.517   7.065 -0.42 +0.01    +0.051 C 
DOCKED: ATOM     25  N   UNL d   1     -18.613  -3.335   4.087 -0.02 -0.13    -0.248 N 
DOCKED: ATOM     26  N   UNL d   1     -20.347  -3.879   6.362 -0.05 -0.10    -0.248 N 
DOCKED: ATOM     27  N   UNL d   1     -18.239  -3.194   8.123 -0.09 -0.07    -0.248 N 
DOCKED: ATOM     28  N   UNL d   1     -16.491  -2.644   5.870 -0.05 -0.10    -0.248 N 
DOCKED: ATOM     29 FE   UNL d   1     -18.405  -3.256   6.117 -0.03 +0.00    +0.000 Fe
DOCKED: ATOM     30  O   UNL d   1     -19.302  -2.126   5.533 -0.07 +0.00    +0.000 OA
DOCKED: ATOM     31  O   UNL d   1     -18.296  -1.800   6.701 -0.12 +0.00    +0.000 OA
DOCKED: ENDROOT
DOCKED: BRANCH   6  32
DOCKED: ATOM     32  C   UNL d   1     -17.559  -2.914   0.546 -0.06 +0.05    +0.052 C 
DOCKED: BRANCH  32  33
DOCKED: ATOM     33  C   UNL d   1     -18.075  -1.624  -0.084 -0.05 +0.10    +0.115 C 
DOCKED: BRANCH  33  34
DOCKED: ATOM     34  C   UNL d   1     -17.582  -0.394   0.637 -0.07 +0.17    +0.139 C 
DOCKED: ATOM     35  O   UNL d   1     -18.266   0.105   1.516 -0.03 -0.86    -0.650 OA
DOCKED: BRANCH  34  36
DOCKED: ATOM     36  O   UNL d   1     -16.408   0.188   0.314 -0.42 -1.63    -0.776 OA
DOCKED: ATOM     37  H   UNL d   1     -15.564  -0.160   0.622 +0.03 +0.32    +0.167 HD
DOCKED: ENDBRANCH  34  36
DOCKED: ENDBRANCH  33  34
DOCKED: ENDBRANCH  32  33
DOCKED: ENDBRANCH   6  32
DOCKED: BRANCH  22  38
DOCKED: ATOM     38  C   UNL d   1     -13.436  -1.777   3.941 -0.16 +0.03    +0.052 C 
DOCKED: BRANCH  38  39
DOCKED: ATOM     39  C   UNL d   1     -13.314  -0.274   3.698 -0.23 +0.07    +0.115 C 
DOCKED: BRANCH  39  40
DOCKED: ATOM     40  C   UNL d   1     -14.181   0.198   2.558 -0.14 +0.18    +0.139 C 
DOCKED: ATOM     41  O   UNL d   1     -13.687   0.380   1.457 -0.01 -1.07    -0.650 OA
DOCKED: BRANCH  40  42
DOCKED: ATOM     42  O   UNL d   1     -15.507   0.373   2.718 +0.00 -1.20    -0.776 OA
DOCKED: ATOM     43  H   UNL d   1     -16.119   0.303   1.976 +0.03 +0.32    +0.167 HD
DOCKED: ENDBRANCH  40  42
DOCKED: ENDBRANCH  39  40
DOCKED: ENDBRANCH  38  39
DOCKED: ENDBRANCH  22  38
DOCKED: BRANCH  12  44
DOCKED: ATOM     44  C   UNL d   1     -23.382  -5.285   8.129 -0.03 +0.00    +0.004 C 
DOCKED: ATOM     45  C   UNL d   1     -23.277  -6.168   9.121 -0.04 +0.00    +0.012 C 
DOCKED: ENDBRANCH  12  44
DOCKED: BRANCH  17  46
DOCKED: ATOM     46  C   UNL d   1     -16.410  -2.322  11.235 -0.31 +0.00    +0.004 C 
DOCKED: ATOM     47  C   UNL d   1     -16.146  -2.841  12.441 -0.35 +0.00    +0.012 C 
DOCKED: ENDBRANCH  17  46
DOCKED: TORSDOF 10
DOCKED: TER
DOCKED: ENDMDL
________________________________________________________________________________


	BEGINNING GENETIC ALGORITHM DOCKING 33 of 100
Run: 33 Seed: 812442424 1600285052 [ Run 33 of 100 GA/GALS ]
Beginning LAMARCKIAN GENETIC ALGORITHM (LGA), with a maximum of 25000000 energy evaluations.

Final-Value: -17.086


	FINAL GENETIC ALGORITHM DOCKED STATE
	_______________________________________________


Detailed state:  trans -9.877 0.806 4.385 quatxyzw 0.908699 -0.006028 0.380459 -0.171702 center 8.287 34.468 -0.670 ntor 10 135.3679 -75.0896 9.0066 -93.2382 -19.1368 17.4729 -29.2351 -52.7083 -131.5710 -178.9659
State:	 -9.877   0.806   4.385   0.922 -0.006  0.386 -160.226    135.37  -75.09    9.01  -93.24  -19.14   17.47  -29.24  -52.71 -131.57 -178.97

DOCKED: MODEL       33
DOCKED: USER    Run = 33
DOCKED: USER    DPF = D:/Protein_go_brrr/autodock/final/AncMH_nat/heme_O2/dock.dpf
DOCKED: USER  
DOCKED: USER    Estimated Free Energy of Binding    =  -13.53 kcal/mol  [=(1)+(2)+(3)-(4)]
DOCKED: USER    Estimated Inhibition Constant, Ki   =  120.86 pM (picomolar)  [Temperature = 298.15 K]
DOCKED: USER    
DOCKED: USER    (1) Final Intermolecular Energy     =  -16.51 kcal/mol
DOCKED: USER        vdW + Hbond + desolv Energy     =  -14.71 kcal/mol
DOCKED: USER        Electrostatic Energy            =   -1.80 kcal/mol
DOCKED: USER    (2) Final Total Internal Energy     =   -0.57 kcal/mol
DOCKED: USER    (3) Torsional Free Energy           =   +2.98 kcal/mol
DOCKED: USER    (4) Unbound System's Energy  [=(2)] =   -0.57 kcal/mol
DOCKED: USER    
DOCKED: USER    
DOCKED: USER    NEWDPF move heme_O2_opt.pdbqt
DOCKED: USER    NEWDPF about 8.287000 34.468000 -0.670000
DOCKED: USER    NEWDPF tran0 -9.877049 0.806383 4.385023
DOCKED: USER    NEWDPF quaternion0 0.908699 -0.006028 0.380459 -0.171702
DOCKED: USER    NEWDPF axisangle0 0.922397 -0.006118 0.386194 -160.226432
DOCKED: USER    NEWDPF quat0 0.922397 -0.006118 0.386194 -160.226432
DOCKED: USER    NEWDPF dihe0 135.37 -75.09 9.01 -93.24 -19.14 17.47 -29.24 -52.71 -131.57 -178.97 
DOCKED: USER  keepresnum = 1 
DOCKED: USER  
DOCKED: REMARK  10 active torsions:
DOCKED: REMARK  status: ('A' for Active; 'I' for Inactive)
DOCKED: REMARK    1  A    between atoms: C_6  and  C_10 
DOCKED: REMARK    2  A    between atoms: C_10  and  C_11 
DOCKED: REMARK    3  A    between atoms: C_11  and  C_12 
DOCKED: REMARK    4  A    between atoms: C_12  and  O_14 
DOCKED: REMARK    5  A    between atoms: C_17  and  C_20 
DOCKED: REMARK    6  A    between atoms: C_24  and  C_27 
DOCKED: REMARK    7  A    between atoms: C_31  and  C_34 
DOCKED: REMARK    8  A    between atoms: C_34  and  C_35 
DOCKED: REMARK    9  A    between atoms: C_35  and  C_36 
DOCKED: REMARK   10  A    between atoms: C_36  and  O_38 
DOCKED: USER                              x       y       z     vdW  Elec       q    Type
DOCKED: USER                           _______ _______ _______ _____ _____    ______ ____
DOCKED: ROOT
DOCKED: ATOM      1  C   UNL d   1     -11.842   0.269   3.794 -0.30 +0.03    +0.064 A 
DOCKED: ATOM      2  C   UNL d   1      -8.066   1.802   1.356 -0.34 +0.01    +0.064 A 
DOCKED: ATOM      3  C   UNL d   1      -5.479   2.136   5.392 -0.30 +0.00    +0.064 C 
DOCKED: ATOM      4  C   UNL d   1      -9.206   0.105   7.852 -0.20 +0.01    +0.064 A 
DOCKED: ATOM      5  C   UNL d   1     -11.026   0.657   2.802 -0.29 +0.03    +0.066 A 
DOCKED: ATOM      6  C   UNL d   1     -11.405   0.728   1.458 -0.29 -0.01    -0.021 A 
DOCKED: ATOM      7  C   UNL d   1     -10.300   1.130   0.745 -0.31 -0.01    -0.025 A 
DOCKED: ATOM      8  C   UNL d   1      -9.289   1.341   1.679 -0.29 +0.02    +0.066 A 
DOCKED: ATOM      9  C   UNL d   1     -10.244   1.266  -0.761 -0.35 +0.02    +0.051 C 
DOCKED: ATOM     10  C   UNL d   1      -6.973   2.064   2.293 -0.32 +0.01    +0.066 A 
DOCKED: ATOM     11  C   UNL d   1      -5.780   2.697   1.926 -0.40 -0.00    -0.021 A 
DOCKED: ATOM     12  C   UNL d   1      -5.028   2.818   3.080 -0.39 -0.00    +0.000 A 
DOCKED: ATOM     13  C   UNL d   1      -5.817   2.229   4.106 -0.34 +0.00    +0.070 A 
DOCKED: ATOM     14  C   UNL d   1      -5.385   3.189   0.539 -0.46 -0.00    +0.052 C 
DOCKED: ATOM     15  C   UNL d   1      -6.234   1.515   6.454 -0.37 +0.00    +0.066 A 
DOCKED: ATOM     16  C   UNL d   1      -5.754   1.304   7.746 -0.45 -0.00    -0.021 A 
DOCKED: ATOM     17  C   UNL d   1      -6.799   0.725   8.466 -0.44 +0.00    +0.000 A 
DOCKED: ATOM     18  C   UNL d   1      -7.853   0.627   7.547 -0.39 +0.01    +0.070 A 
DOCKED: ATOM     19  C   UNL d   1      -4.338   1.619   8.159 -0.46 -0.00    +0.052 C 
DOCKED: ATOM     20  C   UNL d   1     -10.226  -0.043   6.984 -0.32 +0.01    +0.066 A 
DOCKED: ATOM     21  C   UNL d   1     -11.484  -0.525   7.334 -0.25 -0.00    -0.025 A 
DOCKED: ATOM     22  C   UNL d   1     -12.257  -0.459   6.196 -0.37 -0.00    -0.021 A 
DOCKED: ATOM     23  C   UNL d   1     -11.433   0.045   5.186 -0.36 +0.02    +0.066 A 
DOCKED: ATOM     24  C   UNL d   1     -11.926  -1.026   8.685 -0.39 +0.00    +0.051 C 
DOCKED: ATOM     25  N   UNL d   1      -9.718   0.986   2.938 -0.16 -0.08    -0.248 N 
DOCKED: ATOM     26  N   UNL d   1      -6.997   1.768   3.617 -0.09 -0.03    -0.248 N 
DOCKED: ATOM     27  N   UNL d   1      -7.469   1.042   6.312 -0.22 -0.03    -0.248 N 
DOCKED: ATOM     28  N   UNL d   1     -10.187   0.254   5.658 -0.27 -0.07    -0.248 N 
DOCKED: ATOM     29 FE   UNL d   1      -8.602   1.005   4.648 -0.08 +0.00    +0.000 Fe
DOCKED: ATOM     30  O   UNL d   1      -8.174  -0.093   3.631 -0.61 +0.00    +0.000 OA
DOCKED: ATOM     31  O   UNL d   1      -8.194  -0.420   5.172 -0.84 +0.00    +0.000 OA
DOCKED: ENDROOT
DOCKED: BRANCH   6  32
DOCKED: ATOM     32  C   UNL d   1     -12.715   0.303   0.846 -0.26 +0.06    +0.052 C 
DOCKED: BRANCH  32  33
DOCKED: ATOM     33  C   UNL d   1     -13.160  -1.083   1.302 -0.24 +0.12    +0.115 C 
DOCKED: BRANCH  33  34
DOCKED: ATOM     34  C   UNL d   1     -14.662  -1.215   1.358 -0.20 +0.17    +0.139 C 
DOCKED: ATOM     35  O   UNL d   1     -15.162  -2.200   1.876 +0.00 -0.73    -0.650 OA
DOCKED: BRANCH  34  36
DOCKED: ATOM     36  O   UNL d   1     -15.471  -0.278   0.820 -0.32 -1.36    -0.776 OA
DOCKED: ATOM     37  H   UNL d   1     -16.239  -0.512   0.286 +0.03 +0.25    +0.167 HD
DOCKED: ENDBRANCH  34  36
DOCKED: ENDBRANCH  33  34
DOCKED: ENDBRANCH  32  33
DOCKED: ENDBRANCH   6  32
DOCKED: BRANCH  22  38
DOCKED: ATOM     38  C   UNL d   1     -13.687  -0.918   6.078 -0.03 +0.01    +0.052 C 
DOCKED: BRANCH  38  39
DOCKED: ATOM     39  C   UNL d   1     -13.805  -2.437   5.976 -0.30 +0.03    +0.115 C 
DOCKED: BRANCH  39  40
DOCKED: ATOM     40  C   UNL d   1     -14.737  -3.015   7.012 -0.29 +0.03    +0.139 C 
DOCKED: ATOM     41  O   UNL d   1     -15.188  -4.139   6.862 +0.02 -0.18    -0.650 OA
DOCKED: BRANCH  40  42
DOCKED: ATOM     42  O   UNL d   1     -15.043  -2.330   8.131 +0.07 -0.08    -0.776 OA
DOCKED: ATOM     43  H   UNL d   1     -14.402  -2.212   8.842 -0.44 -0.04    +0.167 HD
DOCKED: ENDBRANCH  40  42
DOCKED: ENDBRANCH  39  40
DOCKED: ENDBRANCH  38  39
DOCKED: ENDBRANCH  22  38
DOCKED: BRANCH  12  44
DOCKED: ATOM     44  C   UNL d   1      -3.660   3.468   3.084 -0.47 -0.00    +0.004 C 
DOCKED: ATOM     45  C   UNL d   1      -2.805   3.571   4.101 -0.56 -0.00    +0.012 C 
DOCKED: ENDBRANCH  12  44
DOCKED: BRANCH  17  46
DOCKED: ATOM     46  C   UNL d   1      -6.863   0.221   9.883 -0.38 +0.00    +0.004 C 
DOCKED: ATOM     47  C   UNL d   1      -6.771  -1.042  10.318 -0.70 -0.00    +0.012 C 
DOCKED: ENDBRANCH  17  46
DOCKED: TORSDOF 10
DOCKED: TER
DOCKED: ENDMDL
________________________________________________________________________________


	BEGINNING GENETIC ALGORITHM DOCKING 34 of 100
Run: 34 Seed: 1040948769 538571509 [ Run 34 of 100 GA/GALS ]
Beginning LAMARCKIAN GENETIC ALGORITHM (LGA), with a maximum of 25000000 energy evaluations.

Final-Value: -11.106


	FINAL GENETIC ALGORITHM DOCKED STATE
	_______________________________________________


Detailed state:  trans -18.206 -0.830 7.377 quatxyzw 0.443558 0.567513 0.208459 0.661612 center 8.287 34.468 -0.670 ntor 10 142.8876 -90.7014 43.1352 44.1904 26.9415 148.5289 -104.4685 59.1953 -168.1235 -164.7504
State:	-18.206  -0.830   7.377   0.592  0.757  0.278 97.154    142.89  -90.70   43.14   44.19   26.94  148.53 -104.47   59.20 -168.12 -164.75

DOCKED: MODEL       34
DOCKED: USER    Run = 34
DOCKED: USER    DPF = D:/Protein_go_brrr/autodock/final/AncMH_nat/heme_O2/dock.dpf
DOCKED: USER  
DOCKED: USER    Estimated Free Energy of Binding    =   -5.63 kcal/mol  [=(1)+(2)+(3)-(4)]
DOCKED: USER    Estimated Inhibition Constant, Ki   =   74.48 uM (micromolar)  [Temperature = 298.15 K]
DOCKED: USER    
DOCKED: USER    (1) Final Intermolecular Energy     =   -8.61 kcal/mol
DOCKED: USER        vdW + Hbond + desolv Energy     =   -5.87 kcal/mol
DOCKED: USER        Electrostatic Energy            =   -2.74 kcal/mol
DOCKED: USER    (2) Final Total Internal Energy     =   -2.49 kcal/mol
DOCKED: USER    (3) Torsional Free Energy           =   +2.98 kcal/mol
DOCKED: USER    (4) Unbound System's Energy  [=(2)] =   -2.49 kcal/mol
DOCKED: USER    
DOCKED: USER    
DOCKED: USER    NEWDPF move heme_O2_opt.pdbqt
DOCKED: USER    NEWDPF about 8.287000 34.468000 -0.670000
DOCKED: USER    NEWDPF tran0 -18.206039 -0.830431 7.377068
DOCKED: USER    NEWDPF quaternion0 0.443558 0.567513 0.208459 0.661612
DOCKED: USER    NEWDPF axisangle0 0.591532 0.756839 0.278002 97.154191
DOCKED: USER    NEWDPF quat0 0.591532 0.756839 0.278002 97.154191
DOCKED: USER    NEWDPF dihe0 142.89 -90.70 43.14 44.19 26.94 148.53 -104.47 59.20 -168.12 -164.75 
DOCKED: USER  keepresnum = 1 
DOCKED: USER  
DOCKED: REMARK  10 active torsions:
DOCKED: REMARK  status: ('A' for Active; 'I' for Inactive)
DOCKED: REMARK    1  A    between atoms: C_6  and  C_10 
DOCKED: REMARK    2  A    between atoms: C_10  and  C_11 
DOCKED: REMARK    3  A    between atoms: C_11  and  C_12 
DOCKED: REMARK    4  A    between atoms: C_12  and  O_14 
DOCKED: REMARK    5  A    between atoms: C_17  and  C_20 
DOCKED: REMARK    6  A    between atoms: C_24  and  C_27 
DOCKED: REMARK    7  A    between atoms: C_31  and  C_34 
DOCKED: REMARK    8  A    between atoms: C_34  and  C_35 
DOCKED: REMARK    9  A    between atoms: C_35  and  C_36 
DOCKED: REMARK   10  A    between atoms: C_36  and  O_38 
DOCKED: USER                              x       y       z     vdW  Elec       q    Type
DOCKED: USER                           _______ _______ _______ _____ _____    ______ ____
DOCKED: ROOT
DOCKED: ATOM      1  C   UNL d   1     -17.787  -1.602   5.446 -0.08 +0.04    +0.064 A 
DOCKED: ATOM      2  C   UNL d   1     -21.694   0.301   7.362 -0.06 +0.04    +0.064 A 
DOCKED: ATOM      3  C   UNL d   1     -19.460   0.873  11.578 -0.08 +0.01    +0.064 C 
DOCKED: ATOM      4  C   UNL d   1     -15.292  -0.643   9.483 -0.23 +0.01    +0.064 A 
DOCKED: ATOM      5  C   UNL d   1     -19.031  -1.129   5.623 -0.09 +0.05    +0.066 A 
DOCKED: ATOM      6  C   UNL d   1     -20.019  -1.136   4.633 -0.07 -0.02    -0.021 A 
DOCKED: ATOM      7  C   UNL d   1     -21.137  -0.545   5.173 -0.05 -0.02    -0.025 A 
DOCKED: ATOM      8  C   UNL d   1     -20.818  -0.239   6.493 -0.06 +0.05    +0.066 A 
DOCKED: ATOM      9  C   UNL d   1     -22.423  -0.277   4.422 -0.05 +0.05    +0.051 C 
DOCKED: ATOM     10  C   UNL d   1     -21.424   0.624   8.764 -0.05 +0.03    +0.066 A 
DOCKED: ATOM     11  C   UNL d   1     -22.415   1.029   9.664 -0.02 -0.01    -0.021 A 
DOCKED: ATOM     12  C   UNL d   1     -21.794   1.182  10.890 -0.02 +0.00    +0.000 A 
DOCKED: ATOM     13  C   UNL d   1     -20.426   0.866  10.660 -0.05 +0.02    +0.070 A 
DOCKED: ATOM     14  C   UNL d   1     -23.897   1.236   9.374 -0.01 +0.01    +0.052 C 
DOCKED: ATOM     15  C   UNL d   1     -18.059   0.594  11.378 -0.13 +0.01    +0.066 A 
DOCKED: ATOM     16  C   UNL d   1     -17.070   0.778  12.344 -0.19 -0.00    -0.021 A 
DOCKED: ATOM     17  C   UNL d   1     -15.873   0.353  11.769 -0.33 +0.00    +0.000 A 
DOCKED: ATOM     18  C   UNL d   1     -16.226  -0.066  10.478 -0.29 +0.01    +0.070 A 
DOCKED: ATOM     19  C   UNL d   1     -17.344   1.389  13.695 -0.16 +0.01    +0.052 C 
DOCKED: ATOM     20  C   UNL d   1     -15.589  -1.015   8.222 -0.08 +0.02    +0.066 A 
DOCKED: ATOM     21  C   UNL d   1     -14.670  -1.569   7.335 -0.30 -0.01    -0.025 A 
DOCKED: ATOM     22  C   UNL d   1     -15.369  -1.873   6.189 -0.16 -0.01    -0.021 A 
DOCKED: ATOM     23  C   UNL d   1     -16.691  -1.476   6.414 -0.08 +0.03    +0.066 A 
DOCKED: ATOM     24  C   UNL d   1     -13.198  -1.792   7.568 -0.38 +0.00    +0.051 C 
DOCKED: ATOM     25  N   UNL d   1     -19.500  -0.539   6.749 -0.07 -0.17    -0.248 N 
DOCKED: ATOM     26  N   UNL d   1     -20.210   0.532   9.362 -0.04 -0.08    -0.248 N 
DOCKED: ATOM     27  N   UNL d   1     -17.542   0.157  10.233 -0.11 -0.05    -0.248 N 
DOCKED: ATOM     28  N   UNL d   1     -16.810  -0.913   7.634 -0.10 -0.10    -0.248 N 
DOCKED: ATOM     29 FE   UNL d   1     -18.496  -0.195   8.494 -0.03 +0.00    +0.000 Fe
DOCKED: ATOM     30  O   UNL d   1     -18.863   1.101   7.715 -0.27 +0.00    +0.000 OA
DOCKED: ATOM     31  O   UNL d   1     -17.461   0.987   8.424 -0.51 +0.00    +0.000 OA
DOCKED: ENDROOT
DOCKED: BRANCH   6  32
DOCKED: ATOM     32  C   UNL d   1     -19.879  -1.553   3.192 -0.04 +0.04    +0.052 C 
DOCKED: BRANCH  32  33
DOCKED: ATOM     33  C   UNL d   1     -19.343  -0.437   2.301 -0.07 +0.13    +0.115 C 
DOCKED: BRANCH  33  34
DOCKED: ATOM     34  C   UNL d   1     -17.873  -0.180   2.522 -0.13 +0.18    +0.139 C 
DOCKED: ATOM     35  O   UNL d   1     -17.495   0.942   2.821 -0.17 -1.14    -0.650 OA
DOCKED: BRANCH  34  36
DOCKED: ATOM     36  O   UNL d   1     -16.957  -1.158   2.368 +0.07 -0.79    -0.776 OA
DOCKED: ATOM     37  H   UNL d   1     -16.085  -0.987   1.995 +0.05 +0.20    +0.167 HD
DOCKED: ENDBRANCH  34  36
DOCKED: ENDBRANCH  33  34
DOCKED: ENDBRANCH  32  33
DOCKED: ENDBRANCH   6  32
DOCKED: BRANCH  22  38
DOCKED: ATOM     38  C   UNL d   1     -14.781  -2.454   4.929 -0.23 +0.02    +0.052 C 
DOCKED: BRANCH  38  39
DOCKED: ATOM     39  C   UNL d   1     -13.756  -1.524   4.283 -0.25 +0.06    +0.115 C 
DOCKED: BRANCH  39  40
DOCKED: ATOM     40  C   UNL d   1     -14.122  -1.160   2.866 -0.23 +0.12    +0.139 C 
DOCKED: ATOM     41  O   UNL d   1     -14.117  -2.019   1.999 -0.11 -0.71    -0.650 OA
DOCKED: BRANCH  40  42
DOCKED: ATOM     42  O   UNL d   1     -14.506   0.091   2.546 +0.03 -1.04    -0.776 OA
DOCKED: ATOM     43  H   UNL d   1     -15.429   0.366   2.604 +0.04 +0.27    +0.167 HD
DOCKED: ENDBRANCH  40  42
DOCKED: ENDBRANCH  39  40
DOCKED: ENDBRANCH  38  39
DOCKED: ENDBRANCH  22  38
DOCKED: BRANCH  12  44
DOCKED: ATOM     44  C   UNL d   1     -22.554   1.609  12.129 -0.01 +0.00    +0.004 C 
DOCKED: ATOM     45  C   UNL d   1     -22.148   2.433  13.095 -0.02 +0.00    +0.012 C 
DOCKED: ENDBRANCH  12  44
DOCKED: BRANCH  17  46
DOCKED: ATOM     46  C   UNL d   1     -14.463   0.365  12.298 -0.39 -0.00    +0.004 C 
DOCKED: ATOM     47  C   UNL d   1     -14.046   0.129  13.548 -0.24 -0.00    +0.012 C 
DOCKED: ENDBRANCH  17  46
DOCKED: TORSDOF 10
DOCKED: TER
DOCKED: ENDMDL
________________________________________________________________________________


	BEGINNING GENETIC ALGORITHM DOCKING 35 of 100
Run: 35 Seed: 1435249560 1115531345 [ Run 35 of 100 GA/GALS ]
Beginning LAMARCKIAN GENETIC ALGORITHM (LGA), with a maximum of 25000000 energy evaluations.

Final-Value: -11.641


	FINAL GENETIC ALGORITHM DOCKED STATE
	_______________________________________________


Detailed state:  trans -11.091 -0.236 2.139 quatxyzw -0.109102 -0.699983 -0.201280 -0.676466 center 8.287 34.468 -0.670 ntor 10 -72.7256 -61.3535 -27.4800 177.4481 -112.7775 121.4087 -144.8378 -45.8764 170.2584 -170.4126
State:	-11.091  -0.236   2.139  -0.148 -0.950 -0.273 -94.864    -72.73  -61.35  -27.48  177.45 -112.78  121.41 -144.84  -45.88  170.26 -170.41

DOCKED: MODEL       35
DOCKED: USER    Run = 35
DOCKED: USER    DPF = D:/Protein_go_brrr/autodock/final/AncMH_nat/heme_O2/dock.dpf
DOCKED: USER  
DOCKED: USER    Estimated Free Energy of Binding    =   -8.06 kcal/mol  [=(1)+(2)+(3)-(4)]
DOCKED: USER    Estimated Inhibition Constant, Ki   =    1.23 uM (micromolar)  [Temperature = 298.15 K]
DOCKED: USER    
DOCKED: USER    (1) Final Intermolecular Energy     =  -11.04 kcal/mol
DOCKED: USER        vdW + Hbond + desolv Energy     =   -9.92 kcal/mol
DOCKED: USER        Electrostatic Energy            =   -1.12 kcal/mol
DOCKED: USER    (2) Final Total Internal Energy     =   -0.60 kcal/mol
DOCKED: USER    (3) Torsional Free Energy           =   +2.98 kcal/mol
DOCKED: USER    (4) Unbound System's Energy  [=(2)] =   -0.60 kcal/mol
DOCKED: USER    
DOCKED: USER    
DOCKED: USER    NEWDPF move heme_O2_opt.pdbqt
DOCKED: USER    NEWDPF about 8.287000 34.468000 -0.670000
DOCKED: USER    NEWDPF tran0 -11.091495 -0.235549 2.138690
DOCKED: USER    NEWDPF quaternion0 -0.109102 -0.699983 -0.201280 -0.676466
DOCKED: USER    NEWDPF axisangle0 -0.148141 -0.950453 -0.273302 -94.863748
DOCKED: USER    NEWDPF quat0 -0.148141 -0.950453 -0.273302 -94.863748
DOCKED: USER    NEWDPF dihe0 -72.73 -61.35 -27.48 177.45 -112.78 121.41 -144.84 -45.88 170.26 -170.41 
DOCKED: USER  keepresnum = 1 
DOCKED: USER  
DOCKED: REMARK  10 active torsions:
DOCKED: REMARK  status: ('A' for Active; 'I' for Inactive)
DOCKED: REMARK    1  A    between atoms: C_6  and  C_10 
DOCKED: REMARK    2  A    between atoms: C_10  and  C_11 
DOCKED: REMARK    3  A    between atoms: C_11  and  C_12 
DOCKED: REMARK    4  A    between atoms: C_12  and  O_14 
DOCKED: REMARK    5  A    between atoms: C_17  and  C_20 
DOCKED: REMARK    6  A    between atoms: C_24  and  C_27 
DOCKED: REMARK    7  A    between atoms: C_31  and  C_34 
DOCKED: REMARK    8  A    between atoms: C_34  and  C_35 
DOCKED: REMARK    9  A    between atoms: C_35  and  C_36 
DOCKED: REMARK   10  A    between atoms: C_36  and  O_38 
DOCKED: USER                              x       y       z     vdW  Elec       q    Type
DOCKED: USER                           _______ _______ _______ _____ _____    ______ ____
DOCKED: ROOT
DOCKED: ATOM      1  C   UNL d   1      -9.999   0.183   0.369 -0.35 +0.02    +0.064 A 
DOCKED: ATOM      2  C   UNL d   1     -14.578  -0.806   1.154 -0.19 +0.09    +0.064 A 
DOCKED: ATOM      3  C   UNL d   1     -13.765  -1.272   5.867 -0.16 +0.02    +0.064 C 
DOCKED: ATOM      4  C   UNL d   1      -9.147   0.214   5.135 +0.08 +0.02    +0.064 A 
DOCKED: ATOM      5  C   UNL d   1     -11.311  -0.046   0.198 -0.25 +0.04    +0.066 A 
DOCKED: ATOM      6  C   UNL d   1     -11.953  -0.031  -1.043 -0.12 -0.02    -0.021 A 
DOCKED: ATOM      7  C   UNL d   1     -13.287  -0.275  -0.813 -0.15 -0.03    -0.025 A 
DOCKED: ATOM      8  C   UNL d   1     -13.414  -0.480   0.559 -0.19 +0.08    +0.066 A 
DOCKED: ATOM      9  C   UNL d   1     -14.364  -0.273  -1.876 -0.17 +0.05    +0.051 C 
DOCKED: ATOM     10  C   UNL d   1     -14.769  -1.056   2.583 -0.20 +0.07    +0.066 A 
DOCKED: ATOM     11  C   UNL d   1     -15.960  -1.552   3.125 -0.13 -0.02    -0.021 A 
DOCKED: ATOM     12  C   UNL d   1     -15.740  -1.710   4.481 -0.13 +0.00    +0.000 A 
DOCKED: ATOM     13  C   UNL d   1     -14.401  -1.281   4.696 +0.06 +0.04    +0.070 A 
DOCKED: ATOM     14  C   UNL d   1     -17.245  -1.886   2.377 -0.08 +0.05    +0.052 C 
DOCKED: ATOM     15  C   UNL d   1     -12.423  -0.813   6.133 -0.34 +0.01    +0.066 A 
DOCKED: ATOM     16  C   UNL d   1     -11.871  -0.676   7.406 -0.36 -0.00    -0.021 A 
DOCKED: ATOM     17  C   UNL d   1     -10.555  -0.253   7.222 -0.37 +0.00    +0.000 A 
DOCKED: ATOM     18  C   UNL d   1     -10.399  -0.164   5.832 -0.37 +0.02    +0.070 A 
DOCKED: ATOM     19  C   UNL d   1     -12.658  -0.906   8.672 -0.43 +0.00    +0.052 C 
DOCKED: ATOM     20  C   UNL d   1      -8.976   0.351   3.806 -0.17 +0.02    +0.066 A 
DOCKED: ATOM     21  C   UNL d   1      -7.767   0.692   3.206 -0.28 -0.01    -0.025 A 
DOCKED: ATOM     22  C   UNL d   1      -7.984   0.662   1.847 -0.33 -0.00    -0.021 A 
DOCKED: ATOM     23  C   UNL d   1      -9.328   0.319   1.667 -0.36 +0.02    +0.066 A 
DOCKED: ATOM     24  C   UNL d   1      -6.471   1.034   3.895 -0.38 +0.01    +0.051 C 
DOCKED: ATOM     25  N   UNL d   1     -12.209  -0.274   1.188 -0.17 -0.21    -0.248 N 
DOCKED: ATOM     26  N   UNL d   1     -13.819  -0.880   3.537 -0.16 -0.17    -0.248 N 
DOCKED: ATOM     27  N   UNL d   1     -11.564  -0.435   5.190 -0.22 -0.07    -0.248 N 
DOCKED: ATOM     28  N   UNL d   1      -9.938   0.175   2.862 -0.15 -0.08    -0.248 N 
DOCKED: ATOM     29 FE   UNL d   1     -11.864  -0.348   3.200 -0.07 +0.00    +0.000 Fe
DOCKED: ATOM     30  O   UNL d   1     -12.729   0.866   2.755 -0.42 +0.00    +0.000 OA
DOCKED: ATOM     31  O   UNL d   1     -11.632   1.055   3.870 -0.46 +0.00    +0.000 OA
DOCKED: ENDROOT
DOCKED: BRANCH   6  32
DOCKED: ATOM     32  C   UNL d   1     -11.365   0.334  -2.382 -0.25 +0.02    +0.052 C 
DOCKED: BRANCH  32  33
DOCKED: ATOM     33  C   UNL d   1     -11.822   1.704  -2.875 -0.16 +0.04    +0.115 C 
DOCKED: BRANCH  33  34
DOCKED: ATOM     34  C   UNL d   1     -12.045   2.678  -1.745 -0.16 +0.09    +0.139 C 
DOCKED: ATOM     35  O   UNL d   1     -11.159   3.459  -1.438 +0.04 -0.26    -0.650 OA
DOCKED: BRANCH  34  36
DOCKED: ATOM     36  O   UNL d   1     -13.196   2.687  -1.042 +0.01 -1.34    -0.776 OA
DOCKED: ATOM     37  H   UNL d   1     -14.021   3.020  -1.416 +0.03 +0.33    +0.167 HD
DOCKED: ENDBRANCH  34  36
DOCKED: ENDBRANCH  33  34
DOCKED: ENDBRANCH  32  33
DOCKED: ENDBRANCH   6  32
DOCKED: BRANCH  22  38
DOCKED: ATOM     38  C   UNL d   1      -6.970   1.007   0.787 -0.31 +0.01    +0.052 C 
DOCKED: BRANCH  38  39
DOCKED: ATOM     39  C   UNL d   1      -6.615   2.492   0.783 -0.37 +0.01    +0.115 C 
DOCKED: BRANCH  39  40
DOCKED: ATOM     40  C   UNL d   1      -5.126   2.729   0.724 -0.44 -0.00    +0.139 C 
DOCKED: ATOM     41  O   UNL d   1      -4.496   2.890   1.757 +0.03 +0.01    -0.650 OA
DOCKED: BRANCH  40  42
DOCKED: ATOM     42  O   UNL d   1      -4.466   2.716  -0.450 -0.00 +0.05    -0.776 OA
DOCKED: ATOM     43  H   UNL d   1      -4.473   1.941  -1.024 -0.23 -0.03    +0.167 HD
DOCKED: ENDBRANCH  40  42
DOCKED: ENDBRANCH  39  40
DOCKED: ENDBRANCH  38  39
DOCKED: ENDBRANCH  22  38
DOCKED: BRANCH  12  44
DOCKED: ATOM     44  C   UNL d   1     -16.809  -2.240   5.413 -0.13 +0.00    +0.004 C 
DOCKED: ATOM     45  C   UNL d   1     -16.646  -2.969   6.516 -0.18 +0.00    +0.012 C 
DOCKED: ENDBRANCH  12  44
DOCKED: BRANCH  17  46
DOCKED: ATOM     46  C   UNL d   1      -9.488   0.118   8.218 -0.27 +0.00    +0.004 C 
DOCKED: ATOM     47  C   UNL d   1      -8.190   0.358   7.991 -0.51 +0.00    +0.012 C 
DOCKED: ENDBRANCH  17  46
DOCKED: TORSDOF 10
DOCKED: TER
DOCKED: ENDMDL
________________________________________________________________________________


	BEGINNING GENETIC ALGORITHM DOCKING 36 of 100
Run: 36 Seed: 1076002858 1111464843 [ Run 36 of 100 GA/GALS ]
Beginning LAMARCKIAN GENETIC ALGORITHM (LGA), with a maximum of 25000000 energy evaluations.

Final-Value: -13.551


	FINAL GENETIC ALGORITHM DOCKED STATE
	_______________________________________________


Detailed state:  trans -13.600 -0.761 1.265 quatxyzw 0.070355 0.577500 0.077808 0.809624 center 8.287 34.468 -0.670 ntor 10 -63.7668 -49.2423 -14.6580 22.1139 75.3949 -6.8384 -144.6929 153.3329 173.2838 -177.5641
State:	-13.600  -0.761   1.265   0.120  0.984  0.133 71.882    -63.77  -49.24  -14.66   22.11   75.39   -6.84 -144.69  153.33  173.28 -177.56

DOCKED: MODEL       36
DOCKED: USER    Run = 36
DOCKED: USER    DPF = D:/Protein_go_brrr/autodock/final/AncMH_nat/heme_O2/dock.dpf
DOCKED: USER  
DOCKED: USER    Estimated Free Energy of Binding    =   -9.20 kcal/mol  [=(1)+(2)+(3)-(4)]
DOCKED: USER    Estimated Inhibition Constant, Ki   =  181.57 nM (nanomolar)  [Temperature = 298.15 K]
DOCKED: USER    
DOCKED: USER    (1) Final Intermolecular Energy     =  -12.18 kcal/mol
DOCKED: USER        vdW + Hbond + desolv Energy     =   -8.58 kcal/mol
DOCKED: USER        Electrostatic Energy            =   -3.60 kcal/mol
DOCKED: USER    (2) Final Total Internal Energy     =   -1.37 kcal/mol
DOCKED: USER    (3) Torsional Free Energy           =   +2.98 kcal/mol
DOCKED: USER    (4) Unbound System's Energy  [=(2)] =   -1.37 kcal/mol
DOCKED: USER    
DOCKED: USER    
DOCKED: USER    NEWDPF move heme_O2_opt.pdbqt
DOCKED: USER    NEWDPF about 8.287000 34.468000 -0.670000
DOCKED: USER    NEWDPF tran0 -13.599551 -0.760761 1.265104
DOCKED: USER    NEWDPF quaternion0 0.070355 0.577500 0.077808 0.809624
DOCKED: USER    NEWDPF axisangle0 0.119865 0.983900 0.132563 71.881649
DOCKED: USER    NEWDPF quat0 0.119865 0.983900 0.132563 71.881649
DOCKED: USER    NEWDPF dihe0 -63.77 -49.24 -14.66 22.11 75.39 -6.84 -144.69 153.33 173.28 -177.56 
DOCKED: USER  keepresnum = 1 
DOCKED: USER  
DOCKED: REMARK  10 active torsions:
DOCKED: REMARK  status: ('A' for Active; 'I' for Inactive)
DOCKED: REMARK    1  A    between atoms: C_6  and  C_10 
DOCKED: REMARK    2  A    between atoms: C_10  and  C_11 
DOCKED: REMARK    3  A    between atoms: C_11  and  C_12 
DOCKED: REMARK    4  A    between atoms: C_12  and  O_14 
DOCKED: REMARK    5  A    between atoms: C_17  and  C_20 
DOCKED: REMARK    6  A    between atoms: C_24  and  C_27 
DOCKED: REMARK    7  A    between atoms: C_31  and  C_34 
DOCKED: REMARK    8  A    between atoms: C_34  and  C_35 
DOCKED: REMARK    9  A    between atoms: C_35  and  C_36 
DOCKED: REMARK   10  A    between atoms: C_36  and  O_38 
DOCKED: USER                              x       y       z     vdW  Elec       q    Type
DOCKED: USER                           _______ _______ _______ _____ _____    ______ ____
DOCKED: ROOT
DOCKED: ATOM      1  C   UNL d   1     -13.335  -0.251  -0.777 -0.14 +0.07    +0.064 A 
DOCKED: ATOM      2  C   UNL d   1     -16.950  -2.215   1.598 -0.08 +0.06    +0.064 A 
DOCKED: ATOM      3  C   UNL d   1     -14.453  -2.070   5.702 -0.26 +0.02    +0.064 C 
DOCKED: ATOM      4  C   UNL d   1     -10.909   0.388   3.363 -0.29 +0.03    +0.064 A 
DOCKED: ATOM      5  C   UNL d   1     -14.523  -0.796  -0.466 -0.08 +0.09    +0.066 A 
DOCKED: ATOM      6  C   UNL d   1     -15.540  -1.039  -1.393 -0.11 -0.02    -0.021 A 
DOCKED: ATOM      7  C   UNL d   1     -16.603  -1.567  -0.699 -0.12 -0.03    -0.025 A 
DOCKED: ATOM      8  C   UNL d   1     -16.188  -1.678   0.625 -0.11 +0.08    +0.066 A 
DOCKED: ATOM      9  C   UNL d   1     -17.947  -1.910  -1.304 -0.07 +0.04    +0.051 C 
DOCKED: ATOM     10  C   UNL d   1     -16.561  -2.379   2.999 -0.08 +0.05    +0.066 A 
DOCKED: ATOM     11  C   UNL d   1     -17.323  -3.091   3.932 -0.06 -0.01    -0.021 A 
DOCKED: ATOM     12  C   UNL d   1     -16.611  -3.076   5.117 -0.11 +0.00    +0.000 A 
DOCKED: ATOM     13  C   UNL d   1     -15.434  -2.328   4.837 -0.13 +0.04    +0.070 A 
DOCKED: ATOM     14  C   UNL d   1     -18.662  -3.781   3.694 -0.06 +0.03    +0.052 C 
DOCKED: ATOM     15  C   UNL d   1     -13.263  -1.288   5.468 -0.27 +0.02    +0.066 A 
DOCKED: ATOM     16  C   UNL d   1     -12.354  -0.916   6.459 -0.37 -0.00    -0.021 A 
DOCKED: ATOM     17  C   UNL d   1     -11.335  -0.214   5.815 -0.45 +0.00    +0.000 A 
DOCKED: ATOM     18  C   UNL d   1     -11.703  -0.211   4.462 -0.23 +0.02    +0.070 A 
DOCKED: ATOM     19  C   UNL d   1     -12.565  -1.214   7.922 -0.42 +0.00    +0.052 C 
DOCKED: ATOM     20  C   UNL d   1     -11.253   0.447   2.062 -0.27 +0.04    +0.066 A 
DOCKED: ATOM     21  C   UNL d   1     -10.456   1.009   1.069 -0.30 -0.01    -0.025 A 
DOCKED: ATOM     22  C   UNL d   1     -11.119   0.811  -0.121 -0.29 -0.01    -0.021 A 
DOCKED: ATOM     23  C   UNL d   1     -12.310   0.149   0.193 -0.23 +0.06    +0.066 A 
DOCKED: ATOM     24  C   UNL d   1      -9.130   1.703   1.247 -0.35 +0.01    +0.051 C 
DOCKED: ATOM     25  N   UNL d   1     -14.931  -1.142   0.780 -0.14 -0.33    -0.248 N 
DOCKED: ATOM     26  N   UNL d   1     -15.413  -1.904   3.548 -0.08 -0.19    -0.248 N 
DOCKED: ATOM     27  N   UNL d   1     -12.911  -0.802   4.281 -0.18 -0.11    -0.248 N 
DOCKED: ATOM     28  N   UNL d   1     -12.408  -0.030   1.526 -0.16 -0.23    -0.248 N 
DOCKED: ATOM     29 FE   UNL d   1     -13.898  -0.960   2.532 -0.05 +0.00    +0.000 Fe
DOCKED: ATOM     30  O   UNL d   1     -15.139  -0.024   2.434 -0.31 +0.00    +0.000 OA
DOCKED: ATOM     31  O   UNL d   1     -13.806   0.512   3.080 -0.31 +0.00    +0.000 OA
DOCKED: ENDROOT
DOCKED: BRANCH   6  32
DOCKED: ATOM     32  C   UNL d   1     -15.568  -0.663  -2.852 -0.11 +0.04    +0.052 C 
DOCKED: BRANCH  32  33
DOCKED: ATOM     33  C   UNL d   1     -16.437   0.560  -3.132 -0.03 +0.08    +0.115 C 
DOCKED: BRANCH  33  34
DOCKED: ATOM     34  C   UNL d   1     -16.418   1.551  -1.996 -0.00 +0.18    +0.139 C 
DOCKED: ATOM     35  O   UNL d   1     -17.052   1.316  -0.979 -0.09 -1.11    -0.650 OA
DOCKED: BRANCH  34  36
DOCKED: ATOM     36  O   UNL d   1     -15.738   2.712  -2.086 -0.23 -1.20    -0.776 OA
DOCKED: ATOM     37  H   UNL d   1     -14.778   2.736  -2.182 +0.02 +0.24    +0.167 HD
DOCKED: ENDBRANCH  34  36
DOCKED: ENDBRANCH  33  34
DOCKED: ENDBRANCH  32  33
DOCKED: ENDBRANCH   6  32
DOCKED: BRANCH  22  38
DOCKED: ATOM     38  C   UNL d   1     -10.659   1.292  -1.473 -0.32 +0.02    +0.052 C 
DOCKED: BRANCH  38  39
DOCKED: ATOM     39  C   UNL d   1     -10.874   2.792  -1.662 -0.21 +0.04    +0.115 C 
DOCKED: BRANCH  39  40
DOCKED: ATOM     40  C   UNL d   1     -12.026   3.317  -0.842 -0.19 +0.12    +0.139 C 
DOCKED: ATOM     41  O   UNL d   1     -11.916   4.380  -0.252 +0.07 -0.46    -0.650 OA
DOCKED: BRANCH  40  42
DOCKED: ATOM     42  O   UNL d   1     -13.199   2.657  -0.788 +0.03 -1.53    -0.776 OA
DOCKED: ATOM     43  H   UNL d   1     -13.626   2.320  -1.585 +0.03 +0.26    +0.167 HD
DOCKED: ENDBRANCH  40  42
DOCKED: ENDBRANCH  39  40
DOCKED: ENDBRANCH  38  39
DOCKED: ENDBRANCH  22  38
DOCKED: BRANCH  12  44
DOCKED: ATOM     44  C   UNL d   1     -17.120  -3.759   6.369 -0.17 +0.00    +0.004 C 
DOCKED: ATOM     45  C   UNL d   1     -16.421  -4.124   7.444 -0.34 +0.00    +0.012 C 
DOCKED: ENDBRANCH  12  44
DOCKED: BRANCH  17  46
DOCKED: ATOM     46  C   UNL d   1     -10.117   0.481   6.362 -0.43 +0.00    +0.004 C 
DOCKED: ATOM     47  C   UNL d   1      -9.566   0.356   7.576 -0.50 +0.00    +0.012 C 
DOCKED: ENDBRANCH  17  46
DOCKED: TORSDOF 10
DOCKED: TER
DOCKED: ENDMDL
________________________________________________________________________________


	BEGINNING GENETIC ALGORITHM DOCKING 37 of 100
Run: 37 Seed: 1199563576 587947853 [ Run 37 of 100 GA/GALS ]
Beginning LAMARCKIAN GENETIC ALGORITHM (LGA), with a maximum of 25000000 energy evaluations.

Final-Value: -11.070


	FINAL GENETIC ALGORITHM DOCKED STATE
	_______________________________________________


Detailed state:  trans -13.734 8.192 -2.949 quatxyzw -0.859146 -0.120763 0.461201 -0.185950 center 8.287 34.468 -0.670 ntor 10 93.5630 5.1229 -43.2312 -84.8217 -127.9439 -131.8949 -132.9387 9.9757 -171.3625 -176.4978
State:	-13.734   8.192  -2.949  -0.874 -0.123  0.469 -158.567     93.56    5.12  -43.23  -84.82 -127.94 -131.89 -132.94    9.98 -171.36 -176.50

DOCKED: MODEL       37
DOCKED: USER    Run = 37
DOCKED: USER    DPF = D:/Protein_go_brrr/autodock/final/AncMH_nat/heme_O2/dock.dpf
DOCKED: USER  
DOCKED: USER    Estimated Free Energy of Binding    =   -7.46 kcal/mol  [=(1)+(2)+(3)-(4)]
DOCKED: USER    Estimated Inhibition Constant, Ki   =    3.41 uM (micromolar)  [Temperature = 298.15 K]
DOCKED: USER    
DOCKED: USER    (1) Final Intermolecular Energy     =  -10.44 kcal/mol
DOCKED: USER        vdW + Hbond + desolv Energy     =   -7.55 kcal/mol
DOCKED: USER        Electrostatic Energy            =   -2.89 kcal/mol
DOCKED: USER    (2) Final Total Internal Energy     =   -0.63 kcal/mol
DOCKED: USER    (3) Torsional Free Energy           =   +2.98 kcal/mol
DOCKED: USER    (4) Unbound System's Energy  [=(2)] =   -0.63 kcal/mol
DOCKED: USER    
DOCKED: USER    
DOCKED: USER    NEWDPF move heme_O2_opt.pdbqt
DOCKED: USER    NEWDPF about 8.287000 34.468000 -0.670000
DOCKED: USER    NEWDPF tran0 -13.734019 8.192410 -2.949002
DOCKED: USER    NEWDPF quaternion0 -0.859146 -0.120763 0.461201 -0.185950
DOCKED: USER    NEWDPF axisangle0 -0.874396 -0.122907 0.469388 -158.566995
DOCKED: USER    NEWDPF quat0 -0.874396 -0.122907 0.469388 -158.566995
DOCKED: USER    NEWDPF dihe0 93.56 5.12 -43.23 -84.82 -127.94 -131.89 -132.94 9.98 -171.36 -176.50 
DOCKED: USER  keepresnum = 1 
DOCKED: USER  
DOCKED: REMARK  10 active torsions:
DOCKED: REMARK  status: ('A' for Active; 'I' for Inactive)
DOCKED: REMARK    1  A    between atoms: C_6  and  C_10 
DOCKED: REMARK    2  A    between atoms: C_10  and  C_11 
DOCKED: REMARK    3  A    between atoms: C_11  and  C_12 
DOCKED: REMARK    4  A    between atoms: C_12  and  O_14 
DOCKED: REMARK    5  A    between atoms: C_17  and  C_20 
DOCKED: REMARK    6  A    between atoms: C_24  and  C_27 
DOCKED: REMARK    7  A    between atoms: C_31  and  C_34 
DOCKED: REMARK    8  A    between atoms: C_34  and  C_35 
DOCKED: REMARK    9  A    between atoms: C_35  and  C_36 
DOCKED: REMARK   10  A    between atoms: C_36  and  O_38 
DOCKED: USER                              x       y       z     vdW  Elec       q    Type
DOCKED: USER                           _______ _______ _______ _____ _____    ______ ____
DOCKED: ROOT
DOCKED: ATOM      1  C   UNL d   1     -14.062   6.774  -1.406 -0.29 +0.02    +0.064 A 
DOCKED: ATOM      2  C   UNL d   1     -16.624  10.450  -2.983 -0.09 +0.00    +0.064 A 
DOCKED: ATOM      3  C   UNL d   1     -13.256  11.519  -6.240 -0.17 -0.01    +0.064 C 
DOCKED: ATOM      4  C   UNL d   1     -10.832   7.454  -4.947 -0.28 -0.02    +0.064 A 
DOCKED: ATOM      5  C   UNL d   1     -15.035   7.686  -1.570 -0.21 +0.02    +0.066 A 
DOCKED: ATOM      6  C   UNL d   1     -16.196   7.741  -0.794 -0.21 -0.01    -0.021 A 
DOCKED: ATOM      7  C   UNL d   1     -16.958   8.778  -1.278 -0.12 -0.00    -0.025 A 
DOCKED: ATOM      8  C   UNL d   1     -16.220   9.358  -2.305 -0.08 +0.00    +0.066 A 
DOCKED: ATOM      9  C   UNL d   1     -18.337   9.147  -0.775 -0.06 +0.01    +0.051 C 
DOCKED: ATOM     10  C   UNL d   1     -15.883  11.117  -4.055 -0.09 -0.00    +0.066 A 
DOCKED: ATOM     11  C   UNL d   1     -16.271  12.341  -4.612 -0.07 +0.00    -0.021 A 
DOCKED: ATOM     12  C   UNL d   1     -15.302  12.674  -5.541 -0.08 -0.00    +0.000 A 
DOCKED: ATOM     13  C   UNL d   1     -14.364  11.606  -5.505 -0.11 -0.00    +0.070 A 
DOCKED: ATOM     14  C   UNL d   1     -17.499  13.170  -4.254 -0.03 -0.00    +0.052 C 
DOCKED: ATOM     15  C   UNL d   1     -12.299  10.438  -6.259 -0.19 -0.01    +0.066 A 
DOCKED: ATOM     16  C   UNL d   1     -11.248  10.329  -7.168 -0.25 +0.00    -0.021 A 
DOCKED: ATOM     17  C   UNL d   1     -10.543   9.177  -6.819 -0.30 -0.00    +0.000 A 
DOCKED: ATOM     18  C   UNL d   1     -11.226   8.664  -5.708 -0.27 -0.01    +0.070 A 
DOCKED: ATOM     19  C   UNL d   1     -11.044  11.293  -8.310 -0.23 -0.01    +0.052 C 
DOCKED: ATOM     20  C   UNL d   1     -11.488   6.911  -3.904 -0.24 -0.01    +0.066 A 
DOCKED: ATOM     21  C   UNL d   1     -11.058   5.779  -3.216 -0.26 +0.00    -0.025 A 
DOCKED: ATOM     22  C   UNL d   1     -11.952   5.587  -2.186 -0.26 -0.00    -0.021 A 
DOCKED: ATOM     23  C   UNL d   1     -12.908   6.601  -2.296 -0.26 +0.01    +0.066 A 
DOCKED: ATOM     24  C   UNL d   1      -9.858   4.923  -3.527 -0.35 -0.01    +0.051 C 
DOCKED: ATOM     25  N   UNL d   1     -15.065   8.645  -2.528 -0.02 -0.03    -0.248 N 
DOCKED: ATOM     26  N   UNL d   1     -14.728  10.660  -4.602 -0.06 -0.00    -0.248 N 
DOCKED: ATOM     27  N   UNL d   1     -12.332   9.400  -5.428 -0.12 +0.03    -0.248 N 
DOCKED: ATOM     28  N   UNL d   1     -12.647   7.377  -3.368 -0.15 -0.01    -0.248 N 
DOCKED: ATOM     29 FE   UNL d   1     -13.678   9.007  -3.983 -0.05 +0.00    +0.000 Fe
DOCKED: ATOM     30  O   UNL d   1     -15.038   8.481  -4.528 -0.11 +0.00    +0.000 OA
DOCKED: ATOM     31  O   UNL d   1     -13.690   7.968  -5.163 -0.12 -0.00    +0.000 OA
DOCKED: ENDROOT
DOCKED: BRANCH   6  32
DOCKED: ATOM     32  C   UNL d   1     -16.639   6.773   0.273 -0.16 +0.03    +0.052 C 
DOCKED: BRANCH  32  33
DOCKED: ATOM     33  C   UNL d   1     -17.442   5.602  -0.286 -0.12 +0.10    +0.115 C 
DOCKED: BRANCH  33  34
DOCKED: ATOM     34  C   UNL d   1     -16.818   5.018  -1.529 -0.09 +0.13    +0.139 C 
DOCKED: ATOM     35  O   UNL d   1     -15.891   4.230  -1.425 -0.56 -1.18    -0.650 OA
DOCKED: BRANCH  34  36
DOCKED: ATOM     36  O   UNL d   1     -17.242   5.368  -2.761 +0.03 -0.36    -0.776 OA
DOCKED: ATOM     37  H   UNL d   1     -16.824   6.076  -3.264 +0.02 +0.05    +0.167 HD
DOCKED: ENDBRANCH  34  36
DOCKED: ENDBRANCH  33  34
DOCKED: ENDBRANCH  32  33
DOCKED: ENDBRANCH   6  32
DOCKED: BRANCH  22  38
DOCKED: ATOM     38  C   UNL d   1     -11.920   4.451  -1.196 -0.20 +0.03    +0.052 C 
DOCKED: BRANCH  38  39
DOCKED: ATOM     39  C   UNL d   1     -12.386   3.132  -1.807 -0.17 +0.08    +0.115 C 
DOCKED: BRANCH  39  40
DOCKED: ATOM     40  C   UNL d   1     -12.558   2.047  -0.774 -0.10 +0.18    +0.139 C 
DOCKED: ATOM     41  O   UNL d   1     -12.555   2.333   0.412 -0.51 -1.22    -0.650 OA
DOCKED: BRANCH  40  42
DOCKED: ATOM     42  O   UNL d   1     -12.766   0.767  -1.138 +0.02 -0.80    -0.776 OA
DOCKED: ATOM     43  H   UNL d   1     -12.701   0.487  -2.059 +0.06 +0.12    +0.167 HD
DOCKED: ENDBRANCH  40  42
DOCKED: ENDBRANCH  39  40
DOCKED: ENDBRANCH  38  39
DOCKED: ENDBRANCH  22  38
DOCKED: BRANCH  12  44
DOCKED: ATOM     44  C   UNL d   1     -15.373  13.951  -6.352 -0.04 -0.00    +0.004 C 
DOCKED: ATOM     45  C   UNL d   1     -14.404  14.842  -6.564 -0.06 +0.00    +0.012 C 
DOCKED: ENDBRANCH  12  44
DOCKED: BRANCH  17  46
DOCKED: ATOM     46  C   UNL d   1      -9.355   8.512  -7.463 -0.22 -0.00    +0.004 C 
DOCKED: ATOM     47  C   UNL d   1      -9.347   7.552  -8.396 -0.35 -0.01    +0.012 C 
DOCKED: ENDBRANCH  17  46
DOCKED: TORSDOF 10
DOCKED: TER
DOCKED: ENDMDL
________________________________________________________________________________


	BEGINNING GENETIC ALGORITHM DOCKING 38 of 100
Run: 38 Seed: 1387308011 106227211 [ Run 38 of 100 GA/GALS ]
Beginning LAMARCKIAN GENETIC ALGORITHM (LGA), with a maximum of 25000000 energy evaluations.

Final-Value: -13.230


	FINAL GENETIC ALGORITHM DOCKED STATE
	_______________________________________________


Detailed state:  trans -13.803 -0.375 1.277 quatxyzw -0.447559 0.304677 -0.831557 -0.123999 center 8.287 34.468 -0.670 ntor 10 41.2079 10.0645 -70.9220 -90.2351 -140.9308 -178.6904 165.1132 109.2503 -0.1058 32.6292
State:	-13.803  -0.375   1.277  -0.451  0.307 -0.838 -165.754     41.21   10.06  -70.92  -90.24 -140.93 -178.69  165.11  109.25   -0.11   32.63

DOCKED: MODEL       38
DOCKED: USER    Run = 38
DOCKED: USER    DPF = D:/Protein_go_brrr/autodock/final/AncMH_nat/heme_O2/dock.dpf
DOCKED: USER  
DOCKED: USER    Estimated Free Energy of Binding    =   -8.76 kcal/mol  [=(1)+(2)+(3)-(4)]
DOCKED: USER    Estimated Inhibition Constant, Ki   =  376.69 nM (nanomolar)  [Temperature = 298.15 K]
DOCKED: USER    
DOCKED: USER    (1) Final Intermolecular Energy     =  -11.75 kcal/mol
DOCKED: USER        vdW + Hbond + desolv Energy     =   -8.80 kcal/mol
DOCKED: USER        Electrostatic Energy            =   -2.94 kcal/mol
DOCKED: USER    (2) Final Total Internal Energy     =   -1.48 kcal/mol
DOCKED: USER    (3) Torsional Free Energy           =   +2.98 kcal/mol
DOCKED: USER    (4) Unbound System's Energy  [=(2)] =   -1.48 kcal/mol
DOCKED: USER    
DOCKED: USER    
DOCKED: USER    NEWDPF move heme_O2_opt.pdbqt
DOCKED: USER    NEWDPF about 8.287000 34.468000 -0.670000
DOCKED: USER    NEWDPF tran0 -13.802952 -0.374980 1.276593
DOCKED: USER    NEWDPF quaternion0 -0.447559 0.304677 -0.831557 -0.123999
DOCKED: USER    NEWDPF axisangle0 -0.451040 0.307047 -0.838024 -165.754054
DOCKED: USER    NEWDPF quat0 -0.451040 0.307047 -0.838024 -165.754054
DOCKED: USER    NEWDPF dihe0 41.21 10.06 -70.92 -90.24 -140.93 -178.69 165.11 109.25 -0.11 32.63 
DOCKED: USER  keepresnum = 1 
DOCKED: USER  
DOCKED: REMARK  10 active torsions:
DOCKED: REMARK  status: ('A' for Active; 'I' for Inactive)
DOCKED: REMARK    1  A    between atoms: C_6  and  C_10 
DOCKED: REMARK    2  A    between atoms: C_10  and  C_11 
DOCKED: REMARK    3  A    between atoms: C_11  and  C_12 
DOCKED: REMARK    4  A    between atoms: C_12  and  O_14 
DOCKED: REMARK    5  A    between atoms: C_17  and  C_20 
DOCKED: REMARK    6  A    between atoms: C_24  and  C_27 
DOCKED: REMARK    7  A    between atoms: C_31  and  C_34 
DOCKED: REMARK    8  A    between atoms: C_34  and  C_35 
DOCKED: REMARK    9  A    between atoms: C_35  and  C_36 
DOCKED: REMARK   10  A    between atoms: C_36  and  O_38 
DOCKED: USER                              x       y       z     vdW  Elec       q    Type
DOCKED: USER                           _______ _______ _______ _____ _____    ______ ____
DOCKED: ROOT
DOCKED: ATOM      1  C   UNL d   1     -13.436   0.366  -0.677 -0.15 +0.09    +0.064 A 
DOCKED: ATOM      2  C   UNL d   1     -10.883   0.473   3.327 -0.29 +0.03    +0.064 A 
DOCKED: ATOM      3  C   UNL d   1     -14.360  -1.830   5.715 -0.25 +0.02    +0.064 C 
DOCKED: ATOM      4  C   UNL d   1     -16.792  -2.370   1.488 -0.07 +0.07    +0.064 A 
DOCKED: ATOM      5  C   UNL d   1     -12.457   0.581   0.217 -0.20 +0.07    +0.066 A 
DOCKED: ATOM      6  C   UNL d   1     -11.266   1.252  -0.073 -0.27 -0.01    -0.021 A 
DOCKED: ATOM      7  C   UNL d   1     -10.507   1.246   1.074 -0.30 -0.01    -0.025 A 
DOCKED: ATOM      8  C   UNL d   1     -11.276   0.613   2.047 -0.28 +0.04    +0.066 A 
DOCKED: ATOM      9  C   UNL d   1      -9.104   1.802   1.187 -0.33 +0.01    +0.051 C 
DOCKED: ATOM     10  C   UNL d   1     -11.655  -0.161   4.397 -0.23 +0.02    +0.066 A 
DOCKED: ATOM     11  C   UNL d   1     -11.272  -0.135   5.742 -0.44 -0.00    -0.021 A 
DOCKED: ATOM     12  C   UNL d   1     -12.271  -0.778   6.449 -0.38 +0.00    +0.000 A 
DOCKED: ATOM     13  C   UNL d   1     -13.223  -1.180   5.471 -0.27 +0.02    +0.070 A 
DOCKED: ATOM     14  C   UNL d   1     -10.018   0.501   6.332 -0.36 +0.01    +0.052 C 
DOCKED: ATOM     15  C   UNL d   1     -15.333  -2.285   4.750 -0.14 +0.03    +0.066 A 
DOCKED: ATOM     16  C   UNL d   1     -16.421  -3.104   5.051 -0.11 -0.01    -0.021 A 
DOCKED: ATOM     17  C   UNL d   1     -17.129  -3.272   3.861 -0.08 +0.00    +0.000 A 
DOCKED: ATOM     18  C   UNL d   1     -16.410  -2.532   2.911 -0.08 +0.06    +0.070 A 
DOCKED: ATOM     19  C   UNL d   1     -16.655  -3.691   6.420 -0.19 +0.02    +0.052 C 
DOCKED: ATOM     20  C   UNL d   1     -16.104  -1.703   0.542 -0.10 +0.08    +0.066 A 
DOCKED: ATOM     21  C   UNL d   1     -16.523  -1.570  -0.779 -0.12 -0.03    -0.025 A 
DOCKED: ATOM     22  C   UNL d   1     -15.593  -0.770  -1.404 -0.14 -0.02    -0.021 A 
DOCKED: ATOM     23  C   UNL d   1     -14.626  -0.460  -0.443 -0.13 +0.09    +0.066 A 
DOCKED: ATOM     24  C   UNL d   1     -17.748  -2.177  -1.413 -0.09 +0.04    +0.051 C 
DOCKED: ATOM     25  N   UNL d   1     -12.450   0.146   1.501 -0.16 -0.24    -0.248 N 
DOCKED: ATOM     26  N   UNL d   1     -12.838  -0.804   4.225 -0.17 -0.11    -0.248 N 
DOCKED: ATOM     27  N   UNL d   1     -15.283  -2.002   3.452 -0.09 -0.19    -0.248 N 
DOCKED: ATOM     28  N   UNL d   1     -14.918  -1.066   0.727 -0.14 -0.34    -0.248 N 
DOCKED: ATOM     29 FE   UNL d   1     -13.887  -0.938   2.464 -0.05 +0.00    +0.000 Fe
DOCKED: ATOM     30  O   UNL d   1     -12.558  -1.716   2.240 -0.07 +0.00    +0.000 OA
DOCKED: ATOM     31  O   UNL d   1     -13.937  -2.456   2.056 -0.56 +0.00    +0.000 OA
DOCKED: ENDROOT
DOCKED: BRANCH   6  32
DOCKED: ATOM     32  C   UNL d   1     -10.795   1.761  -1.412 -0.29 +0.02    +0.052 C 
DOCKED: BRANCH  32  33
DOCKED: ATOM     33  C   UNL d   1     -11.364   3.133  -1.757 -0.19 +0.05    +0.115 C 
DOCKED: BRANCH  33  34
DOCKED: ATOM     34  C   UNL d   1     -12.561   3.489  -0.911 -0.17 +0.15    +0.139 C 
DOCKED: ATOM     35  O   UNL d   1     -12.416   3.699   0.282 -0.17 -0.86    -0.650 OA
DOCKED: BRANCH  34  36
DOCKED: ATOM     36  O   UNL d   1     -13.801   3.554  -1.439 -0.00 -1.24    -0.776 OA
DOCKED: ATOM     37  H   UNL d   1     -14.121   2.903  -2.075 +0.03 +0.22    +0.167 HD
DOCKED: ENDBRANCH  34  36
DOCKED: ENDBRANCH  33  34
DOCKED: ENDBRANCH  32  33
DOCKED: ENDBRANCH   6  32
DOCKED: BRANCH  22  38
DOCKED: ATOM     38  C   UNL d   1     -15.603  -0.384  -2.861 -0.10 +0.04    +0.052 C 
DOCKED: BRANCH  38  39
DOCKED: ATOM     39  C   UNL d   1     -15.325   1.102  -3.071 -0.05 +0.09    +0.115 C 
DOCKED: BRANCH  39  40
DOCKED: ATOM     40  C   UNL d   1     -16.482   1.971  -2.646 -0.04 +0.13    +0.139 C 
DOCKED: ATOM     41  O   UNL d   1     -17.625   1.570  -2.789 +0.02 -0.45    -0.650 OA
DOCKED: BRANCH  40  42
DOCKED: ATOM     42  O   UNL d   1     -16.275   3.167  -2.060 -0.36 -1.08    -0.776 OA
DOCKED: ATOM     43  H   UNL d   1     -15.406   3.584  -2.058 +0.01 +0.25    +0.167 HD
DOCKED: ENDBRANCH  40  42
DOCKED: ENDBRANCH  39  40
DOCKED: ENDBRANCH  38  39
DOCKED: ENDBRANCH  22  38
DOCKED: BRANCH  12  44
DOCKED: ATOM     44  C   UNL d   1     -12.213  -0.943   7.953 -0.50 +0.00    +0.004 C 
DOCKED: ATOM     45  C   UNL d   1     -12.903  -0.276   8.877 -0.59 +0.00    +0.012 C 
DOCKED: ENDBRANCH  12  44
DOCKED: BRANCH  17  46
DOCKED: ATOM     46  C   UNL d   1     -18.351  -4.093   3.545 -0.08 +0.00    +0.004 C 
DOCKED: ATOM     47  C   UNL d   1     -18.410  -5.317   3.005 -0.12 +0.01    +0.012 C 
DOCKED: ENDBRANCH  17  46
DOCKED: TORSDOF 10
DOCKED: TER
DOCKED: ENDMDL
________________________________________________________________________________


	BEGINNING GENETIC ALGORITHM DOCKING 39 of 100
Run: 39 Seed: 1567284457 1554254620 [ Run 39 of 100 GA/GALS ]
Beginning LAMARCKIAN GENETIC ALGORITHM (LGA), with a maximum of 25000000 energy evaluations.

Final-Value: -10.495


	FINAL GENETIC ALGORITHM DOCKED STATE
	_______________________________________________


Detailed state:  trans -19.190 10.101 6.871 quatxyzw -0.464241 -0.241070 0.526387 -0.670285 center 8.287 34.468 -0.670 ntor 10 28.4082 159.6224 -41.0201 -106.8368 -172.6593 114.8458 -8.2370 74.6872 -150.2728 175.8200
State:	-19.190  10.101   6.871  -0.626 -0.325  0.709 -95.822     28.41  159.62  -41.02 -106.84 -172.66  114.85   -8.24   74.69 -150.27  175.82

DOCKED: MODEL       39
DOCKED: USER    Run = 39
DOCKED: USER    DPF = D:/Protein_go_brrr/autodock/final/AncMH_nat/heme_O2/dock.dpf
DOCKED: USER  
DOCKED: USER    Estimated Free Energy of Binding    =   -5.36 kcal/mol  [=(1)+(2)+(3)-(4)]
DOCKED: USER    Estimated Inhibition Constant, Ki   =  117.19 uM (micromolar)  [Temperature = 298.15 K]
DOCKED: USER    
DOCKED: USER    (1) Final Intermolecular Energy     =   -8.35 kcal/mol
DOCKED: USER        vdW + Hbond + desolv Energy     =   -5.80 kcal/mol
DOCKED: USER        Electrostatic Energy            =   -2.54 kcal/mol
DOCKED: USER    (2) Final Total Internal Energy     =   -2.15 kcal/mol
DOCKED: USER    (3) Torsional Free Energy           =   +2.98 kcal/mol
DOCKED: USER    (4) Unbound System's Energy  [=(2)] =   -2.15 kcal/mol
DOCKED: USER    
DOCKED: USER    
DOCKED: USER    NEWDPF move heme_O2_opt.pdbqt
DOCKED: USER    NEWDPF about 8.287000 34.468000 -0.670000
DOCKED: USER    NEWDPF tran0 -19.190254 10.100539 6.870857
DOCKED: USER    NEWDPF quaternion0 -0.464241 -0.241070 0.526387 -0.670285
DOCKED: USER    NEWDPF axisangle0 -0.625574 -0.324847 0.709317 -95.821818
DOCKED: USER    NEWDPF quat0 -0.625574 -0.324847 0.709317 -95.821818
DOCKED: USER    NEWDPF dihe0 28.41 159.62 -41.02 -106.84 -172.66 114.85 -8.24 74.69 -150.27 175.82 
DOCKED: USER  keepresnum = 1 
DOCKED: USER  
DOCKED: REMARK  10 active torsions:
DOCKED: REMARK  status: ('A' for Active; 'I' for Inactive)
DOCKED: REMARK    1  A    between atoms: C_6  and  C_10 
DOCKED: REMARK    2  A    between atoms: C_10  and  C_11 
DOCKED: REMARK    3  A    between atoms: C_11  and  C_12 
DOCKED: REMARK    4  A    between atoms: C_12  and  O_14 
DOCKED: REMARK    5  A    between atoms: C_17  and  C_20 
DOCKED: REMARK    6  A    between atoms: C_24  and  C_27 
DOCKED: REMARK    7  A    between atoms: C_31  and  C_34 
DOCKED: REMARK    8  A    between atoms: C_34  and  C_35 
DOCKED: REMARK    9  A    between atoms: C_35  and  C_36 
DOCKED: REMARK   10  A    between atoms: C_36  and  O_38 
DOCKED: USER                              x       y       z     vdW  Elec       q    Type
DOCKED: USER                           _______ _______ _______ _____ _____    ______ ____
DOCKED: ROOT
DOCKED: ATOM      1  C   UNL d   1     -19.447   8.076   6.291 -0.18 +0.02    +0.064 A 
DOCKED: ATOM      2  C   UNL d   1     -20.756  10.494  10.164 -0.11 +0.01    +0.064 A 
DOCKED: ATOM      3  C   UNL d   1     -18.711  14.499   8.467 -0.12 -0.01    +0.064 C 
DOCKED: ATOM      4  C   UNL d   1     -17.776  12.144   4.266 -0.24 -0.01    +0.064 A 
DOCKED: ATOM      5  C   UNL d   1     -19.971   8.408   7.482 -0.23 +0.02    +0.066 A 
DOCKED: ATOM      6  C   UNL d   1     -20.639   7.510   8.320 -0.23 -0.01    -0.021 A 
DOCKED: ATOM      7  C   UNL d   1     -21.056   8.219   9.422 -0.17 -0.01    -0.025 A 
DOCKED: ATOM      8  C   UNL d   1     -20.590   9.520   9.249 -0.16 +0.01    +0.066 A 
DOCKED: ATOM      9  C   UNL d   1     -21.887   7.652  10.553 -0.10 +0.01    +0.051 C 
DOCKED: ATOM     10  C   UNL d   1     -20.269  11.870  10.049 -0.10 +0.01    +0.066 A 
DOCKED: ATOM     11  C   UNL d   1     -20.325  12.796  11.096 -0.05 -0.00    -0.021 A 
DOCKED: ATOM     12  C   UNL d   1     -19.724  13.952  10.632 -0.06 +0.00    +0.000 A 
DOCKED: ATOM     13  C   UNL d   1     -19.338  13.663   9.294 -0.10 -0.00    +0.070 A 
DOCKED: ATOM     14  C   UNL d   1     -20.903  12.579  12.490 -0.02 +0.01    +0.052 C 
DOCKED: ATOM     15  C   UNL d   1     -18.335  14.257   7.095 -0.08 -0.01    +0.066 A 
DOCKED: ATOM     16  C   UNL d   1     -17.830  15.228   6.231 -0.11 +0.00    -0.021 A 
DOCKED: ATOM     17  C   UNL d   1     -17.556  14.579   5.026 -0.18 -0.00    +0.000 A 
DOCKED: ATOM     18  C   UNL d   1     -17.919  13.244   5.250 -0.09 -0.01    +0.070 A 
DOCKED: ATOM     19  C   UNL d   1     -17.706  16.682   6.610 -0.05 -0.01    +0.052 C 
DOCKED: ATOM     20  C   UNL d   1     -18.154  10.862   4.433 -0.24 +0.00    +0.066 A 
DOCKED: ATOM     21  C   UNL d   1     -17.978   9.866   3.476 -0.25 -0.00    -0.025 A 
DOCKED: ATOM     22  C   UNL d   1     -18.423   8.695   4.046 -0.27 -0.01    -0.021 A 
DOCKED: ATOM     23  C   UNL d   1     -18.873   9.024   5.328 -0.27 +0.02    +0.066 A 
DOCKED: ATOM     24  C   UNL d   1     -17.416  10.025   2.086 -0.27 -0.00    +0.051 C 
DOCKED: ATOM     25  N   UNL d   1     -19.978   9.650   8.024 -0.14 -0.05    -0.248 N 
DOCKED: ATOM     26  N   UNL d   1     -19.678  12.396   8.946 -0.10 -0.02    -0.248 N 
DOCKED: ATOM     27  N   UNL d   1     -18.459  13.082   6.485 -0.05 +0.01    -0.248 N 
DOCKED: ATOM     28  N   UNL d   1     -18.749  10.350   5.542 -0.16 -0.04    -0.248 N 
DOCKED: ATOM     29 FE   UNL d   1     -19.209  11.368   7.230 -0.05 +0.00    +0.000 Fe
DOCKED: ATOM     30  O   UNL d   1     -20.762  11.363   7.331 -0.10 +0.00    +0.000 OA
DOCKED: ATOM     31  O   UNL d   1     -20.064  11.981   6.061 -0.11 +0.00    +0.000 OA
DOCKED: ENDROOT
DOCKED: BRANCH   6  32
DOCKED: ATOM     32  C   UNL d   1     -20.994   6.073   8.038 -0.21 +0.02    +0.052 C 
DOCKED: BRANCH  32  33
DOCKED: ATOM     33  C   UNL d   1     -22.021   5.926   6.919 -0.14 +0.06    +0.115 C 
DOCKED: BRANCH  33  34
DOCKED: ATOM     34  C   UNL d   1     -22.183   4.494   6.473 -0.06 +0.12    +0.139 C 
DOCKED: ATOM     35  O   UNL d   1     -22.118   3.594   7.295 -0.02 -0.49    -0.650 OA
DOCKED: BRANCH  34  36
DOCKED: ATOM     36  O   UNL d   1     -22.370   4.179   5.174 -0.04 -1.13    -0.776 OA
DOCKED: ATOM     37  H   UNL d   1     -22.024   4.727   4.460 +0.01 +0.29    +0.167 HD
DOCKED: ENDBRANCH  34  36
DOCKED: ENDBRANCH  33  34
DOCKED: ENDBRANCH  32  33
DOCKED: ENDBRANCH   6  32
DOCKED: BRANCH  22  38
DOCKED: ATOM     38  C   UNL d   1     -18.471   7.350   3.367 -0.29 +0.03    +0.052 C 
DOCKED: BRANCH  38  39
DOCKED: ATOM     39  C   UNL d   1     -19.712   7.184   2.492 -0.12 +0.06    +0.115 C 
DOCKED: BRANCH  39  40
DOCKED: ATOM     40  C   UNL d   1     -20.729   6.255   3.105 -0.12 +0.13    +0.139 C 
DOCKED: ATOM     41  O   UNL d   1     -20.807   5.100   2.718 -0.19 -1.15    -0.650 OA
DOCKED: BRANCH  40  42
DOCKED: ATOM     42  O   UNL d   1     -21.524   6.662   4.114 -0.02 -0.53    -0.776 OA
DOCKED: ATOM     43  H   UNL d   1     -22.330   6.185   4.346 +0.02 +0.12    +0.167 HD
DOCKED: ENDBRANCH  40  42
DOCKED: ENDBRANCH  39  40
DOCKED: ENDBRANCH  38  39
DOCKED: ENDBRANCH  22  38
DOCKED: BRANCH  12  44
DOCKED: ATOM     44  C   UNL d   1     -19.587  15.189  11.495 -0.02 -0.00    +0.004 C 
DOCKED: ATOM     45  C   UNL d   1     -18.514  15.962  11.652 -0.02 -0.00    +0.012 C 
DOCKED: ENDBRANCH  12  44
DOCKED: BRANCH  17  46
DOCKED: ATOM     46  C   UNL d   1     -17.054  15.110   3.710 -0.08 -0.00    +0.004 C 
DOCKED: ATOM     47  C   UNL d   1     -17.700  15.165   2.538 -0.12 -0.01    +0.012 C 
DOCKED: ENDBRANCH  17  46
DOCKED: TORSDOF 10
DOCKED: TER
DOCKED: ENDMDL
________________________________________________________________________________


	BEGINNING GENETIC ALGORITHM DOCKING 40 of 100
Run: 40 Seed: 1157558937 761283413 [ Run 40 of 100 GA/GALS ]
Beginning LAMARCKIAN GENETIC ALGORITHM (LGA), with a maximum of 25000000 energy evaluations.

Final-Value: -13.521


	FINAL GENETIC ALGORITHM DOCKED STATE
	_______________________________________________


Detailed state:  trans -13.275 -0.777 2.899 quatxyzw 0.309046 -0.502089 -0.329872 0.737280 center 8.287 34.468 -0.670 ntor 10 -149.1062 -35.2796 109.7554 115.0543 -175.3476 146.2781 24.9186 -176.9276 -8.4309 180.0000
State:	-13.275  -0.777   2.899   0.457 -0.743 -0.488 85.000   -149.11  -35.28  109.76  115.05 -175.35  146.28   24.92 -176.93   -8.43  180.00

DOCKED: MODEL       40
DOCKED: USER    Run = 40
DOCKED: USER    DPF = D:/Protein_go_brrr/autodock/final/AncMH_nat/heme_O2/dock.dpf
DOCKED: USER  
DOCKED: USER    Estimated Free Energy of Binding    =   -9.98 kcal/mol  [=(1)+(2)+(3)-(4)]
DOCKED: USER    Estimated Inhibition Constant, Ki   =   48.36 nM (nanomolar)  [Temperature = 298.15 K]
DOCKED: USER    
DOCKED: USER    (1) Final Intermolecular Energy     =  -12.96 kcal/mol
DOCKED: USER        vdW + Hbond + desolv Energy     =  -10.63 kcal/mol
DOCKED: USER        Electrostatic Energy            =   -2.33 kcal/mol
DOCKED: USER    (2) Final Total Internal Energy     =   -0.56 kcal/mol
DOCKED: USER    (3) Torsional Free Energy           =   +2.98 kcal/mol
DOCKED: USER    (4) Unbound System's Energy  [=(2)] =   -0.56 kcal/mol
DOCKED: USER    
DOCKED: USER    
DOCKED: USER    NEWDPF move heme_O2_opt.pdbqt
DOCKED: USER    NEWDPF about 8.287000 34.468000 -0.670000
DOCKED: USER    NEWDPF tran0 -13.274780 -0.776735 2.899428
DOCKED: USER    NEWDPF quaternion0 0.309046 -0.502089 -0.329872 0.737280
DOCKED: USER    NEWDPF axisangle0 0.457448 -0.743188 -0.488275 84.999561
DOCKED: USER    NEWDPF quat0 0.457448 -0.743188 -0.488275 84.999561
DOCKED: USER    NEWDPF dihe0 -149.11 -35.28 109.76 115.05 -175.35 146.28 24.92 -176.93 -8.43 180.00 
DOCKED: USER  keepresnum = 1 
DOCKED: USER  
DOCKED: REMARK  10 active torsions:
DOCKED: REMARK  status: ('A' for Active; 'I' for Inactive)
DOCKED: REMARK    1  A    between atoms: C_6  and  C_10 
DOCKED: REMARK    2  A    between atoms: C_10  and  C_11 
DOCKED: REMARK    3  A    between atoms: C_11  and  C_12 
DOCKED: REMARK    4  A    between atoms: C_12  and  O_14 
DOCKED: REMARK    5  A    between atoms: C_17  and  C_20 
DOCKED: REMARK    6  A    between atoms: C_24  and  C_27 
DOCKED: REMARK    7  A    between atoms: C_31  and  C_34 
DOCKED: REMARK    8  A    between atoms: C_34  and  C_35 
DOCKED: REMARK    9  A    between atoms: C_35  and  C_36 
DOCKED: REMARK   10  A    between atoms: C_36  and  O_38 
DOCKED: USER                              x       y       z     vdW  Elec       q    Type
DOCKED: USER                           _______ _______ _______ _____ _____    ______ ____
DOCKED: ROOT
DOCKED: ATOM      1  C   UNL d   1     -14.704  -1.380   4.346 -0.08 +0.04    +0.064 A 
DOCKED: ATOM      2  C   UNL d   1     -10.216   0.132   4.706 -0.19 +0.02    +0.064 A 
DOCKED: ATOM      3  C   UNL d   1      -9.872   0.538  -0.070 -0.40 +0.02    +0.064 C 
DOCKED: ATOM      4  C   UNL d   1     -14.641  -0.558  -0.424 -0.12 +0.09    +0.064 A 
DOCKED: ATOM      5  C   UNL d   1     -13.512  -1.000   4.834 -0.16 +0.03    +0.066 A 
DOCKED: ATOM      6  C   UNL d   1     -13.187  -0.997   6.194 -0.32 -0.00    -0.021 A 
DOCKED: ATOM      7  C   UNL d   1     -11.902  -0.518   6.302 -0.38 -0.00    -0.025 A 
DOCKED: ATOM      8  C   UNL d   1     -11.461  -0.288   5.002 -0.31 +0.02    +0.066 A 
DOCKED: ATOM      9  C   UNL d   1     -11.176  -0.277   7.608 -0.51 +0.01    +0.051 C 
DOCKED: ATOM     10  C   UNL d   1      -9.688   0.369   3.362 -0.26 +0.02    +0.066 A 
DOCKED: ATOM     11  C   UNL d   1      -8.341   0.646   3.102 -0.26 -0.01    -0.021 A 
DOCKED: ATOM     12  C   UNL d   1      -8.218   0.749   1.728 -0.38 +0.00    +0.000 A 
DOCKED: ATOM     13  C   UNL d   1      -9.529   0.536   1.218 -0.35 +0.02    +0.070 A 
DOCKED: ATOM     14  C   UNL d   1      -7.213   0.779   4.119 -0.28 +0.01    +0.052 C 
DOCKED: ATOM     15  C   UNL d   1     -11.192   0.362  -0.625 -0.26 +0.04    +0.066 A 
DOCKED: ATOM     16  C   UNL d   1     -11.514   0.538  -1.971 -0.24 -0.01    -0.021 A 
DOCKED: ATOM     17  C   UNL d   1     -12.869   0.232  -2.096 -0.18 +0.00    +0.000 A 
DOCKED: ATOM     18  C   UNL d   1     -13.277  -0.115  -0.800 -0.14 +0.08    +0.070 A 
DOCKED: ATOM     19  C   UNL d   1     -10.524   1.031  -2.996 -0.31 +0.00    +0.052 C 
DOCKED: ATOM     20  C   UNL d   1     -15.077  -0.857   0.815 -0.16 +0.09    +0.066 A 
DOCKED: ATOM     21  C   UNL d   1     -16.369  -1.287   1.105 -0.13 -0.03    -0.025 A 
DOCKED: ATOM     22  C   UNL d   1     -16.397  -1.551   2.456 -0.12 -0.02    -0.021 A 
DOCKED: ATOM     23  C   UNL d   1     -15.121  -1.255   2.945 -0.17 +0.06    +0.066 A 
DOCKED: ATOM     24  C   UNL d   1     -17.519  -1.434   0.142 -0.09 +0.05    +0.051 C 
DOCKED: ATOM     25  N   UNL d   1     -12.475  -0.523   4.103 -0.15 -0.11    -0.248 N 
DOCKED: ATOM     26  N   UNL d   1     -10.417   0.310   2.219 -0.18 -0.10    -0.248 N 
DOCKED: ATOM     27  N   UNL d   1     -12.266   0.042   0.092 -0.15 -0.23    -0.248 N 
DOCKED: ATOM     28  N   UNL d   1     -14.335  -0.790   1.952 -0.15 -0.29    -0.248 N 
DOCKED: ATOM     29 FE   UNL d   1     -12.391  -0.243   2.082 -0.06 +0.00    +0.000 Fe
DOCKED: ATOM     30  O   UNL d   1     -12.365   1.080   2.901 -0.44 +0.00    +0.000 OA
DOCKED: ATOM     31  O   UNL d   1     -13.198   1.004   1.566 -0.51 +0.00    +0.000 OA
DOCKED: ENDROOT
DOCKED: BRANCH   6  32
DOCKED: ATOM     32  C   UNL d   1     -14.092  -1.300   7.359 -0.27 +0.01    +0.052 C 
DOCKED: BRANCH  32  33
DOCKED: ATOM     33  C   UNL d   1     -14.373  -2.791   7.520 -0.34 +0.02    +0.115 C 
DOCKED: BRANCH  33  34
DOCKED: ATOM     34  C   UNL d   1     -15.647  -3.058   8.282 -0.27 +0.02    +0.139 C 
DOCKED: ATOM     35  O   UNL d   1     -16.591  -2.293   8.165 +0.05 -0.16    -0.650 OA
DOCKED: BRANCH  34  36
DOCKED: ATOM     36  O   UNL d   1     -15.760  -4.112   9.116 -0.31 -0.18    -0.776 OA
DOCKED: ATOM     37  H   UNL d   1     -16.601  -4.561   9.262 -0.31 +0.02    +0.167 HD
DOCKED: ENDBRANCH  34  36
DOCKED: ENDBRANCH  33  34
DOCKED: ENDBRANCH  32  33
DOCKED: ENDBRANCH   6  32
DOCKED: BRANCH  22  38
DOCKED: ATOM     38  C   UNL d   1     -17.604  -2.002   3.237 -0.06 +0.04    +0.052 C 
DOCKED: BRANCH  38  39
DOCKED: ATOM     39  C   UNL d   1     -18.562  -0.853   3.543 -0.10 +0.11    +0.115 C 
DOCKED: BRANCH  39  40
DOCKED: ATOM     40  C   UNL d   1     -18.100   0.456   2.952 -0.13 +0.22    +0.139 C 
DOCKED: ATOM     41  O   UNL d   1     -17.108   1.007   3.401 -0.04 -1.03    -0.650 OA
DOCKED: BRANCH  40  42
DOCKED: ATOM     42  O   UNL d   1     -18.733   1.006   1.898 -0.28 -1.43    -0.776 OA
DOCKED: ATOM     43  H   UNL d   1     -19.148   0.461   1.218 +0.02 +0.22    +0.167 HD
DOCKED: ENDBRANCH  40  42
DOCKED: ENDBRANCH  39  40
DOCKED: ENDBRANCH  38  39
DOCKED: ENDBRANCH  22  38
DOCKED: BRANCH  12  44
DOCKED: ATOM     44  C   UNL d   1      -6.891   1.037   1.059 -0.41 +0.00    +0.004 C 
DOCKED: ATOM     45  C   UNL d   1      -6.236   2.196   1.005 -0.49 +0.00    +0.012 C 
DOCKED: ENDBRANCH  12  44
DOCKED: BRANCH  17  46
DOCKED: ATOM     46  C   UNL d   1     -13.791   0.294  -3.284 -0.13 +0.00    +0.004 C 
DOCKED: ATOM     47  C   UNL d   1     -14.315  -0.723  -3.980 -0.13 +0.01    +0.012 C 
DOCKED: ENDBRANCH  17  46
DOCKED: TORSDOF 10
DOCKED: TER
DOCKED: ENDMDL
________________________________________________________________________________


	BEGINNING GENETIC ALGORITHM DOCKING 41 of 100
Run: 41 Seed: 772223340 2082589845 [ Run 41 of 100 GA/GALS ]
Beginning LAMARCKIAN GENETIC ALGORITHM (LGA), with a maximum of 25000000 energy evaluations.

Final-Value: -11.421


	FINAL GENETIC ALGORITHM DOCKED STATE
	_______________________________________________


Detailed state:  trans -15.052 3.930 -2.740 quatxyzw 0.219272 0.468349 0.612485 -0.597855 center 8.287 34.468 -0.670 ntor 10 132.2749 -142.0455 -19.3757 -101.2870 -157.9510 49.2260 -58.2248 84.6879 175.3689 -170.9928
State:	-15.052   3.930  -2.740   0.274  0.584  0.764 -106.567    132.27 -142.05  -19.38 -101.29 -157.95   49.23  -58.22   84.69  175.37 -170.99

DOCKED: MODEL       41
DOCKED: USER    Run = 41
DOCKED: USER    DPF = D:/Protein_go_brrr/autodock/final/AncMH_nat/heme_O2/dock.dpf
DOCKED: USER  
DOCKED: USER    Estimated Free Energy of Binding    =   -6.45 kcal/mol  [=(1)+(2)+(3)-(4)]
DOCKED: USER    Estimated Inhibition Constant, Ki   =   18.63 uM (micromolar)  [Temperature = 298.15 K]
DOCKED: USER    
DOCKED: USER    (1) Final Intermolecular Energy     =   -9.44 kcal/mol
DOCKED: USER        vdW + Hbond + desolv Energy     =   -5.50 kcal/mol
DOCKED: USER        Electrostatic Energy            =   -3.93 kcal/mol
DOCKED: USER    (2) Final Total Internal Energy     =   -1.99 kcal/mol
DOCKED: USER    (3) Torsional Free Energy           =   +2.98 kcal/mol
DOCKED: USER    (4) Unbound System's Energy  [=(2)] =   -1.99 kcal/mol
DOCKED: USER    
DOCKED: USER    
DOCKED: USER    NEWDPF move heme_O2_opt.pdbqt
DOCKED: USER    NEWDPF about 8.287000 34.468000 -0.670000
DOCKED: USER    NEWDPF tran0 -15.052318 3.930170 -2.740200
DOCKED: USER    NEWDPF quaternion0 0.219272 0.468349 0.612485 -0.597855
DOCKED: USER    NEWDPF axisangle0 0.273542 0.584265 0.764074 -106.567123
DOCKED: USER    NEWDPF quat0 0.273542 0.584265 0.764074 -106.567123
DOCKED: USER    NEWDPF dihe0 132.27 -142.05 -19.38 -101.29 -157.95 49.23 -58.22 84.69 175.37 -170.99 
DOCKED: USER  keepresnum = 1 
DOCKED: USER  
DOCKED: REMARK  10 active torsions:
DOCKED: REMARK  status: ('A' for Active; 'I' for Inactive)
DOCKED: REMARK    1  A    between atoms: C_6  and  C_10 
DOCKED: REMARK    2  A    between atoms: C_10  and  C_11 
DOCKED: REMARK    3  A    between atoms: C_11  and  C_12 
DOCKED: REMARK    4  A    between atoms: C_12  and  O_14 
DOCKED: REMARK    5  A    between atoms: C_17  and  C_20 
DOCKED: REMARK    6  A    between atoms: C_24  and  C_27 
DOCKED: REMARK    7  A    between atoms: C_31  and  C_34 
DOCKED: REMARK    8  A    between atoms: C_34  and  C_35 
DOCKED: REMARK    9  A    between atoms: C_35  and  C_36 
DOCKED: REMARK   10  A    between atoms: C_36  and  O_38 
DOCKED: USER                              x       y       z     vdW  Elec       q    Type
DOCKED: USER                           _______ _______ _______ _____ _____    ______ ____
DOCKED: ROOT
DOCKED: ATOM      1  C   UNL d   1     -15.679   2.020  -2.064 +0.08 +0.09    +0.064 A 
DOCKED: ATOM      2  C   UNL d   1     -11.392   3.858  -2.962 -0.15 +0.01    +0.064 A 
DOCKED: ATOM      3  C   UNL d   1     -13.361   8.033  -4.299 -0.17 +0.00    +0.064 C 
DOCKED: ATOM      4  C   UNL d   1     -17.745   6.313  -2.924 -0.02 +0.02    +0.064 A 
DOCKED: ATOM      5  C   UNL d   1     -14.352   2.180  -2.198 -0.01 +0.08    +0.066 A 
DOCKED: ATOM      6  C   UNL d   1     -13.413   1.180  -1.931 -0.13 -0.02    -0.021 A 
DOCKED: ATOM      7  C   UNL d   1     -12.169   1.724  -2.149 -0.17 -0.01    -0.025 A 
DOCKED: ATOM      8  C   UNL d   1     -12.385   3.027  -2.589 -0.12 +0.03    +0.066 A 
DOCKED: ATOM      9  C   UNL d   1     -10.857   1.010  -1.907 -0.32 +0.02    +0.051 C 
DOCKED: ATOM     10  C   UNL d   1     -11.559   5.226  -3.453 -0.16 -0.00    +0.066 A 
DOCKED: ATOM     11  C   UNL d   1     -10.510   5.987  -3.981 -0.29 +0.01    -0.021 A 
DOCKED: ATOM     12  C   UNL d   1     -11.060   7.188  -4.388 -0.30 -0.00    +0.000 A 
DOCKED: ATOM     13  C   UNL d   1     -12.443   7.094  -4.068 -0.17 -0.00    +0.070 A 
DOCKED: ATOM     14  C   UNL d   1      -9.048   5.575  -4.116 -0.44 -0.02    +0.052 C 
DOCKED: ATOM     15  C   UNL d   1     -14.762   7.991  -3.958 -0.10 +0.01    +0.066 A 
DOCKED: ATOM     16  C   UNL d   1     -15.638   9.070  -4.076 -0.09 -0.00    -0.021 A 
DOCKED: ATOM     17  C   UNL d   1     -16.894   8.604  -3.689 -0.05 +0.00    +0.000 A 
DOCKED: ATOM     18  C   UNL d   1     -16.688   7.256  -3.361 -0.03 +0.01    +0.070 A 
DOCKED: ATOM     19  C   UNL d   1     -15.191  10.450  -4.491 -0.09 +0.00    +0.052 C 
DOCKED: ATOM     20  C   UNL d   1     -17.575   5.027  -2.561 -0.03 +0.04    +0.066 A 
DOCKED: ATOM     21  C   UNL d   1     -18.612   4.182  -2.175 -0.03 -0.01    -0.025 A 
DOCKED: ATOM     22  C   UNL d   1     -18.046   2.947  -1.952 -0.05 -0.02    -0.021 A 
DOCKED: ATOM     23  C   UNL d   1     -16.676   3.089  -2.194 -0.02 +0.08    +0.066 A 
DOCKED: ATOM     24  C   UNL d   1     -20.068   4.536  -2.023 -0.01 +0.02    +0.051 C 
DOCKED: ATOM     25  N   UNL d   1     -13.727   3.328  -2.556 -0.06 -0.20    -0.248 N 
DOCKED: ATOM     26  N   UNL d   1     -12.737   5.899  -3.495 -0.06 -0.02    -0.248 N 
DOCKED: ATOM     27  N   UNL d   1     -15.376   6.922  -3.458 -0.03 -0.05    -0.248 N 
DOCKED: ATOM     28  N   UNL d   1     -16.388   4.366  -2.520 -0.05 -0.20    -0.248 N 
DOCKED: ATOM     29 FE   UNL d   1     -14.577   5.130  -3.004 -0.02 +0.00    +0.000 Fe
DOCKED: ATOM     30  O   UNL d   1     -13.742   5.138  -1.690 -0.25 +0.00    +0.000 OA
DOCKED: ATOM     31  O   UNL d   1     -15.105   5.926  -1.755 -0.22 +0.00    +0.000 OA
DOCKED: ENDROOT
DOCKED: BRANCH   6  32
DOCKED: ATOM     32  C   UNL d   1     -13.662  -0.193  -1.361 -0.17 +0.06    +0.052 C 
DOCKED: BRANCH  32  33
DOCKED: ATOM     33  C   UNL d   1     -13.338  -0.284   0.127 -0.21 +0.14    +0.115 C 
DOCKED: BRANCH  33  34
DOCKED: ATOM     34  C   UNL d   1     -14.541  -0.663   0.955 -0.17 +0.20    +0.139 C 
DOCKED: ATOM     35  O   UNL d   1     -15.205  -1.639   0.644 -0.01 -0.85    -0.650 OA
DOCKED: BRANCH  34  36
DOCKED: ATOM     36  O   UNL d   1     -14.921   0.071   2.021 +0.01 -1.29    -0.776 OA
DOCKED: ATOM     37  H   UNL d   1     -15.837   0.338   2.158 +0.03 +0.31    +0.167 HD
DOCKED: ENDBRANCH  34  36
DOCKED: ENDBRANCH  33  34
DOCKED: ENDBRANCH  32  33
DOCKED: ENDBRANCH   6  32
DOCKED: BRANCH  22  38
DOCKED: ATOM     38  C   UNL d   1     -18.776   1.720  -1.472 -0.04 +0.04    +0.052 C 
DOCKED: BRANCH  38  39
DOCKED: ATOM     39  C   UNL d   1     -19.242   1.849  -0.023 -0.08 +0.13    +0.115 C 
DOCKED: BRANCH  39  40
DOCKED: ATOM     40  C   UNL d   1     -18.283   1.212   0.950 -0.09 +0.23    +0.139 C 
DOCKED: ATOM     41  O   UNL d   1     -18.632   1.011   2.102 -0.30 -1.25    -0.650 OA
DOCKED: BRANCH  40  42
DOCKED: ATOM     42  O   UNL d   1     -17.058   0.811   0.558 -0.25 -1.78    -0.776 OA
DOCKED: ATOM     43  H   UNL d   1     -16.675  -0.019   0.869 +0.03 +0.30    +0.167 HD
DOCKED: ENDBRANCH  40  42
DOCKED: ENDBRANCH  39  40
DOCKED: ENDBRANCH  38  39
DOCKED: ENDBRANCH  22  38
DOCKED: BRANCH  12  44
DOCKED: ATOM     44  C   UNL d   1     -10.227   8.280  -5.025 -0.26 -0.00    +0.004 C 
DOCKED: ATOM     45  C   UNL d   1     -10.636   9.257  -5.833 -0.38 -0.00    +0.012 C 
DOCKED: ENDBRANCH  12  44
DOCKED: BRANCH  17  46
DOCKED: ATOM     46  C   UNL d   1     -18.213   9.316  -3.552 -0.03 +0.00    +0.004 C 
DOCKED: ATOM     47  C   UNL d   1     -18.864   9.645  -2.429 -0.02 +0.00    +0.012 C 
DOCKED: ENDBRANCH  17  46
DOCKED: TORSDOF 10
DOCKED: TER
DOCKED: ENDMDL
________________________________________________________________________________


	BEGINNING GENETIC ALGORITHM DOCKING 42 of 100
Run: 42 Seed: 152617961 2049691300 [ Run 42 of 100 GA/GALS ]
Beginning LAMARCKIAN GENETIC ALGORITHM (LGA), with a maximum of 25000000 energy evaluations.

Final-Value: -12.502


	FINAL GENETIC ALGORITHM DOCKED STATE
	_______________________________________________


Detailed state:  trans -13.485 -0.142 0.621 quatxyzw 0.748633 -0.161428 0.625617 -0.148636 center 8.287 34.468 -0.670 ntor 10 88.9719 63.3862 74.8848 -53.1875 -4.6158 144.8200 -85.4432 174.1767 -170.5560 -17.3729
State:	-13.485  -0.142   0.621   0.757 -0.163  0.633 -162.904     88.97   63.39   74.88  -53.19   -4.62  144.82  -85.44  174.18 -170.56  -17.37

DOCKED: MODEL       42
DOCKED: USER    Run = 42
DOCKED: USER    DPF = D:/Protein_go_brrr/autodock/final/AncMH_nat/heme_O2/dock.dpf
DOCKED: USER  
DOCKED: USER    Estimated Free Energy of Binding    =   -8.97 kcal/mol  [=(1)+(2)+(3)-(4)]
DOCKED: USER    Estimated Inhibition Constant, Ki   =  265.35 nM (nanomolar)  [Temperature = 298.15 K]
DOCKED: USER    
DOCKED: USER    (1) Final Intermolecular Energy     =  -11.95 kcal/mol
DOCKED: USER        vdW + Hbond + desolv Energy     =   -8.55 kcal/mol
DOCKED: USER        Electrostatic Energy            =   -3.40 kcal/mol
DOCKED: USER    (2) Final Total Internal Energy     =   -0.55 kcal/mol
DOCKED: USER    (3) Torsional Free Energy           =   +2.98 kcal/mol
DOCKED: USER    (4) Unbound System's Energy  [=(2)] =   -0.55 kcal/mol
DOCKED: USER    
DOCKED: USER    
DOCKED: USER    NEWDPF move heme_O2_opt.pdbqt
DOCKED: USER    NEWDPF about 8.287000 34.468000 -0.670000
DOCKED: USER    NEWDPF tran0 -13.484533 -0.142351 0.620647
DOCKED: USER    NEWDPF quaternion0 0.748633 -0.161428 0.625617 -0.148636
DOCKED: USER    NEWDPF axisangle0 0.757042 -0.163242 0.632644 -162.904198
DOCKED: USER    NEWDPF quat0 0.757042 -0.163242 0.632644 -162.904198
DOCKED: USER    NEWDPF dihe0 88.97 63.39 74.88 -53.19 -4.62 144.82 -85.44 174.18 -170.56 -17.37 
DOCKED: USER  keepresnum = 1 
DOCKED: USER  
DOCKED: REMARK  10 active torsions:
DOCKED: REMARK  status: ('A' for Active; 'I' for Inactive)
DOCKED: REMARK    1  A    between atoms: C_6  and  C_10 
DOCKED: REMARK    2  A    between atoms: C_10  and  C_11 
DOCKED: REMARK    3  A    between atoms: C_11  and  C_12 
DOCKED: REMARK    4  A    between atoms: C_12  and  O_14 
DOCKED: REMARK    5  A    between atoms: C_17  and  C_20 
DOCKED: REMARK    6  A    between atoms: C_24  and  C_27 
DOCKED: REMARK    7  A    between atoms: C_31  and  C_34 
DOCKED: REMARK    8  A    between atoms: C_34  and  C_35 
DOCKED: REMARK    9  A    between atoms: C_35  and  C_36 
DOCKED: REMARK   10  A    between atoms: C_36  and  O_38 
DOCKED: USER                              x       y       z     vdW  Elec       q    Type
DOCKED: USER                           _______ _______ _______ _____ _____    ______ ____
DOCKED: ROOT
DOCKED: ATOM      1  C   UNL d   1     -14.762  -0.243  -1.070 -0.14 +0.08    +0.064 A 
DOCKED: ATOM      2  C   UNL d   1     -10.107   0.583  -0.610 -0.29 +0.02    +0.064 A 
DOCKED: ATOM      3  C   UNL d   1     -10.421   0.219   4.171 -0.23 +0.02    +0.064 C 
DOCKED: ATOM      4  C   UNL d   1     -15.119  -1.104   3.681 -0.12 +0.05    +0.064 A 
DOCKED: ATOM      5  C   UNL d   1     -13.470   0.010  -1.335 -0.14 +0.07    +0.066 A 
DOCKED: ATOM      6  C   UNL d   1     -12.959   0.210  -2.621 -0.16 -0.01    -0.021 A 
DOCKED: ATOM      7  C   UNL d   1     -11.604   0.406  -2.493 -0.24 -0.01    -0.025 A 
DOCKED: ATOM      8  C   UNL d   1     -11.332   0.368  -1.128 -0.23 +0.04    +0.066 A 
DOCKED: ATOM      9  C   UNL d   1     -10.643   0.588  -3.647 -0.34 +0.00    +0.051 C 
DOCKED: ATOM     10  C   UNL d   1      -9.765   0.578   0.813 -0.35 +0.02    +0.066 A 
DOCKED: ATOM     11  C   UNL d   1      -8.514   0.968   1.304 -0.40 -0.00    -0.021 A 
DOCKED: ATOM     12  C   UNL d   1      -8.590   0.887   2.683 -0.29 +0.00    +0.000 A 
DOCKED: ATOM     13  C   UNL d   1      -9.909   0.431   2.959 -0.27 +0.02    +0.070 A 
DOCKED: ATOM     14  C   UNL d   1      -7.306   1.424   0.495 -0.40 +0.01    +0.052 C 
DOCKED: ATOM     15  C   UNL d   1     -11.738  -0.276   4.492 -0.24 +0.02    +0.066 A 
DOCKED: ATOM     16  C   UNL d   1     -12.158  -0.632   5.773 -0.36 -0.00    -0.021 A 
DOCKED: ATOM     17  C   UNL d   1     -13.495  -1.013   5.658 -0.13 +0.00    +0.000 A 
DOCKED: ATOM     18  C   UNL d   1     -13.794  -0.857   4.297 -0.09 +0.04    +0.070 A 
DOCKED: ATOM     19  C   UNL d   1     -11.241  -0.629   6.970 -0.03 +0.01    +0.052 C 
DOCKED: ATOM     20  C   UNL d   1     -15.429  -1.006   2.373 -0.17 +0.07    +0.066 A 
DOCKED: ATOM     21  C   UNL d   1     -16.700  -1.234   1.854 -0.11 -0.03    -0.025 A 
DOCKED: ATOM     22  C   UNL d   1     -16.624  -0.967   0.505 -0.12 -0.03    -0.021 A 
DOCKED: ATOM     23  C   UNL d   1     -15.299  -0.601   0.248 -0.09 +0.10    +0.066 A 
DOCKED: ATOM     24  C   UNL d   1     -17.925  -1.687   2.605 -0.06 +0.04    +0.051 C 
DOCKED: ATOM     25  N   UNL d   1     -12.470   0.059  -0.420 -0.14 -0.24    -0.248 N 
DOCKED: ATOM     26  N   UNL d   1     -10.615   0.241   1.816 -0.17 -0.11    -0.248 N 
DOCKED: ATOM     27  N   UNL d   1     -12.696  -0.481   3.593 -0.16 -0.14    -0.248 N 
DOCKED: ATOM     28  N   UNL d   1     -14.566  -0.670   1.378 -0.14 -0.34    -0.248 N 
DOCKED: ATOM     29 FE   UNL d   1     -12.605  -0.219   1.598 -0.06 +0.00    +0.000 Fe
DOCKED: ATOM     30  O   UNL d   1     -11.815  -1.340   0.861 -0.36 +0.00    +0.000 OA
DOCKED: ATOM     31  O   UNL d   1     -12.796  -1.717   2.035 -0.30 +0.00    +0.000 OA
DOCKED: ENDROOT
DOCKED: BRANCH   6  32
DOCKED: ATOM     32  C   UNL d   1     -13.689   0.087  -3.933 -0.11 +0.02    +0.052 C 
DOCKED: BRANCH  32  33
DOCKED: ATOM     33  C   UNL d   1     -13.692  -1.339  -4.477 -0.12 +0.06    +0.115 C 
DOCKED: BRANCH  33  34
DOCKED: ATOM     34  C   UNL d   1     -14.910  -2.117  -4.044 -0.11 +0.11    +0.139 C 
DOCKED: ATOM     35  O   UNL d   1     -14.862  -3.336  -4.000 -0.36 -0.78    -0.650 OA
DOCKED: BRANCH  34  36
DOCKED: ATOM     36  O   UNL d   1     -16.065  -1.497  -3.728 +0.01 -0.51    -0.776 OA
DOCKED: ATOM     37  H   UNL d   1     -16.741  -1.307  -4.389 +0.02 +0.08    +0.167 HD
DOCKED: ENDBRANCH  34  36
DOCKED: ENDBRANCH  33  34
DOCKED: ENDBRANCH  32  33
DOCKED: ENDBRANCH   6  32
DOCKED: BRANCH  22  38
DOCKED: ATOM     38  C   UNL d   1     -17.749  -1.118  -0.486 -0.07 +0.05    +0.052 C 
DOCKED: BRANCH  38  39
DOCKED: ATOM     39  C   UNL d   1     -18.653   0.111  -0.532 -0.03 +0.11    +0.115 C 
DOCKED: BRANCH  39  40
DOCKED: ATOM     40  C   UNL d   1     -18.312   1.118   0.538 -0.09 +0.21    +0.139 C 
DOCKED: ATOM     41  O   UNL d   1     -18.557   0.867   1.707 -0.22 -1.09    -0.650 OA
DOCKED: BRANCH  40  42
DOCKED: ATOM     42  O   UNL d   1     -17.693   2.275   0.232 +0.11 -1.60    -0.776 OA
DOCKED: ATOM     43  H   UNL d   1     -18.125   2.953  -0.302 +0.01 +0.25    +0.167 HD
DOCKED: ENDBRANCH  40  42
DOCKED: ENDBRANCH  39  40
DOCKED: ENDBRANCH  38  39
DOCKED: ENDBRANCH  22  38
DOCKED: BRANCH  12  44
DOCKED: ATOM     44  C   UNL d   1      -7.419   1.243   3.575 -0.15 +0.00    +0.004 C 
DOCKED: ATOM     45  C   UNL d   1      -6.665   0.420   4.303 -0.40 +0.00    +0.012 C 
DOCKED: ENDBRANCH  12  44
DOCKED: BRANCH  17  46
DOCKED: ATOM     46  C   UNL d   1     -14.461  -1.550   6.680 -0.31 +0.00    +0.004 C 
DOCKED: ATOM     47  C   UNL d   1     -14.357  -2.665   7.413 -0.40 +0.00    +0.012 C 
DOCKED: ENDBRANCH  17  46
DOCKED: TORSDOF 10
DOCKED: TER
DOCKED: ENDMDL
________________________________________________________________________________


	BEGINNING GENETIC ALGORITHM DOCKING 43 of 100
Run: 43 Seed: 139865203 741523723 [ Run 43 of 100 GA/GALS ]
Beginning LAMARCKIAN GENETIC ALGORITHM (LGA), with a maximum of 25000000 energy evaluations.

Final-Value: -12.827


	FINAL GENETIC ALGORITHM DOCKED STATE
	_______________________________________________


Detailed state:  trans -13.618 -1.026 1.974 quatxyzw -0.086621 -0.550741 -0.031457 -0.829573 center 8.287 34.468 -0.670 ntor 10 -23.1342 -10.9881 -59.1260 66.0913 65.9314 180.0000 -130.5680 64.6915 173.2434 122.6821
State:	-13.618  -1.026   1.974  -0.155 -0.986 -0.056 -67.890    -23.13  -10.99  -59.13   66.09   65.93  180.00 -130.57   64.69  173.24  122.68

DOCKED: MODEL       43
DOCKED: USER    Run = 43
DOCKED: USER    DPF = D:/Protein_go_brrr/autodock/final/AncMH_nat/heme_O2/dock.dpf
DOCKED: USER  
DOCKED: USER    Estimated Free Energy of Binding    =   -7.92 kcal/mol  [=(1)+(2)+(3)-(4)]
DOCKED: USER    Estimated Inhibition Constant, Ki   =    1.55 uM (micromolar)  [Temperature = 298.15 K]
DOCKED: USER    
DOCKED: USER    (1) Final Intermolecular Energy     =  -10.91 kcal/mol
DOCKED: USER        vdW + Hbond + desolv Energy     =   -8.23 kcal/mol
DOCKED: USER        Electrostatic Energy            =   -2.67 kcal/mol
DOCKED: USER    (2) Final Total Internal Energy     =   -1.92 kcal/mol
DOCKED: USER    (3) Torsional Free Energy           =   +2.98 kcal/mol
DOCKED: USER    (4) Unbound System's Energy  [=(2)] =   -1.92 kcal/mol
DOCKED: USER    
DOCKED: USER    
DOCKED: USER    NEWDPF move heme_O2_opt.pdbqt
DOCKED: USER    NEWDPF about 8.287000 34.468000 -0.670000
DOCKED: USER    NEWDPF tran0 -13.618176 -1.026461 1.973537
DOCKED: USER    NEWDPF quaternion0 -0.086621 -0.550741 -0.031457 -0.829573
DOCKED: USER    NEWDPF axisangle0 -0.155124 -0.986287 -0.056334 -67.890179
DOCKED: USER    NEWDPF quat0 -0.155124 -0.986287 -0.056334 -67.890179
DOCKED: USER    NEWDPF dihe0 -23.13 -10.99 -59.13 66.09 65.93 180.00 -130.57 64.69 173.24 122.68 
DOCKED: USER  keepresnum = 1 
DOCKED: USER  
DOCKED: REMARK  10 active torsions:
DOCKED: REMARK  status: ('A' for Active; 'I' for Inactive)
DOCKED: REMARK    1  A    between atoms: C_6  and  C_10 
DOCKED: REMARK    2  A    between atoms: C_10  and  C_11 
DOCKED: REMARK    3  A    between atoms: C_11  and  C_12 
DOCKED: REMARK    4  A    between atoms: C_12  and  O_14 
DOCKED: REMARK    5  A    between atoms: C_17  and  C_20 
DOCKED: REMARK    6  A    between atoms: C_24  and  C_27 
DOCKED: REMARK    7  A    between atoms: C_31  and  C_34 
DOCKED: REMARK    8  A    between atoms: C_34  and  C_35 
DOCKED: REMARK    9  A    between atoms: C_35  and  C_36 
DOCKED: REMARK   10  A    between atoms: C_36  and  O_38 
DOCKED: USER                              x       y       z     vdW  Elec       q    Type
DOCKED: USER                           _______ _______ _______ _____ _____    ______ ____
DOCKED: ROOT
DOCKED: ATOM      1  C   UNL d   1     -13.535  -0.658  -0.114 +0.09 +0.08    +0.064 A 
DOCKED: ATOM      2  C   UNL d   1     -16.844  -2.627   2.666 -0.07 +0.05    +0.064 A 
DOCKED: ATOM      3  C   UNL d   1     -14.066  -2.043   6.544 -0.34 +0.02    +0.064 C 
DOCKED: ATOM      4  C   UNL d   1     -10.853   0.417   3.771 -0.30 +0.02    +0.064 A 
DOCKED: ATOM      5  C   UNL d   1     -14.662  -1.240   0.326 -0.02 +0.09    +0.066 A 
DOCKED: ATOM      6  C   UNL d   1     -15.729  -1.605  -0.500 -0.06 -0.03    -0.021 A 
DOCKED: ATOM      7  C   UNL d   1     -16.706  -2.135   0.309 -0.08 -0.03    -0.025 A 
DOCKED: ATOM      8  C   UNL d   1     -16.189  -2.124   1.602 -0.10 +0.07    +0.066 A 
DOCKED: ATOM      9  C   UNL d   1     -18.068  -2.592  -0.164 -0.08 +0.04    +0.051 C 
DOCKED: ATOM     10  C   UNL d   1     -16.345  -2.664   4.042 -0.08 +0.04    +0.066 A 
DOCKED: ATOM     11  C   UNL d   1     -16.995  -3.344   5.078 -0.10 -0.01    -0.021 A 
DOCKED: ATOM     12  C   UNL d   1     -16.200  -3.202   6.200 -0.17 +0.00    +0.000 A 
DOCKED: ATOM     13  C   UNL d   1     -15.091  -2.417   5.779 -0.18 +0.03    +0.070 A 
DOCKED: ATOM     14  C   UNL d   1     -18.304  -4.119   4.994 -0.09 +0.02    +0.052 C 
DOCKED: ATOM     15  C   UNL d   1     -12.944  -1.219   6.165 -0.30 +0.01    +0.066 A 
DOCKED: ATOM     16  C   UNL d   1     -11.988  -0.727   7.053 -0.35 -0.00    -0.021 A 
DOCKED: ATOM     17  C   UNL d   1     -11.062  -0.021   6.285 -0.46 +0.00    +0.000 A 
DOCKED: ATOM     18  C   UNL d   1     -11.527  -0.139   4.968 -0.33 +0.02    +0.070 A 
DOCKED: ATOM     19  C   UNL d   1     -12.074  -0.925   8.546 -0.49 +0.00    +0.052 C 
DOCKED: ATOM     20  C   UNL d   1     -11.294   0.359   2.499 -0.28 +0.04    +0.066 A 
DOCKED: ATOM     21  C   UNL d   1     -10.606   0.887   1.410 -0.30 -0.01    -0.025 A 
DOCKED: ATOM     22  C   UNL d   1     -11.342   0.566   0.292 -0.29 -0.01    -0.021 A 
DOCKED: ATOM     23  C   UNL d   1     -12.465  -0.133   0.743 -0.24 +0.06    +0.066 A 
DOCKED: ATOM     24  C   UNL d   1      -9.313   1.661   1.436 -0.33 +0.01    +0.051 C 
DOCKED: ATOM     25  N   UNL d   1     -14.957  -1.513   1.621 -0.14 -0.29    -0.248 N 
DOCKED: ATOM     26  N   UNL d   1     -15.190  -2.090   4.465 -0.08 -0.14    -0.248 N 
DOCKED: ATOM     27  N   UNL d   1     -12.710  -0.805   4.923 -0.22 -0.09    -0.248 N 
DOCKED: ATOM     28  N   UNL d   1     -12.455  -0.217   2.090 -0.16 -0.20    -0.248 N 
DOCKED: ATOM     29 FE   UNL d   1     -13.811  -1.145   3.271 -0.05 +0.00    +0.000 Fe
DOCKED: ATOM     30  O   UNL d   1     -15.108  -0.287   3.203 -0.24 +0.00    +0.000 OA
DOCKED: ATOM     31  O   UNL d   1     -13.764   0.366   3.704 -0.04 +0.00    +0.000 OA
DOCKED: ENDROOT
DOCKED: BRANCH   6  32
DOCKED: ATOM     32  C   UNL d   1     -15.885  -1.341  -1.976 -0.13 +0.05    +0.052 C 
DOCKED: BRANCH  32  33
DOCKED: ATOM     33  C   UNL d   1     -16.843  -0.191  -2.274 -0.05 +0.10    +0.115 C 
DOCKED: BRANCH  33  34
DOCKED: ATOM     34  C   UNL d   1     -16.566   1.023  -1.422 +0.02 +0.21    +0.139 C 
DOCKED: ATOM     35  O   UNL d   1     -17.052   1.100  -0.305 -0.17 -1.37    -0.650 OA
DOCKED: BRANCH  34  36
DOCKED: ATOM     36  O   UNL d   1     -15.813   2.045  -1.879 +0.12 -1.33    -0.776 OA
DOCKED: ATOM     37  H   UNL d   1     -15.173   1.930  -2.590 +0.02 +0.18    +0.167 HD
DOCKED: ENDBRANCH  34  36
DOCKED: ENDBRANCH  33  34
DOCKED: ENDBRANCH  32  33
DOCKED: ENDBRANCH   6  32
DOCKED: BRANCH  22  38
DOCKED: ATOM     38  C   UNL d   1     -11.011   0.968  -1.122 -0.31 +0.02    +0.052 C 
DOCKED: BRANCH  38  39
DOCKED: ATOM     39  C   UNL d   1     -12.233   1.477  -1.884 -0.18 +0.08    +0.115 C 
DOCKED: BRANCH  39  40
DOCKED: ATOM     40  C   UNL d   1     -12.584   0.601  -3.061 -0.15 +0.07    +0.139 C 
DOCKED: ATOM     41  O   UNL d   1     -11.696   0.069  -3.706 -0.02 -0.18    -0.650 OA
DOCKED: BRANCH  40  42
DOCKED: ATOM     42  O   UNL d   1     -13.868   0.353  -3.384 +0.06 -0.44    -0.776 OA
DOCKED: ATOM     43  H   UNL d   1     -14.595   0.626  -2.812 +0.03 +0.13    +0.167 HD
DOCKED: ENDBRANCH  40  42
DOCKED: ENDBRANCH  39  40
DOCKED: ENDBRANCH  38  39
DOCKED: ENDBRANCH  22  38
DOCKED: BRANCH  12  44
DOCKED: ATOM     44  C   UNL d   1     -16.574  -3.816   7.533 -0.31 +0.00    +0.004 C 
DOCKED: ATOM     45  C   UNL d   1     -15.921  -4.757   8.214 -0.51 +0.00    +0.012 C 
DOCKED: ENDBRANCH  12  44
DOCKED: BRANCH  17  46
DOCKED: ATOM     46  C   UNL d   1      -9.849   0.776   6.685 -0.30 +0.00    +0.004 C 
DOCKED: ATOM     47  C   UNL d   1      -8.766   0.357   7.352 -0.49 +0.00    +0.012 C 
DOCKED: ENDBRANCH  17  46
DOCKED: TORSDOF 10
DOCKED: TER
DOCKED: ENDMDL
________________________________________________________________________________


	BEGINNING GENETIC ALGORITHM DOCKING 44 of 100
Run: 44 Seed: 888751334 456968433 [ Run 44 of 100 GA/GALS ]
Beginning LAMARCKIAN GENETIC ALGORITHM (LGA), with a maximum of 25000000 energy evaluations.

Final-Value: -13.753


	FINAL GENETIC ALGORITHM DOCKED STATE
	_______________________________________________


Detailed state:  trans -14.170 -1.295 2.526 quatxyzw 0.305410 -0.085973 -0.243740 0.916474 center 8.287 34.468 -0.670 ntor 10 -138.8421 -51.2815 -30.9113 -109.3806 28.9175 -43.6325 -106.3801 -172.9770 180.0000 165.9192
State:	-14.170  -1.295   2.526   0.763 -0.215 -0.609 47.168   -138.84  -51.28  -30.91 -109.38   28.92  -43.63 -106.38 -172.98  180.00  165.92

DOCKED: MODEL       44
DOCKED: USER    Run = 44
DOCKED: USER    DPF = D:/Protein_go_brrr/autodock/final/AncMH_nat/heme_O2/dock.dpf
DOCKED: USER  
DOCKED: USER    Estimated Free Energy of Binding    =   -8.40 kcal/mol  [=(1)+(2)+(3)-(4)]
DOCKED: USER    Estimated Inhibition Constant, Ki   =  698.04 nM (nanomolar)  [Temperature = 298.15 K]
DOCKED: USER    
DOCKED: USER    (1) Final Intermolecular Energy     =  -11.38 kcal/mol
DOCKED: USER        vdW + Hbond + desolv Energy     =   -8.07 kcal/mol
DOCKED: USER        Electrostatic Energy            =   -3.31 kcal/mol
DOCKED: USER    (2) Final Total Internal Energy     =   -2.37 kcal/mol
DOCKED: USER    (3) Torsional Free Energy           =   +2.98 kcal/mol
DOCKED: USER    (4) Unbound System's Energy  [=(2)] =   -2.37 kcal/mol
DOCKED: USER    
DOCKED: USER    
DOCKED: USER    NEWDPF move heme_O2_opt.pdbqt
DOCKED: USER    NEWDPF about 8.287000 34.468000 -0.670000
DOCKED: USER    NEWDPF tran0 -14.169515 -1.295121 2.526379
DOCKED: USER    NEWDPF quaternion0 0.305410 -0.085973 -0.243740 0.916474
DOCKED: USER    NEWDPF axisangle0 0.763345 -0.214881 -0.609205 47.168157
DOCKED: USER    NEWDPF quat0 0.763345 -0.214881 -0.609205 47.168157
DOCKED: USER    NEWDPF dihe0 -138.84 -51.28 -30.91 -109.38 28.92 -43.63 -106.38 -172.98 180.00 165.92 
DOCKED: USER  keepresnum = 1 
DOCKED: USER  
DOCKED: REMARK  10 active torsions:
DOCKED: REMARK  status: ('A' for Active; 'I' for Inactive)
DOCKED: REMARK    1  A    between atoms: C_6  and  C_10 
DOCKED: REMARK    2  A    between atoms: C_10  and  C_11 
DOCKED: REMARK    3  A    between atoms: C_11  and  C_12 
DOCKED: REMARK    4  A    between atoms: C_12  and  O_14 
DOCKED: REMARK    5  A    between atoms: C_17  and  C_20 
DOCKED: REMARK    6  A    between atoms: C_24  and  C_27 
DOCKED: REMARK    7  A    between atoms: C_31  and  C_34 
DOCKED: REMARK    8  A    between atoms: C_34  and  C_35 
DOCKED: REMARK    9  A    between atoms: C_35  and  C_36 
DOCKED: REMARK   10  A    between atoms: C_36  and  O_38 
DOCKED: USER                              x       y       z     vdW  Elec       q    Type
DOCKED: USER                           _______ _______ _______ _____ _____    ______ ____
DOCKED: ROOT
DOCKED: ATOM      1  C   UNL d   1     -16.097  -2.096   2.149 -0.11 +0.06    +0.064 A 
DOCKED: ATOM      2  C   UNL d   1     -13.685  -1.296   6.162 -0.17 +0.02    +0.064 A 
DOCKED: ATOM      3  C   UNL d   1      -9.922   0.365   3.677 -0.31 +0.02    +0.064 C 
DOCKED: ATOM      4  C   UNL d   1     -12.574  -0.007  -0.433 -0.18 +0.06    +0.064 A 
DOCKED: ATOM      5  C   UNL d   1     -15.749  -2.012   3.443 -0.12 +0.05    +0.066 A 
DOCKED: ATOM      6  C   UNL d   1     -16.565  -2.423   4.501 -0.09 -0.01    -0.021 A 
DOCKED: ATOM      7  C   UNL d   1     -15.885  -2.151   5.666 -0.14 -0.01    -0.025 A 
DOCKED: ATOM      8  C   UNL d   1     -14.653  -1.627   5.285 -0.15 +0.03    +0.066 A 
DOCKED: ATOM      9  C   UNL d   1     -16.434  -2.369   7.059 -0.19 +0.02    +0.051 C 
DOCKED: ATOM     10  C   UNL d   1     -12.365  -0.764   5.821 -0.33 +0.02    +0.066 A 
DOCKED: ATOM     11  C   UNL d   1     -11.340  -0.591   6.758 -0.15 -0.00    -0.021 A 
DOCKED: ATOM     12  C   UNL d   1     -10.241  -0.130   6.058 -0.41 +0.00    +0.000 A 
DOCKED: ATOM     13  C   UNL d   1     -10.671  -0.033   4.705 -0.20 +0.02    +0.070 A 
DOCKED: ATOM     14  C   UNL d   1     -11.399  -0.880   8.254 -0.26 +0.01    +0.052 C 
DOCKED: ATOM     15  C   UNL d   1     -10.329   0.509   2.301 -0.29 +0.03    +0.066 A 
DOCKED: ATOM     16  C   UNL d   1      -9.546   1.087   1.301 -0.35 -0.01    -0.021 A 
DOCKED: ATOM     17  C   UNL d   1     -10.283   0.993   0.120 -0.34 +0.00    +0.000 A 
DOCKED: ATOM     18  C   UNL d   1     -11.474   0.355   0.492 -0.26 +0.05    +0.070 A 
DOCKED: ATOM     19  C   UNL d   1      -8.204   1.720   1.570 -0.38 +0.01    +0.052 C 
DOCKED: ATOM     20  C   UNL d   1     -13.748  -0.579  -0.102 -0.02 +0.09    +0.066 A 
DOCKED: ATOM     21  C   UNL d   1     -14.739  -0.913  -1.021 -0.06 -0.03    -0.025 A 
DOCKED: ATOM     22  C   UNL d   1     -15.739  -1.534  -0.307 -0.13 -0.03    -0.021 A 
DOCKED: ATOM     23  C   UNL d   1     -15.327  -1.540   1.030 -0.16 +0.08    +0.066 A 
DOCKED: ATOM     24  C   UNL d   1     -14.734  -0.649  -2.504 -0.13 +0.04    +0.051 C 
DOCKED: ATOM     25  N   UNL d   1     -14.596  -1.481   3.918 -0.12 -0.16    -0.248 N 
DOCKED: ATOM     26  N   UNL d   1     -11.966  -0.417   4.571 -0.16 -0.09    -0.248 N 
DOCKED: ATOM     27  N   UNL d   1     -11.517   0.137   1.832 -0.16 -0.16    -0.248 N 
DOCKED: ATOM     28  N   UNL d   1     -14.137  -0.919   1.156 -0.16 -0.31    -0.248 N 
DOCKED: ATOM     29 FE   UNL d   1     -13.057  -0.668   2.849 -0.06 +0.00    +0.000 Fe
DOCKED: ATOM     30  O   UNL d   1     -13.837   0.366   3.713 +0.01 +0.00    +0.000 OA
DOCKED: ATOM     31  O   UNL d   1     -13.358   0.761   2.266 -0.43 +0.00    +0.000 OA
DOCKED: ENDROOT
DOCKED: BRANCH   6  32
DOCKED: ATOM     32  C   UNL d   1     -17.984  -2.923   4.432 -0.06 +0.03    +0.052 C 
DOCKED: BRANCH  32  33
DOCKED: ATOM     33  C   UNL d   1     -19.012  -1.827   4.695 -0.05 +0.08    +0.115 C 
DOCKED: BRANCH  33  34
DOCKED: ATOM     34  C   UNL d   1     -19.107  -0.841   3.557 -0.08 +0.14    +0.139 C 
DOCKED: ATOM     35  O   UNL d   1     -18.903   0.344   3.767 +0.04 -1.13    -0.650 OA
DOCKED: BRANCH  34  36
DOCKED: ATOM     36  O   UNL d   1     -19.440  -1.235   2.311 +0.06 -0.68    -0.776 OA
DOCKED: ATOM     37  H   UNL d   1     -18.996  -0.887   1.529 +0.03 +0.16    +0.167 HD
DOCKED: ENDBRANCH  34  36
DOCKED: ENDBRANCH  33  34
DOCKED: ENDBRANCH  32  33
DOCKED: ENDBRANCH   6  32
DOCKED: BRANCH  22  38
DOCKED: ATOM     38  C   UNL d   1     -17.043  -2.033  -0.873 -0.11 +0.05    +0.052 C 
DOCKED: BRANCH  38  39
DOCKED: ATOM     39  C   UNL d   1     -18.153  -0.987  -0.787 -0.03 +0.10    +0.115 C 
DOCKED: BRANCH  39  40
DOCKED: ATOM     40  C   UNL d   1     -17.652   0.345  -0.288 -0.05 +0.18    +0.139 C 
DOCKED: ATOM     41  O   UNL d   1     -17.437   1.248  -1.080 -0.06 -0.91    -0.650 OA
DOCKED: BRANCH  40  42
DOCKED: ATOM     42  O   UNL d   1     -17.485   0.576   1.029 -0.28 -1.37    -0.776 OA
DOCKED: ATOM     43  H   UNL d   1     -18.173   0.361   1.670 +0.03 +0.24    +0.167 HD
DOCKED: ENDBRANCH  40  42
DOCKED: ENDBRANCH  39  40
DOCKED: ENDBRANCH  38  39
DOCKED: ENDBRANCH  22  38
DOCKED: BRANCH  12  44
DOCKED: ATOM     44  C   UNL d   1      -8.922   0.169   6.739 -0.43 +0.00    +0.004 C 
DOCKED: ATOM     45  C   UNL d   1      -7.692  -0.010   6.257 -0.45 +0.00    +0.012 C 
DOCKED: ENDBRANCH  12  44
DOCKED: BRANCH  17  46
DOCKED: ATOM     46  C   UNL d   1      -9.989   1.491  -1.270 -0.34 +0.00    +0.004 C 
DOCKED: ATOM     47  C   UNL d   1     -10.657   2.409  -1.979 -0.28 +0.00    +0.012 C 
DOCKED: ENDBRANCH  17  46
DOCKED: TORSDOF 10
DOCKED: TER
DOCKED: ENDMDL
________________________________________________________________________________


	BEGINNING GENETIC ALGORITHM DOCKING 45 of 100
Run: 45 Seed: 1802345886 388076978 [ Run 45 of 100 GA/GALS ]
Beginning LAMARCKIAN GENETIC ALGORITHM (LGA), with a maximum of 25000000 energy evaluations.

Final-Value: -18.204


	FINAL GENETIC ALGORITHM DOCKED STATE
	_______________________________________________


Detailed state:  trans -9.834 0.735 3.954 quatxyzw -0.893399 0.009423 -0.409135 0.185360 center 8.287 34.468 -0.670 ntor 10 -63.1072 154.7121 0.2236 -70.6361 -167.9427 -4.8990 -14.7405 68.6592 -80.9365 168.7095
State:	 -9.834   0.735   3.954  -0.909  0.010 -0.416 158.636    -63.11  154.71    0.22  -70.64 -167.94   -4.90  -14.74   68.66  -80.94  168.71

DOCKED: MODEL       45
DOCKED: USER    Run = 45
DOCKED: USER    DPF = D:/Protein_go_brrr/autodock/final/AncMH_nat/heme_O2/dock.dpf
DOCKED: USER  
DOCKED: USER    Estimated Free Energy of Binding    =  -14.14 kcal/mol  [=(1)+(2)+(3)-(4)]
DOCKED: USER    Estimated Inhibition Constant, Ki   =   42.99 pM (picomolar)  [Temperature = 298.15 K]
DOCKED: USER    
DOCKED: USER    (1) Final Intermolecular Energy     =  -17.13 kcal/mol
DOCKED: USER        vdW + Hbond + desolv Energy     =  -14.20 kcal/mol
DOCKED: USER        Electrostatic Energy            =   -2.93 kcal/mol
DOCKED: USER    (2) Final Total Internal Energy     =   -1.08 kcal/mol
DOCKED: USER    (3) Torsional Free Energy           =   +2.98 kcal/mol
DOCKED: USER    (4) Unbound System's Energy  [=(2)] =   -1.08 kcal/mol
DOCKED: USER    
DOCKED: USER    
DOCKED: USER    NEWDPF move heme_O2_opt.pdbqt
DOCKED: USER    NEWDPF about 8.287000 34.468000 -0.670000
DOCKED: USER    NEWDPF tran0 -9.834453 0.734697 3.953937
DOCKED: USER    NEWDPF quaternion0 -0.893399 0.009423 -0.409135 0.185360
DOCKED: USER    NEWDPF axisangle0 -0.909154 0.009589 -0.416350 158.635784
DOCKED: USER    NEWDPF quat0 -0.909154 0.009589 -0.416350 158.635784
DOCKED: USER    NEWDPF dihe0 -63.11 154.71 0.22 -70.64 -167.94 -4.90 -14.74 68.66 -80.94 168.71 
DOCKED: USER  keepresnum = 1 
DOCKED: USER  
DOCKED: REMARK  10 active torsions:
DOCKED: REMARK  status: ('A' for Active; 'I' for Inactive)
DOCKED: REMARK    1  A    between atoms: C_6  and  C_10 
DOCKED: REMARK    2  A    between atoms: C_10  and  C_11 
DOCKED: REMARK    3  A    between atoms: C_11  and  C_12 
DOCKED: REMARK    4  A    between atoms: C_12  and  O_14 
DOCKED: REMARK    5  A    between atoms: C_17  and  C_20 
DOCKED: REMARK    6  A    between atoms: C_24  and  C_27 
DOCKED: REMARK    7  A    between atoms: C_31  and  C_34 
DOCKED: REMARK    8  A    between atoms: C_34  and  C_35 
DOCKED: REMARK    9  A    between atoms: C_35  and  C_36 
DOCKED: REMARK   10  A    between atoms: C_36  and  O_38 
DOCKED: USER                              x       y       z     vdW  Elec       q    Type
DOCKED: USER                           _______ _______ _______ _____ _____    ______ ____
DOCKED: ROOT
DOCKED: ATOM      1  C   UNL d   1     -11.762   0.193   3.252 -0.24 +0.03    +0.064 A 
DOCKED: ATOM      2  C   UNL d   1      -7.824   1.634   1.022 -0.38 +0.01    +0.064 A 
DOCKED: ATOM      3  C   UNL d   1      -5.500   2.065   5.207 -0.30 +0.00    +0.064 C 
DOCKED: ATOM      4  C   UNL d   1      -9.394   0.127   7.475 -0.25 +0.01    +0.064 A 
DOCKED: ATOM      5  C   UNL d   1     -10.879   0.548   2.304 -0.28 +0.03    +0.066 A 
DOCKED: ATOM      6  C   UNL d   1     -11.171   0.584   0.937 -0.29 -0.01    -0.021 A 
DOCKED: ATOM      7  C   UNL d   1     -10.019   0.959   0.287 -0.35 -0.01    -0.025 A 
DOCKED: ATOM      8  C   UNL d   1      -9.069   1.189   1.278 -0.34 +0.02    +0.066 A 
DOCKED: ATOM      9  C   UNL d   1      -9.864   1.052  -1.215 -0.26 +0.01    +0.051 C 
DOCKED: ATOM     10  C   UNL d   1      -6.791   1.916   2.021 -0.36 +0.01    +0.066 A 
DOCKED: ATOM     11  C   UNL d   1      -5.572   2.531   1.715 -0.40 -0.00    -0.021 A 
DOCKED: ATOM     12  C   UNL d   1      -4.895   2.680   2.911 -0.38 -0.00    +0.000 A 
DOCKED: ATOM     13  C   UNL d   1      -5.754   2.124   3.900 -0.33 +0.00    +0.070 A 
DOCKED: ATOM     14  C   UNL d   1      -5.085   2.982   0.343 -0.51 -0.00    +0.052 C 
DOCKED: ATOM     15  C   UNL d   1      -6.327   1.480   6.234 -0.36 +0.00    +0.066 A 
DOCKED: ATOM     16  C   UNL d   1      -5.933   1.302   7.560 -0.44 -0.00    -0.021 A 
DOCKED: ATOM     17  C   UNL d   1      -7.027   0.750   8.226 -0.46 +0.00    +0.000 A 
DOCKED: ATOM     18  C   UNL d   1      -8.021   0.632   7.244 -0.38 +0.01    +0.070 A 
DOCKED: ATOM     19  C   UNL d   1      -4.545   1.620   8.055 -0.47 -0.00    +0.052 C 
DOCKED: ATOM     20  C   UNL d   1     -10.357  -0.040   6.548 -0.36 +0.01    +0.066 A 
DOCKED: ATOM     21  C   UNL d   1     -11.639  -0.504   6.828 -0.31 -0.00    -0.025 A 
DOCKED: ATOM     22  C   UNL d   1     -12.336  -0.466   5.642 -0.35 -0.01    -0.021 A 
DOCKED: ATOM     23  C   UNL d   1     -11.444   0.005   4.673 -0.29 +0.02    +0.066 A 
DOCKED: ATOM     24  C   UNL d   1     -12.171  -0.964   8.161 -0.47 +0.00    +0.051 C 
DOCKED: ATOM     25  N   UNL d   1      -9.580   0.873   2.515 -0.19 -0.08    -0.248 N 
DOCKED: ATOM     26  N   UNL d   1      -6.903   1.657   3.348 -0.19 -0.03    -0.248 N 
DOCKED: ATOM     27  N   UNL d   1      -7.554   1.010   6.026 -0.15 -0.04    -0.248 N 
DOCKED: ATOM     28  N   UNL d   1     -10.230   0.220   5.219 -0.25 -0.07    -0.248 N 
DOCKED: ATOM     29 FE   UNL d   1      -8.577   0.933   4.293 -0.08 +0.00    +0.000 Fe
DOCKED: ATOM     30  O   UNL d   1      -8.094  -0.195   3.337 -0.51 +0.00    +0.000 OA
DOCKED: ATOM     31  O   UNL d   1      -8.216  -0.480   4.881 -0.84 +0.00    +0.000 OA
DOCKED: ENDROOT
DOCKED: BRANCH   6  32
DOCKED: ATOM     32  C   UNL d   1     -12.442   0.150   0.253 -0.27 +0.05    +0.052 C 
DOCKED: BRANCH  32  33
DOCKED: ATOM     33  C   UNL d   1     -13.516  -0.309   1.235 -0.24 +0.14    +0.115 C 
DOCKED: BRANCH  33  34
DOCKED: ATOM     34  C   UNL d   1     -14.888  -0.349   0.608 -0.07 +0.23    +0.139 C 
DOCKED: ATOM     35  O   UNL d   1     -15.020  -0.776  -0.528 -0.07 -0.88    -0.650 OA
DOCKED: BRANCH  34  36
DOCKED: ATOM     36  O   UNL d   1     -15.975   0.104   1.265 -0.13 -1.65    -0.776 OA
DOCKED: ATOM     37  H   UNL d   1     -16.281  -0.299   2.086 +0.04 +0.23    +0.167 HD
DOCKED: ENDBRANCH  34  36
DOCKED: ENDBRANCH  33  34
DOCKED: ENDBRANCH  32  33
DOCKED: ENDBRANCH   6  32
DOCKED: BRANCH  22  38
DOCKED: ATOM     38  C   UNL d   1     -13.760  -0.919   5.444 +0.02 +0.02    +0.052 C 
DOCKED: BRANCH  38  39
DOCKED: ATOM     39  C   UNL d   1     -13.854  -2.398   5.077 -0.28 +0.05    +0.115 C 
DOCKED: BRANCH  39  40
DOCKED: ATOM     40  C   UNL d   1     -14.344  -2.612   3.667 -0.21 +0.09    +0.139 C 
DOCKED: ATOM     41  O   UNL d   1     -13.840  -3.483   2.975 -0.32 -0.66    -0.650 OA
DOCKED: BRANCH  40  42
DOCKED: ATOM     42  O   UNL d   1     -15.368  -1.892   3.169 +0.09 -0.64    -0.776 OA
DOCKED: ATOM     43  H   UNL d   1     -15.489  -1.776   2.219 +0.05 +0.17    +0.167 HD
DOCKED: ENDBRANCH  40  42
DOCKED: ENDBRANCH  39  40
DOCKED: ENDBRANCH  38  39
DOCKED: ENDBRANCH  22  38
DOCKED: BRANCH  12  44
DOCKED: ATOM     44  C   UNL d   1      -3.526   3.322   2.985 -0.47 -0.00    +0.004 C 
DOCKED: ATOM     45  C   UNL d   1      -2.806   3.592   4.074 -0.56 -0.00    +0.012 C 
DOCKED: ENDBRANCH  12  44
DOCKED: BRANCH  17  46
DOCKED: ATOM     46  C   UNL d   1      -7.187   0.286   9.650 -0.33 +0.00    +0.004 C 
DOCKED: ATOM     47  C   UNL d   1      -6.745  -0.850  10.205 -0.70 +0.00    +0.012 C 
DOCKED: ENDBRANCH  17  46
DOCKED: TORSDOF 10
DOCKED: TER
DOCKED: ENDMDL
________________________________________________________________________________


	BEGINNING GENETIC ALGORITHM DOCKING 46 of 100
Run: 46 Seed: 124726731 2078795189 [ Run 46 of 100 GA/GALS ]
Beginning LAMARCKIAN GENETIC ALGORITHM (LGA), with a maximum of 25000000 energy evaluations.

Final-Value: -10.509


	FINAL GENETIC ALGORITHM DOCKED STATE
	_______________________________________________


Detailed state:  trans -18.164 -3.854 16.165 quatxyzw -0.932208 -0.264455 -0.172660 0.176751 center 8.287 34.468 -0.670 ntor 10 100.0486 -38.0538 137.3003 -116.6833 60.9475 -9.1755 110.2649 141.9040 -117.2112 -163.4641
State:	-18.164  -3.854  16.165  -0.947 -0.269 -0.175 159.639    100.05  -38.05  137.30 -116.68   60.95   -9.18  110.26  141.90 -117.21 -163.46

DOCKED: MODEL       46
DOCKED: USER    Run = 46
DOCKED: USER    DPF = D:/Protein_go_brrr/autodock/final/AncMH_nat/heme_O2/dock.dpf
DOCKED: USER  
DOCKED: USER    Estimated Free Energy of Binding    =   -6.09 kcal/mol  [=(1)+(2)+(3)-(4)]
DOCKED: USER    Estimated Inhibition Constant, Ki   =   34.20 uM (micromolar)  [Temperature = 298.15 K]
DOCKED: USER    
DOCKED: USER    (1) Final Intermolecular Energy     =   -9.08 kcal/mol
DOCKED: USER        vdW + Hbond + desolv Energy     =   -6.44 kcal/mol
DOCKED: USER        Electrostatic Energy            =   -2.64 kcal/mol
DOCKED: USER    (2) Final Total Internal Energy     =   -1.43 kcal/mol
DOCKED: USER    (3) Torsional Free Energy           =   +2.98 kcal/mol
DOCKED: USER    (4) Unbound System's Energy  [=(2)] =   -1.43 kcal/mol
DOCKED: USER    
DOCKED: USER    
DOCKED: USER    NEWDPF move heme_O2_opt.pdbqt
DOCKED: USER    NEWDPF about 8.287000 34.468000 -0.670000
DOCKED: USER    NEWDPF tran0 -18.164109 -3.854261 16.165421
DOCKED: USER    NEWDPF quaternion0 -0.932208 -0.264455 -0.172660 0.176751
DOCKED: USER    NEWDPF axisangle0 -0.947120 -0.268685 -0.175422 159.638893
DOCKED: USER    NEWDPF quat0 -0.947120 -0.268685 -0.175422 159.638893
DOCKED: USER    NEWDPF dihe0 100.05 -38.05 137.30 -116.68 60.95 -9.18 110.26 141.90 -117.21 -163.46 
DOCKED: USER  keepresnum = 1 
DOCKED: USER  
DOCKED: REMARK  10 active torsions:
DOCKED: REMARK  status: ('A' for Active; 'I' for Inactive)
DOCKED: REMARK    1  A    between atoms: C_6  and  C_10 
DOCKED: REMARK    2  A    between atoms: C_10  and  C_11 
DOCKED: REMARK    3  A    between atoms: C_11  and  C_12 
DOCKED: REMARK    4  A    between atoms: C_12  and  O_14 
DOCKED: REMARK    5  A    between atoms: C_17  and  C_20 
DOCKED: REMARK    6  A    between atoms: C_24  and  C_27 
DOCKED: REMARK    7  A    between atoms: C_31  and  C_34 
DOCKED: REMARK    8  A    between atoms: C_34  and  C_35 
DOCKED: REMARK    9  A    between atoms: C_35  and  C_36 
DOCKED: REMARK   10  A    between atoms: C_36  and  O_38 
DOCKED: USER                              x       y       z     vdW  Elec       q    Type
DOCKED: USER                           _______ _______ _______ _____ _____    ______ ____
DOCKED: ROOT
DOCKED: ATOM      1  C   UNL d   1     -19.733  -5.180  16.694 -0.05 +0.05    +0.064 A 
DOCKED: ATOM      2  C   UNL d   1     -18.431  -3.237  12.560 -0.10 +0.02    +0.064 A 
DOCKED: ATOM      3  C   UNL d   1     -14.840  -0.866  14.700 -0.31 +0.00    +0.064 C 
DOCKED: ATOM      4  C   UNL d   1     -15.874  -3.230  18.873 -0.05 +0.02    +0.064 A 
DOCKED: ATOM      5  C   UNL d   1     -19.671  -4.846  15.395 -0.07 +0.04    +0.066 A 
DOCKED: ATOM      6  C   UNL d   1     -20.565  -5.308  14.424 -0.06 -0.01    -0.021 A 
DOCKED: ATOM      7  C   UNL d   1     -20.162  -4.781  13.219 -0.07 -0.01    -0.025 A 
DOCKED: ATOM      8  C   UNL d   1     -19.063  -3.972  13.495 -0.08 +0.03    +0.066 A 
DOCKED: ATOM      9  C   UNL d   1     -20.806  -5.083  11.884 -0.06 +0.02    +0.051 C 
DOCKED: ATOM     10  C   UNL d   1     -17.288  -2.353  12.793 -0.14 +0.02    +0.066 A 
DOCKED: ATOM     11  C   UNL d   1     -16.773  -1.488  11.821 -0.18 -0.00    -0.021 A 
DOCKED: ATOM     12  C   UNL d   1     -15.749  -0.783  12.424 -0.29 +0.00    +0.000 A 
DOCKED: ATOM     13  C   UNL d   1     -15.687  -1.277  13.757 -0.23 +0.01    +0.070 A 
DOCKED: ATOM     14  C   UNL d   1     -17.257  -1.322  10.385 -0.17 +0.01    +0.052 C 
DOCKED: ATOM     15  C   UNL d   1     -14.722  -1.365  16.049 -0.21 +0.01    +0.066 A 
DOCKED: ATOM     16  C   UNL d   1     -13.708  -1.009  16.938 -0.28 -0.00    -0.021 A 
DOCKED: ATOM     17  C   UNL d   1     -13.982  -1.672  18.134 -0.19 +0.00    +0.000 A 
DOCKED: ATOM     18  C   UNL d   1     -15.159  -2.391  17.883 -0.11 +0.02    +0.070 A 
DOCKED: ATOM     19  C   UNL d   1     -12.551  -0.122  16.553 -0.35 -0.00    +0.052 C 
DOCKED: ATOM     20  C   UNL d   1     -16.981  -3.967  18.653 -0.05 +0.04    +0.066 A 
DOCKED: ATOM     21  C   UNL d   1     -17.621  -4.725  19.630 -0.03 -0.01    -0.025 A 
DOCKED: ATOM     22  C   UNL d   1     -18.738  -5.266  19.034 -0.04 -0.01    -0.021 A 
DOCKED: ATOM     23  C   UNL d   1     -18.728  -4.831  17.705 -0.04 +0.06    +0.066 A 
DOCKED: ATOM     24  C   UNL d   1     -17.186  -4.925  21.058 -0.01 +0.01    +0.051 C 
DOCKED: ATOM     25  N   UNL d   1     -18.721  -4.065  14.824 -0.06 -0.15    -0.248 N 
DOCKED: ATOM     26  N   UNL d   1     -16.623  -2.236  13.971 -0.09 -0.05    -0.248 N 
DOCKED: ATOM     27  N   UNL d   1     -15.552  -2.252  16.591 -0.09 -0.06    -0.248 N 
DOCKED: ATOM     28  N   UNL d   1     -17.634  -4.078  17.466 -0.05 -0.21    -0.248 N 
DOCKED: ATOM     29 FE   UNL d   1     -17.130  -3.163  15.732 -0.03 +0.00    +0.000 Fe
DOCKED: ATOM     30  O   UNL d   1     -16.729  -4.295  14.743 -0.35 +0.00    +0.000 OA
DOCKED: ATOM     31  O   UNL d   1     -15.957  -4.142  16.107 -0.71 +0.00    +0.000 OA
DOCKED: ENDROOT
DOCKED: BRANCH   6  32
DOCKED: ATOM     32  C   UNL d   1     -21.672  -6.316  14.594 -0.03 +0.02    +0.052 C 
DOCKED: BRANCH  32  33
DOCKED: ATOM     33  C   UNL d   1     -21.338  -7.396  15.618 -0.03 +0.04    +0.115 C 
DOCKED: BRANCH  33  34
DOCKED: ATOM     34  C   UNL d   1     -20.296  -8.364  15.114 -0.09 +0.08    +0.139 C 
DOCKED: ATOM     35  O   UNL d   1     -20.645  -9.368  14.513 +0.03 -0.18    -0.650 OA
DOCKED: BRANCH  34  36
DOCKED: ATOM     36  O   UNL d   1     -18.981  -8.162  15.338 -0.53 -1.15    -0.776 OA
DOCKED: ATOM     37  H   UNL d   1     -18.505  -8.623  16.038 +0.02 +0.32    +0.167 HD
DOCKED: ENDBRANCH  34  36
DOCKED: ENDBRANCH  33  34
DOCKED: ENDBRANCH  32  33
DOCKED: ENDBRANCH   6  32
DOCKED: BRANCH  22  38
DOCKED: ATOM     38  C   UNL d   1     -19.720  -6.199  19.693 -0.01 +0.02    +0.052 C 
DOCKED: BRANCH  38  39
DOCKED: ATOM     39  C   UNL d   1     -19.068  -7.505  20.144 -0.02 +0.05    +0.115 C 
DOCKED: BRANCH  39  40
DOCKED: ATOM     40  C   UNL d   1     -18.054  -8.016  19.151 -0.04 +0.14    +0.139 C 
DOCKED: ATOM     41  O   UNL d   1     -16.975  -8.428  19.545 -0.31 -0.58    -0.650 OA
DOCKED: BRANCH  40  42
DOCKED: ATOM     42  O   UNL d   1     -18.337  -8.075  17.835 +0.18 -1.38    -0.776 OA
DOCKED: ATOM     43  H   UNL d   1     -19.222  -8.290  17.518 +0.01 +0.18    +0.167 HD
DOCKED: ENDBRANCH  40  42
DOCKED: ENDBRANCH  39  40
DOCKED: ENDBRANCH  38  39
DOCKED: ENDBRANCH  22  38
DOCKED: BRANCH  12  44
DOCKED: ATOM     44  C   UNL d   1     -14.949   0.266  11.681 -0.41 -0.00    +0.004 C 
DOCKED: ATOM     45  C   UNL d   1     -14.403   0.174  10.469 -0.43 +0.00    +0.012 C 
DOCKED: ENDBRANCH  12  44
DOCKED: BRANCH  17  46
DOCKED: ATOM     46  C   UNL d   1     -13.218  -1.727  19.431 -0.12 -0.00    +0.004 C 
DOCKED: ATOM     47  C   UNL d   1     -12.762  -2.806  20.079 -0.12 -0.00    +0.012 C 
DOCKED: ENDBRANCH  17  46
DOCKED: TORSDOF 10
DOCKED: TER
DOCKED: ENDMDL
________________________________________________________________________________


	BEGINNING GENETIC ALGORITHM DOCKING 47 of 100
Run: 47 Seed: 8282082 291371224 [ Run 47 of 100 GA/GALS ]
Beginning LAMARCKIAN GENETIC ALGORITHM (LGA), with a maximum of 25000000 energy evaluations.

Final-Value: -13.361


	FINAL GENETIC ALGORITHM DOCKED STATE
	_______________________________________________


Detailed state:  trans -13.653 -0.946 3.199 quatxyzw 0.285714 -0.418848 -0.333231 0.794916 center 8.287 34.468 -0.670 ntor 10 109.4675 19.9573 27.8851 112.2044 154.4065 -37.7546 -78.3010 156.9322 -158.3616 179.9150
State:	-13.653  -0.946   3.199   0.471 -0.690 -0.549 74.705    109.47   19.96   27.89  112.20  154.41  -37.75  -78.30  156.93 -158.36  179.91

DOCKED: MODEL       47
DOCKED: USER    Run = 47
DOCKED: USER    DPF = D:/Protein_go_brrr/autodock/final/AncMH_nat/heme_O2/dock.dpf
DOCKED: USER  
DOCKED: USER    Estimated Free Energy of Binding    =   -8.15 kcal/mol  [=(1)+(2)+(3)-(4)]
DOCKED: USER    Estimated Inhibition Constant, Ki   =    1.05 uM (micromolar)  [Temperature = 298.15 K]
DOCKED: USER    
DOCKED: USER    (1) Final Intermolecular Energy     =  -11.14 kcal/mol
DOCKED: USER        vdW + Hbond + desolv Energy     =   -8.61 kcal/mol
DOCKED: USER        Electrostatic Energy            =   -2.53 kcal/mol
DOCKED: USER    (2) Final Total Internal Energy     =   -2.22 kcal/mol
DOCKED: USER    (3) Torsional Free Energy           =   +2.98 kcal/mol
DOCKED: USER    (4) Unbound System's Energy  [=(2)] =   -2.22 kcal/mol
DOCKED: USER    
DOCKED: USER    
DOCKED: USER    NEWDPF move heme_O2_opt.pdbqt
DOCKED: USER    NEWDPF about 8.287000 34.468000 -0.670000
DOCKED: USER    NEWDPF tran0 -13.652703 -0.946117 3.198514
DOCKED: USER    NEWDPF quaternion0 0.285714 -0.418848 -0.333231 0.794916
DOCKED: USER    NEWDPF axisangle0 0.470915 -0.690348 -0.549234 74.705366
DOCKED: USER    NEWDPF quat0 0.470915 -0.690348 -0.549234 74.705366
DOCKED: USER    NEWDPF dihe0 109.47 19.96 27.89 112.20 154.41 -37.75 -78.30 156.93 -158.36 179.91 
DOCKED: USER  keepresnum = 1 
DOCKED: USER  
DOCKED: REMARK  10 active torsions:
DOCKED: REMARK  status: ('A' for Active; 'I' for Inactive)
DOCKED: REMARK    1  A    between atoms: C_6  and  C_10 
DOCKED: REMARK    2  A    between atoms: C_10  and  C_11 
DOCKED: REMARK    3  A    between atoms: C_11  and  C_12 
DOCKED: REMARK    4  A    between atoms: C_12  and  O_14 
DOCKED: REMARK    5  A    between atoms: C_17  and  C_20 
DOCKED: REMARK    6  A    between atoms: C_24  and  C_27 
DOCKED: REMARK    7  A    between atoms: C_31  and  C_34 
DOCKED: REMARK    8  A    between atoms: C_34  and  C_35 
DOCKED: REMARK    9  A    between atoms: C_35  and  C_36 
DOCKED: REMARK   10  A    between atoms: C_36  and  O_38 
DOCKED: USER                              x       y       z     vdW  Elec       q    Type
DOCKED: USER                           _______ _______ _______ _____ _____    ______ ____
DOCKED: ROOT
DOCKED: ATOM      1  C   UNL d   1     -15.295  -1.706   4.306 -0.13 +0.04    +0.064 A 
DOCKED: ATOM      2  C   UNL d   1     -10.933  -0.322   5.578 -0.35 +0.02    +0.064 A 
DOCKED: ATOM      3  C   UNL d   1      -9.820   0.683   1.012 -0.39 +0.02    +0.064 C 
DOCKED: ATOM      4  C   UNL d   1     -14.461  -0.286  -0.247 -0.15 +0.10    +0.064 A 
DOCKED: ATOM      5  C   UNL d   1     -14.200  -1.410   5.025 -0.06 +0.03    +0.066 A 
DOCKED: ATOM      6  C   UNL d   1     -14.101  -1.585   6.408 -0.29 -0.01    -0.021 A 
DOCKED: ATOM      7  C   UNL d   1     -12.853  -1.144   6.784 -0.34 -0.00    -0.025 A 
DOCKED: ATOM      8  C   UNL d   1     -12.207  -0.757   5.613 -0.33 +0.02    +0.066 A 
DOCKED: ATOM      9  C   UNL d   1     -12.350  -1.082   8.209 -0.42 +0.00    +0.051 C 
DOCKED: ATOM     10  C   UNL d   1     -10.195   0.076   4.379 -0.11 +0.02    +0.066 A 
DOCKED: ATOM     11  C   UNL d   1      -8.825   0.363   4.378 +0.10 -0.01    -0.021 A 
DOCKED: ATOM     12  C   UNL d   1      -8.482   0.637   3.067 -0.29 +0.00    +0.000 A 
DOCKED: ATOM     13  C   UNL d   1      -9.690   0.512   2.328 -0.30 +0.02    +0.070 A 
DOCKED: ATOM     14  C   UNL d   1      -7.879   0.348   5.572 -0.34 +0.01    +0.052 C 
DOCKED: ATOM     15  C   UNL d   1     -11.031   0.599   0.233 -0.28 +0.04    +0.066 A 
DOCKED: ATOM     16  C   UNL d   1     -11.131   0.950  -1.113 -0.28 -0.01    -0.021 A 
DOCKED: ATOM     17  C   UNL d   1     -12.446   0.683  -1.494 -0.22 +0.00    +0.000 A 
DOCKED: ATOM     18  C   UNL d   1     -13.057   0.181  -0.337 -0.17 +0.09    +0.070 A 
DOCKED: ATOM     19  C   UNL d   1      -9.990   1.554  -1.892 -0.21 +0.01    +0.052 C 
DOCKED: ATOM     20  C   UNL d   1     -15.091  -0.732   0.857 -0.14 +0.10    +0.066 A 
DOCKED: ATOM     21  C   UNL d   1     -16.411  -1.176   0.876 -0.13 -0.03    -0.025 A 
DOCKED: ATOM     22  C   UNL d   1     -16.657  -1.610   2.159 -0.11 -0.02    -0.021 A 
DOCKED: ATOM     23  C   UNL d   1     -15.480  -1.397   2.883 -0.15 +0.06    +0.066 A 
DOCKED: ATOM     24  C   UNL d   1     -17.388  -1.181  -0.270 -0.09 +0.05    +0.051 C 
DOCKED: ATOM     25  N   UNL d   1     -13.060  -0.860   4.538 -0.19 -0.11    -0.248 N 
DOCKED: ATOM     26  N   UNL d   1     -10.729   0.174   3.134 -0.11 -0.10    -0.248 N 
DOCKED: ATOM     27  N   UNL d   1     -12.205   0.208   0.720 -0.15 -0.23    -0.248 N 
DOCKED: ATOM     28  N   UNL d   1     -14.545  -0.822   2.098 -0.15 -0.29    -0.248 N 
DOCKED: ATOM     29 FE   UNL d   1     -12.650  -0.327   2.610 -0.06 +0.00    +0.000 Fe
DOCKED: ATOM     30  O   UNL d   1     -12.765   0.881   3.585 -0.27 +0.00    +0.000 OA
DOCKED: ATOM     31  O   UNL d   1     -13.370   0.988   2.134 -0.45 +0.00    +0.000 OA
DOCKED: ENDROOT
DOCKED: BRANCH   6  32
DOCKED: ATOM     32  C   UNL d   1     -15.182  -2.020   7.363 -0.30 +0.01    +0.052 C 
DOCKED: BRANCH  32  33
DOCKED: ATOM     33  C   UNL d   1     -16.206  -0.923   7.638 -0.01 +0.04    +0.115 C 
DOCKED: BRANCH  33  34
DOCKED: ATOM     34  C   UNL d   1     -17.464  -1.093   6.822 -0.12 +0.07    +0.139 C 
DOCKED: ATOM     35  O   UNL d   1     -17.588  -2.070   6.101 +0.06 -0.30    -0.650 OA
DOCKED: BRANCH  34  36
DOCKED: ATOM     36  O   UNL d   1     -18.450  -0.173   6.850 +0.02 -0.51    -0.776 OA
DOCKED: ATOM     37  H   UNL d   1     -18.640   0.395   6.095 +0.03 +0.17    +0.167 HD
DOCKED: ENDBRANCH  34  36
DOCKED: ENDBRANCH  33  34
DOCKED: ENDBRANCH  32  33
DOCKED: ENDBRANCH   6  32
DOCKED: BRANCH  22  38
DOCKED: ATOM     38  C   UNL d   1     -17.973  -2.137   2.671 -0.05 +0.04    +0.052 C 
DOCKED: BRANCH  38  39
DOCKED: ATOM     39  C   UNL d   1     -18.973  -1.021   2.964 -0.06 +0.11    +0.115 C 
DOCKED: BRANCH  39  40
DOCKED: ATOM     40  C   UNL d   1     -18.299   0.298   3.245 -0.13 +0.21    +0.139 C 
DOCKED: ATOM     41  O   UNL d   1     -18.336   1.188   2.411 -0.41 -1.35    -0.650 OA
DOCKED: BRANCH  40  42
DOCKED: ATOM     42  O   UNL d   1     -17.695   0.534   4.426 +0.05 -1.00    -0.776 OA
DOCKED: ATOM     43  H   UNL d   1     -17.388  -0.188   4.988 +0.04 +0.15    +0.167 HD
DOCKED: ENDBRANCH  40  42
DOCKED: ENDBRANCH  39  40
DOCKED: ENDBRANCH  38  39
DOCKED: ENDBRANCH  22  38
DOCKED: BRANCH  12  44
DOCKED: ATOM     44  C   UNL d   1      -7.064   0.988   2.664 -0.41 +0.00    +0.004 C 
DOCKED: ATOM     45  C   UNL d   1      -6.663   1.670   1.592 -0.47 +0.00    +0.012 C 
DOCKED: ENDBRANCH  12  44
DOCKED: BRANCH  17  46
DOCKED: ATOM     46  C   UNL d   1     -13.162   0.910  -2.799 -0.15 +0.00    +0.004 C 
DOCKED: ATOM     47  C   UNL d   1     -13.515   0.004  -3.719 -0.14 +0.01    +0.012 C 
DOCKED: ENDBRANCH  17  46
DOCKED: TORSDOF 10
DOCKED: TER
DOCKED: ENDMDL
________________________________________________________________________________


	BEGINNING GENETIC ALGORITHM DOCKING 48 of 100
Run: 48 Seed: 723111387 669416543 [ Run 48 of 100 GA/GALS ]
Beginning LAMARCKIAN GENETIC ALGORITHM (LGA), with a maximum of 25000000 energy evaluations.

Final-Value: -13.168


	FINAL GENETIC ALGORITHM DOCKED STATE
	_______________________________________________


Detailed state:  trans -14.952 -1.076 2.975 quatxyzw 0.898929 0.035674 0.383389 -0.208964 center 8.287 34.468 -0.670 ntor 10 6.3019 -82.8944 99.0621 109.3982 -126.8335 153.6927 175.8082 173.8703 17.0609 11.5700
State:	-14.952  -1.076   2.975   0.919  0.036  0.392 -155.877      6.30  -82.89   99.06  109.40 -126.83  153.69  175.81  173.87   17.06   11.57

DOCKED: MODEL       48
DOCKED: USER    Run = 48
DOCKED: USER    DPF = D:/Protein_go_brrr/autodock/final/AncMH_nat/heme_O2/dock.dpf
DOCKED: USER  
DOCKED: USER    Estimated Free Energy of Binding    =   -8.64 kcal/mol  [=(1)+(2)+(3)-(4)]
DOCKED: USER    Estimated Inhibition Constant, Ki   =  462.54 nM (nanomolar)  [Temperature = 298.15 K]
DOCKED: USER    
DOCKED: USER    (1) Final Intermolecular Energy     =  -11.63 kcal/mol
DOCKED: USER        vdW + Hbond + desolv Energy     =   -8.46 kcal/mol
DOCKED: USER        Electrostatic Energy            =   -3.17 kcal/mol
DOCKED: USER    (2) Final Total Internal Energy     =   -1.54 kcal/mol
DOCKED: USER    (3) Torsional Free Energy           =   +2.98 kcal/mol
DOCKED: USER    (4) Unbound System's Energy  [=(2)] =   -1.54 kcal/mol
DOCKED: USER    
DOCKED: USER    
DOCKED: USER    NEWDPF move heme_O2_opt.pdbqt
DOCKED: USER    NEWDPF about 8.287000 34.468000 -0.670000
DOCKED: USER    NEWDPF tran0 -14.952139 -1.075853 2.975251
DOCKED: USER    NEWDPF quaternion0 0.898929 0.035674 0.383389 -0.208964
DOCKED: USER    NEWDPF axisangle0 0.919223 0.036479 0.392044 -155.876664
DOCKED: USER    NEWDPF quat0 0.919223 0.036479 0.392044 -155.876664
DOCKED: USER    NEWDPF dihe0 6.30 -82.89 99.06 109.40 -126.83 153.69 175.81 173.87 17.06 11.57 
DOCKED: USER  keepresnum = 1 
DOCKED: USER  
DOCKED: REMARK  10 active torsions:
DOCKED: REMARK  status: ('A' for Active; 'I' for Inactive)
DOCKED: REMARK    1  A    between atoms: C_6  and  C_10 
DOCKED: REMARK    2  A    between atoms: C_10  and  C_11 
DOCKED: REMARK    3  A    between atoms: C_11  and  C_12 
DOCKED: REMARK    4  A    between atoms: C_12  and  O_14 
DOCKED: REMARK    5  A    between atoms: C_17  and  C_20 
DOCKED: REMARK    6  A    between atoms: C_24  and  C_27 
DOCKED: REMARK    7  A    between atoms: C_31  and  C_34 
DOCKED: REMARK    8  A    between atoms: C_34  and  C_35 
DOCKED: REMARK    9  A    between atoms: C_35  and  C_36 
DOCKED: REMARK   10  A    between atoms: C_36  and  O_38 
DOCKED: USER                              x       y       z     vdW  Elec       q    Type
DOCKED: USER                           _______ _______ _______ _____ _____    ______ ____
DOCKED: ROOT
DOCKED: ATOM      1  C   UNL d   1     -16.889  -1.765   2.452 -0.08 +0.06    +0.064 A 
DOCKED: ATOM      2  C   UNL d   1     -13.190  -0.310  -0.148 -0.15 +0.08    +0.064 A 
DOCKED: ATOM      3  C   UNL d   1     -10.624   0.560   3.821 -0.29 +0.02    +0.064 C 
DOCKED: ATOM      4  C   UNL d   1     -14.250  -1.384   6.493 -0.02 +0.02    +0.064 A 
DOCKED: ATOM      5  C   UNL d   1     -16.091  -1.442   1.421 -0.13 +0.08    +0.066 A 
DOCKED: ATOM      6  C   UNL d   1     -16.474  -1.528   0.079 -0.13 -0.02    -0.021 A 
DOCKED: ATOM      7  C   UNL d   1     -15.389  -1.148  -0.676 -0.09 -0.03    -0.025 A 
DOCKED: ATOM      8  C   UNL d   1     -14.390  -0.795   0.226 -0.14 +0.09    +0.066 A 
DOCKED: ATOM      9  C   UNL d   1     -15.338  -1.165  -2.189 -0.08 +0.05    +0.051 C 
DOCKED: ATOM     10  C   UNL d   1     -12.111   0.099   0.752 -0.25 +0.06    +0.066 A 
DOCKED: ATOM     11  C   UNL d   1     -10.950   0.747   0.317 -0.30 -0.01    -0.021 A 
DOCKED: ATOM     12  C   UNL d   1     -10.205   1.023   1.449 -0.33 +0.00    +0.000 A 
DOCKED: ATOM     13  C   UNL d   1     -10.966   0.504   2.534 -0.28 +0.03    +0.070 A 
DOCKED: ATOM     14  C   UNL d   1     -10.579   1.113  -1.115 -0.33 +0.02    +0.052 C 
DOCKED: ATOM     15  C   UNL d   1     -11.348   0.017   4.944 -0.34 +0.02    +0.066 A 
DOCKED: ATOM     16  C   UNL d   1     -10.859  -0.037   6.249 -0.44 -0.00    -0.021 A 
DOCKED: ATOM     17  C   UNL d   1     -11.876  -0.589   7.029 -0.38 +0.00    +0.000 A 
DOCKED: ATOM     18  C   UNL d   1     -12.923  -0.832   6.129 -0.25 +0.02    +0.070 A 
DOCKED: ATOM     19  C   UNL d   1      -9.461   0.386   6.621 -0.43 +0.01    +0.052 C 
DOCKED: ATOM     20  C   UNL d   1     -15.261  -1.670   5.649 -0.08 +0.03    +0.066 A 
DOCKED: ATOM     21  C   UNL d   1     -16.495  -2.173   6.053 -0.12 -0.01    -0.025 A 
DOCKED: ATOM     22  C   UNL d   1     -17.269  -2.262   4.918 -0.07 -0.01    -0.021 A 
DOCKED: ATOM     23  C   UNL d   1     -16.470  -1.825   3.857 -0.08 +0.05    +0.066 A 
DOCKED: ATOM     24  C   UNL d   1     -16.912  -2.553   7.450 -0.19 +0.02    +0.051 C 
DOCKED: ATOM     25  N   UNL d   1     -14.801  -1.038   1.516 -0.14 -0.31    -0.248 N 
DOCKED: ATOM     26  N   UNL d   1     -12.121  -0.060   2.100 -0.16 -0.18    -0.248 N 
DOCKED: ATOM     27  N   UNL d   1     -12.559  -0.528   4.858 -0.22 -0.09    -0.248 N 
DOCKED: ATOM     28  N   UNL d   1     -15.235  -1.509   4.300 -0.08 -0.16    -0.248 N 
DOCKED: ATOM     29 FE   UNL d   1     -13.688  -0.790   3.210 -0.06 +0.00    +0.000 Fe
DOCKED: ATOM     30  O   UNL d   1     -13.207  -1.965   2.310 -0.47 +0.00    +0.000 OA
DOCKED: ATOM     31  O   UNL d   1     -13.213  -2.133   3.876 -0.28 +0.00    +0.000 OA
DOCKED: ENDROOT
DOCKED: BRANCH   6  32
DOCKED: ATOM     32  C   UNL d   1     -17.761  -2.076  -0.481 -0.08 +0.05    +0.052 C 
DOCKED: BRANCH  32  33
DOCKED: ATOM     33  C   UNL d   1     -18.751  -0.982  -0.871 -0.01 +0.08    +0.115 C 
DOCKED: BRANCH  33  34
DOCKED: ATOM     34  C   UNL d   1     -18.279   0.392  -0.465 -0.04 +0.15    +0.139 C 
DOCKED: ATOM     35  O   UNL d   1     -17.487   0.992  -1.174 -0.06 -0.82    -0.650 OA
DOCKED: BRANCH  34  36
DOCKED: ATOM     36  O   UNL d   1     -18.692   0.966   0.684 -0.03 -1.07    -0.776 OA
DOCKED: ATOM     37  H   UNL d   1     -19.225   0.490   1.331 +0.02 +0.22    +0.167 HD
DOCKED: ENDBRANCH  34  36
DOCKED: ENDBRANCH  33  34
DOCKED: ENDBRANCH  32  33
DOCKED: ENDBRANCH   6  32
DOCKED: BRANCH  22  38
DOCKED: ATOM     38  C   UNL d   1     -18.675  -2.799   4.854 -0.06 +0.03    +0.052 C 
DOCKED: BRANCH  38  39
DOCKED: ATOM     39  C   UNL d   1     -19.694  -1.720   4.494 -0.05 +0.08    +0.115 C 
DOCKED: BRANCH  39  40
DOCKED: ATOM     40  C   UNL d   1     -19.085  -0.340   4.458 -0.08 +0.17    +0.139 C 
DOCKED: ATOM     41  O   UNL d   1     -18.595   0.132   5.471 +0.07 -0.72    -0.650 OA
DOCKED: BRANCH  40  42
DOCKED: ATOM     42  O   UNL d   1     -19.025   0.364   3.312 +0.03 -1.39    -0.776 OA
DOCKED: ATOM     43  H   UNL d   1     -18.341   0.198   2.653 +0.03 +0.24    +0.167 HD
DOCKED: ENDBRANCH  40  42
DOCKED: ENDBRANCH  39  40
DOCKED: ENDBRANCH  38  39
DOCKED: ENDBRANCH  22  38
DOCKED: BRANCH  12  44
DOCKED: ATOM     44  C   UNL d   1      -8.870   1.734   1.380 -0.37 +0.00    +0.004 C 
DOCKED: ATOM     45  C   UNL d   1      -7.669   1.201   1.161 -0.48 +0.00    +0.012 C 
DOCKED: ENDBRANCH  12  44
DOCKED: BRANCH  17  46
DOCKED: ATOM     46  C   UNL d   1     -11.916  -0.947   8.490 -0.51 +0.00    +0.004 C 
DOCKED: ATOM     47  C   UNL d   1     -12.499  -0.276   9.492 -0.45 +0.00    +0.012 C 
DOCKED: ENDBRANCH  17  46
DOCKED: TORSDOF 10
DOCKED: TER
DOCKED: ENDMDL
________________________________________________________________________________


	BEGINNING GENETIC ALGORITHM DOCKING 49 of 100
Run: 49 Seed: 542092449 4000139 [ Run 49 of 100 GA/GALS ]
Beginning LAMARCKIAN GENETIC ALGORITHM (LGA), with a maximum of 25000000 energy evaluations.

Final-Value: -13.854


	FINAL GENETIC ALGORITHM DOCKED STATE
	_______________________________________________


Detailed state:  trans -13.110 -0.680 1.951 quatxyzw -0.109172 -0.567324 -0.092749 -0.810939 center 8.287 34.468 -0.670 ntor 10 -112.8660 125.4489 -45.8916 129.7418 4.2105 -79.9095 -101.0053 117.8165 160.3695 -178.7544
State:	-13.110  -0.680   1.951  -0.187 -0.970 -0.159 -71.624   -112.87  125.45  -45.89  129.74    4.21  -79.91 -101.01  117.82  160.37 -178.75

DOCKED: MODEL       49
DOCKED: USER    Run = 49
DOCKED: USER    DPF = D:/Protein_go_brrr/autodock/final/AncMH_nat/heme_O2/dock.dpf
DOCKED: USER  
DOCKED: USER    Estimated Free Energy of Binding    =   -8.84 kcal/mol  [=(1)+(2)+(3)-(4)]
DOCKED: USER    Estimated Inhibition Constant, Ki   =  331.51 nM (nanomolar)  [Temperature = 298.15 K]
DOCKED: USER    
DOCKED: USER    (1) Final Intermolecular Energy     =  -11.82 kcal/mol
DOCKED: USER        vdW + Hbond + desolv Energy     =   -9.18 kcal/mol
DOCKED: USER        Electrostatic Energy            =   -2.64 kcal/mol
DOCKED: USER    (2) Final Total Internal Energy     =   -2.03 kcal/mol
DOCKED: USER    (3) Torsional Free Energy           =   +2.98 kcal/mol
DOCKED: USER    (4) Unbound System's Energy  [=(2)] =   -2.03 kcal/mol
DOCKED: USER    
DOCKED: USER    
DOCKED: USER    NEWDPF move heme_O2_opt.pdbqt
DOCKED: USER    NEWDPF about 8.287000 34.468000 -0.670000
DOCKED: USER    NEWDPF tran0 -13.109813 -0.679609 1.951363
DOCKED: USER    NEWDPF quaternion0 -0.109172 -0.567324 -0.092749 -0.810939
DOCKED: USER    NEWDPF axisangle0 -0.186577 -0.969569 -0.158511 -71.624389
DOCKED: USER    NEWDPF quat0 -0.186577 -0.969569 -0.158511 -71.624389
DOCKED: USER    NEWDPF dihe0 -112.87 125.45 -45.89 129.74 4.21 -79.91 -101.01 117.82 160.37 -178.75 
DOCKED: USER  keepresnum = 1 
DOCKED: USER  
DOCKED: REMARK  10 active torsions:
DOCKED: REMARK  status: ('A' for Active; 'I' for Inactive)
DOCKED: REMARK    1  A    between atoms: C_6  and  C_10 
DOCKED: REMARK    2  A    between atoms: C_10  and  C_11 
DOCKED: REMARK    3  A    between atoms: C_11  and  C_12 
DOCKED: REMARK    4  A    between atoms: C_12  and  O_14 
DOCKED: REMARK    5  A    between atoms: C_17  and  C_20 
DOCKED: REMARK    6  A    between atoms: C_24  and  C_27 
DOCKED: REMARK    7  A    between atoms: C_31  and  C_34 
DOCKED: REMARK    8  A    between atoms: C_34  and  C_35 
DOCKED: REMARK    9  A    between atoms: C_35  and  C_36 
DOCKED: REMARK   10  A    between atoms: C_36  and  O_38 
DOCKED: USER                              x       y       z     vdW  Elec       q    Type
DOCKED: USER                           _______ _______ _______ _____ _____    ______ ____
DOCKED: ROOT
DOCKED: ATOM      1  C   UNL d   1     -12.859  -0.278  -0.116 -0.19 +0.07    +0.064 A 
DOCKED: ATOM      2  C   UNL d   1     -16.544  -1.878   2.417 -0.09 +0.06    +0.064 A 
DOCKED: ATOM      3  C   UNL d   1     -13.948  -1.733   6.458 -0.34 +0.02    +0.064 C 
DOCKED: ATOM      4  C   UNL d   1     -10.298   0.366   3.941 -0.27 +0.02    +0.064 A 
DOCKED: ATOM      5  C   UNL d   1     -14.074  -0.724   0.243 -0.11 +0.09    +0.066 A 
DOCKED: ATOM      6  C   UNL d   1     -15.127  -0.934  -0.652 -0.16 -0.03    -0.021 A 
DOCKED: ATOM      7  C   UNL d   1     -16.208  -1.356   0.087 -0.14 -0.03    -0.025 A 
DOCKED: ATOM      8  C   UNL d   1     -15.771  -1.438   1.406 -0.15 +0.08    +0.066 A 
DOCKED: ATOM      9  C   UNL d   1     -17.586  -1.628  -0.475 -0.09 +0.05    +0.051 C 
DOCKED: ATOM     10  C   UNL d   1     -16.135  -2.008   3.816 -0.09 +0.05    +0.066 A 
DOCKED: ATOM     11  C   UNL d   1     -16.923  -2.624   4.794 -0.08 -0.01    -0.021 A 
DOCKED: ATOM     12  C   UNL d   1     -16.184  -2.608   5.963 -0.15 +0.00    +0.000 A 
DOCKED: ATOM     13  C   UNL d   1     -14.965  -1.958   5.626 -0.15 +0.03    +0.070 A 
DOCKED: ATOM     14  C   UNL d   1     -18.312  -3.227   4.616 -0.07 +0.03    +0.052 C 
DOCKED: ATOM     15  C   UNL d   1     -12.712  -1.048   6.166 -0.32 +0.01    +0.066 A 
DOCKED: ATOM     16  C   UNL d   1     -11.757  -0.699   7.120 -0.26 -0.00    -0.021 A 
DOCKED: ATOM     17  C   UNL d   1     -10.707  -0.099   6.426 -0.44 +0.00    +0.000 A 
DOCKED: ATOM     18  C   UNL d   1     -11.105  -0.128   5.082 -0.33 +0.02    +0.070 A 
DOCKED: ATOM     19  C   UNL d   1     -11.953  -0.918   8.599 -0.50 +0.00    +0.052 C 
DOCKED: ATOM     20  C   UNL d   1     -10.667   0.392   2.646 -0.28 +0.03    +0.066 A 
DOCKED: ATOM     21  C   UNL d   1      -9.856   0.853   1.613 -0.33 -0.01    -0.025 A 
DOCKED: ATOM     22  C   UNL d   1     -10.559   0.652   0.446 -0.33 -0.01    -0.021 A 
DOCKED: ATOM     23  C   UNL d   1     -11.785   0.090   0.814 -0.26 +0.05    +0.066 A 
DOCKED: ATOM     24  C   UNL d   1      -8.481   1.459   1.733 -0.38 +0.01    +0.051 C 
DOCKED: ATOM     25  N   UNL d   1     -14.475  -0.986   1.511 -0.15 -0.30    -0.248 N 
DOCKED: ATOM     26  N   UNL d   1     -14.945  -1.593   4.320 -0.10 -0.15    -0.248 N 
DOCKED: ATOM     27  N   UNL d   1     -12.356  -0.639   4.952 -0.22 -0.08    -0.248 N 
DOCKED: ATOM     28  N   UNL d   1     -11.864  -0.025   2.156 -0.16 -0.17    -0.248 N 
DOCKED: ATOM     29 FE   UNL d   1     -13.392  -0.802   3.232 -0.06 +0.00    +0.000 Fe
DOCKED: ATOM     30  O   UNL d   1     -14.566   0.213   3.117 -0.24 +0.00    +0.000 OA
DOCKED: ATOM     31  O   UNL d   1     -13.184   0.681   3.712 -0.07 +0.00    +0.000 OA
DOCKED: ENDROOT
DOCKED: BRANCH   6  32
DOCKED: ATOM     32  C   UNL d   1     -15.163  -0.620  -2.125 -0.14 +0.05    +0.052 C 
DOCKED: BRANCH  32  33
DOCKED: ATOM     33  C   UNL d   1     -16.193   0.448  -2.478 -0.06 +0.10    +0.115 C 
DOCKED: BRANCH  33  34
DOCKED: ATOM     34  C   UNL d   1     -15.727   1.838  -2.121 +0.02 +0.19    +0.139 C 
DOCKED: ATOM     35  O   UNL d   1     -16.541   2.673  -1.760 -0.12 -1.08    -0.650 OA
DOCKED: BRANCH  34  36
DOCKED: ATOM     36  O   UNL d   1     -14.429   2.191  -2.220 +0.01 -0.99    -0.776 OA
DOCKED: ATOM     37  H   UNL d   1     -13.894   2.392  -1.443 +0.03 +0.31    +0.167 HD
DOCKED: ENDBRANCH  34  36
DOCKED: ENDBRANCH  33  34
DOCKED: ENDBRANCH  32  33
DOCKED: ENDBRANCH   6  32
DOCKED: BRANCH  22  38
DOCKED: ATOM     38  C   UNL d   1     -10.098   1.041  -0.935 -0.36 +0.01    +0.052 C 
DOCKED: BRANCH  38  39
DOCKED: ATOM     39  C   UNL d   1     -10.240   2.539  -1.196 -0.13 +0.03    +0.115 C 
DOCKED: BRANCH  39  40
DOCKED: ATOM     40  C   UNL d   1     -11.676   2.998  -1.154 -0.19 +0.09    +0.139 C 
DOCKED: ATOM     41  O   UNL d   1     -12.304   2.930  -0.110 -0.33 -0.91    -0.650 OA
DOCKED: BRANCH  40  42
DOCKED: ATOM     42  O   UNL d   1     -12.267   3.533  -2.240 +0.09 -0.39    -0.776 OA
DOCKED: ATOM     43  H   UNL d   1     -13.112   3.204  -2.568 +0.04 +0.11    +0.167 HD
DOCKED: ENDBRANCH  40  42
DOCKED: ENDBRANCH  39  40
DOCKED: ENDBRANCH  38  39
DOCKED: ENDBRANCH  22  38
DOCKED: BRANCH  12  44
DOCKED: ATOM     44  C   UNL d   1     -16.710  -3.200   7.254 -0.24 +0.00    +0.004 C 
DOCKED: ATOM     45  C   UNL d   1     -16.100  -4.060   8.068 -0.43 +0.00    +0.012 C 
DOCKED: ENDBRANCH  12  44
DOCKED: BRANCH  17  46
DOCKED: ATOM     46  C   UNL d   1      -9.430   0.531   6.916 -0.45 +0.00    +0.004 C 
DOCKED: ATOM     47  C   UNL d   1      -8.171   0.218   6.585 -0.45 +0.00    +0.012 C 
DOCKED: ENDBRANCH  17  46
DOCKED: TORSDOF 10
DOCKED: TER
DOCKED: ENDMDL
________________________________________________________________________________


	BEGINNING GENETIC ALGORITHM DOCKING 50 of 100
Run: 50 Seed: 1531070183 934721872 [ Run 50 of 100 GA/GALS ]
Beginning LAMARCKIAN GENETIC ALGORITHM (LGA), with a maximum of 25000000 energy evaluations.

Final-Value: -16.244


	FINAL GENETIC ALGORITHM DOCKED STATE
	_______________________________________________


Detailed state:  trans -9.858 0.747 4.326 quatxyzw 0.888154 -0.041549 0.433472 -0.146826 center 8.287 34.468 -0.670 ntor 10 -171.5433 -90.2110 -7.9908 -42.2041 -46.5822 153.1296 34.9318 60.8488 145.4058 167.7896
State:	 -9.858   0.747   4.326   0.898 -0.042  0.438 -163.114   -171.54  -90.21   -7.99  -42.20  -46.58  153.13   34.93   60.85  145.41  167.79

DOCKED: MODEL       50
DOCKED: USER    Run = 50
DOCKED: USER    DPF = D:/Protein_go_brrr/autodock/final/AncMH_nat/heme_O2/dock.dpf
DOCKED: USER  
DOCKED: USER    Estimated Free Energy of Binding    =  -12.90 kcal/mol  [=(1)+(2)+(3)-(4)]
DOCKED: USER    Estimated Inhibition Constant, Ki   =  349.14 pM (picomolar)  [Temperature = 298.15 K]
DOCKED: USER    
DOCKED: USER    (1) Final Intermolecular Energy     =  -15.88 kcal/mol
DOCKED: USER        vdW + Hbond + desolv Energy     =  -13.90 kcal/mol
DOCKED: USER        Electrostatic Energy            =   -1.98 kcal/mol
DOCKED: USER    (2) Final Total Internal Energy     =   -0.36 kcal/mol
DOCKED: USER    (3) Torsional Free Energy           =   +2.98 kcal/mol
DOCKED: USER    (4) Unbound System's Energy  [=(2)] =   -0.36 kcal/mol
DOCKED: USER    
DOCKED: USER    
DOCKED: USER    NEWDPF move heme_O2_opt.pdbqt
DOCKED: USER    NEWDPF about 8.287000 34.468000 -0.670000
DOCKED: USER    NEWDPF tran0 -9.858409 0.747081 4.325947
DOCKED: USER    NEWDPF quaternion0 0.888154 -0.041549 0.433472 -0.146826
DOCKED: USER    NEWDPF axisangle0 0.897885 -0.042004 0.438221 -163.113931
DOCKED: USER    NEWDPF quat0 0.897885 -0.042004 0.438221 -163.113931
DOCKED: USER    NEWDPF dihe0 -171.54 -90.21 -7.99 -42.20 -46.58 153.13 34.93 60.85 145.41 167.79 
DOCKED: USER  keepresnum = 1 
DOCKED: USER  
DOCKED: REMARK  10 active torsions:
DOCKED: REMARK  status: ('A' for Active; 'I' for Inactive)
DOCKED: REMARK    1  A    between atoms: C_6  and  C_10 
DOCKED: REMARK    2  A    between atoms: C_10  and  C_11 
DOCKED: REMARK    3  A    between atoms: C_11  and  C_12 
DOCKED: REMARK    4  A    between atoms: C_12  and  O_14 
DOCKED: REMARK    5  A    between atoms: C_17  and  C_20 
DOCKED: REMARK    6  A    between atoms: C_24  and  C_27 
DOCKED: REMARK    7  A    between atoms: C_31  and  C_34 
DOCKED: REMARK    8  A    between atoms: C_34  and  C_35 
DOCKED: REMARK    9  A    between atoms: C_35  and  C_36 
DOCKED: REMARK   10  A    between atoms: C_36  and  O_38 
DOCKED: USER                              x       y       z     vdW  Elec       q    Type
DOCKED: USER                           _______ _______ _______ _____ _____    ______ ____
DOCKED: ROOT
DOCKED: ATOM      1  C   UNL d   1     -11.746   0.311   3.463 -0.29 +0.03    +0.064 A 
DOCKED: ATOM      2  C   UNL d   1      -7.660   1.873   1.615 -0.35 +0.01    +0.064 A 
DOCKED: ATOM      3  C   UNL d   1      -5.591   1.871   5.953 -0.27 +0.00    +0.064 C 
DOCKED: ATOM      4  C   UNL d   1      -9.643  -0.191   7.795 -0.10 +0.01    +0.064 A 
DOCKED: ATOM      5  C   UNL d   1     -10.803   0.734   2.607 -0.28 +0.03    +0.066 A 
DOCKED: ATOM      6  C   UNL d   1     -11.010   0.901   1.234 -0.29 -0.01    -0.021 A 
DOCKED: ATOM      7  C   UNL d   1      -9.815   1.312   0.691 -0.33 -0.01    -0.025 A 
DOCKED: ATOM      8  C   UNL d   1      -8.924   1.431   1.754 -0.29 +0.02    +0.066 A 
DOCKED: ATOM      9  C   UNL d   1      -9.568   1.540  -0.784 -0.25 +0.01    +0.051 C 
DOCKED: ATOM     10  C   UNL d   1      -6.686   2.041   2.696 -0.33 +0.00    +0.066 A 
DOCKED: ATOM     11  C   UNL d   1      -5.442   2.657   2.521 -0.38 -0.00    -0.021 A 
DOCKED: ATOM     12  C   UNL d   1      -4.838   2.682   3.765 -0.36 -0.00    +0.000 A 
DOCKED: ATOM     13  C   UNL d   1      -5.763   2.055   4.644 -0.29 +0.00    +0.070 A 
DOCKED: ATOM     14  C   UNL d   1      -4.866   3.223   1.229 -0.46 -0.00    +0.052 C 
DOCKED: ATOM     15  C   UNL d   1      -6.487   1.210   6.871 -0.38 +0.00    +0.066 A 
DOCKED: ATOM     16  C   UNL d   1      -6.177   0.903   8.195 -0.48 -0.00    -0.021 A 
DOCKED: ATOM     17  C   UNL d   1      -7.318   0.313   8.740 -0.46 +0.00    +0.000 A 
DOCKED: ATOM     18  C   UNL d   1      -8.251   0.306   7.694 -0.38 +0.01    +0.070 A 
DOCKED: ATOM     19  C   UNL d   1      -4.817   1.147   8.800 -0.56 -0.00    +0.052 C 
DOCKED: ATOM     20  C   UNL d   1     -10.550  -0.252   6.800 -0.34 +0.01    +0.066 A 
DOCKED: ATOM     21  C   UNL d   1     -11.853  -0.715   6.960 -0.29 -0.00    -0.025 A 
DOCKED: ATOM     22  C   UNL d   1     -12.475  -0.554   5.743 -0.35 -0.01    -0.021 A 
DOCKED: ATOM     23  C   UNL d   1     -11.519  -0.014   4.877 -0.32 +0.02    +0.066 A 
DOCKED: ATOM     24  C   UNL d   1     -12.472  -1.285   8.210 -0.36 +0.00    +0.051 C 
DOCKED: ATOM     25  N   UNL d   1      -9.515   1.012   2.924 -0.15 -0.08    -0.248 N 
DOCKED: ATOM     26  N   UNL d   1      -6.883   1.664   3.985 -0.12 -0.03    -0.248 N 
DOCKED: ATOM     27  N   UNL d   1      -7.705   0.785   6.547 -0.23 -0.03    -0.248 N 
DOCKED: ATOM     28  N   UNL d   1     -10.338   0.126   5.512 -0.27 -0.07    -0.248 N 
DOCKED: ATOM     29 FE   UNL d   1      -8.622   0.889   4.756 -0.08 +0.00    +0.000 Fe
DOCKED: ATOM     30  O   UNL d   1      -8.096  -0.156   3.730 -0.61 +0.00    +0.000 OA
DOCKED: ATOM     31  O   UNL d   1      -8.317  -0.579   5.231 -0.86 +0.00    +0.000 OA
DOCKED: ENDROOT
DOCKED: BRANCH   6  32
DOCKED: ATOM     32  C   UNL d   1     -12.242   0.557   0.438 -0.26 +0.05    +0.052 C 
DOCKED: BRANCH  32  33
DOCKED: ATOM     33  C   UNL d   1     -11.931  -0.259  -0.813 -0.10 +0.09    +0.115 C 
DOCKED: BRANCH  33  34
DOCKED: ATOM     34  C   UNL d   1     -12.878   0.044  -1.948 -0.14 +0.11    +0.139 C 
DOCKED: ATOM     35  O   UNL d   1     -12.575  -0.272  -3.087 +0.00 -0.35    -0.650 OA
DOCKED: BRANCH  34  36
DOCKED: ATOM     36  O   UNL d   1     -14.046   0.685  -1.737 +0.04 -0.92    -0.776 OA
DOCKED: ATOM     37  H   UNL d   1     -14.712   0.775  -2.428 +0.03 +0.16    +0.167 HD
DOCKED: ENDBRANCH  34  36
DOCKED: ENDBRANCH  33  34
DOCKED: ENDBRANCH  32  33
DOCKED: ENDBRANCH   6  32
DOCKED: BRANCH  22  38
DOCKED: ATOM     38  C   UNL d   1     -13.890  -0.959   5.419 +0.11 +0.02    +0.052 C 
DOCKED: BRANCH  38  39
DOCKED: ATOM     39  C   UNL d   1     -13.980  -2.389   4.890 -0.26 +0.05    +0.115 C 
DOCKED: BRANCH  39  40
DOCKED: ATOM     40  C   UNL d   1     -14.570  -2.454   3.504 -0.20 +0.10    +0.139 C 
DOCKED: ATOM     41  O   UNL d   1     -15.714  -2.073   3.314 +0.05 -0.51    -0.650 OA
DOCKED: BRANCH  40  42
DOCKED: ATOM     42  O   UNL d   1     -13.839  -2.880   2.455 -0.37 -0.87    -0.776 OA
DOCKED: ATOM     43  H   UNL d   1     -13.291  -2.273   1.943 +0.05 +0.18    +0.167 HD
DOCKED: ENDBRANCH  40  42
DOCKED: ENDBRANCH  39  40
DOCKED: ENDBRANCH  38  39
DOCKED: ENDBRANCH  22  38
DOCKED: BRANCH  12  44
DOCKED: ATOM     44  C   UNL d   1      -3.466   3.287   3.980 -0.45 -0.00    +0.004 C 
DOCKED: ATOM     45  C   UNL d   1      -2.872   3.579   5.136 -0.59 -0.00    +0.012 C 
DOCKED: ENDBRANCH  12  44
DOCKED: BRANCH  17  46
DOCKED: ATOM     46  C   UNL d   1      -7.570  -0.276  10.103 -0.62 +0.00    +0.004 C 
DOCKED: ATOM     47  C   UNL d   1      -6.819  -1.156  10.777 -0.68 -0.00    +0.012 C 
DOCKED: ENDBRANCH  17  46
DOCKED: TORSDOF 10
DOCKED: TER
DOCKED: ENDMDL
________________________________________________________________________________


	BEGINNING GENETIC ALGORITHM DOCKING 51 of 100
Run: 51 Seed: 1382160980 433226902 [ Run 51 of 100 GA/GALS ]
Beginning LAMARCKIAN GENETIC ALGORITHM (LGA), with a maximum of 25000000 energy evaluations.

Final-Value: -17.565


	FINAL GENETIC ALGORITHM DOCKED STATE
	_______________________________________________


Detailed state:  trans -9.910 0.719 4.382 quatxyzw 0.907449 0.000214 0.374554 -0.190384 center 8.287 34.468 -0.670 ntor 10 98.8197 56.0715 -1.9950 -95.4104 161.2853 98.7095 -32.5222 -6.4476 -121.4609 -180.0000
State:	 -9.910   0.719   4.382   0.924  0.000  0.382 -158.050     98.82   56.07   -2.00  -95.41  161.29   98.71  -32.52   -6.45 -121.46 -180.00

DOCKED: MODEL       51
DOCKED: USER    Run = 51
DOCKED: USER    DPF = D:/Protein_go_brrr/autodock/final/AncMH_nat/heme_O2/dock.dpf
DOCKED: USER  
DOCKED: USER    Estimated Free Energy of Binding    =  -13.03 kcal/mol  [=(1)+(2)+(3)-(4)]
DOCKED: USER    Estimated Inhibition Constant, Ki   =  283.06 pM (picomolar)  [Temperature = 298.15 K]
DOCKED: USER    
DOCKED: USER    (1) Final Intermolecular Energy     =  -16.01 kcal/mol
DOCKED: USER        vdW + Hbond + desolv Energy     =  -14.17 kcal/mol
DOCKED: USER        Electrostatic Energy            =   -1.84 kcal/mol
DOCKED: USER    (2) Final Total Internal Energy     =   -1.56 kcal/mol
DOCKED: USER    (3) Torsional Free Energy           =   +2.98 kcal/mol
DOCKED: USER    (4) Unbound System's Energy  [=(2)] =   -1.56 kcal/mol
DOCKED: USER    
DOCKED: USER    
DOCKED: USER    NEWDPF move heme_O2_opt.pdbqt
DOCKED: USER    NEWDPF about 8.287000 34.468000 -0.670000
DOCKED: USER    NEWDPF tran0 -9.910039 0.719487 4.382431
DOCKED: USER    NEWDPF quaternion0 0.907449 0.000214 0.374554 -0.190384
DOCKED: USER    NEWDPF axisangle0 0.924355 0.000218 0.381532 -158.049578
DOCKED: USER    NEWDPF quat0 0.924355 0.000218 0.381532 -158.049578
DOCKED: USER    NEWDPF dihe0 98.82 56.07 -2.00 -95.41 161.29 98.71 -32.52 -6.45 -121.46 -180.00 
DOCKED: USER  keepresnum = 1 
DOCKED: USER  
DOCKED: REMARK  10 active torsions:
DOCKED: REMARK  status: ('A' for Active; 'I' for Inactive)
DOCKED: REMARK    1  A    between atoms: C_6  and  C_10 
DOCKED: REMARK    2  A    between atoms: C_10  and  C_11 
DOCKED: REMARK    3  A    between atoms: C_11  and  C_12 
DOCKED: REMARK    4  A    between atoms: C_12  and  O_14 
DOCKED: REMARK    5  A    between atoms: C_17  and  C_20 
DOCKED: REMARK    6  A    between atoms: C_24  and  C_27 
DOCKED: REMARK    7  A    between atoms: C_31  and  C_34 
DOCKED: REMARK    8  A    between atoms: C_34  and  C_35 
DOCKED: REMARK    9  A    between atoms: C_35  and  C_36 
DOCKED: REMARK   10  A    between atoms: C_36  and  O_38 
DOCKED: USER                              x       y       z     vdW  Elec       q    Type
DOCKED: USER                           _______ _______ _______ _____ _____    ______ ____
DOCKED: ROOT
DOCKED: ATOM      1  C   UNL d   1     -11.885   0.170   3.837 -0.28 +0.03    +0.064 A 
DOCKED: ATOM      2  C   UNL d   1      -8.131   1.587   1.295 -0.36 +0.01    +0.064 A 
DOCKED: ATOM      3  C   UNL d   1      -5.494   2.064   5.284 -0.29 +0.00    +0.064 C 
DOCKED: ATOM      4  C   UNL d   1      -9.200   0.150   7.866 -0.23 +0.01    +0.064 A 
DOCKED: ATOM      5  C   UNL d   1     -11.079   0.515   2.820 -0.29 +0.03    +0.066 A 
DOCKED: ATOM      6  C   UNL d   1     -11.475   0.535   1.480 -0.29 -0.01    -0.021 A 
DOCKED: ATOM      7  C   UNL d   1     -10.376   0.903   0.738 -0.32 -0.01    -0.025 A 
DOCKED: ATOM      8  C   UNL d   1      -9.353   1.145   1.651 -0.31 +0.02    +0.066 A 
DOCKED: ATOM      9  C   UNL d   1     -10.338   0.980  -0.772 -0.36 +0.02    +0.051 C 
DOCKED: ATOM     10  C   UNL d   1      -7.026   1.880   2.208 -0.33 +0.01    +0.066 A 
DOCKED: ATOM     11  C   UNL d   1      -5.834   2.491   1.803 -0.40 -0.00    -0.021 A 
DOCKED: ATOM     12  C   UNL d   1      -5.068   2.654   2.942 -0.38 +0.00    +0.000 A 
DOCKED: ATOM     13  C   UNL d   1      -5.847   2.109   3.999 -0.33 +0.00    +0.070 A 
DOCKED: ATOM     14  C   UNL d   1      -5.454   2.927   0.392 -0.48 -0.00    +0.052 C 
DOCKED: ATOM     15  C   UNL d   1      -6.238   1.490   6.378 -0.37 +0.00    +0.066 A 
DOCKED: ATOM     16  C   UNL d   1      -5.743   1.327   7.672 -0.45 -0.00    -0.021 A 
DOCKED: ATOM     17  C   UNL d   1      -6.783   0.782   8.426 -0.44 +0.00    +0.000 A 
DOCKED: ATOM     18  C   UNL d   1      -7.848   0.653   7.524 -0.39 +0.01    +0.070 A 
DOCKED: ATOM     19  C   UNL d   1      -4.321   1.651   8.055 -0.43 -0.00    +0.052 C 
DOCKED: ATOM     20  C   UNL d   1     -10.231  -0.026   7.017 -0.32 +0.01    +0.066 A 
DOCKED: ATOM     21  C   UNL d   1     -11.487  -0.487   7.400 -0.29 -0.00    -0.025 A 
DOCKED: ATOM     22  C   UNL d   1     -12.273  -0.462   6.270 -0.37 -0.00    -0.021 A 
DOCKED: ATOM     23  C   UNL d   1     -11.459  -0.002   5.231 -0.36 +0.02    +0.066 A 
DOCKED: ATOM     24  C   UNL d   1     -11.915  -0.933   8.775 -0.49 +0.00    +0.051 C 
DOCKED: ATOM     25  N   UNL d   1      -9.767   0.842   2.927 -0.17 -0.08    -0.248 N 
DOCKED: ATOM     26  N   UNL d   1      -7.035   1.636   3.543 -0.15 -0.03    -0.248 N 
DOCKED: ATOM     27  N   UNL d   1      -7.477   1.018   6.270 -0.22 -0.03    -0.248 N 
DOCKED: ATOM     28  N   UNL d   1     -10.206   0.219   5.680 -0.27 -0.06    -0.248 N 
DOCKED: ATOM     29 FE   UNL d   1      -8.631   0.922   4.622 -0.08 +0.00    +0.000 Fe
DOCKED: ATOM     30  O   UNL d   1      -8.221  -0.217   3.643 -0.58 +0.00    +0.000 OA
DOCKED: ATOM     31  O   UNL d   1      -8.224  -0.484   5.196 -0.85 +0.00    +0.000 OA
DOCKED: ENDROOT
DOCKED: BRANCH   6  32
DOCKED: ATOM     32  C   UNL d   1     -12.793   0.093   0.900 -0.26 +0.06    +0.052 C 
DOCKED: BRANCH  32  33
DOCKED: ATOM     33  C   UNL d   1     -13.359  -1.144   1.591 -0.25 +0.12    +0.115 C 
DOCKED: BRANCH  33  34
DOCKED: ATOM     34  C   UNL d   1     -14.866  -1.118   1.672 -0.20 +0.17    +0.139 C 
DOCKED: ATOM     35  O   UNL d   1     -15.490  -0.274   1.049 -0.35 -1.13    -0.650 OA
DOCKED: BRANCH  34  36
DOCKED: ATOM     36  O   UNL d   1     -15.543  -1.993   2.444 +0.07 -0.76    -0.776 OA
DOCKED: ATOM     37  H   UNL d   1     -15.869  -1.756   3.320 +0.05 +0.13    +0.167 HD
DOCKED: ENDBRANCH  34  36
DOCKED: ENDBRANCH  33  34
DOCKED: ENDBRANCH  32  33
DOCKED: ENDBRANCH   6  32
DOCKED: BRANCH  22  38
DOCKED: ATOM     38  C   UNL d   1     -13.707  -0.918   6.188 -0.03 +0.01    +0.052 C 
DOCKED: BRANCH  38  39
DOCKED: ATOM     39  C   UNL d   1     -13.832  -2.439   6.121 -0.31 +0.03    +0.115 C 
DOCKED: BRANCH  39  40
DOCKED: ATOM     40  C   UNL d   1     -15.263  -2.905   6.222 -0.20 +0.05    +0.139 C 
DOCKED: ATOM     41  O   UNL d   1     -15.610  -3.593   7.169 +0.03 -0.17    -0.650 OA
DOCKED: BRANCH  40  42
DOCKED: ATOM     42  O   UNL d   1     -16.182  -2.533   5.311 +0.13 -0.37    -0.776 OA
DOCKED: ATOM     43  H   UNL d   1     -16.074  -2.734   4.374 +0.06 +0.10    +0.167 HD
DOCKED: ENDBRANCH  40  42
DOCKED: ENDBRANCH  39  40
DOCKED: ENDBRANCH  38  39
DOCKED: ENDBRANCH  22  38
DOCKED: BRANCH  12  44
DOCKED: ATOM     44  C   UNL d   1      -3.697   3.296   2.903 -0.46 -0.00    +0.004 C 
DOCKED: ATOM     45  C   UNL d   1      -2.913   3.616   3.933 -0.54 -0.00    +0.012 C 
DOCKED: ENDBRANCH  12  44
DOCKED: BRANCH  17  46
DOCKED: ATOM     46  C   UNL d   1      -6.832   0.334   9.862 -0.34 +0.00    +0.004 C 
DOCKED: ATOM     47  C   UNL d   1      -6.780  -0.915  10.343 -0.70 -0.00    +0.012 C 
DOCKED: ENDBRANCH  17  46
DOCKED: TORSDOF 10
DOCKED: TER
DOCKED: ENDMDL
________________________________________________________________________________


	BEGINNING GENETIC ALGORITHM DOCKING 52 of 100
Run: 52 Seed: 1595719720 164298647 [ Run 52 of 100 GA/GALS ]
Beginning LAMARCKIAN GENETIC ALGORITHM (LGA), with a maximum of 25000000 energy evaluations.

Final-Value: -12.295


	FINAL GENETIC ALGORITHM DOCKED STATE
	_______________________________________________


Detailed state:  trans -15.016 -0.735 1.256 quatxyzw 0.874680 -0.016188 0.461713 -0.146607 center 8.287 34.468 -0.670 ntor 10 149.8875 90.1273 94.0620 54.7529 178.0571 -51.6107 -60.7691 119.1210 179.7241 -172.3060
State:	-15.016  -0.735   1.256   0.884 -0.016  0.467 -163.139    149.89   90.13   94.06   54.75  178.06  -51.61  -60.77  119.12  179.72 -172.31

DOCKED: MODEL       52
DOCKED: USER    Run = 52
DOCKED: USER    DPF = D:/Protein_go_brrr/autodock/final/AncMH_nat/heme_O2/dock.dpf
DOCKED: USER  
DOCKED: USER    Estimated Free Energy of Binding    =   -7.22 kcal/mol  [=(1)+(2)+(3)-(4)]
DOCKED: USER    Estimated Inhibition Constant, Ki   =    5.13 uM (micromolar)  [Temperature = 298.15 K]
DOCKED: USER    
DOCKED: USER    (1) Final Intermolecular Energy     =  -10.20 kcal/mol
DOCKED: USER        vdW + Hbond + desolv Energy     =   -7.79 kcal/mol
DOCKED: USER        Electrostatic Energy            =   -2.41 kcal/mol
DOCKED: USER    (2) Final Total Internal Energy     =   -2.10 kcal/mol
DOCKED: USER    (3) Torsional Free Energy           =   +2.98 kcal/mol
DOCKED: USER    (4) Unbound System's Energy  [=(2)] =   -2.10 kcal/mol
DOCKED: USER    
DOCKED: USER    
DOCKED: USER    NEWDPF move heme_O2_opt.pdbqt
DOCKED: USER    NEWDPF about 8.287000 34.468000 -0.670000
DOCKED: USER    NEWDPF tran0 -15.016190 -0.734799 1.256316
DOCKED: USER    NEWDPF quaternion0 0.874680 -0.016188 0.461713 -0.146607
DOCKED: USER    NEWDPF axisangle0 0.884234 -0.016365 0.466757 -163.139277
DOCKED: USER    NEWDPF quat0 0.884234 -0.016365 0.466757 -163.139277
DOCKED: USER    NEWDPF dihe0 149.89 90.13 94.06 54.75 178.06 -51.61 -60.77 119.12 179.72 -172.31 
DOCKED: USER  keepresnum = 1 
DOCKED: USER  
DOCKED: REMARK  10 active torsions:
DOCKED: REMARK  status: ('A' for Active; 'I' for Inactive)
DOCKED: REMARK    1  A    between atoms: C_6  and  C_10 
DOCKED: REMARK    2  A    between atoms: C_10  and  C_11 
DOCKED: REMARK    3  A    between atoms: C_11  and  C_12 
DOCKED: REMARK    4  A    between atoms: C_12  and  O_14 
DOCKED: REMARK    5  A    between atoms: C_17  and  C_20 
DOCKED: REMARK    6  A    between atoms: C_24  and  C_27 
DOCKED: REMARK    7  A    between atoms: C_31  and  C_34 
DOCKED: REMARK    8  A    between atoms: C_34  and  C_35 
DOCKED: REMARK    9  A    between atoms: C_35  and  C_36 
DOCKED: REMARK   10  A    between atoms: C_36  and  O_38 
DOCKED: USER                              x       y       z     vdW  Elec       q    Type
DOCKED: USER                           _______ _______ _______ _____ _____    ______ ____
DOCKED: ROOT
DOCKED: ATOM      1  C   UNL d   1     -16.829  -1.294   0.307 -0.10 +0.07    +0.064 A 
DOCKED: ATOM      2  C   UNL d   1     -12.732   0.434  -1.364 -0.19 +0.06    +0.064 A 
DOCKED: ATOM      3  C   UNL d   1     -10.908   0.657   3.076 -0.34 +0.03    +0.064 C 
DOCKED: ATOM      4  C   UNL d   1     -14.944  -1.568   4.758 -0.13 +0.03    +0.064 A 
DOCKED: ATOM      5  C   UNL d   1     -15.863  -0.844  -0.510 -0.13 +0.09    +0.066 A 
DOCKED: ATOM      6  C   UNL d   1     -16.002  -0.724  -1.896 -0.12 -0.02    -0.021 A 
DOCKED: ATOM      7  C   UNL d   1     -14.802  -0.265  -2.386 -0.13 -0.02    -0.025 A 
DOCKED: ATOM      8  C   UNL d   1     -13.978  -0.070  -1.280 -0.14 +0.08    +0.066 A 
DOCKED: ATOM      9  C   UNL d   1     -14.486  -0.063  -3.852 -0.09 +0.03    +0.051 C 
DOCKED: ATOM     10  C   UNL d   1     -11.830   0.682  -0.239 -0.23 +0.05    +0.066 A 
DOCKED: ATOM     11  C   UNL d   1     -10.612   1.359  -0.364 -0.29 -0.01    -0.021 A 
DOCKED: ATOM     12  C   UNL d   1     -10.079   1.449   0.909 -0.32 +0.00    +0.000 A 
DOCKED: ATOM     13  C   UNL d   1     -11.018   0.797   1.755 -0.27 +0.04    +0.070 A 
DOCKED: ATOM     14  C   UNL d   1      -9.995   1.920  -1.640 -0.20 +0.01    +0.052 C 
DOCKED: ATOM     15  C   UNL d   1     -11.818  -0.027   3.963 -0.22 +0.03    +0.066 A 
DOCKED: ATOM     16  C   UNL d   1     -11.567  -0.281   5.311 -0.38 -0.01    -0.021 A 
DOCKED: ATOM     17  C   UNL d   1     -12.703  -0.916   5.812 -0.37 +0.00    +0.000 A 
DOCKED: ATOM     18  C   UNL d   1     -13.576  -1.000   4.717 -0.15 +0.03    +0.070 A 
DOCKED: ATOM     19  C   UNL d   1     -10.256   0.050   5.980 -0.43 +0.01    +0.052 C 
DOCKED: ATOM     20  C   UNL d   1     -15.790  -1.704   3.718 -0.12 +0.05    +0.066 A 
DOCKED: ATOM     21  C   UNL d   1     -17.075  -2.230   3.821 -0.06 -0.02    -0.025 A 
DOCKED: ATOM     22  C   UNL d   1     -17.637  -2.135   2.568 -0.05 -0.02    -0.021 A 
DOCKED: ATOM     23  C   UNL d   1     -16.664  -1.568   1.739 -0.10 +0.07    +0.066 A 
DOCKED: ATOM     24  C   UNL d   1     -17.731  -2.799   5.052 -0.08 +0.03    +0.051 C 
DOCKED: ATOM     25  N   UNL d   1     -14.610  -0.489  -0.132 -0.13 -0.37    -0.248 N 
DOCKED: ATOM     26  N   UNL d   1     -12.078   0.329   1.048 -0.15 -0.22    -0.248 N 
DOCKED: ATOM     27  N   UNL d   1     -12.993  -0.524   3.588 -0.17 -0.15    -0.248 N 
DOCKED: ATOM     28  N   UNL d   1     -15.527  -1.349   2.433 -0.10 -0.25    -0.248 N 
DOCKED: ATOM     29 FE   UNL d   1     -13.814  -0.516   1.748 -0.05 +0.00    +0.000 Fe
DOCKED: ATOM     30  O   UNL d   1     -13.180  -1.559   0.782 -0.14 +0.00    +0.000 OA
DOCKED: ATOM     31  O   UNL d   1     -13.460  -1.953   2.281 -0.45 +0.00    +0.000 OA
DOCKED: ENDROOT
DOCKED: BRANCH   6  32
DOCKED: ATOM     32  C   UNL d   1     -17.169  -1.154  -2.746 -0.06 +0.04    +0.052 C 
DOCKED: BRANCH  32  33
DOCKED: ATOM     33  C   UNL d   1     -16.971  -2.531  -3.372 -0.09 +0.09    +0.115 C 
DOCKED: BRANCH  33  34
DOCKED: ATOM     34  C   UNL d   1     -17.992  -3.533  -2.894 -0.05 +0.11    +0.139 C 
DOCKED: ATOM     35  O   UNL d   1     -19.090  -3.147  -2.525 +0.01 -0.35    -0.650 OA
DOCKED: BRANCH  34  36
DOCKED: ATOM     36  O   UNL d   1     -17.711  -4.852  -2.837 +0.13 -0.85    -0.776 OA
DOCKED: ATOM     37  H   UNL d   1     -18.123  -5.434  -2.189 +0.02 +0.18    +0.167 HD
DOCKED: ENDBRANCH  34  36
DOCKED: ENDBRANCH  33  34
DOCKED: ENDBRANCH  32  33
DOCKED: ENDBRANCH   6  32
DOCKED: BRANCH  22  38
DOCKED: ATOM     38  C   UNL d   1     -19.009  -2.623   2.181 -0.02 +0.03    +0.052 C 
DOCKED: BRANCH  38  39
DOCKED: ATOM     39  C   UNL d   1     -19.100  -4.147   2.160 -0.03 +0.07    +0.115 C 
DOCKED: BRANCH  39  40
DOCKED: ATOM     40  C   UNL d   1     -18.171  -4.766   1.146 -0.05 +0.13    +0.139 C 
DOCKED: ATOM     41  O   UNL d   1     -17.053  -5.121   1.484 -0.04 -0.90    -0.650 OA
DOCKED: BRANCH  40  42
DOCKED: ATOM     42  O   UNL d   1     -18.571  -4.984  -0.122 -0.05 -0.71    -0.776 OA
DOCKED: ATOM     43  H   UNL d   1     -18.418  -4.334  -0.818 +0.00 +0.15    +0.167 HD
DOCKED: ENDBRANCH  40  42
DOCKED: ENDBRANCH  39  40
DOCKED: ENDBRANCH  38  39
DOCKED: ENDBRANCH  22  38
DOCKED: BRANCH  12  44
DOCKED: ATOM     44  C   UNL d   1      -8.754   2.131   1.179 -0.31 +0.00    +0.004 C 
DOCKED: ATOM     45  C   UNL d   1      -7.539   1.585   1.186 -0.48 +0.00    +0.012 C 
DOCKED: ENDBRANCH  12  44
DOCKED: BRANCH  17  46
DOCKED: ATOM     46  C   UNL d   1     -13.000  -1.482   7.175 -0.40 +0.00    +0.004 C 
DOCKED: ATOM     47  C   UNL d   1     -12.813  -0.906   8.369 -0.51 +0.00    +0.012 C 
DOCKED: ENDBRANCH  17  46
DOCKED: TORSDOF 10
DOCKED: TER
DOCKED: ENDMDL
________________________________________________________________________________


	BEGINNING GENETIC ALGORITHM DOCKING 53 of 100
Run: 53 Seed: 703715487 2092388834 [ Run 53 of 100 GA/GALS ]
Beginning LAMARCKIAN GENETIC ALGORITHM (LGA), with a maximum of 25000000 energy evaluations.

Final-Value: -13.551


	FINAL GENETIC ALGORITHM DOCKED STATE
	_______________________________________________


Detailed state:  trans -13.488 -0.920 3.235 quatxyzw -0.283858 0.437139 0.331980 -0.786208 center 8.287 34.468 -0.670 ntor 10 -37.1249 -14.9351 43.5068 120.2944 -17.6440 137.2238 -34.1992 180.0000 -25.3573 178.7900
State:	-13.488  -0.920   3.235  -0.459  0.707  0.537 -76.335    -37.12  -14.94   43.51  120.29  -17.64  137.22  -34.20  180.00  -25.36  178.79

DOCKED: MODEL       53
DOCKED: USER    Run = 53
DOCKED: USER    DPF = D:/Protein_go_brrr/autodock/final/AncMH_nat/heme_O2/dock.dpf
DOCKED: USER  
DOCKED: USER    Estimated Free Energy of Binding    =   -9.90 kcal/mol  [=(1)+(2)+(3)-(4)]
DOCKED: USER    Estimated Inhibition Constant, Ki   =   55.27 nM (nanomolar)  [Temperature = 298.15 K]
DOCKED: USER    
DOCKED: USER    (1) Final Intermolecular Energy     =  -12.88 kcal/mol
DOCKED: USER        vdW + Hbond + desolv Energy     =  -10.66 kcal/mol
DOCKED: USER        Electrostatic Energy            =   -2.22 kcal/mol
DOCKED: USER    (2) Final Total Internal Energy     =   -0.67 kcal/mol
DOCKED: USER    (3) Torsional Free Energy           =   +2.98 kcal/mol
DOCKED: USER    (4) Unbound System's Energy  [=(2)] =   -0.67 kcal/mol
DOCKED: USER    
DOCKED: USER    
DOCKED: USER    NEWDPF move heme_O2_opt.pdbqt
DOCKED: USER    NEWDPF about 8.287000 34.468000 -0.670000
DOCKED: USER    NEWDPF tran0 -13.488279 -0.920478 3.234977
DOCKED: USER    NEWDPF quaternion0 -0.283858 0.437139 0.331980 -0.786208
DOCKED: USER    NEWDPF axisangle0 -0.459346 0.707388 0.537218 -76.334852
DOCKED: USER    NEWDPF quat0 -0.459346 0.707388 0.537218 -76.334852
DOCKED: USER    NEWDPF dihe0 -37.12 -14.94 43.51 120.29 -17.64 137.22 -34.20 180.00 -25.36 178.79 
DOCKED: USER  keepresnum = 1 
DOCKED: USER  
DOCKED: REMARK  10 active torsions:
DOCKED: REMARK  status: ('A' for Active; 'I' for Inactive)
DOCKED: REMARK    1  A    between atoms: C_6  and  C_10 
DOCKED: REMARK    2  A    between atoms: C_10  and  C_11 
DOCKED: REMARK    3  A    between atoms: C_11  and  C_12 
DOCKED: REMARK    4  A    between atoms: C_12  and  O_14 
DOCKED: REMARK    5  A    between atoms: C_17  and  C_20 
DOCKED: REMARK    6  A    between atoms: C_24  and  C_27 
DOCKED: REMARK    7  A    between atoms: C_31  and  C_34 
DOCKED: REMARK    8  A    between atoms: C_34  and  C_35 
DOCKED: REMARK    9  A    between atoms: C_35  and  C_36 
DOCKED: REMARK   10  A    between atoms: C_36  and  O_38 
DOCKED: USER                              x       y       z     vdW  Elec       q    Type
DOCKED: USER                           _______ _______ _______ _____ _____    ______ ____
DOCKED: ROOT
DOCKED: ATOM      1  C   UNL d   1     -15.094  -1.650   4.413 -0.14 +0.04    +0.064 A 
DOCKED: ATOM      2  C   UNL d   1     -10.678  -0.284   5.503 -0.35 +0.02    +0.064 A 
DOCKED: ATOM      3  C   UNL d   1      -9.726   0.643   0.884 -0.40 +0.02    +0.064 C 
DOCKED: ATOM      4  C   UNL d   1     -14.418  -0.305  -0.188 -0.15 +0.10    +0.064 A 
DOCKED: ATOM      5  C   UNL d   1     -13.971  -1.352   5.087 -0.10 +0.03    +0.066 A 
DOCKED: ATOM      6  C   UNL d   1     -13.822  -1.507   6.468 -0.30 -0.01    -0.021 A 
DOCKED: ATOM      7  C   UNL d   1     -12.559  -1.071   6.791 -0.34 -0.00    -0.025 A 
DOCKED: ATOM      8  C   UNL d   1     -11.953  -0.707   5.591 -0.32 +0.02    +0.066 A 
DOCKED: ATOM      9  C   UNL d   1     -12.002  -0.992   8.196 -0.41 +0.00    +0.051 C 
DOCKED: ATOM     10  C   UNL d   1      -9.981   0.090   4.271 -0.08 +0.02    +0.066 A 
DOCKED: ATOM     11  C   UNL d   1      -8.610   0.365   4.215 -0.02 -0.01    -0.021 A 
DOCKED: ATOM     12  C   UNL d   1      -8.313   0.617   2.889 -0.33 +0.00    +0.000 A 
DOCKED: ATOM     13  C   UNL d   1      -9.550   0.490   2.197 -0.32 +0.02    +0.070 A 
DOCKED: ATOM     14  C   UNL d   1      -7.620   0.361   5.374 -0.36 +0.01    +0.052 C 
DOCKED: ATOM     15  C   UNL d   1     -10.966   0.558   0.151 -0.28 +0.04    +0.066 A 
DOCKED: ATOM     16  C   UNL d   1     -11.113   0.889  -1.195 -0.28 -0.01    -0.021 A 
DOCKED: ATOM     17  C   UNL d   1     -12.443   0.628  -1.523 -0.22 +0.00    +0.000 A 
DOCKED: ATOM     18  C   UNL d   1     -13.015   0.148  -0.337 -0.17 +0.08    +0.070 A 
DOCKED: ATOM     19  C   UNL d   1      -9.996   1.472  -2.025 -0.19 +0.01    +0.052 C 
DOCKED: ATOM     20  C   UNL d   1     -15.011  -0.730   0.945 -0.14 +0.10    +0.066 A 
DOCKED: ATOM     21  C   UNL d   1     -16.332  -1.162   1.020 -0.14 -0.03    -0.025 A 
DOCKED: ATOM     22  C   UNL d   1     -16.534  -1.574   2.318 -0.11 -0.02    -0.021 A 
DOCKED: ATOM     23  C   UNL d   1     -15.329  -1.361   2.994 -0.16 +0.06    +0.066 A 
DOCKED: ATOM     24  C   UNL d   1     -17.351  -1.176  -0.090 -0.09 +0.05    +0.051 C 
DOCKED: ATOM     25  N   UNL d   1     -12.846  -0.819   4.550 -0.19 -0.10    -0.248 N 
DOCKED: ATOM     26  N   UNL d   1     -10.560   0.174   3.046 -0.11 -0.10    -0.248 N 
DOCKED: ATOM     27  N   UNL d   1     -12.124   0.183   0.687 -0.16 -0.23    -0.248 N 
DOCKED: ATOM     28  N   UNL d   1     -14.420  -0.806   2.167 -0.15 -0.28    -0.248 N 
DOCKED: ATOM     29 FE   UNL d   1     -12.504  -0.318   2.600 -0.06 +0.00    +0.000 Fe
DOCKED: ATOM     30  O   UNL d   1     -12.573   0.905   3.560 -0.40 +0.00    +0.000 OA
DOCKED: ATOM     31  O   UNL d   1     -13.230   0.995   2.131 -0.49 +0.00    +0.000 OA
DOCKED: ENDROOT
DOCKED: BRANCH   6  32
DOCKED: ATOM     32  C   UNL d   1     -14.871  -1.918   7.469 -0.33 +0.01    +0.052 C 
DOCKED: BRANCH  32  33
DOCKED: ATOM     33  C   UNL d   1     -15.477  -3.285   7.164 -0.27 +0.03    +0.115 C 
DOCKED: BRANCH  33  34
DOCKED: ATOM     34  C   UNL d   1     -15.782  -4.071   8.416 -0.39 +0.03    +0.139 C 
DOCKED: ATOM     35  O   UNL d   1     -16.072  -5.253   8.330 -0.22 -0.17    -0.650 OA
DOCKED: BRANCH  34  36
DOCKED: ATOM     36  O   UNL d   1     -15.769  -3.488   9.633 -0.35 -0.08    -0.776 OA
DOCKED: ATOM     37  H   UNL d   1     -15.129  -2.805   9.865 -0.42 -0.06    +0.167 HD
DOCKED: ENDBRANCH  34  36
DOCKED: ENDBRANCH  33  34
DOCKED: ENDBRANCH  32  33
DOCKED: ENDBRANCH   6  32
DOCKED: BRANCH  22  38
DOCKED: ATOM     38  C   UNL d   1     -17.834  -2.083   2.885 -0.05 +0.04    +0.052 C 
DOCKED: BRANCH  38  39
DOCKED: ATOM     39  C   UNL d   1     -18.804  -0.952   3.223 -0.08 +0.11    +0.115 C 
DOCKED: BRANCH  39  40
DOCKED: ATOM     40  C   UNL d   1     -18.223   0.410   2.936 -0.13 +0.22    +0.139 C 
DOCKED: ATOM     41  O   UNL d   1     -17.424   0.905   3.715 -0.05 -1.00    -0.650 OA
DOCKED: BRANCH  40  42
DOCKED: ATOM     42  O   UNL d   1     -18.532   1.073   1.805 -0.29 -1.42    -0.776 OA
DOCKED: ATOM     43  H   UNL d   1     -18.985   0.639   1.073 +0.03 +0.22    +0.167 HD
DOCKED: ENDBRANCH  40  42
DOCKED: ENDBRANCH  39  40
DOCKED: ENDBRANCH  38  39
DOCKED: ENDBRANCH  22  38
DOCKED: BRANCH  12  44
DOCKED: ATOM     44  C   UNL d   1      -6.909   0.949   2.428 -0.38 +0.00    +0.004 C 
DOCKED: ATOM     45  C   UNL d   1      -6.538   1.837   1.507 -0.47 +0.00    +0.012 C 
DOCKED: ENDBRANCH  12  44
DOCKED: BRANCH  17  46
DOCKED: ATOM     46  C   UNL d   1     -13.205   0.841  -2.804 -0.15 +0.00    +0.004 C 
DOCKED: ATOM     47  C   UNL d   1     -13.726  -0.083  -3.622 -0.14 +0.01    +0.012 C 
DOCKED: ENDBRANCH  17  46
DOCKED: TORSDOF 10
DOCKED: TER
DOCKED: ENDMDL
________________________________________________________________________________


	BEGINNING GENETIC ALGORITHM DOCKING 54 of 100
Run: 54 Seed: 1708663932 1262094138 [ Run 54 of 100 GA/GALS ]
Beginning LAMARCKIAN GENETIC ALGORITHM (LGA), with a maximum of 25000000 energy evaluations.

Final-Value: -18.693


	FINAL GENETIC ALGORITHM DOCKED STATE
	_______________________________________________


Detailed state:  trans -10.042 0.579 4.017 quatxyzw 0.886315 0.000073 0.431682 -0.167616 center 8.287 34.468 -0.670 ntor 10 68.2459 -153.6129 8.2682 -38.1465 33.8819 157.6018 8.4498 73.4883 -46.4953 154.3864
State:	-10.042   0.579   4.017   0.899  0.000  0.438 -160.702     68.25 -153.61    8.27  -38.15   33.88  157.60    8.45   73.49  -46.50  154.39

DOCKED: MODEL       54
DOCKED: USER    Run = 54
DOCKED: USER    DPF = D:/Protein_go_brrr/autodock/final/AncMH_nat/heme_O2/dock.dpf
DOCKED: USER  
DOCKED: USER    Estimated Free Energy of Binding    =  -13.80 kcal/mol  [=(1)+(2)+(3)-(4)]
DOCKED: USER    Estimated Inhibition Constant, Ki   =   77.26 pM (picomolar)  [Temperature = 298.15 K]
DOCKED: USER    
DOCKED: USER    (1) Final Intermolecular Energy     =  -16.78 kcal/mol
DOCKED: USER        vdW + Hbond + desolv Energy     =  -13.68 kcal/mol
DOCKED: USER        Electrostatic Energy            =   -3.10 kcal/mol
DOCKED: USER    (2) Final Total Internal Energy     =   -1.92 kcal/mol
DOCKED: USER    (3) Torsional Free Energy           =   +2.98 kcal/mol
DOCKED: USER    (4) Unbound System's Energy  [=(2)] =   -1.92 kcal/mol
DOCKED: USER    
DOCKED: USER    
DOCKED: USER    NEWDPF move heme_O2_opt.pdbqt
DOCKED: USER    NEWDPF about 8.287000 34.468000 -0.670000
DOCKED: USER    NEWDPF tran0 -10.042314 0.578577 4.017413
DOCKED: USER    NEWDPF quaternion0 0.886315 0.000073 0.431682 -0.167616
DOCKED: USER    NEWDPF axisangle0 0.899035 0.000074 0.437877 -160.701542
DOCKED: USER    NEWDPF quat0 0.899035 0.000074 0.437877 -160.701542
DOCKED: USER    NEWDPF dihe0 68.25 -153.61 8.27 -38.15 33.88 157.60 8.45 73.49 -46.50 154.39 
DOCKED: USER  keepresnum = 1 
DOCKED: USER  
DOCKED: REMARK  10 active torsions:
DOCKED: REMARK  status: ('A' for Active; 'I' for Inactive)
DOCKED: REMARK    1  A    between atoms: C_6  and  C_10 
DOCKED: REMARK    2  A    between atoms: C_10  and  C_11 
DOCKED: REMARK    3  A    between atoms: C_11  and  C_12 
DOCKED: REMARK    4  A    between atoms: C_12  and  O_14 
DOCKED: REMARK    5  A    between atoms: C_17  and  C_20 
DOCKED: REMARK    6  A    between atoms: C_24  and  C_27 
DOCKED: REMARK    7  A    between atoms: C_31  and  C_34 
DOCKED: REMARK    8  A    between atoms: C_34  and  C_35 
DOCKED: REMARK    9  A    between atoms: C_35  and  C_36 
DOCKED: REMARK   10  A    between atoms: C_36  and  O_38 
DOCKED: USER                              x       y       z     vdW  Elec       q    Type
DOCKED: USER                           _______ _______ _______ _____ _____    ______ ____
DOCKED: ROOT
DOCKED: ATOM      1  C   UNL d   1     -11.915  -0.023   3.222 -0.21 +0.03    +0.064 A 
DOCKED: ATOM      2  C   UNL d   1      -7.946   1.620   1.194 -0.38 +0.01    +0.064 A 
DOCKED: ATOM      3  C   UNL d   1      -5.822   2.051   5.483 -0.35 +0.00    +0.064 C 
DOCKED: ATOM      4  C   UNL d   1      -9.728  -0.088   7.541 -0.16 +0.01    +0.064 A 
DOCKED: ATOM      5  C   UNL d   1     -11.008   0.387   2.320 -0.28 +0.03    +0.066 A 
DOCKED: ATOM      6  C   UNL d   1     -11.243   0.441   0.943 -0.29 -0.01    -0.021 A 
DOCKED: ATOM      7  C   UNL d   1     -10.080   0.875   0.351 -0.35 -0.01    -0.025 A 
DOCKED: ATOM      8  C   UNL d   1      -9.183   1.121   1.387 -0.33 +0.02    +0.066 A 
DOCKED: ATOM      9  C   UNL d   1      -9.865   1.007  -1.141 -0.28 +0.01    +0.051 C 
DOCKED: ATOM     10  C   UNL d   1      -6.970   1.920   2.242 -0.33 +0.01    +0.066 A 
DOCKED: ATOM     11  C   UNL d   1      -5.764   2.589   2.001 -0.39 -0.00    -0.021 A 
DOCKED: ATOM     12  C   UNL d   1      -5.146   2.739   3.229 -0.39 +0.00    +0.000 A 
DOCKED: ATOM     13  C   UNL d   1      -6.023   2.128   4.168 -0.34 +0.00    +0.070 A 
DOCKED: ATOM     14  C   UNL d   1      -5.238   3.088   0.661 -0.48 -0.00    +0.052 C 
DOCKED: ATOM     15  C   UNL d   1      -6.668   1.411   6.462 -0.37 +0.00    +0.066 A 
DOCKED: ATOM     16  C   UNL d   1      -6.324   1.220   7.800 -0.45 -0.00    -0.021 A 
DOCKED: ATOM     17  C   UNL d   1      -7.422   0.611   8.407 -0.41 +0.00    +0.000 A 
DOCKED: ATOM     18  C   UNL d   1      -8.367   0.476   7.380 -0.38 +0.01    +0.070 A 
DOCKED: ATOM     19  C   UNL d   1      -4.971   1.582   8.361 -0.53 -0.00    +0.052 C 
DOCKED: ATOM     20  C   UNL d   1     -10.643  -0.272   6.570 -0.37 +0.01    +0.066 A 
DOCKED: ATOM     21  C   UNL d   1     -11.916  -0.792   6.786 -0.31 -0.00    -0.025 A 
DOCKED: ATOM     22  C   UNL d   1     -12.563  -0.755   5.571 -0.35 -0.01    -0.021 A 
DOCKED: ATOM     23  C   UNL d   1     -11.651  -0.229   4.651 -0.26 +0.02    +0.066 A 
DOCKED: ATOM     24  C   UNL d   1     -12.486  -1.301   8.084 -0.33 +0.00    +0.051 C 
DOCKED: ATOM     25  N   UNL d   1      -9.733   0.758   2.594 -0.19 -0.08    -0.248 N 
DOCKED: ATOM     26  N   UNL d   1      -7.127   1.629   3.558 -0.12 -0.04    -0.248 N 
DOCKED: ATOM     27  N   UNL d   1      -7.865   0.898   6.192 -0.14 -0.05    -0.248 N 
DOCKED: ATOM     28  N   UNL d   1     -10.470   0.022   5.254 -0.26 -0.07    -0.248 N 
DOCKED: ATOM     29 FE   UNL d   1      -8.810   0.819   4.415 -0.08 +0.00    +0.000 Fe
DOCKED: ATOM     30  O   UNL d   1      -8.241  -0.269   3.458 -0.53 +0.00    +0.000 OA
DOCKED: ATOM     31  O   UNL d   1      -8.417  -0.591   4.990 -0.86 +0.00    +0.000 OA
DOCKED: ENDROOT
DOCKED: BRANCH   6  32
DOCKED: ATOM     32  C   UNL d   1     -12.464  -0.028   0.196 -0.27 +0.05    +0.052 C 
DOCKED: BRANCH  32  33
DOCKED: ATOM     33  C   UNL d   1     -13.761   0.241   0.953 +0.06 +0.20    +0.115 C 
DOCKED: BRANCH  33  34
DOCKED: ATOM     34  C   UNL d   1     -14.962  -0.364   0.270 -0.08 +0.23    +0.139 C 
DOCKED: ATOM     35  O   UNL d   1     -15.850   0.364  -0.146 -0.23 -1.52    -0.650 OA
DOCKED: BRANCH  34  36
DOCKED: ATOM     36  O   UNL d   1     -15.094  -1.699   0.131 +0.10 -1.06    -0.776 OA
DOCKED: ATOM     37  H   UNL d   1     -15.245  -2.279   0.886 +0.03 +0.23    +0.167 HD
DOCKED: ENDBRANCH  34  36
DOCKED: ENDBRANCH  33  34
DOCKED: ENDBRANCH  32  33
DOCKED: ENDBRANCH   6  32
DOCKED: BRANCH  22  38
DOCKED: ATOM     38  C   UNL d   1     -13.958  -1.260   5.303 -0.06 +0.02    +0.052 C 
DOCKED: BRANCH  38  39
DOCKED: ATOM     39  C   UNL d   1     -13.961  -2.603   4.576 -0.25 +0.05    +0.115 C 
DOCKED: BRANCH  39  40
DOCKED: ATOM     40  C   UNL d   1     -14.389  -2.478   3.135 -0.20 +0.11    +0.139 C 
DOCKED: ATOM     41  O   UNL d   1     -15.479  -2.000   2.866 +0.04 -0.57    -0.650 OA
DOCKED: BRANCH  40  42
DOCKED: ATOM     42  O   UNL d   1     -13.566  -2.838   2.131 -0.40 -0.98    -0.776 OA
DOCKED: ATOM     43  H   UNL d   1     -13.612  -2.415   1.265 +0.04 +0.24    +0.167 HD
DOCKED: ENDBRANCH  40  42
DOCKED: ENDBRANCH  39  40
DOCKED: ENDBRANCH  38  39
DOCKED: ENDBRANCH  22  38
DOCKED: BRANCH  12  44
DOCKED: ATOM     44  C   UNL d   1      -3.807   3.431   3.375 -0.47 -0.00    +0.004 C 
DOCKED: ATOM     45  C   UNL d   1      -3.077   3.577   4.480 -0.57 -0.00    +0.012 C 
DOCKED: ENDBRANCH  12  44
DOCKED: BRANCH  17  46
DOCKED: ATOM     46  C   UNL d   1      -7.623   0.111   9.812 -0.23 +0.00    +0.004 C 
DOCKED: ATOM     47  C   UNL d   1      -6.782  -0.613  10.562 -0.68 +0.00    +0.012 C 
DOCKED: ENDBRANCH  17  46
DOCKED: TORSDOF 10
DOCKED: TER
DOCKED: ENDMDL
________________________________________________________________________________


	BEGINNING GENETIC ALGORITHM DOCKING 55 of 100
Run: 55 Seed: 784169176 1640185415 [ Run 55 of 100 GA/GALS ]
Beginning LAMARCKIAN GENETIC ALGORITHM (LGA), with a maximum of 25000000 energy evaluations.

Final-Value: -10.661


	FINAL GENETIC ALGORITHM DOCKED STATE
	_______________________________________________


Detailed state:  trans -13.868 7.962 -3.252 quatxyzw -0.860023 -0.076693 0.426669 -0.269131 center 8.287 34.468 -0.670 ntor 10 71.0485 59.3001 -39.7995 -63.0026 87.5979 84.7789 -63.3122 -15.9651 -168.9405 -34.5780
State:	-13.868   7.962  -3.252  -0.893 -0.080  0.443 -148.775     71.05   59.30  -39.80  -63.00   87.60   84.78  -63.31  -15.97 -168.94  -34.58

DOCKED: MODEL       55
DOCKED: USER    Run = 55
DOCKED: USER    DPF = D:/Protein_go_brrr/autodock/final/AncMH_nat/heme_O2/dock.dpf
DOCKED: USER  
DOCKED: USER    Estimated Free Energy of Binding    =   -7.21 kcal/mol  [=(1)+(2)+(3)-(4)]
DOCKED: USER    Estimated Inhibition Constant, Ki   =    5.16 uM (micromolar)  [Temperature = 298.15 K]
DOCKED: USER    
DOCKED: USER    (1) Final Intermolecular Energy     =  -10.20 kcal/mol
DOCKED: USER        vdW + Hbond + desolv Energy     =   -7.05 kcal/mol
DOCKED: USER        Electrostatic Energy            =   -3.14 kcal/mol
DOCKED: USER    (2) Final Total Internal Energy     =   -0.46 kcal/mol
DOCKED: USER    (3) Torsional Free Energy           =   +2.98 kcal/mol
DOCKED: USER    (4) Unbound System's Energy  [=(2)] =   -0.46 kcal/mol
DOCKED: USER    
DOCKED: USER    
DOCKED: USER    NEWDPF move heme_O2_opt.pdbqt
DOCKED: USER    NEWDPF about 8.287000 34.468000 -0.670000
DOCKED: USER    NEWDPF tran0 -13.867911 7.962163 -3.251650
DOCKED: USER    NEWDPF quaternion0 -0.860023 -0.076693 0.426669 -0.269131
DOCKED: USER    NEWDPF axisangle0 -0.892971 -0.079631 0.443015 -148.774876
DOCKED: USER    NEWDPF quat0 -0.892971 -0.079631 0.443015 -148.774876
DOCKED: USER    NEWDPF dihe0 71.05 59.30 -39.80 -63.00 87.60 84.78 -63.31 -15.97 -168.94 -34.58 
DOCKED: USER  keepresnum = 1 
DOCKED: USER  
DOCKED: REMARK  10 active torsions:
DOCKED: REMARK  status: ('A' for Active; 'I' for Inactive)
DOCKED: REMARK    1  A    between atoms: C_6  and  C_10 
DOCKED: REMARK    2  A    between atoms: C_10  and  C_11 
DOCKED: REMARK    3  A    between atoms: C_11  and  C_12 
DOCKED: REMARK    4  A    between atoms: C_12  and  O_14 
DOCKED: REMARK    5  A    between atoms: C_17  and  C_20 
DOCKED: REMARK    6  A    between atoms: C_24  and  C_27 
DOCKED: REMARK    7  A    between atoms: C_31  and  C_34 
DOCKED: REMARK    8  A    between atoms: C_34  and  C_35 
DOCKED: REMARK    9  A    between atoms: C_35  and  C_36 
DOCKED: REMARK   10  A    between atoms: C_36  and  O_38 
DOCKED: USER                              x       y       z     vdW  Elec       q    Type
DOCKED: USER                           _______ _______ _______ _____ _____    ______ ____
DOCKED: ROOT
DOCKED: ATOM      1  C   UNL d   1     -14.474   6.460  -1.882 -0.20 +0.03    +0.064 A 
DOCKED: ATOM      2  C   UNL d   1     -16.347  10.658  -3.075 -0.07 -0.00    +0.064 A 
DOCKED: ATOM      3  C   UNL d   1     -12.745  11.498  -6.143 -0.20 -0.01    +0.064 C 
DOCKED: ATOM      4  C   UNL d   1     -11.061   6.972  -5.278 -0.21 -0.02    +0.064 A 
DOCKED: ATOM      5  C   UNL d   1     -15.278   7.533  -1.957 -0.17 +0.02    +0.066 A 
DOCKED: ATOM      6  C   UNL d   1     -16.439   7.696  -1.196 -0.16 -0.01    -0.021 A 
DOCKED: ATOM      7  C   UNL d   1     -17.006   8.891  -1.572 -0.10 -0.00    -0.025 A 
DOCKED: ATOM      8  C   UNL d   1     -16.150   9.448  -2.518 -0.06 +0.00    +0.066 A 
DOCKED: ATOM      9  C   UNL d   1     -18.321   9.427  -1.051 -0.06 +0.00    +0.051 C 
DOCKED: ATOM     10  C   UNL d   1     -15.473  11.305  -4.055 -0.06 -0.00    +0.066 A 
DOCKED: ATOM     11  C   UNL d   1     -15.637  12.629  -4.477 -0.10 +0.00    -0.021 A 
DOCKED: ATOM     12  C   UNL d   1     -14.597  12.895  -5.349 -0.12 -0.00    +0.000 A 
DOCKED: ATOM     13  C   UNL d   1     -13.848  11.688  -5.419 -0.13 -0.00    +0.070 A 
DOCKED: ATOM     14  C   UNL d   1     -16.724  13.607  -4.047 -0.05 -0.00    +0.052 C 
DOCKED: ATOM     15  C   UNL d   1     -11.978  10.282  -6.269 -0.21 -0.01    +0.066 A 
DOCKED: ATOM     16  C   UNL d   1     -10.929  10.099  -7.169 -0.27 +0.00    -0.021 A 
DOCKED: ATOM     17  C   UNL d   1     -10.434   8.815  -6.942 -0.28 -0.00    +0.000 A 
DOCKED: ATOM     18  C   UNL d   1     -11.228   8.305  -5.904 -0.24 -0.02    +0.070 A 
DOCKED: ATOM     19  C   UNL d   1     -10.534  11.133  -8.193 -0.29 -0.01    +0.052 C 
DOCKED: ATOM     20  C   UNL d   1     -11.831   6.436  -4.311 -0.16 -0.01    +0.066 A 
DOCKED: ATOM     21  C   UNL d   1     -11.615   5.181  -3.748 -0.16 +0.00    -0.025 A 
DOCKED: ATOM     22  C   UNL d   1     -12.562   5.030  -2.759 -0.15 -0.01    -0.021 A 
DOCKED: ATOM     23  C   UNL d   1     -13.335   6.195  -2.768 -0.16 +0.02    +0.066 A 
DOCKED: ATOM     24  C   UNL d   1     -10.561   4.177  -4.135 -0.25 -0.02    +0.051 C 
DOCKED: ATOM     25  N   UNL d   1     -15.120   8.581  -2.802 -0.07 -0.03    -0.248 N 
DOCKED: ATOM     26  N   UNL d   1     -14.390  10.724  -4.632 -0.04 -0.00    -0.248 N 
DOCKED: ATOM     27  N   UNL d   1     -12.207   9.180  -5.560 -0.13 +0.03    -0.248 N 
DOCKED: ATOM     28  N   UNL d   1     -12.916   7.028  -3.743 -0.10 -0.01    -0.248 N 
DOCKED: ATOM     29 FE   UNL d   1     -13.646   8.863  -4.187 -0.05 +0.00    +0.000 Fe
DOCKED: ATOM     30  O   UNL d   1     -15.055   8.632  -4.807 -0.10 +0.00    +0.000 OA
DOCKED: ATOM     31  O   UNL d   1     -13.789   7.974  -5.476 -0.10 -0.00    +0.000 OA
DOCKED: ENDROOT
DOCKED: BRANCH   6  32
DOCKED: ATOM     32  C   UNL d   1     -17.070   6.706  -0.251 -0.18 +0.03    +0.052 C 
DOCKED: BRANCH  32  33
DOCKED: ATOM     33  C   UNL d   1     -17.989   5.715  -0.958 -0.09 +0.08    +0.115 C 
DOCKED: BRANCH  33  34
DOCKED: ATOM     34  C   UNL d   1     -17.471   4.299  -0.889 -0.00 +0.18    +0.139 C 
DOCKED: ATOM     35  O   UNL d   1     -16.409   4.019  -1.423 -0.50 -1.11    -0.650 OA
DOCKED: BRANCH  34  36
DOCKED: ATOM     36  O   UNL d   1     -18.169   3.324  -0.272 +0.00 -1.10    -0.776 OA
DOCKED: ATOM     37  H   UNL d   1     -18.981   2.962  -0.645 +0.02 +0.17    +0.167 HD
DOCKED: ENDBRANCH  34  36
DOCKED: ENDBRANCH  33  34
DOCKED: ENDBRANCH  32  33
DOCKED: ENDBRANCH   6  32
DOCKED: BRANCH  22  38
DOCKED: ATOM     38  C   UNL d   1     -12.747   3.805  -1.901 -0.19 +0.04    +0.052 C 
DOCKED: BRANCH  38  39
DOCKED: ATOM     39  C   UNL d   1     -11.574   3.577  -0.951 -0.09 +0.07    +0.115 C 
DOCKED: BRANCH  39  40
DOCKED: ATOM     40  C   UNL d   1     -11.917   2.629   0.171 -0.21 +0.15    +0.139 C 
DOCKED: ATOM     41  O   UNL d   1     -11.660   2.937   1.324 -0.20 -0.59    -0.650 OA
DOCKED: BRANCH  40  42
DOCKED: ATOM     42  O   UNL d   1     -12.553   1.466  -0.069 -0.35 -1.13    -0.776 OA
DOCKED: ATOM     43  H   UNL d   1     -12.158   0.780  -0.621 +0.07 +0.15    +0.167 HD
DOCKED: ENDBRANCH  40  42
DOCKED: ENDBRANCH  39  40
DOCKED: ENDBRANCH  38  39
DOCKED: ENDBRANCH  22  38
DOCKED: BRANCH  12  44
DOCKED: ATOM     44  C   UNL d   1     -14.432  14.246  -6.014 -0.09 -0.00    +0.004 C 
DOCKED: ATOM     45  C   UNL d   1     -13.312  14.952  -6.165 -0.13 +0.00    +0.012 C 
DOCKED: ENDBRANCH  12  44
DOCKED: BRANCH  17  46
DOCKED: ATOM     46  C   UNL d   1      -9.350   8.036  -7.638 -0.35 -0.00    +0.004 C 
DOCKED: ATOM     47  C   UNL d   1      -9.364   7.520  -8.874 -0.35 -0.01    +0.012 C 
DOCKED: ENDBRANCH  17  46
DOCKED: TORSDOF 10
DOCKED: TER
DOCKED: ENDMDL
________________________________________________________________________________


	BEGINNING GENETIC ALGORITHM DOCKING 56 of 100
Run: 56 Seed: 113298125 2086033347 [ Run 56 of 100 GA/GALS ]
Beginning LAMARCKIAN GENETIC ALGORITHM (LGA), with a maximum of 25000000 energy evaluations.

Final-Value: -11.847


	FINAL GENETIC ALGORITHM DOCKED STATE
	_______________________________________________


Detailed state:  trans -14.124 2.314 -2.493 quatxyzw 0.009951 -0.461957 -0.695488 0.550266 center 8.287 34.468 -0.670 ntor 10 35.0080 -22.1736 -49.0496 -107.7660 -156.7361 -54.1741 -50.3916 155.3528 -177.6138 179.9769
State:	-14.124   2.314  -2.493   0.012 -0.553 -0.833 113.229     35.01  -22.17  -49.05 -107.77 -156.74  -54.17  -50.39  155.35 -177.61  179.98

DOCKED: MODEL       56
DOCKED: USER    Run = 56
DOCKED: USER    DPF = D:/Protein_go_brrr/autodock/final/AncMH_nat/heme_O2/dock.dpf
DOCKED: USER  
DOCKED: USER    Estimated Free Energy of Binding    =   -7.08 kcal/mol  [=(1)+(2)+(3)-(4)]
DOCKED: USER    Estimated Inhibition Constant, Ki   =    6.43 uM (micromolar)  [Temperature = 298.15 K]
DOCKED: USER    
DOCKED: USER    (1) Final Intermolecular Energy     =  -10.07 kcal/mol
DOCKED: USER        vdW + Hbond + desolv Energy     =   -6.55 kcal/mol
DOCKED: USER        Electrostatic Energy            =   -3.52 kcal/mol
DOCKED: USER    (2) Final Total Internal Energy     =   -1.78 kcal/mol
DOCKED: USER    (3) Torsional Free Energy           =   +2.98 kcal/mol
DOCKED: USER    (4) Unbound System's Energy  [=(2)] =   -1.78 kcal/mol
DOCKED: USER    
DOCKED: USER    
DOCKED: USER    NEWDPF move heme_O2_opt.pdbqt
DOCKED: USER    NEWDPF about 8.287000 34.468000 -0.670000
DOCKED: USER    NEWDPF tran0 -14.124474 2.313584 -2.493184
DOCKED: USER    NEWDPF quaternion0 0.009951 -0.461957 -0.695488 0.550266
DOCKED: USER    NEWDPF axisangle0 0.011917 -0.553249 -0.832931 113.229493
DOCKED: USER    NEWDPF quat0 0.011917 -0.553249 -0.832931 113.229493
DOCKED: USER    NEWDPF dihe0 35.01 -22.17 -49.05 -107.77 -156.74 -54.17 -50.39 155.35 -177.61 179.98 
DOCKED: USER  keepresnum = 1 
DOCKED: USER  
DOCKED: REMARK  10 active torsions:
DOCKED: REMARK  status: ('A' for Active; 'I' for Inactive)
DOCKED: REMARK    1  A    between atoms: C_6  and  C_10 
DOCKED: REMARK    2  A    between atoms: C_10  and  C_11 
DOCKED: REMARK    3  A    between atoms: C_11  and  C_12 
DOCKED: REMARK    4  A    between atoms: C_12  and  O_14 
DOCKED: REMARK    5  A    between atoms: C_17  and  C_20 
DOCKED: REMARK    6  A    between atoms: C_24  and  C_27 
DOCKED: REMARK    7  A    between atoms: C_31  and  C_34 
DOCKED: REMARK    8  A    between atoms: C_34  and  C_35 
DOCKED: REMARK    9  A    between atoms: C_35  and  C_36 
DOCKED: REMARK   10  A    between atoms: C_36  and  O_38 
DOCKED: USER                              x       y       z     vdW  Elec       q    Type
DOCKED: USER                           _______ _______ _______ _____ _____    ______ ____
DOCKED: ROOT
DOCKED: ATOM      1  C   UNL d   1     -14.249   0.396  -1.595 -0.13 +0.08    +0.064 A 
DOCKED: ATOM      2  C   UNL d   1     -10.767   3.619  -1.807 -0.08 +0.02    +0.064 A 
DOCKED: ATOM      3  C   UNL d   1     -13.516   6.552  -4.440 -0.10 +0.00    +0.064 C 
DOCKED: ATOM      4  C   UNL d   1     -17.269   3.453  -3.826 -0.01 +0.03    +0.064 A 
DOCKED: ATOM      5  C   UNL d   1     -13.078   1.034  -1.436 -0.15 +0.07    +0.066 A 
DOCKED: ATOM      6  C   UNL d   1     -11.986   0.504  -0.743 -0.25 -0.02    -0.021 A 
DOCKED: ATOM      7  C   UNL d   1     -10.992   1.455  -0.767 -0.27 -0.01    -0.025 A 
DOCKED: ATOM      8  C   UNL d   1     -11.488   2.519  -1.515 -0.19 +0.03    +0.066 A 
DOCKED: ATOM      9  C   UNL d   1      -9.655   1.327  -0.070 -0.38 +0.01    +0.051 C 
DOCKED: ATOM     10  C   UNL d   1     -11.224   4.757  -2.605 -0.19 +0.01    +0.066 A 
DOCKED: ATOM     11  C   UNL d   1     -10.383   5.797  -3.015 -0.33 +0.00    -0.021 A 
DOCKED: ATOM     12  C   UNL d   1     -11.153   6.644  -3.791 -0.29 -0.00    +0.000 A 
DOCKED: ATOM     13  C   UNL d   1     -12.453   6.066  -3.800 -0.12 +0.00    +0.070 A 
DOCKED: ATOM     14  C   UNL d   1      -8.900   5.962  -2.703 -0.46 -0.01    +0.052 C 
DOCKED: ATOM     15  C   UNL d   1     -14.856   6.016  -4.446 -0.03 +0.01    +0.066 A 
DOCKED: ATOM     16  C   UNL d   1     -15.962   6.660  -5.000 -0.02 -0.00    -0.021 A 
DOCKED: ATOM     17  C   UNL d   1     -17.044   5.795  -4.836 -0.00 +0.00    +0.000 A 
DOCKED: ATOM     18  C   UNL d   1     -16.509   4.673  -4.187 -0.01 +0.02    +0.070 A 
DOCKED: ATOM     19  C   UNL d   1     -15.900   8.050  -5.580 -0.03 +0.00    +0.052 C 
DOCKED: ATOM     20  C   UNL d   1     -16.797   2.378  -3.165 -0.03 +0.05    +0.066 A 
DOCKED: ATOM     21  C   UNL d   1     -17.557   1.249  -2.868 -0.02 -0.02    -0.025 A 
DOCKED: ATOM     22  C   UNL d   1     -16.705   0.356  -2.257 -0.05 -0.02    -0.021 A 
DOCKED: ATOM     23  C   UNL d   1     -15.457   0.983  -2.186 -0.07 +0.08    +0.066 A 
DOCKED: ATOM     24  C   UNL d   1     -19.021   1.035  -3.151 +0.01 +0.02    +0.051 C 
DOCKED: ATOM     25  N   UNL d   1     -12.796   2.287  -1.871 -0.08 -0.22    -0.248 N 
DOCKED: ATOM     26  N   UNL d   1     -12.488   4.921  -3.073 -0.06 -0.05    -0.248 N 
DOCKED: ATOM     27  N   UNL d   1     -15.197   4.856  -3.892 -0.01 -0.08    -0.248 N 
DOCKED: ATOM     28  N   UNL d   1     -15.529   2.229  -2.699 -0.04 -0.25    -0.248 N 
DOCKED: ATOM     29 FE   UNL d   1     -14.022   3.567  -2.886 -0.02 +0.00    +0.000 Fe
DOCKED: ATOM     30  O   UNL d   1     -13.677   4.038  -1.443 -0.30 +0.00    +0.000 OA
DOCKED: ATOM     31  O   UNL d   1     -15.137   4.234  -2.001 -0.63 +0.00    +0.000 OA
DOCKED: ENDROOT
DOCKED: BRANCH   6  32
DOCKED: ATOM     32  C   UNL d   1     -11.922  -0.787   0.030 +0.13 +0.04    +0.052 C 
DOCKED: BRANCH  32  33
DOCKED: ATOM     33  C   UNL d   1     -12.222  -0.604   1.515 -0.24 +0.09    +0.115 C 
DOCKED: BRANCH  33  34
DOCKED: ATOM     34  C   UNL d   1     -13.303  -1.537   2.002 -0.24 +0.13    +0.139 C 
DOCKED: ATOM     35  O   UNL d   1     -13.207  -2.735   1.790 -0.66 -0.87    -0.650 OA
DOCKED: BRANCH  34  36
DOCKED: ATOM     36  O   UNL d   1     -14.393  -1.074   2.647 +0.06 -0.74    -0.776 OA
DOCKED: ATOM     37  H   UNL d   1     -14.801  -0.230   2.421 +0.05 +0.21    +0.167 HD
DOCKED: ENDBRANCH  34  36
DOCKED: ENDBRANCH  33  34
DOCKED: ENDBRANCH  32  33
DOCKED: ENDBRANCH   6  32
DOCKED: BRANCH  22  38
DOCKED: ATOM     38  C   UNL d   1     -17.092  -0.995  -1.715 -0.08 +0.05    +0.052 C 
DOCKED: BRANCH  38  39
DOCKED: ATOM     39  C   UNL d   1     -17.801  -0.900  -0.366 -0.05 +0.11    +0.115 C 
DOCKED: BRANCH  39  40
DOCKED: ATOM     40  C   UNL d   1     -17.426   0.346   0.396 +0.04 +0.22    +0.139 C 
DOCKED: ATOM     41  O   UNL d   1     -18.081   1.366   0.250 -0.12 -1.05    -0.650 OA
DOCKED: BRANCH  40  42
DOCKED: ATOM     42  O   UNL d   1     -16.408   0.343   1.278 -0.39 -1.71    -0.776 OA
DOCKED: ATOM     43  H   UNL d   1     -16.072  -0.478   1.657 +0.04 +0.24    +0.167 HD
DOCKED: ENDBRANCH  40  42
DOCKED: ENDBRANCH  39  40
DOCKED: ENDBRANCH  38  39
DOCKED: ENDBRANCH  22  38
DOCKED: BRANCH  12  44
DOCKED: ATOM     44  C   UNL d   1     -10.581   7.894  -4.427 -0.41 -0.00    +0.004 C 
DOCKED: ATOM     45  C   UNL d   1     -10.627   8.254  -5.709 -0.37 -0.00    +0.012 C 
DOCKED: ENDBRANCH  12  44
DOCKED: BRANCH  17  46
DOCKED: ATOM     46  C   UNL d   1     -18.501   5.960  -5.176 +0.00 +0.00    +0.004 C 
DOCKED: ATOM     47  C   UNL d   1     -19.546   6.020  -4.340 +0.00 +0.00    +0.012 C 
DOCKED: ENDBRANCH  17  46
DOCKED: TORSDOF 10
DOCKED: TER
DOCKED: ENDMDL
________________________________________________________________________________


	BEGINNING GENETIC ALGORITHM DOCKING 57 of 100
Run: 57 Seed: 632171038 1963341511 [ Run 57 of 100 GA/GALS ]
Beginning LAMARCKIAN GENETIC ALGORITHM (LGA), with a maximum of 25000000 energy evaluations.

Final-Value: -14.046


	FINAL GENETIC ALGORITHM DOCKED STATE
	_______________________________________________


Detailed state:  trans -7.596 1.392 4.975 quatxyzw -0.352251 -0.456467 0.776813 0.253216 center 8.287 34.468 -0.670 ntor 10 -97.5461 -170.2446 103.0522 36.0531 49.4087 111.7167 172.6715 -11.4221 -178.2436 -153.8688
State:	 -7.596   1.392   4.975  -0.364 -0.472  0.803 150.664    -97.55 -170.24  103.05   36.05   49.41  111.72  172.67  -11.42 -178.24 -153.87

DOCKED: MODEL       57
DOCKED: USER    Run = 57
DOCKED: USER    DPF = D:/Protein_go_brrr/autodock/final/AncMH_nat/heme_O2/dock.dpf
DOCKED: USER  
DOCKED: USER    Estimated Free Energy of Binding    =  -10.53 kcal/mol  [=(1)+(2)+(3)-(4)]
DOCKED: USER    Estimated Inhibition Constant, Ki   =   19.16 nM (nanomolar)  [Temperature = 298.15 K]
DOCKED: USER    
DOCKED: USER    (1) Final Intermolecular Energy     =  -13.51 kcal/mol
DOCKED: USER        vdW + Hbond + desolv Energy     =  -13.64 kcal/mol
DOCKED: USER        Electrostatic Energy            =   +0.12 kcal/mol
DOCKED: USER    (2) Final Total Internal Energy     =   -0.53 kcal/mol
DOCKED: USER    (3) Torsional Free Energy           =   +2.98 kcal/mol
DOCKED: USER    (4) Unbound System's Energy  [=(2)] =   -0.53 kcal/mol
DOCKED: USER    
DOCKED: USER    
DOCKED: USER    NEWDPF move heme_O2_opt.pdbqt
DOCKED: USER    NEWDPF about 8.287000 34.468000 -0.670000
DOCKED: USER    NEWDPF tran0 -7.595613 1.392276 4.974698
DOCKED: USER    NEWDPF quaternion0 -0.352251 -0.456467 0.776813 0.253216
DOCKED: USER    NEWDPF axisangle0 -0.364118 -0.471845 0.802982 150.664174
DOCKED: USER    NEWDPF quat0 -0.364118 -0.471845 0.802982 150.664174
DOCKED: USER    NEWDPF dihe0 -97.55 -170.24 103.05 36.05 49.41 111.72 172.67 -11.42 -178.24 -153.87 
DOCKED: USER  keepresnum = 1 
DOCKED: USER  
DOCKED: REMARK  10 active torsions:
DOCKED: REMARK  status: ('A' for Active; 'I' for Inactive)
DOCKED: REMARK    1  A    between atoms: C_6  and  C_10 
DOCKED: REMARK    2  A    between atoms: C_10  and  C_11 
DOCKED: REMARK    3  A    between atoms: C_11  and  C_12 
DOCKED: REMARK    4  A    between atoms: C_12  and  O_14 
DOCKED: REMARK    5  A    between atoms: C_17  and  C_20 
DOCKED: REMARK    6  A    between atoms: C_24  and  C_27 
DOCKED: REMARK    7  A    between atoms: C_31  and  C_34 
DOCKED: REMARK    8  A    between atoms: C_34  and  C_35 
DOCKED: REMARK    9  A    between atoms: C_35  and  C_36 
DOCKED: REMARK   10  A    between atoms: C_36  and  O_38 
DOCKED: USER                              x       y       z     vdW  Elec       q    Type
DOCKED: USER                           _______ _______ _______ _____ _____    ______ ____
DOCKED: ROOT
DOCKED: ATOM      1  C   UNL d   1      -5.746   1.963   5.843 -0.26 +0.00    +0.064 A 
DOCKED: ATOM      2  C   UNL d   1      -9.600  -0.171   7.618 -0.09 +0.01    +0.064 A 
DOCKED: ATOM      3  C   UNL d   1     -11.815   0.083   3.360 -0.26 +0.03    +0.064 C 
DOCKED: ATOM      4  C   UNL d   1      -7.676   1.846   1.404 -0.36 +0.01    +0.064 A 
DOCKED: ATOM      5  C   UNL d   1      -6.613   1.360   6.672 -0.38 +0.00    +0.066 A 
DOCKED: ATOM      6  C   UNL d   1      -6.361   1.115   8.025 -0.46 -0.00    -0.021 A 
DOCKED: ATOM      7  C   UNL d   1      -7.458   0.458   8.530 -0.40 -0.00    -0.025 A 
DOCKED: ATOM      8  C   UNL d   1      -8.371   0.363   7.483 -0.39 +0.01    +0.066 A 
DOCKED: ATOM      9  C   UNL d   1      -7.579  -0.065   9.944 -0.32 +0.00    +0.051 C 
DOCKED: ATOM     10  C   UNL d   1     -10.609  -0.278   6.563 -0.36 +0.01    +0.066 A 
DOCKED: ATOM     11  C   UNL d   1     -11.926  -0.691   6.796 -0.34 -0.00    -0.021 A 
DOCKED: ATOM     12  C   UNL d   1     -12.585  -0.607   5.584 -0.34 +0.00    +0.000 A 
DOCKED: ATOM     13  C   UNL d   1     -11.609  -0.149   4.656 -0.27 +0.02    +0.070 A 
DOCKED: ATOM     14  C   UNL d   1     -12.536  -1.121   8.125 -0.46 +0.00    +0.052 C 
DOCKED: ATOM     15  C   UNL d   1     -10.845   0.513   2.382 -0.28 +0.03    +0.066 A 
DOCKED: ATOM     16  C   UNL d   1     -11.083   0.579   1.009 -0.30 -0.01    -0.021 A 
DOCKED: ATOM     17  C   UNL d   1      -9.917   1.079   0.431 -0.36 +0.00    +0.000 A 
DOCKED: ATOM     18  C   UNL d   1      -9.043   1.284   1.508 -0.32 +0.02    +0.070 A 
DOCKED: ATOM     19  C   UNL d   1     -12.369   0.114   0.374 -0.28 +0.05    +0.052 C 
DOCKED: ATOM     20  C   UNL d   1      -6.797   2.016   2.411 -0.34 +0.01    +0.066 A 
DOCKED: ATOM     21  C   UNL d   1      -5.529   2.567   2.255 -0.38 -0.00    -0.025 A 
DOCKED: ATOM     22  C   UNL d   1      -4.974   2.634   3.513 -0.36 +0.00    -0.021 A 
DOCKED: ATOM     23  C   UNL d   1      -5.922   2.101   4.392 -0.33 +0.00    +0.066 A 
DOCKED: ATOM     24  C   UNL d   1      -4.877   3.006   0.969 -0.48 -0.00    +0.051 C 
DOCKED: ATOM     25  N   UNL d   1      -7.824   0.861   6.323 -0.20 -0.04    -0.248 N 
DOCKED: ATOM     26  N   UNL d   1     -10.408   0.044   5.260 -0.26 -0.07    -0.248 N 
DOCKED: ATOM     27  N   UNL d   1      -9.597   0.865   2.675 -0.18 -0.08    -0.248 N 
DOCKED: ATOM     28  N   UNL d   1      -7.011   1.685   3.712 -0.11 -0.03    -0.248 N 
DOCKED: ATOM     29 FE   UNL d   1      -8.698   0.871   4.478 -0.08 +0.00    +0.000 Fe
DOCKED: ATOM     30  O   UNL d   1      -8.306  -0.550   4.979 -0.86 +0.00    +0.000 OA
DOCKED: ATOM     31  O   UNL d   1      -8.089  -0.169   3.466 -0.54 +0.00    +0.000 OA
DOCKED: ENDROOT
DOCKED: BRANCH   6  32
DOCKED: ATOM     32  C   UNL d   1      -5.083   1.363   8.785 -0.57 -0.00    +0.052 C 
DOCKED: BRANCH  32  33
DOCKED: ATOM     33  C   UNL d   1      -4.186   0.131   8.853 -0.48 -0.01    +0.115 C 
DOCKED: BRANCH  33  34
DOCKED: ATOM     34  C   UNL d   1      -4.875  -1.112   8.348 -0.48 -0.00    +0.139 C 
DOCKED: ATOM     35  O   UNL d   1      -5.321  -1.921   9.145 -0.01 +0.03    -0.650 OA
DOCKED: BRANCH  34  36
DOCKED: ATOM     36  O   UNL d   1      -4.987  -1.366   7.027 +0.16 -0.01    -0.776 OA
DOCKED: ATOM     37  H   UNL d   1      -5.786  -1.152   6.532 +0.12 +0.01    +0.167 HD
DOCKED: ENDBRANCH  34  36
DOCKED: ENDBRANCH  33  34
DOCKED: ENDBRANCH  32  33
DOCKED: ENDBRANCH   6  32
DOCKED: BRANCH  22  38
DOCKED: ATOM     38  C   UNL d   1      -3.586   3.122   3.837 -0.39 -0.00    +0.052 C 
DOCKED: BRANCH  38  39
DOCKED: ATOM     39  C   UNL d   1      -2.515   2.432   2.996 -0.35 -0.01    +0.115 C 
DOCKED: BRANCH  39  40
DOCKED: ATOM     40  C   UNL d   1      -1.175   3.118   3.093 -0.51 -0.02    +0.139 C 
DOCKED: ATOM     41  O   UNL d   1      -0.786   3.819   2.172 +0.01 +0.06    -0.650 OA
DOCKED: BRANCH  40  42
DOCKED: ATOM     42  O   UNL d   1      -0.419   3.014   4.202 -0.02 +0.18    -0.776 OA
DOCKED: ATOM     43  H   UNL d   1       0.347   3.583   4.347 -0.36 -0.08    +0.167 HD
DOCKED: ENDBRANCH  40  42
DOCKED: ENDBRANCH  39  40
DOCKED: ENDBRANCH  38  39
DOCKED: ENDBRANCH  22  38
DOCKED: BRANCH  12  44
DOCKED: ATOM     44  C   UNL d   1     -14.048  -0.969   5.438 +0.31 +0.00    +0.004 C 
DOCKED: ATOM     45  C   UNL d   1     -14.582  -2.183   5.302 -0.27 +0.00    +0.012 C 
DOCKED: ENDBRANCH  12  44
DOCKED: BRANCH  17  46
DOCKED: ATOM     46  C   UNL d   1      -9.551   1.315  -1.010 -0.13 +0.00    +0.004 C 
DOCKED: ATOM     47  C   UNL d   1     -10.363   1.614  -2.033 -0.28 +0.00    +0.012 C 
DOCKED: ENDBRANCH  17  46
DOCKED: TORSDOF 10
DOCKED: TER
DOCKED: ENDMDL
________________________________________________________________________________


	BEGINNING GENETIC ALGORITHM DOCKING 58 of 100
Run: 58 Seed: 743833281 378635759 [ Run 58 of 100 GA/GALS ]
Beginning LAMARCKIAN GENETIC ALGORITHM (LGA), with a maximum of 25000000 energy evaluations.

Final-Value: -11.695


	FINAL GENETIC ALGORITHM DOCKED STATE
	_______________________________________________


Detailed state:  trans -15.018 -1.962 2.262 quatxyzw 0.329040 -0.529482 -0.505101 0.596870 center 8.287 34.468 -0.670 ntor 10 177.0151 -28.4776 10.7531 124.7283 -174.6561 -53.4314 36.2476 -180.0000 -35.0063 -18.4232
State:	-15.018  -1.962   2.262   0.410 -0.660 -0.630 106.708    177.02  -28.48   10.75  124.73 -174.66  -53.43   36.25 -180.00  -35.01  -18.42

DOCKED: MODEL       58
DOCKED: USER    Run = 58
DOCKED: USER    DPF = D:/Protein_go_brrr/autodock/final/AncMH_nat/heme_O2/dock.dpf
DOCKED: USER  
DOCKED: USER    Estimated Free Energy of Binding    =   -8.08 kcal/mol  [=(1)+(2)+(3)-(4)]
DOCKED: USER    Estimated Inhibition Constant, Ki   =    1.20 uM (micromolar)  [Temperature = 298.15 K]
DOCKED: USER    
DOCKED: USER    (1) Final Intermolecular Energy     =  -11.06 kcal/mol
DOCKED: USER        vdW + Hbond + desolv Energy     =   -9.16 kcal/mol
DOCKED: USER        Electrostatic Energy            =   -1.90 kcal/mol
DOCKED: USER    (2) Final Total Internal Energy     =   -0.64 kcal/mol
DOCKED: USER    (3) Torsional Free Energy           =   +2.98 kcal/mol
DOCKED: USER    (4) Unbound System's Energy  [=(2)] =   -0.64 kcal/mol
DOCKED: USER    
DOCKED: USER    
DOCKED: USER    NEWDPF move heme_O2_opt.pdbqt
DOCKED: USER    NEWDPF about 8.287000 34.468000 -0.670000
DOCKED: USER    NEWDPF tran0 -15.018018 -1.961618 2.261974
DOCKED: USER    NEWDPF quaternion0 0.329040 -0.529482 -0.505101 0.596870
DOCKED: USER    NEWDPF axisangle0 0.410101 -0.659924 -0.629537 106.707845
DOCKED: USER    NEWDPF quat0 0.410101 -0.659924 -0.629537 106.707845
DOCKED: USER    NEWDPF dihe0 177.02 -28.48 10.75 124.73 -174.66 -53.43 36.25 -180.00 -35.01 -18.42 
DOCKED: USER  keepresnum = 1 
DOCKED: USER  
DOCKED: REMARK  10 active torsions:
DOCKED: REMARK  status: ('A' for Active; 'I' for Inactive)
DOCKED: REMARK    1  A    between atoms: C_6  and  C_10 
DOCKED: REMARK    2  A    between atoms: C_10  and  C_11 
DOCKED: REMARK    3  A    between atoms: C_11  and  C_12 
DOCKED: REMARK    4  A    between atoms: C_12  and  O_14 
DOCKED: REMARK    5  A    between atoms: C_17  and  C_20 
DOCKED: REMARK    6  A    between atoms: C_24  and  C_27 
DOCKED: REMARK    7  A    between atoms: C_31  and  C_34 
DOCKED: REMARK    8  A    between atoms: C_34  and  C_35 
DOCKED: REMARK    9  A    between atoms: C_35  and  C_36 
DOCKED: REMARK   10  A    between atoms: C_36  and  O_38 
DOCKED: USER                              x       y       z     vdW  Elec       q    Type
DOCKED: USER                           _______ _______ _______ _____ _____    ______ ____
DOCKED: ROOT
DOCKED: ATOM      1  C   UNL d   1     -15.698  -3.015   3.973 -0.12 +0.04    +0.064 A 
DOCKED: ATOM      2  C   UNL d   1     -12.076  -0.022   3.278 -0.22 +0.04    +0.064 A 
DOCKED: ATOM      3  C   UNL d   1     -13.227   0.438  -1.365 -0.20 +0.07    +0.064 C 
DOCKED: ATOM      4  C   UNL d   1     -17.240  -2.264  -0.554 -0.07 +0.07    +0.064 A 
DOCKED: ATOM      5  C   UNL d   1     -14.620  -2.237   4.163 -0.18 +0.04    +0.066 A 
DOCKED: ATOM      6  C   UNL d   1     -13.953  -2.109   5.385 -0.28 -0.01    -0.021 A 
DOCKED: ATOM      7  C   UNL d   1     -12.930  -1.209   5.196 -0.28 -0.01    -0.025 A 
DOCKED: ATOM      8  C   UNL d   1     -12.971  -0.850   3.851 -0.17 +0.04    +0.066 A 
DOCKED: ATOM      9  C   UNL d   1     -11.997  -0.718   6.281 -0.39 +0.01    +0.051 C 
DOCKED: ATOM     10  C   UNL d   1     -12.054   0.374   1.869 -0.26 +0.05    +0.066 A 
DOCKED: ATOM     11  C   UNL d   1     -11.009   1.103   1.291 -0.29 -0.01    -0.021 A 
DOCKED: ATOM     12  C   UNL d   1     -11.314   1.231  -0.052 -0.28 +0.00    +0.000 A 
DOCKED: ATOM     13  C   UNL d   1     -12.561   0.567  -0.218 -0.19 +0.08    +0.070 A 
DOCKED: ATOM     14  C   UNL d   1      -9.759   1.632   1.985 -0.20 +0.02    +0.052 C 
DOCKED: ATOM     15  C   UNL d   1     -14.508  -0.194  -1.569 -0.14 +0.08    +0.066 A 
DOCKED: ATOM     16  C   UNL d   1     -15.229  -0.154  -2.761 -0.10 -0.02    -0.021 A 
DOCKED: ATOM     17  C   UNL d   1     -16.378  -0.917  -2.554 -0.09 +0.00    +0.000 A 
DOCKED: ATOM     18  C   UNL d   1     -16.269  -1.374  -1.233 -0.11 +0.08    +0.070 A 
DOCKED: ATOM     19  C   UNL d   1     -14.790   0.647  -3.961 -0.05 +0.03    +0.052 C 
DOCKED: ATOM     20  C   UNL d   1     -17.188  -2.686   0.724 -0.05 +0.07    +0.066 A 
DOCKED: ATOM     21  C   UNL d   1     -18.123  -3.539   1.303 -0.07 -0.02    -0.025 A 
DOCKED: ATOM     22  C   UNL d   1     -17.685  -3.786   2.584 -0.07 -0.02    -0.021 A 
DOCKED: ATOM     23  C   UNL d   1     -16.503  -3.057   2.747 -0.07 +0.06    +0.066 A 
DOCKED: ATOM     24  C   UNL d   1     -19.374  -4.089   0.666 -0.04 +0.03    +0.051 C 
DOCKED: ATOM     25  N   UNL d   1     -14.052  -1.433   3.231 -0.15 -0.19    -0.248 N 
DOCKED: ATOM     26  N   UNL d   1     -13.006   0.053   0.957 -0.15 -0.31    -0.248 N 
DOCKED: ATOM     27  N   UNL d   1     -15.166  -0.864  -0.627 -0.13 -0.33    -0.248 N 
DOCKED: ATOM     28  N   UNL d   1     -16.229  -2.354   1.629 -0.06 -0.27    -0.248 N 
DOCKED: ATOM     29 FE   UNL d   1     -14.631  -1.159   1.292 -0.04 +0.00    +0.000 Fe
DOCKED: ATOM     30  O   UNL d   1     -14.830   0.097   2.191 -0.31 +0.00    +0.000 OA
DOCKED: ATOM     31  O   UNL d   1     -15.922  -0.278   1.120 -0.63 +0.00    +0.000 OA
DOCKED: ENDROOT
DOCKED: BRANCH   6  32
DOCKED: ATOM     32  C   UNL d   1     -14.341  -2.701   6.715 -0.34 +0.01    +0.052 C 
DOCKED: BRANCH  32  33
DOCKED: ATOM     33  C   UNL d   1     -14.664  -4.189   6.630 -0.34 +0.03    +0.115 C 
DOCKED: BRANCH  33  34
DOCKED: ATOM     34  C   UNL d   1     -15.754  -4.598   7.589 -0.38 +0.04    +0.139 C 
DOCKED: ATOM     35  O   UNL d   1     -16.663  -3.821   7.836 -0.01 -0.15    -0.650 OA
DOCKED: BRANCH  34  36
DOCKED: ATOM     36  O   UNL d   1     -15.735  -5.797   8.207 -0.42 -0.31    -0.776 OA
DOCKED: ATOM     37  H   UNL d   1     -16.406  -6.051   8.851 -0.51 +0.03    +0.167 HD
DOCKED: ENDBRANCH  34  36
DOCKED: ENDBRANCH  33  34
DOCKED: ENDBRANCH  32  33
DOCKED: ENDBRANCH   6  32
DOCKED: BRANCH  22  38
DOCKED: ATOM     38  C   UNL d   1     -18.401  -4.625   3.611 -0.09 +0.03    +0.052 C 
DOCKED: BRANCH  38  39
DOCKED: ATOM     39  C   UNL d   1     -18.107  -6.115   3.453 -0.10 +0.05    +0.115 C 
DOCKED: BRANCH  39  40
DOCKED: ATOM     40  C   UNL d   1     -17.192  -6.401   2.289 -0.11 +0.12    +0.139 C 
DOCKED: ATOM     41  O   UNL d   1     -15.984  -6.439   2.463 -0.41 -0.71    -0.650 OA
DOCKED: BRANCH  40  42
DOCKED: ATOM     42  O   UNL d   1     -17.685  -6.668   1.065 -0.41 -0.76    -0.776 OA
DOCKED: ATOM     43  H   UNL d   1     -18.567  -7.040   0.946 +0.02 +0.10    +0.167 HD
DOCKED: ENDBRANCH  40  42
DOCKED: ENDBRANCH  39  40
DOCKED: ENDBRANCH  38  39
DOCKED: ENDBRANCH  22  38
DOCKED: BRANCH  12  44
DOCKED: ATOM     44  C   UNL d   1     -10.403   1.960  -1.017 -0.31 +0.00    +0.004 C 
DOCKED: ATOM     45  C   UNL d   1     -10.632   2.253  -2.296 -0.29 +0.00    +0.012 C 
DOCKED: ENDBRANCH  12  44
DOCKED: BRANCH  17  46
DOCKED: ATOM     46  C   UNL d   1     -17.557  -1.192  -3.449 -0.03 +0.00    +0.004 C 
DOCKED: ATOM     47  C   UNL d   1     -17.975  -2.370  -3.929 -0.04 +0.01    +0.012 C 
DOCKED: ENDBRANCH  17  46
DOCKED: TORSDOF 10
DOCKED: TER
DOCKED: ENDMDL
________________________________________________________________________________


	BEGINNING GENETIC ALGORITHM DOCKING 59 of 100
Run: 59 Seed: 377082579 1983713617 [ Run 59 of 100 GA/GALS ]
Beginning LAMARCKIAN GENETIC ALGORITHM (LGA), with a maximum of 25000000 energy evaluations.

Final-Value: -9.581


	FINAL GENETIC ALGORITHM DOCKED STATE
	_______________________________________________


Detailed state:  trans -5.280 15.655 15.572 quatxyzw -0.170013 0.269991 0.720783 0.615364 center 8.287 34.468 -0.670 ntor 10 -152.9934 73.4569 -50.8651 156.5465 168.2176 -29.8524 70.0786 -35.6191 -11.8500 -34.9175
State:	 -5.280  15.655  15.572  -0.216  0.343  0.914 104.043   -152.99   73.46  -50.87  156.55  168.22  -29.85   70.08  -35.62  -11.85  -34.92

DOCKED: MODEL       59
DOCKED: USER    Run = 59
DOCKED: USER    DPF = D:/Protein_go_brrr/autodock/final/AncMH_nat/heme_O2/dock.dpf
DOCKED: USER  
DOCKED: USER    Estimated Free Energy of Binding    =   -4.53 kcal/mol  [=(1)+(2)+(3)-(4)]
DOCKED: USER    Estimated Inhibition Constant, Ki   =  477.03 uM (micromolar)  [Temperature = 298.15 K]
DOCKED: USER    
DOCKED: USER    (1) Final Intermolecular Energy     =   -7.51 kcal/mol
DOCKED: USER        vdW + Hbond + desolv Energy     =   -5.34 kcal/mol
DOCKED: USER        Electrostatic Energy            =   -2.18 kcal/mol
DOCKED: USER    (2) Final Total Internal Energy     =   -2.07 kcal/mol
DOCKED: USER    (3) Torsional Free Energy           =   +2.98 kcal/mol
DOCKED: USER    (4) Unbound System's Energy  [=(2)] =   -2.07 kcal/mol
DOCKED: USER    
DOCKED: USER    
DOCKED: USER    NEWDPF move heme_O2_opt.pdbqt
DOCKED: USER    NEWDPF about 8.287000 34.468000 -0.670000
DOCKED: USER    NEWDPF tran0 -5.280264 15.654782 15.572171
DOCKED: USER    NEWDPF quaternion0 -0.170013 0.269991 0.720783 0.615364
DOCKED: USER    NEWDPF axisangle0 -0.215687 0.342523 0.914416 104.043289
DOCKED: USER    NEWDPF quat0 -0.215687 0.342523 0.914416 104.043289
DOCKED: USER    NEWDPF dihe0 -152.99 73.46 -50.87 156.55 168.22 -29.85 70.08 -35.62 -11.85 -34.92 
DOCKED: USER  keepresnum = 1 
DOCKED: USER  
DOCKED: REMARK  10 active torsions:
DOCKED: REMARK  status: ('A' for Active; 'I' for Inactive)
DOCKED: REMARK    1  A    between atoms: C_6  and  C_10 
DOCKED: REMARK    2  A    between atoms: C_10  and  C_11 
DOCKED: REMARK    3  A    between atoms: C_11  and  C_12 
DOCKED: REMARK    4  A    between atoms: C_12  and  O_14 
DOCKED: REMARK    5  A    between atoms: C_17  and  C_20 
DOCKED: REMARK    6  A    between atoms: C_24  and  C_27 
DOCKED: REMARK    7  A    between atoms: C_31  and  C_34 
DOCKED: REMARK    8  A    between atoms: C_34  and  C_35 
DOCKED: REMARK    9  A    between atoms: C_35  and  C_36 
DOCKED: REMARK   10  A    between atoms: C_36  and  O_38 
DOCKED: USER                              x       y       z     vdW  Elec       q    Type
DOCKED: USER                           _______ _______ _______ _____ _____    ______ ____
DOCKED: ROOT
DOCKED: ATOM      1  C   UNL d   1      -3.994  17.283  15.132 -0.10 +0.02    +0.064 A 
DOCKED: ATOM      2  C   UNL d   1      -8.520  17.064  16.555 -0.18 -0.03    +0.064 A 
DOCKED: ATOM      3  C   UNL d   1      -8.389  12.260  16.540 -0.20 -0.02    +0.064 C 
DOCKED: ATOM      4  C   UNL d   1      -3.591  12.476  15.539 -0.11 -0.01    +0.064 A 
DOCKED: ATOM      5  C   UNL d   1      -5.235  17.615  15.522 -0.12 +0.01    +0.066 A 
DOCKED: ATOM      6  C   UNL d   1      -5.695  18.931  15.634 -0.13 -0.00    -0.021 A 
DOCKED: ATOM      7  C   UNL d   1      -6.992  18.870  16.087 -0.15 +0.00    -0.025 A 
DOCKED: ATOM      8  C   UNL d   1      -7.304  17.517  16.194 -0.18 -0.02    +0.066 A 
DOCKED: ATOM      9  C   UNL d   1      -7.849  20.071  16.421 -0.11 -0.02    +0.051 C 
DOCKED: ATOM     10  C   UNL d   1      -8.914  15.659  16.662 -0.10 -0.03    +0.066 A 
DOCKED: ATOM     11  C   UNL d   1     -10.232  15.244  16.881 -0.09 +0.01    -0.021 A 
DOCKED: ATOM     12  C   UNL d   1     -10.218  13.861  16.863 -0.10 -0.00    +0.000 A 
DOCKED: ATOM     13  C   UNL d   1      -8.860  13.503  16.640 -0.12 -0.02    +0.070 A 
DOCKED: ATOM     14  C   UNL d   1     -11.459  16.129  17.073 -0.11 -0.02    +0.052 C 
DOCKED: ATOM     15  C   UNL d   1      -7.017  11.855  16.351 -0.18 -0.01    +0.066 A 
DOCKED: ATOM     16  C   UNL d   1      -6.565  10.538  16.419 -0.18 +0.01    -0.021 A 
DOCKED: ATOM     17  C   UNL d   1      -5.199  10.575  16.137 -0.17 -0.00    +0.000 A 
DOCKED: ATOM     18  C   UNL d   1      -4.917  11.930  15.914 -0.15 -0.01    +0.070 A 
DOCKED: ATOM     19  C   UNL d   1      -7.455   9.381  16.797 -0.22 -0.02    +0.052 C 
DOCKED: ATOM     20  C   UNL d   1      -3.277  13.773  15.359 -0.07 -0.01    +0.066 A 
DOCKED: ATOM     21  C   UNL d   1      -2.014  14.226  14.989 -0.07 +0.00    -0.025 A 
DOCKED: ATOM     22  C   UNL d   1      -2.117  15.591  14.842 -0.07 -0.00    -0.021 A 
DOCKED: ATOM     23  C   UNL d   1      -3.440  15.924  15.147 -0.09 +0.01    +0.066 A 
DOCKED: ATOM     24  C   UNL d   1      -0.771  13.398  14.788 -0.09 -0.01    +0.051 C 
DOCKED: ATOM     25  N   UNL d   1      -6.201  16.746  15.908 -0.12 +0.03    -0.248 N 
DOCKED: ATOM     26  N   UNL d   1      -8.073  14.603  16.524 -0.09 +0.10    -0.248 N 
DOCKED: ATOM     27  N   UNL d   1      -6.016  12.700  16.121 -0.09 +0.05    -0.248 N 
DOCKED: ATOM     28  N   UNL d   1      -4.130  14.822  15.504 -0.05 +0.01    -0.248 N 
DOCKED: ATOM     29 FE   UNL d   1      -6.086  14.710  16.011 -0.03 -0.00    +0.000 Fe
DOCKED: ATOM     30  O   UNL d   1      -6.217  15.403  17.399 -0.07 -0.00    +0.000 OA
DOCKED: ATOM     31  O   UNL d   1      -5.252  14.169  17.229 -0.06 -0.00    +0.000 OA
DOCKED: ENDROOT
DOCKED: BRANCH   6  32
DOCKED: ATOM     32  C   UNL d   1      -4.906  20.202  15.455 -0.11 +0.01    +0.052 C 
DOCKED: BRANCH  32  33
DOCKED: ATOM     33  C   UNL d   1      -4.547  20.477  13.998 -0.08 +0.06    +0.115 C 
DOCKED: BRANCH  33  34
DOCKED: ATOM     34  C   UNL d   1      -3.065  20.360  13.739 -0.00 +0.12    +0.139 C 
DOCKED: ATOM     35  O   UNL d   1      -2.356  19.778  14.544 -0.04 -0.34    -0.650 OA
DOCKED: BRANCH  34  36
DOCKED: ATOM     36  O   UNL d   1      -2.497  20.910  12.646 -0.51 -1.01    -0.776 OA
DOCKED: ATOM     37  H   UNL d   1      -1.691  20.554  12.255 +0.00 +0.25    +0.167 HD
DOCKED: ENDBRANCH  34  36
DOCKED: ENDBRANCH  33  34
DOCKED: ENDBRANCH  32  33
DOCKED: ENDBRANCH   6  32
DOCKED: BRANCH  22  38
DOCKED: ATOM     38  C   UNL d   1      -0.987  16.524  14.490 -0.06 +0.01    +0.052 C 
DOCKED: BRANCH  38  39
DOCKED: ATOM     39  C   UNL d   1      -0.470  16.304  13.070 -0.08 +0.03    +0.115 C 
DOCKED: BRANCH  39  40
DOCKED: ATOM     40  C   UNL d   1      -0.075  17.593  12.394 -0.05 +0.09    +0.139 C 
DOCKED: ATOM     41  O   UNL d   1       1.093  17.790  12.099 +0.01 -0.24    -0.650 OA
DOCKED: BRANCH  40  42
DOCKED: ATOM     42  O   UNL d   1      -0.999  18.515  12.061 +0.04 -1.40    -0.776 OA
DOCKED: ATOM     43  H   UNL d   1      -1.397  19.093  12.723 +0.00 +0.26    +0.167 HD
DOCKED: ENDBRANCH  40  42
DOCKED: ENDBRANCH  39  40
DOCKED: ENDBRANCH  38  39
DOCKED: ENDBRANCH  22  38
DOCKED: BRANCH  12  44
DOCKED: ATOM     44  C   UNL d   1     -11.476  13.042  17.059 -0.09 -0.00    +0.004 C 
DOCKED: ATOM     45  C   UNL d   1     -11.977  12.105  16.254 -0.14 -0.00    +0.012 C 
DOCKED: ENDBRANCH  12  44
DOCKED: BRANCH  17  46
DOCKED: ATOM     46  C   UNL d   1      -4.164   9.482  16.120 -0.29 -0.00    +0.004 C 
DOCKED: ATOM     47  C   UNL d   1      -3.060   9.398  15.367 -0.35 -0.00    +0.012 C 
DOCKED: ENDBRANCH  17  46
DOCKED: TORSDOF 10
DOCKED: TER
DOCKED: ENDMDL
________________________________________________________________________________


	BEGINNING GENETIC ALGORITHM DOCKING 60 of 100
Run: 60 Seed: 1560610668 1171807260 [ Run 60 of 100 GA/GALS ]
Beginning LAMARCKIAN GENETIC ALGORITHM (LGA), with a maximum of 25000000 energy evaluations.

Final-Value: -11.062


	FINAL GENETIC ALGORITHM DOCKED STATE
	_______________________________________________


Detailed state:  trans -21.403 5.326 1.914 quatxyzw -0.568844 -0.219071 -0.740451 0.283119 center 8.287 34.468 -0.670 ntor 10 14.3293 -171.0149 14.7574 -104.3605 50.2301 161.7927 180.0000 113.1092 -168.9462 173.9552
State:	-21.403   5.326   1.914  -0.593 -0.228 -0.772 147.107     14.33 -171.01   14.76 -104.36   50.23  161.79  180.00  113.11 -168.95  173.96

DOCKED: MODEL       60
DOCKED: USER    Run = 60
DOCKED: USER    DPF = D:/Protein_go_brrr/autodock/final/AncMH_nat/heme_O2/dock.dpf
DOCKED: USER  
DOCKED: USER    Estimated Free Energy of Binding    =   -5.71 kcal/mol  [=(1)+(2)+(3)-(4)]
DOCKED: USER    Estimated Inhibition Constant, Ki   =   65.54 uM (micromolar)  [Temperature = 298.15 K]
DOCKED: USER    
DOCKED: USER    (1) Final Intermolecular Energy     =   -8.69 kcal/mol
DOCKED: USER        vdW + Hbond + desolv Energy     =   -4.78 kcal/mol
DOCKED: USER        Electrostatic Energy            =   -3.91 kcal/mol
DOCKED: USER    (2) Final Total Internal Energy     =   -2.37 kcal/mol
DOCKED: USER    (3) Torsional Free Energy           =   +2.98 kcal/mol
DOCKED: USER    (4) Unbound System's Energy  [=(2)] =   -2.37 kcal/mol
DOCKED: USER    
DOCKED: USER    
DOCKED: USER    NEWDPF move heme_O2_opt.pdbqt
DOCKED: USER    NEWDPF about 8.287000 34.468000 -0.670000
DOCKED: USER    NEWDPF tran0 -21.403157 5.325915 1.913551
DOCKED: USER    NEWDPF quaternion0 -0.568844 -0.219071 -0.740451 0.283119
DOCKED: USER    NEWDPF axisangle0 -0.593111 -0.228417 -0.772039 147.107066
DOCKED: USER    NEWDPF quat0 -0.593111 -0.228417 -0.772039 147.107066
DOCKED: USER    NEWDPF dihe0 14.33 -171.01 14.76 -104.36 50.23 161.79 180.00 113.11 -168.95 173.96 
DOCKED: USER  keepresnum = 1 
DOCKED: USER  
DOCKED: REMARK  10 active torsions:
DOCKED: REMARK  status: ('A' for Active; 'I' for Inactive)
DOCKED: REMARK    1  A    between atoms: C_6  and  C_10 
DOCKED: REMARK    2  A    between atoms: C_10  and  C_11 
DOCKED: REMARK    3  A    between atoms: C_11  and  C_12 
DOCKED: REMARK    4  A    between atoms: C_12  and  O_14 
DOCKED: REMARK    5  A    between atoms: C_17  and  C_20 
DOCKED: REMARK    6  A    between atoms: C_24  and  C_27 
DOCKED: REMARK    7  A    between atoms: C_31  and  C_34 
DOCKED: REMARK    8  A    between atoms: C_34  and  C_35 
DOCKED: REMARK    9  A    between atoms: C_35  and  C_36 
DOCKED: REMARK   10  A    between atoms: C_36  and  O_38 
DOCKED: USER                              x       y       z     vdW  Elec       q    Type
DOCKED: USER                           _______ _______ _______ _____ _____    ______ ____
DOCKED: ROOT
DOCKED: ATOM      1  C   UNL d   1     -21.919   3.626   0.754 -0.05 +0.06    +0.064 A 
DOCKED: ATOM      2  C   UNL d   1     -18.099   6.448   0.787 -0.15 +0.04    +0.064 A 
DOCKED: ATOM      3  C   UNL d   1     -20.014   9.156   4.265 -0.11 +0.02    +0.064 C 
DOCKED: ATOM      4  C   UNL d   1     -23.740   5.979   4.573 -0.04 +0.03    +0.064 A 
DOCKED: ATOM      5  C   UNL d   1     -20.723   4.172   0.480 -0.06 +0.06    +0.066 A 
DOCKED: ATOM      6  C   UNL d   1     -19.849   3.693  -0.500 -0.05 -0.02    -0.021 A 
DOCKED: ATOM      7  C   UNL d   1     -18.724   4.482  -0.462 -0.09 -0.02    -0.025 A 
DOCKED: ATOM      8  C   UNL d   1     -18.962   5.453   0.508 -0.12 +0.06    +0.066 A 
DOCKED: ATOM      9  C   UNL d   1     -17.488   4.270  -1.308 -0.07 +0.06    +0.051 C 
DOCKED: ATOM     10  C   UNL d   1     -18.302   7.507   1.777 -0.16 +0.03    +0.066 A 
DOCKED: ATOM     11  C   UNL d   1     -17.450   8.609   1.912 -0.24 -0.00    -0.021 A 
DOCKED: ATOM     12  C   UNL d   1     -17.995   9.410   2.897 -0.23 +0.00    +0.000 A 
DOCKED: ATOM     13  C   UNL d   1     -19.169   8.731   3.326 -0.12 +0.02    +0.070 A 
DOCKED: ATOM     14  C   UNL d   1     -16.183   8.898   1.114 -0.35 +0.00    +0.052 C 
DOCKED: ATOM     15  C   UNL d   1     -21.194   8.481   4.752 -0.07 +0.02    +0.066 A 
DOCKED: ATOM     16  C   UNL d   1     -21.946   8.898   5.850 -0.05 -0.00    -0.021 A 
DOCKED: ATOM     17  C   UNL d   1     -23.013   8.006   5.958 -0.03 +0.00    +0.000 A 
DOCKED: ATOM     18  C   UNL d   1     -22.831   7.102   4.902 -0.04 +0.03    +0.070 A 
DOCKED: ATOM     19  C   UNL d   1     -21.552  10.063   6.722 -0.06 +0.01    +0.052 C 
DOCKED: ATOM     20  C   UNL d   1     -23.572   5.068   3.595 -0.05 +0.05    +0.066 A 
DOCKED: ATOM     21  C   UNL d   1     -24.473   4.042   3.321 -0.03 -0.01    -0.025 A 
DOCKED: ATOM     22  C   UNL d   1     -23.984   3.378   2.219 -0.03 -0.01    -0.021 A 
DOCKED: ATOM     23  C   UNL d   1     -22.789   4.014   1.870 -0.04 +0.06    +0.066 A 
DOCKED: ATOM     24  C   UNL d   1     -25.734   3.710   4.076 -0.00 +0.02    +0.051 C 
DOCKED: ATOM     25  N   UNL d   1     -20.165   5.221   1.133 -0.07 -0.24    -0.248 N 
DOCKED: ATOM     26  N   UNL d   1     -19.346   7.572   2.642 -0.07 -0.12    -0.248 N 
DOCKED: ATOM     27  N   UNL d   1     -21.682   7.361   4.227 -0.05 -0.12    -0.248 N 
DOCKED: ATOM     28  N   UNL d   1     -22.519   5.013   2.737 -0.05 -0.26    -0.248 N 
DOCKED: ATOM     29 FE   UNL d   1     -20.945   6.284   2.692 -0.02 +0.00    +0.000 Fe
DOCKED: ATOM     30  O   UNL d   1     -19.693   5.440   3.071 -0.20 +0.00    +0.000 OA
DOCKED: ATOM     31  O   UNL d   1     -20.906   5.533   4.073 -0.46 +0.00    +0.000 OA
DOCKED: ENDROOT
DOCKED: BRANCH   6  32
DOCKED: ATOM     32  C   UNL d   1     -20.003   2.457  -1.348 -0.02 +0.03    +0.052 C 
DOCKED: BRANCH  32  33
DOCKED: ATOM     33  C   UNL d   1     -19.495   1.196  -0.655 -0.03 +0.10    +0.115 C 
DOCKED: BRANCH  33  34
DOCKED: ATOM     34  C   UNL d   1     -18.905   1.484   0.703 -0.10 +0.20    +0.139 C 
DOCKED: ATOM     35  O   UNL d   1     -17.693   1.545   0.834 -0.18 -1.34    -0.650 OA
DOCKED: BRANCH  34  36
DOCKED: ATOM     36  O   UNL d   1     -19.688   1.649   1.789 -0.05 -1.85    -0.776 OA
DOCKED: ATOM     37  H   UNL d   1     -20.617   1.392   1.793 +0.01 +0.33    +0.167 HD
DOCKED: ENDBRANCH  34  36
DOCKED: ENDBRANCH  33  34
DOCKED: ENDBRANCH  32  33
DOCKED: ENDBRANCH   6  32
DOCKED: BRANCH  22  38
DOCKED: ATOM     38  C   UNL d   1     -24.602   2.161   1.581 -0.01 +0.02    +0.052 C 
DOCKED: BRANCH  38  39
DOCKED: ATOM     39  C   UNL d   1     -24.185   0.865   2.274 -0.02 +0.06    +0.115 C 
DOCKED: BRANCH  39  40
DOCKED: ATOM     40  C   UNL d   1     -22.723   0.551   2.077 -0.03 +0.12    +0.139 C 
DOCKED: ATOM     41  O   UNL d   1     -22.259   0.508   0.949 +0.00 -0.47    -0.650 OA
DOCKED: BRANCH  40  42
DOCKED: ATOM     42  O   UNL d   1     -21.903   0.365   3.130 -0.46 -1.20    -0.776 OA
DOCKED: ATOM     43  H   UNL d   1     -20.945   0.330   3.023 +0.00 +0.33    +0.167 HD
DOCKED: ENDBRANCH  40  42
DOCKED: ENDBRANCH  39  40
DOCKED: ENDBRANCH  38  39
DOCKED: ENDBRANCH  22  38
DOCKED: BRANCH  12  44
DOCKED: ATOM     44  C   UNL d   1     -17.350  10.713   3.322 -0.35 -0.00    +0.004 C 
DOCKED: ATOM     45  C   UNL d   1     -17.658  11.475   4.371 -0.34 -0.00    +0.012 C 
DOCKED: ENDBRANCH  12  44
DOCKED: BRANCH  17  46
DOCKED: ATOM     46  C   UNL d   1     -24.119   7.907   6.974 -0.02 +0.00    +0.004 C 
DOCKED: ATOM     47  C   UNL d   1     -24.314   6.956   7.897 -0.02 +0.00    +0.012 C 
DOCKED: ENDBRANCH  17  46
DOCKED: TORSDOF 10
DOCKED: TER
DOCKED: ENDMDL
________________________________________________________________________________


	BEGINNING GENETIC ALGORITHM DOCKING 61 of 100
Run: 61 Seed: 898797553 1590626677 [ Run 61 of 100 GA/GALS ]
Beginning LAMARCKIAN GENETIC ALGORITHM (LGA), with a maximum of 25000000 energy evaluations.

Final-Value: -17.361


	FINAL GENETIC ALGORITHM DOCKED STATE
	_______________________________________________


Detailed state:  trans -9.920 0.731 4.397 quatxyzw -0.909079 0.002299 -0.372742 0.186101 center 8.287 34.468 -0.670 ntor 10 140.3279 83.6550 -7.4998 -83.5514 -17.7256 -149.7733 -32.5990 -54.4922 -127.1321 -142.2537
State:	 -9.920   0.731   4.397  -0.925  0.002 -0.379 158.549    140.33   83.66   -7.50  -83.55  -17.73 -149.77  -32.60  -54.49 -127.13 -142.25

DOCKED: MODEL       61
DOCKED: USER    Run = 61
DOCKED: USER    DPF = D:/Protein_go_brrr/autodock/final/AncMH_nat/heme_O2/dock.dpf
DOCKED: USER  
DOCKED: USER    Estimated Free Energy of Binding    =  -14.00 kcal/mol  [=(1)+(2)+(3)-(4)]
DOCKED: USER    Estimated Inhibition Constant, Ki   =   54.79 pM (picomolar)  [Temperature = 298.15 K]
DOCKED: USER    
DOCKED: USER    (1) Final Intermolecular Energy     =  -16.98 kcal/mol
DOCKED: USER        vdW + Hbond + desolv Energy     =  -15.25 kcal/mol
DOCKED: USER        Electrostatic Energy            =   -1.73 kcal/mol
DOCKED: USER    (2) Final Total Internal Energy     =   -0.38 kcal/mol
DOCKED: USER    (3) Torsional Free Energy           =   +2.98 kcal/mol
DOCKED: USER    (4) Unbound System's Energy  [=(2)] =   -0.38 kcal/mol
DOCKED: USER    
DOCKED: USER    
DOCKED: USER    NEWDPF move heme_O2_opt.pdbqt
DOCKED: USER    NEWDPF about 8.287000 34.468000 -0.670000
DOCKED: USER    NEWDPF tran0 -9.919698 0.731049 4.397485
DOCKED: USER    NEWDPF quaternion0 -0.909079 0.002299 -0.372742 0.186101
DOCKED: USER    NEWDPF axisangle0 -0.925242 0.002340 -0.379369 158.549327
DOCKED: USER    NEWDPF quat0 -0.925242 0.002340 -0.379369 158.549327
DOCKED: USER    NEWDPF dihe0 140.33 83.66 -7.50 -83.55 -17.73 -149.77 -32.60 -54.49 -127.13 -142.25 
DOCKED: USER  keepresnum = 1 
DOCKED: USER  
DOCKED: REMARK  10 active torsions:
DOCKED: REMARK  status: ('A' for Active; 'I' for Inactive)
DOCKED: REMARK    1  A    between atoms: C_6  and  C_10 
DOCKED: REMARK    2  A    between atoms: C_10  and  C_11 
DOCKED: REMARK    3  A    between atoms: C_11  and  C_12 
DOCKED: REMARK    4  A    between atoms: C_12  and  O_14 
DOCKED: REMARK    5  A    between atoms: C_17  and  C_20 
DOCKED: REMARK    6  A    between atoms: C_24  and  C_27 
DOCKED: REMARK    7  A    between atoms: C_31  and  C_34 
DOCKED: REMARK    8  A    between atoms: C_34  and  C_35 
DOCKED: REMARK    9  A    between atoms: C_35  and  C_36 
DOCKED: REMARK   10  A    between atoms: C_36  and  O_38 
DOCKED: USER                              x       y       z     vdW  Elec       q    Type
DOCKED: USER                           _______ _______ _______ _____ _____    ______ ____
DOCKED: ROOT
DOCKED: ATOM      1  C   UNL d   1     -11.898   0.191   3.854 -0.28 +0.03    +0.064 A 
DOCKED: ATOM      2  C   UNL d   1      -8.150   1.627   1.313 -0.36 +0.01    +0.064 A 
DOCKED: ATOM      3  C   UNL d   1      -5.497   2.058   5.297 -0.29 +0.00    +0.064 C 
DOCKED: ATOM      4  C   UNL d   1      -9.198   0.125   7.872 -0.21 +0.01    +0.064 A 
DOCKED: ATOM      5  C   UNL d   1     -11.094   0.545   2.837 -0.29 +0.03    +0.066 A 
DOCKED: ATOM      6  C   UNL d   1     -11.495   0.580   1.498 -0.29 -0.01    -0.021 A 
DOCKED: ATOM      7  C   UNL d   1     -10.398   0.953   0.757 -0.31 -0.01    -0.025 A 
DOCKED: ATOM      8  C   UNL d   1      -9.371   1.183   1.668 -0.30 +0.02    +0.066 A 
DOCKED: ATOM      9  C   UNL d   1     -10.365   1.046  -0.753 -0.36 +0.02    +0.051 C 
DOCKED: ATOM     10  C   UNL d   1      -7.041   1.908   2.225 -0.33 +0.01    +0.066 A 
DOCKED: ATOM     11  C   UNL d   1      -5.849   2.521   1.821 -0.40 -0.00    -0.021 A 
DOCKED: ATOM     12  C   UNL d   1      -5.079   2.670   2.959 -0.38 +0.00    +0.000 A 
DOCKED: ATOM     13  C   UNL d   1      -5.856   2.116   4.014 -0.33 +0.00    +0.070 A 
DOCKED: ATOM     14  C   UNL d   1      -5.474   2.971   0.414 -0.48 +0.00    +0.052 C 
DOCKED: ATOM     15  C   UNL d   1      -6.240   1.474   6.388 -0.37 +0.00    +0.066 A 
DOCKED: ATOM     16  C   UNL d   1      -5.740   1.296   7.678 -0.45 -0.00    -0.021 A 
DOCKED: ATOM     17  C   UNL d   1      -6.778   0.746   8.430 -0.44 +0.00    +0.000 A 
DOCKED: ATOM     18  C   UNL d   1      -7.847   0.629   7.531 -0.39 +0.01    +0.070 A 
DOCKED: ATOM     19  C   UNL d   1      -4.316   1.613   8.059 -0.43 -0.00    +0.052 C 
DOCKED: ATOM     20  C   UNL d   1     -10.233  -0.041   7.025 -0.32 +0.01    +0.066 A 
DOCKED: ATOM     21  C   UNL d   1     -11.489  -0.504   7.409 -0.28 -0.00    -0.025 A 
DOCKED: ATOM     22  C   UNL d   1     -12.279  -0.465   6.282 -0.37 -0.00    -0.021 A 
DOCKED: ATOM     23  C   UNL d   1     -11.467   0.004   5.244 -0.36 +0.02    +0.066 A 
DOCKED: ATOM     24  C   UNL d   1     -11.912  -0.962   8.780 -0.46 +0.00    +0.051 C 
DOCKED: ATOM     25  N   UNL d   1      -9.782   0.868   2.943 -0.17 -0.08    -0.248 N 
DOCKED: ATOM     26  N   UNL d   1      -7.046   1.650   3.558 -0.14 -0.03    -0.248 N 
DOCKED: ATOM     27  N   UNL d   1      -7.479   1.005   6.279 -0.22 -0.03    -0.248 N 
DOCKED: ATOM     28  N   UNL d   1     -10.213   0.218   5.691 -0.27 -0.06    -0.248 N 
DOCKED: ATOM     29 FE   UNL d   1      -8.639   0.928   4.634 -0.08 +0.00    +0.000 Fe
DOCKED: ATOM     30  O   UNL d   1      -8.235  -0.201   3.643 -0.58 +0.00    +0.000 OA
DOCKED: ATOM     31  O   UNL d   1      -8.233  -0.485   5.193 -0.85 +0.00    +0.000 OA
DOCKED: ENDROOT
DOCKED: BRANCH   6  32
DOCKED: ATOM     32  C   UNL d   1     -12.817   0.147   0.919 -0.26 +0.06    +0.052 C 
DOCKED: BRANCH  32  33
DOCKED: ATOM     33  C   UNL d   1     -13.316  -1.171   1.503 -0.24 +0.12    +0.115 C 
DOCKED: BRANCH  33  34
DOCKED: ATOM     34  C   UNL d   1     -14.818  -1.210   1.634 -0.20 +0.17    +0.139 C 
DOCKED: ATOM     35  O   UNL d   1     -15.346  -2.107   2.272 +0.02 -0.66    -0.650 OA
DOCKED: BRANCH  34  36
DOCKED: ATOM     36  O   UNL d   1     -15.600  -0.287   1.036 -0.34 -1.34    -0.776 OA
DOCKED: ATOM     37  H   UNL d   1     -16.440  -0.519   0.622 +0.03 +0.25    +0.167 HD
DOCKED: ENDBRANCH  34  36
DOCKED: ENDBRANCH  33  34
DOCKED: ENDBRANCH  32  33
DOCKED: ENDBRANCH   6  32
DOCKED: BRANCH  22  38
DOCKED: ATOM     38  C   UNL d   1     -13.714  -0.917   6.199 -0.02 +0.01    +0.052 C 
DOCKED: BRANCH  38  39
DOCKED: ATOM     39  C   UNL d   1     -13.967  -2.199   6.990 -0.35 +0.02    +0.115 C 
DOCKED: BRANCH  39  40
DOCKED: ATOM     40  C   UNL d   1     -15.069  -2.041   8.008 -0.26 +0.02    +0.139 C 
DOCKED: ATOM     41  O   UNL d   1     -15.578  -0.945   8.185 -0.31 -0.20    -0.650 OA
DOCKED: BRANCH  40  42
DOCKED: ATOM     42  O   UNL d   1     -15.541  -3.100   8.692 +0.06 -0.07    -0.776 OA
DOCKED: ATOM     43  H   UNL d   1     -15.126  -3.399   9.510 -0.48 -0.02    +0.167 HD
DOCKED: ENDBRANCH  40  42
DOCKED: ENDBRANCH  39  40
DOCKED: ENDBRANCH  38  39
DOCKED: ENDBRANCH  22  38
DOCKED: BRANCH  12  44
DOCKED: ATOM     44  C   UNL d   1      -3.707   3.310   2.923 -0.46 -0.00    +0.004 C 
DOCKED: ATOM     45  C   UNL d   1      -2.961   3.709   3.953 -0.54 -0.00    +0.012 C 
DOCKED: ENDBRANCH  12  44
DOCKED: BRANCH  17  46
DOCKED: ATOM     46  C   UNL d   1      -6.823   0.283   9.862 -0.37 +0.00    +0.004 C 
DOCKED: ATOM     47  C   UNL d   1      -6.558  -0.937  10.347 -0.70 -0.00    +0.012 C 
DOCKED: ENDBRANCH  17  46
DOCKED: TORSDOF 10
DOCKED: TER
DOCKED: ENDMDL
________________________________________________________________________________


	BEGINNING GENETIC ALGORITHM DOCKING 62 of 100
Run: 62 Seed: 1365904943 2108672164 [ Run 62 of 100 GA/GALS ]
Beginning LAMARCKIAN GENETIC ALGORITHM (LGA), with a maximum of 25000000 energy evaluations.

Final-Value: -10.603


	FINAL GENETIC ALGORITHM DOCKED STATE
	_______________________________________________


Detailed state:  trans -18.984 2.076 10.245 quatxyzw -0.411202 0.286333 -0.698870 0.510399 center 8.287 34.468 -0.670 ntor 10 131.2430 126.2901 -98.8748 118.5459 177.2801 37.7391 -48.1989 46.9821 -160.4587 177.9952
State:	-18.984   2.076  10.245  -0.478  0.333 -0.813 118.619    131.24  126.29  -98.87  118.55  177.28   37.74  -48.20   46.98 -160.46  178.00

DOCKED: MODEL       62
DOCKED: USER    Run = 62
DOCKED: USER    DPF = D:/Protein_go_brrr/autodock/final/AncMH_nat/heme_O2/dock.dpf
DOCKED: USER  
DOCKED: USER    Estimated Free Energy of Binding    =   -5.10 kcal/mol  [=(1)+(2)+(3)-(4)]
DOCKED: USER    Estimated Inhibition Constant, Ki   =  181.85 uM (micromolar)  [Temperature = 298.15 K]
DOCKED: USER    
DOCKED: USER    (1) Final Intermolecular Energy     =   -8.09 kcal/mol
DOCKED: USER        vdW + Hbond + desolv Energy     =   -6.03 kcal/mol
DOCKED: USER        Electrostatic Energy            =   -2.06 kcal/mol
DOCKED: USER    (2) Final Total Internal Energy     =   -2.52 kcal/mol
DOCKED: USER    (3) Torsional Free Energy           =   +2.98 kcal/mol
DOCKED: USER    (4) Unbound System's Energy  [=(2)] =   -2.52 kcal/mol
DOCKED: USER    
DOCKED: USER    
DOCKED: USER    NEWDPF move heme_O2_opt.pdbqt
DOCKED: USER    NEWDPF about 8.287000 34.468000 -0.670000
DOCKED: USER    NEWDPF tran0 -18.984458 2.076017 10.245045
DOCKED: USER    NEWDPF quaternion0 -0.411202 0.286333 -0.698870 0.510399
DOCKED: USER    NEWDPF axisangle0 -0.478177 0.332970 -0.812698 118.619235
DOCKED: USER    NEWDPF quat0 -0.478177 0.332970 -0.812698 118.619235
DOCKED: USER    NEWDPF dihe0 131.24 126.29 -98.87 118.55 177.28 37.74 -48.20 46.98 -160.46 178.00 
DOCKED: USER  keepresnum = 1 
DOCKED: USER  
DOCKED: REMARK  10 active torsions:
DOCKED: REMARK  status: ('A' for Active; 'I' for Inactive)
DOCKED: REMARK    1  A    between atoms: C_6  and  C_10 
DOCKED: REMARK    2  A    between atoms: C_10  and  C_11 
DOCKED: REMARK    3  A    between atoms: C_11  and  C_12 
DOCKED: REMARK    4  A    between atoms: C_12  and  O_14 
DOCKED: REMARK    5  A    between atoms: C_17  and  C_20 
DOCKED: REMARK    6  A    between atoms: C_24  and  C_27 
DOCKED: REMARK    7  A    between atoms: C_31  and  C_34 
DOCKED: REMARK    8  A    between atoms: C_34  and  C_35 
DOCKED: REMARK    9  A    between atoms: C_35  and  C_36 
DOCKED: REMARK   10  A    between atoms: C_36  and  O_38 
DOCKED: USER                              x       y       z     vdW  Elec       q    Type
DOCKED: USER                           _______ _______ _______ _____ _____    ______ ____
DOCKED: ROOT
DOCKED: ATOM      1  C   UNL d   1     -19.518   1.649   8.237 -0.13 +0.04    +0.064 A 
DOCKED: ATOM      2  C   UNL d   1     -16.049   0.030  11.048 -0.30 +0.00    +0.064 A 
DOCKED: ATOM      3  C   UNL d   1     -17.509   2.869  14.640 -0.19 +0.02    +0.064 C 
DOCKED: ATOM      4  C   UNL d   1     -21.371   4.190  11.918 -0.07 +0.02    +0.064 A 
DOCKED: ATOM      5  C   UNL d   1     -18.457   0.975   8.709 -0.25 +0.03    +0.066 A 
DOCKED: ATOM      6  C   UNL d   1     -17.718   0.055   7.961 -0.21 -0.01    -0.021 A 
DOCKED: ATOM      7  C   UNL d   1     -16.739  -0.447   8.787 -0.13 -0.01    -0.025 A 
DOCKED: ATOM      8  C   UNL d   1     -16.878   0.217  10.003 -0.26 +0.01    +0.066 A 
DOCKED: ATOM      9  C   UNL d   1     -15.756  -1.531   8.405 -0.28 +0.01    +0.051 C 
DOCKED: ATOM     10  C   UNL d   1     -16.130   0.713  12.340 -0.24 +0.00    +0.066 A 
DOCKED: ATOM     11  C   UNL d   1     -15.149   0.603  13.332 -0.31 +0.00    -0.021 A 
DOCKED: ATOM     12  C   UNL d   1     -15.543   1.428  14.368 -0.26 +0.00    +0.000 A 
DOCKED: ATOM     13  C   UNL d   1     -16.776   1.999  13.946 -0.20 +0.01    +0.070 A 
DOCKED: ATOM     14  C   UNL d   1     -13.876  -0.233  13.281 -0.09 +0.00    +0.052 C 
DOCKED: ATOM     15  C   UNL d   1     -18.779   3.442  14.264 -0.14 +0.04    +0.066 A 
DOCKED: ATOM     16  C   UNL d   1     -19.576   4.219  15.104 -0.10 -0.02    -0.021 A 
DOCKED: ATOM     17  C   UNL d   1     -20.683   4.606  14.349 -0.09 +0.00    +0.000 A 
DOCKED: ATOM     18  C   UNL d   1     -20.475   4.030  13.088 -0.11 +0.03    +0.070 A 
DOCKED: ATOM     19  C   UNL d   1     -19.240   4.473  16.552 -0.03 +0.05    +0.052 C 
DOCKED: ATOM     20  C   UNL d   1     -21.223   3.617  10.708 -0.10 +0.02    +0.066 A 
DOCKED: ATOM     21  C   UNL d   1     -22.091   3.818   9.638 -0.08 -0.01    -0.025 A 
DOCKED: ATOM     22  C   UNL d   1     -21.564   3.123   8.573 -0.14 -0.01    -0.021 A 
DOCKED: ATOM     23  C   UNL d   1     -20.399   2.506   9.039 -0.16 +0.03    +0.066 A 
DOCKED: ATOM     24  C   UNL d   1     -23.360   4.630   9.634 -0.04 +0.01    +0.051 C 
DOCKED: ATOM     25  N   UNL d   1     -17.976   1.045   9.975 -0.16 -0.05    -0.248 N 
DOCKED: ATOM     26  N   UNL d   1     -17.128   1.554  12.713 -0.14 -0.02    -0.248 N 
DOCKED: ATOM     27  N   UNL d   1     -19.353   3.266  13.077 -0.10 -0.09    -0.248 N 
DOCKED: ATOM     28  N   UNL d   1     -20.220   2.772  10.349 -0.10 -0.06    -0.248 N 
DOCKED: ATOM     29 FE   UNL d   1     -18.687   2.169  11.525 -0.04 +0.00    +0.000 Fe
DOCKED: ATOM     30  O   UNL d   1     -18.869   0.636  11.725 -0.11 +0.00    +0.000 OA
DOCKED: ATOM     31  O   UNL d   1     -20.015   1.624  12.166 -0.08 +0.00    +0.000 OA
DOCKED: ENDROOT
DOCKED: BRANCH   6  32
DOCKED: ATOM     32  C   UNL d   1     -18.001  -0.440   6.566 -0.17 +0.03    +0.052 C 
DOCKED: BRANCH  32  33
DOCKED: ATOM     33  C   UNL d   1     -19.132  -1.462   6.518 -0.07 +0.06    +0.115 C 
DOCKED: BRANCH  33  34
DOCKED: ATOM     34  C   UNL d   1     -20.173  -1.120   5.482 -0.07 +0.11    +0.139 C 
DOCKED: ATOM     35  O   UNL d   1     -19.860  -0.452   4.509 -0.05 -0.80    -0.650 OA
DOCKED: BRANCH  34  36
DOCKED: ATOM     36  O   UNL d   1     -21.457  -1.512   5.619 +0.03 -0.44    -0.776 OA
DOCKED: ATOM     37  H   UNL d   1     -22.193  -0.901   5.500 +0.01 +0.11    +0.167 HD
DOCKED: ENDBRANCH  34  36
DOCKED: ENDBRANCH  33  34
DOCKED: ENDBRANCH  32  33
DOCKED: ENDBRANCH   6  32
DOCKED: BRANCH  22  38
DOCKED: ATOM     38  C   UNL d   1     -22.185   3.011   7.205 -0.04 +0.04    +0.052 C 
DOCKED: BRANCH  38  39
DOCKED: ATOM     39  C   UNL d   1     -23.299   1.967   7.155 -0.06 +0.06    +0.115 C 
DOCKED: BRANCH  39  40
DOCKED: ATOM     40  C   UNL d   1     -23.192   1.066   5.951 -0.06 +0.11    +0.139 C 
DOCKED: ATOM     41  O   UNL d   1     -24.041   0.211   5.757 +0.01 -0.31    -0.650 OA
DOCKED: BRANCH  40  42
DOCKED: ATOM     42  O   UNL d   1     -22.201   1.222   5.051 -0.16 -1.39    -0.776 OA
DOCKED: ATOM     43  H   UNL d   1     -21.651   0.480   4.774 +0.02 +0.30    +0.167 HD
DOCKED: ENDBRANCH  40  42
DOCKED: ENDBRANCH  39  40
DOCKED: ENDBRANCH  38  39
DOCKED: ENDBRANCH  22  38
DOCKED: BRANCH  12  44
DOCKED: ATOM     44  C   UNL d   1     -14.721   1.582  15.631 -0.28 +0.00    +0.004 C 
DOCKED: ATOM     45  C   UNL d   1     -13.604   2.289  15.800 -0.35 -0.00    +0.012 C 
DOCKED: ENDBRANCH  12  44
DOCKED: BRANCH  17  46
DOCKED: ATOM     46  C   UNL d   1     -21.907   5.398  14.725 -0.07 +0.00    +0.004 C 
DOCKED: ATOM     47  C   UNL d   1     -22.258   6.624  14.317 -0.07 +0.01    +0.012 C 
DOCKED: ENDBRANCH  17  46
DOCKED: TORSDOF 10
DOCKED: TER
DOCKED: ENDMDL
________________________________________________________________________________


	BEGINNING GENETIC ALGORITHM DOCKING 63 of 100
Run: 63 Seed: 1575562337 1165251676 [ Run 63 of 100 GA/GALS ]
Beginning LAMARCKIAN GENETIC ALGORITHM (LGA), with a maximum of 25000000 energy evaluations.

Final-Value: -13.685


	FINAL GENETIC ALGORITHM DOCKED STATE
	_______________________________________________


Detailed state:  trans -13.747 -0.339 1.286 quatxyzw -0.444073 0.311720 -0.833927 -0.100973 center 8.287 34.468 -0.670 ntor 10 166.1581 -30.4282 -65.8114 -91.5387 -120.2081 -158.5071 112.1407 127.8633 12.1288 32.2076
State:	-13.747  -0.339   1.286  -0.446  0.313 -0.838 -168.410    166.16  -30.43  -65.81  -91.54 -120.21 -158.51  112.14  127.86   12.13   32.21

DOCKED: MODEL       63
DOCKED: USER    Run = 63
DOCKED: USER    DPF = D:/Protein_go_brrr/autodock/final/AncMH_nat/heme_O2/dock.dpf
DOCKED: USER  
DOCKED: USER    Estimated Free Energy of Binding    =   -8.46 kcal/mol  [=(1)+(2)+(3)-(4)]
DOCKED: USER    Estimated Inhibition Constant, Ki   =  631.83 nM (nanomolar)  [Temperature = 298.15 K]
DOCKED: USER    
DOCKED: USER    (1) Final Intermolecular Energy     =  -11.44 kcal/mol
DOCKED: USER        vdW + Hbond + desolv Energy     =   -8.72 kcal/mol
DOCKED: USER        Electrostatic Energy            =   -2.72 kcal/mol
DOCKED: USER    (2) Final Total Internal Energy     =   -2.24 kcal/mol
DOCKED: USER    (3) Torsional Free Energy           =   +2.98 kcal/mol
DOCKED: USER    (4) Unbound System's Energy  [=(2)] =   -2.24 kcal/mol
DOCKED: USER    
DOCKED: USER    
DOCKED: USER    NEWDPF move heme_O2_opt.pdbqt
DOCKED: USER    NEWDPF about 8.287000 34.468000 -0.670000
DOCKED: USER    NEWDPF tran0 -13.747362 -0.339384 1.285905
DOCKED: USER    NEWDPF quaternion0 -0.444073 0.311720 -0.833927 -0.100973
DOCKED: USER    NEWDPF axisangle0 -0.446355 0.313321 -0.838211 -168.409552
DOCKED: USER    NEWDPF quat0 -0.446355 0.313321 -0.838211 -168.409552
DOCKED: USER    NEWDPF dihe0 166.16 -30.43 -65.81 -91.54 -120.21 -158.51 112.14 127.86 12.13 32.21 
DOCKED: USER  keepresnum = 1 
DOCKED: USER  
DOCKED: REMARK  10 active torsions:
DOCKED: REMARK  status: ('A' for Active; 'I' for Inactive)
DOCKED: REMARK    1  A    between atoms: C_6  and  C_10 
DOCKED: REMARK    2  A    between atoms: C_10  and  C_11 
DOCKED: REMARK    3  A    between atoms: C_11  and  C_12 
DOCKED: REMARK    4  A    between atoms: C_12  and  O_14 
DOCKED: REMARK    5  A    between atoms: C_17  and  C_20 
DOCKED: REMARK    6  A    between atoms: C_24  and  C_27 
DOCKED: REMARK    7  A    between atoms: C_31  and  C_34 
DOCKED: REMARK    8  A    between atoms: C_34  and  C_35 
DOCKED: REMARK    9  A    between atoms: C_35  and  C_36 
DOCKED: REMARK   10  A    between atoms: C_36  and  O_38 
DOCKED: USER                              x       y       z     vdW  Elec       q    Type
DOCKED: USER                           _______ _______ _______ _____ _____    ______ ____
DOCKED: ROOT
DOCKED: ATOM      1  C   UNL d   1     -13.361   0.365  -0.677 -0.16 +0.08    +0.064 A 
DOCKED: ATOM      2  C   UNL d   1     -10.774   0.388   3.306 -0.28 +0.03    +0.064 A 
DOCKED: ATOM      3  C   UNL d   1     -14.337  -1.725   5.742 -0.25 +0.02    +0.064 C 
DOCKED: ATOM      4  C   UNL d   1     -16.826  -2.188   1.540 -0.09 +0.06    +0.064 A 
DOCKED: ATOM      5  C   UNL d   1     -12.366   0.542   0.207 -0.21 +0.07    +0.066 A 
DOCKED: ATOM      6  C   UNL d   1     -11.147   1.153  -0.099 -0.28 -0.01    -0.021 A 
DOCKED: ATOM      7  C   UNL d   1     -10.380   1.122   1.042 -0.31 -0.01    -0.025 A 
DOCKED: ATOM      8  C   UNL d   1     -11.171   0.535   2.027 -0.27 +0.04    +0.066 A 
DOCKED: ATOM      9  C   UNL d   1      -8.952   1.612   1.140 -0.39 +0.01    +0.051 C 
DOCKED: ATOM     10  C   UNL d   1     -11.567  -0.198   4.387 -0.20 +0.02    +0.066 A 
DOCKED: ATOM     11  C   UNL d   1     -11.171  -0.178   5.730 -0.43 -0.00    -0.021 A 
DOCKED: ATOM     12  C   UNL d   1     -12.194  -0.767   6.450 -0.37 +0.00    +0.000 A 
DOCKED: ATOM     13  C   UNL d   1     -13.172  -1.132   5.484 -0.27 +0.02    +0.070 A 
DOCKED: ATOM     14  C   UNL d   1      -9.885   0.404   6.303 -0.42 +0.01    +0.052 C 
DOCKED: ATOM     15  C   UNL d   1     -15.337  -2.143   4.790 -0.13 +0.03    +0.066 A 
DOCKED: ATOM     16  C   UNL d   1     -16.461  -2.906   5.106 -0.10 -0.01    -0.021 A 
DOCKED: ATOM     17  C   UNL d   1     -17.185  -3.052   3.923 -0.07 +0.00    +0.000 A 
DOCKED: ATOM     18  C   UNL d   1     -16.441  -2.355   2.961 -0.08 +0.06    +0.070 A 
DOCKED: ATOM     19  C   UNL d   1     -16.711  -3.469   6.483 -0.18 +0.02    +0.052 C 
DOCKED: ATOM     20  C   UNL d   1     -16.114  -1.564   0.581 -0.14 +0.08    +0.066 A 
DOCKED: ATOM     21  C   UNL d   1     -16.537  -1.423  -0.738 -0.12 -0.03    -0.025 A 
DOCKED: ATOM     22  C   UNL d   1     -15.575  -0.675  -1.377 -0.14 -0.02    -0.021 A 
DOCKED: ATOM     23  C   UNL d   1     -14.588  -0.401  -0.426 -0.13 +0.10    +0.066 A 
DOCKED: ATOM     24  C   UNL d   1     -17.794  -1.978  -1.356 -0.08 +0.04    +0.051 C 
DOCKED: ATOM     25  N   UNL d   1     -12.369   0.119   1.495 -0.16 -0.23    -0.248 N 
DOCKED: ATOM     26  N   UNL d   1     -12.780  -0.787   4.231 -0.17 -0.11    -0.248 N 
DOCKED: ATOM     27  N   UNL d   1     -15.286  -1.875   3.488 -0.09 -0.19    -0.248 N 
DOCKED: ATOM     28  N   UNL d   1     -14.898  -0.982   0.751 -0.14 -0.34    -0.248 N 
DOCKED: ATOM     29 FE   UNL d   1     -13.849  -0.887   2.480 -0.05 +0.00    +0.000 Fe
DOCKED: ATOM     30  O   UNL d   1     -12.560  -1.729   2.253 -0.05 +0.00    +0.000 OA
DOCKED: ATOM     31  O   UNL d   1     -13.973  -2.404   2.086 -0.52 +0.00    +0.000 OA
DOCKED: ENDROOT
DOCKED: BRANCH   6  32
DOCKED: ATOM     32  C   UNL d   1     -10.664   1.626  -1.446 -0.31 +0.02    +0.052 C 
DOCKED: BRANCH  32  33
DOCKED: ATOM     33  C   UNL d   1     -10.914   3.114  -1.676 -0.18 +0.04    +0.115 C 
DOCKED: BRANCH  33  34
DOCKED: ATOM     34  C   UNL d   1     -12.378   3.431  -1.850 -0.16 +0.09    +0.139 C 
DOCKED: ATOM     35  O   UNL d   1     -13.061   3.683  -0.870 -0.04 -0.93    -0.650 OA
DOCKED: BRANCH  34  36
DOCKED: ATOM     36  O   UNL d   1     -12.961   3.415  -3.066 +0.08 -0.33    -0.776 OA
DOCKED: ATOM     37  H   UNL d   1     -13.920   3.425  -3.173 +0.03 +0.09    +0.167 HD
DOCKED: ENDBRANCH  34  36
DOCKED: ENDBRANCH  33  34
DOCKED: ENDBRANCH  32  33
DOCKED: ENDBRANCH   6  32
DOCKED: BRANCH  22  38
DOCKED: ATOM     38  C   UNL d   1     -15.579  -0.302  -2.838 -0.10 +0.04    +0.052 C 
DOCKED: BRANCH  38  39
DOCKED: ATOM     39  C   UNL d   1     -15.243   1.170  -3.063 -0.06 +0.09    +0.115 C 
DOCKED: BRANCH  39  40
DOCKED: ATOM     40  C   UNL d   1     -16.122   2.093  -2.257 +0.00 +0.18    +0.139 C 
DOCKED: ATOM     41  O   UNL d   1     -17.136   1.660  -1.734 -0.01 -0.82    -0.650 OA
DOCKED: BRANCH  40  42
DOCKED: ATOM     42  O   UNL d   1     -15.783   3.381  -2.060 -0.42 -1.17    -0.776 OA
DOCKED: ATOM     43  H   UNL d   1     -14.861   3.666  -2.059 +0.02 +0.23    +0.167 HD
DOCKED: ENDBRANCH  40  42
DOCKED: ENDBRANCH  39  40
DOCKED: ENDBRANCH  38  39
DOCKED: ENDBRANCH  22  38
DOCKED: BRANCH  12  44
DOCKED: ATOM     44  C   UNL d   1     -12.132  -0.920   7.956 -0.52 +0.00    +0.004 C 
DOCKED: ATOM     45  C   UNL d   1     -12.851  -0.276   8.874 -0.60 +0.00    +0.012 C 
DOCKED: ENDBRANCH  12  44
DOCKED: BRANCH  17  46
DOCKED: ATOM     46  C   UNL d   1     -18.447  -3.816   3.625 -0.07 +0.00    +0.004 C 
DOCKED: ATOM     47  C   UNL d   1     -18.570  -5.031   3.076 -0.10 +0.01    +0.012 C 
DOCKED: ENDBRANCH  17  46
DOCKED: TORSDOF 10
DOCKED: TER
DOCKED: ENDMDL
________________________________________________________________________________


	BEGINNING GENETIC ALGORITHM DOCKING 64 of 100
Run: 64 Seed: 92629352 1469681025 [ Run 64 of 100 GA/GALS ]
Beginning LAMARCKIAN GENETIC ALGORITHM (LGA), with a maximum of 25000000 energy evaluations.

Final-Value: -18.223


	FINAL GENETIC ALGORITHM DOCKED STATE
	_______________________________________________


Detailed state:  trans -9.830 0.743 3.820 quatxyzw 0.891347 -0.011314 0.414484 -0.183237 center 8.287 34.468 -0.670 ntor 10 -32.7479 77.9569 -2.3105 -71.2084 173.1511 -37.9634 -40.1277 57.5240 -100.5030 -179.9375
State:	 -9.830   0.743   3.820   0.907 -0.012  0.422 -158.883    -32.75   77.96   -2.31  -71.21  173.15  -37.96  -40.13   57.52 -100.50 -179.94

DOCKED: MODEL       64
DOCKED: USER    Run = 64
DOCKED: USER    DPF = D:/Protein_go_brrr/autodock/final/AncMH_nat/heme_O2/dock.dpf
DOCKED: USER  
DOCKED: USER    Estimated Free Energy of Binding    =  -13.78 kcal/mol  [=(1)+(2)+(3)-(4)]
DOCKED: USER    Estimated Inhibition Constant, Ki   =   79.77 pM (picomolar)  [Temperature = 298.15 K]
DOCKED: USER    
DOCKED: USER    (1) Final Intermolecular Energy     =  -16.76 kcal/mol
DOCKED: USER        vdW + Hbond + desolv Energy     =  -13.85 kcal/mol
DOCKED: USER        Electrostatic Energy            =   -2.91 kcal/mol
DOCKED: USER    (2) Final Total Internal Energy     =   -1.46 kcal/mol
DOCKED: USER    (3) Torsional Free Energy           =   +2.98 kcal/mol
DOCKED: USER    (4) Unbound System's Energy  [=(2)] =   -1.46 kcal/mol
DOCKED: USER    
DOCKED: USER    
DOCKED: USER    NEWDPF move heme_O2_opt.pdbqt
DOCKED: USER    NEWDPF about 8.287000 34.468000 -0.670000
DOCKED: USER    NEWDPF tran0 -9.829539 0.742887 3.819540
DOCKED: USER    NEWDPF quaternion0 0.891347 -0.011314 0.414484 -0.183237
DOCKED: USER    NEWDPF axisangle0 0.906698 -0.011509 0.421622 -158.883322
DOCKED: USER    NEWDPF quat0 0.906698 -0.011509 0.421622 -158.883322
DOCKED: USER    NEWDPF dihe0 -32.75 77.96 -2.31 -71.21 173.15 -37.96 -40.13 57.52 -100.50 -179.94 
DOCKED: USER  keepresnum = 1 
DOCKED: USER  
DOCKED: REMARK  10 active torsions:
DOCKED: REMARK  status: ('A' for Active; 'I' for Inactive)
DOCKED: REMARK    1  A    between atoms: C_6  and  C_10 
DOCKED: REMARK    2  A    between atoms: C_10  and  C_11 
DOCKED: REMARK    3  A    between atoms: C_11  and  C_12 
DOCKED: REMARK    4  A    between atoms: C_12  and  O_14 
DOCKED: REMARK    5  A    between atoms: C_17  and  C_20 
DOCKED: REMARK    6  A    between atoms: C_24  and  C_27 
DOCKED: REMARK    7  A    between atoms: C_31  and  C_34 
DOCKED: REMARK    8  A    between atoms: C_34  and  C_35 
DOCKED: REMARK    9  A    between atoms: C_35  and  C_36 
DOCKED: REMARK   10  A    between atoms: C_36  and  O_38 
DOCKED: USER                              x       y       z     vdW  Elec       q    Type
DOCKED: USER                           _______ _______ _______ _____ _____    ______ ____
DOCKED: ROOT
DOCKED: ATOM      1  C   UNL d   1     -11.748   0.204   3.092 -0.24 +0.03    +0.064 A 
DOCKED: ATOM      2  C   UNL d   1      -7.784   1.656   0.916 -0.38 +0.01    +0.064 A 
DOCKED: ATOM      3  C   UNL d   1      -5.511   2.069   5.130 -0.30 +0.00    +0.064 C 
DOCKED: ATOM      4  C   UNL d   1      -9.431   0.119   7.343 -0.26 +0.01    +0.064 A 
DOCKED: ATOM      5  C   UNL d   1     -10.855   0.564   2.156 -0.28 +0.03    +0.066 A 
DOCKED: ATOM      6  C   UNL d   1     -11.130   0.605   0.787 -0.29 -0.01    -0.021 A 
DOCKED: ATOM      7  C   UNL d   1      -9.970   0.984   0.152 -0.35 -0.01    -0.025 A 
DOCKED: ATOM      8  C   UNL d   1      -9.032   1.210   1.155 -0.35 +0.02    +0.066 A 
DOCKED: ATOM      9  C   UNL d   1      -9.798   1.084  -1.348 -0.16 +0.01    +0.051 C 
DOCKED: ATOM     10  C   UNL d   1      -6.764   1.934   1.928 -0.37 +0.01    +0.066 A 
DOCKED: ATOM     11  C   UNL d   1      -5.541   2.550   1.640 -0.41 -0.00    -0.021 A 
DOCKED: ATOM     12  C   UNL d   1      -4.879   2.694   2.845 -0.38 -0.00    +0.000 A 
DOCKED: ATOM     13  C   UNL d   1      -5.749   2.134   3.820 -0.33 +0.00    +0.070 A 
DOCKED: ATOM     14  C   UNL d   1      -5.038   3.008   0.275 -0.51 -0.00    +0.052 C 
DOCKED: ATOM     15  C   UNL d   1      -6.350   1.479   6.145 -0.35 +0.00    +0.066 A 
DOCKED: ATOM     16  C   UNL d   1      -5.972   1.295   7.475 -0.43 -0.00    -0.021 A 
DOCKED: ATOM     17  C   UNL d   1      -7.074   0.739   8.125 -0.46 +0.00    +0.000 A 
DOCKED: ATOM     18  C   UNL d   1      -8.055   0.626   7.130 -0.37 +0.01    +0.070 A 
DOCKED: ATOM     19  C   UNL d   1      -4.590   1.611   7.988 -0.46 -0.00    +0.052 C 
DOCKED: ATOM     20  C   UNL d   1     -10.383  -0.043   6.403 -0.37 +0.01    +0.066 A 
DOCKED: ATOM     21  C   UNL d   1     -11.668  -0.509   6.666 -0.32 -0.00    -0.025 A 
DOCKED: ATOM     22  C   UNL d   1     -12.351  -0.466   5.472 -0.34 -0.01    -0.021 A 
DOCKED: ATOM     23  C   UNL d   1     -11.448   0.010   4.516 -0.26 +0.02    +0.066 A 
DOCKED: ATOM     24  C   UNL d   1     -12.216  -0.975   7.990 -0.43 +0.00    +0.051 C 
DOCKED: ATOM     25  N   UNL d   1      -9.558   0.888   2.385 -0.20 -0.08    -0.248 N 
DOCKED: ATOM     26  N   UNL d   1      -6.892   1.669   3.253 -0.20 -0.03    -0.248 N 
DOCKED: ATOM     27  N   UNL d   1      -7.574   1.009   5.920 -0.11 -0.05    -0.248 N 
DOCKED: ATOM     28  N   UNL d   1     -10.240   0.223   5.078 -0.24 -0.08    -0.248 N 
DOCKED: ATOM     29 FE   UNL d   1      -8.577   0.940   4.175 -0.08 +0.00    +0.000 Fe
DOCKED: ATOM     30  O   UNL d   1      -8.081  -0.184   3.219 -0.48 +0.00    +0.000 OA
DOCKED: ATOM     31  O   UNL d   1      -8.222  -0.475   4.761 -0.82 +0.00    +0.000 OA
DOCKED: ENDROOT
DOCKED: BRANCH   6  32
DOCKED: ATOM     32  C   UNL d   1     -12.392   0.174   0.085 -0.27 +0.05    +0.052 C 
DOCKED: BRANCH  32  33
DOCKED: ATOM     33  C   UNL d   1     -13.279  -0.713   0.954 -0.23 +0.13    +0.115 C 
DOCKED: BRANCH  33  34
DOCKED: ATOM     34  C   UNL d   1     -14.740  -0.352   0.840 -0.10 +0.23    +0.139 C 
DOCKED: ATOM     35  O   UNL d   1     -15.138   0.247  -0.146 -0.00 -1.44    -0.650 OA
DOCKED: BRANCH  34  36
DOCKED: ATOM     36  O   UNL d   1     -15.617  -0.654   1.819 -0.05 -1.05    -0.776 OA
DOCKED: ATOM     37  H   UNL d   1     -15.521  -1.443   2.366 +0.05 +0.17    +0.167 HD
DOCKED: ENDBRANCH  34  36
DOCKED: ENDBRANCH  33  34
DOCKED: ENDBRANCH  32  33
DOCKED: ENDBRANCH   6  32
DOCKED: BRANCH  22  38
DOCKED: ATOM     38  C   UNL d   1     -13.772  -0.918   5.255 -0.02 +0.02    +0.052 C 
DOCKED: BRANCH  38  39
DOCKED: ATOM     39  C   UNL d   1     -13.889  -2.438   5.155 -0.27 +0.04    +0.115 C 
DOCKED: BRANCH  39  40
DOCKED: ATOM     40  C   UNL d   1     -14.542  -2.882   3.870 -0.20 +0.09    +0.139 C 
DOCKED: ATOM     41  O   UNL d   1     -13.865  -3.391   2.991 -0.29 -0.64    -0.650 OA
DOCKED: BRANCH  40  42
DOCKED: ATOM     42  O   UNL d   1     -15.872  -2.774   3.691 +0.11 -0.54    -0.776 OA
DOCKED: ATOM     43  H   UNL d   1     -16.282  -1.938   3.437 +0.05 +0.13    +0.167 HD
DOCKED: ENDBRANCH  40  42
DOCKED: ENDBRANCH  39  40
DOCKED: ENDBRANCH  38  39
DOCKED: ENDBRANCH  22  38
DOCKED: BRANCH  12  44
DOCKED: ATOM     44  C   UNL d   1      -3.510   3.336   2.938 -0.47 -0.00    +0.004 C 
DOCKED: ATOM     45  C   UNL d   1      -2.824   3.643   4.038 -0.55 -0.00    +0.012 C 
DOCKED: ENDBRANCH  12  44
DOCKED: BRANCH  17  46
DOCKED: ATOM     46  C   UNL d   1      -7.250   0.269   9.544 -0.39 +0.00    +0.004 C 
DOCKED: ATOM     47  C   UNL d   1      -6.824  -0.873  10.098 -0.69 +0.00    +0.012 C 
DOCKED: ENDBRANCH  17  46
DOCKED: TORSDOF 10
DOCKED: TER
DOCKED: ENDMDL
________________________________________________________________________________


	BEGINNING GENETIC ALGORITHM DOCKING 65 of 100
Run: 65 Seed: 989283631 491593670 [ Run 65 of 100 GA/GALS ]
Beginning LAMARCKIAN GENETIC ALGORITHM (LGA), with a maximum of 25000000 energy evaluations.

Final-Value: -11.341


	FINAL GENETIC ALGORITHM DOCKED STATE
	_______________________________________________


Detailed state:  trans -14.986 -1.620 2.630 quatxyzw -0.307561 0.382982 0.371944 -0.787648 center 8.287 34.468 -0.670 ntor 10 141.2367 -37.1275 -12.3856 125.3201 -128.1502 -67.7974 -115.6508 -143.3471 -173.0208 150.0568
State:	-14.986  -1.620   2.630  -0.499  0.622  0.604 -76.068    141.24  -37.13  -12.39  125.32 -128.15  -67.80 -115.65 -143.35 -173.02  150.06

DOCKED: MODEL       65
DOCKED: USER    Run = 65
DOCKED: USER    DPF = D:/Protein_go_brrr/autodock/final/AncMH_nat/heme_O2/dock.dpf
DOCKED: USER  
DOCKED: USER    Estimated Free Energy of Binding    =   -5.97 kcal/mol  [=(1)+(2)+(3)-(4)]
DOCKED: USER    Estimated Inhibition Constant, Ki   =   41.86 uM (micromolar)  [Temperature = 298.15 K]
DOCKED: USER    
DOCKED: USER    (1) Final Intermolecular Energy     =   -8.96 kcal/mol
DOCKED: USER        vdW + Hbond + desolv Energy     =   -6.61 kcal/mol
DOCKED: USER        Electrostatic Energy            =   -2.35 kcal/mol
DOCKED: USER    (2) Final Total Internal Energy     =   -2.39 kcal/mol
DOCKED: USER    (3) Torsional Free Energy           =   +2.98 kcal/mol
DOCKED: USER    (4) Unbound System's Energy  [=(2)] =   -2.39 kcal/mol
DOCKED: USER    
DOCKED: USER    
DOCKED: USER    NEWDPF move heme_O2_opt.pdbqt
DOCKED: USER    NEWDPF about 8.287000 34.468000 -0.670000
DOCKED: USER    NEWDPF tran0 -14.985974 -1.620256 2.629727
DOCKED: USER    NEWDPF quaternion0 -0.307561 0.382982 0.371944 -0.787648
DOCKED: USER    NEWDPF axisangle0 -0.499185 0.621597 0.603682 -76.067577
DOCKED: USER    NEWDPF quat0 -0.499185 0.621597 0.603682 -76.067577
DOCKED: USER    NEWDPF dihe0 141.24 -37.13 -12.39 125.32 -128.15 -67.80 -115.65 -143.35 -173.02 150.06 
DOCKED: USER  keepresnum = 1 
DOCKED: USER  
DOCKED: REMARK  10 active torsions:
DOCKED: REMARK  status: ('A' for Active; 'I' for Inactive)
DOCKED: REMARK    1  A    between atoms: C_6  and  C_10 
DOCKED: REMARK    2  A    between atoms: C_10  and  C_11 
DOCKED: REMARK    3  A    between atoms: C_11  and  C_12 
DOCKED: REMARK    4  A    between atoms: C_12  and  O_14 
DOCKED: REMARK    5  A    between atoms: C_17  and  C_20 
DOCKED: REMARK    6  A    between atoms: C_24  and  C_27 
DOCKED: REMARK    7  A    between atoms: C_31  and  C_34 
DOCKED: REMARK    8  A    between atoms: C_34  and  C_35 
DOCKED: REMARK    9  A    between atoms: C_35  and  C_36 
DOCKED: REMARK   10  A    between atoms: C_36  and  O_38 
DOCKED: USER                              x       y       z     vdW  Elec       q    Type
DOCKED: USER                           _______ _______ _______ _____ _____    ______ ____
DOCKED: ROOT
DOCKED: ATOM      1  C   UNL d   1     -16.584  -2.569   3.652 -0.07 +0.04    +0.064 A 
DOCKED: ATOM      2  C   UNL d   1     -12.450  -0.762   5.136 -0.28 +0.02    +0.064 A 
DOCKED: ATOM      3  C   UNL d   1     -11.257   0.444   0.640 -0.31 +0.04    +0.064 C 
DOCKED: ATOM      4  C   UNL d   1     -15.713  -0.980  -0.838 -0.13 +0.08    +0.064 A 
DOCKED: ATOM      5  C   UNL d   1     -15.558  -2.175   4.423 -0.12 +0.04    +0.066 A 
DOCKED: ATOM      6  C   UNL d   1     -15.500  -2.365   5.806 -0.17 -0.01    -0.021 A 
DOCKED: ATOM      7  C   UNL d   1     -14.323  -1.804   6.243 -0.26 -0.01    -0.025 A 
DOCKED: ATOM      8  C   UNL d   1     -13.672  -1.328   5.108 -0.18 +0.03    +0.066 A 
DOCKED: ATOM      9  C   UNL d   1     -13.890  -1.718   7.690 -0.37 +0.01    +0.051 C 
DOCKED: ATOM     10  C   UNL d   1     -11.708  -0.266   3.977 -0.11 +0.03    +0.066 A 
DOCKED: ATOM     11  C   UNL d   1     -10.378   0.163   4.041 -0.14 -0.01    -0.021 A 
DOCKED: ATOM     12  C   UNL d   1     -10.010   0.498   2.751 -0.32 +0.00    +0.000 A 
DOCKED: ATOM     13  C   UNL d   1     -11.166   0.261   1.957 -0.25 +0.04    +0.070 A 
DOCKED: ATOM     14  C   UNL d   1      -9.486   0.224   5.276 -0.10 +0.02    +0.052 C 
DOCKED: ATOM     15  C   UNL d   1     -12.419   0.249  -0.193 -0.21 +0.07    +0.066 A 
DOCKED: ATOM     16  C   UNL d   1     -12.498   0.614  -1.537 -0.21 -0.02    -0.021 A 
DOCKED: ATOM     17  C   UNL d   1     -13.760   0.219  -1.980 -0.16 +0.00    +0.000 A 
DOCKED: ATOM     18  C   UNL d   1     -14.364  -0.368  -0.858 -0.12 +0.09    +0.070 A 
DOCKED: ATOM     19  C   UNL d   1     -11.394   1.350  -2.256 -0.26 +0.02    +0.052 C 
DOCKED: ATOM     20  C   UNL d   1     -16.339  -1.512   0.230 -0.13 +0.08    +0.066 A 
DOCKED: ATOM     21  C   UNL d   1     -17.604  -2.091   0.185 -0.08 -0.02    -0.025 A 
DOCKED: ATOM     22  C   UNL d   1     -17.857  -2.574   1.449 -0.06 -0.02    -0.021 A 
DOCKED: ATOM     23  C   UNL d   1     -16.740  -2.254   2.227 -0.08 +0.06    +0.066 A 
DOCKED: ATOM     24  C   UNL d   1     -18.526  -2.176  -1.004 -0.05 +0.04    +0.051 C 
DOCKED: ATOM     25  N   UNL d   1     -14.463  -1.499   3.995 -0.12 -0.16    -0.248 N 
DOCKED: ATOM     26  N   UNL d   1     -12.196  -0.199   2.712 -0.16 -0.16    -0.248 N 
DOCKED: ATOM     27  N   UNL d   1     -13.564  -0.273   0.235 -0.15 -0.33    -0.248 N 
DOCKED: ATOM     28  N   UNL d   1     -15.839  -1.569   1.493 -0.10 -0.28    -0.248 N 
DOCKED: ATOM     29 FE   UNL d   1     -14.031  -0.888   2.095 -0.05 +0.00    +0.000 Fe
DOCKED: ATOM     30  O   UNL d   1     -14.313   0.282   3.083 -0.31 +0.00    +0.000 OA
DOCKED: ATOM     31  O   UNL d   1     -14.864   0.354   1.608 -0.19 +0.00    +0.000 OA
DOCKED: ENDROOT
DOCKED: BRANCH   6  32
DOCKED: ATOM     32  C   UNL d   1     -16.569  -2.930   6.706 -0.18 +0.02    +0.052 C 
DOCKED: BRANCH  32  33
DOCKED: ATOM     33  C   UNL d   1     -17.519  -1.862   7.239 -0.12 +0.04    +0.115 C 
DOCKED: BRANCH  33  34
DOCKED: ATOM     34  C   UNL d   1     -18.281  -1.168   6.137 -0.11 +0.08    +0.139 C 
DOCKED: ATOM     35  O   UNL d   1     -19.269  -1.701   5.659 +0.04 -0.39    -0.650 OA
DOCKED: BRANCH  34  36
DOCKED: ATOM     36  O   UNL d   1     -17.878   0.022   5.646 +0.08 -0.69    -0.776 OA
DOCKED: ATOM     37  H   UNL d   1     -17.937   0.233   4.707 +0.03 +0.20    +0.167 HD
DOCKED: ENDBRANCH  34  36
DOCKED: ENDBRANCH  33  34
DOCKED: ENDBRANCH  32  33
DOCKED: ENDBRANCH   6  32
DOCKED: BRANCH  22  38
DOCKED: ATOM     38  C   UNL d   1     -19.130  -3.246   1.894 -0.02 +0.03    +0.052 C 
DOCKED: BRANCH  38  39
DOCKED: ATOM     39  C   UNL d   1     -19.964  -2.360   2.817 -0.00 +0.07    +0.115 C 
DOCKED: BRANCH  39  40
DOCKED: ATOM     40  C   UNL d   1     -19.884  -0.901   2.443 -0.04 +0.13    +0.139 C 
DOCKED: ATOM     41  O   UNL d   1     -20.515  -0.485   1.485 +0.02 -0.59    -0.650 OA
DOCKED: BRANCH  40  42
DOCKED: ATOM     42  O   UNL d   1     -19.164  -0.033   3.180 +0.03 -1.17    -0.776 OA
DOCKED: ATOM     43  H   UNL d   1     -19.092  -0.123   4.138 +0.02 +0.23    +0.167 HD
DOCKED: ENDBRANCH  40  42
DOCKED: ENDBRANCH  39  40
DOCKED: ENDBRANCH  38  39
DOCKED: ENDBRANCH  22  38
DOCKED: BRANCH  12  44
DOCKED: ATOM     44  C   UNL d   1      -8.621   1.002   2.416 -0.40 +0.00    +0.004 C 
DOCKED: ATOM     45  C   UNL d   1      -8.041   1.068   1.219 -0.49 +0.00    +0.012 C 
DOCKED: ENDBRANCH  12  44
DOCKED: BRANCH  17  46
DOCKED: ATOM     46  C   UNL d   1     -14.440   0.395  -3.311 -0.10 +0.00    +0.004 C 
DOCKED: ATOM     47  C   UNL d   1     -14.870  -0.553  -4.154 -0.09 +0.01    +0.012 C 
DOCKED: ENDBRANCH  17  46
DOCKED: TORSDOF 10
DOCKED: TER
DOCKED: ENDMDL
________________________________________________________________________________


	BEGINNING GENETIC ALGORITHM DOCKING 66 of 100
Run: 66 Seed: 1698141288 1411828241 [ Run 66 of 100 GA/GALS ]
Beginning LAMARCKIAN GENETIC ALGORITHM (LGA), with a maximum of 25000000 energy evaluations.

Final-Value: -12.192


	FINAL GENETIC ALGORITHM DOCKED STATE
	_______________________________________________


Detailed state:  trans -16.499 3.321 -1.405 quatxyzw 0.792965 0.189195 -0.193728 0.545785 center 8.287 34.468 -0.670 ntor 10 -7.9034 44.7204 -114.4807 20.8200 -113.6787 133.1532 -130.8098 155.7820 -18.3408 20.3729
State:	-16.499   3.321  -1.405   0.946  0.226 -0.231 113.843     -7.90   44.72 -114.48   20.82 -113.68  133.15 -130.81  155.78  -18.34   20.37

DOCKED: MODEL       66
DOCKED: USER    Run = 66
DOCKED: USER    DPF = D:/Protein_go_brrr/autodock/final/AncMH_nat/heme_O2/dock.dpf
DOCKED: USER  
DOCKED: USER    Estimated Free Energy of Binding    =   -7.52 kcal/mol  [=(1)+(2)+(3)-(4)]
DOCKED: USER    Estimated Inhibition Constant, Ki   =    3.09 uM (micromolar)  [Temperature = 298.15 K]
DOCKED: USER    
DOCKED: USER    (1) Final Intermolecular Energy     =  -10.50 kcal/mol
DOCKED: USER        vdW + Hbond + desolv Energy     =   -6.09 kcal/mol
DOCKED: USER        Electrostatic Energy            =   -4.41 kcal/mol
DOCKED: USER    (2) Final Total Internal Energy     =   -1.69 kcal/mol
DOCKED: USER    (3) Torsional Free Energy           =   +2.98 kcal/mol
DOCKED: USER    (4) Unbound System's Energy  [=(2)] =   -1.69 kcal/mol
DOCKED: USER    
DOCKED: USER    
DOCKED: USER    NEWDPF move heme_O2_opt.pdbqt
DOCKED: USER    NEWDPF about 8.287000 34.468000 -0.670000
DOCKED: USER    NEWDPF tran0 -16.498591 3.320836 -1.405324
DOCKED: USER    NEWDPF quaternion0 0.792965 0.189195 -0.193728 0.545785
DOCKED: USER    NEWDPF axisangle0 0.946343 0.225790 -0.231199 113.843374
DOCKED: USER    NEWDPF quat0 0.946343 0.225790 -0.231199 113.843374
DOCKED: USER    NEWDPF dihe0 -7.90 44.72 -114.48 20.82 -113.68 133.15 -130.81 155.78 -18.34 20.37 
DOCKED: USER  keepresnum = 1 
DOCKED: USER  
DOCKED: REMARK  10 active torsions:
DOCKED: REMARK  status: ('A' for Active; 'I' for Inactive)
DOCKED: REMARK    1  A    between atoms: C_6  and  C_10 
DOCKED: REMARK    2  A    between atoms: C_10  and  C_11 
DOCKED: REMARK    3  A    between atoms: C_11  and  C_12 
DOCKED: REMARK    4  A    between atoms: C_12  and  O_14 
DOCKED: REMARK    5  A    between atoms: C_17  and  C_20 
DOCKED: REMARK    6  A    between atoms: C_24  and  C_27 
DOCKED: REMARK    7  A    between atoms: C_31  and  C_34 
DOCKED: REMARK    8  A    between atoms: C_34  and  C_35 
DOCKED: REMARK    9  A    between atoms: C_35  and  C_36 
DOCKED: REMARK   10  A    between atoms: C_36  and  O_38 
DOCKED: USER                              x       y       z     vdW  Elec       q    Type
DOCKED: USER                           _______ _______ _______ _____ _____    ______ ____
DOCKED: ROOT
DOCKED: ATOM      1  C   UNL d   1     -17.630   1.530  -1.519 -0.04 +0.07    +0.064 A 
DOCKED: ATOM      2  C   UNL d   1     -18.773   5.975  -0.297 -0.07 +0.04    +0.064 A 
DOCKED: ATOM      3  C   UNL d   1     -14.243   7.427  -0.982 -0.33 +0.02    +0.064 C 
DOCKED: ATOM      4  C   UNL d   1     -13.159   2.962  -2.700 -0.09 +0.04    +0.064 A 
DOCKED: ATOM      5  C   UNL d   1     -18.311   2.621  -1.132 -0.06 +0.07    +0.066 A 
DOCKED: ATOM      6  C   UNL d   1     -19.670   2.621  -0.807 -0.04 -0.02    -0.021 A 
DOCKED: ATOM      7  C   UNL d   1     -20.013   3.916  -0.495 -0.05 -0.02    -0.025 A 
DOCKED: ATOM      8  C   UNL d   1     -18.842   4.663  -0.592 -0.07 +0.05    +0.066 A 
DOCKED: ATOM      9  C   UNL d   1     -21.411   4.384  -0.155 -0.03 +0.03    +0.051 C 
DOCKED: ATOM     10  C   UNL d   1     -17.570   6.806  -0.358 -0.11 +0.03    +0.066 A 
DOCKED: ATOM     11  C   UNL d   1     -17.519   8.122   0.115 -0.14 -0.01    -0.021 A 
DOCKED: ATOM     12  C   UNL d   1     -16.216   8.552  -0.057 -0.27 +0.00    +0.000 A 
DOCKED: ATOM     13  C   UNL d   1     -15.534   7.454  -0.649 -0.25 +0.02    +0.070 A 
DOCKED: ATOM     14  C   UNL d   1     -18.659   8.926   0.730 -0.08 +0.01    +0.052 C 
DOCKED: ATOM     15  C   UNL d   1     -13.524   6.348  -1.615 -0.28 +0.03    +0.066 A 
DOCKED: ATOM     16  C   UNL d   1     -12.215   6.441  -2.086 -0.33 -0.00    -0.021 A 
DOCKED: ATOM     17  C   UNL d   1     -11.884   5.179  -2.582 -0.21 +0.00    +0.000 A 
DOCKED: ATOM     18  C   UNL d   1     -13.031   4.401  -2.370 -0.13 +0.04    +0.070 A 
DOCKED: ATOM     19  C   UNL d   1     -11.424   7.725  -2.073 -0.18 +0.00    +0.052 C 
DOCKED: ATOM     20  C   UNL d   1     -14.257   2.197  -2.551 -0.06 +0.07    +0.066 A 
DOCKED: ATOM     21  C   UNL d   1     -14.312   0.841  -2.863 -0.09 -0.02    -0.025 A 
DOCKED: ATOM     22  C   UNL d   1     -15.571   0.410  -2.507 -0.08 -0.02    -0.021 A 
DOCKED: ATOM     23  C   UNL d   1     -16.246   1.527  -2.006 +0.02 +0.09    +0.066 A 
DOCKED: ATOM     24  C   UNL d   1     -13.221   0.001  -3.473 -0.15 +0.03    +0.051 C 
DOCKED: ATOM     25  N   UNL d   1     -17.808   3.877  -1.048 -0.07 -0.29    -0.248 N 
DOCKED: ATOM     26  N   UNL d   1     -16.366   6.397  -0.833 -0.11 -0.16    -0.248 N 
DOCKED: ATOM     27  N   UNL d   1     -14.041   5.146  -1.852 -0.11 -0.19    -0.248 N 
DOCKED: ATOM     28  N   UNL d   1     -15.459   2.621  -2.076 +0.01 -0.39    -0.248 N 
DOCKED: ATOM     29 FE   UNL d   1     -15.906   4.496  -1.460 -0.03 +0.00    +0.000 Fe
DOCKED: ATOM     30  O   UNL d   1     -16.973   5.038  -2.456 -0.09 +0.00    +0.000 OA
DOCKED: ATOM     31  O   UNL d   1     -15.568   4.572  -2.994 -0.11 +0.00    +0.000 OA
DOCKED: ENDROOT
DOCKED: BRANCH   6  32
DOCKED: ATOM     32  C   UNL d   1     -20.645   1.477  -0.917 -0.01 +0.03    +0.052 C 
DOCKED: BRANCH  32  33
DOCKED: ATOM     33  C   UNL d   1     -20.321   0.329   0.034 -0.01 +0.09    +0.115 C 
DOCKED: BRANCH  33  34
DOCKED: ATOM     34  C   UNL d   1     -20.029   0.807   1.435 +0.02 +0.21    +0.139 C 
DOCKED: ATOM     35  O   UNL d   1     -20.922   0.816   2.267 +0.13 -1.27    -0.650 OA
DOCKED: BRANCH  34  36
DOCKED: ATOM     36  O   UNL d   1     -18.805   1.253   1.785 -0.36 -1.52    -0.776 OA
DOCKED: ATOM     37  H   UNL d   1     -18.047   1.184   1.192 +0.02 +0.30    +0.167 HD
DOCKED: ENDBRANCH  34  36
DOCKED: ENDBRANCH  33  34
DOCKED: ENDBRANCH  32  33
DOCKED: ENDBRANCH   6  32
DOCKED: BRANCH  22  38
DOCKED: ATOM     38  C   UNL d   1     -16.109  -0.984  -2.701 -0.11 +0.04    +0.052 C 
DOCKED: BRANCH  38  39
DOCKED: ATOM     39  C   UNL d   1     -16.566  -1.619  -1.390 -0.11 +0.12    +0.115 C 
DOCKED: BRANCH  39  40
DOCKED: ATOM     40  C   UNL d   1     -15.860  -1.037  -0.191 -0.14 +0.18    +0.139 C 
DOCKED: ATOM     41  O   UNL d   1     -14.751  -1.444   0.115 +0.03 -0.87    -0.650 OA
DOCKED: BRANCH  40  42
DOCKED: ATOM     42  O   UNL d   1     -16.410  -0.036   0.523 -0.48 -1.48    -0.776 OA
DOCKED: ATOM     43  H   UNL d   1     -17.331  -0.068   0.810 +0.03 +0.24    +0.167 HD
DOCKED: ENDBRANCH  40  42
DOCKED: ENDBRANCH  39  40
DOCKED: ENDBRANCH  38  39
DOCKED: ENDBRANCH  22  38
DOCKED: BRANCH  12  44
DOCKED: ATOM     44  C   UNL d   1     -15.768   9.940   0.350 -0.36 -0.00    +0.004 C 
DOCKED: ATOM     45  C   UNL d   1     -15.780  10.480   1.568 -0.37 -0.01    +0.012 C 
DOCKED: ENDBRANCH  12  44
DOCKED: BRANCH  17  46
DOCKED: ATOM     46  C   UNL d   1     -10.639   4.682  -3.267 -0.29 -0.00    +0.004 C 
DOCKED: ATOM     47  C   UNL d   1      -9.440   5.274  -3.339 -0.43 -0.00    +0.012 C 
DOCKED: ENDBRANCH  17  46
DOCKED: TORSDOF 10
DOCKED: TER
DOCKED: ENDMDL
________________________________________________________________________________


	BEGINNING GENETIC ALGORITHM DOCKING 67 of 100
Run: 67 Seed: 1589580178 429765311 [ Run 67 of 100 GA/GALS ]
Beginning LAMARCKIAN GENETIC ALGORITHM (LGA), with a maximum of 25000000 energy evaluations.

Final-Value: -11.808


	FINAL GENETIC ALGORITHM DOCKED STATE
	_______________________________________________


Detailed state:  trans -13.337 -0.988 3.479 quatxyzw -0.290662 0.477646 0.334975 -0.758394 center 8.287 34.468 -0.670 ntor 10 -179.2402 -30.7591 52.8339 90.7291 173.7320 -47.2116 -58.5761 -114.5712 -137.5893 162.0464
State:	-13.337  -0.988   3.479  -0.446  0.733  0.514 -81.354   -179.24  -30.76   52.83   90.73  173.73  -47.21  -58.58 -114.57 -137.59  162.05

DOCKED: MODEL       67
DOCKED: USER    Run = 67
DOCKED: USER    DPF = D:/Protein_go_brrr/autodock/final/AncMH_nat/heme_O2/dock.dpf
DOCKED: USER  
DOCKED: USER    Estimated Free Energy of Binding    =   -8.05 kcal/mol  [=(1)+(2)+(3)-(4)]
DOCKED: USER    Estimated Inhibition Constant, Ki   =    1.26 uM (micromolar)  [Temperature = 298.15 K]
DOCKED: USER    
DOCKED: USER    (1) Final Intermolecular Energy     =  -11.03 kcal/mol
DOCKED: USER        vdW + Hbond + desolv Energy     =   -8.65 kcal/mol
DOCKED: USER        Electrostatic Energy            =   -2.39 kcal/mol
DOCKED: USER    (2) Final Total Internal Energy     =   -0.77 kcal/mol
DOCKED: USER    (3) Torsional Free Energy           =   +2.98 kcal/mol
DOCKED: USER    (4) Unbound System's Energy  [=(2)] =   -0.77 kcal/mol
DOCKED: USER    
DOCKED: USER    
DOCKED: USER    NEWDPF move heme_O2_opt.pdbqt
DOCKED: USER    NEWDPF about 8.287000 34.468000 -0.670000
DOCKED: USER    NEWDPF tran0 -13.337180 -0.988296 3.479357
DOCKED: USER    NEWDPF quaternion0 -0.290662 0.477646 0.334975 -0.758394
DOCKED: USER    NEWDPF axisangle0 -0.445941 0.732815 0.513926 -81.354323
DOCKED: USER    NEWDPF quat0 -0.445941 0.732815 0.513926 -81.354323
DOCKED: USER    NEWDPF dihe0 -179.24 -30.76 52.83 90.73 173.73 -47.21 -58.58 -114.57 -137.59 162.05 
DOCKED: USER  keepresnum = 1 
DOCKED: USER  
DOCKED: REMARK  10 active torsions:
DOCKED: REMARK  status: ('A' for Active; 'I' for Inactive)
DOCKED: REMARK    1  A    between atoms: C_6  and  C_10 
DOCKED: REMARK    2  A    between atoms: C_10  and  C_11 
DOCKED: REMARK    3  A    between atoms: C_11  and  C_12 
DOCKED: REMARK    4  A    between atoms: C_12  and  O_14 
DOCKED: REMARK    5  A    between atoms: C_17  and  C_20 
DOCKED: REMARK    6  A    between atoms: C_24  and  C_27 
DOCKED: REMARK    7  A    between atoms: C_31  and  C_34 
DOCKED: REMARK    8  A    between atoms: C_34  and  C_35 
DOCKED: REMARK    9  A    between atoms: C_35  and  C_36 
DOCKED: REMARK   10  A    between atoms: C_36  and  O_38 
DOCKED: USER                              x       y       z     vdW  Elec       q    Type
DOCKED: USER                           _______ _______ _______ _____ _____    ______ ____
DOCKED: ROOT
DOCKED: ATOM      1  C   UNL d   1     -14.831  -1.663   4.826 -0.14 +0.03    +0.064 A 
DOCKED: ATOM      2  C   UNL d   1     -10.349  -0.226   5.464 -0.34 +0.02    +0.064 A 
DOCKED: ATOM      3  C   UNL d   1      -9.801   0.468   0.741 -0.41 +0.02    +0.064 C 
DOCKED: ATOM      4  C   UNL d   1     -14.560  -0.552   0.121 -0.14 +0.10    +0.064 A 
DOCKED: ATOM      5  C   UNL d   1     -13.657  -1.327   5.385 -0.17 +0.02    +0.066 A 
DOCKED: ATOM      6  C   UNL d   1     -13.391  -1.410   6.755 -0.35 -0.00    -0.021 A 
DOCKED: ATOM      7  C   UNL d   1     -12.108  -0.953   6.946 -0.21 -0.00    -0.025 A 
DOCKED: ATOM      8  C   UNL d   1     -11.609  -0.649   5.682 -0.30 +0.02    +0.066 A 
DOCKED: ATOM      9  C   UNL d   1     -11.435  -0.801   8.293 -0.33 +0.01    +0.051 C 
DOCKED: ATOM     10  C   UNL d   1      -9.763   0.087   4.160 -0.05 +0.02    +0.066 A 
DOCKED: ATOM     11  C   UNL d   1      -8.404   0.365   3.974 -0.19 -0.01    -0.021 A 
DOCKED: ATOM     12  C   UNL d   1      -8.223   0.550   2.616 -0.35 +0.00    +0.000 A 
DOCKED: ATOM     13  C   UNL d   1      -9.513   0.383   2.039 -0.33 +0.02    +0.070 A 
DOCKED: ATOM     14  C   UNL d   1      -7.320   0.423   5.043 -0.36 +0.01    +0.052 C 
DOCKED: ATOM     15  C   UNL d   1     -11.098   0.341   0.121 -0.28 +0.04    +0.066 A 
DOCKED: ATOM     16  C   UNL d   1     -11.361   0.603  -1.223 -0.26 -0.01    -0.021 A 
DOCKED: ATOM     17  C   UNL d   1     -12.712   0.320  -1.423 -0.21 +0.00    +0.000 A 
DOCKED: ATOM     18  C   UNL d   1     -13.178  -0.101  -0.169 -0.17 +0.09    +0.070 A 
DOCKED: ATOM     19  C   UNL d   1     -10.324   1.146  -2.173 -0.25 +0.01    +0.052 C 
DOCKED: ATOM     20  C   UNL d   1     -15.050  -0.921   1.321 -0.19 +0.09    +0.066 A 
DOCKED: ATOM     21  C   UNL d   1     -16.357  -1.353   1.530 -0.13 -0.03    -0.025 A 
DOCKED: ATOM     22  C   UNL d   1     -16.445  -1.700   2.859 -0.11 -0.02    -0.021 A 
DOCKED: ATOM     23  C   UNL d   1     -15.188  -1.448   3.419 -0.15 +0.05    +0.066 A 
DOCKED: ATOM     24  C   UNL d   1     -17.466  -1.428   0.513 -0.09 +0.05    +0.051 C 
DOCKED: ATOM     25  N   UNL d   1     -12.586  -0.817   4.728 -0.21 -0.09    -0.248 N 
DOCKED: ATOM     26  N   UNL d   1     -10.445   0.107   2.986 -0.09 -0.09    -0.248 N 
DOCKED: ATOM     27  N   UNL d   1     -12.204  -0.010   0.772 -0.16 -0.23    -0.248 N 
DOCKED: ATOM     28  N   UNL d   1     -14.357  -0.932   2.490 -0.15 -0.25    -0.248 N 
DOCKED: ATOM     29 FE   UNL d   1     -12.415  -0.415   2.734 -0.06 +0.00    +0.000 Fe
DOCKED: ATOM     30  O   UNL d   1     -12.412   0.855   3.633 -0.41 +0.00    +0.000 OA
DOCKED: ATOM     31  O   UNL d   1     -13.189   0.870   2.262 -0.47 +0.00    +0.000 OA
DOCKED: ENDROOT
DOCKED: BRANCH   6  32
DOCKED: ATOM     32  C   UNL d   1     -14.347  -1.774   7.861 -0.31 +0.01    +0.052 C 
DOCKED: BRANCH  32  33
DOCKED: ATOM     33  C   UNL d   1     -15.611  -0.921   7.855 +0.12 +0.04    +0.115 C 
DOCKED: BRANCH  33  34
DOCKED: ATOM     34  C   UNL d   1     -16.861  -1.745   7.663 -0.15 +0.05    +0.139 C 
DOCKED: ATOM     35  O   UNL d   1     -16.850  -2.932   7.945 +0.05 -0.16    -0.650 OA
DOCKED: BRANCH  34  36
DOCKED: ATOM     36  O   UNL d   1     -17.988  -1.204   7.157 +0.07 -0.35    -0.776 OA
DOCKED: ATOM     37  H   UNL d   1     -18.796  -1.719   7.044 +0.04 +0.07    +0.167 HD
DOCKED: ENDBRANCH  34  36
DOCKED: ENDBRANCH  33  34
DOCKED: ENDBRANCH  32  33
DOCKED: ENDBRANCH   6  32
DOCKED: BRANCH  22  38
DOCKED: ATOM     38  C   UNL d   1     -17.687  -2.184   3.560 -0.05 +0.04    +0.052 C 
DOCKED: BRANCH  38  39
DOCKED: ATOM     39  C   UNL d   1     -18.427  -1.057   4.278 -0.10 +0.10    +0.115 C 
DOCKED: BRANCH  39  40
DOCKED: ATOM     40  C   UNL d   1     -18.959  -0.018   3.323 +0.01 +0.21    +0.139 C 
DOCKED: ATOM     41  O   UNL d   1     -20.124  -0.067   2.960 -0.02 -1.02    -0.650 OA
DOCKED: BRANCH  40  42
DOCKED: ATOM     42  O   UNL d   1     -18.184   1.000   2.900 -0.21 -1.53    -0.776 OA
DOCKED: ATOM     43  H   UNL d   1     -17.461   1.342   3.439 +0.02 +0.30    +0.167 HD
DOCKED: ENDBRANCH  40  42
DOCKED: ENDBRANCH  39  40
DOCKED: ENDBRANCH  38  39
DOCKED: ENDBRANCH  22  38
DOCKED: BRANCH  12  44
DOCKED: ATOM     44  C   UNL d   1      -6.866   0.864   2.022 -0.26 +0.00    +0.004 C 
DOCKED: ATOM     45  C   UNL d   1      -6.556   1.823   1.150 -0.49 +0.00    +0.012 C 
DOCKED: ENDBRANCH  12  44
DOCKED: BRANCH  17  46
DOCKED: ATOM     46  C   UNL d   1     -13.583   0.464  -2.643 -0.16 +0.00    +0.004 C 
DOCKED: ATOM     47  C   UNL d   1     -13.730  -0.392  -3.662 -0.14 +0.01    +0.012 C 
DOCKED: ENDBRANCH  17  46
DOCKED: TORSDOF 10
DOCKED: TER
DOCKED: ENDMDL
________________________________________________________________________________


	BEGINNING GENETIC ALGORITHM DOCKING 68 of 100
Run: 68 Seed: 213454642 1418309032 [ Run 68 of 100 GA/GALS ]
Beginning LAMARCKIAN GENETIC ALGORITHM (LGA), with a maximum of 25000000 energy evaluations.

Final-Value: -16.515


	FINAL GENETIC ALGORITHM DOCKED STATE
	_______________________________________________


Detailed state:  trans -9.812 0.717 3.762 quatxyzw -0.881732 0.012193 -0.432989 0.186871 center 8.287 34.468 -0.670 ntor 10 33.1959 -44.7637 -4.2391 -53.0663 -156.7691 -32.2269 10.8738 58.7385 34.2580 169.1179
State:	 -9.812   0.717   3.762  -0.898  0.012 -0.441 158.460     33.20  -44.76   -4.24  -53.07 -156.77  -32.23   10.87   58.74   34.26  169.12

DOCKED: MODEL       68
DOCKED: USER    Run = 68
DOCKED: USER    DPF = D:/Protein_go_brrr/autodock/final/AncMH_nat/heme_O2/dock.dpf
DOCKED: USER  
DOCKED: USER    Estimated Free Energy of Binding    =  -13.15 kcal/mol  [=(1)+(2)+(3)-(4)]
DOCKED: USER    Estimated Inhibition Constant, Ki   =  228.37 pM (picomolar)  [Temperature = 298.15 K]
DOCKED: USER    
DOCKED: USER    (1) Final Intermolecular Energy     =  -16.14 kcal/mol
DOCKED: USER        vdW + Hbond + desolv Energy     =  -13.52 kcal/mol
DOCKED: USER        Electrostatic Energy            =   -2.62 kcal/mol
DOCKED: USER    (2) Final Total Internal Energy     =   -0.38 kcal/mol
DOCKED: USER    (3) Torsional Free Energy           =   +2.98 kcal/mol
DOCKED: USER    (4) Unbound System's Energy  [=(2)] =   -0.38 kcal/mol
DOCKED: USER    
DOCKED: USER    
DOCKED: USER    NEWDPF move heme_O2_opt.pdbqt
DOCKED: USER    NEWDPF about 8.287000 34.468000 -0.670000
DOCKED: USER    NEWDPF tran0 -9.812323 0.717430 3.762072
DOCKED: USER    NEWDPF quaternion0 -0.881732 0.012193 -0.432989 0.186871
DOCKED: USER    NEWDPF axisangle0 -0.897543 0.012412 -0.440753 158.459529
DOCKED: USER    NEWDPF quat0 -0.897543 0.012412 -0.440753 158.459529
DOCKED: USER    NEWDPF dihe0 33.20 -44.76 -4.24 -53.07 -156.77 -32.23 10.87 58.74 34.26 169.12 
DOCKED: USER  keepresnum = 1 
DOCKED: USER  
DOCKED: REMARK  10 active torsions:
DOCKED: REMARK  status: ('A' for Active; 'I' for Inactive)
DOCKED: REMARK    1  A    between atoms: C_6  and  C_10 
DOCKED: REMARK    2  A    between atoms: C_10  and  C_11 
DOCKED: REMARK    3  A    between atoms: C_11  and  C_12 
DOCKED: REMARK    4  A    between atoms: C_12  and  O_14 
DOCKED: REMARK    5  A    between atoms: C_17  and  C_20 
DOCKED: REMARK    6  A    between atoms: C_24  and  C_27 
DOCKED: REMARK    7  A    between atoms: C_31  and  C_34 
DOCKED: REMARK    8  A    between atoms: C_34  and  C_35 
DOCKED: REMARK    9  A    between atoms: C_35  and  C_36 
DOCKED: REMARK   10  A    between atoms: C_36  and  O_38 
DOCKED: USER                              x       y       z     vdW  Elec       q    Type
DOCKED: USER                           _______ _______ _______ _____ _____    ______ ____
DOCKED: ROOT
DOCKED: ATOM      1  C   UNL d   1     -11.698   0.167   2.962 -0.22 +0.04    +0.064 A 
DOCKED: ATOM      2  C   UNL d   1      -7.651   1.607   0.936 -0.38 +0.01    +0.064 A 
DOCKED: ATOM      3  C   UNL d   1      -5.554   2.066   5.236 -0.31 +0.00    +0.064 C 
DOCKED: ATOM      4  C   UNL d   1      -9.559   0.129   7.305 -0.28 +0.01    +0.064 A 
DOCKED: ATOM      5  C   UNL d   1     -10.768   0.520   2.060 -0.28 +0.03    +0.066 A 
DOCKED: ATOM      6  C   UNL d   1     -10.986   0.548   0.680 -0.30 -0.01    -0.021 A 
DOCKED: ATOM      7  C   UNL d   1      -9.802   0.922   0.089 -0.36 -0.01    -0.025 A 
DOCKED: ATOM      8  C   UNL d   1      -8.907   1.160   1.128 -0.36 +0.01    +0.066 A 
DOCKED: ATOM      9  C   UNL d   1      -9.568   1.009  -1.403 +0.04 +0.01    +0.051 C 
DOCKED: ATOM     10  C   UNL d   1      -6.673   1.896   1.987 -0.36 +0.01    +0.066 A 
DOCKED: ATOM     11  C   UNL d   1      -5.441   2.513   1.743 -0.40 -0.00    -0.021 A 
DOCKED: ATOM     12  C   UNL d   1      -4.829   2.670   2.973 -0.38 -0.00    +0.000 A 
DOCKED: ATOM     13  C   UNL d   1      -5.738   2.117   3.917 -0.32 +0.00    +0.070 A 
DOCKED: ATOM     14  C   UNL d   1      -4.883   2.958   0.396 -0.53 -0.00    +0.052 C 
DOCKED: ATOM     15  C   UNL d   1      -6.433   1.483   6.222 -0.36 +0.00    +0.066 A 
DOCKED: ATOM     16  C   UNL d   1      -6.109   1.313   7.568 -0.44 -0.00    -0.021 A 
DOCKED: ATOM     17  C   UNL d   1      -7.236   0.762   8.177 -0.46 +0.00    +0.000 A 
DOCKED: ATOM     18  C   UNL d   1      -8.176   0.637   7.144 -0.37 +0.01    +0.070 A 
DOCKED: ATOM     19  C   UNL d   1      -4.750   1.638   8.134 -0.50 -0.00    +0.052 C 
DOCKED: ATOM     20  C   UNL d   1     -10.470  -0.045   6.328 -0.39 +0.01    +0.066 A 
DOCKED: ATOM     21  C   UNL d   1     -11.765  -0.511   6.543 -0.35 -0.00    -0.025 A 
DOCKED: ATOM     22  C   UNL d   1     -12.397  -0.481   5.321 -0.33 -0.01    -0.021 A 
DOCKED: ATOM     23  C   UNL d   1     -11.457  -0.012   4.398 -0.24 +0.02    +0.066 A 
DOCKED: ATOM     24  C   UNL d   1     -12.366  -0.965   7.848 -0.45 +0.01    +0.051 C 
DOCKED: ATOM     25  N   UNL d   1      -9.482   0.849   2.338 -0.20 -0.07    -0.248 N 
DOCKED: ATOM     26  N   UNL d   1      -6.855   1.645   3.308 -0.20 -0.03    -0.248 N 
DOCKED: ATOM     27  N   UNL d   1      -7.646   1.009   5.951 -0.08 -0.05    -0.248 N 
DOCKED: ATOM     28  N   UNL d   1     -10.273   0.208   5.007 -0.24 -0.08    -0.248 N 
DOCKED: ATOM     29 FE   UNL d   1      -8.575   0.921   4.167 -0.08 +0.00    +0.000 Fe
DOCKED: ATOM     30  O   UNL d   1      -8.039  -0.211   3.243 -0.48 +0.00    +0.000 OA
DOCKED: ATOM     31  O   UNL d   1      -8.242  -0.488   4.781 -0.82 +0.00    +0.000 OA
DOCKED: ENDROOT
DOCKED: BRANCH   6  32
DOCKED: ATOM     32  C   UNL d   1     -12.218   0.107  -0.069 -0.27 +0.05    +0.052 C 
DOCKED: BRANCH  32  33
DOCKED: ATOM     33  C   UNL d   1     -12.879   1.243  -0.843 -0.04 +0.15    +0.115 C 
DOCKED: BRANCH  33  34
DOCKED: ATOM     34  C   UNL d   1     -14.217   0.846  -1.416 -0.01 +0.20    +0.139 C 
DOCKED: ATOM     35  O   UNL d   1     -15.063   0.353  -0.687 -0.07 -1.23    -0.650 OA
DOCKED: BRANCH  34  36
DOCKED: ATOM     36  O   UNL d   1     -14.494   0.998  -2.727 +0.05 -0.65    -0.776 OA
DOCKED: ATOM     37  H   UNL d   1     -13.817   0.898  -3.407 +0.04 +0.09    +0.167 HD
DOCKED: ENDBRANCH  34  36
DOCKED: ENDBRANCH  33  34
DOCKED: ENDBRANCH  32  33
DOCKED: ENDBRANCH   6  32
DOCKED: BRANCH  22  38
DOCKED: ATOM     38  C   UNL d   1     -13.807  -0.939   5.050 -0.05 +0.02    +0.052 C 
DOCKED: BRANCH  38  39
DOCKED: ATOM     39  C   UNL d   1     -13.879  -2.422   4.696 -0.26 +0.05    +0.115 C 
DOCKED: BRANCH  39  40
DOCKED: ATOM     40  C   UNL d   1     -14.516  -2.664   3.350 -0.20 +0.11    +0.139 C 
DOCKED: ATOM     41  O   UNL d   1     -13.841  -3.099   2.430 -0.44 -0.79    -0.650 OA
DOCKED: BRANCH  40  42
DOCKED: ATOM     42  O   UNL d   1     -15.832  -2.456   3.156 +0.09 -0.63    -0.776 OA
DOCKED: ATOM     43  H   UNL d   1     -16.488  -2.728   3.808 +0.05 +0.11    +0.167 HD
DOCKED: ENDBRANCH  40  42
DOCKED: ENDBRANCH  39  40
DOCKED: ENDBRANCH  38  39
DOCKED: ENDBRANCH  22  38
DOCKED: BRANCH  12  44
DOCKED: ATOM     44  C   UNL d   1      -3.467   3.315   3.117 -0.47 -0.00    +0.004 C 
DOCKED: ATOM     45  C   UNL d   1      -2.842   3.667   4.240 -0.57 -0.00    +0.012 C 
DOCKED: ENDBRANCH  12  44
DOCKED: BRANCH  17  46
DOCKED: ATOM     46  C   UNL d   1      -7.470   0.305   9.593 -0.28 +0.00    +0.004 C 
DOCKED: ATOM     47  C   UNL d   1      -6.814  -0.641  10.277 -0.68 +0.00    +0.012 C 
DOCKED: ENDBRANCH  17  46
DOCKED: TORSDOF 10
DOCKED: TER
DOCKED: ENDMDL
________________________________________________________________________________


	BEGINNING GENETIC ALGORITHM DOCKING 69 of 100
Run: 69 Seed: 1076255101 2048852011 [ Run 69 of 100 GA/GALS ]
Beginning LAMARCKIAN GENETIC ALGORITHM (LGA), with a maximum of 25000000 energy evaluations.

Final-Value: -10.827


	FINAL GENETIC ALGORITHM DOCKED STATE
	_______________________________________________


Detailed state:  trans -20.624 6.001 1.444 quatxyzw 0.610599 0.132368 0.767928 -0.141188 center 8.287 34.468 -0.670 ntor 10 33.3497 21.6812 -55.9846 -104.1744 70.5689 -58.1310 153.2093 -170.0657 -158.1721 161.1664
State:	-20.624   6.001   1.444   0.617  0.134  0.776 -163.767     33.35   21.68  -55.98 -104.17   70.57  -58.13  153.21 -170.07 -158.17  161.17

DOCKED: MODEL       69
DOCKED: USER    Run = 69
DOCKED: USER    DPF = D:/Protein_go_brrr/autodock/final/AncMH_nat/heme_O2/dock.dpf
DOCKED: USER  
DOCKED: USER    Estimated Free Energy of Binding    =   -5.93 kcal/mol  [=(1)+(2)+(3)-(4)]
DOCKED: USER    Estimated Inhibition Constant, Ki   =   44.65 uM (micromolar)  [Temperature = 298.15 K]
DOCKED: USER    
DOCKED: USER    (1) Final Intermolecular Energy     =   -8.92 kcal/mol
DOCKED: USER        vdW + Hbond + desolv Energy     =   -4.79 kcal/mol
DOCKED: USER        Electrostatic Energy            =   -4.12 kcal/mol
DOCKED: USER    (2) Final Total Internal Energy     =   -1.91 kcal/mol
DOCKED: USER    (3) Torsional Free Energy           =   +2.98 kcal/mol
DOCKED: USER    (4) Unbound System's Energy  [=(2)] =   -1.91 kcal/mol
DOCKED: USER    
DOCKED: USER    
DOCKED: USER    NEWDPF move heme_O2_opt.pdbqt
DOCKED: USER    NEWDPF about 8.287000 34.468000 -0.670000
DOCKED: USER    NEWDPF tran0 -20.623570 6.000603 1.443709
DOCKED: USER    NEWDPF quaternion0 0.610599 0.132368 0.767928 -0.141188
DOCKED: USER    NEWDPF axisangle0 0.616778 0.133708 0.775698 -163.766752
DOCKED: USER    NEWDPF quat0 0.616778 0.133708 0.775698 -163.766752
DOCKED: USER    NEWDPF dihe0 33.35 21.68 -55.98 -104.17 70.57 -58.13 153.21 -170.07 -158.17 161.17 
DOCKED: USER  keepresnum = 1 
DOCKED: USER  
DOCKED: REMARK  10 active torsions:
DOCKED: REMARK  status: ('A' for Active; 'I' for Inactive)
DOCKED: REMARK    1  A    between atoms: C_6  and  C_10 
DOCKED: REMARK    2  A    between atoms: C_10  and  C_11 
DOCKED: REMARK    3  A    between atoms: C_11  and  C_12 
DOCKED: REMARK    4  A    between atoms: C_12  and  O_14 
DOCKED: REMARK    5  A    between atoms: C_17  and  C_20 
DOCKED: REMARK    6  A    between atoms: C_24  and  C_27 
DOCKED: REMARK    7  A    between atoms: C_31  and  C_34 
DOCKED: REMARK    8  A    between atoms: C_34  and  C_35 
DOCKED: REMARK    9  A    between atoms: C_35  and  C_36 
DOCKED: REMARK   10  A    between atoms: C_36  and  O_38 
DOCKED: USER                              x       y       z     vdW  Elec       q    Type
DOCKED: USER                           _______ _______ _______ _____ _____    ______ ____
DOCKED: ROOT
DOCKED: ATOM      1  C   UNL d   1     -21.036   4.711  -0.189 -0.02 +0.04    +0.064 A 
DOCKED: ATOM      2  C   UNL d   1     -17.522   7.793   0.657 -0.15 +0.02    +0.064 A 
DOCKED: ATOM      3  C   UNL d   1     -19.485   9.015   4.870 -0.20 +0.02    +0.064 C 
DOCKED: ATOM      4  C   UNL d   1     -22.848   5.502   4.230 -0.09 +0.05    +0.064 A 
DOCKED: ATOM      5  C   UNL d   1     -19.919   5.448  -0.302 -0.03 +0.04    +0.066 A 
DOCKED: ATOM      6  C   UNL d   1     -19.063   5.409  -1.407 -0.03 -0.01    -0.021 A 
DOCKED: ATOM      7  C   UNL d   1     -18.023   6.269  -1.144 -0.07 -0.01    -0.025 A 
DOCKED: ATOM      8  C   UNL d   1     -18.297   6.846   0.093 -0.09 +0.03    +0.066 A 
DOCKED: ATOM      9  C   UNL d   1     -16.825   6.479  -2.044 -0.08 +0.02    +0.051 C 
DOCKED: ATOM     10  C   UNL d   1     -17.770   8.451   1.941 -0.19 +0.02    +0.066 A 
DOCKED: ATOM     11  C   UNL d   1     -17.026   9.542   2.402 -0.32 -0.00    -0.021 A 
DOCKED: ATOM     12  C   UNL d   1     -17.588   9.921   3.608 -0.32 +0.00    +0.000 A 
DOCKED: ATOM     13  C   UNL d   1     -18.660   9.011   3.824 -0.19 +0.02    +0.070 A 
DOCKED: ATOM     14  C   UNL d   1     -15.845  10.213   1.709 -0.38 -0.02    +0.052 C 
DOCKED: ATOM     15  C   UNL d   1     -20.559   8.090   5.143 -0.13 +0.02    +0.066 A 
DOCKED: ATOM     16  C   UNL d   1     -21.281   8.047   6.335 -0.13 -0.01    -0.021 A 
DOCKED: ATOM     17  C   UNL d   1     -22.245   7.052   6.176 -0.10 +0.00    +0.000 A 
DOCKED: ATOM     18  C   UNL d   1     -22.038   6.558   4.881 -0.11 +0.04    +0.070 A 
DOCKED: ATOM     19  C   UNL d   1     -20.954   8.911   7.527 -0.17 +0.01    +0.052 C 
DOCKED: ATOM     20  C   UNL d   1     -22.650   4.975   3.006 -0.03 +0.07    +0.066 A 
DOCKED: ATOM     21  C   UNL d   1     -23.458   3.993   2.439 -0.05 -0.02    -0.025 A 
DOCKED: ATOM     22  C   UNL d   1     -22.973   3.775   1.169 -0.04 -0.02    -0.021 A 
DOCKED: ATOM     23  C   UNL d   1     -21.871   4.622   1.014 -0.05 +0.06    +0.066 A 
DOCKED: ATOM     24  C   UNL d   1     -24.632   3.297   3.077 -0.03 +0.03    +0.051 C 
DOCKED: ATOM     25  N   UNL d   1     -19.431   6.292   0.640 -0.04 -0.15    -0.248 N 
DOCKED: ATOM     26  N   UNL d   1     -18.761   8.117   2.807 -0.09 -0.09    -0.248 N 
DOCKED: ATOM     27  N   UNL d   1     -20.963   7.147   4.297 -0.09 -0.14    -0.248 N 
DOCKED: ATOM     28  N   UNL d   1     -21.651   5.316   2.150 -0.06 -0.26    -0.248 N 
DOCKED: ATOM     29 FE   UNL d   1     -20.217   6.707   2.479 -0.03 +0.00    +0.000 Fe
DOCKED: ATOM     30  O   UNL d   1     -18.867   5.935   2.533 -0.28 +0.00    +0.000 OA
DOCKED: ATOM     31  O   UNL d   1     -20.019   5.565   3.541 +0.05 +0.00    +0.000 OA
DOCKED: ENDROOT
DOCKED: BRANCH   6  32
DOCKED: ATOM     32  C   UNL d   1     -19.144   4.498  -2.604 -0.01 +0.02    +0.052 C 
DOCKED: BRANCH  32  33
DOCKED: ATOM     33  C   UNL d   1     -18.711   3.069  -2.292 -0.02 +0.07    +0.115 C 
DOCKED: BRANCH  33  34
DOCKED: ATOM     34  C   UNL d   1     -17.694   3.007  -1.179 -0.03 +0.19    +0.139 C 
DOCKED: ATOM     35  O   UNL d   1     -16.520   3.239  -1.421 -0.23 -1.31    -0.650 OA
DOCKED: BRANCH  34  36
DOCKED: ATOM     36  O   UNL d   1     -18.047   2.671   0.078 +0.05 -1.34    -0.776 OA
DOCKED: ATOM     37  H   UNL d   1     -18.751   2.037   0.259 +0.02 +0.24    +0.167 HD
DOCKED: ENDBRANCH  34  36
DOCKED: ENDBRANCH  33  34
DOCKED: ENDBRANCH  32  33
DOCKED: ENDBRANCH   6  32
DOCKED: BRANCH  22  38
DOCKED: ATOM     38  C   UNL d   1     -23.504   2.762   0.188 -0.01 +0.02    +0.052 C 
DOCKED: BRANCH  38  39
DOCKED: ATOM     39  C   UNL d   1     -22.703   1.462   0.204 -0.01 +0.07    +0.115 C 
DOCKED: BRANCH  39  40
DOCKED: ATOM     40  C   UNL d   1     -21.708   1.412   1.336 +0.00 +0.17    +0.139 C 
DOCKED: ATOM     41  O   UNL d   1     -22.058   1.009   2.433 -0.24 -1.01    -0.650 OA
DOCKED: BRANCH  40  42
DOCKED: ATOM     42  O   UNL d   1     -20.420   1.757   1.145 -0.06 -1.21    -0.776 OA
DOCKED: ATOM     43  H   UNL d   1     -20.157   2.353   0.434 +0.02 +0.20    +0.167 HD
DOCKED: ENDBRANCH  40  42
DOCKED: ENDBRANCH  39  40
DOCKED: ENDBRANCH  38  39
DOCKED: ENDBRANCH  22  38
DOCKED: BRANCH  12  44
DOCKED: ATOM     44  C   UNL d   1     -17.052  11.085   4.414 -0.35 -0.00    +0.004 C 
DOCKED: ATOM     45  C   UNL d   1     -17.693  12.198   4.770 -0.28 -0.00    +0.012 C 
DOCKED: ENDBRANCH  12  44
DOCKED: BRANCH  17  46
DOCKED: ATOM     46  C   UNL d   1     -23.272   6.509   7.134 -0.06 +0.00    +0.004 C 
DOCKED: ATOM     47  C   UNL d   1     -23.312   5.299   7.707 -0.07 +0.00    +0.012 C 
DOCKED: ENDBRANCH  17  46
DOCKED: TORSDOF 10
DOCKED: TER
DOCKED: ENDMDL
________________________________________________________________________________


	BEGINNING GENETIC ALGORITHM DOCKING 70 of 100
Run: 70 Seed: 1921996597 590567170 [ Run 70 of 100 GA/GALS ]
Beginning LAMARCKIAN GENETIC ALGORITHM (LGA), with a maximum of 25000000 energy evaluations.

Final-Value: -15.616


	FINAL GENETIC ALGORITHM DOCKED STATE
	_______________________________________________


Detailed state:  trans -10.095 0.884 3.628 quatxyzw 0.899989 -0.050267 0.416756 -0.117506 center 8.287 34.468 -0.670 ntor 10 31.7018 123.5205 -5.7055 -10.9009 -115.8456 -155.7904 18.1955 -80.7768 170.9675 71.7602
State:	-10.095   0.884   3.628   0.906 -0.051  0.420 -166.504     31.70  123.52   -5.71  -10.90 -115.85 -155.79   18.20  -80.78  170.97   71.76

DOCKED: MODEL       70
DOCKED: USER    Run = 70
DOCKED: USER    DPF = D:/Protein_go_brrr/autodock/final/AncMH_nat/heme_O2/dock.dpf
DOCKED: USER  
DOCKED: USER    Estimated Free Energy of Binding    =  -11.39 kcal/mol  [=(1)+(2)+(3)-(4)]
DOCKED: USER    Estimated Inhibition Constant, Ki   =    4.46 nM (nanomolar)  [Temperature = 298.15 K]
DOCKED: USER    
DOCKED: USER    (1) Final Intermolecular Energy     =  -14.38 kcal/mol
DOCKED: USER        vdW + Hbond + desolv Energy     =  -12.42 kcal/mol
DOCKED: USER        Electrostatic Energy            =   -1.95 kcal/mol
DOCKED: USER    (2) Final Total Internal Energy     =   -1.24 kcal/mol
DOCKED: USER    (3) Torsional Free Energy           =   +2.98 kcal/mol
DOCKED: USER    (4) Unbound System's Energy  [=(2)] =   -1.24 kcal/mol
DOCKED: USER    
DOCKED: USER    
DOCKED: USER    NEWDPF move heme_O2_opt.pdbqt
DOCKED: USER    NEWDPF about 8.287000 34.468000 -0.670000
DOCKED: USER    NEWDPF tran0 -10.095058 0.884179 3.627736
DOCKED: USER    NEWDPF quaternion0 0.899989 -0.050267 0.416756 -0.117506
DOCKED: USER    NEWDPF axisangle0 0.906267 -0.050618 0.419663 -166.503615
DOCKED: USER    NEWDPF quat0 0.906267 -0.050618 0.419663 -166.503615
DOCKED: USER    NEWDPF dihe0 31.70 123.52 -5.71 -10.90 -115.85 -155.79 18.20 -80.78 170.97 71.76 
DOCKED: USER  keepresnum = 1 
DOCKED: USER  
DOCKED: REMARK  10 active torsions:
DOCKED: REMARK  status: ('A' for Active; 'I' for Inactive)
DOCKED: REMARK    1  A    between atoms: C_6  and  C_10 
DOCKED: REMARK    2  A    between atoms: C_10  and  C_11 
DOCKED: REMARK    3  A    between atoms: C_11  and  C_12 
DOCKED: REMARK    4  A    between atoms: C_12  and  O_14 
DOCKED: REMARK    5  A    between atoms: C_17  and  C_20 
DOCKED: REMARK    6  A    between atoms: C_24  and  C_27 
DOCKED: REMARK    7  A    between atoms: C_31  and  C_34 
DOCKED: REMARK    8  A    between atoms: C_34  and  C_35 
DOCKED: REMARK    9  A    between atoms: C_35  and  C_36 
DOCKED: REMARK   10  A    between atoms: C_36  and  O_38 
DOCKED: USER                              x       y       z     vdW  Elec       q    Type
DOCKED: USER                           _______ _______ _______ _____ _____    ______ ____
DOCKED: ROOT
DOCKED: ATOM      1  C   UNL d   1     -12.010   0.491   2.805 -0.30 +0.04    +0.064 A 
DOCKED: ATOM      2  C   UNL d   1      -7.998   2.198   0.921 -0.31 +0.01    +0.064 A 
DOCKED: ATOM      3  C   UNL d   1      -5.778   1.931   5.175 -0.31 +0.00    +0.064 C 
DOCKED: ATOM      4  C   UNL d   1      -9.753  -0.274   7.019 -0.16 +0.01    +0.064 A 
DOCKED: ATOM      5  C   UNL d   1     -11.100   0.975   1.945 -0.28 +0.04    +0.066 A 
DOCKED: ATOM      6  C   UNL d   1     -11.356   1.228   0.594 -0.27 -0.02    -0.021 A 
DOCKED: ATOM      7  C   UNL d   1     -10.182   1.682   0.038 -0.29 -0.01    -0.025 A 
DOCKED: ATOM      8  C   UNL d   1      -9.255   1.739   1.075 -0.29 +0.02    +0.066 A 
DOCKED: ATOM      9  C   UNL d   1      -9.988   2.006  -1.427 -0.22 +0.01    +0.051 C 
DOCKED: ATOM     10  C   UNL d   1      -6.989   2.303   1.975 -0.34 +0.01    +0.066 A 
DOCKED: ATOM     11  C   UNL d   1      -5.754   2.938   1.798 -0.39 -0.00    -0.021 A 
DOCKED: ATOM     12  C   UNL d   1      -5.107   2.887   3.019 -0.39 -0.00    +0.000 A 
DOCKED: ATOM     13  C   UNL d   1      -5.998   2.198   3.887 -0.34 +0.00    +0.070 A 
DOCKED: ATOM     14  C   UNL d   1      -5.227   3.590   0.525 -0.41 -0.00    +0.052 C 
DOCKED: ATOM     15  C   UNL d   1      -6.638   1.206   6.078 -0.34 +0.00    +0.066 A 
DOCKED: ATOM     16  C   UNL d   1      -6.281   0.817   7.369 -0.43 -0.00    -0.021 A 
DOCKED: ATOM     17  C   UNL d   1      -7.399   0.185   7.914 -0.44 +0.00    +0.000 A 
DOCKED: ATOM     18  C   UNL d   1      -8.368   0.239   6.903 -0.35 +0.01    +0.070 A 
DOCKED: ATOM     19  C   UNL d   1      -4.902   1.031   7.940 -0.54 -0.00    +0.052 C 
DOCKED: ATOM     20  C   UNL d   1     -10.694  -0.277   6.055 -0.38 +0.01    +0.066 A 
DOCKED: ATOM     21  C   UNL d   1     -11.989  -0.758   6.230 -0.35 -0.00    -0.025 A 
DOCKED: ATOM     22  C   UNL d   1     -12.654  -0.524   5.047 -0.27 -0.01    -0.021 A 
DOCKED: ATOM     23  C   UNL d   1     -11.732   0.078   4.186 -0.26 +0.03    +0.066 A 
DOCKED: ATOM     24  C   UNL d   1     -12.560  -1.412   7.461 -0.27 +0.01    +0.051 C 
DOCKED: ATOM     25  N   UNL d   1      -9.802   1.241   2.235 -0.15 -0.08    -0.248 N 
DOCKED: ATOM     26  N   UNL d   1      -7.138   1.842   3.243 -0.09 -0.03    -0.248 N 
DOCKED: ATOM     27  N   UNL d   1      -7.865   0.794   5.770 +0.03 -0.06    -0.248 N 
DOCKED: ATOM     28  N   UNL d   1     -10.529   0.185   4.787 -0.23 -0.08    -0.248 N 
DOCKED: ATOM     29 FE   UNL d   1      -8.845   1.007   4.023 -0.08 +0.00    +0.000 Fe
DOCKED: ATOM     30  O   UNL d   1      -8.351   0.034   2.913 -0.47 +0.00    +0.000 OA
DOCKED: ATOM     31  O   UNL d   1      -8.516  -0.487   4.391 -0.71 +0.00    +0.000 OA
DOCKED: ENDROOT
DOCKED: BRANCH   6  32
DOCKED: ATOM     32  C   UNL d   1     -12.613   0.927  -0.179 -0.18 +0.07    +0.052 C 
DOCKED: BRANCH  32  33
DOCKED: ATOM     33  C   UNL d   1     -12.466  -0.276  -1.105 -0.10 +0.10    +0.115 C 
DOCKED: BRANCH  33  34
DOCKED: ATOM     34  C   UNL d   1     -13.561  -0.343  -2.140 -0.06 +0.12    +0.139 C 
DOCKED: ATOM     35  O   UNL d   1     -13.386   0.162  -3.238 +0.02 -0.37    -0.650 OA
DOCKED: BRANCH  34  36
DOCKED: ATOM     36  O   UNL d   1     -14.747  -0.926  -1.872 +0.02 -0.81    -0.776 OA
DOCKED: ATOM     37  H   UNL d   1     -15.134  -0.915  -0.989 +0.03 +0.21    +0.167 HD
DOCKED: ENDBRANCH  34  36
DOCKED: ENDBRANCH  33  34
DOCKED: ENDBRANCH  32  33
DOCKED: ENDBRANCH   6  32
DOCKED: BRANCH  22  38
DOCKED: ATOM     38  C   UNL d   1     -14.078  -0.917   4.748 +0.10 +0.03    +0.052 C 
DOCKED: BRANCH  38  39
DOCKED: ATOM     39  C   UNL d   1     -14.559  -0.379   3.402 +0.05 +0.10    +0.115 C 
DOCKED: BRANCH  39  40
DOCKED: ATOM     40  C   UNL d   1     -14.467  -1.409   2.304 -0.22 +0.14    +0.139 C 
DOCKED: ATOM     41  O   UNL d   1     -13.859  -2.449   2.497 -0.23 -0.65    -0.650 OA
DOCKED: BRANCH  40  42
DOCKED: ATOM     42  O   UNL d   1     -15.091  -1.225   1.124 +0.00 -1.01    -0.776 OA
DOCKED: ATOM     43  H   UNL d   1     -14.614  -1.281   0.287 +0.04 +0.22    +0.167 HD
DOCKED: ENDBRANCH  40  42
DOCKED: ENDBRANCH  39  40
DOCKED: ENDBRANCH  38  39
DOCKED: ENDBRANCH  22  38
DOCKED: BRANCH  12  44
DOCKED: ATOM     44  C   UNL d   1      -3.732   3.487   3.224 -0.47 -0.00    +0.004 C 
DOCKED: ATOM     45  C   UNL d   1      -3.082   3.670   4.373 -0.56 -0.00    +0.012 C 
DOCKED: ENDBRANCH  12  44
DOCKED: BRANCH  17  46
DOCKED: ATOM     46  C   UNL d   1      -7.600  -0.492   9.243 -0.50 +0.00    +0.004 C 
DOCKED: ATOM     47  C   UNL d   1      -6.669  -0.931  10.099 -0.69 +0.00    +0.012 C 
DOCKED: ENDBRANCH  17  46
DOCKED: TORSDOF 10
DOCKED: TER
DOCKED: ENDMDL
________________________________________________________________________________


	BEGINNING GENETIC ALGORITHM DOCKING 71 of 100
Run: 71 Seed: 2029461477 1941638649 [ Run 71 of 100 GA/GALS ]
Beginning LAMARCKIAN GENETIC ALGORITHM (LGA), with a maximum of 25000000 energy evaluations.

Final-Value: -12.118


	FINAL GENETIC ALGORITHM DOCKED STATE
	_______________________________________________


Detailed state:  trans -15.224 -1.001 3.084 quatxyzw -0.953537 -0.147704 -0.078451 0.250591 center 8.287 34.468 -0.670 ntor 10 51.4664 -162.5827 94.6118 142.5339 -116.2366 87.0073 121.9733 -113.1155 39.5866 -16.8298
State:	-15.224  -1.001   3.084  -0.985 -0.153 -0.081 150.975     51.47 -162.58   94.61  142.53 -116.24   87.01  121.97 -113.12   39.59  -16.83

DOCKED: MODEL       71
DOCKED: USER    Run = 71
DOCKED: USER    DPF = D:/Protein_go_brrr/autodock/final/AncMH_nat/heme_O2/dock.dpf
DOCKED: USER  
DOCKED: USER    Estimated Free Energy of Binding    =   -7.45 kcal/mol  [=(1)+(2)+(3)-(4)]
DOCKED: USER    Estimated Inhibition Constant, Ki   =    3.43 uM (micromolar)  [Temperature = 298.15 K]
DOCKED: USER    
DOCKED: USER    (1) Final Intermolecular Energy     =  -10.44 kcal/mol
DOCKED: USER        vdW + Hbond + desolv Energy     =   -7.49 kcal/mol
DOCKED: USER        Electrostatic Energy            =   -2.94 kcal/mol
DOCKED: USER    (2) Final Total Internal Energy     =   -1.68 kcal/mol
DOCKED: USER    (3) Torsional Free Energy           =   +2.98 kcal/mol
DOCKED: USER    (4) Unbound System's Energy  [=(2)] =   -1.68 kcal/mol
DOCKED: USER    
DOCKED: USER    
DOCKED: USER    NEWDPF move heme_O2_opt.pdbqt
DOCKED: USER    NEWDPF about 8.287000 34.468000 -0.670000
DOCKED: USER    NEWDPF tran0 -15.223772 -1.001129 3.084338
DOCKED: USER    NEWDPF quaternion0 -0.953537 -0.147704 -0.078451 0.250591
DOCKED: USER    NEWDPF axisangle0 -0.984964 -0.152572 -0.081037 150.975081
DOCKED: USER    NEWDPF quat0 -0.984964 -0.152572 -0.081037 150.975081
DOCKED: USER    NEWDPF dihe0 51.47 -162.58 94.61 142.53 -116.24 87.01 121.97 -113.12 39.59 -16.83 
DOCKED: USER  keepresnum = 1 
DOCKED: USER  
DOCKED: REMARK  10 active torsions:
DOCKED: REMARK  status: ('A' for Active; 'I' for Inactive)
DOCKED: REMARK    1  A    between atoms: C_6  and  C_10 
DOCKED: REMARK    2  A    between atoms: C_10  and  C_11 
DOCKED: REMARK    3  A    between atoms: C_11  and  C_12 
DOCKED: REMARK    4  A    between atoms: C_12  and  O_14 
DOCKED: REMARK    5  A    between atoms: C_17  and  C_20 
DOCKED: REMARK    6  A    between atoms: C_24  and  C_27 
DOCKED: REMARK    7  A    between atoms: C_31  and  C_34 
DOCKED: REMARK    8  A    between atoms: C_34  and  C_35 
DOCKED: REMARK    9  A    between atoms: C_35  and  C_36 
DOCKED: REMARK   10  A    between atoms: C_36  and  O_38 
DOCKED: USER                              x       y       z     vdW  Elec       q    Type
DOCKED: USER                           _______ _______ _______ _____ _____    ______ ____
DOCKED: ROOT
DOCKED: ATOM      1  C   UNL d   1     -17.022  -1.738   3.934 -0.07 +0.05    +0.064 A 
DOCKED: ATOM      2  C   UNL d   1     -15.745  -0.781  -0.539 -0.13 +0.09    +0.064 A 
DOCKED: ATOM      3  C   UNL d   1     -11.406   0.687   0.916 -0.30 +0.04    +0.064 C 
DOCKED: ATOM      4  C   UNL d   1     -12.540  -0.743   5.470 -0.32 +0.02    +0.064 A 
DOCKED: ATOM      5  C   UNL d   1     -17.028  -1.599   2.599 -0.07 +0.06    +0.066 A 
DOCKED: ATOM      6  C   UNL d   1     -18.125  -1.897   1.786 -0.04 -0.02    -0.021 A 
DOCKED: ATOM      7  C   UNL d   1     -17.742  -1.661   0.486 -0.06 -0.02    -0.025 A 
DOCKED: ATOM      8  C   UNL d   1     -16.437  -1.180   0.545 -0.12 +0.08    +0.066 A 
DOCKED: ATOM      9  C   UNL d   1     -18.602  -1.925  -0.731 -0.04 +0.04    +0.051 C 
DOCKED: ATOM     10  C   UNL d   1     -14.382  -0.246  -0.537 -0.14 +0.10    +0.066 A 
DOCKED: ATOM     11  C   UNL d   1     -13.771   0.306  -1.668 -0.16 -0.02    -0.021 A 
DOCKED: ATOM     12  C   UNL d   1     -12.526   0.751  -1.265 -0.22 +0.00    +0.000 A 
DOCKED: ATOM     13  C   UNL d   1     -12.442   0.428   0.118 -0.21 +0.07    +0.070 A 
DOCKED: ATOM     14  C   UNL d   1     -14.360   0.428  -3.069 -0.11 +0.04    +0.052 C 
DOCKED: ATOM     15  C   UNL d   1     -11.268   0.345   2.311 -0.27 +0.04    +0.066 A 
DOCKED: ATOM     16  C   UNL d   1     -10.095   0.497   3.050 -0.29 -0.01    -0.021 A 
DOCKED: ATOM     17  C   UNL d   1     -10.394   0.095   4.352 -0.17 +0.00    +0.000 A 
DOCKED: ATOM     18  C   UNL d   1     -11.746  -0.276   4.309 -0.20 +0.03    +0.070 A 
DOCKED: ATOM     19  C   UNL d   1      -8.794   0.956   2.442 -0.36 +0.01    +0.052 C 
DOCKED: ATOM     20  C   UNL d   1     -13.825  -1.147   5.455 -0.02 +0.02    +0.066 A 
DOCKED: ATOM     21  C   UNL d   1     -14.526  -1.559   6.585 -0.25 -0.01    -0.025 A 
DOCKED: ATOM     22  C   UNL d   1     -15.813  -1.821   6.171 -0.13 -0.01    -0.021 A 
DOCKED: ATOM     23  C   UNL d   1     -15.845  -1.574   4.795 -0.08 +0.04    +0.066 A 
DOCKED: ATOM     24  C   UNL d   1     -13.994  -1.701   7.988 -0.27 +0.00    +0.051 C 
DOCKED: ATOM     25  N   UNL d   1     -15.976  -1.204   1.841 -0.09 -0.29    -0.248 N 
DOCKED: ATOM     26  N   UNL d   1     -13.574  -0.183   0.551 -0.14 -0.35    -0.248 N 
DOCKED: ATOM     27  N   UNL d   1     -12.239  -0.189   3.047 -0.17 -0.15    -0.248 N 
DOCKED: ATOM     28  N   UNL d   1     -14.623  -1.208   4.356 -0.06 -0.15    -0.248 N 
DOCKED: ATOM     29 FE   UNL d   1     -14.099  -0.699   2.469 -0.05 +0.00    +0.000 Fe
DOCKED: ATOM     30  O   UNL d   1     -14.151  -2.012   1.634 -0.41 +0.00    +0.000 OA
DOCKED: ATOM     31  O   UNL d   1     -13.207  -1.923   2.892 -0.34 +0.00    +0.000 OA
DOCKED: ENDROOT
DOCKED: BRANCH   6  32
DOCKED: ATOM     32  C   UNL d   1     -19.439  -2.510   2.196 -0.01 +0.03    +0.052 C 
DOCKED: BRANCH  32  33
DOCKED: ATOM     33  C   UNL d   1     -20.639  -1.648   1.818 -0.00 +0.08    +0.115 C 
DOCKED: BRANCH  33  34
DOCKED: ATOM     34  C   UNL d   1     -20.597  -0.286   2.466 -0.05 +0.17    +0.139 C 
DOCKED: ATOM     35  O   UNL d   1     -20.090   0.650   1.870 -0.01 -1.07    -0.650 OA
DOCKED: BRANCH  34  36
DOCKED: ATOM     36  O   UNL d   1     -21.084  -0.083   3.708 -0.27 -1.28    -0.776 OA
DOCKED: ATOM     37  H   UNL d   1     -20.820  -0.631   4.456 +0.01 +0.19    +0.167 HD
DOCKED: ENDBRANCH  34  36
DOCKED: ENDBRANCH  33  34
DOCKED: ENDBRANCH  32  33
DOCKED: ENDBRANCH   6  32
DOCKED: BRANCH  22  38
DOCKED: ATOM     38  C   UNL d   1     -16.927  -2.340   7.042 -0.17 +0.02    +0.052 C 
DOCKED: BRANCH  38  39
DOCKED: ATOM     39  C   UNL d   1     -17.655  -1.222   7.784 -0.14 +0.04    +0.115 C 
DOCKED: BRANCH  39  40
DOCKED: ATOM     40  C   UNL d   1     -18.397  -0.298   6.851 -0.17 +0.09    +0.139 C 
DOCKED: ATOM     41  O   UNL d   1     -18.226   0.908   6.929 +0.00 -0.52    -0.650 OA
DOCKED: BRANCH  40  42
DOCKED: ATOM     42  O   UNL d   1     -19.210  -0.783   5.893 +0.04 -0.59    -0.776 OA
DOCKED: ATOM     43  H   UNL d   1     -19.458  -0.253   5.126 +0.02 +0.19    +0.167 HD
DOCKED: ENDBRANCH  40  42
DOCKED: ENDBRANCH  39  40
DOCKED: ENDBRANCH  38  39
DOCKED: ENDBRANCH  22  38
DOCKED: BRANCH  12  44
DOCKED: ATOM     44  C   UNL d   1     -11.563   1.423  -2.222 -0.26 +0.00    +0.004 C 
DOCKED: ATOM     45  C   UNL d   1     -10.632   0.849  -2.984 -0.34 +0.00    +0.012 C 
DOCKED: ENDBRANCH  12  44
DOCKED: BRANCH  17  46
DOCKED: ATOM     46  C   UNL d   1      -9.524  -0.020   5.575 -0.35 +0.00    +0.004 C 
DOCKED: ATOM     47  C   UNL d   1      -9.799   0.371   6.826 -0.50 +0.00    +0.012 C 
DOCKED: ENDBRANCH  17  46
DOCKED: TORSDOF 10
DOCKED: TER
DOCKED: ENDMDL
________________________________________________________________________________


	BEGINNING GENETIC ALGORITHM DOCKING 72 of 100
Run: 72 Seed: 1469077001 139712066 [ Run 72 of 100 GA/GALS ]
Beginning LAMARCKIAN GENETIC ALGORITHM (LGA), with a maximum of 25000000 energy evaluations.

Final-Value: -13.480


	FINAL GENETIC ALGORITHM DOCKED STATE
	_______________________________________________


Detailed state:  trans -12.784 -0.870 3.946 quatxyzw -0.332902 0.331704 0.252553 -0.845793 center 8.287 34.468 -0.670 ntor 10 23.4890 39.2279 75.4825 -56.4709 173.4220 178.3473 109.1449 96.2752 35.3376 -147.5067
State:	-12.784  -0.870   3.946  -0.624  0.622  0.473 -64.486     23.49   39.23   75.48  -56.47  173.42  178.35  109.14   96.28   35.34 -147.51

DOCKED: MODEL       72
DOCKED: USER    Run = 72
DOCKED: USER    DPF = D:/Protein_go_brrr/autodock/final/AncMH_nat/heme_O2/dock.dpf
DOCKED: USER  
DOCKED: USER    Estimated Free Energy of Binding    =   -9.96 kcal/mol  [=(1)+(2)+(3)-(4)]
DOCKED: USER    Estimated Inhibition Constant, Ki   =   49.84 nM (nanomolar)  [Temperature = 298.15 K]
DOCKED: USER    
DOCKED: USER    (1) Final Intermolecular Energy     =  -12.95 kcal/mol
DOCKED: USER        vdW + Hbond + desolv Energy     =  -10.60 kcal/mol
DOCKED: USER        Electrostatic Energy            =   -2.34 kcal/mol
DOCKED: USER    (2) Final Total Internal Energy     =   -0.54 kcal/mol
DOCKED: USER    (3) Torsional Free Energy           =   +2.98 kcal/mol
DOCKED: USER    (4) Unbound System's Energy  [=(2)] =   -0.54 kcal/mol
DOCKED: USER    
DOCKED: USER    
DOCKED: USER    NEWDPF move heme_O2_opt.pdbqt
DOCKED: USER    NEWDPF about 8.287000 34.468000 -0.670000
DOCKED: USER    NEWDPF tran0 -12.783870 -0.869974 3.946112
DOCKED: USER    NEWDPF quaternion0 -0.332902 0.331704 0.252553 -0.845793
DOCKED: USER    NEWDPF axisangle0 -0.623982 0.621739 0.473379 -64.485988
DOCKED: USER    NEWDPF quat0 -0.623982 0.621739 0.473379 -64.485988
DOCKED: USER    NEWDPF dihe0 23.49 39.23 75.48 -56.47 173.42 178.35 109.14 96.28 35.34 -147.51 
DOCKED: USER  keepresnum = 1 
DOCKED: USER  
DOCKED: REMARK  10 active torsions:
DOCKED: REMARK  status: ('A' for Active; 'I' for Inactive)
DOCKED: REMARK    1  A    between atoms: C_6  and  C_10 
DOCKED: REMARK    2  A    between atoms: C_10  and  C_11 
DOCKED: REMARK    3  A    between atoms: C_11  and  C_12 
DOCKED: REMARK    4  A    between atoms: C_12  and  O_14 
DOCKED: REMARK    5  A    between atoms: C_17  and  C_20 
DOCKED: REMARK    6  A    between atoms: C_24  and  C_27 
DOCKED: REMARK    7  A    between atoms: C_31  and  C_34 
DOCKED: REMARK    8  A    between atoms: C_34  and  C_35 
DOCKED: REMARK    9  A    between atoms: C_35  and  C_36 
DOCKED: REMARK   10  A    between atoms: C_36  and  O_38 
DOCKED: USER                              x       y       z     vdW  Elec       q    Type
DOCKED: USER                           _______ _______ _______ _____ _____    ______ ____
DOCKED: ROOT
DOCKED: ATOM      1  C   UNL d   1     -14.708  -1.449   4.625 -0.04 +0.03    +0.064 A 
DOCKED: ATOM      2  C   UNL d   1     -10.718  -0.272   6.917 -0.36 +0.01    +0.064 A 
DOCKED: ATOM      3  C   UNL d   1      -8.404   0.362   2.752 -0.38 +0.01    +0.064 C 
DOCKED: ATOM      4  C   UNL d   1     -12.635  -0.381   0.382 -0.19 +0.06    +0.064 A 
DOCKED: ATOM      5  C   UNL d   1     -13.812  -1.179   5.588 -0.02 +0.02    +0.066 A 
DOCKED: ATOM      6  C   UNL d   1     -14.082  -1.270   6.957 -0.13 -0.00    -0.021 A 
DOCKED: ATOM      7  C   UNL d   1     -12.941  -0.888   7.621 -0.44 -0.00    -0.025 A 
DOCKED: ATOM      8  C   UNL d   1     -11.989  -0.620   6.640 -0.34 +0.01    +0.066 A 
DOCKED: ATOM      9  C   UNL d   1     -12.813  -0.768   9.124 +0.30 -0.00    +0.051 C 
DOCKED: ATOM     10  C   UNL d   1      -9.670  -0.001   5.931 -0.31 +0.02    +0.066 A 
DOCKED: ATOM     11  C   UNL d   1      -8.327   0.195   6.271 -0.37 -0.00    -0.021 A 
DOCKED: ATOM     12  C   UNL d   1      -7.640   0.362   5.083 -0.32 +0.00    +0.000 A 
DOCKED: ATOM     13  C   UNL d   1      -8.628   0.268   4.063 -0.09 +0.02    +0.070 A 
DOCKED: ATOM     14  C   UNL d   1      -7.719   0.196   7.669 -0.45 +0.00    +0.052 C 
DOCKED: ATOM     15  C   UNL d   1      -9.380   0.308   1.691 -0.35 +0.02    +0.066 A 
DOCKED: ATOM     16  C   UNL d   1      -9.106   0.577   0.350 -0.40 -0.00    -0.021 A 
DOCKED: ATOM     17  C   UNL d   1     -10.298   0.372  -0.345 -0.35 +0.00    +0.000 A 
DOCKED: ATOM     18  C   UNL d   1     -11.222  -0.014   0.637 -0.28 +0.04    +0.070 A 
DOCKED: ATOM     19  C   UNL d   1      -7.760   1.054  -0.134 -0.08 +0.00    +0.052 C 
DOCKED: ATOM     20  C   UNL d   1     -13.558  -0.714   1.305 -0.24 +0.08    +0.066 A 
DOCKED: ATOM     21  C   UNL d   1     -14.870  -1.069   1.003 -0.20 -0.03    -0.025 A 
DOCKED: ATOM     22  C   UNL d   1     -15.468  -1.402   2.198 -0.18 -0.02    -0.021 A 
DOCKED: ATOM     23  C   UNL d   1     -14.500  -1.221   3.190 -0.20 +0.05    +0.066 A 
DOCKED: ATOM     24  C   UNL d   1     -15.521  -1.085  -0.356 -0.15 +0.07    +0.051 C 
DOCKED: ATOM     25  N   UNL d   1     -12.547  -0.736   5.388 -0.25 -0.07    -0.248 N 
DOCKED: ATOM     26  N   UNL d   1      -9.860   0.052   4.589 -0.18 -0.08    -0.248 N 
DOCKED: ATOM     27  N   UNL d   1     -10.667   0.025   1.875 -0.17 -0.11    -0.248 N 
DOCKED: ATOM     28  N   UNL d   1     -13.354  -0.760   2.648 -0.17 -0.21    -0.248 N 
DOCKED: ATOM     29 FE   UNL d   1     -11.619  -0.356   3.609 -0.07 +0.00    +0.000 Fe
DOCKED: ATOM     30  O   UNL d   1     -11.882   0.917   4.465 -0.47 +0.00    +0.000 OA
DOCKED: ATOM     31  O   UNL d   1     -12.087   0.970   2.904 -0.42 +0.00    +0.000 OA
DOCKED: ENDROOT
DOCKED: BRANCH   6  32
DOCKED: ATOM     32  C   UNL d   1     -15.402  -1.572   7.619 -0.29 +0.01    +0.052 C 
DOCKED: BRANCH  32  33
DOCKED: ATOM     33  C   UNL d   1     -15.362  -2.837   8.470 -0.02 +0.01    +0.115 C 
DOCKED: BRANCH  33  34
DOCKED: ATOM     34  C   UNL d   1     -15.323  -4.092   7.634 -0.38 +0.03    +0.139 C 
DOCKED: ATOM     35  O   UNL d   1     -14.919  -4.038   6.483 +0.03 -0.20    -0.650 OA
DOCKED: BRANCH  34  36
DOCKED: ATOM     36  O   UNL d   1     -15.752  -5.275   8.120 -0.23 -0.24    -0.776 OA
DOCKED: ATOM     37  H   UNL d   1     -16.386  -5.330   8.844 -0.41 +0.02    +0.167 HD
DOCKED: ENDBRANCH  34  36
DOCKED: ENDBRANCH  33  34
DOCKED: ENDBRANCH  32  33
DOCKED: ENDBRANCH   6  32
DOCKED: BRANCH  22  38
DOCKED: ATOM     38  C   UNL d   1     -16.908  -1.809   2.375 -0.10 +0.05    +0.052 C 
DOCKED: BRANCH  38  39
DOCKED: ATOM     39  C   UNL d   1     -17.868  -0.901   1.611 -0.07 +0.12    +0.115 C 
DOCKED: BRANCH  39  40
DOCKED: ATOM     40  C   UNL d   1     -18.232   0.339   2.389 -0.15 +0.21    +0.139 C 
DOCKED: ATOM     41  O   UNL d   1     -18.384   0.272   3.598 -0.04 -0.98    -0.650 OA
DOCKED: BRANCH  40  42
DOCKED: ATOM     42  O   UNL d   1     -18.344   1.535   1.780 -0.50 -1.58    -0.776 OA
DOCKED: ATOM     43  H   UNL d   1     -18.777   1.627   0.923 +0.02 +0.27    +0.167 HD
DOCKED: ENDBRANCH  40  42
DOCKED: ENDBRANCH  39  40
DOCKED: ENDBRANCH  38  39
DOCKED: ENDBRANCH  22  38
DOCKED: BRANCH  12  44
DOCKED: ATOM     44  C   UNL d   1      -6.144   0.593   5.044 -0.35 +0.00    +0.004 C 
DOCKED: ATOM     45  C   UNL d   1      -5.497   1.716   4.734 -0.21 +0.00    +0.012 C 
DOCKED: ENDBRANCH  12  44
DOCKED: BRANCH  17  46
DOCKED: ATOM     46  C   UNL d   1     -10.639   0.561  -1.799 -0.30 +0.00    +0.004 C 
DOCKED: ATOM     47  C   UNL d   1     -10.635   1.696  -2.510 -0.32 +0.00    +0.012 C 
DOCKED: ENDBRANCH  17  46
DOCKED: TORSDOF 10
DOCKED: TER
DOCKED: ENDMDL
________________________________________________________________________________


	BEGINNING GENETIC ALGORITHM DOCKING 73 of 100
Run: 73 Seed: 43874167 864443843 [ Run 73 of 100 GA/GALS ]
Beginning LAMARCKIAN GENETIC ALGORITHM (LGA), with a maximum of 25000000 energy evaluations.

Final-Value: -14.414


	FINAL GENETIC ALGORITHM DOCKED STATE
	_______________________________________________


Detailed state:  trans -15.011 -0.989 3.027 quatxyzw -0.902046 -0.027904 -0.374126 0.213458 center 8.287 34.468 -0.670 ntor 10 44.3883 -123.7152 95.6021 114.0814 -162.7835 147.4959 -166.8327 -112.7162 -14.7942 -21.6703
State:	-15.011  -0.989   3.027  -0.923 -0.029 -0.383 155.350     44.39 -123.72   95.60  114.08 -162.78  147.50 -166.83 -112.72  -14.79  -21.67

DOCKED: MODEL       73
DOCKED: USER    Run = 73
DOCKED: USER    DPF = D:/Protein_go_brrr/autodock/final/AncMH_nat/heme_O2/dock.dpf
DOCKED: USER  
DOCKED: USER    Estimated Free Energy of Binding    =   -9.67 kcal/mol  [=(1)+(2)+(3)-(4)]
DOCKED: USER    Estimated Inhibition Constant, Ki   =   82.02 nM (nanomolar)  [Temperature = 298.15 K]
DOCKED: USER    
DOCKED: USER    (1) Final Intermolecular Energy     =  -12.65 kcal/mol
DOCKED: USER        vdW + Hbond + desolv Energy     =   -9.00 kcal/mol
DOCKED: USER        Electrostatic Energy            =   -3.65 kcal/mol
DOCKED: USER    (2) Final Total Internal Energy     =   -1.76 kcal/mol
DOCKED: USER    (3) Torsional Free Energy           =   +2.98 kcal/mol
DOCKED: USER    (4) Unbound System's Energy  [=(2)] =   -1.76 kcal/mol
DOCKED: USER    
DOCKED: USER    
DOCKED: USER    NEWDPF move heme_O2_opt.pdbqt
DOCKED: USER    NEWDPF about 8.287000 34.468000 -0.670000
DOCKED: USER    NEWDPF tran0 -15.010576 -0.988575 3.027252
DOCKED: USER    NEWDPF quaternion0 -0.902046 -0.027904 -0.374126 0.213458
DOCKED: USER    NEWDPF axisangle0 -0.923327 -0.028562 -0.382952 155.349796
DOCKED: USER    NEWDPF quat0 -0.923327 -0.028562 -0.382952 155.349796
DOCKED: USER    NEWDPF dihe0 44.39 -123.72 95.60 114.08 -162.78 147.50 -166.83 -112.72 -14.79 -21.67 
DOCKED: USER  keepresnum = 1 
DOCKED: USER  
DOCKED: REMARK  10 active torsions:
DOCKED: REMARK  status: ('A' for Active; 'I' for Inactive)
DOCKED: REMARK    1  A    between atoms: C_6  and  C_10 
DOCKED: REMARK    2  A    between atoms: C_10  and  C_11 
DOCKED: REMARK    3  A    between atoms: C_11  and  C_12 
DOCKED: REMARK    4  A    between atoms: C_12  and  O_14 
DOCKED: REMARK    5  A    between atoms: C_17  and  C_20 
DOCKED: REMARK    6  A    between atoms: C_24  and  C_27 
DOCKED: REMARK    7  A    between atoms: C_31  and  C_34 
DOCKED: REMARK    8  A    between atoms: C_34  and  C_35 
DOCKED: REMARK    9  A    between atoms: C_35  and  C_36 
DOCKED: REMARK   10  A    between atoms: C_36  and  O_38 
DOCKED: USER                              x       y       z     vdW  Elec       q    Type
DOCKED: USER                           _______ _______ _______ _____ _____    ______ ____
DOCKED: ROOT
DOCKED: ATOM      1  C   UNL d   1     -16.970  -1.636   2.535 -0.07 +0.06    +0.064 A 
DOCKED: ATOM      2  C   UNL d   1     -13.281  -0.265  -0.125 -0.18 +0.08    +0.064 A 
DOCKED: ATOM      3  C   UNL d   1     -10.636   0.555   3.803 -0.30 +0.02    +0.064 C 
DOCKED: ATOM      4  C   UNL d   1     -14.260  -1.308   6.534 +0.07 +0.02    +0.064 A 
DOCKED: ATOM      5  C   UNL d   1     -16.181  -1.332   1.491 -0.13 +0.08    +0.066 A 
DOCKED: ATOM      6  C   UNL d   1     -16.586  -1.411   0.155 -0.13 -0.02    -0.021 A 
DOCKED: ATOM      7  C   UNL d   1     -15.505  -1.056  -0.617 -0.13 -0.03    -0.025 A 
DOCKED: ATOM      8  C   UNL d   1     -14.485  -0.723   0.269 -0.15 +0.09    +0.066 A 
DOCKED: ATOM      9  C   UNL d   1     -15.478  -1.076  -2.130 -0.11 +0.05    +0.051 C 
DOCKED: ATOM     10  C   UNL d   1     -12.180   0.122   0.759 -0.24 +0.06    +0.066 A 
DOCKED: ATOM     11  C   UNL d   1     -11.012   0.744   0.305 -0.30 -0.01    -0.021 A 
DOCKED: ATOM     12  C   UNL d   1     -10.244   1.005   1.424 -0.33 +0.00    +0.000 A 
DOCKED: ATOM     13  C   UNL d   1     -10.999   0.505   2.521 -0.28 +0.03    +0.070 A 
DOCKED: ATOM     14  C   UNL d   1     -10.655   1.100  -1.134 -0.33 +0.02    +0.052 C 
DOCKED: ATOM     15  C   UNL d   1     -11.354   0.029   4.938 -0.34 +0.02    +0.066 A 
DOCKED: ATOM     16  C   UNL d   1     -10.846  -0.034   6.236 -0.44 -0.00    -0.021 A 
DOCKED: ATOM     17  C   UNL d   1     -11.862  -0.563   7.032 -0.38 +0.00    +0.000 A 
DOCKED: ATOM     18  C   UNL d   1     -12.929  -0.784   6.149 -0.22 +0.02    +0.070 A 
DOCKED: ATOM     19  C   UNL d   1      -9.433   0.360   6.585 -0.44 +0.01    +0.052 C 
DOCKED: ATOM     20  C   UNL d   1     -15.290  -1.572   5.707 -0.07 +0.03    +0.066 A 
DOCKED: ATOM     21  C   UNL d   1     -16.528  -2.048   6.130 -0.13 -0.01    -0.025 A 
DOCKED: ATOM     22  C   UNL d   1     -17.322  -2.122   5.007 -0.08 -0.01    -0.021 A 
DOCKED: ATOM     23  C   UNL d   1     -16.530  -1.704   3.933 -0.09 +0.05    +0.066 A 
DOCKED: ATOM     24  C   UNL d   1     -16.932  -2.417   7.534 -0.18 +0.02    +0.051 C 
DOCKED: ATOM     25  N   UNL d   1     -14.881  -0.956   1.566 -0.14 -0.31    -0.248 N 
DOCKED: ATOM     26  N   UNL d   1     -12.173  -0.035   2.107 -0.16 -0.19    -0.248 N 
DOCKED: ATOM     27  N   UNL d   1     -12.577  -0.490   4.871 -0.22 -0.09    -0.248 N 
DOCKED: ATOM     28  N   UNL d   1     -15.282  -1.414   4.357 -0.05 -0.16    -0.248 N 
DOCKED: ATOM     29 FE   UNL d   1     -13.737  -0.730   3.242 -0.06 +0.00    +0.000 Fe
DOCKED: ATOM     30  O   UNL d   1     -13.296  -1.916   2.336 -0.44 +0.00    +0.000 OA
DOCKED: ATOM     31  O   UNL d   1     -13.280  -2.082   3.903 -0.29 +0.00    +0.000 OA
DOCKED: ENDROOT
DOCKED: BRANCH   6  32
DOCKED: ATOM     32  C   UNL d   1     -17.893  -1.932  -0.384 -0.07 +0.05    +0.052 C 
DOCKED: BRANCH  32  33
DOCKED: ATOM     33  C   UNL d   1     -19.075  -1.028  -0.048 -0.01 +0.09    +0.115 C 
DOCKED: BRANCH  33  34
DOCKED: ATOM     34  C   UNL d   1     -18.640   0.303   0.513 -0.06 +0.16    +0.139 C 
DOCKED: ATOM     35  O   UNL d   1     -17.742   0.924  -0.034 -0.25 -1.02    -0.650 OA
DOCKED: BRANCH  34  36
DOCKED: ATOM     36  O   UNL d   1     -19.203   0.815   1.627 -0.16 -1.26    -0.776 OA
DOCKED: ATOM     37  H   UNL d   1     -19.364   0.277   2.411 +0.02 +0.27    +0.167 HD
DOCKED: ENDBRANCH  34  36
DOCKED: ENDBRANCH  33  34
DOCKED: ENDBRANCH  32  33
DOCKED: ENDBRANCH   6  32
DOCKED: BRANCH  22  38
DOCKED: ATOM     38  C   UNL d   1     -18.741  -2.629   4.966 -0.06 +0.03    +0.052 C 
DOCKED: BRANCH  38  39
DOCKED: ATOM     39  C   UNL d   1     -19.748  -1.577   5.426 -0.06 +0.07    +0.115 C 
DOCKED: BRANCH  39  40
DOCKED: ATOM     40  C   UNL d   1     -19.820  -0.399   4.487 -0.02 +0.18    +0.139 C 
DOCKED: ATOM     41  O   UNL d   1     -18.868   0.358   4.389 +0.13 -1.06    -0.650 OA
DOCKED: BRANCH  40  42
DOCKED: ATOM     42  O   UNL d   1     -20.902  -0.193   3.712 -0.29 -1.20    -0.776 OA
DOCKED: ATOM     43  H   UNL d   1     -20.835  -0.158   2.750 +0.01 +0.23    +0.167 HD
DOCKED: ENDBRANCH  40  42
DOCKED: ENDBRANCH  39  40
DOCKED: ENDBRANCH  38  39
DOCKED: ENDBRANCH  22  38
DOCKED: BRANCH  12  44
DOCKED: ATOM     44  C   UNL d   1      -8.895   1.688   1.333 -0.39 +0.00    +0.004 C 
DOCKED: ATOM     45  C   UNL d   1      -7.701   1.122   1.160 -0.48 +0.00    +0.012 C 
DOCKED: ENDBRANCH  12  44
DOCKED: BRANCH  17  46
DOCKED: ATOM     46  C   UNL d   1     -11.887  -0.918   8.495 -0.54 +0.00    +0.004 C 
DOCKED: ATOM     47  C   UNL d   1     -12.512  -0.279   9.492 -0.45 +0.00    +0.012 C 
DOCKED: ENDBRANCH  17  46
DOCKED: TORSDOF 10
DOCKED: TER
DOCKED: ENDMDL
________________________________________________________________________________


	BEGINNING GENETIC ALGORITHM DOCKING 74 of 100
Run: 74 Seed: 408856237 379397307 [ Run 74 of 100 GA/GALS ]
Beginning LAMARCKIAN GENETIC ALGORITHM (LGA), with a maximum of 25000000 energy evaluations.

Final-Value: -13.355


	FINAL GENETIC ALGORITHM DOCKED STATE
	_______________________________________________


Detailed state:  trans -13.840 -1.064 3.175 quatxyzw -0.272483 0.409211 0.324156 -0.808221 center 8.287 34.468 -0.670 ntor 10 -120.9618 -25.0732 43.1943 110.6285 -21.5214 -44.5642 -83.2135 162.3771 -171.4397 -179.9774
State:	-13.840  -1.064   3.175  -0.463  0.695  0.550 -72.155   -120.96  -25.07   43.19  110.63  -21.52  -44.56  -83.21  162.38 -171.44 -179.98

DOCKED: MODEL       74
DOCKED: USER    Run = 74
DOCKED: USER    DPF = D:/Protein_go_brrr/autodock/final/AncMH_nat/heme_O2/dock.dpf
DOCKED: USER  
DOCKED: USER    Estimated Free Energy of Binding    =   -8.01 kcal/mol  [=(1)+(2)+(3)-(4)]
DOCKED: USER    Estimated Inhibition Constant, Ki   =    1.35 uM (micromolar)  [Temperature = 298.15 K]
DOCKED: USER    
DOCKED: USER    (1) Final Intermolecular Energy     =  -10.99 kcal/mol
DOCKED: USER        vdW + Hbond + desolv Energy     =   -8.36 kcal/mol
DOCKED: USER        Electrostatic Energy            =   -2.63 kcal/mol
DOCKED: USER    (2) Final Total Internal Energy     =   -2.37 kcal/mol
DOCKED: USER    (3) Torsional Free Energy           =   +2.98 kcal/mol
DOCKED: USER    (4) Unbound System's Energy  [=(2)] =   -2.37 kcal/mol
DOCKED: USER    
DOCKED: USER    
DOCKED: USER    NEWDPF move heme_O2_opt.pdbqt
DOCKED: USER    NEWDPF about 8.287000 34.468000 -0.670000
DOCKED: USER    NEWDPF tran0 -13.840394 -1.064312 3.175300
DOCKED: USER    NEWDPF quaternion0 -0.272483 0.409211 0.324156 -0.808221
DOCKED: USER    NEWDPF axisangle0 -0.462716 0.694899 0.550463 -72.154951
DOCKED: USER    NEWDPF quat0 -0.462716 0.694899 0.550463 -72.154951
DOCKED: USER    NEWDPF dihe0 -120.96 -25.07 43.19 110.63 -21.52 -44.56 -83.21 162.38 -171.44 -179.98 
DOCKED: USER  keepresnum = 1 
DOCKED: USER  
DOCKED: REMARK  10 active torsions:
DOCKED: REMARK  status: ('A' for Active; 'I' for Inactive)
DOCKED: REMARK    1  A    between atoms: C_6  and  C_10 
DOCKED: REMARK    2  A    between atoms: C_10  and  C_11 
DOCKED: REMARK    3  A    between atoms: C_11  and  C_12 
DOCKED: REMARK    4  A    between atoms: C_12  and  O_14 
DOCKED: REMARK    5  A    between atoms: C_17  and  C_20 
DOCKED: REMARK    6  A    between atoms: C_24  and  C_27 
DOCKED: REMARK    7  A    between atoms: C_31  and  C_34 
DOCKED: REMARK    8  A    between atoms: C_34  and  C_35 
DOCKED: REMARK    9  A    between atoms: C_35  and  C_36 
DOCKED: REMARK   10  A    between atoms: C_36  and  O_38 
DOCKED: USER                              x       y       z     vdW  Elec       q    Type
DOCKED: USER                           _______ _______ _______ _____ _____    ______ ____
DOCKED: ROOT
DOCKED: ATOM      1  C   UNL d   1     -15.529  -1.806   4.224 -0.12 +0.04    +0.064 A 
DOCKED: ATOM      2  C   UNL d   1     -11.160  -0.585   5.632 -0.26 +0.01    +0.064 A 
DOCKED: ATOM      3  C   UNL d   1      -9.913   0.511   1.122 -0.39 +0.02    +0.064 C 
DOCKED: ATOM      4  C   UNL d   1     -14.549  -0.287  -0.268 -0.15 +0.10    +0.064 A 
DOCKED: ATOM      5  C   UNL d   1     -14.443  -1.561   4.975 -0.18 +0.03    +0.066 A 
DOCKED: ATOM      6  C   UNL d   1     -14.381  -1.776   6.355 -0.26 -0.01    -0.021 A 
DOCKED: ATOM      7  C   UNL d   1     -13.130  -1.382   6.771 -0.36 -0.00    -0.025 A 
DOCKED: ATOM      8  C   UNL d   1     -12.447  -0.983   5.626 -0.32 +0.02    +0.066 A 
DOCKED: ATOM      9  C   UNL d   1     -12.659  -1.374   8.208 -0.39 +0.00    +0.051 C 
DOCKED: ATOM     10  C   UNL d   1     -10.383  -0.176   4.461 -0.04 +0.02    +0.066 A 
DOCKED: ATOM     11  C   UNL d   1      -9.006   0.070   4.498 -0.04 -0.01    -0.021 A 
DOCKED: ATOM     12  C   UNL d   1      -8.624   0.370   3.204 -0.34 +0.00    +0.000 A 
DOCKED: ATOM     13  C   UNL d   1      -9.819   0.300   2.435 -0.28 +0.02    +0.070 A 
DOCKED: ATOM     14  C   UNL d   1      -8.088  -0.004   5.713 -0.38 +0.01    +0.052 C 
DOCKED: ATOM     15  C   UNL d   1     -11.108   0.484   0.313 -0.27 +0.04    +0.066 A 
DOCKED: ATOM     16  C   UNL d   1     -11.166   0.874  -1.024 -0.28 -0.01    -0.021 A 
DOCKED: ATOM     17  C   UNL d   1     -12.479   0.656  -1.442 -0.22 +0.00    +0.000 A 
DOCKED: ATOM     18  C   UNL d   1     -13.131   0.141  -0.313 -0.17 +0.09    +0.070 A 
DOCKED: ATOM     19  C   UNL d   1      -9.990   1.465  -1.761 -0.24 +0.01    +0.052 C 
DOCKED: ATOM     20  C   UNL d   1     -15.218  -0.745   0.809 -0.13 +0.10    +0.066 A 
DOCKED: ATOM     21  C   UNL d   1     -16.549  -1.150   0.786 -0.13 -0.03    -0.025 A 
DOCKED: ATOM     22  C   UNL d   1     -16.838  -1.611   2.051 -0.10 -0.02    -0.021 A 
DOCKED: ATOM     23  C   UNL d   1     -15.672  -1.453   2.806 -0.14 +0.06    +0.066 A 
DOCKED: ATOM     24  C   UNL d   1     -17.500  -1.096  -0.382 -0.08 +0.05    +0.051 C 
DOCKED: ATOM     25  N   UNL d   1     -13.277  -1.031   4.530 -0.19 -0.11    -0.248 N 
DOCKED: ATOM     26  N   UNL d   1     -10.885  -0.028   3.208 -0.04 -0.10    -0.248 N 
DOCKED: ATOM     27  N   UNL d   1     -12.303   0.114   0.762 -0.16 -0.24    -0.248 N 
DOCKED: ATOM     28  N   UNL d   1     -14.703  -0.885   2.059 -0.14 -0.29    -0.248 N 
DOCKED: ATOM     29 FE   UNL d   1     -12.807  -0.458   2.627 -0.06 +0.00    +0.000 Fe
DOCKED: ATOM     30  O   UNL d   1     -12.910   0.725   3.632 -0.22 +0.00    +0.000 OA
DOCKED: ATOM     31  O   UNL d   1     -13.478   0.889   2.172 -0.41 +0.00    +0.000 OA
DOCKED: ENDROOT
DOCKED: BRANCH   6  32
DOCKED: ATOM     32  C   UNL d   1     -15.496  -2.205   7.273 -0.27 +0.01    +0.052 C 
DOCKED: BRANCH  32  33
DOCKED: ATOM     33  C   UNL d   1     -16.308  -1.030   7.809 -0.11 +0.04    +0.115 C 
DOCKED: BRANCH  33  34
DOCKED: ATOM     34  C   UNL d   1     -17.537  -0.754   6.979 -0.11 +0.07    +0.139 C 
DOCKED: ATOM     35  O   UNL d   1     -18.207   0.240   7.205 -0.05 -0.41    -0.650 OA
DOCKED: BRANCH  34  36
DOCKED: ATOM     36  O   UNL d   1     -17.932  -1.600   6.005 +0.08 -0.41    -0.776 OA
DOCKED: ATOM     37  H   UNL d   1     -18.013  -1.319   5.086 +0.04 +0.11    +0.167 HD
DOCKED: ENDBRANCH  34  36
DOCKED: ENDBRANCH  33  34
DOCKED: ENDBRANCH  32  33
DOCKED: ENDBRANCH   6  32
DOCKED: BRANCH  22  38
DOCKED: ATOM     38  C   UNL d   1     -18.179  -2.114   2.518 -0.04 +0.04    +0.052 C 
DOCKED: BRANCH  38  39
DOCKED: ATOM     39  C   UNL d   1     -19.155  -0.978   2.817 -0.06 +0.11    +0.115 C 
DOCKED: BRANCH  39  40
DOCKED: ATOM     40  C   UNL d   1     -18.456   0.344   3.019 -0.11 +0.22    +0.139 C 
DOCKED: ATOM     41  O   UNL d   1     -18.419   1.155   2.108 -0.32 -1.29    -0.650 OA
DOCKED: BRANCH  40  42
DOCKED: ATOM     42  O   UNL d   1     -17.913   0.669   4.208 +0.11 -1.16    -0.776 OA
DOCKED: ATOM     43  H   UNL d   1     -18.206   0.253   5.027 +0.03 +0.20    +0.167 HD
DOCKED: ENDBRANCH  40  42
DOCKED: ENDBRANCH  39  40
DOCKED: ENDBRANCH  38  39
DOCKED: ENDBRANCH  22  38
DOCKED: BRANCH  12  44
DOCKED: ATOM     44  C   UNL d   1      -7.189   0.690   2.842 -0.34 +0.00    +0.004 C 
DOCKED: ATOM     45  C   UNL d   1      -6.746   1.603   1.979 -0.45 +0.00    +0.012 C 
DOCKED: ENDBRANCH  12  44
DOCKED: BRANCH  17  46
DOCKED: ATOM     46  C   UNL d   1     -13.158   0.939  -2.755 -0.16 +0.00    +0.004 C 
DOCKED: ATOM     47  C   UNL d   1     -13.489   0.072  -3.721 -0.14 +0.01    +0.012 C 
DOCKED: ENDBRANCH  17  46
DOCKED: TORSDOF 10
DOCKED: TER
DOCKED: ENDMDL
________________________________________________________________________________


	BEGINNING GENETIC ALGORITHM DOCKING 75 of 100
Run: 75 Seed: 595984137 1038391548 [ Run 75 of 100 GA/GALS ]
Beginning LAMARCKIAN GENETIC ALGORITHM (LGA), with a maximum of 25000000 energy evaluations.

Final-Value: -12.982


	FINAL GENETIC ALGORITHM DOCKED STATE
	_______________________________________________


Detailed state:  trans -14.080 -0.840 0.805 quatxyzw 0.047714 0.587965 0.066316 0.804750 center 8.287 34.468 -0.670 ntor 10 151.1045 8.8812 6.8969 19.1393 -113.3399 -60.5344 -104.0218 163.6174 179.4712 -180.0000
State:	-14.080  -0.840   0.805   0.080  0.990  0.112 72.828    151.10    8.88    6.90   19.14 -113.34  -60.53 -104.02  163.62  179.47 -180.00

DOCKED: MODEL       75
DOCKED: USER    Run = 75
DOCKED: USER    DPF = D:/Protein_go_brrr/autodock/final/AncMH_nat/heme_O2/dock.dpf
DOCKED: USER  
DOCKED: USER    Estimated Free Energy of Binding    =   -7.80 kcal/mol  [=(1)+(2)+(3)-(4)]
DOCKED: USER    Estimated Inhibition Constant, Ki   =    1.92 uM (micromolar)  [Temperature = 298.15 K]
DOCKED: USER    
DOCKED: USER    (1) Final Intermolecular Energy     =  -10.78 kcal/mol
DOCKED: USER        vdW + Hbond + desolv Energy     =   -7.81 kcal/mol
DOCKED: USER        Electrostatic Energy            =   -2.97 kcal/mol
DOCKED: USER    (2) Final Total Internal Energy     =   -2.20 kcal/mol
DOCKED: USER    (3) Torsional Free Energy           =   +2.98 kcal/mol
DOCKED: USER    (4) Unbound System's Energy  [=(2)] =   -2.20 kcal/mol
DOCKED: USER    
DOCKED: USER    
DOCKED: USER    NEWDPF move heme_O2_opt.pdbqt
DOCKED: USER    NEWDPF about 8.287000 34.468000 -0.670000
DOCKED: USER    NEWDPF tran0 -14.079549 -0.840224 0.805135
DOCKED: USER    NEWDPF quaternion0 0.047714 0.587965 0.066316 0.804750
DOCKED: USER    NEWDPF axisangle0 0.080379 0.990484 0.111716 72.827812
DOCKED: USER    NEWDPF quat0 0.080379 0.990484 0.111716 72.827812
DOCKED: USER    NEWDPF dihe0 151.10 8.88 6.90 19.14 -113.34 -60.53 -104.02 163.62 179.47 -180.00 
DOCKED: USER  keepresnum = 1 
DOCKED: USER  
DOCKED: REMARK  10 active torsions:
DOCKED: REMARK  status: ('A' for Active; 'I' for Inactive)
DOCKED: REMARK    1  A    between atoms: C_6  and  C_10 
DOCKED: REMARK    2  A    between atoms: C_10  and  C_11 
DOCKED: REMARK    3  A    between atoms: C_11  and  C_12 
DOCKED: REMARK    4  A    between atoms: C_12  and  O_14 
DOCKED: REMARK    5  A    between atoms: C_17  and  C_20 
DOCKED: REMARK    6  A    between atoms: C_24  and  C_27 
DOCKED: REMARK    7  A    between atoms: C_31  and  C_34 
DOCKED: REMARK    8  A    between atoms: C_34  and  C_35 
DOCKED: REMARK    9  A    between atoms: C_35  and  C_36 
DOCKED: REMARK   10  A    between atoms: C_36  and  O_38 
DOCKED: USER                              x       y       z     vdW  Elec       q    Type
DOCKED: USER                           _______ _______ _______ _____ _____    ______ ____
DOCKED: ROOT
DOCKED: ATOM      1  C   UNL d   1     -13.790  -0.275  -1.219 -0.14 +0.07    +0.064 A 
DOCKED: ATOM      2  C   UNL d   1     -17.367  -2.452   1.024 -0.07 +0.06    +0.064 A 
DOCKED: ATOM      3  C   UNL d   1     -14.978  -2.282   5.191 -0.21 +0.03    +0.064 C 
DOCKED: ATOM      4  C   UNL d   1     -11.496   0.384   2.993 -0.29 +0.03    +0.064 A 
DOCKED: ATOM      5  C   UNL d   1     -14.959  -0.880  -0.948 -0.11 +0.08    +0.066 A 
DOCKED: ATOM      6  C   UNL d   1     -15.941  -1.148  -1.906 -0.12 -0.02    -0.021 A 
DOCKED: ATOM      7  C   UNL d   1     -16.995  -1.739  -1.250 -0.10 -0.02    -0.025 A 
DOCKED: ATOM      8  C   UNL d   1     -16.608  -1.859   0.082 -0.08 +0.08    +0.066 A 
DOCKED: ATOM      9  C   UNL d   1     -18.307  -2.129  -1.894 -0.06 +0.03    +0.051 C 
DOCKED: ATOM     10  C   UNL d   1     -17.004  -2.628   2.431 -0.07 +0.06    +0.066 A 
DOCKED: ATOM     11  C   UNL d   1     -17.756  -3.394   3.330 -0.05 -0.01    -0.021 A 
DOCKED: ATOM     12  C   UNL d   1     -17.074  -3.372   4.532 -0.09 +0.00    +0.000 A 
DOCKED: ATOM     13  C   UNL d   1     -15.926  -2.566   4.298 -0.10 +0.04    +0.070 A 
DOCKED: ATOM     14  C   UNL d   1     -19.055  -4.138   3.045 -0.04 +0.03    +0.052 C 
DOCKED: ATOM     15  C   UNL d   1     -13.820  -1.443   5.004 -0.20 +0.03    +0.066 A 
DOCKED: ATOM     16  C   UNL d   1     -12.953  -1.052   6.024 -0.33 -0.01    -0.021 A 
DOCKED: ATOM     17  C   UNL d   1     -11.952  -0.290   5.421 -0.40 +0.00    +0.000 A 
DOCKED: ATOM     18  C   UNL d   1     -12.287  -0.274   4.059 -0.25 +0.03    +0.070 A 
DOCKED: ATOM     19  C   UNL d   1     -13.185  -1.390   7.475 -0.46 +0.01    +0.052 C 
DOCKED: ATOM     20  C   UNL d   1     -11.810   0.455   1.685 -0.26 +0.05    +0.066 A 
DOCKED: ATOM     21  C   UNL d   1     -11.016   1.074   0.724 -0.28 -0.02    -0.025 A 
DOCKED: ATOM     22  C   UNL d   1     -11.641   0.872  -0.486 -0.26 -0.02    -0.021 A 
DOCKED: ATOM     23  C   UNL d   1     -12.807   0.150  -0.215 -0.19 +0.08    +0.066 A 
DOCKED: ATOM     24  C   UNL d   1      -9.728   1.823   0.949 -0.31 +0.02    +0.051 C 
DOCKED: ATOM     25  N   UNL d   1     -15.380  -1.271   0.279 -0.13 -0.33    -0.248 N 
DOCKED: ATOM     26  N   UNL d   1     -15.894  -2.113   3.018 -0.07 -0.21    -0.248 N 
DOCKED: ATOM     27  N   UNL d   1     -13.463  -0.915   3.836 -0.17 -0.15    -0.248 N 
DOCKED: ATOM     28  N   UNL d   1     -12.929  -0.063   1.111 -0.16 -0.29    -0.248 N 
DOCKED: ATOM     29 FE   UNL d   1     -14.399  -1.080   2.060 -0.05 +0.00    +0.000 Fe
DOCKED: ATOM     30  O   UNL d   1     -15.678  -0.200   1.950 -0.39 +0.00    +0.000 OA
DOCKED: ATOM     31  O   UNL d   1     -14.387   0.382   2.640 -0.33 +0.00    +0.000 OA
DOCKED: ENDROOT
DOCKED: BRANCH   6  32
DOCKED: ATOM     32  C   UNL d   1     -15.951  -0.742  -3.357 -0.08 +0.03    +0.052 C 
DOCKED: BRANCH  32  33
DOCKED: ATOM     33  C   UNL d   1     -16.747   0.534  -3.610 -0.01 +0.06    +0.115 C 
DOCKED: BRANCH  33  34
DOCKED: ATOM     34  C   UNL d   1     -16.025   1.768  -3.128 -0.04 +0.11    +0.139 C 
DOCKED: ATOM     35  O   UNL d   1     -15.356   2.421  -3.914 +0.02 -0.32    -0.650 OA
DOCKED: BRANCH  34  36
DOCKED: ATOM     36  O   UNL d   1     -16.076   2.154  -1.837 +0.10 -1.33    -0.776 OA
DOCKED: ATOM     37  H   UNL d   1     -15.358   2.647  -1.422 +0.04 +0.46    +0.167 HD
DOCKED: ENDBRANCH  34  36
DOCKED: ENDBRANCH  33  34
DOCKED: ENDBRANCH  32  33
DOCKED: ENDBRANCH   6  32
DOCKED: BRANCH  22  38
DOCKED: ATOM     38  C   UNL d   1     -11.171   1.402  -1.816 -0.28 +0.02    +0.052 C 
DOCKED: BRANCH  38  39
DOCKED: ATOM     39  C   UNL d   1     -11.503   2.881  -2.003 -0.18 +0.05    +0.115 C 
DOCKED: BRANCH  39  40
DOCKED: ATOM     40  C   UNL d   1     -12.564   3.360  -1.044 -0.16 +0.15    +0.139 C 
DOCKED: ATOM     41  O   UNL d   1     -12.250   3.707   0.083 -0.15 -0.75    -0.650 OA
DOCKED: BRANCH  40  42
DOCKED: ATOM     42  O   UNL d   1     -13.852   3.460  -1.426 +0.02 -1.30    -0.776 OA
DOCKED: ATOM     43  H   UNL d   1     -14.164   3.079  -2.255 +0.03 +0.19    +0.167 HD
DOCKED: ENDBRANCH  40  42
DOCKED: ENDBRANCH  39  40
DOCKED: ENDBRANCH  38  39
DOCKED: ENDBRANCH  22  38
DOCKED: BRANCH  12  44
DOCKED: ATOM     44  C   UNL d   1     -17.580  -4.105   5.757 -0.12 +0.00    +0.004 C 
DOCKED: ATOM     45  C   UNL d   1     -17.047  -4.125   6.978 -0.21 +0.00    +0.012 C 
DOCKED: ENDBRANCH  12  44
DOCKED: BRANCH  17  46
DOCKED: ATOM     46  C   UNL d   1     -10.780   0.448   6.012 -0.49 +0.00    +0.004 C 
DOCKED: ATOM     47  C   UNL d   1     -10.288   0.360   7.254 -0.53 +0.00    +0.012 C 
DOCKED: ENDBRANCH  17  46
DOCKED: TORSDOF 10
DOCKED: TER
DOCKED: ENDMDL
________________________________________________________________________________


	BEGINNING GENETIC ALGORITHM DOCKING 76 of 100
Run: 76 Seed: 1096960506 498002075 [ Run 76 of 100 GA/GALS ]
Beginning LAMARCKIAN GENETIC ALGORITHM (LGA), with a maximum of 25000000 energy evaluations.

Final-Value: -17.120


	FINAL GENETIC ALGORITHM DOCKED STATE
	_______________________________________________


Detailed state:  trans -9.908 0.729 4.368 quatxyzw 0.907259 -0.000419 0.375884 -0.188660 center 8.287 34.468 -0.670 ntor 10 -118.5971 66.1624 -1.3214 -94.5897 -77.2601 -73.1208 -23.4320 -37.3310 -118.0329 -178.6128
State:	 -9.908   0.729   4.368   0.924 -0.000  0.383 -158.251   -118.60   66.16   -1.32  -94.59  -77.26  -73.12  -23.43  -37.33 -118.03 -178.61

DOCKED: MODEL       76
DOCKED: USER    Run = 76
DOCKED: USER    DPF = D:/Protein_go_brrr/autodock/final/AncMH_nat/heme_O2/dock.dpf
DOCKED: USER  
DOCKED: USER    Estimated Free Energy of Binding    =  -13.74 kcal/mol  [=(1)+(2)+(3)-(4)]
DOCKED: USER    Estimated Inhibition Constant, Ki   =   84.95 pM (picomolar)  [Temperature = 298.15 K]
DOCKED: USER    
DOCKED: USER    (1) Final Intermolecular Energy     =  -16.72 kcal/mol
DOCKED: USER        vdW + Hbond + desolv Energy     =  -14.70 kcal/mol
DOCKED: USER        Electrostatic Energy            =   -2.02 kcal/mol
DOCKED: USER    (2) Final Total Internal Energy     =   -0.40 kcal/mol
DOCKED: USER    (3) Torsional Free Energy           =   +2.98 kcal/mol
DOCKED: USER    (4) Unbound System's Energy  [=(2)] =   -0.40 kcal/mol
DOCKED: USER    
DOCKED: USER    
DOCKED: USER    NEWDPF move heme_O2_opt.pdbqt
DOCKED: USER    NEWDPF about 8.287000 34.468000 -0.670000
DOCKED: USER    NEWDPF tran0 -9.907587 0.729033 4.368105
DOCKED: USER    NEWDPF quaternion0 0.907259 -0.000419 0.375884 -0.188660
DOCKED: USER    NEWDPF axisangle0 0.923849 -0.000427 0.382757 -158.250783
DOCKED: USER    NEWDPF quat0 0.923849 -0.000427 0.382757 -158.250783
DOCKED: USER    NEWDPF dihe0 -118.60 66.16 -1.32 -94.59 -77.26 -73.12 -23.43 -37.33 -118.03 -178.61 
DOCKED: USER  keepresnum = 1 
DOCKED: USER  
DOCKED: REMARK  10 active torsions:
DOCKED: REMARK  status: ('A' for Active; 'I' for Inactive)
DOCKED: REMARK    1  A    between atoms: C_6  and  C_10 
DOCKED: REMARK    2  A    between atoms: C_10  and  C_11 
DOCKED: REMARK    3  A    between atoms: C_11  and  C_12 
DOCKED: REMARK    4  A    between atoms: C_12  and  O_14 
DOCKED: REMARK    5  A    between atoms: C_17  and  C_20 
DOCKED: REMARK    6  A    between atoms: C_24  and  C_27 
DOCKED: REMARK    7  A    between atoms: C_31  and  C_34 
DOCKED: REMARK    8  A    between atoms: C_34  and  C_35 
DOCKED: REMARK    9  A    between atoms: C_35  and  C_36 
DOCKED: REMARK   10  A    between atoms: C_36  and  O_38 
DOCKED: USER                              x       y       z     vdW  Elec       q    Type
DOCKED: USER                           _______ _______ _______ _____ _____    ______ ____
DOCKED: ROOT
DOCKED: ATOM      1  C   UNL d   1     -11.881   0.180   3.815 -0.28 +0.03    +0.064 A 
DOCKED: ATOM      2  C   UNL d   1      -8.121   1.609   1.289 -0.36 +0.01    +0.064 A 
DOCKED: ATOM      3  C   UNL d   1      -5.495   2.074   5.286 -0.30 +0.00    +0.064 C 
DOCKED: ATOM      4  C   UNL d   1      -9.207   0.148   7.851 -0.23 +0.01    +0.064 A 
DOCKED: ATOM      5  C   UNL d   1     -11.072   0.529   2.802 -0.29 +0.03    +0.066 A 
DOCKED: ATOM      6  C   UNL d   1     -11.464   0.554   1.460 -0.29 -0.01    -0.021 A 
DOCKED: ATOM      7  C   UNL d   1     -10.364   0.926   0.723 -0.32 -0.01    -0.025 A 
DOCKED: ATOM      8  C   UNL d   1      -9.343   1.164   1.640 -0.31 +0.02    +0.066 A 
DOCKED: ATOM      9  C   UNL d   1     -10.321   1.008  -0.787 -0.36 +0.02    +0.051 C 
DOCKED: ATOM     10  C   UNL d   1      -7.018   1.899   2.206 -0.33 +0.01    +0.066 A 
DOCKED: ATOM     11  C   UNL d   1      -5.826   2.513   1.806 -0.40 -0.00    -0.021 A 
DOCKED: ATOM     12  C   UNL d   1      -5.063   2.672   2.948 -0.38 +0.00    +0.000 A 
DOCKED: ATOM     13  C   UNL d   1      -5.845   2.122   4.001 -0.33 +0.00    +0.070 A 
DOCKED: ATOM     14  C   UNL d   1      -5.442   2.954   0.398 -0.48 -0.00    +0.052 C 
DOCKED: ATOM     15  C   UNL d   1      -6.242   1.495   6.377 -0.37 +0.00    +0.066 A 
DOCKED: ATOM     16  C   UNL d   1      -5.751   1.328   7.671 -0.45 -0.00    -0.021 A 
DOCKED: ATOM     17  C   UNL d   1      -6.792   0.779   8.420 -0.44 +0.00    +0.000 A 
DOCKED: ATOM     18  C   UNL d   1      -7.855   0.653   7.515 -0.39 +0.01    +0.070 A 
DOCKED: ATOM     19  C   UNL d   1      -4.330   1.651   8.060 -0.43 -0.00    +0.052 C 
DOCKED: ATOM     20  C   UNL d   1     -10.236  -0.026   6.999 -0.32 +0.01    +0.066 A 
DOCKED: ATOM     21  C   UNL d   1     -11.493  -0.489   7.377 -0.29 -0.00    -0.025 A 
DOCKED: ATOM     22  C   UNL d   1     -12.275  -0.461   6.245 -0.37 -0.00    -0.021 A 
DOCKED: ATOM     23  C   UNL d   1     -11.459   0.003   5.210 -0.36 +0.02    +0.066 A 
DOCKED: ATOM     24  C   UNL d   1     -11.924  -0.940   8.749 -0.48 +0.00    +0.051 C 
DOCKED: ATOM     25  N   UNL d   1      -9.761   0.857   2.914 -0.17 -0.08    -0.248 N 
DOCKED: ATOM     26  N   UNL d   1      -7.031   1.650   3.540 -0.15 -0.03    -0.248 N 
DOCKED: ATOM     27  N   UNL d   1      -7.480   1.022   6.264 -0.22 -0.03    -0.248 N 
DOCKED: ATOM     28  N   UNL d   1     -10.207   0.224   5.663 -0.27 -0.06    -0.248 N 
DOCKED: ATOM     29 FE   UNL d   1      -8.629   0.931   4.612 -0.08 +0.00    +0.000 Fe
DOCKED: ATOM     30  O   UNL d   1      -8.216  -0.204   3.631 -0.58 +0.00    +0.000 OA
DOCKED: ATOM     31  O   UNL d   1      -8.223  -0.477   5.182 -0.85 +0.00    +0.000 OA
DOCKED: ENDROOT
DOCKED: BRANCH   6  32
DOCKED: ATOM     32  C   UNL d   1     -12.781   0.113   0.875 -0.26 +0.06    +0.052 C 
DOCKED: BRANCH  32  33
DOCKED: ATOM     33  C   UNL d   1     -13.389  -1.075   1.613 -0.26 +0.12    +0.115 C 
DOCKED: BRANCH  33  34
DOCKED: ATOM     34  C   UNL d   1     -14.890  -1.132   1.476 -0.20 +0.17    +0.139 C 
DOCKED: ATOM     35  O   UNL d   1     -15.429  -2.182   1.166 +0.01 -0.83    -0.650 OA
DOCKED: BRANCH  34  36
DOCKED: ATOM     36  O   UNL d   1     -15.654  -0.035   1.660 -0.14 -1.42    -0.776 OA
DOCKED: ATOM     37  H   UNL d   1     -16.320   0.012   2.355 +0.04 +0.25    +0.167 HD
DOCKED: ENDBRANCH  34  36
DOCKED: ENDBRANCH  33  34
DOCKED: ENDBRANCH  32  33
DOCKED: ENDBRANCH   6  32
DOCKED: BRANCH  22  38
DOCKED: ATOM     38  C   UNL d   1     -13.709  -0.917   6.157 -0.02 +0.01    +0.052 C 
DOCKED: BRANCH  38  39
DOCKED: ATOM     39  C   UNL d   1     -13.834  -2.439   6.118 -0.31 +0.03    +0.115 C 
DOCKED: BRANCH  39  40
DOCKED: ATOM     40  C   UNL d   1     -15.014  -2.940   6.912 -0.27 +0.04    +0.139 C 
DOCKED: ATOM     41  O   UNL d   1     -16.147  -2.757   6.495 +0.08 -0.22    -0.650 OA
DOCKED: BRANCH  40  42
DOCKED: ATOM     42  O   UNL d   1     -14.841  -3.636   8.053 +0.03 -0.12    -0.776 OA
DOCKED: ATOM     43  H   UNL d   1     -14.492  -3.219   8.849 -0.50 -0.03    +0.167 HD
DOCKED: ENDBRANCH  40  42
DOCKED: ENDBRANCH  39  40
DOCKED: ENDBRANCH  38  39
DOCKED: ENDBRANCH  22  38
DOCKED: BRANCH  12  44
DOCKED: ATOM     44  C   UNL d   1      -3.692   3.315   2.915 -0.46 -0.00    +0.004 C 
DOCKED: ATOM     45  C   UNL d   1      -2.906   3.620   3.947 -0.54 -0.00    +0.012 C 
DOCKED: ENDBRANCH  12  44
DOCKED: BRANCH  17  46
DOCKED: ATOM     46  C   UNL d   1      -6.844   0.326   9.855 -0.34 +0.00    +0.004 C 
DOCKED: ATOM     47  C   UNL d   1      -6.778  -0.923  10.332 -0.70 -0.00    +0.012 C 
DOCKED: ENDBRANCH  17  46
DOCKED: TORSDOF 10
DOCKED: TER
DOCKED: ENDMDL
________________________________________________________________________________


	BEGINNING GENETIC ALGORITHM DOCKING 77 of 100
Run: 77 Seed: 1522069869 225733444 [ Run 77 of 100 GA/GALS ]
Beginning LAMARCKIAN GENETIC ALGORITHM (LGA), with a maximum of 25000000 energy evaluations.

Final-Value: -17.958


	FINAL GENETIC ALGORITHM DOCKED STATE
	_______________________________________________


Detailed state:  trans -9.984 0.748 4.229 quatxyzw -0.894696 0.041867 -0.418512 0.150382 center 8.287 34.468 -0.670 ntor 10 113.7620 -128.2949 -17.8195 -34.0899 161.2086 -136.6939 -23.1640 29.7544 -132.5985 156.7788
State:	 -9.984   0.748   4.229  -0.905  0.042 -0.423 162.702    113.76 -128.29  -17.82  -34.09  161.21 -136.69  -23.16   29.75 -132.60  156.78

DOCKED: MODEL       77
DOCKED: USER    Run = 77
DOCKED: USER    DPF = D:/Protein_go_brrr/autodock/final/AncMH_nat/heme_O2/dock.dpf
DOCKED: USER  
DOCKED: USER    Estimated Free Energy of Binding    =  -13.09 kcal/mol  [=(1)+(2)+(3)-(4)]
DOCKED: USER    Estimated Inhibition Constant, Ki   =  253.94 pM (picomolar)  [Temperature = 298.15 K]
DOCKED: USER    
DOCKED: USER    (1) Final Intermolecular Energy     =  -16.07 kcal/mol
DOCKED: USER        vdW + Hbond + desolv Energy     =  -13.46 kcal/mol
DOCKED: USER        Electrostatic Energy            =   -2.61 kcal/mol
DOCKED: USER    (2) Final Total Internal Energy     =   -1.88 kcal/mol
DOCKED: USER    (3) Torsional Free Energy           =   +2.98 kcal/mol
DOCKED: USER    (4) Unbound System's Energy  [=(2)] =   -1.88 kcal/mol
DOCKED: USER    
DOCKED: USER    
DOCKED: USER    NEWDPF move heme_O2_opt.pdbqt
DOCKED: USER    NEWDPF about 8.287000 34.468000 -0.670000
DOCKED: USER    NEWDPF tran0 -9.983896 0.748356 4.229082
DOCKED: USER    NEWDPF quaternion0 -0.894696 0.041867 -0.418512 0.150382
DOCKED: USER    NEWDPF axisangle0 -0.904987 0.042349 -0.423326 162.701842
DOCKED: USER    NEWDPF quat0 -0.904987 0.042349 -0.423326 162.701842
DOCKED: USER    NEWDPF dihe0 113.76 -128.29 -17.82 -34.09 161.21 -136.69 -23.16 29.75 -132.60 156.78 
DOCKED: USER  keepresnum = 1 
DOCKED: USER  
DOCKED: REMARK  10 active torsions:
DOCKED: REMARK  status: ('A' for Active; 'I' for Inactive)
DOCKED: REMARK    1  A    between atoms: C_6  and  C_10 
DOCKED: REMARK    2  A    between atoms: C_10  and  C_11 
DOCKED: REMARK    3  A    between atoms: C_11  and  C_12 
DOCKED: REMARK    4  A    between atoms: C_12  and  O_14 
DOCKED: REMARK    5  A    between atoms: C_17  and  C_20 
DOCKED: REMARK    6  A    between atoms: C_24  and  C_27 
DOCKED: REMARK    7  A    between atoms: C_31  and  C_34 
DOCKED: REMARK    8  A    between atoms: C_34  and  C_35 
DOCKED: REMARK    9  A    between atoms: C_35  and  C_36 
DOCKED: REMARK   10  A    between atoms: C_36  and  O_38 
DOCKED: USER                              x       y       z     vdW  Elec       q    Type
DOCKED: USER                           _______ _______ _______ _____ _____    ______ ____
DOCKED: ROOT
DOCKED: ATOM      1  C   UNL d   1     -11.902   0.324   3.430 -0.30 +0.03    +0.064 A 
DOCKED: ATOM      2  C   UNL d   1      -7.866   1.850   1.445 -0.34 +0.01    +0.064 A 
DOCKED: ATOM      3  C   UNL d   1      -5.657   1.844   5.713 -0.27 +0.00    +0.064 C 
DOCKED: ATOM      4  C   UNL d   1      -9.663  -0.182   7.692 -0.10 +0.01    +0.064 A 
DOCKED: ATOM      5  C   UNL d   1     -10.984   0.738   2.541 -0.29 +0.03    +0.066 A 
DOCKED: ATOM      6  C   UNL d   1     -11.234   0.902   1.176 -0.29 -0.01    -0.021 A 
DOCKED: ATOM      7  C   UNL d   1     -10.055   1.303   0.593 -0.32 -0.01    -0.025 A 
DOCKED: ATOM      8  C   UNL d   1      -9.129   1.418   1.627 -0.29 +0.02    +0.066 A 
DOCKED: ATOM      9  C   UNL d   1      -9.853   1.525  -0.890 -0.28 +0.01    +0.051 C 
DOCKED: ATOM     10  C   UNL d   1      -6.857   2.014   2.493 -0.32 +0.01    +0.066 A 
DOCKED: ATOM     11  C   UNL d   1      -5.615   2.620   2.277 -0.39 -0.00    -0.021 A 
DOCKED: ATOM     12  C   UNL d   1      -4.970   2.644   3.500 -0.37 -0.00    +0.000 A 
DOCKED: ATOM     13  C   UNL d   1      -5.871   2.026   4.410 -0.31 +0.00    +0.070 A 
DOCKED: ATOM     14  C   UNL d   1      -5.076   3.178   0.964 -0.46 -0.00    +0.052 C 
DOCKED: ATOM     15  C   UNL d   1      -6.528   1.192   6.662 -0.37 +0.00    +0.066 A 
DOCKED: ATOM     16  C   UNL d   1      -6.178   0.887   7.976 -0.47 -0.00    -0.021 A 
DOCKED: ATOM     17  C   UNL d   1      -7.304   0.308   8.560 -0.46 +0.00    +0.000 A 
DOCKED: ATOM     18  C   UNL d   1      -8.271   0.305   7.545 -0.38 +0.01    +0.070 A 
DOCKED: ATOM     19  C   UNL d   1      -4.797   1.122   8.536 -0.57 -0.00    +0.052 C 
DOCKED: ATOM     20  C   UNL d   1     -10.602  -0.239   6.728 -0.36 +0.01    +0.066 A 
DOCKED: ATOM     21  C   UNL d   1     -11.903  -0.691   6.931 -0.33 -0.00    -0.025 A 
DOCKED: ATOM     22  C   UNL d   1     -12.563  -0.529   5.734 -0.34 -0.01    -0.021 A 
DOCKED: ATOM     23  C   UNL d   1     -11.632   0.002   4.836 -0.32 +0.02    +0.066 A 
DOCKED: ATOM     24  C   UNL d   1     -12.485  -1.253   8.202 -0.39 +0.00    +0.051 C 
DOCKED: ATOM     25  N   UNL d   1      -9.684   1.007   2.816 -0.17 -0.08    -0.248 N 
DOCKED: ATOM     26  N   UNL d   1      -7.014   1.642   3.789 -0.10 -0.03    -0.248 N 
DOCKED: ATOM     27  N   UNL d   1      -7.759   0.776   6.379 -0.21 -0.04    -0.248 N 
DOCKED: ATOM     28  N   UNL d   1     -10.429   0.134   5.432 -0.27 -0.07    -0.248 N 
DOCKED: ATOM     29 FE   UNL d   1      -8.733   0.882   4.619 -0.08 +0.00    +0.000 Fe
DOCKED: ATOM     30  O   UNL d   1      -8.249  -0.170   3.579 -0.58 +0.00    +0.000 OA
DOCKED: ATOM     31  O   UNL d   1      -8.424  -0.587   5.088 -0.86 +0.00    +0.000 OA
DOCKED: ENDROOT
DOCKED: BRANCH   6  32
DOCKED: ATOM     32  C   UNL d   1     -12.494   0.565   0.421 -0.24 +0.06    +0.052 C 
DOCKED: BRANCH  32  33
DOCKED: ATOM     33  C   UNL d   1     -13.012  -0.836   0.729 -0.18 +0.12    +0.115 C 
DOCKED: BRANCH  33  34
DOCKED: ATOM     34  C   UNL d   1     -14.498  -0.963   0.503 -0.18 +0.19    +0.139 C 
DOCKED: ATOM     35  O   UNL d   1     -15.102  -0.063  -0.060 -0.13 -1.24    -0.650 OA
DOCKED: BRANCH  34  36
DOCKED: ATOM     36  O   UNL d   1     -15.186  -2.041   0.934 +0.07 -1.03    -0.776 OA
DOCKED: ATOM     37  H   UNL d   1     -15.856  -1.976   1.624 +0.04 +0.19    +0.167 HD
DOCKED: ENDBRANCH  34  36
DOCKED: ENDBRANCH  33  34
DOCKED: ENDBRANCH  32  33
DOCKED: ENDBRANCH   6  32
DOCKED: BRANCH  22  38
DOCKED: ATOM     38  C   UNL d   1     -13.991  -0.924   5.457 +0.30 +0.02    +0.052 C 
DOCKED: BRANCH  38  39
DOCKED: ATOM     39  C   UNL d   1     -14.092  -2.241   4.690 -0.24 +0.05    +0.115 C 
DOCKED: BRANCH  39  40
DOCKED: ATOM     40  C   UNL d   1     -15.332  -2.315   3.835 -0.14 +0.09    +0.139 C 
DOCKED: ATOM     41  O   UNL d   1     -16.038  -1.329   3.704 +0.04 -0.51    -0.650 OA
DOCKED: BRANCH  40  42
DOCKED: ATOM     42  O   UNL d   1     -15.649  -3.441   3.167 +0.10 -0.66    -0.776 OA
DOCKED: ATOM     43  H   UNL d   1     -15.808  -3.436   2.215 +0.04 +0.19    +0.167 HD
DOCKED: ENDBRANCH  40  42
DOCKED: ENDBRANCH  39  40
DOCKED: ENDBRANCH  38  39
DOCKED: ENDBRANCH  22  38
DOCKED: BRANCH  12  44
DOCKED: ATOM     44  C   UNL d   1      -3.588   3.239   3.668 -0.45 -0.00    +0.004 C 
DOCKED: ATOM     45  C   UNL d   1      -3.023   3.695   4.786 -0.57 -0.00    +0.012 C 
DOCKED: ENDBRANCH  12  44
DOCKED: BRANCH  17  46
DOCKED: ATOM     46  C   UNL d   1      -7.517  -0.276   9.931 -0.62 +0.00    +0.004 C 
DOCKED: ATOM     47  C   UNL d   1      -6.682  -1.043  10.644 -0.70 -0.00    +0.012 C 
DOCKED: ENDBRANCH  17  46
DOCKED: TORSDOF 10
DOCKED: TER
DOCKED: ENDMDL
________________________________________________________________________________


	BEGINNING GENETIC ALGORITHM DOCKING 78 of 100
Run: 78 Seed: 438134252 2049361330 [ Run 78 of 100 GA/GALS ]
Beginning LAMARCKIAN GENETIC ALGORITHM (LGA), with a maximum of 25000000 energy evaluations.

Final-Value: -11.604


	FINAL GENETIC ALGORITHM DOCKED STATE
	_______________________________________________


Detailed state:  trans -20.972 5.500 2.577 quatxyzw -0.512558 -0.306483 0.232068 -0.767787 center 8.287 34.468 -0.670 ntor 10 62.5722 53.9040 -69.4174 -63.0588 -128.5773 139.2703 167.9707 144.8338 2.4726 13.8327
State:	-20.972   5.500   2.577  -0.800 -0.478  0.362 -79.689     62.57   53.90  -69.42  -63.06 -128.58  139.27  167.97  144.83    2.47   13.83

DOCKED: MODEL       78
DOCKED: USER    Run = 78
DOCKED: USER    DPF = D:/Protein_go_brrr/autodock/final/AncMH_nat/heme_O2/dock.dpf
DOCKED: USER  
DOCKED: USER    Estimated Free Energy of Binding    =   -6.87 kcal/mol  [=(1)+(2)+(3)-(4)]
DOCKED: USER    Estimated Inhibition Constant, Ki   =    9.15 uM (micromolar)  [Temperature = 298.15 K]
DOCKED: USER    
DOCKED: USER    (1) Final Intermolecular Energy     =   -9.86 kcal/mol
DOCKED: USER        vdW + Hbond + desolv Energy     =   -5.56 kcal/mol
DOCKED: USER        Electrostatic Energy            =   -4.29 kcal/mol
DOCKED: USER    (2) Final Total Internal Energy     =   -1.75 kcal/mol
DOCKED: USER    (3) Torsional Free Energy           =   +2.98 kcal/mol
DOCKED: USER    (4) Unbound System's Energy  [=(2)] =   -1.75 kcal/mol
DOCKED: USER    
DOCKED: USER    
DOCKED: USER    NEWDPF move heme_O2_opt.pdbqt
DOCKED: USER    NEWDPF about 8.287000 34.468000 -0.670000
DOCKED: USER    NEWDPF tran0 -20.972334 5.499920 2.577323
DOCKED: USER    NEWDPF quaternion0 -0.512558 -0.306483 0.232068 -0.767787
DOCKED: USER    NEWDPF axisangle0 -0.799990 -0.478353 0.362208 -79.688876
DOCKED: USER    NEWDPF quat0 -0.799990 -0.478353 0.362208 -79.688876
DOCKED: USER    NEWDPF dihe0 62.57 53.90 -69.42 -63.06 -128.58 139.27 167.97 144.83 2.47 13.83 
DOCKED: USER  keepresnum = 1 
DOCKED: USER  
DOCKED: REMARK  10 active torsions:
DOCKED: REMARK  status: ('A' for Active; 'I' for Inactive)
DOCKED: REMARK    1  A    between atoms: C_6  and  C_10 
DOCKED: REMARK    2  A    between atoms: C_10  and  C_11 
DOCKED: REMARK    3  A    between atoms: C_11  and  C_12 
DOCKED: REMARK    4  A    between atoms: C_12  and  O_14 
DOCKED: REMARK    5  A    between atoms: C_17  and  C_20 
DOCKED: REMARK    6  A    between atoms: C_24  and  C_27 
DOCKED: REMARK    7  A    between atoms: C_31  and  C_34 
DOCKED: REMARK    8  A    between atoms: C_34  and  C_35 
DOCKED: REMARK    9  A    between atoms: C_35  and  C_36 
DOCKED: REMARK   10  A    between atoms: C_36  and  O_38 
DOCKED: USER                              x       y       z     vdW  Elec       q    Type
DOCKED: USER                           _______ _______ _______ _____ _____    ______ ____
DOCKED: ROOT
DOCKED: ATOM      1  C   UNL d   1     -21.748   3.951   1.353 +0.00 +0.08    +0.064 A 
DOCKED: ATOM      2  C   UNL d   1     -23.432   6.129   5.224 -0.05 +0.03    +0.064 A 
DOCKED: ATOM      3  C   UNL d   1     -19.487   8.857   5.518 -0.25 +0.02    +0.064 C 
DOCKED: ATOM      4  C   UNL d   1     -17.956   6.959   1.261 -0.16 +0.04    +0.064 A 
DOCKED: ATOM      5  C   UNL d   1     -22.529   4.322   2.381 +0.05 +0.08    +0.066 A 
DOCKED: ATOM      6  C   UNL d   1     -23.770   3.747   2.669 -0.05 -0.02    -0.021 A 
DOCKED: ATOM      7  C   UNL d   1     -24.278   4.406   3.763 -0.04 -0.01    -0.025 A 
DOCKED: ATOM      8  C   UNL d   1     -23.312   5.333   4.144 -0.07 +0.05    +0.066 A 
DOCKED: ATOM      9  C   UNL d   1     -25.641   4.154   4.370 -0.01 +0.02    +0.051 C 
DOCKED: ATOM     10  C   UNL d   1     -22.443   7.104   5.685 -0.07 +0.03    +0.066 A 
DOCKED: ATOM     11  C   UNL d   1     -22.544   7.786   6.903 -0.06 -0.01    -0.021 A 
DOCKED: ATOM     12  C   UNL d   1     -21.407   8.564   7.014 -0.11 +0.00    +0.000 A 
DOCKED: ATOM     13  C   UNL d   1     -20.665   8.316   5.826 -0.14 +0.02    +0.070 A 
DOCKED: ATOM     14  C   UNL d   1     -23.666   7.679   7.930 -0.03 +0.01    +0.052 C 
DOCKED: ATOM     15  C   UNL d   1     -18.721   8.659   4.311 -0.23 +0.02    +0.066 A 
DOCKED: ATOM     16  C   UNL d   1     -17.575   9.379   3.975 -0.35 -0.00    -0.021 A 
DOCKED: ATOM     17  C   UNL d   1     -17.121   8.856   2.764 -0.32 +0.00    +0.000 A 
DOCKED: ATOM     18  C   UNL d   1     -18.035   7.841   2.449 -0.21 +0.03    +0.070 A 
DOCKED: ATOM     19  C   UNL d   1     -17.052  10.527   4.802 -0.33 +0.00    +0.052 C 
DOCKED: ATOM     20  C   UNL d   1     -18.839   6.005   0.907 -0.13 +0.05    +0.066 A 
DOCKED: ATOM     21  C   UNL d   1     -18.701   5.193  -0.216 -0.10 -0.02    -0.025 A 
DOCKED: ATOM     22  C   UNL d   1     -19.758   4.311  -0.191 -0.07 -0.02    -0.021 A 
DOCKED: ATOM     23  C   UNL d   1     -20.515   4.632   0.941 -0.08 +0.07    +0.066 A 
DOCKED: ATOM     24  C   UNL d   1     -17.618   5.257  -1.261 -0.10 +0.04    +0.051 C 
DOCKED: ATOM     25  N   UNL d   1     -22.263   5.326   3.253 -0.06 -0.28    -0.248 N 
DOCKED: ATOM     26  N   UNL d   1     -21.305   7.430   5.021 -0.08 -0.11    -0.248 N 
DOCKED: ATOM     27  N   UNL d   1     -19.041   7.786   3.360 -0.11 -0.11    -0.248 N 
DOCKED: ATOM     28  N   UNL d   1     -19.977   5.691   1.580 -0.08 -0.23    -0.248 N 
DOCKED: ATOM     29 FE   UNL d   1     -20.634   6.556   3.288 -0.03 +0.00    +0.000 Fe
DOCKED: ATOM     30  O   UNL d   1     -21.962   7.282   2.925 -0.05 +0.00    +0.000 OA
DOCKED: ATOM     31  O   UNL d   1     -20.632   7.662   2.169 -0.07 +0.00    +0.000 OA
DOCKED: ENDROOT
DOCKED: BRANCH   6  32
DOCKED: ATOM     32  C   UNL d   1     -24.516   2.712   1.867 -0.02 +0.03    +0.052 C 
DOCKED: BRANCH  32  33
DOCKED: ATOM     33  C   UNL d   1     -24.107   1.284   2.216 -0.02 +0.07    +0.115 C 
DOCKED: BRANCH  33  34
DOCKED: ATOM     34  C   UNL d   1     -22.830   1.231   3.017 +0.04 +0.18    +0.139 C 
DOCKED: ATOM     35  O   UNL d   1     -22.862   1.444   4.219 -0.33 -0.98    -0.650 OA
DOCKED: BRANCH  34  36
DOCKED: ATOM     36  O   UNL d   1     -21.641   0.982   2.431 -0.12 -1.43    -0.776 OA
DOCKED: ATOM     37  H   UNL d   1     -21.263   1.573   1.769 +0.00 +0.30    +0.167 HD
DOCKED: ENDBRANCH  34  36
DOCKED: ENDBRANCH  33  34
DOCKED: ENDBRANCH  32  33
DOCKED: ENDBRANCH   6  32
DOCKED: BRANCH  22  38
DOCKED: ATOM     38  C   UNL d   1     -20.055   3.265  -1.234 -0.02 +0.03    +0.052 C 
DOCKED: BRANCH  38  39
DOCKED: ATOM     39  C   UNL d   1     -19.954   1.846  -0.679 -0.03 +0.09    +0.115 C 
DOCKED: BRANCH  39  40
DOCKED: ATOM     40  C   UNL d   1     -18.846   1.700   0.335 -0.10 +0.19    +0.139 C 
DOCKED: ATOM     41  O   UNL d   1     -17.686   1.640  -0.039 -0.13 -1.21    -0.650 OA
DOCKED: BRANCH  40  42
DOCKED: ATOM     42  O   UNL d   1     -19.110   1.687   1.656 -0.34 -1.69    -0.776 OA
DOCKED: ATOM     43  H   UNL d   1     -19.720   1.048   2.042 +0.02 +0.36    +0.167 HD
DOCKED: ENDBRANCH  40  42
DOCKED: ENDBRANCH  39  40
DOCKED: ENDBRANCH  38  39
DOCKED: ENDBRANCH  22  38
DOCKED: BRANCH  12  44
DOCKED: ATOM     44  C   UNL d   1     -21.153   9.448   8.217 -0.15 +0.00    +0.004 C 
DOCKED: ATOM     45  C   UNL d   1     -20.285   9.252   9.209 -0.22 +0.00    +0.012 C 
DOCKED: ENDBRANCH  12  44
DOCKED: BRANCH  17  46
DOCKED: ATOM     46  C   UNL d   1     -15.969   9.260   1.883 -0.34 -0.00    +0.004 C 
DOCKED: ATOM     47  C   UNL d   1     -15.842  10.369   1.142 -0.43 -0.00    +0.012 C 
DOCKED: ENDBRANCH  17  46
DOCKED: TORSDOF 10
DOCKED: TER
DOCKED: ENDMDL
________________________________________________________________________________


	BEGINNING GENETIC ALGORITHM DOCKING 79 of 100
Run: 79 Seed: 234585063 1431284770 [ Run 79 of 100 GA/GALS ]
Beginning LAMARCKIAN GENETIC ALGORITHM (LGA), with a maximum of 25000000 energy evaluations.

Final-Value: -14.868


	FINAL GENETIC ALGORITHM DOCKED STATE
	_______________________________________________


Detailed state:  trans -13.212 -1.015 3.177 quatxyzw 0.313201 -0.216673 -0.256251 0.888422 center 8.287 34.468 -0.670 ntor 10 108.6252 41.8337 109.0345 -100.8474 -100.9444 -111.5650 -79.0870 -136.1007 173.6860 145.2685
State:	-13.212  -1.015   3.177   0.682 -0.472 -0.558 54.649    108.63   41.83  109.03 -100.85 -100.94 -111.57  -79.09 -136.10  173.69  145.27

DOCKED: MODEL       79
DOCKED: USER    Run = 79
DOCKED: USER    DPF = D:/Protein_go_brrr/autodock/final/AncMH_nat/heme_O2/dock.dpf
DOCKED: USER  
DOCKED: USER    Estimated Free Energy of Binding    =  -10.17 kcal/mol  [=(1)+(2)+(3)-(4)]
DOCKED: USER    Estimated Inhibition Constant, Ki   =   35.10 nM (nanomolar)  [Temperature = 298.15 K]
DOCKED: USER    
DOCKED: USER    (1) Final Intermolecular Energy     =  -13.15 kcal/mol
DOCKED: USER        vdW + Hbond + desolv Energy     =   -9.69 kcal/mol
DOCKED: USER        Electrostatic Energy            =   -3.47 kcal/mol
DOCKED: USER    (2) Final Total Internal Energy     =   -1.72 kcal/mol
DOCKED: USER    (3) Torsional Free Energy           =   +2.98 kcal/mol
DOCKED: USER    (4) Unbound System's Energy  [=(2)] =   -1.72 kcal/mol
DOCKED: USER    
DOCKED: USER    
DOCKED: USER    NEWDPF move heme_O2_opt.pdbqt
DOCKED: USER    NEWDPF about 8.287000 34.468000 -0.670000
DOCKED: USER    NEWDPF tran0 -13.211928 -1.015217 3.176990
DOCKED: USER    NEWDPF quaternion0 0.313201 -0.216673 -0.256251 0.888422
DOCKED: USER    NEWDPF axisangle0 0.682313 -0.472026 -0.558248 54.648754
DOCKED: USER    NEWDPF quat0 0.682313 -0.472026 -0.558248 54.648754
DOCKED: USER    NEWDPF dihe0 108.63 41.83 109.03 -100.85 -100.94 -111.57 -79.09 -136.10 173.69 145.27 
DOCKED: USER  keepresnum = 1 
DOCKED: USER  
DOCKED: REMARK  10 active torsions:
DOCKED: REMARK  status: ('A' for Active; 'I' for Inactive)
DOCKED: REMARK    1  A    between atoms: C_6  and  C_10 
DOCKED: REMARK    2  A    between atoms: C_10  and  C_11 
DOCKED: REMARK    3  A    between atoms: C_11  and  C_12 
DOCKED: REMARK    4  A    between atoms: C_12  and  O_14 
DOCKED: REMARK    5  A    between atoms: C_17  and  C_20 
DOCKED: REMARK    6  A    between atoms: C_24  and  C_27 
DOCKED: REMARK    7  A    between atoms: C_31  and  C_34 
DOCKED: REMARK    8  A    between atoms: C_34  and  C_35 
DOCKED: REMARK    9  A    between atoms: C_35  and  C_36 
DOCKED: REMARK   10  A    between atoms: C_36  and  O_38 
DOCKED: USER                              x       y       z     vdW  Elec       q    Type
DOCKED: USER                           _______ _______ _______ _____ _____    ______ ____
DOCKED: ROOT
DOCKED: ATOM      1  C   UNL d   1     -15.196  -1.742   3.361 -0.15 +0.05    +0.064 A 
DOCKED: ATOM      2  C   UNL d   1     -11.842  -0.726   6.566 -0.28 +0.01    +0.064 A 
DOCKED: ATOM      3  C   UNL d   1      -8.764   0.511   3.089 -0.30 +0.02    +0.064 C 
DOCKED: ATOM      4  C   UNL d   1     -12.362  -0.075  -0.193 -0.20 +0.06    +0.064 A 
DOCKED: ATOM      5  C   UNL d   1     -14.536  -1.565   4.517 -0.18 +0.04    +0.066 A 
DOCKED: ATOM      6  C   UNL d   1     -15.075  -1.838   5.777 -0.15 -0.01    -0.021 A 
DOCKED: ATOM      7  C   UNL d   1     -14.120  -1.503   6.708 -0.26 -0.01    -0.025 A 
DOCKED: ATOM      8  C   UNL d   1     -13.006  -1.080   5.989 -0.30 +0.02    +0.066 A 
DOCKED: ATOM      9  C   UNL d   1     -14.313  -1.569   8.207 -0.31 +0.00    +0.051 C 
DOCKED: ATOM     10  C   UNL d   1     -10.632  -0.296   5.864 -0.36 +0.01    +0.066 A 
DOCKED: ATOM     11  C   UNL d   1      -9.402  -0.097   6.501 -0.31 -0.00    -0.021 A 
DOCKED: ATOM     12  C   UNL d   1      -8.497   0.243   5.512 -0.19 +0.00    +0.000 A 
DOCKED: ATOM     13  C   UNL d   1      -9.246   0.244   4.303 +0.06 +0.03    +0.070 A 
DOCKED: ATOM     14  C   UNL d   1      -9.097  -0.251   7.986 -0.15 +0.01    +0.052 C 
DOCKED: ATOM     15  C   UNL d   1      -9.495   0.557   1.846 -0.33 +0.02    +0.066 A 
DOCKED: ATOM     16  C   UNL d   1      -8.968   1.003   0.635 -0.40 -0.00    -0.021 A 
DOCKED: ATOM     17  C   UNL d   1      -9.976   0.846  -0.316 -0.36 +0.00    +0.000 A 
DOCKED: ATOM     18  C   UNL d   1     -11.057   0.307   0.396 -0.28 +0.04    +0.070 A 
DOCKED: ATOM     19  C   UNL d   1      -7.582   1.584   0.505 -0.44 +0.01    +0.052 C 
DOCKED: ATOM     20  C   UNL d   1     -13.434  -0.554   0.468 -0.16 +0.08    +0.066 A 
DOCKED: ATOM     21  C   UNL d   1     -14.632  -0.913  -0.144 -0.14 -0.03    -0.025 A 
DOCKED: ATOM     22  C   UNL d   1     -15.442  -1.416   0.850 -0.17 -0.03    -0.021 A 
DOCKED: ATOM     23  C   UNL d   1     -14.711  -1.328   2.039 -0.20 +0.07    +0.066 A 
DOCKED: ATOM     24  C   UNL d   1     -14.987  -0.780  -1.602 -0.13 +0.06    +0.051 C 
DOCKED: ATOM     25  N   UNL d   1     -13.285  -1.056   4.642 -0.19 -0.11    -0.248 N 
DOCKED: ATOM     26  N   UNL d   1     -10.545  -0.080   4.527 -0.17 -0.08    -0.248 N 
DOCKED: ATOM     27  N   UNL d   1     -10.772   0.208   1.720 -0.17 -0.12    -0.248 N 
DOCKED: ATOM     28  N   UNL d   1     -13.509  -0.762   1.810 -0.17 -0.26    -0.248 N 
DOCKED: ATOM     29 FE   UNL d   1     -12.036  -0.422   3.156 -0.07 +0.00    +0.000 Fe
DOCKED: ATOM     30  O   UNL d   1     -12.546   0.722   4.079 -0.34 +0.00    +0.000 OA
DOCKED: ATOM     31  O   UNL d   1     -12.429   0.965   2.527 -0.42 +0.00    +0.000 OA
DOCKED: ENDROOT
DOCKED: BRANCH   6  32
DOCKED: ATOM     32  C   UNL d   1     -16.482  -2.267   6.105 -0.15 +0.02    +0.052 C 
DOCKED: BRANCH  32  33
DOCKED: ATOM     33  C   UNL d   1     -17.337  -1.127   6.650 -0.12 +0.06    +0.115 C 
DOCKED: BRANCH  33  34
DOCKED: ATOM     34  C   UNL d   1     -18.219  -0.512   5.591 -0.13 +0.11    +0.139 C 
DOCKED: ATOM     35  O   UNL d   1     -19.423  -0.712   5.618 +0.01 -0.55    -0.650 OA
DOCKED: BRANCH  34  36
DOCKED: ATOM     36  O   UNL d   1     -17.703   0.235   4.593 +0.03 -0.89    -0.776 OA
DOCKED: ATOM     37  H   UNL d   1     -17.672  -0.081   3.682 +0.04 +0.20    +0.167 HD
DOCKED: ENDBRANCH  34  36
DOCKED: ENDBRANCH  33  34
DOCKED: ENDBRANCH  32  33
DOCKED: ENDBRANCH   6  32
DOCKED: BRANCH  22  38
DOCKED: ATOM     38  C   UNL d   1     -16.860  -1.892   0.670 -0.12 +0.06    +0.052 C 
DOCKED: BRANCH  38  39
DOCKED: ATOM     39  C   UNL d   1     -17.870  -0.995   1.382 -0.06 +0.12    +0.115 C 
DOCKED: BRANCH  39  40
DOCKED: ATOM     40  C   UNL d   1     -17.567   0.471   1.200 +0.04 +0.23    +0.139 C 
DOCKED: ATOM     41  O   UNL d   1     -17.064   0.862   0.159 -0.29 -1.42    -0.650 OA
DOCKED: BRANCH  40  42
DOCKED: ATOM     42  O   UNL d   1     -17.890   1.371   2.149 -0.31 -1.59    -0.776 OA
DOCKED: ATOM     43  H   UNL d   1     -17.717   1.204   3.083 +0.02 +0.32    +0.167 HD
DOCKED: ENDBRANCH  40  42
DOCKED: ENDBRANCH  39  40
DOCKED: ENDBRANCH  38  39
DOCKED: ENDBRANCH  22  38
DOCKED: BRANCH  12  44
DOCKED: ATOM     44  C   UNL d   1      -7.042   0.529   5.818 -0.42 +0.00    +0.004 C 
DOCKED: ATOM     45  C   UNL d   1      -6.522   1.621   6.377 -0.46 +0.00    +0.012 C 
DOCKED: ENDBRANCH  12  44
DOCKED: BRANCH  17  46
DOCKED: ATOM     46  C   UNL d   1     -10.021   1.205  -1.777 -0.27 +0.00    +0.004 C 
DOCKED: ATOM     47  C   UNL d   1     -10.702   2.196  -2.366 -0.29 +0.00    +0.012 C 
DOCKED: ENDBRANCH  17  46
DOCKED: TORSDOF 10
DOCKED: TER
DOCKED: ENDMDL
________________________________________________________________________________


	BEGINNING GENETIC ALGORITHM DOCKING 80 of 100
Run: 80 Seed: 1468689871 1561230657 [ Run 80 of 100 GA/GALS ]
Beginning LAMARCKIAN GENETIC ALGORITHM (LGA), with a maximum of 25000000 energy evaluations.

Final-Value: -10.583


	FINAL GENETIC ALGORITHM DOCKED STATE
	_______________________________________________


Detailed state:  trans -19.600 4.440 0.118 quatxyzw -0.536578 -0.278163 -0.733653 0.310585 center 8.287 34.468 -0.670 ntor 10 138.5287 -42.5683 -76.0451 -100.9662 -120.5644 -43.7691 -117.9598 -171.2873 -180.0000 163.9398
State:	-19.600   4.440   0.118  -0.564 -0.293 -0.772 143.811    138.53  -42.57  -76.05 -100.97 -120.56  -43.77 -117.96 -171.29 -180.00  163.94

DOCKED: MODEL       80
DOCKED: USER    Run = 80
DOCKED: USER    DPF = D:/Protein_go_brrr/autodock/final/AncMH_nat/heme_O2/dock.dpf
DOCKED: USER  
DOCKED: USER    Estimated Free Energy of Binding    =   -5.24 kcal/mol  [=(1)+(2)+(3)-(4)]
DOCKED: USER    Estimated Inhibition Constant, Ki   =  143.04 uM (micromolar)  [Temperature = 298.15 K]
DOCKED: USER    
DOCKED: USER    (1) Final Intermolecular Energy     =   -8.23 kcal/mol
DOCKED: USER        vdW + Hbond + desolv Energy     =   -4.60 kcal/mol
DOCKED: USER        Electrostatic Energy            =   -3.63 kcal/mol
DOCKED: USER    (2) Final Total Internal Energy     =   -2.36 kcal/mol
DOCKED: USER    (3) Torsional Free Energy           =   +2.98 kcal/mol
DOCKED: USER    (4) Unbound System's Energy  [=(2)] =   -2.36 kcal/mol
DOCKED: USER    
DOCKED: USER    
DOCKED: USER    NEWDPF move heme_O2_opt.pdbqt
DOCKED: USER    NEWDPF about 8.287000 34.468000 -0.670000
DOCKED: USER    NEWDPF tran0 -19.599660 4.439841 0.118441
DOCKED: USER    NEWDPF quaternion0 -0.536578 -0.278163 -0.733653 0.310585
DOCKED: USER    NEWDPF axisangle0 -0.564495 -0.292636 -0.771823 143.811008
DOCKED: USER    NEWDPF quat0 -0.564495 -0.292636 -0.771823 143.811008
DOCKED: USER    NEWDPF dihe0 138.53 -42.57 -76.05 -100.97 -120.56 -43.77 -117.96 -171.29 -180.00 163.94 
DOCKED: USER  keepresnum = 1 
DOCKED: USER  
DOCKED: REMARK  10 active torsions:
DOCKED: REMARK  status: ('A' for Active; 'I' for Inactive)
DOCKED: REMARK    1  A    between atoms: C_6  and  C_10 
DOCKED: REMARK    2  A    between atoms: C_10  and  C_11 
DOCKED: REMARK    3  A    between atoms: C_11  and  C_12 
DOCKED: REMARK    4  A    between atoms: C_12  and  O_14 
DOCKED: REMARK    5  A    between atoms: C_17  and  C_20 
DOCKED: REMARK    6  A    between atoms: C_24  and  C_27 
DOCKED: REMARK    7  A    between atoms: C_31  and  C_34 
DOCKED: REMARK    8  A    between atoms: C_34  and  C_35 
DOCKED: REMARK    9  A    between atoms: C_35  and  C_36 
DOCKED: REMARK   10  A    between atoms: C_36  and  O_38 
DOCKED: USER                              x       y       z     vdW  Elec       q    Type
DOCKED: USER                           _______ _______ _______ _____ _____    ______ ____
DOCKED: ROOT
DOCKED: ATOM      1  C   UNL d   1     -20.030   2.577  -0.800 -0.02 +0.05    +0.064 A 
DOCKED: ATOM      2  C   UNL d   1     -16.314   5.519  -1.101 -0.11 +0.06    +0.064 A 
DOCKED: ATOM      3  C   UNL d   1     -18.398   8.610   1.933 -0.15 +0.02    +0.064 C 
DOCKED: ATOM      4  C   UNL d   1     -22.014   5.368   2.623 -0.02 +0.07    +0.064 A 
DOCKED: ATOM      5  C   UNL d   1     -18.848   3.124  -1.128 -0.05 +0.06    +0.066 A 
DOCKED: ATOM      6  C   UNL d   1     -17.938   2.546  -2.018 -0.05 -0.02    -0.021 A 
DOCKED: ATOM      7  C   UNL d   1     -16.843   3.376  -2.072 -0.05 -0.03    -0.025 A 
DOCKED: ATOM      8  C   UNL d   1     -17.135   4.462  -1.252 -0.03 +0.08    +0.066 A 
DOCKED: ATOM      9  C   UNL d   1     -15.582   3.095  -2.860 -0.07 +0.05    +0.051 C 
DOCKED: ATOM     10  C   UNL d   1     -16.576   6.697  -0.273 -0.16 +0.04    +0.066 A 
DOCKED: ATOM     11  C   UNL d   1     -15.766   7.838  -0.280 -0.28 -0.01    -0.021 A 
DOCKED: ATOM     12  C   UNL d   1     -16.360   8.748   0.575 -0.30 +0.00    +0.000 A 
DOCKED: ATOM     13  C   UNL d   1     -17.518   8.091   1.076 -0.17 +0.02    +0.070 A 
DOCKED: ATOM     14  C   UNL d   1     -14.494   8.062  -1.089 -0.16 +0.01    +0.052 C 
DOCKED: ATOM     15  C   UNL d   1     -19.562   7.965   2.490 -0.09 +0.03    +0.066 A 
DOCKED: ATOM     16  C   UNL d   1     -20.352   8.502   3.507 -0.08 -0.01    -0.021 A 
DOCKED: ATOM     17  C   UNL d   1     -21.389   7.594   3.721 -0.08 +0.00    +0.000 A 
DOCKED: ATOM     18  C   UNL d   1     -21.152   6.559   2.806 -0.09 +0.05    +0.070 A 
DOCKED: ATOM     19  C   UNL d   1     -20.018   9.792   4.214 -0.09 +0.01    +0.052 C 
DOCKED: ATOM     20  C   UNL d   1     -21.793   4.336   1.785 -0.00 +0.09    +0.066 A 
DOCKED: ATOM     21  C   UNL d   1     -22.651   3.249   1.643 -0.04 -0.03    -0.025 A 
DOCKED: ATOM     22  C   UNL d   1     -22.115   2.457   0.652 -0.04 -0.02    -0.021 A 
DOCKED: ATOM     23  C   UNL d   1     -20.936   3.083   0.237 -0.05 +0.06    +0.066 A 
DOCKED: ATOM     24  C   UNL d   1     -23.915   2.977   2.416 -0.04 +0.04    +0.051 C 
DOCKED: ATOM     25  N   UNL d   1     -18.342   4.274  -0.620 -0.07 -0.25    -0.248 N 
DOCKED: ATOM     26  N   UNL d   1     -17.639   6.842   0.559 -0.11 -0.14    -0.248 N 
DOCKED: ATOM     27  N   UNL d   1     -19.999   6.765   2.120 -0.06 -0.16    -0.248 N 
DOCKED: ATOM     28  N   UNL d   1     -20.721   4.202   0.960 -0.06 -0.29    -0.248 N 
DOCKED: ATOM     29 FE   UNL d   1     -19.192   5.514   0.763 -0.02 +0.00    +0.000 Fe
DOCKED: ATOM     30  O   UNL d   1     -17.920   4.779   1.276 -0.14 +0.00    +0.000 OA
DOCKED: ATOM     31  O   UNL d   1     -19.156   4.964   2.236 -0.27 +0.00    +0.000 OA
DOCKED: ENDROOT
DOCKED: BRANCH   6  32
DOCKED: ATOM     32  C   UNL d   1     -18.030   1.199  -2.687 -0.01 +0.03    +0.052 C 
DOCKED: BRANCH  32  33
DOCKED: ATOM     33  C   UNL d   1     -17.257   0.115  -1.943 -0.04 +0.10    +0.115 C 
DOCKED: BRANCH  33  34
DOCKED: ATOM     34  C   UNL d   1     -17.754  -0.080  -0.531 -0.05 +0.15    +0.139 C 
DOCKED: ATOM     35  O   UNL d   1     -18.663  -0.865  -0.314 +0.04 -0.53    -0.650 OA
DOCKED: BRANCH  34  36
DOCKED: ATOM     36  O   UNL d   1     -17.234   0.618   0.500 -0.33 -1.52    -0.776 OA
DOCKED: ATOM     37  H   UNL d   1     -17.787   0.981   1.201 +0.02 +0.30    +0.167 HD
DOCKED: ENDBRANCH  34  36
DOCKED: ENDBRANCH  33  34
DOCKED: ENDBRANCH  32  33
DOCKED: ENDBRANCH   6  32
DOCKED: BRANCH  22  38
DOCKED: ATOM     38  C   UNL d   1     -22.676   1.140   0.181 -0.01 +0.03    +0.052 C 
DOCKED: BRANCH  38  39
DOCKED: ATOM     39  C   UNL d   1     -22.042  -0.052   0.896 -0.02 +0.08    +0.115 C 
DOCKED: BRANCH  39  40
DOCKED: ATOM     40  C   UNL d   1     -21.139   0.369   2.028 +0.02 +0.19    +0.139 C 
DOCKED: ATOM     41  O   UNL d   1     -21.543   0.311   3.179 -0.41 -1.13    -0.650 OA
DOCKED: BRANCH  40  42
DOCKED: ATOM     42  O   UNL d   1     -19.871   0.761   1.798 -0.06 -1.30    -0.776 OA
DOCKED: ATOM     43  H   UNL d   1     -19.315   0.316   1.148 +0.02 +0.20    +0.167 HD
DOCKED: ENDBRANCH  40  42
DOCKED: ENDBRANCH  39  40
DOCKED: ENDBRANCH  38  39
DOCKED: ENDBRANCH  22  38
DOCKED: BRANCH  12  44
DOCKED: ATOM     44  C   UNL d   1     -15.771  10.121   0.824 -0.42 -0.00    +0.004 C 
DOCKED: ATOM     45  C   UNL d   1     -16.138  11.280   0.278 -0.25 -0.01    +0.012 C 
DOCKED: ENDBRANCH  12  44
DOCKED: BRANCH  17  46
DOCKED: ATOM     46  C   UNL d   1     -22.512   7.596   4.724 -0.06 +0.00    +0.004 C 
DOCKED: ATOM     47  C   UNL d   1     -22.661   6.816   5.803 -0.09 +0.01    +0.012 C 
DOCKED: ENDBRANCH  17  46
DOCKED: TORSDOF 10
DOCKED: TER
DOCKED: ENDMDL
________________________________________________________________________________


	BEGINNING GENETIC ALGORITHM DOCKING 81 of 100
Run: 81 Seed: 332971558 1555242253 [ Run 81 of 100 GA/GALS ]
Beginning LAMARCKIAN GENETIC ALGORITHM (LGA), with a maximum of 25000000 energy evaluations.

Final-Value: -17.646


	FINAL GENETIC ALGORITHM DOCKED STATE
	_______________________________________________


Detailed state:  trans -9.910 0.734 4.436 quatxyzw -0.908157 0.000367 -0.374271 0.187543 center 8.287 34.468 -0.670 ntor 10 169.3372 -1.5204 -0.3735 -94.6559 163.8569 118.2186 -67.4700 -3.1452 -146.8790 162.1030
State:	 -9.910   0.734   4.436  -0.925  0.000 -0.381 158.381    169.34   -1.52   -0.37  -94.66  163.86  118.22  -67.47   -3.15 -146.88  162.10

DOCKED: MODEL       81
DOCKED: USER    Run = 81
DOCKED: USER    DPF = D:/Protein_go_brrr/autodock/final/AncMH_nat/heme_O2/dock.dpf
DOCKED: USER  
DOCKED: USER    Estimated Free Energy of Binding    =  -12.39 kcal/mol  [=(1)+(2)+(3)-(4)]
DOCKED: USER    Estimated Inhibition Constant, Ki   =  832.30 pM (picomolar)  [Temperature = 298.15 K]
DOCKED: USER    
DOCKED: USER    (1) Final Intermolecular Energy     =  -15.37 kcal/mol
DOCKED: USER        vdW + Hbond + desolv Energy     =  -13.81 kcal/mol
DOCKED: USER        Electrostatic Energy            =   -1.56 kcal/mol
DOCKED: USER    (2) Final Total Internal Energy     =   -2.28 kcal/mol
DOCKED: USER    (3) Torsional Free Energy           =   +2.98 kcal/mol
DOCKED: USER    (4) Unbound System's Energy  [=(2)] =   -2.28 kcal/mol
DOCKED: USER    
DOCKED: USER    
DOCKED: USER    NEWDPF move heme_O2_opt.pdbqt
DOCKED: USER    NEWDPF about 8.287000 34.468000 -0.670000
DOCKED: USER    NEWDPF tran0 -9.910244 0.733511 4.435816
DOCKED: USER    NEWDPF quaternion0 -0.908157 0.000367 -0.374271 0.187543
DOCKED: USER    NEWDPF axisangle0 -0.924562 0.000374 -0.381032 158.381143
DOCKED: USER    NEWDPF quat0 -0.924562 0.000374 -0.381032 158.381143
DOCKED: USER    NEWDPF dihe0 169.34 -1.52 -0.37 -94.66 163.86 118.22 -67.47 -3.15 -146.88 162.10 
DOCKED: USER  keepresnum = 1 
DOCKED: USER  
DOCKED: REMARK  10 active torsions:
DOCKED: REMARK  status: ('A' for Active; 'I' for Inactive)
DOCKED: REMARK    1  A    between atoms: C_6  and  C_10 
DOCKED: REMARK    2  A    between atoms: C_10  and  C_11 
DOCKED: REMARK    3  A    between atoms: C_11  and  C_12 
DOCKED: REMARK    4  A    between atoms: C_12  and  O_14 
DOCKED: REMARK    5  A    between atoms: C_17  and  C_20 
DOCKED: REMARK    6  A    between atoms: C_24  and  C_27 
DOCKED: REMARK    7  A    between atoms: C_31  and  C_34 
DOCKED: REMARK    8  A    between atoms: C_34  and  C_35 
DOCKED: REMARK    9  A    between atoms: C_35  and  C_36 
DOCKED: REMARK   10  A    between atoms: C_36  and  O_38 
DOCKED: USER                              x       y       z     vdW  Elec       q    Type
DOCKED: USER                           _______ _______ _______ _____ _____    ______ ____
DOCKED: ROOT
DOCKED: ATOM      1  C   UNL d   1     -11.885   0.185   3.889 -0.28 +0.03    +0.064 A 
DOCKED: ATOM      2  C   UNL d   1      -8.135   1.621   1.352 -0.36 +0.01    +0.064 A 
DOCKED: ATOM      3  C   UNL d   1      -5.495   2.077   5.341 -0.30 +0.00    +0.064 C 
DOCKED: ATOM      4  C   UNL d   1      -9.197   0.145   7.915 -0.22 +0.01    +0.064 A 
DOCKED: ATOM      5  C   UNL d   1     -11.080   0.537   2.873 -0.29 +0.03    +0.066 A 
DOCKED: ATOM      6  C   UNL d   1     -11.477   0.565   1.533 -0.29 -0.01    -0.021 A 
DOCKED: ATOM      7  C   UNL d   1     -10.380   0.938   0.793 -0.32 -0.01    -0.025 A 
DOCKED: ATOM      8  C   UNL d   1      -9.356   1.175   1.706 -0.30 +0.02    +0.066 A 
DOCKED: ATOM      9  C   UNL d   1     -10.342   1.024  -0.717 -0.36 +0.02    +0.051 C 
DOCKED: ATOM     10  C   UNL d   1      -7.029   1.909   2.266 -0.33 +0.01    +0.066 A 
DOCKED: ATOM     11  C   UNL d   1      -5.838   2.524   1.863 -0.40 -0.00    -0.021 A 
DOCKED: ATOM     12  C   UNL d   1      -5.071   2.681   3.002 -0.38 +0.00    +0.000 A 
DOCKED: ATOM     13  C   UNL d   1      -5.849   2.129   4.057 -0.33 +0.00    +0.070 A 
DOCKED: ATOM     14  C   UNL d   1      -5.460   2.969   0.455 -0.49 +0.00    +0.052 C 
DOCKED: ATOM     15  C   UNL d   1      -6.238   1.496   6.433 -0.37 +0.00    +0.066 A 
DOCKED: ATOM     16  C   UNL d   1      -5.742   1.326   7.725 -0.45 -0.00    -0.021 A 
DOCKED: ATOM     17  C   UNL d   1      -6.780   0.775   8.477 -0.43 +0.00    +0.000 A 
DOCKED: ATOM     18  C   UNL d   1      -7.846   0.651   7.575 -0.39 +0.01    +0.070 A 
DOCKED: ATOM     19  C   UNL d   1      -4.319   1.649   8.109 -0.44 -0.00    +0.052 C 
DOCKED: ATOM     20  C   UNL d   1     -10.228  -0.028   7.066 -0.32 +0.01    +0.066 A 
DOCKED: ATOM     21  C   UNL d   1     -11.484  -0.493   7.448 -0.29 -0.00    -0.025 A 
DOCKED: ATOM     22  C   UNL d   1     -12.271  -0.462   6.319 -0.37 -0.00    -0.021 A 
DOCKED: ATOM     23  C   UNL d   1     -11.458   0.005   5.281 -0.37 +0.02    +0.066 A 
DOCKED: ATOM     24  C   UNL d   1     -11.910  -0.946   8.820 -0.47 +0.00    +0.051 C 
DOCKED: ATOM     25  N   UNL d   1      -9.769   0.865   2.981 -0.17 -0.08    -0.248 N 
DOCKED: ATOM     26  N   UNL d   1      -7.037   1.658   3.600 -0.13 -0.03    -0.248 N 
DOCKED: ATOM     27  N   UNL d   1      -7.476   1.023   6.323 -0.22 -0.03    -0.248 N 
DOCKED: ATOM     28  N   UNL d   1     -10.205   0.225   5.731 -0.27 -0.06    -0.248 N 
DOCKED: ATOM     29 FE   UNL d   1      -8.631   0.936   4.675 -0.08 +0.00    +0.000 Fe
DOCKED: ATOM     30  O   UNL d   1      -8.221  -0.197   3.690 -0.60 +0.00    +0.000 OA
DOCKED: ATOM     31  O   UNL d   1      -8.222  -0.474   5.241 -0.84 +0.00    +0.000 OA
DOCKED: ENDROOT
DOCKED: BRANCH   6  32
DOCKED: ATOM     32  C   UNL d   1     -12.796   0.125   0.952 -0.26 +0.06    +0.052 C 
DOCKED: BRANCH  32  33
DOCKED: ATOM     33  C   UNL d   1     -13.065  -1.363   1.152 -0.16 +0.12    +0.115 C 
DOCKED: BRANCH  33  34
DOCKED: ATOM     34  C   UNL d   1     -14.178  -1.620   2.137 -0.22 +0.14    +0.139 C 
DOCKED: ATOM     35  O   UNL d   1     -14.899  -0.698   2.486 -0.00 -0.73    -0.650 OA
DOCKED: BRANCH  34  36
DOCKED: ATOM     36  O   UNL d   1     -14.381  -2.844   2.667 -0.07 -0.79    -0.776 OA
DOCKED: ATOM     37  H   UNL d   1     -14.989  -2.988   3.401 +0.06 +0.13    +0.167 HD
DOCKED: ENDBRANCH  34  36
DOCKED: ENDBRANCH  33  34
DOCKED: ENDBRANCH  32  33
DOCKED: ENDBRANCH   6  32
DOCKED: BRANCH  22  38
DOCKED: ATOM     38  C   UNL d   1     -13.705  -0.918   6.235 -0.04 +0.01    +0.052 C 
DOCKED: BRANCH  38  39
DOCKED: ATOM     39  C   UNL d   1     -13.829  -2.353   5.728 -0.29 +0.04    +0.115 C 
DOCKED: BRANCH  39  40
DOCKED: ATOM     40  C   UNL d   1     -15.254  -2.847   5.741 -0.17 +0.05    +0.139 C 
DOCKED: ATOM     41  O   UNL d   1     -15.654  -3.520   6.677 +0.06 -0.19    -0.650 OA
DOCKED: BRANCH  40  42
DOCKED: ATOM     42  O   UNL d   1     -16.115  -2.516   4.759 +0.13 -0.42    -0.776 OA
DOCKED: ATOM     43  H   UNL d   1     -15.842  -1.970   4.012 +0.06 +0.11    +0.167 HD
DOCKED: ENDBRANCH  40  42
DOCKED: ENDBRANCH  39  40
DOCKED: ENDBRANCH  38  39
DOCKED: ENDBRANCH  22  38
DOCKED: BRANCH  12  44
DOCKED: ATOM     44  C   UNL d   1      -3.701   3.325   2.967 -0.46 -0.00    +0.004 C 
DOCKED: ATOM     45  C   UNL d   1      -2.904   3.612   3.995 -0.54 -0.00    +0.012 C 
DOCKED: ENDBRANCH  12  44
DOCKED: BRANCH  17  46
DOCKED: ATOM     46  C   UNL d   1      -6.827   0.319   9.911 -0.33 +0.00    +0.004 C 
DOCKED: ATOM     47  C   UNL d   1      -6.760  -0.932  10.385 -0.70 -0.00    +0.012 C 
DOCKED: ENDBRANCH  17  46
DOCKED: TORSDOF 10
DOCKED: TER
DOCKED: ENDMDL
________________________________________________________________________________


	BEGINNING GENETIC ALGORITHM DOCKING 82 of 100
Run: 82 Seed: 1218525493 557645428 [ Run 82 of 100 GA/GALS ]
Beginning LAMARCKIAN GENETIC ALGORITHM (LGA), with a maximum of 25000000 energy evaluations.

Final-Value: -11.923


	FINAL GENETIC ALGORITHM DOCKED STATE
	_______________________________________________


Detailed state:  trans -14.209 -0.808 -0.846 quatxyzw -0.309978 0.296125 0.313615 -0.847272 center 8.287 34.468 -0.670 ntor 10 41.9848 -152.5498 125.1456 45.7058 9.6190 126.0738 -152.4171 122.2084 172.1400 171.9385
State:	-14.209  -0.808  -0.846  -0.584  0.558  0.590 -64.168     41.98 -152.55  125.15   45.71    9.62  126.07 -152.42  122.21  172.14  171.94

DOCKED: MODEL       82
DOCKED: USER    Run = 82
DOCKED: USER    DPF = D:/Protein_go_brrr/autodock/final/AncMH_nat/heme_O2/dock.dpf
DOCKED: USER  
DOCKED: USER    Estimated Free Energy of Binding    =   -6.87 kcal/mol  [=(1)+(2)+(3)-(4)]
DOCKED: USER    Estimated Inhibition Constant, Ki   =    9.24 uM (micromolar)  [Temperature = 298.15 K]
DOCKED: USER    
DOCKED: USER    (1) Final Intermolecular Energy     =   -9.85 kcal/mol
DOCKED: USER        vdW + Hbond + desolv Energy     =   -6.69 kcal/mol
DOCKED: USER        Electrostatic Energy            =   -3.16 kcal/mol
DOCKED: USER    (2) Final Total Internal Energy     =   -2.07 kcal/mol
DOCKED: USER    (3) Torsional Free Energy           =   +2.98 kcal/mol
DOCKED: USER    (4) Unbound System's Energy  [=(2)] =   -2.07 kcal/mol
DOCKED: USER    
DOCKED: USER    
DOCKED: USER    NEWDPF move heme_O2_opt.pdbqt
DOCKED: USER    NEWDPF about 8.287000 34.468000 -0.670000
DOCKED: USER    NEWDPF tran0 -14.208550 -0.807893 -0.846338
DOCKED: USER    NEWDPF quaternion0 -0.309978 0.296125 0.313615 -0.847272
DOCKED: USER    NEWDPF axisangle0 -0.583588 0.557506 0.590434 -64.167690
DOCKED: USER    NEWDPF quat0 -0.583588 0.557506 0.590434 -64.167690
DOCKED: USER    NEWDPF dihe0 41.98 -152.55 125.15 45.71 9.62 126.07 -152.42 122.21 172.14 171.94 
DOCKED: USER  keepresnum = 1 
DOCKED: USER  
DOCKED: REMARK  10 active torsions:
DOCKED: REMARK  status: ('A' for Active; 'I' for Inactive)
DOCKED: REMARK    1  A    between atoms: C_6  and  C_10 
DOCKED: REMARK    2  A    between atoms: C_10  and  C_11 
DOCKED: REMARK    3  A    between atoms: C_11  and  C_12 
DOCKED: REMARK    4  A    between atoms: C_12  and  O_14 
DOCKED: REMARK    5  A    between atoms: C_17  and  C_20 
DOCKED: REMARK    6  A    between atoms: C_24  and  C_27 
DOCKED: REMARK    7  A    between atoms: C_31  and  C_34 
DOCKED: REMARK    8  A    between atoms: C_34  and  C_35 
DOCKED: REMARK    9  A    between atoms: C_35  and  C_36 
DOCKED: REMARK   10  A    between atoms: C_36  and  O_38 
DOCKED: USER                              x       y       z     vdW  Elec       q    Type
DOCKED: USER                           _______ _______ _______ _____ _____    ______ ____
DOCKED: ROOT
DOCKED: ATOM      1  C   UNL d   1     -16.059  -1.659  -0.255 -0.07 +0.08    +0.064 A 
DOCKED: ATOM      2  C   UNL d   1     -12.232  -0.281   2.198 -0.23 +0.05    +0.064 A 
DOCKED: ATOM      3  C   UNL d   1      -9.989   1.011  -1.851 -0.21 +0.01    +0.064 C 
DOCKED: ATOM      4  C   UNL d   1     -14.102   0.043  -4.343 -0.06 +0.03    +0.064 A 
DOCKED: ATOM      5  C   UNL d   1     -15.202  -1.388   0.743 -0.16 +0.09    +0.066 A 
DOCKED: ATOM      6  C   UNL d   1     -15.465  -1.643   2.092 -0.17 -0.02    -0.021 A 
DOCKED: ATOM      7  C   UNL d   1     -14.375  -1.205   2.807 -0.23 -0.02    -0.025 A 
DOCKED: ATOM      8  C   UNL d   1     -13.456  -0.738   1.871 -0.25 +0.07    +0.066 A 
DOCKED: ATOM      9  C   UNL d   1     -14.267  -1.220   4.316 -0.15 +0.03    +0.051 C 
DOCKED: ATOM     10  C   UNL d   1     -11.217   0.199   1.259 -0.27 +0.04    +0.066 A 
DOCKED: ATOM     11  C   UNL d   1      -9.905   0.508   1.635 -0.35 -0.01    -0.021 A 
DOCKED: ATOM     12  C   UNL d   1      -9.238   0.866   0.479 -0.41 +0.00    +0.000 A 
DOCKED: ATOM     13  C   UNL d   1     -10.205   0.765  -0.559 -0.30 +0.02    +0.070 A 
DOCKED: ATOM     14  C   UNL d   1      -9.307   0.439   3.035 -0.33 +0.02    +0.052 C 
DOCKED: ATOM     15  C   UNL d   1     -10.949   0.954  -2.927 -0.26 +0.01    +0.066 A 
DOCKED: ATOM     16  C   UNL d   1     -10.702   1.383  -4.231 -0.30 +0.00    -0.021 A 
DOCKED: ATOM     17  C   UNL d   1     -11.862   1.117  -4.959 -0.15 +0.00    +0.000 A 
DOCKED: ATOM     18  C   UNL d   1     -12.740   0.537  -4.033 -0.11 +0.02    +0.070 A 
DOCKED: ATOM     19  C   UNL d   1      -9.416   2.051  -4.647 +0.33 -0.02    +0.052 C 
DOCKED: ATOM     20  C   UNL d   1     -14.986  -0.479  -3.471 -0.09 +0.04    +0.066 A 
DOCKED: ATOM     21  C   UNL d   1     -16.250  -0.945  -3.824 -0.05 -0.01    -0.025 A 
DOCKED: ATOM     22  C   UNL d   1     -16.811  -1.458  -2.677 -0.09 -0.02    -0.021 A 
DOCKED: ATOM     23  C   UNL d   1     -15.873  -1.270  -1.657 -0.11 +0.07    +0.066 A 
DOCKED: ATOM     24  C   UNL d   1     -16.890  -0.898  -5.187 -0.01 +0.02    +0.051 C 
DOCKED: ATOM     25  N   UNL d   1     -13.993  -0.791   0.605 -0.16 -0.33    -0.248 N 
DOCKED: ATOM     26  N   UNL d   1     -11.408   0.363  -0.075 -0.17 -0.16    -0.248 N 
DOCKED: ATOM     27  N   UNL d   1     -12.197   0.515  -2.789 -0.12 -0.12    -0.248 N 
DOCKED: ATOM     28  N   UNL d   1     -14.783  -0.634  -2.135 -0.10 -0.24    -0.248 N 
DOCKED: ATOM     29 FE   UNL d   1     -13.107  -0.138  -1.115 -0.05 +0.00    +0.000 Fe
DOCKED: ATOM     30  O   UNL d   1     -13.512   1.008  -0.143 -0.10 +0.00    +0.000 OA
DOCKED: ATOM     31  O   UNL d   1     -13.717   1.191  -1.694 -0.17 +0.00    +0.000 OA
DOCKED: ENDROOT
DOCKED: BRANCH   6  32
DOCKED: ATOM     32  C   UNL d   1     -16.745  -2.152   2.702 -0.10 +0.04    +0.052 C 
DOCKED: BRANCH  32  33
DOCKED: ATOM     33  C   UNL d   1     -17.542  -1.057   3.404 -0.10 +0.10    +0.115 C 
DOCKED: BRANCH  33  34
DOCKED: ATOM     34  C   UNL d   1     -17.248   0.314   2.849 -0.19 +0.20    +0.139 C 
DOCKED: ATOM     35  O   UNL d   1     -17.176   1.269   3.607 +0.01 -1.07    -0.650 OA
DOCKED: BRANCH  34  36
DOCKED: ATOM     36  O   UNL d   1     -17.089   0.518   1.525 -0.32 -1.46    -0.776 OA
DOCKED: ATOM     37  H   UNL d   1     -17.663   0.101   0.872 +0.03 +0.24    +0.167 HD
DOCKED: ENDBRANCH  34  36
DOCKED: ENDBRANCH  33  34
DOCKED: ENDBRANCH  32  33
DOCKED: ENDBRANCH   6  32
DOCKED: BRANCH  22  38
DOCKED: ATOM     38  C   UNL d   1     -18.198  -2.037  -2.560 -0.05 +0.03    +0.052 C 
DOCKED: BRANCH  38  39
DOCKED: ATOM     39  C   UNL d   1     -19.254  -0.968  -2.289 +0.01 +0.06    +0.115 C 
DOCKED: BRANCH  39  40
DOCKED: ATOM     40  C   UNL d   1     -18.984  -0.200  -1.019 -0.00 +0.10    +0.139 C 
DOCKED: ATOM     41  O   UNL d   1     -19.437  -0.603   0.041 +0.04 -0.51    -0.650 OA
DOCKED: BRANCH  40  42
DOCKED: ATOM     42  O   UNL d   1     -18.205   0.899  -1.022 +0.02 -0.81    -0.776 OA
DOCKED: ATOM     43  H   UNL d   1     -17.679   1.148  -0.252 +0.02 +0.27    +0.167 HD
DOCKED: ENDBRANCH  40  42
DOCKED: ENDBRANCH  39  40
DOCKED: ENDBRANCH  38  39
DOCKED: ENDBRANCH  22  38
DOCKED: BRANCH  12  44
DOCKED: ATOM     44  C   UNL d   1      -7.777   1.263   0.484 -0.45 +0.00    +0.004 C 
DOCKED: ATOM     45  C   UNL d   1      -7.203   2.264   1.150 -0.47 +0.00    +0.012 C 
DOCKED: ENDBRANCH  12  44
DOCKED: BRANCH  17  46
DOCKED: ATOM     46  C   UNL d   1     -12.216   1.410  -6.393 -0.10 -0.00    +0.004 C 
DOCKED: ATOM     47  C   UNL d   1     -11.431   1.327  -7.474 -0.15 -0.00    +0.012 C 
DOCKED: ENDBRANCH  17  46
DOCKED: TORSDOF 10
DOCKED: TER
DOCKED: ENDMDL
________________________________________________________________________________


	BEGINNING GENETIC ALGORITHM DOCKING 83 of 100
Run: 83 Seed: 371841642 292623086 [ Run 83 of 100 GA/GALS ]
Beginning LAMARCKIAN GENETIC ALGORITHM (LGA), with a maximum of 25000000 energy evaluations.

Final-Value: -16.347


	FINAL GENETIC ALGORITHM DOCKED STATE
	_______________________________________________


Detailed state:  trans -9.908 0.747 4.279 quatxyzw 0.889027 -0.041790 0.431508 -0.147262 center 8.287 34.468 -0.670 ntor 10 165.1267 -106.2185 -12.4712 -35.0244 -24.8714 176.8309 39.8026 70.0792 140.1237 164.7741
State:	 -9.908   0.747   4.279   0.899 -0.042  0.436 -163.063    165.13 -106.22  -12.47  -35.02  -24.87  176.83   39.80   70.08  140.12  164.77

DOCKED: MODEL       83
DOCKED: USER    Run = 83
DOCKED: USER    DPF = D:/Protein_go_brrr/autodock/final/AncMH_nat/heme_O2/dock.dpf
DOCKED: USER  
DOCKED: USER    Estimated Free Energy of Binding    =  -13.05 kcal/mol  [=(1)+(2)+(3)-(4)]
DOCKED: USER    Estimated Inhibition Constant, Ki   =  273.79 pM (picomolar)  [Temperature = 298.15 K]
DOCKED: USER    
DOCKED: USER    (1) Final Intermolecular Energy     =  -16.03 kcal/mol
DOCKED: USER        vdW + Hbond + desolv Energy     =  -13.93 kcal/mol
DOCKED: USER        Electrostatic Energy            =   -2.10 kcal/mol
DOCKED: USER    (2) Final Total Internal Energy     =   -0.32 kcal/mol
DOCKED: USER    (3) Torsional Free Energy           =   +2.98 kcal/mol
DOCKED: USER    (4) Unbound System's Energy  [=(2)] =   -0.32 kcal/mol
DOCKED: USER    
DOCKED: USER    
DOCKED: USER    NEWDPF move heme_O2_opt.pdbqt
DOCKED: USER    NEWDPF about 8.287000 34.468000 -0.670000
DOCKED: USER    NEWDPF tran0 -9.907744 0.746735 4.278585
DOCKED: USER    NEWDPF quaternion0 0.889027 -0.041790 0.431508 -0.147262
DOCKED: USER    NEWDPF axisangle0 0.898826 -0.042251 0.436264 -163.063458
DOCKED: USER    NEWDPF quat0 0.898826 -0.042251 0.436264 -163.063458
DOCKED: USER    NEWDPF dihe0 165.13 -106.22 -12.47 -35.02 -24.87 176.83 39.80 70.08 140.12 164.77 
DOCKED: USER  keepresnum = 1 
DOCKED: USER  
DOCKED: REMARK  10 active torsions:
DOCKED: REMARK  status: ('A' for Active; 'I' for Inactive)
DOCKED: REMARK    1  A    between atoms: C_6  and  C_10 
DOCKED: REMARK    2  A    between atoms: C_10  and  C_11 
DOCKED: REMARK    3  A    between atoms: C_11  and  C_12 
DOCKED: REMARK    4  A    between atoms: C_12  and  O_14 
DOCKED: REMARK    5  A    between atoms: C_17  and  C_20 
DOCKED: REMARK    6  A    between atoms: C_24  and  C_27 
DOCKED: REMARK    7  A    between atoms: C_31  and  C_34 
DOCKED: REMARK    8  A    between atoms: C_34  and  C_35 
DOCKED: REMARK    9  A    between atoms: C_35  and  C_36 
DOCKED: REMARK   10  A    between atoms: C_36  and  O_38 
DOCKED: USER                              x       y       z     vdW  Elec       q    Type
DOCKED: USER                           _______ _______ _______ _____ _____    ______ ____
DOCKED: ROOT
DOCKED: ATOM      1  C   UNL d   1     -11.800   0.313   3.424 -0.29 +0.03    +0.064 A 
DOCKED: ATOM      2  C   UNL d   1      -7.719   1.869   1.559 -0.34 +0.01    +0.064 A 
DOCKED: ATOM      3  C   UNL d   1      -5.632   1.865   5.887 -0.28 +0.00    +0.064 C 
DOCKED: ATOM      4  C   UNL d   1      -9.679  -0.191   7.747 -0.10 +0.01    +0.064 A 
DOCKED: ATOM      5  C   UNL d   1     -10.860   0.735   2.563 -0.28 +0.03    +0.066 A 
DOCKED: ATOM      6  C   UNL d   1     -11.072   0.902   1.192 -0.29 -0.01    -0.021 A 
DOCKED: ATOM      7  C   UNL d   1      -9.879   1.311   0.644 -0.33 -0.01    -0.025 A 
DOCKED: ATOM      8  C   UNL d   1      -8.984   1.429   1.703 -0.29 +0.02    +0.066 A 
DOCKED: ATOM      9  C   UNL d   1      -9.638   1.539  -0.832 -0.23 +0.01    +0.051 C 
DOCKED: ATOM     10  C   UNL d   1      -6.741   2.036   2.635 -0.33 +0.01    +0.066 A 
DOCKED: ATOM     11  C   UNL d   1      -5.497   2.651   2.455 -0.38 -0.00    -0.021 A 
DOCKED: ATOM     12  C   UNL d   1      -4.887   2.675   3.696 -0.37 -0.00    +0.000 A 
DOCKED: ATOM     13  C   UNL d   1      -5.810   2.049   4.579 -0.30 +0.00    +0.070 A 
DOCKED: ATOM     14  C   UNL d   1      -4.925   3.216   1.160 -0.46 -0.00    +0.052 C 
DOCKED: ATOM     15  C   UNL d   1      -6.525   1.205   6.809 -0.38 +0.00    +0.066 A 
DOCKED: ATOM     16  C   UNL d   1      -6.210   0.898   8.132 -0.48 -0.00    -0.021 A 
DOCKED: ATOM     17  C   UNL d   1      -7.349   0.310   8.682 -0.46 +0.00    +0.000 A 
DOCKED: ATOM     18  C   UNL d   1      -8.286   0.304   7.640 -0.37 +0.01    +0.070 A 
DOCKED: ATOM     19  C   UNL d   1      -4.847   1.140   8.731 -0.59 -0.00    +0.052 C 
DOCKED: ATOM     20  C   UNL d   1     -10.590  -0.251   6.756 -0.35 +0.01    +0.066 A 
DOCKED: ATOM     21  C   UNL d   1     -11.893  -0.712   6.921 -0.32 -0.00    -0.025 A 
DOCKED: ATOM     22  C   UNL d   1     -12.520  -0.551   5.706 -0.35 -0.01    -0.021 A 
DOCKED: ATOM     23  C   UNL d   1     -11.567  -0.012   4.836 -0.32 +0.02    +0.066 A 
DOCKED: ATOM     24  C   UNL d   1     -12.507  -1.281   8.174 -0.38 +0.00    +0.051 C 
DOCKED: ATOM     25  N   UNL d   1      -9.570   1.011   2.875 -0.16 -0.08    -0.248 N 
DOCKED: ATOM     26  N   UNL d   1      -6.933   1.659   3.925 -0.10 -0.03    -0.248 N 
DOCKED: ATOM     27  N   UNL d   1      -7.745   0.782   6.490 -0.22 -0.04    -0.248 N 
DOCKED: ATOM     28  N   UNL d   1     -10.383   0.127   5.467 -0.27 -0.07    -0.248 N 
DOCKED: ATOM     29 FE   UNL d   1      -8.669   0.887   4.704 -0.08 +0.00    +0.000 Fe
DOCKED: ATOM     30  O   UNL d   1      -8.149  -0.159   3.675 -0.60 +0.00    +0.000 OA
DOCKED: ATOM     31  O   UNL d   1      -8.364  -0.581   5.177 -0.86 +0.00    +0.000 OA
DOCKED: ENDROOT
DOCKED: BRANCH   6  32
DOCKED: ATOM     32  C   UNL d   1     -12.308   0.559   0.401 -0.26 +0.06    +0.052 C 
DOCKED: BRANCH  32  33
DOCKED: ATOM     33  C   UNL d   1     -11.993  -0.145  -0.915 -0.11 +0.09    +0.115 C 
DOCKED: BRANCH  33  34
DOCKED: ATOM     34  C   UNL d   1     -12.912   0.285  -2.032 -0.16 +0.11    +0.139 C 
DOCKED: ATOM     35  O   UNL d   1     -12.826  -0.252  -3.125 +0.00 -0.36    -0.650 OA
DOCKED: BRANCH  34  36
DOCKED: ATOM     36  O   UNL d   1     -13.813   1.275  -1.860 +0.05 -0.93    -0.776 OA
DOCKED: ATOM     37  H   UNL d   1     -14.256   1.698  -2.604 +0.03 +0.15    +0.167 HD
DOCKED: ENDBRANCH  34  36
DOCKED: ENDBRANCH  33  34
DOCKED: ENDBRANCH  32  33
DOCKED: ENDBRANCH   6  32
DOCKED: BRANCH  22  38
DOCKED: ATOM     38  C   UNL d   1     -13.937  -0.954   5.389 +0.17 +0.02    +0.052 C 
DOCKED: BRANCH  38  39
DOCKED: ATOM     39  C   UNL d   1     -14.023  -2.357   4.791 -0.25 +0.05    +0.115 C 
DOCKED: BRANCH  39  40
DOCKED: ATOM     40  C   UNL d   1     -14.428  -2.341   3.339 -0.20 +0.11    +0.139 C 
DOCKED: ATOM     41  O   UNL d   1     -15.269  -1.544   2.953 +0.03 -0.57    -0.650 OA
DOCKED: BRANCH  40  42
DOCKED: ATOM     42  O   UNL d   1     -13.842  -3.158   2.444 -0.37 -0.96    -0.776 OA
DOCKED: ATOM     43  H   UNL d   1     -13.179  -2.834   1.822 +0.05 +0.23    +0.167 HD
DOCKED: ENDBRANCH  40  42
DOCKED: ENDBRANCH  39  40
DOCKED: ENDBRANCH  38  39
DOCKED: ENDBRANCH  22  38
DOCKED: BRANCH  12  44
DOCKED: ATOM     44  C   UNL d   1      -3.514   3.278   3.905 -0.45 -0.00    +0.004 C 
DOCKED: ATOM     45  C   UNL d   1      -2.947   3.645   5.054 -0.59 -0.00    +0.012 C 
DOCKED: ENDBRANCH  12  44
DOCKED: BRANCH  17  46
DOCKED: ATOM     46  C   UNL d   1      -7.597  -0.279  10.046 -0.61 +0.00    +0.004 C 
DOCKED: ATOM     47  C   UNL d   1      -6.784  -1.056  10.772 -0.70 -0.00    +0.012 C 
DOCKED: ENDBRANCH  17  46
DOCKED: TORSDOF 10
DOCKED: TER
DOCKED: ENDMDL
________________________________________________________________________________


	BEGINNING GENETIC ALGORITHM DOCKING 84 of 100
Run: 84 Seed: 163657694 83934489 [ Run 84 of 100 GA/GALS ]
Beginning LAMARCKIAN GENETIC ALGORITHM (LGA), with a maximum of 25000000 energy evaluations.

Final-Value: -12.225


	FINAL GENETIC ALGORITHM DOCKED STATE
	_______________________________________________


Detailed state:  trans -13.986 -0.978 -1.899 quatxyzw 0.219159 0.431922 -0.045648 0.873687 center 8.287 34.468 -0.670 ntor 10 -6.5195 123.2873 -34.5894 117.6739 -123.2657 -115.6696 -172.3459 -86.1265 -5.1895 -6.8689
State:	-13.986  -0.978  -1.899   0.450  0.888 -0.094 58.220     -6.52  123.29  -34.59  117.67 -123.27 -115.67 -172.35  -86.13   -5.19   -6.87

DOCKED: MODEL       84
DOCKED: USER    Run = 84
DOCKED: USER    DPF = D:/Protein_go_brrr/autodock/final/AncMH_nat/heme_O2/dock.dpf
DOCKED: USER  
DOCKED: USER    Estimated Free Energy of Binding    =   -6.97 kcal/mol  [=(1)+(2)+(3)-(4)]
DOCKED: USER    Estimated Inhibition Constant, Ki   =    7.76 uM (micromolar)  [Temperature = 298.15 K]
DOCKED: USER    
DOCKED: USER    (1) Final Intermolecular Energy     =   -9.95 kcal/mol
DOCKED: USER        vdW + Hbond + desolv Energy     =   -8.06 kcal/mol
DOCKED: USER        Electrostatic Energy            =   -1.89 kcal/mol
DOCKED: USER    (2) Final Total Internal Energy     =   -2.27 kcal/mol
DOCKED: USER    (3) Torsional Free Energy           =   +2.98 kcal/mol
DOCKED: USER    (4) Unbound System's Energy  [=(2)] =   -2.27 kcal/mol
DOCKED: USER    
DOCKED: USER    
DOCKED: USER    NEWDPF move heme_O2_opt.pdbqt
DOCKED: USER    NEWDPF about 8.287000 34.468000 -0.670000
DOCKED: USER    NEWDPF tran0 -13.986365 -0.978013 -1.898589
DOCKED: USER    NEWDPF quaternion0 0.219159 0.431922 -0.045648 0.873687
DOCKED: USER    NEWDPF axisangle0 0.450492 0.887836 -0.093833 58.220015
DOCKED: USER    NEWDPF quat0 0.450492 0.887836 -0.093833 58.220015
DOCKED: USER    NEWDPF dihe0 -6.52 123.29 -34.59 117.67 -123.27 -115.67 -172.35 -86.13 -5.19 -6.87 
DOCKED: USER  keepresnum = 1 
DOCKED: USER  
DOCKED: REMARK  10 active torsions:
DOCKED: REMARK  status: ('A' for Active; 'I' for Inactive)
DOCKED: REMARK    1  A    between atoms: C_6  and  C_10 
DOCKED: REMARK    2  A    between atoms: C_10  and  C_11 
DOCKED: REMARK    3  A    between atoms: C_11  and  C_12 
DOCKED: REMARK    4  A    between atoms: C_12  and  O_14 
DOCKED: REMARK    5  A    between atoms: C_17  and  C_20 
DOCKED: REMARK    6  A    between atoms: C_24  and  C_27 
DOCKED: REMARK    7  A    between atoms: C_31  and  C_34 
DOCKED: REMARK    8  A    between atoms: C_34  and  C_35 
DOCKED: REMARK    9  A    between atoms: C_35  and  C_36 
DOCKED: REMARK   10  A    between atoms: C_36  and  O_38 
DOCKED: USER                              x       y       z     vdW  Elec       q    Type
DOCKED: USER                           _______ _______ _______ _____ _____    ______ ____
DOCKED: ROOT
DOCKED: ATOM      1  C   UNL d   1     -14.465  -1.214  -3.951 -0.11 +0.04    +0.064 A 
DOCKED: ATOM      2  C   UNL d   1     -16.904  -2.078   0.031 -0.08 +0.07    +0.064 A 
DOCKED: ATOM      3  C   UNL d   1     -13.193  -0.642   2.725 -0.29 +0.05    +0.064 C 
DOCKED: ATOM      4  C   UNL d   1     -10.846   0.701  -1.368 -0.25 +0.03    +0.064 A 
DOCKED: ATOM      5  C   UNL d   1     -15.432  -1.565  -3.088 -0.09 +0.06    +0.066 A 
DOCKED: ATOM      6  C   UNL d   1     -16.679  -2.066  -3.471 -0.09 -0.02    -0.021 A 
DOCKED: ATOM      7  C   UNL d   1     -17.402  -2.276  -2.320 -0.08 -0.02    -0.025 A 
DOCKED: ATOM      8  C   UNL d   1     -16.559  -1.943  -1.263 -0.04 +0.07    +0.066 A 
DOCKED: ATOM      9  C   UNL d   1     -18.840  -2.745  -2.274 -0.04 +0.03    +0.051 C 
DOCKED: ATOM     10  C   UNL d   1     -16.055  -1.767   1.182 -0.11 +0.08    +0.066 A 
DOCKED: ATOM     11  C   UNL d   1     -16.402  -2.080   2.501 -0.11 -0.02    -0.021 A 
DOCKED: ATOM     12  C   UNL d   1     -15.336  -1.690   3.291 -0.17 +0.00    +0.000 A 
DOCKED: ATOM     13  C   UNL d   1     -14.384  -1.138   2.391 -0.22 +0.07    +0.070 A 
DOCKED: ATOM     14  C   UNL d   1     -17.683  -2.749   2.985 -0.05 +0.04    +0.052 C 
DOCKED: ATOM     15  C   UNL d   1     -12.216  -0.042   1.849 -0.25 +0.05    +0.066 A 
DOCKED: ATOM     16  C   UNL d   1     -11.059   0.606   2.281 -0.31 -0.01    -0.021 A 
DOCKED: ATOM     17  C   UNL d   1     -10.374   0.999   1.131 -0.32 +0.00    +0.000 A 
DOCKED: ATOM     18  C   UNL d   1     -11.174   0.553   0.070 -0.27 +0.04    +0.070 A 
DOCKED: ATOM     19  C   UNL d   1     -10.742   0.840   3.737 -0.27 +0.02    +0.052 C 
DOCKED: ATOM     20  C   UNL d   1     -11.611   0.324  -2.411 -0.19 +0.03    +0.066 A 
DOCKED: ATOM     21  C   UNL d   1     -11.241   0.474  -3.745 -0.28 -0.00    -0.025 A 
DOCKED: ATOM     22  C   UNL d   1     -12.248  -0.091  -4.494 -0.18 -0.01    -0.021 A 
DOCKED: ATOM     23  C   UNL d   1     -13.208  -0.551  -3.587 -0.10 +0.04    +0.066 A 
DOCKED: ATOM     24  C   UNL d   1      -9.992   1.127  -4.276 -0.36 -0.01    +0.051 C 
DOCKED: ATOM     25  N   UNL d   1     -15.369  -1.443  -1.739 -0.07 -0.28    -0.248 N 
DOCKED: ATOM     26  N   UNL d   1     -14.831  -1.184   1.110 -0.14 -0.32    -0.248 N 
DOCKED: ATOM     27  N   UNL d   1     -12.323  -0.010   0.524 -0.16 -0.24    -0.248 N 
DOCKED: ATOM     28  N   UNL d   1     -12.838  -0.256  -2.324 -0.12 -0.18    -0.248 N 
DOCKED: ATOM     29 FE   UNL d   1     -13.825  -0.715  -0.618 -0.05 +0.00    +0.000 Fe
DOCKED: ATOM     30  O   UNL d   1     -15.096   0.183  -0.596 -0.25 +0.00    +0.000 OA
DOCKED: ATOM     31  O   UNL d   1     -13.670   0.849  -0.667 -0.19 +0.00    +0.000 OA
DOCKED: ENDROOT
DOCKED: BRANCH   6  32
DOCKED: ATOM     32  C   UNL d   1     -17.226  -2.214  -4.867 -0.03 +0.02    +0.052 C 
DOCKED: BRANCH  32  33
DOCKED: ATOM     33  C   UNL d   1     -16.677  -3.440  -5.591 -0.04 +0.05    +0.115 C 
DOCKED: BRANCH  33  34
DOCKED: ATOM     34  C   UNL d   1     -15.814  -4.297  -4.698 -0.11 +0.12    +0.139 C 
DOCKED: ATOM     35  O   UNL d   1     -16.334  -5.144  -3.990 -0.55 -0.78    -0.650 OA
DOCKED: BRANCH  34  36
DOCKED: ATOM     36  O   UNL d   1     -14.477  -4.130  -4.643 -0.58 -0.74    -0.776 OA
DOCKED: ATOM     37  H   UNL d   1     -14.013  -3.523  -5.231 +0.04 +0.10    +0.167 HD
DOCKED: ENDBRANCH  34  36
DOCKED: ENDBRANCH  33  34
DOCKED: ENDBRANCH  32  33
DOCKED: ENDBRANCH   6  32
DOCKED: BRANCH  22  38
DOCKED: ATOM     38  C   UNL d   1     -12.309  -0.126  -6.000 -0.13 +0.00    +0.052 C 
DOCKED: BRANCH  38  39
DOCKED: ATOM     39  C   UNL d   1     -11.757  -1.428  -6.574 -0.15 +0.01    +0.115 C 
DOCKED: BRANCH  39  40
DOCKED: ATOM     40  C   UNL d   1     -12.831  -2.465  -6.788 -0.10 +0.03    +0.139 C 
DOCKED: ATOM     41  O   UNL d   1     -13.975  -2.112  -7.026 +0.04 -0.15    -0.650 OA
DOCKED: BRANCH  40  42
DOCKED: ATOM     42  O   UNL d   1     -12.542  -3.780  -6.773 +0.07 -0.26    -0.776 OA
DOCKED: ATOM     43  H   UNL d   1     -13.012  -4.394  -6.196 +0.06 +0.07    +0.167 HD
DOCKED: ENDBRANCH  40  42
DOCKED: ENDBRANCH  39  40
DOCKED: ENDBRANCH  38  39
DOCKED: ENDBRANCH  22  38
DOCKED: BRANCH  12  44
DOCKED: ATOM     44  C   UNL d   1     -15.339  -1.878   4.794 -0.18 +0.00    +0.004 C 
DOCKED: ATOM     45  C   UNL d   1     -14.322  -2.241   5.575 -0.31 +0.00    +0.012 C 
DOCKED: ENDBRANCH  12  44
DOCKED: BRANCH  17  46
DOCKED: ATOM     46  C   UNL d   1      -9.102   1.784   0.958 -0.38 +0.00    +0.004 C 
DOCKED: ATOM     47  C   UNL d   1      -7.916   1.352   0.511 -0.47 +0.00    +0.012 C 
DOCKED: ENDBRANCH  17  46
DOCKED: TORSDOF 10
DOCKED: TER
DOCKED: ENDMDL
________________________________________________________________________________


	BEGINNING GENETIC ALGORITHM DOCKING 85 of 100
Run: 85 Seed: 1410083511 1113208561 [ Run 85 of 100 GA/GALS ]
Beginning LAMARCKIAN GENETIC ALGORITHM (LGA), with a maximum of 25000000 energy evaluations.

Final-Value: -13.468


	FINAL GENETIC ALGORITHM DOCKED STATE
	_______________________________________________


Detailed state:  trans -14.856 -0.855 1.850 quatxyzw -0.882489 0.002386 -0.441589 0.161883 center 8.287 34.468 -0.670 ntor 10 -149.3821 -7.6107 104.9440 68.6316 73.1684 138.9367 114.0935 -177.0726 11.6245 -3.7006
State:	-14.856  -0.855   1.850  -0.894  0.002 -0.447 161.368   -149.38   -7.61  104.94   68.63   73.17  138.94  114.09 -177.07   11.62   -3.70

DOCKED: MODEL       85
DOCKED: USER    Run = 85
DOCKED: USER    DPF = D:/Protein_go_brrr/autodock/final/AncMH_nat/heme_O2/dock.dpf
DOCKED: USER  
DOCKED: USER    Estimated Free Energy of Binding    =   -8.21 kcal/mol  [=(1)+(2)+(3)-(4)]
DOCKED: USER    Estimated Inhibition Constant, Ki   =  951.34 nM (nanomolar)  [Temperature = 298.15 K]
DOCKED: USER    
DOCKED: USER    (1) Final Intermolecular Energy     =  -11.20 kcal/mol
DOCKED: USER        vdW + Hbond + desolv Energy     =   -8.23 kcal/mol
DOCKED: USER        Electrostatic Energy            =   -2.96 kcal/mol
DOCKED: USER    (2) Final Total Internal Energy     =   -2.27 kcal/mol
DOCKED: USER    (3) Torsional Free Energy           =   +2.98 kcal/mol
DOCKED: USER    (4) Unbound System's Energy  [=(2)] =   -2.27 kcal/mol
DOCKED: USER    
DOCKED: USER    
DOCKED: USER    NEWDPF move heme_O2_opt.pdbqt
DOCKED: USER    NEWDPF about 8.287000 34.468000 -0.670000
DOCKED: USER    NEWDPF tran0 -14.856430 -0.855466 1.849591
DOCKED: USER    NEWDPF quaternion0 -0.882489 0.002386 -0.441589 0.161883
DOCKED: USER    NEWDPF axisangle0 -0.894285 0.002417 -0.447492 161.367576
DOCKED: USER    NEWDPF quat0 -0.894285 0.002417 -0.447492 161.367576
DOCKED: USER    NEWDPF dihe0 -149.38 -7.61 104.94 68.63 73.17 138.94 114.09 -177.07 11.62 -3.70 
DOCKED: USER  keepresnum = 1 
DOCKED: USER  
DOCKED: REMARK  10 active torsions:
DOCKED: REMARK  status: ('A' for Active; 'I' for Inactive)
DOCKED: REMARK    1  A    between atoms: C_6  and  C_10 
DOCKED: REMARK    2  A    between atoms: C_10  and  C_11 
DOCKED: REMARK    3  A    between atoms: C_11  and  C_12 
DOCKED: REMARK    4  A    between atoms: C_12  and  O_14 
DOCKED: REMARK    5  A    between atoms: C_17  and  C_20 
DOCKED: REMARK    6  A    between atoms: C_24  and  C_27 
DOCKED: REMARK    7  A    between atoms: C_31  and  C_34 
DOCKED: REMARK    8  A    between atoms: C_34  and  C_35 
DOCKED: REMARK    9  A    between atoms: C_35  and  C_36 
DOCKED: REMARK   10  A    between atoms: C_36  and  O_38 
DOCKED: USER                              x       y       z     vdW  Elec       q    Type
DOCKED: USER                           _______ _______ _______ _____ _____    ______ ____
DOCKED: ROOT
DOCKED: ATOM      1  C   UNL d   1     -16.709  -1.455   1.007 -0.11 +0.07    +0.064 A 
DOCKED: ATOM      2  C   UNL d   1     -12.704   0.225  -0.916 -0.18 +0.06    +0.064 A 
DOCKED: ATOM      3  C   UNL d   1     -10.675   0.616   3.423 -0.31 +0.02    +0.064 C 
DOCKED: ATOM      4  C   UNL d   1     -14.616  -1.560   5.372 -0.15 +0.03    +0.064 A 
DOCKED: ATOM      5  C   UNL d   1     -15.784  -1.032   0.130 -0.15 +0.09    +0.066 A 
DOCKED: ATOM      6  C   UNL d   1     -15.989  -0.964  -1.251 -0.13 -0.02    -0.021 A 
DOCKED: ATOM      7  C   UNL d   1     -14.816  -0.519  -1.813 -0.12 -0.03    -0.025 A 
DOCKED: ATOM      8  C   UNL d   1     -13.942  -0.281  -0.756 -0.15 +0.08    +0.066 A 
DOCKED: ATOM      9  C   UNL d   1     -14.570  -0.369  -3.299 -0.12 +0.03    +0.051 C 
DOCKED: ATOM     10  C   UNL d   1     -11.751   0.517   0.156 -0.24 +0.05    +0.066 A 
DOCKED: ATOM     11  C   UNL d   1     -10.544   1.193  -0.051 -0.30 -0.01    -0.021 A 
DOCKED: ATOM     12  C   UNL d   1      -9.953   1.332   1.191 -0.33 +0.00    +0.000 A 
DOCKED: ATOM     13  C   UNL d   1     -10.847   0.708   2.104 -0.28 +0.03    +0.070 A 
DOCKED: ATOM     14  C   UNL d   1      -9.990   1.710  -1.374 -0.28 +0.01    +0.052 C 
DOCKED: ATOM     15  C   UNL d   1     -11.539  -0.037   4.376 -0.23 +0.02    +0.066 A 
DOCKED: ATOM     16  C   UNL d   1     -11.223  -0.242   5.719 -0.43 -0.00    -0.021 A 
DOCKED: ATOM     17  C   UNL d   1     -12.332  -0.862   6.295 -0.38 +0.00    +0.000 A 
DOCKED: ATOM     18  C   UNL d   1     -13.254  -0.989   5.246 -0.23 +0.02    +0.070 A 
DOCKED: ATOM     19  C   UNL d   1      -9.885   0.119   6.313 -0.43 +0.01    +0.052 C 
DOCKED: ATOM     20  C   UNL d   1     -15.509  -1.736   4.379 -0.12 +0.04    +0.066 A 
DOCKED: ATOM     21  C   UNL d   1     -16.785  -2.263   4.561 -0.08 -0.01    -0.025 A 
DOCKED: ATOM     22  C   UNL d   1     -17.405  -2.216   3.333 -0.05 -0.02    -0.021 A 
DOCKED: ATOM     23  C   UNL d   1     -16.475  -1.676   2.439 -0.10 +0.06    +0.066 A 
DOCKED: ATOM     24  C   UNL d   1     -17.380  -2.789   5.842 -0.11 +0.02    +0.051 C 
DOCKED: ATOM     25  N   UNL d   1     -14.517  -0.659   0.436 -0.14 -0.37    -0.248 N 
DOCKED: ATOM     26  N   UNL d   1     -11.937   0.211   1.465 -0.16 -0.20    -0.248 N 
DOCKED: ATOM     27  N   UNL d   1     -12.728  -0.552   4.074 -0.17 -0.12    -0.248 N 
DOCKED: ATOM     28  N   UNL d   1     -15.309  -1.428   3.070 -0.10 -0.22    -0.248 N 
DOCKED: ATOM     29 FE   UNL d   1     -13.634  -0.615   2.276 -0.05 +0.00    +0.000 Fe
DOCKED: ATOM     30  O   UNL d   1     -13.040  -1.690   1.320 -0.43 +0.00    +0.000 OA
DOCKED: ATOM     31  O   UNL d   1     -13.248  -2.030   2.844 -0.35 +0.00    +0.000 OA
DOCKED: ENDROOT
DOCKED: BRANCH   6  32
DOCKED: ATOM     32  C   UNL d   1     -17.193  -1.429  -2.030 -0.09 +0.04    +0.052 C 
DOCKED: BRANCH  32  33
DOCKED: ATOM     33  C   UNL d   1     -18.189  -0.307  -2.305 -0.01 +0.07    +0.115 C 
DOCKED: BRANCH  33  34
DOCKED: ATOM     34  C   UNL d   1     -18.870   0.179  -1.050 -0.01 +0.11    +0.139 C 
DOCKED: ATOM     35  O   UNL d   1     -19.777  -0.476  -0.562 +0.04 -0.44    -0.650 OA
DOCKED: BRANCH  34  36
DOCKED: ATOM     36  O   UNL d   1     -18.517   1.343  -0.465 +0.01 -0.91    -0.776 OA
DOCKED: ATOM     37  H   UNL d   1     -18.582   1.476   0.488 +0.02 +0.25    +0.167 HD
DOCKED: ENDBRANCH  34  36
DOCKED: ENDBRANCH  33  34
DOCKED: ENDBRANCH  32  33
DOCKED: ENDBRANCH   6  32
DOCKED: BRANCH  22  38
DOCKED: ATOM     38  C   UNL d   1     -18.791  -2.723   3.029 -0.02 +0.03    +0.052 C 
DOCKED: BRANCH  38  39
DOCKED: ATOM     39  C   UNL d   1     -19.832  -1.606   3.030 -0.03 +0.09    +0.115 C 
DOCKED: BRANCH  39  40
DOCKED: ATOM     40  C   UNL d   1     -19.224  -0.251   3.293 -0.06 +0.19    +0.139 C 
DOCKED: ATOM     41  O   UNL d   1     -18.897   0.057   4.427 +0.07 -0.92    -0.650 OA
DOCKED: BRANCH  40  42
DOCKED: ATOM     42  O   UNL d   1     -18.986   0.612   2.286 -0.12 -1.39    -0.776 OA
DOCKED: ATOM     43  H   UNL d   1     -19.132   0.365   1.364 +0.02 +0.22    +0.167 HD
DOCKED: ENDBRANCH  40  42
DOCKED: ENDBRANCH  39  40
DOCKED: ENDBRANCH  38  39
DOCKED: ENDBRANCH  22  38
DOCKED: BRANCH  12  44
DOCKED: ATOM     44  C   UNL d   1      -8.620   2.028   1.374 -0.30 +0.00    +0.004 C 
DOCKED: ATOM     45  C   UNL d   1      -7.402   1.536   1.151 -0.49 +0.00    +0.012 C 
DOCKED: ENDBRANCH  12  44
DOCKED: BRANCH  17  46
DOCKED: ATOM     46  C   UNL d   1     -12.561  -1.378   7.690 -0.35 +0.00    +0.004 C 
DOCKED: ATOM     47  C   UNL d   1     -12.565  -0.689   8.838 -0.51 +0.00    +0.012 C 
DOCKED: ENDBRANCH  17  46
DOCKED: TORSDOF 10
DOCKED: TER
DOCKED: ENDMDL
________________________________________________________________________________


	BEGINNING GENETIC ALGORITHM DOCKING 86 of 100
Run: 86 Seed: 202942261 2004908807 [ Run 86 of 100 GA/GALS ]
Beginning LAMARCKIAN GENETIC ALGORITHM (LGA), with a maximum of 25000000 energy evaluations.

Final-Value: -18.527


	FINAL GENETIC ALGORITHM DOCKED STATE
	_______________________________________________


Detailed state:  trans -9.876 0.732 3.780 quatxyzw -0.889599 0.011026 -0.417174 0.185628 center 8.287 34.468 -0.670 ntor 10 -69.1431 114.7563 -0.2442 -60.9515 -138.4387 -18.0964 -49.1402 63.7040 -101.6162 175.1018
State:	 -9.876   0.732   3.780  -0.905  0.011 -0.425 158.605    -69.14  114.76   -0.24  -60.95 -138.44  -18.10  -49.14   63.70 -101.62  175.10

DOCKED: MODEL       86
DOCKED: USER    Run = 86
DOCKED: USER    DPF = D:/Protein_go_brrr/autodock/final/AncMH_nat/heme_O2/dock.dpf
DOCKED: USER  
DOCKED: USER    Estimated Free Energy of Binding    =  -14.11 kcal/mol  [=(1)+(2)+(3)-(4)]
DOCKED: USER    Estimated Inhibition Constant, Ki   =   45.14 pM (picomolar)  [Temperature = 298.15 K]
DOCKED: USER    
DOCKED: USER    (1) Final Intermolecular Energy     =  -17.10 kcal/mol
DOCKED: USER        vdW + Hbond + desolv Energy     =  -14.13 kcal/mol
DOCKED: USER        Electrostatic Energy            =   -2.97 kcal/mol
DOCKED: USER    (2) Final Total Internal Energy     =   -1.43 kcal/mol
DOCKED: USER    (3) Torsional Free Energy           =   +2.98 kcal/mol
DOCKED: USER    (4) Unbound System's Energy  [=(2)] =   -1.43 kcal/mol
DOCKED: USER    
DOCKED: USER    
DOCKED: USER    NEWDPF move heme_O2_opt.pdbqt
DOCKED: USER    NEWDPF about 8.287000 34.468000 -0.670000
DOCKED: USER    NEWDPF tran0 -9.876420 0.732500 3.780019
DOCKED: USER    NEWDPF quaternion0 -0.889599 0.011026 -0.417174 0.185628
DOCKED: USER    NEWDPF axisangle0 -0.905334 0.011221 -0.424553 158.604543
DOCKED: USER    NEWDPF quat0 -0.905334 0.011221 -0.424553 158.604543
DOCKED: USER    NEWDPF dihe0 -69.14 114.76 -0.24 -60.95 -138.44 -18.10 -49.14 63.70 -101.62 175.10 
DOCKED: USER  keepresnum = 1 
DOCKED: USER  
DOCKED: REMARK  10 active torsions:
DOCKED: REMARK  status: ('A' for Active; 'I' for Inactive)
DOCKED: REMARK    1  A    between atoms: C_6  and  C_10 
DOCKED: REMARK    2  A    between atoms: C_10  and  C_11 
DOCKED: REMARK    3  A    between atoms: C_11  and  C_12 
DOCKED: REMARK    4  A    between atoms: C_12  and  O_14 
DOCKED: REMARK    5  A    between atoms: C_17  and  C_20 
DOCKED: REMARK    6  A    between atoms: C_24  and  C_27 
DOCKED: REMARK    7  A    between atoms: C_31  and  C_34 
DOCKED: REMARK    8  A    between atoms: C_34  and  C_35 
DOCKED: REMARK    9  A    between atoms: C_35  and  C_36 
DOCKED: REMARK   10  A    between atoms: C_36  and  O_38 
DOCKED: USER                              x       y       z     vdW  Elec       q    Type
DOCKED: USER                           _______ _______ _______ _____ _____    ______ ____
DOCKED: ROOT
DOCKED: ATOM      1  C   UNL d   1     -11.791   0.191   3.044 -0.24 +0.04    +0.064 A 
DOCKED: ATOM      2  C   UNL d   1      -7.813   1.630   0.884 -0.38 +0.01    +0.064 A 
DOCKED: ATOM      3  C   UNL d   1      -5.565   2.063   5.110 -0.31 +0.00    +0.064 C 
DOCKED: ATOM      4  C   UNL d   1      -9.500   0.127   7.309 -0.27 +0.01    +0.064 A 
DOCKED: ATOM      5  C   UNL d   1     -10.892   0.545   2.112 -0.28 +0.03    +0.066 A 
DOCKED: ATOM      6  C   UNL d   1     -11.158   0.580   0.740 -0.29 -0.01    -0.021 A 
DOCKED: ATOM      7  C   UNL d   1      -9.995   0.954   0.110 -0.35 -0.01    -0.025 A 
DOCKED: ATOM      8  C   UNL d   1      -9.063   1.185   1.118 -0.35 +0.02    +0.066 A 
DOCKED: ATOM      9  C   UNL d   1      -9.813   1.046  -1.389 -0.17 +0.01    +0.051 C 
DOCKED: ATOM     10  C   UNL d   1      -6.799   1.912   1.901 -0.37 +0.01    +0.066 A 
DOCKED: ATOM     11  C   UNL d   1      -5.574   2.526   1.617 -0.41 -0.00    -0.021 A 
DOCKED: ATOM     12  C   UNL d   1      -4.919   2.676   2.825 -0.38 +0.00    +0.000 A 
DOCKED: ATOM     13  C   UNL d   1      -5.796   2.121   3.798 -0.33 +0.00    +0.070 A 
DOCKED: ATOM     14  C   UNL d   1      -5.062   2.976   0.253 -0.51 -0.00    +0.052 C 
DOCKED: ATOM     15  C   UNL d   1      -6.411   1.479   6.123 -0.35 +0.00    +0.066 A 
DOCKED: ATOM     16  C   UNL d   1      -6.041   1.302   7.456 -0.43 -0.00    -0.021 A 
DOCKED: ATOM     17  C   UNL d   1      -7.147   0.750   8.102 -0.46 +0.00    +0.000 A 
DOCKED: ATOM     18  C   UNL d   1      -8.122   0.632   7.102 -0.37 +0.01    +0.070 A 
DOCKED: ATOM     19  C   UNL d   1      -4.661   1.620   7.976 -0.47 -0.00    +0.052 C 
DOCKED: ATOM     20  C   UNL d   1     -10.446  -0.040   6.364 -0.38 +0.01    +0.066 A 
DOCKED: ATOM     21  C   UNL d   1     -11.733  -0.503   6.622 -0.35 -0.00    -0.025 A 
DOCKED: ATOM     22  C   UNL d   1     -12.408  -0.466   5.423 -0.34 -0.01    -0.021 A 
DOCKED: ATOM     23  C   UNL d   1     -11.499   0.004   4.470 -0.26 +0.02    +0.066 A 
DOCKED: ATOM     24  C   UNL d   1     -12.289  -0.962   7.945 -0.45 +0.00    +0.051 C 
DOCKED: ATOM     25  N   UNL d   1      -9.596   0.870   2.346 -0.20 -0.08    -0.248 N 
DOCKED: ATOM     26  N   UNL d   1      -6.935   1.654   3.227 -0.20 -0.03    -0.248 N 
DOCKED: ATOM     27  N   UNL d   1      -7.633   1.009   5.893 -0.06 -0.05    -0.248 N 
DOCKED: ATOM     28  N   UNL d   1     -10.295   0.219   5.038 -0.24 -0.08    -0.248 N 
DOCKED: ATOM     29 FE   UNL d   1      -8.626   0.931   4.142 -0.08 +0.00    +0.000 Fe
DOCKED: ATOM     30  O   UNL d   1      -8.125  -0.198   3.195 -0.48 +0.00    +0.000 OA
DOCKED: ATOM     31  O   UNL d   1      -8.275  -0.481   4.737 -0.81 +0.00    +0.000 OA
DOCKED: ENDROOT
DOCKED: BRANCH   6  32
DOCKED: ATOM     32  C   UNL d   1     -12.416   0.145   0.033 -0.26 +0.05    +0.052 C 
DOCKED: BRANCH  32  33
DOCKED: ATOM     33  C   UNL d   1     -13.296  -0.758   0.892 -0.22 +0.13    +0.115 C 
DOCKED: BRANCH  33  34
DOCKED: ATOM     34  C   UNL d   1     -14.725  -0.279   0.953 -0.10 +0.23    +0.139 C 
DOCKED: ATOM     35  O   UNL d   1     -15.435  -0.367  -0.036 -0.30 -1.06    -0.650 OA
DOCKED: BRANCH  34  36
DOCKED: ATOM     36  O   UNL d   1     -15.234   0.274   2.074 -0.02 -1.43    -0.776 OA
DOCKED: ATOM     37  H   UNL d   1     -15.388  -0.242   2.874 +0.05 +0.20    +0.167 HD
DOCKED: ENDBRANCH  34  36
DOCKED: ENDBRANCH  33  34
DOCKED: ENDBRANCH  32  33
DOCKED: ENDBRANCH   6  32
DOCKED: BRANCH  22  38
DOCKED: ATOM     38  C   UNL d   1     -13.828  -0.919   5.200 +0.00 +0.02    +0.052 C 
DOCKED: BRANCH  38  39
DOCKED: ATOM     39  C   UNL d   1     -13.931  -2.428   4.987 -0.27 +0.05    +0.115 C 
DOCKED: BRANCH  39  40
DOCKED: ATOM     40  C   UNL d   1     -14.467  -2.782   3.622 -0.20 +0.10    +0.139 C 
DOCKED: ATOM     41  O   UNL d   1     -13.842  -3.547   2.905 -0.32 -0.69    -0.650 OA
DOCKED: BRANCH  40  42
DOCKED: ATOM     42  O   UNL d   1     -15.654  -2.308   3.197 +0.09 -0.62    -0.776 OA
DOCKED: ATOM     43  H   UNL d   1     -15.721  -1.732   2.426 +0.05 +0.16    +0.167 HD
DOCKED: ENDBRANCH  40  42
DOCKED: ENDBRANCH  39  40
DOCKED: ENDBRANCH  38  39
DOCKED: ENDBRANCH  22  38
DOCKED: BRANCH  12  44
DOCKED: ATOM     44  C   UNL d   1      -3.551   3.318   2.924 -0.47 -0.00    +0.004 C 
DOCKED: ATOM     45  C   UNL d   1      -2.854   3.596   4.025 -0.55 -0.00    +0.012 C 
DOCKED: ENDBRANCH  12  44
DOCKED: BRANCH  17  46
DOCKED: ATOM     46  C   UNL d   1      -7.332   0.288   9.523 -0.38 +0.00    +0.004 C 
DOCKED: ATOM     47  C   UNL d   1      -6.757  -0.755  10.136 -0.69 +0.00    +0.012 C 
DOCKED: ENDBRANCH  17  46
DOCKED: TORSDOF 10
DOCKED: TER
DOCKED: ENDMDL
________________________________________________________________________________


	BEGINNING GENETIC ALGORITHM DOCKING 87 of 100
Run: 87 Seed: 657516361 1003048746 [ Run 87 of 100 GA/GALS ]
Beginning LAMARCKIAN GENETIC ALGORITHM (LGA), with a maximum of 25000000 energy evaluations.

Final-Value: -17.667


	FINAL GENETIC ALGORITHM DOCKED STATE
	_______________________________________________


Detailed state:  trans -9.951 0.705 4.134 quatxyzw -0.889664 0.031326 -0.430072 0.150183 center 8.287 34.468 -0.670 ntor 10 93.5328 115.0613 -41.8792 -15.7889 53.6965 -11.2314 -61.2327 60.9043 -111.5675 -178.8389
State:	 -9.951   0.705   4.134  -0.900  0.032 -0.435 162.725     93.53  115.06  -41.88  -15.79   53.70  -11.23  -61.23   60.90 -111.57 -178.84

DOCKED: MODEL       87
DOCKED: USER    Run = 87
DOCKED: USER    DPF = D:/Protein_go_brrr/autodock/final/AncMH_nat/heme_O2/dock.dpf
DOCKED: USER  
DOCKED: USER    Estimated Free Energy of Binding    =  -13.77 kcal/mol  [=(1)+(2)+(3)-(4)]
DOCKED: USER    Estimated Inhibition Constant, Ki   =   80.65 pM (picomolar)  [Temperature = 298.15 K]
DOCKED: USER    
DOCKED: USER    (1) Final Intermolecular Energy     =  -16.75 kcal/mol
DOCKED: USER        vdW + Hbond + desolv Energy     =  -14.09 kcal/mol
DOCKED: USER        Electrostatic Energy            =   -2.66 kcal/mol
DOCKED: USER    (2) Final Total Internal Energy     =   -0.91 kcal/mol
DOCKED: USER    (3) Torsional Free Energy           =   +2.98 kcal/mol
DOCKED: USER    (4) Unbound System's Energy  [=(2)] =   -0.91 kcal/mol
DOCKED: USER    
DOCKED: USER    
DOCKED: USER    NEWDPF move heme_O2_opt.pdbqt
DOCKED: USER    NEWDPF about 8.287000 34.468000 -0.670000
DOCKED: USER    NEWDPF tran0 -9.950680 0.705183 4.134353
DOCKED: USER    NEWDPF quaternion0 -0.889664 0.031326 -0.430072 0.150183
DOCKED: USER    NEWDPF axisangle0 -0.899870 0.031685 -0.435006 162.724988
DOCKED: USER    NEWDPF quat0 -0.899870 0.031685 -0.435006 162.724988
DOCKED: USER    NEWDPF dihe0 93.53 115.06 -41.88 -15.79 53.70 -11.23 -61.23 60.90 -111.57 -178.84 
DOCKED: USER  keepresnum = 1 
DOCKED: USER  
DOCKED: REMARK  10 active torsions:
DOCKED: REMARK  status: ('A' for Active; 'I' for Inactive)
DOCKED: REMARK    1  A    between atoms: C_6  and  C_10 
DOCKED: REMARK    2  A    between atoms: C_10  and  C_11 
DOCKED: REMARK    3  A    between atoms: C_11  and  C_12 
DOCKED: REMARK    4  A    between atoms: C_12  and  O_14 
DOCKED: REMARK    5  A    between atoms: C_17  and  C_20 
DOCKED: REMARK    6  A    between atoms: C_24  and  C_27 
DOCKED: REMARK    7  A    between atoms: C_31  and  C_34 
DOCKED: REMARK    8  A    between atoms: C_34  and  C_35 
DOCKED: REMARK    9  A    between atoms: C_35  and  C_36 
DOCKED: REMARK   10  A    between atoms: C_36  and  O_38 
DOCKED: USER                              x       y       z     vdW  Elec       q    Type
DOCKED: USER                           _______ _______ _______ _____ _____    ______ ____
DOCKED: ROOT
DOCKED: ATOM      1  C   UNL d   1     -11.841   0.230   3.298 -0.27 +0.03    +0.064 A 
DOCKED: ATOM      2  C   UNL d   1      -7.797   1.824   1.385 -0.36 +0.01    +0.064 A 
DOCKED: ATOM      3  C   UNL d   1      -5.683   1.913   5.700 -0.29 +0.00    +0.064 C 
DOCKED: ATOM      4  C   UNL d   1      -9.685  -0.181   7.614 -0.10 +0.01    +0.064 A 
DOCKED: ATOM      5  C   UNL d   1     -10.913   0.654   2.426 -0.28 +0.03    +0.066 A 
DOCKED: ATOM      6  C   UNL d   1     -11.137   0.799   1.053 -0.29 -0.01    -0.021 A 
DOCKED: ATOM      7  C   UNL d   1      -9.954   1.219   0.492 -0.33 -0.01    -0.025 A 
DOCKED: ATOM      8  C   UNL d   1      -9.054   1.366   1.544 -0.31 +0.02    +0.066 A 
DOCKED: ATOM      9  C   UNL d   1      -9.725   1.430  -0.989 -0.18 +0.01    +0.051 C 
DOCKED: ATOM     10  C   UNL d   1      -6.815   2.021   2.452 -0.34 +0.01    +0.066 A 
DOCKED: ATOM     11  C   UNL d   1      -5.582   2.653   2.256 -0.39 -0.00    -0.021 A 
DOCKED: ATOM     12  C   UNL d   1      -4.965   2.704   3.492 -0.38 -0.00    +0.000 A 
DOCKED: ATOM     13  C   UNL d   1      -5.872   2.076   4.390 -0.32 +0.00    +0.070 A 
DOCKED: ATOM     14  C   UNL d   1      -5.027   3.208   0.949 -0.47 -0.00    +0.052 C 
DOCKED: ATOM     15  C   UNL d   1      -6.560   1.252   6.636 -0.37 +0.00    +0.066 A 
DOCKED: ATOM     16  C   UNL d   1      -6.231   0.968   7.961 -0.47 -0.00    -0.021 A 
DOCKED: ATOM     17  C   UNL d   1      -7.357   0.370   8.527 -0.46 +0.00    +0.000 A 
DOCKED: ATOM     18  C   UNL d   1      -8.301   0.335   7.491 -0.38 +0.01    +0.070 A 
DOCKED: ATOM     19  C   UNL d   1      -4.869   1.240   8.548 -0.58 -0.00    +0.052 C 
DOCKED: ATOM     20  C   UNL d   1     -10.601  -0.269   6.630 -0.36 +0.01    +0.066 A 
DOCKED: ATOM     21  C   UNL d   1     -11.896  -0.748   6.810 -0.31 -0.00    -0.025 A 
DOCKED: ATOM     22  C   UNL d   1     -12.533  -0.613   5.597 -0.35 -0.01    -0.021 A 
DOCKED: ATOM     23  C   UNL d   1     -11.595  -0.071   4.714 -0.29 +0.02    +0.066 A 
DOCKED: ATOM     24  C   UNL d   1     -12.493  -1.309   8.074 -0.33 +0.00    +0.051 C 
DOCKED: ATOM     25  N   UNL d   1      -9.626   0.955   2.725 -0.17 -0.08    -0.248 N 
DOCKED: ATOM     26  N   UNL d   1      -6.993   1.659   3.748 -0.12 -0.03    -0.248 N 
DOCKED: ATOM     27  N   UNL d   1      -7.775   0.805   6.331 -0.21 -0.04    -0.248 N 
DOCKED: ATOM     28  N   UNL d   1     -10.408   0.094   5.334 -0.26 -0.07    -0.248 N 
DOCKED: ATOM     29 FE   UNL d   1      -8.712   0.871   4.549 -0.08 +0.00    +0.000 Fe
DOCKED: ATOM     30  O   UNL d   1      -8.182  -0.181   3.532 -0.56 +0.00    +0.000 OA
DOCKED: ATOM     31  O   UNL d   1      -8.381  -0.586   5.041 -0.86 +0.00    +0.000 OA
DOCKED: ENDROOT
DOCKED: BRANCH   6  32
DOCKED: ATOM     32  C   UNL d   1     -12.373   0.426   0.275 -0.26 +0.05    +0.052 C 
DOCKED: BRANCH  32  33
DOCKED: ATOM     33  C   UNL d   1     -13.155  -0.716   0.918 -0.22 +0.13    +0.115 C 
DOCKED: BRANCH  33  34
DOCKED: ATOM     34  C   UNL d   1     -14.533  -0.292   1.359 -0.16 +0.21    +0.139 C 
DOCKED: ATOM     35  O   UNL d   1     -14.725   0.021   2.523 -0.03 -0.88    -0.650 OA
DOCKED: BRANCH  34  36
DOCKED: ATOM     36  O   UNL d   1     -15.573  -0.277   0.499 -0.37 -1.38    -0.776 OA
DOCKED: ATOM     37  H   UNL d   1     -16.174  -1.026   0.411 +0.03 +0.22    +0.167 HD
DOCKED: ENDBRANCH  34  36
DOCKED: ENDBRANCH  33  34
DOCKED: ENDBRANCH  32  33
DOCKED: ENDBRANCH   6  32
DOCKED: BRANCH  22  38
DOCKED: ATOM     38  C   UNL d   1     -13.946  -1.043   5.294 +0.09 +0.02    +0.052 C 
DOCKED: BRANCH  38  39
DOCKED: ATOM     39  C   UNL d   1     -14.066  -2.553   5.104 -0.26 +0.05    +0.115 C 
DOCKED: BRANCH  39  40
DOCKED: ATOM     40  C   UNL d   1     -14.588  -2.922   3.738 -0.20 +0.09    +0.139 C 
DOCKED: ATOM     41  O   UNL d   1     -14.035  -3.798   3.094 -0.22 -0.63    -0.650 OA
DOCKED: BRANCH  40  42
DOCKED: ATOM     42  O   UNL d   1     -15.691  -2.335   3.233 +0.10 -0.62    -0.776 OA
DOCKED: ATOM     43  H   UNL d   1     -15.657  -1.806   2.426 +0.05 +0.16    +0.167 HD
DOCKED: ENDBRANCH  40  42
DOCKED: ENDBRANCH  39  40
DOCKED: ENDBRANCH  38  39
DOCKED: ENDBRANCH  22  38
DOCKED: BRANCH  12  44
DOCKED: ATOM     44  C   UNL d   1      -3.600   3.331   3.684 -0.46 -0.00    +0.004 C 
DOCKED: ATOM     45  C   UNL d   1      -3.217   4.185   4.633 -0.47 -0.00    +0.012 C 
DOCKED: ENDBRANCH  12  44
DOCKED: BRANCH  17  46
DOCKED: ATOM     46  C   UNL d   1      -7.587  -0.203   9.900 -0.53 +0.00    +0.004 C 
DOCKED: ATOM     47  C   UNL d   1      -6.676  -0.647  10.775 -0.68 +0.00    +0.012 C 
DOCKED: ENDBRANCH  17  46
DOCKED: TORSDOF 10
DOCKED: TER
DOCKED: ENDMDL
________________________________________________________________________________


	BEGINNING GENETIC ALGORITHM DOCKING 88 of 100
Run: 88 Seed: 1666945104 463915861 [ Run 88 of 100 GA/GALS ]
Beginning LAMARCKIAN GENETIC ALGORITHM (LGA), with a maximum of 25000000 energy evaluations.

Final-Value: -17.355


	FINAL GENETIC ALGORITHM DOCKED STATE
	_______________________________________________


Detailed state:  trans -9.914 0.700 4.401 quatxyzw 0.907515 0.001556 0.372690 -0.193693 center 8.287 34.468 -0.670 ntor 10 -171.5287 93.5144 -4.0423 -95.8888 -143.8643 -147.8843 11.0917 -53.9883 -57.0948 -147.6926
State:	 -9.914   0.700   4.401   0.925  0.002  0.380 -157.663   -171.53   93.51   -4.04  -95.89 -143.86 -147.88   11.09  -53.99  -57.09 -147.69

DOCKED: MODEL       88
DOCKED: USER    Run = 88
DOCKED: USER    DPF = D:/Protein_go_brrr/autodock/final/AncMH_nat/heme_O2/dock.dpf
DOCKED: USER  
DOCKED: USER    Estimated Free Energy of Binding    =  -14.18 kcal/mol  [=(1)+(2)+(3)-(4)]
DOCKED: USER    Estimated Inhibition Constant, Ki   =   40.13 pM (picomolar)  [Temperature = 298.15 K]
DOCKED: USER    
DOCKED: USER    (1) Final Intermolecular Energy     =  -17.17 kcal/mol
DOCKED: USER        vdW + Hbond + desolv Energy     =  -15.03 kcal/mol
DOCKED: USER        Electrostatic Energy            =   -2.14 kcal/mol
DOCKED: USER    (2) Final Total Internal Energy     =   -0.19 kcal/mol
DOCKED: USER    (3) Torsional Free Energy           =   +2.98 kcal/mol
DOCKED: USER    (4) Unbound System's Energy  [=(2)] =   -0.19 kcal/mol
DOCKED: USER    
DOCKED: USER    
DOCKED: USER    NEWDPF move heme_O2_opt.pdbqt
DOCKED: USER    NEWDPF about 8.287000 34.468000 -0.670000
DOCKED: USER    NEWDPF tran0 -9.914348 0.699867 4.401028
DOCKED: USER    NEWDPF quaternion0 0.907515 0.001556 0.372690 -0.193693
DOCKED: USER    NEWDPF axisangle0 0.925033 0.001586 0.379884 -157.663272
DOCKED: USER    NEWDPF quat0 0.925033 0.001586 0.379884 -157.663272
DOCKED: USER    NEWDPF dihe0 -171.53 93.51 -4.04 -95.89 -143.86 -147.88 11.09 -53.99 -57.09 -147.69 
DOCKED: USER  keepresnum = 1 
DOCKED: USER  
DOCKED: REMARK  10 active torsions:
DOCKED: REMARK  status: ('A' for Active; 'I' for Inactive)
DOCKED: REMARK    1  A    between atoms: C_6  and  C_10 
DOCKED: REMARK    2  A    between atoms: C_10  and  C_11 
DOCKED: REMARK    3  A    between atoms: C_11  and  C_12 
DOCKED: REMARK    4  A    between atoms: C_12  and  O_14 
DOCKED: REMARK    5  A    between atoms: C_17  and  C_20 
DOCKED: REMARK    6  A    between atoms: C_24  and  C_27 
DOCKED: REMARK    7  A    between atoms: C_31  and  C_34 
DOCKED: REMARK    8  A    between atoms: C_34  and  C_35 
DOCKED: REMARK    9  A    between atoms: C_35  and  C_36 
DOCKED: REMARK   10  A    between atoms: C_36  and  O_38 
DOCKED: USER                              x       y       z     vdW  Elec       q    Type
DOCKED: USER                           _______ _______ _______ _____ _____    ______ ____
DOCKED: ROOT
DOCKED: ATOM      1  C   UNL d   1     -11.892   0.148   3.867 -0.27 +0.03    +0.064 A 
DOCKED: ATOM      2  C   UNL d   1      -8.147   1.544   1.300 -0.36 +0.01    +0.064 A 
DOCKED: ATOM      3  C   UNL d   1      -5.494   2.048   5.275 -0.28 +0.00    +0.064 C 
DOCKED: ATOM      4  C   UNL d   1      -9.191   0.154   7.885 -0.23 +0.01    +0.064 A 
DOCKED: ATOM      5  C   UNL d   1     -11.089   0.485   2.845 -0.29 +0.03    +0.066 A 
DOCKED: ATOM      6  C   UNL d   1     -11.490   0.496   1.506 -0.29 -0.01    -0.021 A 
DOCKED: ATOM      7  C   UNL d   1     -10.395   0.859   0.758 -0.32 -0.01    -0.025 A 
DOCKED: ATOM      8  C   UNL d   1      -9.368   1.106   1.664 -0.31 +0.02    +0.066 A 
DOCKED: ATOM      9  C   UNL d   1     -10.362   0.925  -0.754 -0.36 +0.02    +0.051 C 
DOCKED: ATOM     10  C   UNL d   1      -7.038   1.843   2.207 -0.34 +0.01    +0.066 A 
DOCKED: ATOM     11  C   UNL d   1      -5.847   2.451   1.793 -0.40 -0.00    -0.021 A 
DOCKED: ATOM     12  C   UNL d   1      -5.076   2.621   2.928 -0.38 +0.00    +0.000 A 
DOCKED: ATOM     13  C   UNL d   1      -5.852   2.083   3.992 -0.33 +0.00    +0.070 A 
DOCKED: ATOM     14  C   UNL d   1      -5.473   2.876   0.378 -0.48 -0.00    +0.052 C 
DOCKED: ATOM     15  C   UNL d   1      -6.234   1.481   6.377 -0.37 +0.00    +0.066 A 
DOCKED: ATOM     16  C   UNL d   1      -5.734   1.327   7.669 -0.45 -0.00    -0.021 A 
DOCKED: ATOM     17  C   UNL d   1      -6.771   0.788   8.431 -0.44 +0.00    +0.000 A 
DOCKED: ATOM     18  C   UNL d   1      -7.840   0.654   7.535 -0.39 +0.01    +0.070 A 
DOCKED: ATOM     19  C   UNL d   1      -4.311   1.652   8.045 -0.43 -0.00    +0.052 C 
DOCKED: ATOM     20  C   UNL d   1     -10.226  -0.027   7.042 -0.32 +0.01    +0.066 A 
DOCKED: ATOM     21  C   UNL d   1     -11.481  -0.485   7.434 -0.29 -0.00    -0.025 A 
DOCKED: ATOM     22  C   UNL d   1     -12.271  -0.467   6.307 -0.37 -0.00    -0.021 A 
DOCKED: ATOM     23  C   UNL d   1     -11.461  -0.015   5.261 -0.36 +0.02    +0.066 A 
DOCKED: ATOM     24  C   UNL d   1     -11.903  -0.920   8.813 -0.49 +0.00    +0.051 C 
DOCKED: ATOM     25  N   UNL d   1      -9.777   0.812   2.944 -0.18 -0.08    -0.248 N 
DOCKED: ATOM     26  N   UNL d   1      -7.042   1.608   3.544 -0.15 -0.03    -0.248 N 
DOCKED: ATOM     27  N   UNL d   1      -7.474   1.009   6.277 -0.22 -0.03    -0.248 N 
DOCKED: ATOM     28  N   UNL d   1     -10.206   0.209   5.703 -0.27 -0.06    -0.248 N 
DOCKED: ATOM     29 FE   UNL d   1      -8.634   0.903   4.634 -0.08 +0.00    +0.000 Fe
DOCKED: ATOM     30  O   UNL d   1      -8.229  -0.243   3.662 -0.57 +0.00    +0.000 OA
DOCKED: ATOM     31  O   UNL d   1      -8.226  -0.500   5.216 -0.85 +0.00    +0.000 OA
DOCKED: ENDROOT
DOCKED: BRANCH   6  32
DOCKED: ATOM     32  C   UNL d   1     -12.812   0.052   0.934 -0.27 +0.06    +0.052 C 
DOCKED: BRANCH  32  33
DOCKED: ATOM     33  C   UNL d   1     -13.959   0.167   1.934 -0.12 +0.17    +0.115 C 
DOCKED: BRANCH  33  34
DOCKED: ATOM     34  C   UNL d   1     -15.227  -0.475   1.431 -0.12 +0.21    +0.139 C 
DOCKED: ATOM     35  O   UNL d   1     -15.263  -1.682   1.252 -0.01 -0.80    -0.650 OA
DOCKED: BRANCH  34  36
DOCKED: ATOM     36  O   UNL d   1     -16.322   0.259   1.144 -0.33 -1.73    -0.776 OA
DOCKED: ATOM     37  H   UNL d   1     -17.172  -0.148   0.942 +0.03 +0.25    +0.167 HD
DOCKED: ENDBRANCH  34  36
DOCKED: ENDBRANCH  33  34
DOCKED: ENDBRANCH  32  33
DOCKED: ENDBRANCH   6  32
DOCKED: BRANCH  22  38
DOCKED: ATOM     38  C   UNL d   1     -13.706  -0.922   6.233 -0.04 +0.01    +0.052 C 
DOCKED: BRANCH  38  39
DOCKED: ATOM     39  C   UNL d   1     -13.929  -2.260   6.935 -0.35 +0.02    +0.115 C 
DOCKED: BRANCH  39  40
DOCKED: ATOM     40  C   UNL d   1     -15.010  -2.187   7.984 -0.25 +0.02    +0.139 C 
DOCKED: ATOM     41  O   UNL d   1     -15.549  -1.120   8.225 -0.25 -0.18    -0.650 OA
DOCKED: BRANCH  40  42
DOCKED: ATOM     42  O   UNL d   1     -15.431  -3.294   8.627 +0.05 -0.07    -0.776 OA
DOCKED: ATOM     43  H   UNL d   1     -15.080  -3.539   9.491 -0.47 -0.01    +0.167 HD
DOCKED: ENDBRANCH  40  42
DOCKED: ENDBRANCH  39  40
DOCKED: ENDBRANCH  38  39
DOCKED: ENDBRANCH  22  38
DOCKED: BRANCH  12  44
DOCKED: ATOM     44  C   UNL d   1      -3.705   3.262   2.879 -0.46 -0.00    +0.004 C 
DOCKED: ATOM     45  C   UNL d   1      -2.933   3.621   3.904 -0.53 -0.00    +0.012 C 
DOCKED: ENDBRANCH  12  44
DOCKED: BRANCH  17  46
DOCKED: ATOM     46  C   UNL d   1      -6.815   0.350   9.871 -0.34 +0.00    +0.004 C 
DOCKED: ATOM     47  C   UNL d   1      -6.771  -0.896  10.360 -0.70 +0.00    +0.012 C 
DOCKED: ENDBRANCH  17  46
DOCKED: TORSDOF 10
DOCKED: TER
DOCKED: ENDMDL
________________________________________________________________________________


	BEGINNING GENETIC ALGORITHM DOCKING 89 of 100
Run: 89 Seed: 1040221366 706558715 [ Run 89 of 100 GA/GALS ]
Beginning LAMARCKIAN GENETIC ALGORITHM (LGA), with a maximum of 25000000 energy evaluations.

Final-Value: -17.369


	FINAL GENETIC ALGORITHM DOCKED STATE
	_______________________________________________


Detailed state:  trans -9.921 0.700 4.375 quatxyzw -0.907501 -0.000893 -0.372861 0.193430 center 8.287 34.468 -0.670 ntor 10 -145.8662 141.3019 -4.4131 -95.7439 -153.7440 4.8189 13.4803 61.2628 -49.5997 168.0759
State:	 -9.921   0.700   4.375  -0.925 -0.001 -0.380 157.694   -145.87  141.30   -4.41  -95.74 -153.74    4.82   13.48   61.26  -49.60  168.08

DOCKED: MODEL       89
DOCKED: USER    Run = 89
DOCKED: USER    DPF = D:/Protein_go_brrr/autodock/final/AncMH_nat/heme_O2/dock.dpf
DOCKED: USER  
DOCKED: USER    Estimated Free Energy of Binding    =  -13.66 kcal/mol  [=(1)+(2)+(3)-(4)]
DOCKED: USER    Estimated Inhibition Constant, Ki   =   97.20 pM (picomolar)  [Temperature = 298.15 K]
DOCKED: USER    
DOCKED: USER    (1) Final Intermolecular Energy     =  -16.64 kcal/mol
DOCKED: USER        vdW + Hbond + desolv Energy     =  -14.02 kcal/mol
DOCKED: USER        Electrostatic Energy            =   -2.62 kcal/mol
DOCKED: USER    (2) Final Total Internal Energy     =   -0.73 kcal/mol
DOCKED: USER    (3) Torsional Free Energy           =   +2.98 kcal/mol
DOCKED: USER    (4) Unbound System's Energy  [=(2)] =   -0.73 kcal/mol
DOCKED: USER    
DOCKED: USER    
DOCKED: USER    NEWDPF move heme_O2_opt.pdbqt
DOCKED: USER    NEWDPF about 8.287000 34.468000 -0.670000
DOCKED: USER    NEWDPF tran0 -9.920549 0.699827 4.375104
DOCKED: USER    NEWDPF quaternion0 -0.907501 -0.000893 -0.372861 0.193430
DOCKED: USER    NEWDPF axisangle0 -0.924970 -0.000910 -0.380038 157.693958
DOCKED: USER    NEWDPF quat0 -0.924970 -0.000910 -0.380038 157.693958
DOCKED: USER    NEWDPF dihe0 -145.87 141.30 -4.41 -95.74 -153.74 4.82 13.48 61.26 -49.60 168.08 
DOCKED: USER  keepresnum = 1 
DOCKED: USER  
DOCKED: REMARK  10 active torsions:
DOCKED: REMARK  status: ('A' for Active; 'I' for Inactive)
DOCKED: REMARK    1  A    between atoms: C_6  and  C_10 
DOCKED: REMARK    2  A    between atoms: C_10  and  C_11 
DOCKED: REMARK    3  A    between atoms: C_11  and  C_12 
DOCKED: REMARK    4  A    between atoms: C_12  and  O_14 
DOCKED: REMARK    5  A    between atoms: C_17  and  C_20 
DOCKED: REMARK    6  A    between atoms: C_24  and  C_27 
DOCKED: REMARK    7  A    between atoms: C_31  and  C_34 
DOCKED: REMARK    8  A    between atoms: C_34  and  C_35 
DOCKED: REMARK    9  A    between atoms: C_35  and  C_36 
DOCKED: REMARK   10  A    between atoms: C_36  and  O_38 
DOCKED: USER                              x       y       z     vdW  Elec       q    Type
DOCKED: USER                           _______ _______ _______ _____ _____    ______ ____
DOCKED: ROOT
DOCKED: ATOM      1  C   UNL d   1     -11.898   0.150   3.840 -0.27 +0.03    +0.064 A 
DOCKED: ATOM      2  C   UNL d   1      -8.151   1.546   1.276 -0.37 +0.01    +0.064 A 
DOCKED: ATOM      3  C   UNL d   1      -5.499   2.043   5.253 -0.29 +0.00    +0.064 C 
DOCKED: ATOM      4  C   UNL d   1      -9.200   0.150   7.859 -0.23 +0.01    +0.064 A 
DOCKED: ATOM      5  C   UNL d   1     -11.095   0.488   2.818 -0.29 +0.03    +0.066 A 
DOCKED: ATOM      6  C   UNL d   1     -11.495   0.501   1.479 -0.29 -0.01    -0.021 A 
DOCKED: ATOM      7  C   UNL d   1     -10.399   0.863   0.732 -0.32 -0.01    -0.025 A 
DOCKED: ATOM      8  C   UNL d   1      -9.372   1.108   1.639 -0.31 +0.02    +0.066 A 
DOCKED: ATOM      9  C   UNL d   1     -10.365   0.930  -0.780 -0.35 +0.02    +0.051 C 
DOCKED: ATOM     10  C   UNL d   1      -7.042   1.842   2.184 -0.34 +0.01    +0.066 A 
DOCKED: ATOM     11  C   UNL d   1      -5.851   2.449   1.771 -0.40 -0.00    -0.021 A 
DOCKED: ATOM     12  C   UNL d   1      -5.080   2.617   2.906 -0.38 +0.00    +0.000 A 
DOCKED: ATOM     13  C   UNL d   1      -5.857   2.080   3.970 -0.33 +0.00    +0.070 A 
DOCKED: ATOM     14  C   UNL d   1      -5.475   2.876   0.357 -0.48 -0.00    +0.052 C 
DOCKED: ATOM     15  C   UNL d   1      -6.241   1.476   6.354 -0.37 +0.00    +0.066 A 
DOCKED: ATOM     16  C   UNL d   1      -5.742   1.320   7.647 -0.45 -0.00    -0.021 A 
DOCKED: ATOM     17  C   UNL d   1      -6.779   0.781   8.407 -0.44 +0.00    +0.000 A 
DOCKED: ATOM     18  C   UNL d   1      -7.849   0.649   7.510 -0.39 +0.01    +0.070 A 
DOCKED: ATOM     19  C   UNL d   1      -4.318   1.644   8.023 -0.43 -0.00    +0.052 C 
DOCKED: ATOM     20  C   UNL d   1     -10.234  -0.029   7.015 -0.32 +0.01    +0.066 A 
DOCKED: ATOM     21  C   UNL d   1     -11.490  -0.486   7.406 -0.29 -0.00    -0.025 A 
DOCKED: ATOM     22  C   UNL d   1     -12.280  -0.467   6.278 -0.37 -0.00    -0.021 A 
DOCKED: ATOM     23  C   UNL d   1     -11.468  -0.014   5.233 -0.36 +0.02    +0.066 A 
DOCKED: ATOM     24  C   UNL d   1     -11.913  -0.922   8.784 -0.50 +0.00    +0.051 C 
DOCKED: ATOM     25  N   UNL d   1      -9.783   0.813   2.919 -0.18 -0.08    -0.248 N 
DOCKED: ATOM     26  N   UNL d   1      -7.047   1.606   3.521 -0.15 -0.03    -0.248 N 
DOCKED: ATOM     27  N   UNL d   1      -7.481   1.005   6.253 -0.22 -0.04    -0.248 N 
DOCKED: ATOM     28  N   UNL d   1     -10.213   0.208   5.677 -0.27 -0.06    -0.248 N 
DOCKED: ATOM     29 FE   UNL d   1      -8.640   0.902   4.609 -0.08 +0.00    +0.000 Fe
DOCKED: ATOM     30  O   UNL d   1      -8.235  -0.244   3.636 -0.57 +0.00    +0.000 OA
DOCKED: ATOM     31  O   UNL d   1      -8.233  -0.502   5.190 -0.85 +0.00    +0.000 OA
DOCKED: ENDROOT
DOCKED: BRANCH   6  32
DOCKED: ATOM     32  C   UNL d   1     -12.817   0.058   0.906 -0.26 +0.06    +0.052 C 
DOCKED: BRANCH  32  33
DOCKED: ATOM     33  C   UNL d   1     -13.991   0.342   1.837 -0.04 +0.19    +0.115 C 
DOCKED: BRANCH  33  34
DOCKED: ATOM     34  C   UNL d   1     -15.260  -0.339   1.388 -0.09 +0.23    +0.139 C 
DOCKED: ATOM     35  O   UNL d   1     -15.266  -1.547   1.211 -0.02 -0.80    -0.650 OA
DOCKED: BRANCH  34  36
DOCKED: ATOM     36  O   UNL d   1     -16.387   0.362   1.148 -0.38 -1.79    -0.776 OA
DOCKED: ATOM     37  H   UNL d   1     -17.262   0.002   1.336 +0.03 +0.25    +0.167 HD
DOCKED: ENDBRANCH  34  36
DOCKED: ENDBRANCH  33  34
DOCKED: ENDBRANCH  32  33
DOCKED: ENDBRANCH   6  32
DOCKED: BRANCH  22  38
DOCKED: ATOM     38  C   UNL d   1     -13.715  -0.920   6.203 -0.03 +0.01    +0.052 C 
DOCKED: BRANCH  38  39
DOCKED: ATOM     39  C   UNL d   1     -13.839  -2.402   5.855 -0.30 +0.03    +0.115 C 
DOCKED: BRANCH  39  40
DOCKED: ATOM     40  C   UNL d   1     -14.604  -2.631   4.576 -0.20 +0.07    +0.139 C 
DOCKED: ATOM     41  O   UNL d   1     -14.341  -3.596   3.876 +0.01 -0.43    -0.650 OA
DOCKED: BRANCH  40  42
DOCKED: ATOM     42  O   UNL d   1     -15.614  -1.816   4.213 +0.10 -0.50    -0.776 OA
DOCKED: ATOM     43  H   UNL d   1     -15.773  -1.590   3.289 +0.05 +0.14    +0.167 HD
DOCKED: ENDBRANCH  40  42
DOCKED: ENDBRANCH  39  40
DOCKED: ENDBRANCH  38  39
DOCKED: ENDBRANCH  22  38
DOCKED: BRANCH  12  44
DOCKED: ATOM     44  C   UNL d   1      -3.708   3.257   2.860 -0.46 -0.00    +0.004 C 
DOCKED: ATOM     45  C   UNL d   1      -2.939   3.621   3.885 -0.53 -0.00    +0.012 C 
DOCKED: ENDBRANCH  12  44
DOCKED: BRANCH  17  46
DOCKED: ATOM     46  C   UNL d   1      -6.824   0.342   9.847 -0.35 +0.00    +0.004 C 
DOCKED: ATOM     47  C   UNL d   1      -6.779  -0.904  10.334 -0.70 +0.00    +0.012 C 
DOCKED: ENDBRANCH  17  46
DOCKED: TORSDOF 10
DOCKED: TER
DOCKED: ENDMDL
________________________________________________________________________________


	BEGINNING GENETIC ALGORITHM DOCKING 90 of 100
Run: 90 Seed: 1435119146 472955502 [ Run 90 of 100 GA/GALS ]
Beginning LAMARCKIAN GENETIC ALGORITHM (LGA), with a maximum of 25000000 energy evaluations.

Final-Value: -12.629


	FINAL GENETIC ALGORITHM DOCKED STATE
	_______________________________________________


Detailed state:  trans -13.969 -0.347 0.910 quatxyzw -0.194625 -0.263919 -0.001462 -0.944704 center 8.287 34.468 -0.670 ntor 10 -26.7450 -139.1215 57.0682 128.8735 49.2545 -33.1140 -157.8975 138.4777 167.8946 176.2069
State:	-13.969  -0.347   0.910  -0.594 -0.805 -0.004 -38.286    -26.75 -139.12   57.07  128.87   49.25  -33.11 -157.90  138.48  167.89  176.21

DOCKED: MODEL       90
DOCKED: USER    Run = 90
DOCKED: USER    DPF = D:/Protein_go_brrr/autodock/final/AncMH_nat/heme_O2/dock.dpf
DOCKED: USER  
DOCKED: USER    Estimated Free Energy of Binding    =   -7.92 kcal/mol  [=(1)+(2)+(3)-(4)]
DOCKED: USER    Estimated Inhibition Constant, Ki   =    1.56 uM (micromolar)  [Temperature = 298.15 K]
DOCKED: USER    
DOCKED: USER    (1) Final Intermolecular Energy     =  -10.90 kcal/mol
DOCKED: USER        vdW + Hbond + desolv Energy     =   -7.11 kcal/mol
DOCKED: USER        Electrostatic Energy            =   -3.79 kcal/mol
DOCKED: USER    (2) Final Total Internal Energy     =   -1.72 kcal/mol
DOCKED: USER    (3) Torsional Free Energy           =   +2.98 kcal/mol
DOCKED: USER    (4) Unbound System's Energy  [=(2)] =   -1.72 kcal/mol
DOCKED: USER    
DOCKED: USER    
DOCKED: USER    NEWDPF move heme_O2_opt.pdbqt
DOCKED: USER    NEWDPF about 8.287000 34.468000 -0.670000
DOCKED: USER    NEWDPF tran0 -13.969190 -0.346844 0.909812
DOCKED: USER    NEWDPF quaternion0 -0.194625 -0.263919 -0.001462 -0.944704
DOCKED: USER    NEWDPF axisangle0 -0.593507 -0.804817 -0.004458 -38.285637
DOCKED: USER    NEWDPF quat0 -0.593507 -0.804817 -0.004458 -38.285637
DOCKED: USER    NEWDPF dihe0 -26.75 -139.12 57.07 128.87 49.25 -33.11 -157.90 138.48 167.89 176.21 
DOCKED: USER  keepresnum = 1 
DOCKED: USER  
DOCKED: REMARK  10 active torsions:
DOCKED: REMARK  status: ('A' for Active; 'I' for Inactive)
DOCKED: REMARK    1  A    between atoms: C_6  and  C_10 
DOCKED: REMARK    2  A    between atoms: C_10  and  C_11 
DOCKED: REMARK    3  A    between atoms: C_11  and  C_12 
DOCKED: REMARK    4  A    between atoms: C_12  and  O_14 
DOCKED: REMARK    5  A    between atoms: C_17  and  C_20 
DOCKED: REMARK    6  A    between atoms: C_24  and  C_27 
DOCKED: REMARK    7  A    between atoms: C_31  and  C_34 
DOCKED: REMARK    8  A    between atoms: C_34  and  C_35 
DOCKED: REMARK    9  A    between atoms: C_35  and  C_36 
DOCKED: REMARK   10  A    between atoms: C_36  and  O_38 
DOCKED: USER                              x       y       z     vdW  Elec       q    Type
DOCKED: USER                           _______ _______ _______ _____ _____    ______ ____
DOCKED: ROOT
DOCKED: ATOM      1  C   UNL d   1     -15.117  -0.272  -0.873 -0.14 +0.09    +0.064 A 
DOCKED: ATOM      2  C   UNL d   1     -16.239  -1.309   3.624 -0.10 +0.05    +0.064 A 
DOCKED: ATOM      3  C   UNL d   1     -11.681  -0.674   5.006 -0.10 +0.02    +0.064 C 
DOCKED: ATOM      4  C   UNL d   1     -10.606   0.860   0.472 -0.29 +0.03    +0.064 A 
DOCKED: ATOM      5  C   UNL d   1     -15.794  -0.604   0.238 -0.07 +0.10    +0.066 A 
DOCKED: ATOM      6  C   UNL d   1     -17.161  -0.899   0.263 -0.09 -0.02    -0.021 A 
DOCKED: ATOM      7  C   UNL d   1     -17.496  -1.157   1.571 -0.08 -0.03    -0.025 A 
DOCKED: ATOM      8  C   UNL d   1     -16.315  -1.060   2.303 -0.13 +0.07    +0.066 A 
DOCKED: ATOM      9  C   UNL d   1     -18.896  -1.450   2.065 -0.03 +0.04    +0.051 C 
DOCKED: ATOM     10  C   UNL d   1     -15.026  -1.246   4.441 +0.14 +0.04    +0.066 A 
DOCKED: ATOM     11  C   UNL d   1     -14.972  -1.672   5.772 -0.14 -0.01    -0.021 A 
DOCKED: ATOM     12  C   UNL d   1     -13.661  -1.514   6.183 -0.32 +0.00    +0.000 A 
DOCKED: ATOM     13  C   UNL d   1     -12.978  -0.976   5.058 -0.26 +0.02    +0.070 A 
DOCKED: ATOM     14  C   UNL d   1     -16.116  -2.233   6.609 -0.19 +0.02    +0.052 C 
DOCKED: ATOM     15  C   UNL d   1     -10.959  -0.096   3.898 +0.09 +0.02    +0.066 A 
DOCKED: ATOM     16  C   UNL d   1      -9.639   0.350   3.961 -0.17 -0.01    -0.021 A 
DOCKED: ATOM     17  C   UNL d   1      -9.311   0.793   2.680 -0.27 +0.00    +0.000 A 
DOCKED: ATOM     18  C   UNL d   1     -10.470   0.579   1.921 -0.28 +0.03    +0.070 A 
DOCKED: ATOM     19  C   UNL d   1      -8.836   0.365   5.237 +0.08 +0.02    +0.052 C 
DOCKED: ATOM     20  C   UNL d   1     -11.715   0.708  -0.276 -0.24 +0.05    +0.066 A 
DOCKED: ATOM     21  C   UNL d   1     -11.778   0.973  -1.642 -0.23 -0.01    -0.025 A 
DOCKED: ATOM     22  C   UNL d   1     -13.048   0.630  -2.047 -0.17 -0.02    -0.021 A 
DOCKED: ATOM     23  C   UNL d   1     -13.722   0.184  -0.906 -0.14 +0.09    +0.066 A 
DOCKED: ATOM     24  C   UNL d   1     -10.682   1.528  -2.514 -0.31 +0.01    +0.051 C 
DOCKED: ATOM     25  N   UNL d   1     -15.280  -0.655   1.492 -0.12 -0.35    -0.248 N 
DOCKED: ATOM     26  N   UNL d   1     -13.817  -0.812   4.003 -0.12 -0.15    -0.248 N 
DOCKED: ATOM     27  N   UNL d   1     -11.483   0.110   2.693 -0.14 -0.13    -0.248 N 
DOCKED: ATOM     28  N   UNL d   1     -12.922   0.276   0.176 -0.14 -0.31    -0.248 N 
DOCKED: ATOM     29 FE   UNL d   1     -13.364  -0.263   2.077 -0.05 +0.00    +0.000 Fe
DOCKED: ATOM     30  O   UNL d   1     -14.403   0.774   2.593 -0.21 +0.00    +0.000 OA
DOCKED: ATOM     31  O   UNL d   1     -12.991   1.265   2.094 -0.53 +0.00    +0.000 OA
DOCKED: ENDROOT
DOCKED: BRANCH   6  32
DOCKED: ATOM     32  C   UNL d   1     -18.145  -0.809  -0.874 -0.04 +0.04    +0.052 C 
DOCKED: BRANCH  32  33
DOCKED: ATOM     33  C   UNL d   1     -19.117   0.357  -0.725 -0.01 +0.09    +0.115 C 
DOCKED: BRANCH  33  34
DOCKED: ATOM     34  C   UNL d   1     -18.607   1.414   0.222 -0.09 +0.19    +0.139 C 
DOCKED: ATOM     35  O   UNL d   1     -19.043   1.465   1.361 -0.32 -1.18    -0.650 OA
DOCKED: BRANCH  34  36
DOCKED: ATOM     36  O   UNL d   1     -17.694   2.328  -0.169 +0.04 -1.47    -0.776 OA
DOCKED: ATOM     37  H   UNL d   1     -17.068   2.152  -0.881 +0.01 +0.34    +0.167 HD
DOCKED: ENDBRANCH  34  36
DOCKED: ENDBRANCH  33  34
DOCKED: ENDBRANCH  32  33
DOCKED: ENDBRANCH   6  32
DOCKED: BRANCH  22  38
DOCKED: ATOM     38  C   UNL d   1     -13.597   0.786  -3.442 -0.10 +0.03    +0.052 C 
DOCKED: BRANCH  38  39
DOCKED: ATOM     39  C   UNL d   1     -14.079   2.207  -3.722 -0.04 +0.05    +0.115 C 
DOCKED: BRANCH  39  40
DOCKED: ATOM     40  C   UNL d   1     -14.852   2.792  -2.567 -0.01 +0.15    +0.139 C 
DOCKED: ATOM     41  O   UNL d   1     -14.376   3.714  -1.924 -0.20 -0.91    -0.650 OA
DOCKED: BRANCH  40  42
DOCKED: ATOM     42  O   UNL d   1     -16.086   2.349  -2.260 -0.09 -1.01    -0.776 OA
DOCKED: ATOM     43  H   UNL d   1     -16.802   2.958  -2.041 +0.01 +0.21    +0.167 HD
DOCKED: ENDBRANCH  40  42
DOCKED: ENDBRANCH  39  40
DOCKED: ENDBRANCH  38  39
DOCKED: ENDBRANCH  22  38
DOCKED: BRANCH  12  44
DOCKED: ATOM     44  C   UNL d   1     -13.207  -1.881   7.580 -0.37 +0.00    +0.004 C 
DOCKED: ATOM     45  C   UNL d   1     -12.543  -1.121   8.452 -0.30 +0.00    +0.012 C 
DOCKED: ENDBRANCH  12  44
DOCKED: BRANCH  17  46
DOCKED: ATOM     46  C   UNL d   1      -8.057   1.432   2.146 -0.39 +0.00    +0.004 C 
DOCKED: ATOM     47  C   UNL d   1      -7.271   1.008   1.148 -0.46 +0.00    +0.012 C 
DOCKED: ENDBRANCH  17  46
DOCKED: TORSDOF 10
DOCKED: TER
DOCKED: ENDMDL
________________________________________________________________________________


	BEGINNING GENETIC ALGORITHM DOCKING 91 of 100
Run: 91 Seed: 1821519716 1651726725 [ Run 91 of 100 GA/GALS ]
Beginning LAMARCKIAN GENETIC ALGORITHM (LGA), with a maximum of 25000000 energy evaluations.

Final-Value: -16.852


	FINAL GENETIC ALGORITHM DOCKED STATE
	_______________________________________________


Detailed state:  trans -9.841 0.721 3.923 quatxyzw 0.892986 -0.008747 0.408651 -0.188424 center 8.287 34.468 -0.670 ntor 10 164.8666 -72.8014 -4.9287 -71.4054 75.0082 -4.1467 -0.9302 73.8982 61.3601 153.7188
State:	 -9.841   0.721   3.923   0.909 -0.009  0.416 -158.278    164.87  -72.80   -4.93  -71.41   75.01   -4.15   -0.93   73.90   61.36  153.72

DOCKED: MODEL       91
DOCKED: USER    Run = 91
DOCKED: USER    DPF = D:/Protein_go_brrr/autodock/final/AncMH_nat/heme_O2/dock.dpf
DOCKED: USER  
DOCKED: USER    Estimated Free Energy of Binding    =  -13.57 kcal/mol  [=(1)+(2)+(3)-(4)]
DOCKED: USER    Estimated Inhibition Constant, Ki   =  112.73 pM (picomolar)  [Temperature = 298.15 K]
DOCKED: USER    
DOCKED: USER    (1) Final Intermolecular Energy     =  -16.55 kcal/mol
DOCKED: USER        vdW + Hbond + desolv Energy     =  -14.03 kcal/mol
DOCKED: USER        Electrostatic Energy            =   -2.53 kcal/mol
DOCKED: USER    (2) Final Total Internal Energy     =   -0.30 kcal/mol
DOCKED: USER    (3) Torsional Free Energy           =   +2.98 kcal/mol
DOCKED: USER    (4) Unbound System's Energy  [=(2)] =   -0.30 kcal/mol
DOCKED: USER    
DOCKED: USER    
DOCKED: USER    NEWDPF move heme_O2_opt.pdbqt
DOCKED: USER    NEWDPF about 8.287000 34.468000 -0.670000
DOCKED: USER    NEWDPF tran0 -9.841241 0.720920 3.922864
DOCKED: USER    NEWDPF quaternion0 0.892986 -0.008747 0.408651 -0.188424
DOCKED: USER    NEWDPF axisangle0 0.909273 -0.008907 0.416104 -158.278377
DOCKED: USER    NEWDPF quat0 0.909273 -0.008907 0.416104 -158.278377
DOCKED: USER    NEWDPF dihe0 164.87 -72.80 -4.93 -71.41 75.01 -4.15 -0.93 73.90 61.36 153.72 
DOCKED: USER  keepresnum = 1 
DOCKED: USER  
DOCKED: REMARK  10 active torsions:
DOCKED: REMARK  status: ('A' for Active; 'I' for Inactive)
DOCKED: REMARK    1  A    between atoms: C_6  and  C_10 
DOCKED: REMARK    2  A    between atoms: C_10  and  C_11 
DOCKED: REMARK    3  A    between atoms: C_11  and  C_12 
DOCKED: REMARK    4  A    between atoms: C_12  and  O_14 
DOCKED: REMARK    5  A    between atoms: C_17  and  C_20 
DOCKED: REMARK    6  A    between atoms: C_24  and  C_27 
DOCKED: REMARK    7  A    between atoms: C_31  and  C_34 
DOCKED: REMARK    8  A    between atoms: C_34  and  C_35 
DOCKED: REMARK    9  A    between atoms: C_35  and  C_36 
DOCKED: REMARK   10  A    between atoms: C_36  and  O_38 
DOCKED: USER                              x       y       z     vdW  Elec       q    Type
DOCKED: USER                           _______ _______ _______ _____ _____    ______ ____
DOCKED: ROOT
DOCKED: ATOM      1  C   UNL d   1     -11.770   0.178   3.226 -0.24 +0.03    +0.064 A 
DOCKED: ATOM      2  C   UNL d   1      -7.832   1.599   0.984 -0.38 +0.01    +0.064 A 
DOCKED: ATOM      3  C   UNL d   1      -5.504   2.053   5.164 -0.29 +0.00    +0.064 C 
DOCKED: ATOM      4  C   UNL d   1      -9.399   0.134   7.447 -0.25 +0.01    +0.064 A 
DOCKED: ATOM      5  C   UNL d   1     -10.888   0.526   2.275 -0.28 +0.03    +0.066 A 
DOCKED: ATOM      6  C   UNL d   1     -11.181   0.553   0.908 -0.29 -0.01    -0.021 A 
DOCKED: ATOM      7  C   UNL d   1     -10.029   0.923   0.255 -0.35 -0.01    -0.025 A 
DOCKED: ATOM      8  C   UNL d   1      -9.077   1.158   1.244 -0.34 +0.02    +0.066 A 
DOCKED: ATOM      9  C   UNL d   1      -9.875   1.007  -1.248 -0.26 +0.01    +0.051 C 
DOCKED: ATOM     10  C   UNL d   1      -6.798   1.886   1.980 -0.36 +0.01    +0.066 A 
DOCKED: ATOM     11  C   UNL d   1      -5.578   2.497   1.669 -0.41 -0.00    -0.021 A 
DOCKED: ATOM     12  C   UNL d   1      -4.900   2.653   2.864 -0.38 +0.00    +0.000 A 
DOCKED: ATOM     13  C   UNL d   1      -5.759   2.104   3.857 -0.33 +0.00    +0.070 A 
DOCKED: ATOM     14  C   UNL d   1      -5.091   2.939   0.294 -0.51 -0.00    +0.052 C 
DOCKED: ATOM     15  C   UNL d   1      -6.331   1.475   6.196 -0.36 +0.00    +0.066 A 
DOCKED: ATOM     16  C   UNL d   1      -5.936   1.305   7.522 -0.44 -0.00    -0.021 A 
DOCKED: ATOM     17  C   UNL d   1      -7.030   0.758   8.193 -0.46 +0.00    +0.000 A 
DOCKED: ATOM     18  C   UNL d   1      -8.025   0.636   7.212 -0.38 +0.01    +0.070 A 
DOCKED: ATOM     19  C   UNL d   1      -4.547   1.624   8.014 -0.46 -0.00    +0.052 C 
DOCKED: ATOM     20  C   UNL d   1     -10.363  -0.037   6.522 -0.37 +0.01    +0.066 A 
DOCKED: ATOM     21  C   UNL d   1     -11.646  -0.497   6.806 -0.32 -0.00    -0.025 A 
DOCKED: ATOM     22  C   UNL d   1     -12.343  -0.465   5.620 -0.35 -0.01    -0.021 A 
DOCKED: ATOM     23  C   UNL d   1     -11.452  -0.002   4.648 -0.28 +0.02    +0.066 A 
DOCKED: ATOM     24  C   UNL d   1     -12.177  -0.948   8.142 -0.49 +0.00    +0.051 C 
DOCKED: ATOM     25  N   UNL d   1      -9.588   0.850   2.483 -0.20 -0.08    -0.248 N 
DOCKED: ATOM     26  N   UNL d   1      -6.909   1.636   3.309 -0.20 -0.03    -0.248 N 
DOCKED: ATOM     27  N   UNL d   1      -7.558   1.005   5.992 -0.14 -0.05    -0.248 N 
DOCKED: ATOM     28  N   UNL d   1     -10.236   0.215   5.192 -0.24 -0.07    -0.248 N 
DOCKED: ATOM     29 FE   UNL d   1      -8.584   0.920   4.260 -0.08 +0.00    +0.000 Fe
DOCKED: ATOM     30  O   UNL d   1      -8.102  -0.216   3.310 -0.50 +0.00    +0.000 OA
DOCKED: ATOM     31  O   UNL d   1      -8.224  -0.490   4.856 -0.84 +0.00    +0.000 OA
DOCKED: ENDROOT
DOCKED: BRANCH   6  32
DOCKED: ATOM     32  C   UNL d   1     -12.452   0.117   0.228 -0.27 +0.05    +0.052 C 
DOCKED: BRANCH  32  33
DOCKED: ATOM     33  C   UNL d   1     -12.797   0.971  -0.988 -0.17 +0.13    +0.115 C 
DOCKED: BRANCH  33  34
DOCKED: ATOM     34  C   UNL d   1     -14.029   0.479  -1.706 -0.13 +0.16    +0.139 C 
DOCKED: ATOM     35  O   UNL d   1     -13.960  -0.514  -2.413 +0.00 -0.56    -0.650 OA
DOCKED: BRANCH  34  36
DOCKED: ATOM     36  O   UNL d   1     -15.207   1.130  -1.608 +0.11 -1.29    -0.776 OA
DOCKED: ATOM     37  H   UNL d   1     -15.937   0.959  -2.214 +0.02 +0.19    +0.167 HD
DOCKED: ENDBRANCH  34  36
DOCKED: ENDBRANCH  33  34
DOCKED: ENDBRANCH  32  33
DOCKED: ENDBRANCH   6  32
DOCKED: BRANCH  22  38
DOCKED: ATOM     38  C   UNL d   1     -13.768  -0.918   5.426 +0.02 +0.02    +0.052 C 
DOCKED: BRANCH  38  39
DOCKED: ATOM     39  C   UNL d   1     -13.858  -2.270   4.723 -0.26 +0.05    +0.115 C 
DOCKED: BRANCH  39  40
DOCKED: ATOM     40  C   UNL d   1     -14.340  -2.149   3.299 -0.21 +0.11    +0.139 C 
DOCKED: ATOM     41  O   UNL d   1     -13.840  -2.844   2.429 -0.45 -0.73    -0.650 OA
DOCKED: BRANCH  40  42
DOCKED: ATOM     42  O   UNL d   1     -15.351  -1.321   2.975 +0.07 -0.71    -0.776 OA
DOCKED: ATOM     43  H   UNL d   1     -16.259  -1.504   3.245 +0.05 +0.14    +0.167 HD
DOCKED: ENDBRANCH  40  42
DOCKED: ENDBRANCH  39  40
DOCKED: ENDBRANCH  38  39
DOCKED: ENDBRANCH  22  38
DOCKED: BRANCH  12  44
DOCKED: ATOM     44  C   UNL d   1      -3.529   3.292   2.933 -0.47 -0.00    +0.004 C 
DOCKED: ATOM     45  C   UNL d   1      -2.848   3.654   4.020 -0.55 -0.00    +0.012 C 
DOCKED: ENDBRANCH  12  44
DOCKED: BRANCH  17  46
DOCKED: ATOM     46  C   UNL d   1      -7.189   0.304   9.619 -0.34 +0.00    +0.004 C 
DOCKED: ATOM     47  C   UNL d   1      -6.761  -0.836  10.178 -0.70 +0.00    +0.012 C 
DOCKED: ENDBRANCH  17  46
DOCKED: TORSDOF 10
DOCKED: TER
DOCKED: ENDMDL
________________________________________________________________________________


	BEGINNING GENETIC ALGORITHM DOCKING 92 of 100
Run: 92 Seed: 2007729883 1351193646 [ Run 92 of 100 GA/GALS ]
Beginning LAMARCKIAN GENETIC ALGORITHM (LGA), with a maximum of 25000000 energy evaluations.

Final-Value: -17.180


	FINAL GENETIC ALGORITHM DOCKED STATE
	_______________________________________________


Detailed state:  trans -9.907 0.628 4.426 quatxyzw -0.902877 -0.002366 -0.379846 0.201309 center 8.287 34.468 -0.670 ntor 10 -150.8688 -118.8292 -16.1092 -71.7532 -171.8333 41.2831 12.7546 -62.3233 -43.5370 180.0000
State:	 -9.907   0.628   4.426  -0.922 -0.002 -0.388 156.773   -150.87 -118.83  -16.11  -71.75 -171.83   41.28   12.75  -62.32  -43.54  180.00

DOCKED: MODEL       92
DOCKED: USER    Run = 92
DOCKED: USER    DPF = D:/Protein_go_brrr/autodock/final/AncMH_nat/heme_O2/dock.dpf
DOCKED: USER  
DOCKED: USER    Estimated Free Energy of Binding    =  -13.71 kcal/mol  [=(1)+(2)+(3)-(4)]
DOCKED: USER    Estimated Inhibition Constant, Ki   =   88.81 pM (picomolar)  [Temperature = 298.15 K]
DOCKED: USER    
DOCKED: USER    (1) Final Intermolecular Energy     =  -16.70 kcal/mol
DOCKED: USER        vdW + Hbond + desolv Energy     =  -14.57 kcal/mol
DOCKED: USER        Electrostatic Energy            =   -2.13 kcal/mol
DOCKED: USER    (2) Final Total Internal Energy     =   -0.48 kcal/mol
DOCKED: USER    (3) Torsional Free Energy           =   +2.98 kcal/mol
DOCKED: USER    (4) Unbound System's Energy  [=(2)] =   -0.48 kcal/mol
DOCKED: USER    
DOCKED: USER    
DOCKED: USER    NEWDPF move heme_O2_opt.pdbqt
DOCKED: USER    NEWDPF about 8.287000 34.468000 -0.670000
DOCKED: USER    NEWDPF tran0 -9.906909 0.627825 4.426240
DOCKED: USER    NEWDPF quaternion0 -0.902877 -0.002366 -0.379846 0.201309
DOCKED: USER    NEWDPF axisangle0 -0.921747 -0.002415 -0.387785 156.772963
DOCKED: USER    NEWDPF quat0 -0.921747 -0.002415 -0.387785 156.772963
DOCKED: USER    NEWDPF dihe0 -150.87 -118.83 -16.11 -71.75 -171.83 41.28 12.75 -62.32 -43.54 180.00 
DOCKED: USER  keepresnum = 1 
DOCKED: USER  
DOCKED: REMARK  10 active torsions:
DOCKED: REMARK  status: ('A' for Active; 'I' for Inactive)
DOCKED: REMARK    1  A    between atoms: C_6  and  C_10 
DOCKED: REMARK    2  A    between atoms: C_10  and  C_11 
DOCKED: REMARK    3  A    between atoms: C_11  and  C_12 
DOCKED: REMARK    4  A    between atoms: C_12  and  O_14 
DOCKED: REMARK    5  A    between atoms: C_17  and  C_20 
DOCKED: REMARK    6  A    between atoms: C_24  and  C_27 
DOCKED: REMARK    7  A    between atoms: C_31  and  C_34 
DOCKED: REMARK    8  A    between atoms: C_34  and  C_35 
DOCKED: REMARK    9  A    between atoms: C_35  and  C_36 
DOCKED: REMARK   10  A    between atoms: C_36  and  O_38 
DOCKED: USER                              x       y       z     vdW  Elec       q    Type
DOCKED: USER                           _______ _______ _______ _____ _____    ______ ____
DOCKED: ROOT
DOCKED: ATOM      1  C   UNL d   1     -11.876   0.070   3.870 -0.25 +0.03    +0.064 A 
DOCKED: ATOM      2  C   UNL d   1      -8.089   1.420   1.341 -0.37 +0.01    +0.064 A 
DOCKED: ATOM      3  C   UNL d   1      -5.499   1.984   5.350 -0.27 +0.00    +0.064 C 
DOCKED: ATOM      4  C   UNL d   1      -9.241   0.138   7.930 -0.21 +0.01    +0.064 A 
DOCKED: ATOM      5  C   UNL d   1     -11.057   0.389   2.855 -0.28 +0.03    +0.066 A 
DOCKED: ATOM      6  C   UNL d   1     -11.436   0.380   1.509 -0.29 -0.01    -0.021 A 
DOCKED: ATOM      7  C   UNL d   1     -10.328   0.728   0.773 -0.33 -0.01    -0.025 A 
DOCKED: ATOM      8  C   UNL d   1      -9.316   0.989   1.693 -0.32 +0.02    +0.066 A 
DOCKED: ATOM      9  C   UNL d   1     -10.271   0.770  -0.738 -0.35 +0.02    +0.051 C 
DOCKED: ATOM     10  C   UNL d   1      -6.993   1.731   2.261 -0.34 +0.01    +0.066 A 
DOCKED: ATOM     11  C   UNL d   1      -5.796   2.331   1.856 -0.40 -0.00    -0.021 A 
DOCKED: ATOM     12  C   UNL d   1      -5.043   2.518   3.000 -0.38 +0.00    +0.000 A 
DOCKED: ATOM     13  C   UNL d   1      -5.837   1.999   4.061 -0.31 +0.00    +0.070 A 
DOCKED: ATOM     14  C   UNL d   1      -5.398   2.733   0.441 -0.50 -0.00    +0.052 C 
DOCKED: ATOM     15  C   UNL d   1      -6.258   1.437   6.448 -0.37 +0.00    +0.066 A 
DOCKED: ATOM     16  C   UNL d   1      -5.779   1.303   7.751 -0.45 -0.00    -0.021 A 
DOCKED: ATOM     17  C   UNL d   1      -6.829   0.777   8.505 -0.42 +0.00    +0.000 A 
DOCKED: ATOM     18  C   UNL d   1      -7.884   0.630   7.593 -0.39 +0.01    +0.070 A 
DOCKED: ATOM     19  C   UNL d   1      -4.361   1.632   8.144 -0.45 -0.00    +0.052 C 
DOCKED: ATOM     20  C   UNL d   1     -10.262  -0.056   7.073 -0.31 +0.01    +0.066 A 
DOCKED: ATOM     21  C   UNL d   1     -11.524  -0.505   7.452 -0.29 -0.00    -0.025 A 
DOCKED: ATOM     22  C   UNL d   1     -12.296  -0.505   6.312 -0.37 -0.00    -0.021 A 
DOCKED: ATOM     23  C   UNL d   1     -11.468  -0.071   5.272 -0.36 +0.02    +0.066 A 
DOCKED: ATOM     24  C   UNL d   1     -11.969  -0.918   8.831 -0.49 +0.00    +0.051 C 
DOCKED: ATOM     25  N   UNL d   1      -9.746   0.716   2.970 -0.18 -0.08    -0.248 N 
DOCKED: ATOM     26  N   UNL d   1      -7.020   1.518   3.601 -0.16 -0.03    -0.248 N 
DOCKED: ATOM     27  N   UNL d   1      -7.496   0.964   6.336 -0.22 -0.03    -0.248 N 
DOCKED: ATOM     28  N   UNL d   1     -10.220   0.158   5.731 -0.27 -0.06    -0.248 N 
DOCKED: ATOM     29 FE   UNL d   1      -8.630   0.833   4.676 -0.08 +0.00    +0.000 Fe
DOCKED: ATOM     30  O   UNL d   1      -8.211  -0.329   3.730 -0.57 +0.00    +0.000 OA
DOCKED: ATOM     31  O   UNL d   1      -8.233  -0.560   5.288 -0.85 +0.00    +0.000 OA
DOCKED: ENDROOT
DOCKED: BRANCH   6  32
DOCKED: ATOM     32  C   UNL d   1     -12.749  -0.073   0.924 -0.28 +0.06    +0.052 C 
DOCKED: BRANCH  32  33
DOCKED: ATOM     33  C   UNL d   1     -13.950   0.358   1.760 -0.03 +0.19    +0.115 C 
DOCKED: BRANCH  33  34
DOCKED: ATOM     34  C   UNL d   1     -15.229  -0.307   1.314 -0.07 +0.23    +0.139 C 
DOCKED: ATOM     35  O   UNL d   1     -15.207  -1.468   0.939 -0.03 -0.83    -0.650 OA
DOCKED: BRANCH  34  36
DOCKED: ATOM     36  O   UNL d   1     -16.400   0.364   1.294 -0.38 -1.72    -0.776 OA
DOCKED: ATOM     37  H   UNL d   1     -17.246  -0.080   1.424 +0.03 +0.24    +0.167 HD
DOCKED: ENDBRANCH  34  36
DOCKED: ENDBRANCH  33  34
DOCKED: ENDBRANCH  32  33
DOCKED: ENDBRANCH   6  32
DOCKED: BRANCH  22  38
DOCKED: ATOM     38  C   UNL d   1     -13.730  -0.959   6.222 -0.04 +0.01    +0.052 C 
DOCKED: BRANCH  38  39
DOCKED: ATOM     39  C   UNL d   1     -13.857  -2.481   6.189 -0.31 +0.03    +0.115 C 
DOCKED: BRANCH  39  40
DOCKED: ATOM     40  C   UNL d   1     -14.596  -3.024   7.387 -0.33 +0.03    +0.139 C 
DOCKED: ATOM     41  O   UNL d   1     -14.680  -4.230   7.551 -0.06 -0.16    -0.650 OA
DOCKED: BRANCH  40  42
DOCKED: ATOM     42  O   UNL d   1     -15.123  -2.199   8.312 +0.09 -0.06    -0.776 OA
DOCKED: ATOM     43  H   UNL d   1     -14.809  -2.197   9.224 -0.37 -0.05    +0.167 HD
DOCKED: ENDBRANCH  40  42
DOCKED: ENDBRANCH  39  40
DOCKED: ENDBRANCH  38  39
DOCKED: ENDBRANCH  22  38
DOCKED: BRANCH  12  44
DOCKED: ATOM     44  C   UNL d   1      -3.670   3.156   2.964 -0.46 -0.00    +0.004 C 
DOCKED: ATOM     45  C   UNL d   1      -3.007   3.730   3.967 -0.53 -0.00    +0.012 C 
DOCKED: ENDBRANCH  12  44
DOCKED: BRANCH  17  46
DOCKED: ATOM     46  C   UNL d   1      -6.897   0.363   9.951 -0.25 +0.00    +0.004 C 
DOCKED: ATOM     47  C   UNL d   1      -6.440  -0.764  10.512 -0.70 +0.00    +0.012 C 
DOCKED: ENDBRANCH  17  46
DOCKED: TORSDOF 10
DOCKED: TER
DOCKED: ENDMDL
________________________________________________________________________________


	BEGINNING GENETIC ALGORITHM DOCKING 93 of 100
Run: 93 Seed: 1788268209 2007343204 [ Run 93 of 100 GA/GALS ]
Beginning LAMARCKIAN GENETIC ALGORITHM (LGA), with a maximum of 25000000 energy evaluations.

Final-Value: -11.371


	FINAL GENETIC ALGORITHM DOCKED STATE
	_______________________________________________


Detailed state:  trans -15.209 -1.998 1.903 quatxyzw -0.321228 0.515814 0.515784 -0.603917 center 8.287 34.468 -0.670 ntor 10 90.5852 -32.1827 -8.0856 123.8399 -109.6530 -80.6440 48.0081 -144.2388 -148.5775 -40.2595
State:	-15.209  -1.998   1.903  -0.403  0.647  0.647 -105.698     90.59  -32.18   -8.09  123.84 -109.65  -80.64   48.01 -144.24 -148.58  -40.26

DOCKED: MODEL       93
DOCKED: USER    Run = 93
DOCKED: USER    DPF = D:/Protein_go_brrr/autodock/final/AncMH_nat/heme_O2/dock.dpf
DOCKED: USER  
DOCKED: USER    Estimated Free Energy of Binding    =   -7.66 kcal/mol  [=(1)+(2)+(3)-(4)]
DOCKED: USER    Estimated Inhibition Constant, Ki   =    2.43 uM (micromolar)  [Temperature = 298.15 K]
DOCKED: USER    
DOCKED: USER    (1) Final Intermolecular Energy     =  -10.64 kcal/mol
DOCKED: USER        vdW + Hbond + desolv Energy     =   -8.92 kcal/mol
DOCKED: USER        Electrostatic Energy            =   -1.73 kcal/mol
DOCKED: USER    (2) Final Total Internal Energy     =   -0.73 kcal/mol
DOCKED: USER    (3) Torsional Free Energy           =   +2.98 kcal/mol
DOCKED: USER    (4) Unbound System's Energy  [=(2)] =   -0.73 kcal/mol
DOCKED: USER    
DOCKED: USER    
DOCKED: USER    NEWDPF move heme_O2_opt.pdbqt
DOCKED: USER    NEWDPF about 8.287000 34.468000 -0.670000
DOCKED: USER    NEWDPF tran0 -15.209407 -1.997704 1.902628
DOCKED: USER    NEWDPF quaternion0 -0.321228 0.515814 0.515784 -0.603917
DOCKED: USER    NEWDPF axisangle0 -0.403023 0.647156 0.647118 -105.698106
DOCKED: USER    NEWDPF quat0 -0.403023 0.647156 0.647118 -105.698106
DOCKED: USER    NEWDPF dihe0 90.59 -32.18 -8.09 123.84 -109.65 -80.64 48.01 -144.24 -148.58 -40.26 
DOCKED: USER  keepresnum = 1 
DOCKED: USER  
DOCKED: REMARK  10 active torsions:
DOCKED: REMARK  status: ('A' for Active; 'I' for Inactive)
DOCKED: REMARK    1  A    between atoms: C_6  and  C_10 
DOCKED: REMARK    2  A    between atoms: C_10  and  C_11 
DOCKED: REMARK    3  A    between atoms: C_11  and  C_12 
DOCKED: REMARK    4  A    between atoms: C_12  and  O_14 
DOCKED: REMARK    5  A    between atoms: C_17  and  C_20 
DOCKED: REMARK    6  A    between atoms: C_24  and  C_27 
DOCKED: REMARK    7  A    between atoms: C_31  and  C_34 
DOCKED: REMARK    8  A    between atoms: C_34  and  C_35 
DOCKED: REMARK    9  A    between atoms: C_35  and  C_36 
DOCKED: REMARK   10  A    between atoms: C_36  and  O_38 
DOCKED: USER                              x       y       z     vdW  Elec       q    Type
DOCKED: USER                           _______ _______ _______ _____ _____    ______ ____
DOCKED: ROOT
DOCKED: ATOM      1  C   UNL d   1     -15.897  -3.122   3.565 -0.11 +0.05    +0.064 A 
DOCKED: ATOM      2  C   UNL d   1     -12.289  -0.081   3.020 -0.24 +0.04    +0.064 A 
DOCKED: ATOM      3  C   UNL d   1     -13.402   0.553  -1.612 -0.18 +0.07    +0.064 C 
DOCKED: ATOM      4  C   UNL d   1     -17.405  -2.204  -0.943 -0.08 +0.06    +0.064 A 
DOCKED: ATOM      5  C   UNL d   1     -14.826  -2.345   3.795 -0.17 +0.04    +0.066 A 
DOCKED: ATOM      6  C   UNL d   1     -14.171  -2.261   5.027 -0.25 -0.01    -0.021 A 
DOCKED: ATOM      7  C   UNL d   1     -13.152  -1.348   4.882 -0.27 -0.01    -0.025 A 
DOCKED: ATOM      8  C   UNL d   1     -13.184  -0.936   3.552 -0.23 +0.04    +0.066 A 
DOCKED: ATOM      9  C   UNL d   1     -12.232  -0.894   5.994 -0.39 +0.01    +0.051 C 
DOCKED: ATOM     10  C   UNL d   1     -12.257   0.369   1.628 -0.25 +0.06    +0.066 A 
DOCKED: ATOM     11  C   UNL d   1     -11.212   1.127   1.088 -0.29 -0.01    -0.021 A 
DOCKED: ATOM     12  C   UNL d   1     -11.506   1.305  -0.251 -0.26 +0.00    +0.000 A 
DOCKED: ATOM     13  C   UNL d   1     -12.747   0.642  -0.454 -0.14 +0.08    +0.070 A 
DOCKED: ATOM     14  C   UNL d   1      -9.972   1.637   1.813 -0.29 +0.02    +0.052 C 
DOCKED: ATOM     15  C   UNL d   1     -14.677  -0.079  -1.851 -0.13 +0.07    +0.066 A 
DOCKED: ATOM     16  C   UNL d   1     -15.388   0.004  -3.048 -0.08 -0.02    -0.021 A 
DOCKED: ATOM     17  C   UNL d   1     -16.534  -0.774  -2.881 -0.07 +0.00    +0.000 A 
DOCKED: ATOM     18  C   UNL d   1     -16.433  -1.281  -1.578 -0.11 +0.07    +0.070 A 
DOCKED: ATOM     19  C   UNL d   1     -14.944   0.854  -4.212 -0.04 +0.02    +0.052 C 
DOCKED: ATOM     20  C   UNL d   1     -17.361  -2.675   0.318 -0.04 +0.07    +0.066 A 
DOCKED: ATOM     21  C   UNL d   1     -18.296  -3.556   0.855 -0.06 -0.02    -0.025 A 
DOCKED: ATOM     22  C   UNL d   1     -17.867  -3.850   2.130 -0.07 -0.02    -0.021 A 
DOCKED: ATOM     23  C   UNL d   1     -16.692  -3.120   2.331 -0.03 +0.06    +0.066 A 
DOCKED: ATOM     24  C   UNL d   1     -19.537  -4.088   0.186 -0.04 +0.03    +0.051 C 
DOCKED: ATOM     25  N   UNL d   1     -14.255  -1.501   2.901 -0.14 -0.21    -0.248 N 
DOCKED: ATOM     26  N   UNL d   1     -13.200   0.079   0.695 -0.14 -0.33    -0.248 N 
DOCKED: ATOM     27  N   UNL d   1     -15.339  -0.789  -0.942 -0.12 -0.31    -0.248 N 
DOCKED: ATOM     28  N   UNL d   1     -16.412  -2.372   1.244 -0.07 -0.28    -0.248 N 
DOCKED: ATOM     29 FE   UNL d   1     -14.819  -1.155   0.969 -0.04 +0.00    +0.000 Fe
DOCKED: ATOM     30  O   UNL d   1     -15.034   0.063   1.914 -0.31 +0.00    +0.000 OA
DOCKED: ATOM     31  O   UNL d   1     -16.115  -0.277   0.819 -0.66 +0.00    +0.000 OA
DOCKED: ENDROOT
DOCKED: BRANCH   6  32
DOCKED: ATOM     32  C   UNL d   1     -14.567  -2.906   6.329 -0.31 +0.02    +0.052 C 
DOCKED: BRANCH  32  33
DOCKED: ATOM     33  C   UNL d   1     -15.895  -2.385   6.869 -0.19 +0.04    +0.115 C 
DOCKED: BRANCH  33  34
DOCKED: ATOM     34  C   UNL d   1     -15.831  -2.065   8.342 -0.24 +0.02    +0.139 C 
DOCKED: ATOM     35  O   UNL d   1     -15.679  -0.909   8.702 -0.38 -0.17    -0.650 OA
DOCKED: BRANCH  34  36
DOCKED: ATOM     36  O   UNL d   1     -15.911  -3.035   9.276 -0.04 -0.06    -0.776 OA
DOCKED: ATOM     37  H   UNL d   1     -15.127  -3.477   9.622 -0.47 -0.02    +0.167 HD
DOCKED: ENDBRANCH  34  36
DOCKED: ENDBRANCH  33  34
DOCKED: ENDBRANCH  32  33
DOCKED: ENDBRANCH   6  32
DOCKED: BRANCH  22  38
DOCKED: ATOM     38  C   UNL d   1     -18.587  -4.733   3.116 -0.08 +0.03    +0.052 C 
DOCKED: BRANCH  38  39
DOCKED: ATOM     39  C   UNL d   1     -18.731  -6.168   2.616 -0.10 +0.06    +0.115 C 
DOCKED: BRANCH  39  40
DOCKED: ATOM     40  C   UNL d   1     -17.546  -6.614   1.796 -0.10 +0.12    +0.139 C 
DOCKED: ATOM     41  O   UNL d   1     -16.445  -6.695   2.317 -0.55 -0.63    -0.650 OA
DOCKED: BRANCH  40  42
DOCKED: ATOM     42  O   UNL d   1     -17.689  -6.977   0.507 -0.53 -0.82    -0.776 OA
DOCKED: ATOM     43  H   UNL d   1     -18.510  -7.363   0.179 +0.02 +0.11    +0.167 HD
DOCKED: ENDBRANCH  40  42
DOCKED: ENDBRANCH  39  40
DOCKED: ENDBRANCH  38  39
DOCKED: ENDBRANCH  22  38
DOCKED: BRANCH  12  44
DOCKED: ATOM     44  C   UNL d   1     -10.592   2.078  -1.179 -0.31 +0.00    +0.004 C 
DOCKED: ATOM     45  C   UNL d   1     -10.632   2.132  -2.510 -0.29 +0.00    +0.012 C 
DOCKED: ENDBRANCH  12  44
DOCKED: BRANCH  17  46
DOCKED: ATOM     46  C   UNL d   1     -17.703  -1.021  -3.796 -0.02 +0.00    +0.004 C 
DOCKED: ATOM     47  C   UNL d   1     -18.100  -2.179  -4.339 -0.02 +0.01    +0.012 C 
DOCKED: ENDBRANCH  17  46
DOCKED: TORSDOF 10
DOCKED: TER
DOCKED: ENDMDL
________________________________________________________________________________


	BEGINNING GENETIC ALGORITHM DOCKING 94 of 100
Run: 94 Seed: 1585195249 282737207 [ Run 94 of 100 GA/GALS ]
Beginning LAMARCKIAN GENETIC ALGORITHM (LGA), with a maximum of 25000000 energy evaluations.

Final-Value: -11.036


	FINAL GENETIC ALGORITHM DOCKED STATE
	_______________________________________________


Detailed state:  trans -16.355 2.792 -1.332 quatxyzw 0.783586 0.187648 -0.227041 0.547023 center 8.287 34.468 -0.670 ntor 10 19.2242 -44.7985 -117.0272 22.9743 69.5208 -119.0414 -127.4434 -56.4494 -8.4408 -178.9677
State:	-16.355   2.792  -1.332   0.936  0.224 -0.271 113.674     19.22  -44.80 -117.03   22.97   69.52 -119.04 -127.44  -56.45   -8.44 -178.97

DOCKED: MODEL       94
DOCKED: USER    Run = 94
DOCKED: USER    DPF = D:/Protein_go_brrr/autodock/final/AncMH_nat/heme_O2/dock.dpf
DOCKED: USER  
DOCKED: USER    Estimated Free Energy of Binding    =   -7.34 kcal/mol  [=(1)+(2)+(3)-(4)]
DOCKED: USER    Estimated Inhibition Constant, Ki   =    4.16 uM (micromolar)  [Temperature = 298.15 K]
DOCKED: USER    
DOCKED: USER    (1) Final Intermolecular Energy     =  -10.32 kcal/mol
DOCKED: USER        vdW + Hbond + desolv Energy     =   -6.68 kcal/mol
DOCKED: USER        Electrostatic Energy            =   -3.64 kcal/mol
DOCKED: USER    (2) Final Total Internal Energy     =   -0.71 kcal/mol
DOCKED: USER    (3) Torsional Free Energy           =   +2.98 kcal/mol
DOCKED: USER    (4) Unbound System's Energy  [=(2)] =   -0.71 kcal/mol
DOCKED: USER    
DOCKED: USER    
DOCKED: USER    NEWDPF move heme_O2_opt.pdbqt
DOCKED: USER    NEWDPF about 8.287000 34.468000 -0.670000
DOCKED: USER    NEWDPF tran0 -16.355032 2.792422 -1.331577
DOCKED: USER    NEWDPF quaternion0 0.783586 0.187648 -0.227041 0.547023
DOCKED: USER    NEWDPF axisangle0 0.936052 0.224160 -0.271217 113.674027
DOCKED: USER    NEWDPF quat0 0.936052 0.224160 -0.271217 113.674027
DOCKED: USER    NEWDPF dihe0 19.22 -44.80 -117.03 22.97 69.52 -119.04 -127.44 -56.45 -8.44 -178.97 
DOCKED: USER  keepresnum = 1 
DOCKED: USER  
DOCKED: REMARK  10 active torsions:
DOCKED: REMARK  status: ('A' for Active; 'I' for Inactive)
DOCKED: REMARK    1  A    between atoms: C_6  and  C_10 
DOCKED: REMARK    2  A    between atoms: C_10  and  C_11 
DOCKED: REMARK    3  A    between atoms: C_11  and  C_12 
DOCKED: REMARK    4  A    between atoms: C_12  and  O_14 
DOCKED: REMARK    5  A    between atoms: C_17  and  C_20 
DOCKED: REMARK    6  A    between atoms: C_24  and  C_27 
DOCKED: REMARK    7  A    between atoms: C_31  and  C_34 
DOCKED: REMARK    8  A    between atoms: C_34  and  C_35 
DOCKED: REMARK    9  A    between atoms: C_35  and  C_36 
DOCKED: REMARK   10  A    between atoms: C_36  and  O_38 
DOCKED: USER                              x       y       z     vdW  Elec       q    Type
DOCKED: USER                           _______ _______ _______ _____ _____    ______ ____
DOCKED: ROOT
DOCKED: ATOM      1  C   UNL d   1     -17.424   0.961  -1.379 -0.04 +0.08    +0.064 A 
DOCKED: ATOM      2  C   UNL d   1     -18.658   5.363  -0.092 -0.10 +0.05    +0.064 A 
DOCKED: ATOM      3  C   UNL d   1     -14.232   6.980  -1.040 -0.34 +0.02    +0.064 C 
DOCKED: ATOM      4  C   UNL d   1     -13.086   2.554  -2.820 -0.09 +0.04    +0.064 A 
DOCKED: ATOM      5  C   UNL d   1     -18.121   2.027  -0.953 -0.04 +0.08    +0.066 A 
DOCKED: ATOM      6  C   UNL d   1     -19.458   1.977  -0.548 -0.05 -0.02    -0.021 A 
DOCKED: ATOM      7  C   UNL d   1     -19.829   3.259  -0.217 -0.07 -0.02    -0.025 A 
DOCKED: ATOM      8  C   UNL d   1     -18.694   4.049  -0.382 -0.09 +0.07    +0.066 A 
DOCKED: ATOM      9  C   UNL d   1     -21.221   3.676   0.205 -0.05 +0.04    +0.051 C 
DOCKED: ATOM     10  C   UNL d   1     -17.491   6.238  -0.223 -0.13 +0.04    +0.066 A 
DOCKED: ATOM     11  C   UNL d   1     -17.462   7.556   0.246 -0.16 -0.01    -0.021 A 
DOCKED: ATOM     12  C   UNL d   1     -16.188   8.034  -0.002 -0.27 +0.00    +0.000 A 
DOCKED: ATOM     13  C   UNL d   1     -15.501   6.960  -0.633 -0.22 +0.03    +0.070 A 
DOCKED: ATOM     14  C   UNL d   1     -18.592   8.319   0.927 -0.10 +0.01    +0.052 C 
DOCKED: ATOM     15  C   UNL d   1     -13.512   5.927  -1.715 -0.24 +0.03    +0.066 A 
DOCKED: ATOM     16  C   UNL d   1     -12.237   6.067  -2.262 -0.28 -0.00    -0.021 A 
DOCKED: ATOM     17  C   UNL d   1     -11.889   4.818  -2.776 -0.18 +0.00    +0.000 A 
DOCKED: ATOM     18  C   UNL d   1     -12.992   3.998  -2.498 -0.12 +0.04    +0.070 A 
DOCKED: ATOM     19  C   UNL d   1     -11.495   7.379  -2.295 -0.43 +0.00    +0.052 C 
DOCKED: ATOM     20  C   UNL d   1     -14.145   1.749  -2.607 -0.07 +0.06    +0.066 A 
DOCKED: ATOM     21  C   UNL d   1     -14.168   0.392  -2.915 -0.11 -0.02    -0.025 A 
DOCKED: ATOM     22  C   UNL d   1     -15.386  -0.084  -2.486 -0.10 -0.02    -0.021 A 
DOCKED: ATOM     23  C   UNL d   1     -16.072   1.008  -1.946 -0.03 +0.08    +0.066 A 
DOCKED: ATOM     24  C   UNL d   1     -13.083  -0.409  -3.588 -0.14 +0.03    +0.051 C 
DOCKED: ATOM     25  N   UNL d   1     -17.661   3.301  -0.898 -0.04 -0.36    -0.248 N 
DOCKED: ATOM     26  N   UNL d   1     -16.303   5.873  -0.768 -0.11 -0.22    -0.248 N 
DOCKED: ATOM     27  N   UNL d   1     -13.997   4.706  -1.921 -0.10 -0.21    -0.248 N 
DOCKED: ATOM     28  N   UNL d   1     -15.331   2.130  -2.062 -0.01 -0.38    -0.248 N 
DOCKED: ATOM     29 FE   UNL d   1     -15.811   3.989  -1.421 -0.04 +0.00    +0.000 Fe
DOCKED: ATOM     30  O   UNL d   1     -16.954   4.489  -2.352 -0.14 +0.00    +0.000 OA
DOCKED: ATOM     31  O   UNL d   1     -15.566   4.074  -2.972 -0.14 +0.00    +0.000 OA
DOCKED: ENDROOT
DOCKED: BRANCH   6  32
DOCKED: ATOM     32  C   UNL d   1     -20.395   0.798  -0.601 -0.01 +0.04    +0.052 C 
DOCKED: BRANCH  32  33
DOCKED: ATOM     33  C   UNL d   1     -20.117  -0.229   0.493 -0.01 +0.09    +0.115 C 
DOCKED: BRANCH  33  34
DOCKED: ATOM     34  C   UNL d   1     -20.024   0.399   1.861 -0.00 +0.20    +0.139 C 
DOCKED: ATOM     35  O   UNL d   1     -18.982   0.930   2.212 -0.23 -1.31    -0.650 OA
DOCKED: BRANCH  34  36
DOCKED: ATOM     36  O   UNL d   1     -21.061   0.364   2.723 -0.19 -1.36    -0.776 OA
DOCKED: ATOM     37  H   UNL d   1     -21.779  -0.273   2.633 +0.01 +0.17    +0.167 HD
DOCKED: ENDBRANCH  34  36
DOCKED: ENDBRANCH  33  34
DOCKED: ENDBRANCH  32  33
DOCKED: ENDBRANCH   6  32
DOCKED: BRANCH  22  38
DOCKED: ATOM     38  C   UNL d   1     -15.883  -1.498  -2.648 -0.13 +0.05    +0.052 C 
DOCKED: BRANCH  38  39
DOCKED: ATOM     39  C   UNL d   1     -16.358  -1.788  -4.070 -0.07 +0.07    +0.115 C 
DOCKED: BRANCH  39  40
DOCKED: ATOM     40  C   UNL d   1     -15.623  -2.945  -4.699 -0.11 +0.09    +0.139 C 
DOCKED: ATOM     41  O   UNL d   1     -15.126  -3.805  -3.990 -0.45 -0.87    -0.650 OA
DOCKED: BRANCH  40  42
DOCKED: ATOM     42  O   UNL d   1     -15.546  -3.076  -6.038 +0.04 -0.31    -0.776 OA
DOCKED: ATOM     43  H   UNL d   1     -16.308  -2.910  -6.605 +0.01 +0.05    +0.167 HD
DOCKED: ENDBRANCH  40  42
DOCKED: ENDBRANCH  39  40
DOCKED: ENDBRANCH  38  39
DOCKED: ENDBRANCH  22  38
DOCKED: BRANCH  12  44
DOCKED: ATOM     44  C   UNL d   1     -15.768   9.438   0.378 -0.36 -0.00    +0.004 C 
DOCKED: ATOM     45  C   UNL d   1     -15.773   9.995   1.589 -0.46 -0.00    +0.012 C 
DOCKED: ENDBRANCH  12  44
DOCKED: BRANCH  17  46
DOCKED: ATOM     46  C   UNL d   1     -10.669   4.365  -3.533 -0.27 -0.00    +0.004 C 
DOCKED: ATOM     47  C   UNL d   1      -9.486   4.983  -3.643 -0.40 -0.00    +0.012 C 
DOCKED: ENDBRANCH  17  46
DOCKED: TORSDOF 10
DOCKED: TER
DOCKED: ENDMDL
________________________________________________________________________________


	BEGINNING GENETIC ALGORITHM DOCKING 95 of 100
Run: 95 Seed: 1068659774 170556572 [ Run 95 of 100 GA/GALS ]
Beginning LAMARCKIAN GENETIC ALGORITHM (LGA), with a maximum of 25000000 energy evaluations.

Final-Value: -11.085


	FINAL GENETIC ALGORITHM DOCKED STATE
	_______________________________________________


Detailed state:  trans -19.847 4.430 0.921 quatxyzw 0.631970 0.262952 -0.272873 0.676026 center 8.287 34.468 -0.670 ntor 10 4.3689 50.9512 -41.6615 126.9166 -144.8493 119.4073 -143.7744 170.7960 -28.3530 -9.0326
State:	-19.847   4.430   0.921   0.858  0.357 -0.370 94.932      4.37   50.95  -41.66  126.92 -144.85  119.41 -143.77  170.80  -28.35   -9.03

DOCKED: MODEL       95
DOCKED: USER    Run = 95
DOCKED: USER    DPF = D:/Protein_go_brrr/autodock/final/AncMH_nat/heme_O2/dock.dpf
DOCKED: USER  
DOCKED: USER    Estimated Free Energy of Binding    =   -6.34 kcal/mol  [=(1)+(2)+(3)-(4)]
DOCKED: USER    Estimated Inhibition Constant, Ki   =   22.43 uM (micromolar)  [Temperature = 298.15 K]
DOCKED: USER    
DOCKED: USER    (1) Final Intermolecular Energy     =   -9.33 kcal/mol
DOCKED: USER        vdW + Hbond + desolv Energy     =   -5.25 kcal/mol
DOCKED: USER        Electrostatic Energy            =   -4.08 kcal/mol
DOCKED: USER    (2) Final Total Internal Energy     =   -1.76 kcal/mol
DOCKED: USER    (3) Torsional Free Energy           =   +2.98 kcal/mol
DOCKED: USER    (4) Unbound System's Energy  [=(2)] =   -1.76 kcal/mol
DOCKED: USER    
DOCKED: USER    
DOCKED: USER    NEWDPF move heme_O2_opt.pdbqt
DOCKED: USER    NEWDPF about 8.287000 34.468000 -0.670000
DOCKED: USER    NEWDPF tran0 -19.847168 4.429648 0.920749
DOCKED: USER    NEWDPF quaternion0 0.631970 0.262952 -0.272873 0.676026
DOCKED: USER    NEWDPF axisangle0 0.857631 0.356845 -0.370310 94.932277
DOCKED: USER    NEWDPF quat0 0.857631 0.356845 -0.370310 94.932277
DOCKED: USER    NEWDPF dihe0 4.37 50.95 -41.66 126.92 -144.85 119.41 -143.77 170.80 -28.35 -9.03 
DOCKED: USER  keepresnum = 1 
DOCKED: USER  
DOCKED: REMARK  10 active torsions:
DOCKED: REMARK  status: ('A' for Active; 'I' for Inactive)
DOCKED: REMARK    1  A    between atoms: C_6  and  C_10 
DOCKED: REMARK    2  A    between atoms: C_10  and  C_11 
DOCKED: REMARK    3  A    between atoms: C_11  and  C_12 
DOCKED: REMARK    4  A    between atoms: C_12  and  O_14 
DOCKED: REMARK    5  A    between atoms: C_17  and  C_20 
DOCKED: REMARK    6  A    between atoms: C_24  and  C_27 
DOCKED: REMARK    7  A    between atoms: C_31  and  C_34 
DOCKED: REMARK    8  A    between atoms: C_34  and  C_35 
DOCKED: REMARK    9  A    between atoms: C_35  and  C_36 
DOCKED: REMARK   10  A    between atoms: C_36  and  O_38 
DOCKED: USER                              x       y       z     vdW  Elec       q    Type
DOCKED: USER                           _______ _______ _______ _____ _____    ______ ____
DOCKED: ROOT
DOCKED: ATOM      1  C   UNL d   1     -20.642   2.581   0.250 -0.05 +0.07    +0.064 A 
DOCKED: ATOM      2  C   UNL d   1     -22.301   5.898   3.217 -0.08 +0.05    +0.064 A 
DOCKED: ATOM      3  C   UNL d   1     -18.321   8.530   2.647 -0.20 +0.02    +0.064 C 
DOCKED: ATOM      4  C   UNL d   1     -16.811   5.357  -0.776 -0.09 +0.07    +0.064 A 
DOCKED: ATOM      5  C   UNL d   1     -21.419   3.269   1.102 -0.04 +0.08    +0.066 A 
DOCKED: ATOM      6  C   UNL d   1     -22.667   2.830   1.552 -0.03 -0.02    -0.021 A 
DOCKED: ATOM      7  C   UNL d   1     -23.168   3.810   2.377 -0.04 -0.03    -0.025 A 
DOCKED: ATOM      8  C   UNL d   1     -22.190   4.798   2.447 -0.01 +0.08    +0.066 A 
DOCKED: ATOM      9  C   UNL d   1     -24.534   3.780   3.026 -0.03 +0.03    +0.051 C 
DOCKED: ATOM     10  C   UNL d   1     -21.300   6.957   3.349 -0.09 +0.04    +0.066 A 
DOCKED: ATOM     11  C   UNL d   1     -21.394   7.992   4.286 -0.07 -0.01    -0.021 A 
DOCKED: ATOM     12  C   UNL d   1     -20.247   8.752   4.149 -0.10 +0.00    +0.000 A 
DOCKED: ATOM     13  C   UNL d   1     -19.507   8.130   3.105 -0.11 +0.03    +0.070 A 
DOCKED: ATOM     14  C   UNL d   1     -22.518   8.231   5.287 -0.04 +0.01    +0.052 C 
DOCKED: ATOM     15  C   UNL d   1     -17.557   7.950   1.569 -0.19 +0.02    +0.066 A 
DOCKED: ATOM     16  C   UNL d   1     -16.401   8.511   1.027 -0.30 -0.00    -0.021 A 
DOCKED: ATOM     17  C   UNL d   1     -15.953   7.625   0.049 -0.27 +0.00    +0.000 A 
DOCKED: ATOM     18  C   UNL d   1     -16.880   6.573   0.069 -0.11 +0.05    +0.070 A 
DOCKED: ATOM     19  C   UNL d   1     -15.865   9.856   1.449 -0.41 -0.01    +0.052 C 
DOCKED: ATOM     20  C   UNL d   1     -17.706   4.351  -0.813 -0.09 +0.08    +0.066 A 
DOCKED: ATOM     21  C   UNL d   1     -17.577   3.222  -1.618 -0.04 -0.03    -0.025 A 
DOCKED: ATOM     22  C   UNL d   1     -18.646   2.407  -1.319 -0.05 -0.02    -0.021 A 
DOCKED: ATOM     23  C   UNL d   1     -19.400   3.080  -0.352 -0.07 +0.07    +0.066 A 
DOCKED: ATOM     24  C   UNL d   1     -16.492   2.937  -2.623 -0.05 +0.05    +0.051 C 
DOCKED: ATOM     25  N   UNL d   1     -21.141   4.495   1.610 -0.04 -0.34    -0.248 N 
DOCKED: ATOM     26  N   UNL d   1     -20.157   7.042   2.621 -0.06 -0.15    -0.248 N 
DOCKED: ATOM     27  N   UNL d   1     -17.887   6.823   0.944 -0.11 -0.15    -0.248 N 
DOCKED: ATOM     28  N   UNL d   1     -18.849   4.281  -0.081 -0.08 -0.26    -0.248 N 
DOCKED: ATOM     29 FE   UNL d   1     -19.496   5.653   1.260 -0.02 +0.00    +0.000 Fe
DOCKED: ATOM     30  O   UNL d   1     -20.814   6.242   0.677 -0.05 +0.00    +0.000 OA
DOCKED: ATOM     31  O   UNL d   1     -19.479   6.345  -0.153 -0.06 +0.00    +0.000 OA
DOCKED: ENDROOT
DOCKED: BRANCH   6  32
DOCKED: ATOM     32  C   UNL d   1     -23.426   1.603   1.117 -0.02 +0.03    +0.052 C 
DOCKED: BRANCH  32  33
DOCKED: ATOM     33  C   UNL d   1     -22.619   0.318   1.285 -0.02 +0.08    +0.115 C 
DOCKED: BRANCH  33  34
DOCKED: ATOM     34  C   UNL d   1     -21.708   0.364   2.486 +0.05 +0.19    +0.139 C 
DOCKED: ATOM     35  O   UNL d   1     -22.189   0.442   3.605 -0.55 -1.00    -0.650 OA
DOCKED: BRANCH  34  36
DOCKED: ATOM     36  O   UNL d   1     -20.366   0.348   2.352 -0.04 -1.29    -0.776 OA
DOCKED: ATOM     37  H   UNL d   1     -19.939   0.374   1.488 +0.02 +0.22    +0.167 HD
DOCKED: ENDBRANCH  34  36
DOCKED: ENDBRANCH  33  34
DOCKED: ENDBRANCH  32  33
DOCKED: ENDBRANCH   6  32
DOCKED: BRANCH  22  38
DOCKED: ATOM     38  C   UNL d   1     -18.955   1.087  -1.976 -0.01 +0.03    +0.052 C 
DOCKED: BRANCH  38  39
DOCKED: ATOM     39  C   UNL d   1     -18.357  -0.095  -1.216 -0.02 +0.09    +0.115 C 
DOCKED: BRANCH  39  40
DOCKED: ATOM     40  C   UNL d   1     -17.397   0.339  -0.137 -0.01 +0.21    +0.139 C 
DOCKED: ATOM     41  O   UNL d   1     -16.199   0.366  -0.366 -0.34 -1.31    -0.650 OA
DOCKED: BRANCH  40  42
DOCKED: ATOM     42  O   UNL d   1     -17.842   0.750   1.067 -0.21 -1.30    -0.776 OA
DOCKED: ATOM     43  H   UNL d   1     -18.437   0.207   1.597 +0.03 +0.23    +0.167 HD
DOCKED: ENDBRANCH  40  42
DOCKED: ENDBRANCH  39  40
DOCKED: ENDBRANCH  38  39
DOCKED: ENDBRANCH  22  38
DOCKED: BRANCH  12  44
DOCKED: ATOM     44  C   UNL d   1     -19.982   9.970   5.009 -0.14 +0.00    +0.004 C 
DOCKED: ATOM     45  C   UNL d   1     -18.855  10.298   5.639 -0.28 +0.00    +0.012 C 
DOCKED: ENDBRANCH  12  44
DOCKED: BRANCH  17  46
DOCKED: ATOM     46  C   UNL d   1     -14.796   7.713  -0.910 -0.31 +0.00    +0.004 C 
DOCKED: ATOM     47  C   UNL d   1     -13.750   6.884  -1.026 -0.40 +0.00    +0.012 C 
DOCKED: ENDBRANCH  17  46
DOCKED: TORSDOF 10
DOCKED: TER
DOCKED: ENDMDL
________________________________________________________________________________


	BEGINNING GENETIC ALGORITHM DOCKING 96 of 100
Run: 96 Seed: 1017021461 1473158880 [ Run 96 of 100 GA/GALS ]
Beginning LAMARCKIAN GENETIC ALGORITHM (LGA), with a maximum of 25000000 energy evaluations.

Final-Value: -11.994


	FINAL GENETIC ALGORITHM DOCKED STATE
	_______________________________________________


Detailed state:  trans -15.790 3.569 -1.799 quatxyzw -0.780361 0.394066 0.095217 -0.476111 center 8.287 34.468 -0.670 ntor 10 84.6056 -47.8576 -110.2062 65.5089 25.6431 111.4939 55.3043 -136.7670 -16.2542 -12.7522
State:	-15.790   3.569  -1.799  -0.887  0.448  0.108 -123.137     84.61  -47.86 -110.21   65.51   25.64  111.49   55.30 -136.77  -16.25  -12.75

DOCKED: MODEL       96
DOCKED: USER    Run = 96
DOCKED: USER    DPF = D:/Protein_go_brrr/autodock/final/AncMH_nat/heme_O2/dock.dpf
DOCKED: USER  
DOCKED: USER    Estimated Free Energy of Binding    =   -7.23 kcal/mol  [=(1)+(2)+(3)-(4)]
DOCKED: USER    Estimated Inhibition Constant, Ki   =    5.00 uM (micromolar)  [Temperature = 298.15 K]
DOCKED: USER    
DOCKED: USER    (1) Final Intermolecular Energy     =  -10.21 kcal/mol
DOCKED: USER        vdW + Hbond + desolv Energy     =   -6.16 kcal/mol
DOCKED: USER        Electrostatic Energy            =   -4.06 kcal/mol
DOCKED: USER    (2) Final Total Internal Energy     =   -1.78 kcal/mol
DOCKED: USER    (3) Torsional Free Energy           =   +2.98 kcal/mol
DOCKED: USER    (4) Unbound System's Energy  [=(2)] =   -1.78 kcal/mol
DOCKED: USER    
DOCKED: USER    
DOCKED: USER    NEWDPF move heme_O2_opt.pdbqt
DOCKED: USER    NEWDPF about 8.287000 34.468000 -0.670000
DOCKED: USER    NEWDPF tran0 -15.790214 3.568928 -1.798610
DOCKED: USER    NEWDPF quaternion0 -0.780361 0.394066 0.095217 -0.476111
DOCKED: USER    NEWDPF axisangle0 -0.887394 0.448115 0.108277 -123.136553
DOCKED: USER    NEWDPF quat0 -0.887394 0.448115 0.108277 -123.136553
DOCKED: USER    NEWDPF dihe0 84.61 -47.86 -110.21 65.51 25.64 111.49 55.30 -136.77 -16.25 -12.75 
DOCKED: USER  keepresnum = 1 
DOCKED: USER  
DOCKED: REMARK  10 active torsions:
DOCKED: REMARK  status: ('A' for Active; 'I' for Inactive)
DOCKED: REMARK    1  A    between atoms: C_6  and  C_10 
DOCKED: REMARK    2  A    between atoms: C_10  and  C_11 
DOCKED: REMARK    3  A    between atoms: C_11  and  C_12 
DOCKED: REMARK    4  A    between atoms: C_12  and  O_14 
DOCKED: REMARK    5  A    between atoms: C_17  and  C_20 
DOCKED: REMARK    6  A    between atoms: C_24  and  C_27 
DOCKED: REMARK    7  A    between atoms: C_31  and  C_34 
DOCKED: REMARK    8  A    between atoms: C_34  and  C_35 
DOCKED: REMARK    9  A    between atoms: C_35  and  C_36 
DOCKED: REMARK   10  A    between atoms: C_36  and  O_38 
DOCKED: USER                              x       y       z     vdW  Elec       q    Type
DOCKED: USER                           _______ _______ _______ _____ _____    ______ ____
DOCKED: ROOT
DOCKED: ATOM      1  C   UNL d   1     -17.652   3.753  -0.798 +0.02 +0.09    +0.064 A 
DOCKED: ATOM      2  C   UNL d   1     -14.098   6.813  -1.551 -0.27 +0.02    +0.064 A 
DOCKED: ATOM      3  C   UNL d   1     -11.570   3.450  -3.873 -0.15 -0.00    +0.064 C 
DOCKED: ATOM      4  C   UNL d   1     -15.420   0.430  -3.522 -0.04 +0.04    +0.064 A 
DOCKED: ATOM      5  C   UNL d   1     -16.892   4.860  -0.815 -0.02 +0.08    +0.066 A 
DOCKED: ATOM      6  C   UNL d   1     -17.259   6.070  -0.218 -0.15 -0.02    -0.021 A 
DOCKED: ATOM      7  C   UNL d   1     -16.250   6.969  -0.473 -0.20 -0.01    -0.025 A 
DOCKED: ATOM      8  C   UNL d   1     -15.273   6.271  -1.177 -0.17 +0.04    +0.066 A 
DOCKED: ATOM      9  C   UNL d   1     -16.269   8.428  -0.071 -0.28 +0.01    +0.051 C 
DOCKED: ATOM     10  C   UNL d   1     -13.026   6.125  -2.271 -0.22 +0.02    +0.066 A 
DOCKED: ATOM     11  C   UNL d   1     -11.763   6.685  -2.491 -0.35 -0.00    -0.021 A 
DOCKED: ATOM     12  C   UNL d   1     -11.014   5.724  -3.143 -0.27 -0.00    +0.000 A 
DOCKED: ATOM     13  C   UNL d   1     -11.886   4.610  -3.299 -0.12 +0.01    +0.070 A 
DOCKED: ATOM     14  C   UNL d   1     -11.283   8.070  -2.072 +0.08 -0.00    +0.052 C 
DOCKED: ATOM     15  C   UNL d   1     -12.434   2.312  -4.081 -0.07 +0.01    +0.066 A 
DOCKED: ATOM     16  C   UNL d   1     -12.093   1.189  -4.834 -0.12 -0.00    -0.021 A 
DOCKED: ATOM     17  C   UNL d   1     -13.176   0.314  -4.749 -0.09 +0.00    +0.000 A 
DOCKED: ATOM     18  C   UNL d   1     -14.108   0.977  -3.938 -0.04 +0.03    +0.070 A 
DOCKED: ATOM     19  C   UNL d   1     -10.802   1.075  -5.605 -0.27 -0.01    +0.052 C 
DOCKED: ATOM     20  C   UNL d   1     -16.355   1.056  -2.781 -0.04 +0.05    +0.066 A 
DOCKED: ATOM     21  C   UNL d   1     -17.566   0.482  -2.405 -0.02 -0.02    -0.025 A 
DOCKED: ATOM     22  C   UNL d   1     -18.203   1.404  -1.606 -0.04 -0.02    -0.021 A 
DOCKED: ATOM     23  C   UNL d   1     -17.362   2.519  -1.538 +0.02 +0.09    +0.066 A 
DOCKED: ATOM     24  C   UNL d   1     -18.091  -0.877  -2.791 -0.02 +0.03    +0.051 C 
DOCKED: ATOM     25  N   UNL d   1     -15.698   4.990  -1.444 -0.08 -0.30    -0.248 N 
DOCKED: ATOM     26  N   UNL d   1     -13.109   4.865  -2.770 -0.06 -0.09    -0.248 N 
DOCKED: ATOM     27  N   UNL d   1     -13.672   2.219  -3.604 -0.02 -0.11    -0.248 N 
DOCKED: ATOM     28  N   UNL d   1     -16.260   2.320  -2.291 -0.04 -0.31    -0.248 N 
DOCKED: ATOM     29 FE   UNL d   1     -14.695   3.581  -2.530 -0.02 +0.00    +0.000 Fe
DOCKED: ATOM     30  O   UNL d   1     -15.223   4.773  -3.382 -0.06 +0.00    +0.000 OA
DOCKED: ATOM     31  O   UNL d   1     -15.303   3.307  -3.955 -0.03 +0.00    +0.000 OA
DOCKED: ENDROOT
DOCKED: BRANCH   6  32
DOCKED: ATOM     32  C   UNL d   1     -18.566   6.412   0.448 -0.13 +0.03    +0.052 C 
DOCKED: BRANCH  32  33
DOCKED: ATOM     33  C   UNL d   1     -18.790   5.638   1.744 -0.21 +0.12    +0.115 C 
DOCKED: BRANCH  33  34
DOCKED: ATOM     34  C   UNL d   1     -20.116   4.918   1.762 -0.10 +0.19    +0.139 C 
DOCKED: ATOM     35  O   UNL d   1     -20.895   5.112   2.682 -0.23 -1.12    -0.650 OA
DOCKED: BRANCH  34  36
DOCKED: ATOM     36  O   UNL d   1     -20.452   4.039   0.796 +0.00 -0.92    -0.776 OA
DOCKED: ATOM     37  H   UNL d   1     -20.181   3.114   0.831 +0.01 +0.24    +0.167 HD
DOCKED: ENDBRANCH  34  36
DOCKED: ENDBRANCH  33  34
DOCKED: ENDBRANCH  32  33
DOCKED: ENDBRANCH   6  32
DOCKED: BRANCH  22  38
DOCKED: ATOM     38  C   UNL d   1     -19.573   1.243  -0.997 -0.02 +0.04    +0.052 C 
DOCKED: BRANCH  38  39
DOCKED: ATOM     39  C   UNL d   1     -19.524   0.574   0.375 -0.05 +0.12    +0.115 C 
DOCKED: BRANCH  39  40
DOCKED: ATOM     40  C   UNL d   1     -18.395   1.093   1.230 -0.12 +0.23    +0.139 C 
DOCKED: ATOM     41  O   UNL d   1     -17.392   0.416   1.384 -0.30 -1.10    -0.650 OA
DOCKED: BRANCH  40  42
DOCKED: ATOM     42  O   UNL d   1     -18.451   2.318   1.787 -0.57 -1.84    -0.776 OA
DOCKED: ATOM     43  H   UNL d   1     -18.740   3.089   1.284 +0.02 +0.33    +0.167 HD
DOCKED: ENDBRANCH  40  42
DOCKED: ENDBRANCH  39  40
DOCKED: ENDBRANCH  38  39
DOCKED: ENDBRANCH  22  38
DOCKED: BRANCH  12  44
DOCKED: ATOM     44  C   UNL d   1      -9.574   5.963  -3.546 -0.47 -0.00    +0.004 C 
DOCKED: ATOM     45  C   UNL d   1      -8.522   6.151  -2.750 -0.53 -0.00    +0.012 C 
DOCKED: ENDBRANCH  12  44
DOCKED: BRANCH  17  46
DOCKED: ATOM     46  C   UNL d   1     -13.419  -1.024  -5.396 -0.13 +0.00    +0.004 C 
DOCKED: ATOM     47  C   UNL d   1     -12.684  -2.138  -5.295 -0.22 +0.00    +0.012 C 
DOCKED: ENDBRANCH  17  46
DOCKED: TORSDOF 10
DOCKED: TER
DOCKED: ENDMDL
________________________________________________________________________________


	BEGINNING GENETIC ALGORITHM DOCKING 97 of 100
Run: 97 Seed: 1346671491 409292318 [ Run 97 of 100 GA/GALS ]
Beginning LAMARCKIAN GENETIC ALGORITHM (LGA), with a maximum of 25000000 energy evaluations.

Final-Value: -10.661


	FINAL GENETIC ALGORITHM DOCKED STATE
	_______________________________________________


Detailed state:  trans -16.885 9.568 16.484 quatxyzw -0.115176 -0.438734 -0.172026 0.874445 center 8.287 34.468 -0.670 ntor 10 -24.9541 -76.7383 100.8208 -9.0904 -113.7057 126.5912 172.5377 -145.6530 18.6081 -9.9068
State:	-16.885   9.568  16.484  -0.237 -0.904 -0.355 58.041    -24.95  -76.74  100.82   -9.09 -113.71  126.59  172.54 -145.65   18.61   -9.91

DOCKED: MODEL       97
DOCKED: USER    Run = 97
DOCKED: USER    DPF = D:/Protein_go_brrr/autodock/final/AncMH_nat/heme_O2/dock.dpf
DOCKED: USER  
DOCKED: USER    Estimated Free Energy of Binding    =   -6.05 kcal/mol  [=(1)+(2)+(3)-(4)]
DOCKED: USER    Estimated Inhibition Constant, Ki   =   36.53 uM (micromolar)  [Temperature = 298.15 K]
DOCKED: USER    
DOCKED: USER    (1) Final Intermolecular Energy     =   -9.04 kcal/mol
DOCKED: USER        vdW + Hbond + desolv Energy     =   -6.46 kcal/mol
DOCKED: USER        Electrostatic Energy            =   -2.58 kcal/mol
DOCKED: USER    (2) Final Total Internal Energy     =   -1.62 kcal/mol
DOCKED: USER    (3) Torsional Free Energy           =   +2.98 kcal/mol
DOCKED: USER    (4) Unbound System's Energy  [=(2)] =   -1.62 kcal/mol
DOCKED: USER    
DOCKED: USER    
DOCKED: USER    NEWDPF move heme_O2_opt.pdbqt
DOCKED: USER    NEWDPF about 8.287000 34.468000 -0.670000
DOCKED: USER    NEWDPF tran0 -16.885085 9.568111 16.484298
DOCKED: USER    NEWDPF quaternion0 -0.115176 -0.438734 -0.172026 0.874445
DOCKED: USER    NEWDPF axisangle0 -0.237416 -0.904374 -0.354602 58.041305
DOCKED: USER    NEWDPF quat0 -0.237416 -0.904374 -0.354602 58.041305
DOCKED: USER    NEWDPF dihe0 -24.95 -76.74 100.82 -9.09 -113.71 126.59 172.54 -145.65 18.61 -9.91 
DOCKED: USER  keepresnum = 1 
DOCKED: USER  
DOCKED: REMARK  10 active torsions:
DOCKED: REMARK  status: ('A' for Active; 'I' for Inactive)
DOCKED: REMARK    1  A    between atoms: C_6  and  C_10 
DOCKED: REMARK    2  A    between atoms: C_10  and  C_11 
DOCKED: REMARK    3  A    between atoms: C_11  and  C_12 
DOCKED: REMARK    4  A    between atoms: C_12  and  O_14 
DOCKED: REMARK    5  A    between atoms: C_17  and  C_20 
DOCKED: REMARK    6  A    between atoms: C_24  and  C_27 
DOCKED: REMARK    7  A    between atoms: C_31  and  C_34 
DOCKED: REMARK    8  A    between atoms: C_34  and  C_35 
DOCKED: REMARK    9  A    between atoms: C_35  and  C_36 
DOCKED: REMARK   10  A    between atoms: C_36  and  O_38 
DOCKED: USER                              x       y       z     vdW  Elec       q    Type
DOCKED: USER                           _______ _______ _______ _____ _____    ______ ____
DOCKED: ROOT
DOCKED: ATOM      1  C   UNL d   1     -18.690   9.407  17.586 +0.02 +0.07    +0.064 A 
DOCKED: ATOM      2  C   UNL d   1     -14.501   7.199  17.952 -0.09 +0.02    +0.064 A 
DOCKED: ATOM      3  C   UNL d   1     -12.782   9.640  14.186 -0.39 -0.00    +0.064 C 
DOCKED: ATOM      4  C   UNL d   1     -16.926  12.263  14.097 -0.07 +0.01    +0.064 A 
DOCKED: ATOM      5  C   UNL d   1     -17.691   8.609  17.994 -0.01 +0.07    +0.066 A 
DOCKED: ATOM      6  C   UNL d   1     -17.792   7.710  19.060 -0.05 -0.01    -0.021 A 
DOCKED: ATOM      7  C   UNL d   1     -16.566   7.101  19.194 -0.05 -0.01    -0.025 A 
DOCKED: ATOM      8  C   UNL d   1     -15.764   7.610  18.176 -0.09 +0.03    +0.066 A 
DOCKED: ATOM      9  C   UNL d   1     -16.207   6.107  20.277 -0.01 +0.01    +0.051 C 
DOCKED: ATOM     10  C   UNL d   1     -13.620   7.679  16.887 -0.14 +0.01    +0.066 A 
DOCKED: ATOM     11  C   UNL d   1     -12.378   7.102  16.597 -0.21 +0.00    -0.021 A 
DOCKED: ATOM     12  C   UNL d   1     -11.874   7.781  15.503 -0.35 -0.00    +0.000 A 
DOCKED: ATOM     13  C   UNL d   1     -12.854   8.763  15.187 -0.27 +0.00    +0.070 A 
DOCKED: ATOM     14  C   UNL d   1     -11.712   5.936  17.318 -0.21 -0.01    +0.052 C 
DOCKED: ATOM     15  C   UNL d   1     -13.735  10.672  13.855 -0.27 -0.00    +0.066 A 
DOCKED: ATOM     16  C   UNL d   1     -13.525  11.664  12.898 -0.37 +0.00    -0.021 A 
DOCKED: ATOM     17  C   UNL d   1     -14.693  12.425  12.856 -0.25 -0.00    +0.000 A 
DOCKED: ATOM     18  C   UNL d   1     -15.540  11.830  13.801 -0.15 +0.00    +0.070 A 
DOCKED: ATOM     19  C   UNL d   1     -12.222  11.830  12.157 -0.33 -0.01    +0.052 C 
DOCKED: ATOM     20  C   UNL d   1     -17.750  11.743  15.028 -0.06 +0.02    +0.066 A 
DOCKED: ATOM     21  C   UNL d   1     -19.053  12.181  15.249 -0.03 -0.01    -0.025 A 
DOCKED: ATOM     22  C   UNL d   1     -19.580  11.361  16.221 -0.04 -0.01    -0.021 A 
DOCKED: ATOM     23  C   UNL d   1     -18.569  10.460  16.571 -0.04 +0.06    +0.066 A 
DOCKED: ATOM     24  C   UNL d   1     -19.757  13.327  14.570 -0.01 +0.01    +0.051 C 
DOCKED: ATOM     25  N   UNL d   1     -16.437   8.586  17.478 -0.08 -0.21    -0.248 N 
DOCKED: ATOM     26  N   UNL d   1     -13.910   8.697  16.037 -0.12 -0.05    -0.248 N 
DOCKED: ATOM     27  N   UNL d   1     -14.915  10.815  14.451 -0.11 -0.03    -0.248 N 
DOCKED: ATOM     28  N   UNL d   1     -17.444  10.725  15.876 -0.07 -0.17    -0.248 N 
DOCKED: ATOM     29 FE   UNL d   1     -15.689   9.720  15.954 -0.03 +0.00    +0.000 Fe
DOCKED: ATOM     30  O   UNL d   1     -15.064  10.043  17.342 -0.07 +0.00    +0.000 OA
DOCKED: ATOM     31  O   UNL d   1     -15.394  11.215  16.342 -0.07 +0.00    +0.000 OA
DOCKED: ENDROOT
DOCKED: BRANCH   6  32
DOCKED: ATOM     32  C   UNL d   1     -18.950   7.527  20.006 -0.01 +0.02    +0.052 C 
DOCKED: BRANCH  32  33
DOCKED: ATOM     33  C   UNL d   1     -19.789   6.294  19.683 -0.01 +0.04    +0.115 C 
DOCKED: BRANCH  33  34
DOCKED: ATOM     34  C   UNL d   1     -19.413   5.672  18.361 -0.05 +0.09    +0.139 C 
DOCKED: ATOM     35  O   UNL d   1     -18.622   4.743  18.335 -0.01 -0.34    -0.650 OA
DOCKED: BRANCH  34  36
DOCKED: ATOM     36  O   UNL d   1     -19.910   6.139  17.197 -0.20 -1.10    -0.776 OA
DOCKED: ATOM     37  H   UNL d   1     -20.747   6.616  17.154 +0.00 +0.18    +0.167 HD
DOCKED: ENDBRANCH  34  36
DOCKED: ENDBRANCH  33  34
DOCKED: ENDBRANCH  32  33
DOCKED: ENDBRANCH   6  32
DOCKED: BRANCH  22  38
DOCKED: ATOM     38  C   UNL d   1     -20.957  11.483  16.821 -0.01 +0.02    +0.052 C 
DOCKED: BRANCH  38  39
DOCKED: ATOM     39  C   UNL d   1     -21.990  10.632  16.086 -0.01 +0.04    +0.115 C 
DOCKED: BRANCH  39  40
DOCKED: ATOM     40  C   UNL d   1     -21.401   9.355  15.540 -0.02 +0.13    +0.139 C 
DOCKED: ATOM     41  O   UNL d   1     -20.909   9.344  14.423 -0.59 -0.78    -0.650 OA
DOCKED: BRANCH  40  42
DOCKED: ATOM     42  O   UNL d   1     -21.361   8.233  16.284 -0.07 -0.85    -0.776 OA
DOCKED: ATOM     43  H   UNL d   1     -20.736   8.132  17.012 -0.00 +0.20    +0.167 HD
DOCKED: ENDBRANCH  40  42
DOCKED: ENDBRANCH  39  40
DOCKED: ENDBRANCH  38  39
DOCKED: ENDBRANCH  22  38
DOCKED: BRANCH  12  44
DOCKED: ATOM     44  C   UNL d   1     -10.536   7.431  14.887 -0.52 -0.00    +0.004 C 
DOCKED: ATOM     45  C   UNL d   1      -9.326   7.837  15.272 -0.47 -0.00    +0.012 C 
DOCKED: ENDBRANCH  12  44
DOCKED: BRANCH  17  46
DOCKED: ATOM     46  C   UNL d   1     -15.041  13.658  12.066 -0.19 -0.00    +0.004 C 
DOCKED: ATOM     47  C   UNL d   1     -14.213  14.490  11.421 -0.29 -0.01    +0.012 C 
DOCKED: ENDBRANCH  17  46
DOCKED: TORSDOF 10
DOCKED: TER
DOCKED: ENDMDL
________________________________________________________________________________


	BEGINNING GENETIC ALGORITHM DOCKING 98 of 100
Run: 98 Seed: 687827607 21035696 [ Run 98 of 100 GA/GALS ]
Beginning LAMARCKIAN GENETIC ALGORITHM (LGA), with a maximum of 25000000 energy evaluations.

Final-Value: -16.581


	FINAL GENETIC ALGORITHM DOCKED STATE
	_______________________________________________


Detailed state:  trans -10.016 0.576 3.761 quatxyzw 0.881725 -0.003951 0.440891 -0.167814 center 8.287 34.468 -0.670 ntor 10 -20.1050 -13.1929 6.2941 -54.3012 99.9231 89.9159 161.5595 64.0561 47.0965 -176.8148
State:	-10.016   0.576   3.761   0.894 -0.004  0.447 -160.679    -20.10  -13.19    6.29  -54.30   99.92   89.92  161.56   64.06   47.10 -176.81

DOCKED: MODEL       98
DOCKED: USER    Run = 98
DOCKED: USER    DPF = D:/Protein_go_brrr/autodock/final/AncMH_nat/heme_O2/dock.dpf
DOCKED: USER  
DOCKED: USER    Estimated Free Energy of Binding    =  -13.25 kcal/mol  [=(1)+(2)+(3)-(4)]
DOCKED: USER    Estimated Inhibition Constant, Ki   =  192.64 pM (picomolar)  [Temperature = 298.15 K]
DOCKED: USER    
DOCKED: USER    (1) Final Intermolecular Energy     =  -16.24 kcal/mol
DOCKED: USER        vdW + Hbond + desolv Energy     =  -13.84 kcal/mol
DOCKED: USER        Electrostatic Energy            =   -2.40 kcal/mol
DOCKED: USER    (2) Final Total Internal Energy     =   -0.34 kcal/mol
DOCKED: USER    (3) Torsional Free Energy           =   +2.98 kcal/mol
DOCKED: USER    (4) Unbound System's Energy  [=(2)] =   -0.34 kcal/mol
DOCKED: USER    
DOCKED: USER    
DOCKED: USER    NEWDPF move heme_O2_opt.pdbqt
DOCKED: USER    NEWDPF about 8.287000 34.468000 -0.670000
DOCKED: USER    NEWDPF tran0 -10.015850 0.575695 3.760591
DOCKED: USER    NEWDPF quaternion0 0.881725 -0.003951 0.440891 -0.167814
DOCKED: USER    NEWDPF axisangle0 0.894408 -0.004008 0.447233 -160.678565
DOCKED: USER    NEWDPF quat0 0.894408 -0.004008 0.447233 -160.678565
DOCKED: USER    NEWDPF dihe0 -20.10 -13.19 6.29 -54.30 99.92 89.92 161.56 64.06 47.10 -176.81 
DOCKED: USER  keepresnum = 1 
DOCKED: USER  
DOCKED: REMARK  10 active torsions:
DOCKED: REMARK  status: ('A' for Active; 'I' for Inactive)
DOCKED: REMARK    1  A    between atoms: C_6  and  C_10 
DOCKED: REMARK    2  A    between atoms: C_10  and  C_11 
DOCKED: REMARK    3  A    between atoms: C_11  and  C_12 
DOCKED: REMARK    4  A    between atoms: C_12  and  O_14 
DOCKED: REMARK    5  A    between atoms: C_17  and  C_20 
DOCKED: REMARK    6  A    between atoms: C_24  and  C_27 
DOCKED: REMARK    7  A    between atoms: C_31  and  C_34 
DOCKED: REMARK    8  A    between atoms: C_34  and  C_35 
DOCKED: REMARK    9  A    between atoms: C_35  and  C_36 
DOCKED: REMARK   10  A    between atoms: C_36  and  O_38 
DOCKED: USER                              x       y       z     vdW  Elec       q    Type
DOCKED: USER                           _______ _______ _______ _____ _____    ______ ____
DOCKED: ROOT
DOCKED: ATOM      1  C   UNL d   1     -11.873  -0.017   2.924 -0.20 +0.04    +0.064 A 
DOCKED: ATOM      2  C   UNL d   1      -7.855   1.613   0.985 -0.38 +0.01    +0.064 A 
DOCKED: ATOM      3  C   UNL d   1      -5.822   2.028   5.320 -0.35 +0.00    +0.064 C 
DOCKED: ATOM      4  C   UNL d   1      -9.781  -0.098   7.289 -0.20 +0.01    +0.064 A 
DOCKED: ATOM      5  C   UNL d   1     -10.945   0.391   2.043 -0.28 +0.03    +0.066 A 
DOCKED: ATOM      6  C   UNL d   1     -11.150   0.448   0.661 -0.30 -0.01    -0.021 A 
DOCKED: ATOM      7  C   UNL d   1      -9.973   0.878   0.095 -0.35 -0.01    -0.025 A 
DOCKED: ATOM      8  C   UNL d   1      -9.097   1.119   1.150 -0.35 +0.02    +0.066 A 
DOCKED: ATOM      9  C   UNL d   1      -9.726   1.011  -1.392 -0.10 +0.01    +0.051 C 
DOCKED: ATOM     10  C   UNL d   1      -6.900   1.907   2.054 -0.35 +0.01    +0.066 A 
DOCKED: ATOM     11  C   UNL d   1      -5.687   2.571   1.841 -0.40 -0.00    -0.021 A 
DOCKED: ATOM     12  C   UNL d   1      -5.094   2.716   3.081 -0.39 +0.00    +0.000 A 
DOCKED: ATOM     13  C   UNL d   1      -5.994   2.108   4.000 -0.33 +0.00    +0.070 A 
DOCKED: ATOM     14  C   UNL d   1      -5.129   3.070   0.513 -0.50 -0.00    +0.052 C 
DOCKED: ATOM     15  C   UNL d   1      -6.691   1.390   6.279 -0.36 +0.00    +0.066 A 
DOCKED: ATOM     16  C   UNL d   1      -6.377   1.196   7.624 -0.45 -0.00    -0.021 A 
DOCKED: ATOM     17  C   UNL d   1      -7.491   0.590   8.205 -0.45 +0.00    +0.000 A 
DOCKED: ATOM     18  C   UNL d   1      -8.414   0.461   7.158 -0.37 +0.01    +0.070 A 
DOCKED: ATOM     19  C   UNL d   1      -5.036   1.551   8.214 -0.53 -0.00    +0.052 C 
DOCKED: ATOM     20  C   UNL d   1     -10.675  -0.276   6.298 -0.38 +0.01    +0.066 A 
DOCKED: ATOM     21  C   UNL d   1     -11.955  -0.791   6.485 -0.33 -0.00    -0.025 A 
DOCKED: ATOM     22  C   UNL d   1     -12.575  -0.750   5.257 -0.33 -0.01    -0.021 A 
DOCKED: ATOM     23  C   UNL d   1     -11.641  -0.226   4.358 -0.20 +0.02    +0.066 A 
DOCKED: ATOM     24  C   UNL d   1     -12.554  -1.300   7.771 -0.36 +0.00    +0.051 C 
DOCKED: ATOM     25  N   UNL d   1      -9.675   0.756   2.345 -0.20 -0.08    -0.248 N 
DOCKED: ATOM     26  N   UNL d   1      -7.087   1.614   3.366 -0.16 -0.03    -0.248 N 
DOCKED: ATOM     27  N   UNL d   1      -7.884   0.882   5.982 -0.02 -0.06    -0.248 N 
DOCKED: ATOM     28  N   UNL d   1     -10.473   0.019   4.986 -0.24 -0.07    -0.248 N 
DOCKED: ATOM     29 FE   UNL d   1      -8.791   0.810   4.185 -0.08 +0.00    +0.000 Fe
DOCKED: ATOM     30  O   UNL d   1      -8.206  -0.279   3.239 -0.48 +0.00    +0.000 OA
DOCKED: ATOM     31  O   UNL d   1      -8.417  -0.602   4.766 -0.79 +0.00    +0.000 OA
DOCKED: ENDROOT
DOCKED: BRANCH   6  32
DOCKED: ATOM     32  C   UNL d   1     -12.357  -0.015  -0.113 -0.26 +0.05    +0.052 C 
DOCKED: BRANCH  32  33
DOCKED: ATOM     33  C   UNL d   1     -12.862   1.031  -1.102 -0.16 +0.13    +0.115 C 
DOCKED: BRANCH  33  34
DOCKED: ATOM     34  C   UNL d   1     -12.395   2.423  -0.757 -0.10 +0.17    +0.139 C 
DOCKED: ATOM     35  O   UNL d   1     -12.557   2.851   0.374 -0.42 -1.18    -0.650 OA
DOCKED: BRANCH  34  36
DOCKED: ATOM     36  O   UNL d   1     -11.823   3.222  -1.682 +0.08 -0.42    -0.776 OA
DOCKED: ATOM     37  H   UNL d   1     -11.437   2.871  -2.492 +0.07 +0.05    +0.167 HD
DOCKED: ENDBRANCH  34  36
DOCKED: ENDBRANCH  33  34
DOCKED: ENDBRANCH  32  33
DOCKED: ENDBRANCH   6  32
DOCKED: BRANCH  22  38
DOCKED: ATOM     38  C   UNL d   1     -13.966  -1.248   4.958 -0.11 +0.02    +0.052 C 
DOCKED: BRANCH  38  39
DOCKED: ATOM     39  C   UNL d   1     -14.038  -2.772   4.902 -0.26 +0.05    +0.115 C 
DOCKED: BRANCH  39  40
DOCKED: ATOM     40  C   UNL d   1     -14.437  -3.281   3.540 -0.20 +0.10    +0.139 C 
DOCKED: ATOM     41  O   UNL d   1     -15.392  -4.033   3.429 +0.06 -0.53    -0.650 OA
DOCKED: BRANCH  40  42
DOCKED: ATOM     42  O   UNL d   1     -13.788  -2.880   2.430 -0.37 -0.88    -0.776 OA
DOCKED: ATOM     43  H   UNL d   1     -13.155  -2.152   2.451 +0.06 +0.15    +0.167 HD
DOCKED: ENDBRANCH  40  42
DOCKED: ENDBRANCH  39  40
DOCKED: ENDBRANCH  38  39
DOCKED: ENDBRANCH  22  38
DOCKED: BRANCH  12  44
DOCKED: ATOM     44  C   UNL d   1      -3.756   3.403   3.258 -0.47 -0.00    +0.004 C 
DOCKED: ATOM     45  C   UNL d   1      -3.066   3.575   4.385 -0.56 -0.00    +0.012 C 
DOCKED: ENDBRANCH  12  44
DOCKED: BRANCH  17  46
DOCKED: ATOM     46  C   UNL d   1      -7.724   0.089   9.606 -0.36 +0.00    +0.004 C 
DOCKED: ATOM     47  C   UNL d   1      -7.058  -0.868  10.265 -0.64 +0.00    +0.012 C 
DOCKED: ENDBRANCH  17  46
DOCKED: TORSDOF 10
DOCKED: TER
DOCKED: ENDMDL
________________________________________________________________________________


	BEGINNING GENETIC ALGORITHM DOCKING 99 of 100
Run: 99 Seed: 500565951 2023655763 [ Run 99 of 100 GA/GALS ]
Beginning LAMARCKIAN GENETIC ALGORITHM (LGA), with a maximum of 25000000 energy evaluations.

Final-Value: -18.691


	FINAL GENETIC ALGORITHM DOCKED STATE
	_______________________________________________


Detailed state:  trans -9.863 0.721 3.863 quatxyzw -0.886128 0.011295 -0.423942 0.186876 center 8.287 34.468 -0.670 ntor 10 51.9428 167.7267 -0.5788 -57.4197 35.4399 -13.3498 14.3595 66.6828 -50.6435 162.8101
State:	 -9.863   0.721   3.863  -0.902  0.011 -0.432 158.459     51.94  167.73   -0.58  -57.42   35.44  -13.35   14.36   66.68  -50.64  162.81

DOCKED: MODEL       99
DOCKED: USER    Run = 99
DOCKED: USER    DPF = D:/Protein_go_brrr/autodock/final/AncMH_nat/heme_O2/dock.dpf
DOCKED: USER  
DOCKED: USER    Estimated Free Energy of Binding    =  -13.79 kcal/mol  [=(1)+(2)+(3)-(4)]
DOCKED: USER    Estimated Inhibition Constant, Ki   =   78.33 pM (picomolar)  [Temperature = 298.15 K]
DOCKED: USER    
DOCKED: USER    (1) Final Intermolecular Energy     =  -16.77 kcal/mol
DOCKED: USER        vdW + Hbond + desolv Energy     =  -13.70 kcal/mol
DOCKED: USER        Electrostatic Energy            =   -3.07 kcal/mol
DOCKED: USER    (2) Final Total Internal Energy     =   -1.92 kcal/mol
DOCKED: USER    (3) Torsional Free Energy           =   +2.98 kcal/mol
DOCKED: USER    (4) Unbound System's Energy  [=(2)] =   -1.92 kcal/mol
DOCKED: USER    
DOCKED: USER    
DOCKED: USER    NEWDPF move heme_O2_opt.pdbqt
DOCKED: USER    NEWDPF about 8.287000 34.468000 -0.670000
DOCKED: USER    NEWDPF tran0 -9.862819 0.720611 3.863433
DOCKED: USER    NEWDPF quaternion0 -0.886128 0.011295 -0.423942 0.186876
DOCKED: USER    NEWDPF axisangle0 -0.902018 0.011497 -0.431545 158.458982
DOCKED: USER    NEWDPF quat0 -0.902018 0.011497 -0.431545 158.458982
DOCKED: USER    NEWDPF dihe0 51.94 167.73 -0.58 -57.42 35.44 -13.35 14.36 66.68 -50.64 162.81 
DOCKED: USER  keepresnum = 1 
DOCKED: USER  
DOCKED: REMARK  10 active torsions:
DOCKED: REMARK  status: ('A' for Active; 'I' for Inactive)
DOCKED: REMARK    1  A    between atoms: C_6  and  C_10 
DOCKED: REMARK    2  A    between atoms: C_10  and  C_11 
DOCKED: REMARK    3  A    between atoms: C_11  and  C_12 
DOCKED: REMARK    4  A    between atoms: C_12  and  O_14 
DOCKED: REMARK    5  A    between atoms: C_17  and  C_20 
DOCKED: REMARK    6  A    between atoms: C_24  and  C_27 
DOCKED: REMARK    7  A    between atoms: C_31  and  C_34 
DOCKED: REMARK    8  A    between atoms: C_34  and  C_35 
DOCKED: REMARK    9  A    between atoms: C_35  and  C_36 
DOCKED: REMARK   10  A    between atoms: C_36  and  O_38 
DOCKED: USER                              x       y       z     vdW  Elec       q    Type
DOCKED: USER                           _______ _______ _______ _____ _____    ______ ____
DOCKED: ROOT
DOCKED: ATOM      1  C   UNL d   1     -11.765   0.175   3.101 -0.23 +0.03    +0.064 A 
DOCKED: ATOM      2  C   UNL d   1      -7.757   1.610   0.996 -0.38 +0.01    +0.064 A 
DOCKED: ATOM      3  C   UNL d   1      -5.573   2.060   5.253 -0.31 +0.00    +0.064 C 
DOCKED: ATOM      4  C   UNL d   1      -9.539   0.128   7.400 -0.27 +0.01    +0.064 A 
DOCKED: ATOM      5  C   UNL d   1     -10.853   0.526   2.181 -0.28 +0.03    +0.066 A 
DOCKED: ATOM      6  C   UNL d   1     -11.099   0.556   0.805 -0.30 -0.01    -0.021 A 
DOCKED: ATOM      7  C   UNL d   1      -9.926   0.930   0.191 -0.35 -0.01    -0.025 A 
DOCKED: ATOM      8  C   UNL d   1      -9.009   1.165   1.213 -0.35 +0.02    +0.066 A 
DOCKED: ATOM      9  C   UNL d   1      -9.722   1.017  -1.305 -0.13 +0.01    +0.051 C 
DOCKED: ATOM     10  C   UNL d   1      -6.758   1.896   2.027 -0.36 +0.01    +0.066 A 
DOCKED: ATOM     11  C   UNL d   1      -5.530   2.511   1.759 -0.40 -0.00    -0.021 A 
DOCKED: ATOM     12  C   UNL d   1      -4.893   2.666   2.976 -0.38 -0.00    +0.000 A 
DOCKED: ATOM     13  C   UNL d   1      -5.784   2.113   3.938 -0.33 +0.00    +0.070 A 
DOCKED: ATOM     14  C   UNL d   1      -4.998   2.957   0.402 -0.52 -0.00    +0.052 C 
DOCKED: ATOM     15  C   UNL d   1      -6.433   1.478   6.255 -0.36 +0.00    +0.066 A 
DOCKED: ATOM     16  C   UNL d   1      -6.083   1.306   7.594 -0.44 -0.00    -0.021 A 
DOCKED: ATOM     17  C   UNL d   1      -7.198   0.756   8.226 -0.45 +0.00    +0.000 A 
DOCKED: ATOM     18  C   UNL d   1      -8.159   0.633   7.212 -0.37 +0.01    +0.070 A 
DOCKED: ATOM     19  C   UNL d   1      -4.712   1.627   8.134 -0.50 -0.00    +0.052 C 
DOCKED: ATOM     20  C   UNL d   1     -10.471  -0.043   6.441 -0.38 +0.01    +0.066 A 
DOCKED: ATOM     21  C   UNL d   1     -11.761  -0.507   6.682 -0.35 -0.00    -0.025 A 
DOCKED: ATOM     22  C   UNL d   1     -12.418  -0.475   5.472 -0.34 -0.01    -0.021 A 
DOCKED: ATOM     23  C   UNL d   1     -11.495  -0.007   4.532 -0.26 +0.02    +0.066 A 
DOCKED: ATOM     24  C   UNL d   1     -12.336  -0.962   7.998 -0.47 +0.00    +0.051 C 
DOCKED: ATOM     25  N   UNL d   1      -9.561   0.853   2.434 -0.20 -0.08    -0.248 N 
DOCKED: ATOM     26  N   UNL d   1      -6.914   1.643   3.351 -0.19 -0.03    -0.248 N 
DOCKED: ATOM     27  N   UNL d   1      -7.652   1.006   6.009 -0.10 -0.05    -0.248 N 
DOCKED: ATOM     28  N   UNL d   1     -10.299   0.211   5.117 -0.24 -0.07    -0.248 N 
DOCKED: ATOM     29 FE   UNL d   1      -8.618   0.922   4.243 -0.08 +0.00    +0.000 Fe
DOCKED: ATOM     30  O   UNL d   1      -8.102  -0.211   3.308 -0.50 +0.00    +0.000 OA
DOCKED: ATOM     31  O   UNL d   1      -8.275  -0.489   4.849 -0.83 +0.00    +0.000 OA
DOCKED: ENDROOT
DOCKED: BRANCH   6  32
DOCKED: ATOM     32  C   UNL d   1     -12.346   0.118   0.081 -0.27 +0.05    +0.052 C 
DOCKED: BRANCH  32  33
DOCKED: ATOM     33  C   UNL d   1     -13.617   0.365   0.888 +0.06 +0.20    +0.115 C 
DOCKED: BRANCH  33  34
DOCKED: ATOM     34  C   UNL d   1     -14.817  -0.332   0.297 -0.09 +0.23    +0.139 C 
DOCKED: ATOM     35  O   UNL d   1     -15.747   0.331  -0.136 -0.20 -1.52    -0.650 OA
DOCKED: BRANCH  34  36
DOCKED: ATOM     36  O   UNL d   1     -14.902  -1.678   0.261 +0.14 -1.06    -0.776 OA
DOCKED: ATOM     37  H   UNL d   1     -14.773  -2.219   1.048 +0.03 +0.23    +0.167 HD
DOCKED: ENDBRANCH  34  36
DOCKED: ENDBRANCH  33  34
DOCKED: ENDBRANCH  32  33
DOCKED: ENDBRANCH   6  32
DOCKED: BRANCH  22  38
DOCKED: ATOM     38  C   UNL d   1     -13.834  -0.930   5.230 +0.00 +0.02    +0.052 C 
DOCKED: BRANCH  38  39
DOCKED: ATOM     39  C   UNL d   1     -13.904  -2.370   4.727 -0.26 +0.05    +0.115 C 
DOCKED: BRANCH  39  40
DOCKED: ATOM     40  C   UNL d   1     -14.434  -2.464   3.318 -0.20 +0.11    +0.139 C 
DOCKED: ATOM     41  O   UNL d   1     -13.838  -3.134   2.489 -0.42 -0.78    -0.650 OA
DOCKED: BRANCH  40  42
DOCKED: ATOM     42  O   UNL d   1     -15.586  -1.861   2.967 +0.08 -0.67    -0.776 OA
DOCKED: ATOM     43  H   UNL d   1     -15.864  -1.801   2.045 +0.05 +0.17    +0.167 HD
DOCKED: ENDBRANCH  40  42
DOCKED: ENDBRANCH  39  40
DOCKED: ENDBRANCH  38  39
DOCKED: ENDBRANCH  22  38
DOCKED: BRANCH  12  44
DOCKED: ATOM     44  C   UNL d   1      -3.527   3.309   3.093 -0.47 -0.00    +0.004 C 
DOCKED: ATOM     45  C   UNL d   1      -2.851   3.597   4.204 -0.57 -0.00    +0.012 C 
DOCKED: ENDBRANCH  12  44
DOCKED: BRANCH  17  46
DOCKED: ATOM     46  C   UNL d   1      -7.405   0.298   9.645 -0.25 +0.00    +0.004 C 
DOCKED: ATOM     47  C   UNL d   1      -6.791  -0.703  10.291 -0.69 +0.00    +0.012 C 
DOCKED: ENDBRANCH  17  46
DOCKED: TORSDOF 10
DOCKED: TER
DOCKED: ENDMDL
________________________________________________________________________________


	BEGINNING GENETIC ALGORITHM DOCKING 100 of 100
Run: 100 Seed: 1327800483 1994384159 [ Run 100 of 100 GA/GALS ]
Beginning LAMARCKIAN GENETIC ALGORITHM (LGA), with a maximum of 25000000 energy evaluations.

Final-Value: -9.918


	FINAL GENETIC ALGORITHM DOCKED STATE
	_______________________________________________


Detailed state:  trans -9.743 -4.929 20.526 quatxyzw -0.587065 0.545747 -0.190668 -0.566710 center 8.287 34.468 -0.670 ntor 10 15.8743 -15.0757 108.7291 -117.9980 36.1607 -84.3920 98.6156 -86.1757 -146.6675 -171.0964
State:	 -9.743  -4.929  20.526  -0.713  0.662 -0.231 -110.958     15.87  -15.08  108.73 -118.00   36.16  -84.39   98.62  -86.18 -146.67 -171.10

DOCKED: MODEL      100
DOCKED: USER    Run = 100
DOCKED: USER    DPF = D:/Protein_go_brrr/autodock/final/AncMH_nat/heme_O2/dock.dpf
DOCKED: USER  
DOCKED: USER    Estimated Free Energy of Binding    =   -6.25 kcal/mol  [=(1)+(2)+(3)-(4)]
DOCKED: USER    Estimated Inhibition Constant, Ki   =   26.39 uM (micromolar)  [Temperature = 298.15 K]
DOCKED: USER    
DOCKED: USER    (1) Final Intermolecular Energy     =   -9.23 kcal/mol
DOCKED: USER        vdW + Hbond + desolv Energy     =   -7.94 kcal/mol
DOCKED: USER        Electrostatic Energy            =   -1.29 kcal/mol
DOCKED: USER    (2) Final Total Internal Energy     =   -0.69 kcal/mol
DOCKED: USER    (3) Torsional Free Energy           =   +2.98 kcal/mol
DOCKED: USER    (4) Unbound System's Energy  [=(2)] =   -0.69 kcal/mol
DOCKED: USER    
DOCKED: USER    
DOCKED: USER    NEWDPF move heme_O2_opt.pdbqt
DOCKED: USER    NEWDPF about 8.287000 34.468000 -0.670000
DOCKED: USER    NEWDPF tran0 -9.743340 -4.928520 20.526175
DOCKED: USER    NEWDPF quaternion0 -0.587065 0.545747 -0.190668 -0.566710
DOCKED: USER    NEWDPF axisangle0 -0.712529 0.662381 -0.231417 -110.957761
DOCKED: USER    NEWDPF quat0 -0.712529 0.662381 -0.231417 -110.957761
DOCKED: USER    NEWDPF dihe0 15.87 -15.08 108.73 -118.00 36.16 -84.39 98.62 -86.18 -146.67 -171.10 
DOCKED: USER  keepresnum = 1 
DOCKED: USER  
DOCKED: REMARK  10 active torsions:
DOCKED: REMARK  status: ('A' for Active; 'I' for Inactive)
DOCKED: REMARK    1  A    between atoms: C_6  and  C_10 
DOCKED: REMARK    2  A    between atoms: C_10  and  C_11 
DOCKED: REMARK    3  A    between atoms: C_11  and  C_12 
DOCKED: REMARK    4  A    between atoms: C_12  and  O_14 
DOCKED: REMARK    5  A    between atoms: C_17  and  C_20 
DOCKED: REMARK    6  A    between atoms: C_24  and  C_27 
DOCKED: REMARK    7  A    between atoms: C_31  and  C_34 
DOCKED: REMARK    8  A    between atoms: C_34  and  C_35 
DOCKED: REMARK    9  A    between atoms: C_35  and  C_36 
DOCKED: REMARK   10  A    between atoms: C_36  and  O_38 
DOCKED: USER                              x       y       z     vdW  Elec       q    Type
DOCKED: USER                           _______ _______ _______ _____ _____    ______ ____
DOCKED: ROOT
DOCKED: ATOM      1  C   UNL d   1     -11.293  -3.549  20.966 -0.11 -0.00    +0.064 A 
DOCKED: ATOM      2  C   UNL d   1      -6.622  -3.509  21.828 -0.10 -0.01    +0.064 A 
DOCKED: ATOM      3  C   UNL d   1      -6.112  -7.819  19.764 -0.27 -0.01    +0.064 C 
DOCKED: ATOM      4  C   UNL d   1     -10.834  -7.657  18.446 -0.17 +0.01    +0.064 A 
DOCKED: ATOM      5  C   UNL d   1     -10.064  -3.186  21.368 -0.11 -0.01    +0.066 A 
DOCKED: ATOM      6  C   UNL d   1      -9.781  -1.994  22.042 -0.09 +0.00    -0.021 A 
DOCKED: ATOM      7  C   UNL d   1      -8.422  -1.962  22.254 -0.08 +0.00    -0.025 A 
DOCKED: ATOM      8  C   UNL d   1      -7.920  -3.157  21.746 -0.11 -0.01    +0.066 A 
DOCKED: ATOM      9  C   UNL d   1      -7.673  -0.811  22.889 -0.04 -0.01    +0.051 C 
DOCKED: ATOM     10  C   UNL d   1      -6.040  -4.758  21.334 -0.05 -0.01    +0.066 A 
DOCKED: ATOM     11  C   UNL d   1      -4.721  -5.146  21.591 -0.10 +0.01    -0.021 A 
DOCKED: ATOM     12  C   UNL d   1      -4.560  -6.395  21.019 -0.20 -0.00    +0.000 A 
DOCKED: ATOM     13  C   UNL d   1      -5.814  -6.699  20.422 -0.20 -0.01    +0.070 A 
DOCKED: ATOM     14  C   UNL d   1      -3.666  -4.371  22.373 -0.09 -0.01    +0.052 C 
DOCKED: ATOM     15  C   UNL d   1      -7.358  -8.149  19.115 -0.23 -0.00    +0.066 A 
DOCKED: ATOM     16  C   UNL d   1      -7.554  -9.265  18.302 -0.24 -0.00    -0.021 A 
DOCKED: ATOM     17  C   UNL d   1      -8.894  -9.240  17.914 -0.23 +0.00    +0.000 A 
DOCKED: ATOM     18  C   UNL d   1      -9.421  -8.096  18.529 -0.19 +0.01    +0.070 A 
DOCKED: ATOM     19  C   UNL d   1      -6.445 -10.215  17.927 -0.15 +0.00    +0.052 C 
DOCKED: ATOM     20  C   UNL d   1     -11.364  -6.543  18.988 -0.14 +0.01    +0.066 A 
DOCKED: ATOM     21  C   UNL d   1     -12.707  -6.191  18.891 -0.17 -0.01    -0.025 A 
DOCKED: ATOM     22  C   UNL d   1     -12.862  -5.037  19.626 -0.13 -0.00    -0.021 A 
DOCKED: ATOM     23  C   UNL d   1     -11.598  -4.716  20.131 -0.13 +0.00    +0.066 A 
DOCKED: ATOM     24  C   UNL d   1     -13.788  -6.916  18.132 -0.10 +0.04    +0.051 C 
DOCKED: ATOM     25  N   UNL d   1      -8.922  -3.880  21.142 -0.10 +0.02    -0.248 N 
DOCKED: ATOM     26  N   UNL d   1      -6.708  -5.696  20.615 -0.11 +0.03    -0.248 N 
DOCKED: ATOM     27  N   UNL d   1      -8.458  -7.406  19.192 -0.14 +0.00    -0.248 N 
DOCKED: ATOM     28  N   UNL d   1     -10.682  -5.610  19.704 -0.10 -0.02    -0.248 N 
DOCKED: ATOM     29 FE   UNL d   1      -8.709  -5.655  20.154 -0.04 -0.00    +0.000 Fe
DOCKED: ATOM     30  O   UNL d   1      -8.067  -4.444  19.416 -0.42 -0.00    +0.000 OA
DOCKED: ATOM     31  O   UNL d   1      -8.834  -5.545  18.590 -0.48 -0.00    +0.000 OA
DOCKED: ENDROOT
DOCKED: BRANCH   6  32
DOCKED: ATOM     32  C   UNL d   1     -10.727  -0.864  22.356 -0.06 -0.01    +0.052 C 
DOCKED: BRANCH  32  33
DOCKED: ATOM     33  C   UNL d   1     -11.287  -0.196  21.104 -0.06 -0.03    +0.115 C 
DOCKED: BRANCH  33  34
DOCKED: ATOM     34  C   UNL d   1     -10.354   0.847  20.541 -0.05 -0.04    +0.139 C 
DOCKED: ATOM     35  O   UNL d   1     -10.692   2.020  20.537 +0.01 +0.12    -0.650 OA
DOCKED: BRANCH  34  36
DOCKED: ATOM     36  O   UNL d   1      -9.158   0.511  20.014 -0.07 +0.22    -0.776 OA
DOCKED: ATOM     37  H   UNL d   1      -8.946  -0.397  19.766 -0.34 -0.04    +0.167 HD
DOCKED: ENDBRANCH  34  36
DOCKED: ENDBRANCH  33  34
DOCKED: ENDBRANCH  32  33
DOCKED: ENDBRANCH   6  32
DOCKED: BRANCH  22  38
DOCKED: ATOM     38  C   UNL d   1     -14.142  -4.256  19.776 -0.09 +0.01    +0.052 C 
DOCKED: BRANCH  38  39
DOCKED: ATOM     39  C   UNL d   1     -14.561  -3.571  18.478 -0.16 +0.04    +0.115 C 
DOCKED: BRANCH  39  40
DOCKED: ATOM     40  C   UNL d   1     -15.503  -4.417  17.658 +0.05 +0.14    +0.139 C 
DOCKED: ATOM     41  O   UNL d   1     -16.578  -4.755  18.127 -0.30 -0.80    -0.650 OA
DOCKED: BRANCH  40  42
DOCKED: ATOM     42  O   UNL d   1     -15.202  -4.766  16.392 -0.27 -1.00    -0.776 OA
DOCKED: ATOM     43  H   UNL d   1     -14.474  -4.351  15.914 -0.52 +0.06    +0.167 HD
DOCKED: ENDBRANCH  40  42
DOCKED: ENDBRANCH  39  40
DOCKED: ENDBRANCH  38  39
DOCKED: ENDBRANCH  22  38
DOCKED: BRANCH  12  44
DOCKED: ATOM     44  C   UNL d   1      -3.250  -7.152  21.097 -0.22 -0.00    +0.004 C 
DOCKED: ATOM     45  C   UNL d   1      -2.133  -6.928  20.406 -0.27 -0.01    +0.012 C 
DOCKED: ENDBRANCH  12  44
DOCKED: BRANCH  17  46
DOCKED: ATOM     46  C   UNL d   1      -9.674 -10.142  16.995 -0.31 +0.00    +0.004 C 
DOCKED: ATOM     47  C   UNL d   1     -10.390  -9.805  15.915 -0.48 +0.01    +0.012 C 
DOCKED: ENDBRANCH  17  46
DOCKED: TORSDOF 10
DOCKED: TER
DOCKED: ENDMDL
________________________________________________________________________________

DPF> analysis                             # perform a ranked cluster analysis


		CLUSTER ANALYSIS OF CONFORMATIONS
		_________________________________

Number of conformations = 100

RMSD cluster analysis will be performed using the ligand atoms only (47 / 47 total atoms).

Outputting structurally similar clusters, ranked in order of increasing energy.


________________________________________________________________________________

Number of distinct conformational clusters found = 32,  out of 100 runs,
Using an rmsd-tolerance of 2.0 A


	CLUSTERING HISTOGRAM
	____________________

________________________________________________________________________________
     |           |     |           |     |                                    
Clus | Lowest    | Run | Mean      | Num | Histogram                          
-ter | Binding   |     | Binding   | in  |                                    
Rank | Energy    |     | Energy    | Clus|    5    10   15   20   25   30   35
_____|___________|_____|___________|_____|____:____|____:____|____:____|____:___
   1 |    -14.18 |  88 |    -13.35 |  27 |###########################
   2 |    -13.25 |  98 |    -13.25 |   1 |#
   3 |    -10.53 |  57 |    -10.53 |   1 |#
   4 |    -10.18 |  15 |     -8.78 |  18 |##################
   5 |     -9.45 |   9 |     -8.69 |  11 |###########
   6 |     -9.26 |  26 |     -8.48 |   3 |###
   7 |     -8.98 |  11 |     -8.52 |   2 |##
   8 |     -8.08 |  58 |     -7.87 |   2 |##
   9 |     -7.97 |   3 |     -7.42 |   2 |##
  10 |     -7.53 |   5 |     -7.53 |   1 |#
  11 |     -7.52 |  66 |     -7.36 |   3 |###
  12 |     -7.46 |  37 |     -6.94 |   3 |###
  13 |     -7.12 |  20 |     -6.56 |   2 |##
  14 |     -7.08 |  56 |     -6.77 |   2 |##
  15 |     -6.97 |  84 |     -6.97 |   1 |#
  16 |     -6.87 |  78 |     -6.17 |   3 |###
  17 |     -6.68 |  27 |     -6.68 |   1 |#
  18 |     -6.45 |  31 |     -6.45 |   1 |#
  19 |     -6.35 |  30 |     -6.35 |   1 |#
  20 |     -6.34 |  95 |     -5.79 |   2 |##
  21 |     -6.33 |  10 |     -6.33 |   1 |#
  22 |     -6.25 | 100 |     -6.25 |   1 |#
  23 |     -6.09 |  46 |     -6.09 |   1 |#
  24 |     -6.05 |  97 |     -6.05 |   1 |#
  25 |     -5.95 |   4 |     -5.95 |   1 |#
  26 |     -5.63 |  32 |     -5.63 |   1 |#
  27 |     -5.63 |  34 |     -5.63 |   1 |#
  28 |     -5.36 |  39 |     -5.36 |   1 |#
  29 |     -5.14 |  13 |     -5.13 |   2 |##
  30 |     -5.10 |  62 |     -5.10 |   1 |#
  31 |     -4.53 |  59 |     -4.53 |   1 |#
  32 |     -4.10 |   2 |     -4.10 |   1 |#
_____|___________|_____|___________|_____|______________________________________


Number of multi-member conformational clusters found = 14, out of 100 runs.

	RMSD TABLE
	__________

_____________________________________________________________________
     |      |      |           |         |                 |
Rank | Sub- | Run  | Binding   | Cluster | Reference       | Grep
     | Rank |      | Energy    | RMSD    | RMSD            | Pattern
_____|______|______|___________|_________|_________________|___________
   1      1     88      -14.18      0.00     36.28           RANKING
   1      2     45      -14.14      1.01     36.07           RANKING
   1      3     86      -14.11      1.13     36.08           RANKING
   1      4     61      -14.00      0.36     36.30           RANKING
   1      5     54      -13.80      1.17     36.24           RANKING
   1      6     99      -13.79      1.07     36.10           RANKING
   1      7     64      -13.78      1.16     36.12           RANKING
   1      8     87      -13.77      1.12     36.20           RANKING
   1      9     76      -13.74      0.58     36.32           RANKING
   1     10     92      -13.71      0.43     36.32           RANKING
   1     11     89      -13.66      0.89     36.17           RANKING
   1     12      1      -13.65      1.59     35.88           RANKING
   1     13     28      -13.58      0.71     36.24           RANKING
   1     14     91      -13.57      1.36     35.91           RANKING
   1     15     33      -13.53      0.60     36.24           RANKING
   1     16     18      -13.41      1.34     36.28           RANKING
   1     17     68      -13.15      1.61     35.94           RANKING
   1     18     77      -13.09      1.18     36.29           RANKING
   1     19      8      -13.09      1.50     35.97           RANKING
   1     20     83      -13.05      1.73     35.94           RANKING
   1     21     51      -13.03      1.05     36.34           RANKING
   1     22     14      -12.98      1.32     35.80           RANKING
   1     23     29      -12.92      1.66     35.87           RANKING
   1     24     50      -12.90      1.68     35.98           RANKING
   1     25     81      -12.39      1.20     36.34           RANKING
   1     26     22      -11.91      1.19     36.35           RANKING
   1     27     70      -11.39      1.50     35.90           RANKING
   2      1     98      -13.25      0.00     35.85           RANKING
   3      1     57      -10.53      0.00     35.15           RANKING
   4      1     15      -10.18      0.00     38.63           RANKING
   4      2     79      -10.17      1.42     38.06           RANKING
   4      3     17      -10.11      1.41     38.09           RANKING
   4      4     40       -9.98      0.89     38.39           RANKING
   4      5     72       -9.96      1.23     38.24           RANKING
   4      6     53       -9.90      0.53     38.53           RANKING
   4      7     73       -9.67      1.67     39.18           RANKING
   4      8     12       -9.27      1.42     38.15           RANKING
   4      9     48       -8.64      1.59     39.09           RANKING
   4     10     44       -8.40      1.34     38.71           RANKING
   4     11     85       -8.21      1.63     38.91           RANKING
   4     12     47       -8.15      1.24     38.37           RANKING
   4     13     67       -8.05      1.11     38.45           RANKING
   4     14     74       -8.01      1.24     38.52           RANKING
   4     15     25       -8.00      1.33     38.55           RANKING
   4     16     90       -7.92      1.91     37.94           RANKING
   4     17     71       -7.45      1.98     39.39           RANKING
   4     18     65       -5.97      1.74     39.44           RANKING
   5      1      9       -9.45      0.00     38.48           RANKING
   5      2     36       -9.20      0.35     38.46           RANKING
   5      3     16       -9.05      0.38     38.65           RANKING
   5      4     49       -8.84      0.90     38.12           RANKING
   5      5     21       -8.82      0.49     38.50           RANKING
   5      6     38       -8.76      0.83     38.48           RANKING
   5      7     19       -8.72      0.39     38.52           RANKING
   5      8      6       -8.54      1.76     39.01           RANKING
   5      9     63       -8.46      0.82     38.39           RANKING
   5     10     43       -7.92      1.22     38.89           RANKING
   5     11     75       -7.80      0.79     38.71           RANKING
   6      1     26       -9.26      0.00     39.23           RANKING
   6      2     42       -8.97      1.76     38.16           RANKING
   6      3     52       -7.22      1.81     39.65           RANKING
   7      1     11       -8.98      0.00     36.92           RANKING
   7      2     35       -8.06      0.52     36.88           RANKING
   8      1     58       -8.08      0.00     40.62           RANKING
   8      2     93       -7.66      0.91     40.49           RANKING
   9      1      3       -7.97      0.00     37.65           RANKING
   9      2     82       -6.87      1.48     38.21           RANKING
  10      1      5       -7.53      0.00     40.82           RANKING
  11      1     66       -7.52      0.00     36.31           RANKING
  11      2     94       -7.34      1.90     36.91           RANKING
  11      3     96       -7.23      1.87     36.16           RANKING
  12      1     37       -7.46      0.00     31.77           RANKING
  12      2     55       -7.21      1.06     31.94           RANKING
  12      3     23       -6.14      1.85     32.24           RANKING
  13      1     20       -7.12      0.00     48.08           RANKING
  13      2      7       -6.00      1.95     46.89           RANKING
  14      1     56       -7.08      0.00     36.08           RANKING
  14      2     41       -6.45      1.85     35.23           RANKING
  15      1     84       -6.97      0.00     39.31           RANKING
  16      1     78       -6.87      0.00     37.59           RANKING
  16      2     69       -5.93      1.44     37.03           RANKING
  16      3     60       -5.71      1.07     38.01           RANKING
  17      1     27       -6.68      0.00     35.54           RANKING
  18      1     31       -6.45      0.00     32.70           RANKING
  19      1     30       -6.35      0.00     18.28           RANKING
  20      1     95       -6.34      0.00     37.45           RANKING
  20      2     80       -5.24      1.05     37.40           RANKING
  21      1     10       -6.33      0.00     35.56           RANKING
  22      1    100       -6.25      0.00     44.43           RANKING
  23      1     46       -6.09      0.00     46.14           RANKING
  24      1     97       -6.05      0.00     35.62           RANKING
  25      1      4       -5.95      0.00     46.25           RANKING
  26      1     32       -5.63      0.00     42.78           RANKING
  27      1     34       -5.63      0.00     41.08           RANKING
  28      1     39       -5.36      0.00     34.18           RANKING
  29      1     13       -5.14      0.00     22.32           RANKING
  29      2     24       -5.13      0.85     21.96           RANKING
  30      1     62       -5.10      0.00     40.86           RANKING
  31      1     59       -4.53      0.00     25.25           RANKING
  32      1      2       -4.10      0.00     45.11           RANKING
_______________________________________________________________________



	INFORMATION ENTROPY ANALYSIS FOR THIS CLUSTERING
	________________________________________________


Information entropy for this clustering = 0.59  (rmstol = 2.00 Angstrom)

_______________________________________________________________________


	STATISTICAL MECHANICAL ANALYSIS
	_______________________________


Partition function, Q =   101.56            at Temperature, T = 298.15 K
Free energy,        A ~ -2737.64 kcal/mol   at Temperature, T = 298.15 K
Internal energy,    U =    -9.17 kcal/mol   at Temperature, T = 298.15 K
Entropy,            S =     9.15 kcal/mol/K at Temperature, T = 298.15 K

_______________________________________________________________________


	LOWEST ENERGY DOCKED CONFORMATION from EACH CLUSTER
	___________________________________________________



Keeping original residue number (specified in the input PDBQ file) for outputting.

MODEL       88
USER    Run = 88
USER    Cluster Rank = 1
USER    Number of conformations in this cluster = 27
USER  
USER    RMSD from reference structure       = 36.284 A
USER  
USER    Estimated Free Energy of Binding    =  -14.18 kcal/mol  [=(1)+(2)+(3)-(4)]
USER    Estimated Inhibition Constant, Ki   =   40.13 pM (picomolar)  [Temperature = 298.15 K]
USER    
USER    (1) Final Intermolecular Energy     =  -17.17 kcal/mol
USER        vdW + Hbond + desolv Energy     =  -15.03 kcal/mol
USER        Electrostatic Energy            =   -2.14 kcal/mol
USER    (2) Final Total Internal Energy     =   -0.19 kcal/mol
USER    (3) Torsional Free Energy           =   +2.98 kcal/mol
USER    (4) Unbound System's Energy  [=(2)] =   -0.19 kcal/mol
USER    
USER    
USER  
USER    DPF = D:/Protein_go_brrr/autodock/final/AncMH_nat/heme_O2/dock.dpf
USER    NEWDPF move	heme_O2_opt.pdbqt
USER    NEWDPF about	8.287000 34.468000 -0.670000
USER    NEWDPF tran0	-9.914348 0.699867 4.401028
USER    NEWDPF axisangle0	0.925033 0.001586 0.379884 -157.663272
USER    NEWDPF quaternion0	0.907515 0.001556 0.372690 -0.193693
USER    NEWDPF dihe0	-171.53 93.51 -4.04 -95.89 -143.86 -147.88 11.09 -53.99 -57.09 -147.69 
USER  
USER                              x       y       z    vdW   Elec        q     RMS 
ATOM      1  C   UNL d   1     -11.892   0.148   3.867 -0.27 +0.03    +0.064    36.284
ATOM      2  C   UNL d   1      -8.147   1.544   1.300 -0.36 +0.01    +0.064    36.284
ATOM      3  C   UNL d   1      -5.494   2.048   5.275 -0.28 +0.00    +0.064    36.284
ATOM      4  C   UNL d   1      -9.191   0.154   7.885 -0.23 +0.01    +0.064    36.284
ATOM      5  C   UNL d   1     -11.089   0.485   2.845 -0.29 +0.03    +0.066    36.284
ATOM      6  C   UNL d   1     -11.490   0.496   1.506 -0.29 -0.01    -0.021    36.284
ATOM      7  C   UNL d   1     -10.395   0.859   0.758 -0.32 -0.01    -0.025    36.284
ATOM      8  C   UNL d   1      -9.368   1.106   1.664 -0.31 +0.02    +0.066    36.284
ATOM      9  C   UNL d   1     -10.362   0.925  -0.754 -0.36 +0.02    +0.051    36.284
ATOM     10  C   UNL d   1      -7.038   1.843   2.207 -0.34 +0.01    +0.066    36.284
ATOM     11  C   UNL d   1      -5.847   2.451   1.793 -0.40 -0.00    -0.021    36.284
ATOM     12  C   UNL d   1      -5.076   2.621   2.928 -0.38 +0.00    +0.000    36.284
ATOM     13  C   UNL d   1      -5.852   2.083   3.992 -0.33 +0.00    +0.070    36.284
ATOM     14  C   UNL d   1      -5.473   2.876   0.378 -0.48 -0.00    +0.052    36.284
ATOM     15  C   UNL d   1      -6.234   1.481   6.377 -0.37 +0.00    +0.066    36.284
ATOM     16  C   UNL d   1      -5.734   1.327   7.669 -0.45 -0.00    -0.021    36.284
ATOM     17  C   UNL d   1      -6.771   0.788   8.431 -0.44 +0.00    +0.000    36.284
ATOM     18  C   UNL d   1      -7.840   0.654   7.535 -0.39 +0.01    +0.070    36.284
ATOM     19  C   UNL d   1      -4.311   1.652   8.045 -0.43 -0.00    +0.052    36.284
ATOM     20  C   UNL d   1     -10.226  -0.027   7.042 -0.32 +0.01    +0.066    36.284
ATOM     21  C   UNL d   1     -11.481  -0.485   7.434 -0.29 -0.00    -0.025    36.284
ATOM     22  C   UNL d   1     -12.271  -0.467   6.307 -0.37 -0.00    -0.021    36.284
ATOM     23  C   UNL d   1     -11.461  -0.015   5.261 -0.36 +0.02    +0.066    36.284
ATOM     24  C   UNL d   1     -11.903  -0.920   8.813 -0.49 +0.00    +0.051    36.284
ATOM     25  N   UNL d   1      -9.777   0.812   2.944 -0.18 -0.08    -0.248    36.284
ATOM     26  N   UNL d   1      -7.042   1.608   3.544 -0.15 -0.03    -0.248    36.284
ATOM     27  N   UNL d   1      -7.474   1.009   6.277 -0.22 -0.03    -0.248    36.284
ATOM     28  N   UNL d   1     -10.206   0.209   5.703 -0.27 -0.06    -0.248    36.284
ATOM     29 FE   UNL d   1      -8.634   0.903   4.634 -0.08 +0.00    +0.000    36.284
ATOM     30  O   UNL d   1      -8.229  -0.243   3.662 -0.57 +0.00    +0.000    36.284
ATOM     31  O   UNL d   1      -8.226  -0.500   5.216 -0.85 +0.00    +0.000    36.284
ATOM     32  C   UNL d   1     -12.812   0.052   0.934 -0.27 +0.06    +0.052    36.284
ATOM     33  C   UNL d   1     -13.959   0.167   1.934 -0.12 +0.17    +0.115    36.284
ATOM     34  C   UNL d   1     -15.227  -0.475   1.431 -0.12 +0.21    +0.139    36.284
ATOM     35  O   UNL d   1     -15.263  -1.682   1.252 -0.01 -0.80    -0.650    36.284
ATOM     36  O   UNL d   1     -16.322   0.259   1.144 -0.33 -1.73    -0.776    36.284
ATOM     37  H   UNL d   1     -17.172  -0.148   0.942 +0.03 +0.25    +0.167    36.284
ATOM     38  C   UNL d   1     -13.706  -0.922   6.233 -0.04 +0.01    +0.052    36.284
ATOM     39  C   UNL d   1     -13.929  -2.260   6.935 -0.35 +0.02    +0.115    36.284
ATOM     40  C   UNL d   1     -15.010  -2.187   7.984 -0.25 +0.02    +0.139    36.284
ATOM     41  O   UNL d   1     -15.549  -1.120   8.225 -0.25 -0.18    -0.650    36.284
ATOM     42  O   UNL d   1     -15.431  -3.294   8.627 +0.05 -0.07    -0.776    36.284
ATOM     43  H   UNL d   1     -15.080  -3.539   9.491 -0.47 -0.01    +0.167    36.284
ATOM     44  C   UNL d   1      -3.705   3.262   2.879 -0.46 -0.00    +0.004    36.284
ATOM     45  C   UNL d   1      -2.933   3.621   3.904 -0.53 -0.00    +0.012    36.284
ATOM     46  C   UNL d   1      -6.815   0.350   9.871 -0.34 +0.00    +0.004    36.284
ATOM     47  C   UNL d   1      -6.771  -0.896  10.360 -0.70 +0.00    +0.012    36.284
TER
ENDMDL
MODEL       98
USER    Run = 98
USER    Cluster Rank = 2
USER    Number of conformations in this cluster = 1
USER  
USER    RMSD from reference structure       = 35.850 A
USER  
USER    Estimated Free Energy of Binding    =  -13.25 kcal/mol  [=(1)+(2)+(3)-(4)]
USER    Estimated Inhibition Constant, Ki   =  192.64 pM (picomolar)  [Temperature = 298.15 K]
USER    
USER    (1) Final Intermolecular Energy     =  -16.24 kcal/mol
USER        vdW + Hbond + desolv Energy     =  -13.84 kcal/mol
USER        Electrostatic Energy            =   -2.40 kcal/mol
USER    (2) Final Total Internal Energy     =   -0.34 kcal/mol
USER    (3) Torsional Free Energy           =   +2.98 kcal/mol
USER    (4) Unbound System's Energy  [=(2)] =   -0.34 kcal/mol
USER    
USER    
USER  
USER    DPF = D:/Protein_go_brrr/autodock/final/AncMH_nat/heme_O2/dock.dpf
USER    NEWDPF move	heme_O2_opt.pdbqt
USER    NEWDPF about	8.287000 34.468000 -0.670000
USER    NEWDPF tran0	-10.015850 0.575695 3.760591
USER    NEWDPF axisangle0	0.894408 -0.004008 0.447233 -160.678565
USER    NEWDPF quaternion0	0.881725 -0.003951 0.440891 -0.167814
USER    NEWDPF dihe0	-20.10 -13.19 6.29 -54.30 99.92 89.92 161.56 64.06 47.10 -176.81 
USER  
USER                              x       y       z    vdW   Elec        q     RMS 
ATOM      1  C   UNL d   1     -11.873  -0.017   2.924 -0.20 +0.04    +0.064    35.850
ATOM      2  C   UNL d   1      -7.855   1.613   0.985 -0.38 +0.01    +0.064    35.850
ATOM      3  C   UNL d   1      -5.822   2.028   5.320 -0.35 +0.00    +0.064    35.850
ATOM      4  C   UNL d   1      -9.781  -0.098   7.289 -0.20 +0.01    +0.064    35.850
ATOM      5  C   UNL d   1     -10.945   0.391   2.043 -0.28 +0.03    +0.066    35.850
ATOM      6  C   UNL d   1     -11.150   0.448   0.661 -0.30 -0.01    -0.021    35.850
ATOM      7  C   UNL d   1      -9.973   0.878   0.095 -0.35 -0.01    -0.025    35.850
ATOM      8  C   UNL d   1      -9.097   1.119   1.150 -0.35 +0.02    +0.066    35.850
ATOM      9  C   UNL d   1      -9.726   1.011  -1.392 -0.10 +0.01    +0.051    35.850
ATOM     10  C   UNL d   1      -6.900   1.907   2.054 -0.35 +0.01    +0.066    35.850
ATOM     11  C   UNL d   1      -5.687   2.571   1.841 -0.40 -0.00    -0.021    35.850
ATOM     12  C   UNL d   1      -5.094   2.716   3.081 -0.39 +0.00    +0.000    35.850
ATOM     13  C   UNL d   1      -5.994   2.108   4.000 -0.33 +0.00    +0.070    35.850
ATOM     14  C   UNL d   1      -5.129   3.070   0.513 -0.50 -0.00    +0.052    35.850
ATOM     15  C   UNL d   1      -6.691   1.390   6.279 -0.36 +0.00    +0.066    35.850
ATOM     16  C   UNL d   1      -6.377   1.196   7.624 -0.45 -0.00    -0.021    35.850
ATOM     17  C   UNL d   1      -7.491   0.590   8.205 -0.45 +0.00    +0.000    35.850
ATOM     18  C   UNL d   1      -8.414   0.461   7.158 -0.37 +0.01    +0.070    35.850
ATOM     19  C   UNL d   1      -5.036   1.551   8.214 -0.53 -0.00    +0.052    35.850
ATOM     20  C   UNL d   1     -10.675  -0.276   6.298 -0.38 +0.01    +0.066    35.850
ATOM     21  C   UNL d   1     -11.955  -0.791   6.485 -0.33 -0.00    -0.025    35.850
ATOM     22  C   UNL d   1     -12.575  -0.750   5.257 -0.33 -0.01    -0.021    35.850
ATOM     23  C   UNL d   1     -11.641  -0.226   4.358 -0.20 +0.02    +0.066    35.850
ATOM     24  C   UNL d   1     -12.554  -1.300   7.771 -0.36 +0.00    +0.051    35.850
ATOM     25  N   UNL d   1      -9.675   0.756   2.345 -0.20 -0.08    -0.248    35.850
ATOM     26  N   UNL d   1      -7.087   1.614   3.366 -0.16 -0.03    -0.248    35.850
ATOM     27  N   UNL d   1      -7.884   0.882   5.982 -0.02 -0.06    -0.248    35.850
ATOM     28  N   UNL d   1     -10.473   0.019   4.986 -0.24 -0.07    -0.248    35.850
ATOM     29 FE   UNL d   1      -8.791   0.810   4.185 -0.08 +0.00    +0.000    35.850
ATOM     30  O   UNL d   1      -8.206  -0.279   3.239 -0.48 +0.00    +0.000    35.850
ATOM     31  O   UNL d   1      -8.417  -0.602   4.766 -0.79 +0.00    +0.000    35.850
ATOM     32  C   UNL d   1     -12.357  -0.015  -0.113 -0.26 +0.05    +0.052    35.850
ATOM     33  C   UNL d   1     -12.862   1.031  -1.102 -0.16 +0.13    +0.115    35.850
ATOM     34  C   UNL d   1     -12.395   2.423  -0.757 -0.10 +0.17    +0.139    35.850
ATOM     35  O   UNL d   1     -12.557   2.851   0.374 -0.42 -1.18    -0.650    35.850
ATOM     36  O   UNL d   1     -11.823   3.222  -1.682 +0.08 -0.42    -0.776    35.850
ATOM     37  H   UNL d   1     -11.437   2.871  -2.492 +0.07 +0.05    +0.167    35.850
ATOM     38  C   UNL d   1     -13.966  -1.248   4.958 -0.11 +0.02    +0.052    35.850
ATOM     39  C   UNL d   1     -14.038  -2.772   4.902 -0.26 +0.05    +0.115    35.850
ATOM     40  C   UNL d   1     -14.437  -3.281   3.540 -0.20 +0.10    +0.139    35.850
ATOM     41  O   UNL d   1     -15.392  -4.033   3.429 +0.06 -0.53    -0.650    35.850
ATOM     42  O   UNL d   1     -13.788  -2.880   2.430 -0.37 -0.88    -0.776    35.850
ATOM     43  H   UNL d   1     -13.155  -2.152   2.451 +0.06 +0.15    +0.167    35.850
ATOM     44  C   UNL d   1      -3.756   3.403   3.258 -0.47 -0.00    +0.004    35.850
ATOM     45  C   UNL d   1      -3.066   3.575   4.385 -0.56 -0.00    +0.012    35.850
ATOM     46  C   UNL d   1      -7.724   0.089   9.606 -0.36 +0.00    +0.004    35.850
ATOM     47  C   UNL d   1      -7.058  -0.868  10.265 -0.64 +0.00    +0.012    35.850
TER
ENDMDL
MODEL       57
USER    Run = 57
USER    Cluster Rank = 3
USER    Number of conformations in this cluster = 1
USER  
USER    RMSD from reference structure       = 35.145 A
USER  
USER    Estimated Free Energy of Binding    =  -10.53 kcal/mol  [=(1)+(2)+(3)-(4)]
USER    Estimated Inhibition Constant, Ki   =   19.16 nM (nanomolar)  [Temperature = 298.15 K]
USER    
USER    (1) Final Intermolecular Energy     =  -13.51 kcal/mol
USER        vdW + Hbond + desolv Energy     =  -13.64 kcal/mol
USER        Electrostatic Energy            =   +0.12 kcal/mol
USER    (2) Final Total Internal Energy     =   -0.53 kcal/mol
USER    (3) Torsional Free Energy           =   +2.98 kcal/mol
USER    (4) Unbound System's Energy  [=(2)] =   -0.53 kcal/mol
USER    
USER    
USER  
USER    DPF = D:/Protein_go_brrr/autodock/final/AncMH_nat/heme_O2/dock.dpf
USER    NEWDPF move	heme_O2_opt.pdbqt
USER    NEWDPF about	8.287000 34.468000 -0.670000
USER    NEWDPF tran0	-7.595613 1.392276 4.974698
USER    NEWDPF axisangle0	-0.364118 -0.471845 0.802982 150.664174
USER    NEWDPF quaternion0	-0.352251 -0.456467 0.776813 0.253216
USER    NEWDPF dihe0	-97.55 -170.24 103.05 36.05 49.41 111.72 172.67 -11.42 -178.24 -153.87 
USER  
USER                              x       y       z    vdW   Elec        q     RMS 
ATOM      1  C   UNL d   1      -5.746   1.963   5.843 -0.26 +0.00    +0.064    35.145
ATOM      2  C   UNL d   1      -9.600  -0.171   7.618 -0.09 +0.01    +0.064    35.145
ATOM      3  C   UNL d   1     -11.815   0.083   3.360 -0.26 +0.03    +0.064    35.145
ATOM      4  C   UNL d   1      -7.676   1.846   1.404 -0.36 +0.01    +0.064    35.145
ATOM      5  C   UNL d   1      -6.613   1.360   6.672 -0.38 +0.00    +0.066    35.145
ATOM      6  C   UNL d   1      -6.361   1.115   8.025 -0.46 -0.00    -0.021    35.145
ATOM      7  C   UNL d   1      -7.458   0.458   8.530 -0.40 -0.00    -0.025    35.145
ATOM      8  C   UNL d   1      -8.371   0.363   7.483 -0.39 +0.01    +0.066    35.145
ATOM      9  C   UNL d   1      -7.579  -0.065   9.944 -0.32 +0.00    +0.051    35.145
ATOM     10  C   UNL d   1     -10.609  -0.278   6.563 -0.36 +0.01    +0.066    35.145
ATOM     11  C   UNL d   1     -11.926  -0.691   6.796 -0.34 -0.00    -0.021    35.145
ATOM     12  C   UNL d   1     -12.585  -0.607   5.584 -0.34 +0.00    +0.000    35.145
ATOM     13  C   UNL d   1     -11.609  -0.149   4.656 -0.27 +0.02    +0.070    35.145
ATOM     14  C   UNL d   1     -12.536  -1.121   8.125 -0.46 +0.00    +0.052    35.145
ATOM     15  C   UNL d   1     -10.845   0.513   2.382 -0.28 +0.03    +0.066    35.145
ATOM     16  C   UNL d   1     -11.083   0.579   1.009 -0.30 -0.01    -0.021    35.145
ATOM     17  C   UNL d   1      -9.917   1.079   0.431 -0.36 +0.00    +0.000    35.145
ATOM     18  C   UNL d   1      -9.043   1.284   1.508 -0.32 +0.02    +0.070    35.145
ATOM     19  C   UNL d   1     -12.369   0.114   0.374 -0.28 +0.05    +0.052    35.145
ATOM     20  C   UNL d   1      -6.797   2.016   2.411 -0.34 +0.01    +0.066    35.145
ATOM     21  C   UNL d   1      -5.529   2.567   2.255 -0.38 -0.00    -0.025    35.145
ATOM     22  C   UNL d   1      -4.974   2.634   3.513 -0.36 +0.00    -0.021    35.145
ATOM     23  C   UNL d   1      -5.922   2.101   4.392 -0.33 +0.00    +0.066    35.145
ATOM     24  C   UNL d   1      -4.877   3.006   0.969 -0.48 -0.00    +0.051    35.145
ATOM     25  N   UNL d   1      -7.824   0.861   6.323 -0.20 -0.04    -0.248    35.145
ATOM     26  N   UNL d   1     -10.408   0.044   5.260 -0.26 -0.07    -0.248    35.145
ATOM     27  N   UNL d   1      -9.597   0.865   2.675 -0.18 -0.08    -0.248    35.145
ATOM     28  N   UNL d   1      -7.011   1.685   3.712 -0.11 -0.03    -0.248    35.145
ATOM     29 FE   UNL d   1      -8.698   0.871   4.478 -0.08 +0.00    +0.000    35.145
ATOM     30  O   UNL d   1      -8.306  -0.550   4.979 -0.86 +0.00    +0.000    35.145
ATOM     31  O   UNL d   1      -8.089  -0.169   3.466 -0.54 +0.00    +0.000    35.145
ATOM     32  C   UNL d   1      -5.083   1.363   8.785 -0.57 -0.00    +0.052    35.145
ATOM     33  C   UNL d   1      -4.186   0.131   8.853 -0.48 -0.01    +0.115    35.145
ATOM     34  C   UNL d   1      -4.875  -1.112   8.348 -0.48 -0.00    +0.139    35.145
ATOM     35  O   UNL d   1      -5.321  -1.921   9.145 -0.01 +0.03    -0.650    35.145
ATOM     36  O   UNL d   1      -4.987  -1.366   7.027 +0.16 -0.01    -0.776    35.145
ATOM     37  H   UNL d   1      -5.786  -1.152   6.532 +0.12 +0.01    +0.167    35.145
ATOM     38  C   UNL d   1      -3.586   3.122   3.837 -0.39 -0.00    +0.052    35.145
ATOM     39  C   UNL d   1      -2.515   2.432   2.996 -0.35 -0.01    +0.115    35.145
ATOM     40  C   UNL d   1      -1.175   3.118   3.093 -0.51 -0.02    +0.139    35.145
ATOM     41  O   UNL d   1      -0.786   3.819   2.172 +0.01 +0.06    -0.650    35.145
ATOM     42  O   UNL d   1      -0.419   3.014   4.202 -0.02 +0.18    -0.776    35.145
ATOM     43  H   UNL d   1       0.347   3.583   4.347 -0.36 -0.08    +0.167    35.145
ATOM     44  C   UNL d   1     -14.048  -0.969   5.438 +0.31 +0.00    +0.004    35.145
ATOM     45  C   UNL d   1     -14.582  -2.183   5.302 -0.27 +0.00    +0.012    35.145
ATOM     46  C   UNL d   1      -9.551   1.315  -1.010 -0.13 +0.00    +0.004    35.145
ATOM     47  C   UNL d   1     -10.363   1.614  -2.033 -0.28 +0.00    +0.012    35.145
TER
ENDMDL
MODEL       15
USER    Run = 15
USER    Cluster Rank = 4
USER    Number of conformations in this cluster = 18
USER  
USER    RMSD from reference structure       = 38.631 A
USER  
USER    Estimated Free Energy of Binding    =  -10.18 kcal/mol  [=(1)+(2)+(3)-(4)]
USER    Estimated Inhibition Constant, Ki   =   34.32 nM (nanomolar)  [Temperature = 298.15 K]
USER    
USER    (1) Final Intermolecular Energy     =  -13.17 kcal/mol
USER        vdW + Hbond + desolv Energy     =  -10.89 kcal/mol
USER        Electrostatic Energy            =   -2.27 kcal/mol
USER    (2) Final Total Internal Energy     =   -0.63 kcal/mol
USER    (3) Torsional Free Energy           =   +2.98 kcal/mol
USER    (4) Unbound System's Energy  [=(2)] =   -0.63 kcal/mol
USER    
USER    
USER  
USER    DPF = D:/Protein_go_brrr/autodock/final/AncMH_nat/heme_O2/dock.dpf
USER    NEWDPF move	heme_O2_opt.pdbqt
USER    NEWDPF about	8.287000 34.468000 -0.670000
USER    NEWDPF tran0	-13.449447 -0.961946 3.489239
USER    NEWDPF axisangle0	0.467676 -0.711175 -0.524889 77.198177
USER    NEWDPF quaternion0	0.291768 -0.443679 -0.327461 0.781530
USER    NEWDPF dihe0	121.72 -3.62 38.03 109.74 43.28 137.06 -53.88 159.87 -42.43 -172.64 
USER  
USER                              x       y       z    vdW   Elec        q     RMS 
ATOM      1  C   UNL d   1     -15.048  -1.662   4.695 -0.13 +0.03    +0.064    38.631
ATOM      2  C   UNL d   1     -10.623  -0.275   5.723 -0.38 +0.01    +0.064    38.631
ATOM      3  C   UNL d   1      -9.701   0.543   1.078 -0.40 +0.02    +0.064    38.631
ATOM      4  C   UNL d   1     -14.401  -0.426   0.059 -0.14 +0.10    +0.064    38.631
ATOM      5  C   UNL d   1     -13.920  -1.350   5.354 -0.09 +0.02    +0.066    38.631
ATOM      6  C   UNL d   1     -13.763  -1.472   6.737 -0.32 -0.00    -0.021    38.631
ATOM      7  C   UNL d   1     -12.497  -1.030   7.041 -0.32 -0.00    -0.025    38.631
ATOM      8  C   UNL d   1     -11.899  -0.695   5.830 -0.33 +0.01    +0.066    38.631
ATOM      9  C   UNL d   1     -11.931  -0.919   8.441 -0.51 +0.00    +0.051    38.631
ATOM     10  C   UNL d   1      -9.935   0.069   4.478 -0.10 +0.02    +0.066    38.631
ATOM     11  C   UNL d   1      -8.564   0.342   4.407 +0.03 -0.01    -0.021    38.631
ATOM     12  C   UNL d   1      -8.276   0.562   3.073 -0.33 +0.00    +0.000    38.631
ATOM     13  C   UNL d   1      -9.517   0.421   2.392 -0.31 +0.02    +0.070    38.631
ATOM     14  C   UNL d   1      -7.567   0.364   5.560 -0.38 +0.01    +0.052    38.631
ATOM     15  C   UNL d   1     -10.946   0.442   0.355 -0.29 +0.04    +0.066    38.631
ATOM     16  C   UNL d   1     -11.102   0.742  -0.998 -0.28 -0.01    -0.021    38.631
ATOM     17  C   UNL d   1     -12.434   0.474  -1.311 -0.22 +0.00    +0.000    38.631
ATOM     18  C   UNL d   1     -12.999   0.022  -0.110 -0.18 +0.08    +0.070    38.631
ATOM     19  C   UNL d   1      -9.990   1.304  -1.848 -0.22 +0.01    +0.052    38.631
ATOM     20  C   UNL d   1     -14.987  -0.824   1.205 -0.17 +0.09    +0.066    38.631
ATOM     21  C   UNL d   1     -16.308  -1.252   1.299 -0.14 -0.03    -0.025    38.631
ATOM     22  C   UNL d   1     -16.502  -1.634   2.607 -0.11 -0.02    -0.021    38.631
ATOM     23  C   UNL d   1     -15.292  -1.406   3.271 -0.15 +0.06    +0.066    38.631
ATOM     24  C   UNL d   1     -17.334  -1.292   0.196 -0.10 +0.05    +0.051    38.631
ATOM     25  N   UNL d   1     -12.799  -0.830   4.798 -0.20 -0.09    -0.248    38.631
ATOM     26  N   UNL d   1     -10.522   0.125   3.256 -0.09 -0.09    -0.248    38.631
ATOM     27  N   UNL d   1     -12.101   0.081   0.907 -0.16 -0.22    -0.248    38.631
ATOM     28  N   UNL d   1     -14.388  -0.871   2.425 -0.15 -0.26    -0.248    38.631
ATOM     29 FE   UNL d   1     -12.468  -0.376   2.834 -0.06 +0.00    +0.000    38.631
ATOM     30  O   UNL d   1     -12.530   0.870   3.766 -0.39 +0.00    +0.000    38.631
ATOM     31  O   UNL d   1     -13.197   0.927   2.339 -0.47 +0.00    +0.000    38.631
ATOM     32  C   UNL d   1     -14.805  -1.859   7.754 -0.33 +0.01    +0.052    38.631
ATOM     33  C   UNL d   1     -15.697  -3.003   7.282 -0.25 +0.03    +0.115    38.631
ATOM     34  C   UNL d   1     -15.691  -4.170   8.238 -0.40 +0.03    +0.139    38.631
ATOM     35  O   UNL d   1     -15.111  -5.199   7.930 -0.22 -0.22    -0.650    38.631
ATOM     36  O   UNL d   1     -16.337  -4.114   9.421 -0.40 -0.16    -0.776    38.631
ATOM     37  H   UNL d   1     -17.025  -4.746   9.658 -0.52 -0.02    +0.167    38.631
ATOM     38  C   UNL d   1     -17.798  -2.128   3.195 -0.05 +0.04    +0.052    38.631
ATOM     39  C   UNL d   1     -18.841  -1.020   3.319 -0.07 +0.11    +0.115    38.631
ATOM     40  C   UNL d   1     -18.222   0.356   3.325 -0.14 +0.21    +0.139    38.631
ATOM     41  O   UNL d   1     -17.700   0.781   4.343 +0.02 -0.92    -0.650    38.631
ATOM     42  O   UNL d   1     -18.189   1.109   2.209 -0.31 -1.51    -0.776    38.631
ATOM     43  H   UNL d   1     -18.548   0.788   1.373 +0.03 +0.26    +0.167    38.631
ATOM     44  C   UNL d   1      -6.874   0.883   2.596 -0.35 +0.00    +0.004    38.631
ATOM     45  C   UNL d   1      -6.514   1.673   1.586 -0.47 +0.00    +0.012    38.631
ATOM     46  C   UNL d   1     -13.205   0.658  -2.591 -0.17 +0.00    +0.004    38.631
ATOM     47  C   UNL d   1     -13.566  -0.275  -3.482 -0.16 +0.01    +0.012    38.631
TER
ENDMDL
MODEL        9
USER    Run = 9
USER    Cluster Rank = 5
USER    Number of conformations in this cluster = 11
USER  
USER    RMSD from reference structure       = 38.483 A
USER  
USER    Estimated Free Energy of Binding    =   -9.45 kcal/mol  [=(1)+(2)+(3)-(4)]
USER    Estimated Inhibition Constant, Ki   =  118.44 nM (nanomolar)  [Temperature = 298.15 K]
USER    
USER    (1) Final Intermolecular Energy     =  -12.43 kcal/mol
USER        vdW + Hbond + desolv Energy     =   -8.97 kcal/mol
USER        Electrostatic Energy            =   -3.46 kcal/mol
USER    (2) Final Total Internal Energy     =   -1.39 kcal/mol
USER    (3) Torsional Free Energy           =   +2.98 kcal/mol
USER    (4) Unbound System's Energy  [=(2)] =   -1.39 kcal/mol
USER    
USER    
USER  
USER    DPF = D:/Protein_go_brrr/autodock/final/AncMH_nat/heme_O2/dock.dpf
USER    NEWDPF move	heme_O2_opt.pdbqt
USER    NEWDPF about	8.287000 34.468000 -0.670000
USER    NEWDPF tran0	-13.632405 -0.763603 1.299579
USER    NEWDPF axisangle0	-0.126552 -0.982670 -0.135442 -71.587280
USER    NEWDPF quaternion0	-0.074016 -0.574732 -0.079216 -0.811129
USER    NEWDPF dihe0	-13.08 140.80 -17.25 21.47 77.93 -76.10 -144.79 141.82 172.75 177.05 
USER  
USER                              x       y       z    vdW   Elec        q     RMS 
ATOM      1  C   UNL d   1     -13.378  -0.263  -0.746 -0.14 +0.07    +0.064    38.483
ATOM      2  C   UNL d   1     -16.990  -2.195   1.660 -0.08 +0.06    +0.064    38.483
ATOM      3  C   UNL d   1     -14.465  -2.051   5.746 -0.26 +0.02    +0.064    38.483
ATOM      4  C   UNL d   1     -10.921   0.375   3.376 -0.29 +0.03    +0.064    38.483
ATOM      5  C   UNL d   1     -14.567  -0.799  -0.425 -0.09 +0.09    +0.066    38.483
ATOM      6  C   UNL d   1     -15.592  -1.038  -1.345 -0.12 -0.02    -0.021    38.483
ATOM      7  C   UNL d   1     -16.654  -1.557  -0.642 -0.12 -0.03    -0.025    38.483
ATOM      8  C   UNL d   1     -16.232  -1.666   0.680 -0.12 +0.08    +0.066    38.483
ATOM      9  C   UNL d   1     -18.005  -1.893  -1.236 -0.07 +0.04    +0.051    38.483
ATOM     10  C   UNL d   1     -16.593  -2.356   3.059 -0.08 +0.05    +0.066    38.483
ATOM     11  C   UNL d   1     -17.354  -3.059   3.999 -0.06 -0.01    -0.021    38.483
ATOM     12  C   UNL d   1     -16.634  -3.045   5.179 -0.11 +0.00    +0.000    38.483
ATOM     13  C   UNL d   1     -15.454  -2.306   4.890 -0.13 +0.04    +0.070    38.483
ATOM     14  C   UNL d   1     -18.699  -3.741   3.773 -0.06 +0.03    +0.052    38.483
ATOM     15  C   UNL d   1     -13.271  -1.278   5.502 -0.26 +0.02    +0.066    38.483
ATOM     16  C   UNL d   1     -12.354  -0.909   6.485 -0.37 -0.00    -0.021    38.483
ATOM     17  C   UNL d   1     -11.334  -0.215   5.833 -0.45 +0.00    +0.000    38.483
ATOM     18  C   UNL d   1     -11.711  -0.215   4.482 -0.24 +0.02    +0.070    38.483
ATOM     19  C   UNL d   1     -12.557  -1.200   7.951 -0.42 +0.00    +0.052    38.483
ATOM     20  C   UNL d   1     -11.273   0.431   2.077 -0.27 +0.04    +0.066    38.483
ATOM     21  C   UNL d   1     -10.478   0.984   1.076 -0.30 -0.01    -0.025    38.483
ATOM     22  C   UNL d   1     -11.151   0.787  -0.109 -0.29 -0.01    -0.021    38.483
ATOM     23  C   UNL d   1     -12.344   0.134   0.216 -0.22 +0.06    +0.066    38.483
ATOM     24  C   UNL d   1      -9.147   1.670   1.243 -0.36 +0.01    +0.051    38.483
ATOM     25  N   UNL d   1     -14.969  -1.138   0.825 -0.14 -0.33    -0.248    38.483
ATOM     26  N   UNL d   1     -15.439  -1.886   3.599 -0.08 -0.18    -0.248    38.483
ATOM     27  N   UNL d   1     -12.925  -0.798   4.311 -0.18 -0.11    -0.248    38.483
ATOM     28  N   UNL d   1     -12.434  -0.040   1.550 -0.16 -0.23    -0.248    38.483
ATOM     29 FE   UNL d   1     -13.924  -0.956   2.570 -0.05 +0.00    +0.000    38.483
ATOM     30  O   UNL d   1     -15.159  -0.013   2.476 -0.31 +0.00    +0.000    38.483
ATOM     31  O   UNL d   1     -13.818   0.517   3.111 -0.25 +0.00    +0.000    38.483
ATOM     32  C   UNL d   1     -15.627  -0.667  -2.805 -0.11 +0.04    +0.052    38.483
ATOM     33  C   UNL d   1     -16.500   0.552  -3.086 -0.03 +0.08    +0.115    38.483
ATOM     34  C   UNL d   1     -16.481   1.546  -1.951 +0.02 +0.18    +0.139    38.483
ATOM     35  O   UNL d   1     -17.073   1.291  -0.915 -0.11 -1.12    -0.650    38.483
ATOM     36  O   UNL d   1     -15.846   2.731  -2.066 -0.24 -1.20    -0.776    38.483
ATOM     37  H   UNL d   1     -15.236   2.916  -2.789 +0.01 +0.16    +0.167    38.483
ATOM     38  C   UNL d   1     -10.696   1.260  -1.466 -0.32 +0.02    +0.052    38.483
ATOM     39  C   UNL d   1     -11.022   2.732  -1.708 -0.21 +0.04    +0.115    38.483
ATOM     40  C   UNL d   1     -12.373   3.121  -1.162 -0.16 +0.13    +0.139    38.483
ATOM     41  O   UNL d   1     -12.554   3.147   0.045 -0.35 -1.04    -0.650    38.483
ATOM     42  O   UNL d   1     -13.375   3.491  -1.983 +0.03 -0.76    -0.776    38.483
ATOM     43  H   UNL d   1     -14.292   3.255  -1.799 +0.03 +0.27    +0.167    38.483
ATOM     44  C   UNL d   1     -17.139  -3.720   6.437 -0.17 +0.00    +0.004    38.483
ATOM     45  C   UNL d   1     -16.429  -4.128   7.489 -0.35 +0.00    +0.012    38.483
ATOM     46  C   UNL d   1     -10.108   0.474   6.369 -0.44 +0.00    +0.004    38.483
ATOM     47  C   UNL d   1      -9.557   0.358   7.584 -0.50 +0.00    +0.012    38.483
TER
ENDMDL
MODEL       26
USER    Run = 26
USER    Cluster Rank = 6
USER    Number of conformations in this cluster = 3
USER  
USER    RMSD from reference structure       = 39.226 A
USER  
USER    Estimated Free Energy of Binding    =   -9.26 kcal/mol  [=(1)+(2)+(3)-(4)]
USER    Estimated Inhibition Constant, Ki   =  163.45 nM (nanomolar)  [Temperature = 298.15 K]
USER    
USER    (1) Final Intermolecular Energy     =  -12.24 kcal/mol
USER        vdW + Hbond + desolv Energy     =   -8.55 kcal/mol
USER        Electrostatic Energy            =   -3.69 kcal/mol
USER    (2) Final Total Internal Energy     =   -0.80 kcal/mol
USER    (3) Torsional Free Energy           =   +2.98 kcal/mol
USER    (4) Unbound System's Energy  [=(2)] =   -0.80 kcal/mol
USER    
USER    
USER  
USER    DPF = D:/Protein_go_brrr/autodock/final/AncMH_nat/heme_O2/dock.dpf
USER    NEWDPF move	heme_O2_opt.pdbqt
USER    NEWDPF about	8.287000 34.468000 -0.670000
USER    NEWDPF tran0	-14.863583 -0.731676 1.530023
USER    NEWDPF axisangle0	0.857683 -0.057656 0.510937 -161.141216
USER    NEWDPF quaternion0	0.846094 -0.056877 0.504033 -0.163832
USER    NEWDPF dihe0	149.04 2.64 110.13 155.19 106.21 -61.01 91.93 131.74 -160.77 16.04 
USER  
USER                              x       y       z    vdW   Elec        q     RMS 
ATOM      1  C   UNL d   1     -16.596  -1.159   0.383 -0.12 +0.08    +0.064    39.226
ATOM      2  C   UNL d   1     -12.220   0.245  -0.817 -0.19 +0.05    +0.064    39.226
ATOM      3  C   UNL d   1     -10.891   0.359   3.800 -0.35 +0.02    +0.064    39.226
ATOM      4  C   UNL d   1     -15.245  -1.545   5.016 -0.05 +0.03    +0.064    39.226
ATOM      5  C   UNL d   1     -15.514  -0.788  -0.320 -0.14 +0.09    +0.066    39.226
ATOM      6  C   UNL d   1     -15.489  -0.667  -1.712 -0.13 -0.02    -0.021    39.226
ATOM      7  C   UNL d   1     -14.210  -0.303  -2.064 -0.14 -0.02    -0.025    39.226
ATOM      8  C   UNL d   1     -13.502  -0.164  -0.874 -0.14 +0.08    +0.066    39.226
ATOM      9  C   UNL d   1     -13.718  -0.135  -3.485 -0.13 +0.03    +0.051    39.226
ATOM     10  C   UNL d   1     -11.433   0.432   0.403 -0.26 +0.05    +0.066    39.226
ATOM     11  C   UNL d   1     -10.161   1.014   0.416 -0.34 -0.01    -0.021    39.226
ATOM     12  C   UNL d   1      -9.768   1.072   1.740 -0.34 +0.00    +0.000    39.226
ATOM     13  C   UNL d   1     -10.841   0.498   2.475 -0.28 +0.03    +0.070    39.226
ATOM     14  C   UNL d   1      -9.365   1.519  -0.782 -0.21 +0.01    +0.052    39.226
ATOM     15  C   UNL d   1     -11.943  -0.249   4.579 -0.29 +0.02    +0.066    39.226
ATOM     16  C   UNL d   1     -11.863  -0.513   5.946 -0.38 -0.00    -0.021    39.226
ATOM     17  C   UNL d   1     -13.093  -1.057   6.315 -0.35 +0.00    +0.000    39.226
ATOM     18  C   UNL d   1     -13.842  -1.082   5.130 -0.03 +0.03    +0.070    39.226
ATOM     19  C   UNL d   1     -10.614  -0.277   6.757 -0.42 +0.01    +0.052    39.226
ATOM     20  C   UNL d   1     -15.978  -1.623   3.888 -0.11 +0.05    +0.066    39.226
ATOM     21  C   UNL d   1     -17.302  -2.051   3.846 -0.06 -0.02    -0.025    39.226
ATOM     22  C   UNL d   1     -17.712  -1.922   2.538 -0.05 -0.02    -0.021    39.226
ATOM     23  C   UNL d   1     -16.613  -1.435   1.824 -0.10 +0.07    +0.066    39.226
ATOM     24  C   UNL d   1     -18.133  -2.561   4.995 -0.07 +0.03    +0.051    39.226
ATOM     25  N   UNL d   1     -14.288  -0.526   0.196 -0.13 -0.36    -0.248    39.226
ATOM     26  N   UNL d   1     -11.848   0.107   1.653 -0.16 -0.18    -0.248    39.226
ATOM     27  N   UNL d   1     -13.103  -0.658   4.073 -0.18 -0.13    -0.248    39.226
ATOM     28  N   UNL d   1     -15.548  -1.298   2.641 -0.10 -0.25    -0.248    39.226
ATOM     29 FE   UNL d   1     -13.711  -0.601   2.153 -0.05 +0.00    +0.000    39.226
ATOM     30  O   UNL d   1     -13.053  -1.695   1.262 -0.43 +0.00    +0.000    39.226
ATOM     31  O   UNL d   1     -13.528  -2.057   2.720 -0.38 +0.00    +0.000    39.226
ATOM     32  C   UNL d   1     -16.583  -1.014  -2.689 -0.09 +0.04    +0.052    39.226
ATOM     33  C   UNL d   1     -16.709  -2.515  -2.929 -0.07 +0.11    +0.115    39.226
ATOM     34  C   UNL d   1     -15.852  -2.989  -4.076 -0.09 +0.12    +0.139    39.226
ATOM     35  O   UNL d   1     -15.829  -2.351  -5.116 +0.00 -0.32    -0.650    39.226
ATOM     36  O   UNL d   1     -15.126  -4.123  -3.990 -0.45 -1.11    -0.776    39.226
ATOM     37  H   UNL d   1     -14.936  -4.668  -4.763 +0.03 +0.15    +0.167    39.226
ATOM     38  C   UNL d   1     -19.065  -2.308   2.000 -0.01 +0.04    +0.052    39.226
ATOM     39  C   UNL d   1     -19.827  -1.113   1.430 -0.01 +0.09    +0.115    39.226
ATOM     40  C   UNL d   1     -19.850   0.061   2.376 +0.02 +0.21    +0.139    39.226
ATOM     41  O   UNL d   1     -18.905   0.833   2.406 -0.19 -1.31    -0.650    39.226
ATOM     42  O   UNL d   1     -20.920   0.304   3.158 -0.11 -1.56    -0.776    39.226
ATOM     43  H   UNL d   1     -21.668  -0.304   3.192 +0.01 +0.19    +0.167    39.226
ATOM     44  C   UNL d   1      -8.434   1.654   2.158 -0.24 +0.00    +0.004    39.226
ATOM     45  C   UNL d   1      -7.225   1.110   2.024 -0.43 +0.00    +0.012    39.226
ATOM     46  C   UNL d   1     -13.582  -1.590   7.635 -0.45 +0.00    +0.004    39.226
ATOM     47  C   UNL d   1     -14.828  -1.570   8.127 -0.35 +0.00    +0.012    39.226
TER
ENDMDL
MODEL       11
USER    Run = 11
USER    Cluster Rank = 7
USER    Number of conformations in this cluster = 2
USER  
USER    RMSD from reference structure       = 36.922 A
USER  
USER    Estimated Free Energy of Binding    =   -8.98 kcal/mol  [=(1)+(2)+(3)-(4)]
USER    Estimated Inhibition Constant, Ki   =  260.55 nM (nanomolar)  [Temperature = 298.15 K]
USER    
USER    (1) Final Intermolecular Energy     =  -11.97 kcal/mol
USER        vdW + Hbond + desolv Energy     =  -10.36 kcal/mol
USER        Electrostatic Energy            =   -1.61 kcal/mol
USER    (2) Final Total Internal Energy     =   -0.50 kcal/mol
USER    (3) Torsional Free Energy           =   +2.98 kcal/mol
USER    (4) Unbound System's Energy  [=(2)] =   -0.50 kcal/mol
USER    
USER    
USER  
USER    DPF = D:/Protein_go_brrr/autodock/final/AncMH_nat/heme_O2/dock.dpf
USER    NEWDPF move	heme_O2_opt.pdbqt
USER    NEWDPF about	8.287000 34.468000 -0.670000
USER    NEWDPF tran0	-11.093576 -0.230254 2.244109
USER    NEWDPF axisangle0	0.155059 0.948862 0.274985 91.754581
USER    NEWDPF quaternion0	0.111309 0.681141 0.197398 0.696197
USER    NEWDPF dihe0	-25.05 4.05 -28.24 144.87 -137.29 85.80 169.23 -48.15 -179.75 -179.76 
USER  
USER                              x       y       z    vdW   Elec        q     RMS 
ATOM      1  C   UNL d   1     -10.102   0.201   0.419 -0.34 +0.02    +0.064    36.922
ATOM      2  C   UNL d   1     -14.625  -0.819   1.450 -0.20 +0.08    +0.064    36.922
ATOM      3  C   UNL d   1     -13.552  -1.296   6.110 -0.26 +0.02    +0.064    36.922
ATOM      4  C   UNL d   1      -8.991   0.221   5.131 +0.09 +0.02    +0.064    36.922
ATOM      5  C   UNL d   1     -11.420  -0.036   0.319 -0.26 +0.04    +0.066    36.922
ATOM      6  C   UNL d   1     -12.130  -0.020  -0.885 -0.16 -0.02    -0.021    36.922
ATOM      7  C   UNL d   1     -13.447  -0.273  -0.582 -0.17 -0.03    -0.025    36.922
ATOM      8  C   UNL d   1     -13.498  -0.483   0.793 -0.20 +0.08    +0.066    36.922
ATOM      9  C   UNL d   1     -14.581  -0.274  -1.585 -0.17 +0.06    +0.051    36.922
ATOM     10  C   UNL d   1     -14.736  -1.075   2.887 -0.20 +0.06    +0.066    36.922
ATOM     11  C   UNL d   1     -15.893  -1.579   3.491 -0.13 -0.02    -0.021    36.922
ATOM     12  C   UNL d   1     -15.597  -1.740   4.833 -0.12 +0.00    +0.000    36.922
ATOM     13  C   UNL d   1     -14.251  -1.304   4.975 +0.07 +0.03    +0.070    36.922
ATOM     14  C   UNL d   1     -17.215  -1.919   2.814 -0.08 +0.04    +0.052    36.922
ATOM     15  C   UNL d   1     -12.200  -0.829   6.303 -0.33 +0.01    +0.066    36.922
ATOM     16  C   UNL d   1     -11.580  -0.693   7.545 -0.18 -0.00    -0.021    36.922
ATOM     17  C   UNL d   1     -10.279  -0.261   7.291 -0.29 +0.00    +0.000    36.922
ATOM     18  C   UNL d   1     -10.201  -0.166   5.894 -0.36 +0.02    +0.070    36.922
ATOM     19  C   UNL d   1     -12.295  -0.932   8.851 -0.42 +0.00    +0.052    36.922
ATOM     20  C   UNL d   1      -8.893   0.364   3.795 -0.17 +0.02    +0.066    36.922
ATOM     21  C   UNL d   1      -7.721   0.714   3.131 -0.30 -0.00    -0.025    36.922
ATOM     22  C   UNL d   1      -8.012   0.687   1.786 -0.34 -0.00    -0.021    36.922
ATOM     23  C   UNL d   1      -9.362   0.337   1.679 -0.36 +0.02    +0.066    36.922
ATOM     24  C   UNL d   1      -6.392   1.062   3.749 -0.38 +0.00    +0.051    36.922
ATOM     25  N   UNL d   1     -12.261  -0.273   1.356 -0.17 -0.21    -0.248    36.922
ATOM     26  N   UNL d   1     -13.736  -0.896   3.787 -0.16 -0.16    -0.248    36.922
ATOM     27  N   UNL d   1     -11.397  -0.442   5.316 -0.22 -0.06    -0.248    36.922
ATOM     28  N   UNL d   1      -9.905   0.185   2.904 -0.16 -0.08    -0.248    36.922
ATOM     29 FE   UNL d   1     -11.806  -0.351   3.345 -0.07 +0.00    +0.000    36.922
ATOM     30  O   UNL d   1     -12.702   0.860   2.953 -0.42 +0.00    +0.000    36.922
ATOM     31  O   UNL d   1     -11.546   1.052   4.007 -0.47 +0.00    +0.000    36.922
ATOM     32  C   UNL d   1     -11.618   0.353  -2.252 -0.25 +0.02    +0.052    36.922
ATOM     33  C   UNL d   1     -11.903   1.807  -2.615 -0.16 +0.05    +0.115    36.922
ATOM     34  C   UNL d   1     -12.892   2.451  -1.675 -0.11 +0.15    +0.139    36.922
ATOM     35  O   UNL d   1     -12.552   2.721  -0.534 -0.34 -0.93    -0.650    36.922
ATOM     36  O   UNL d   1     -14.159   2.712  -2.058 -0.03 -1.03    -0.776    36.922
ATOM     37  H   UNL d   1     -14.398   2.837  -2.984 +0.02 +0.13    +0.167    36.922
ATOM     38  C   UNL d   1      -7.059   1.042   0.673 -0.32 +0.01    +0.052    36.922
ATOM     39  C   UNL d   1      -6.891   2.551   0.510 -0.29 +0.01    +0.115    36.922
ATOM     40  C   UNL d   1      -5.442   2.966   0.448 -0.43 +0.00    +0.139    36.922
ATOM     41  O   UNL d   1      -5.038   3.865   1.168 +0.04 +0.00    -0.650    36.922
ATOM     42  O   UNL d   1      -4.570   2.326  -0.355 -0.02 +0.06    -0.776    36.922
ATOM     43  H   UNL d   1      -4.860   1.653  -0.981 -0.44 -0.04    +0.167    36.922
ATOM     44  C   UNL d   1     -16.611  -2.280   5.820 -0.15 +0.00    +0.004    36.922
ATOM     45  C   UNL d   1     -16.385  -3.023   6.902 -0.22 +0.00    +0.012    36.922
ATOM     46  C   UNL d   1      -9.161   0.113   8.227 -0.30 +0.00    +0.004    36.922
ATOM     47  C   UNL d   1      -7.861  -0.193   8.130 -0.44 +0.00    +0.012    36.922
TER
ENDMDL
MODEL       58
USER    Run = 58
USER    Cluster Rank = 8
USER    Number of conformations in this cluster = 2
USER  
USER    RMSD from reference structure       = 40.622 A
USER  
USER    Estimated Free Energy of Binding    =   -8.08 kcal/mol  [=(1)+(2)+(3)-(4)]
USER    Estimated Inhibition Constant, Ki   =    1.20 uM (micromolar)  [Temperature = 298.15 K]
USER    
USER    (1) Final Intermolecular Energy     =  -11.06 kcal/mol
USER        vdW + Hbond + desolv Energy     =   -9.16 kcal/mol
USER        Electrostatic Energy            =   -1.90 kcal/mol
USER    (2) Final Total Internal Energy     =   -0.64 kcal/mol
USER    (3) Torsional Free Energy           =   +2.98 kcal/mol
USER    (4) Unbound System's Energy  [=(2)] =   -0.64 kcal/mol
USER    
USER    
USER  
USER    DPF = D:/Protein_go_brrr/autodock/final/AncMH_nat/heme_O2/dock.dpf
USER    NEWDPF move	heme_O2_opt.pdbqt
USER    NEWDPF about	8.287000 34.468000 -0.670000
USER    NEWDPF tran0	-15.018018 -1.961618 2.261974
USER    NEWDPF axisangle0	0.410101 -0.659924 -0.629537 106.707845
USER    NEWDPF quaternion0	0.329040 -0.529482 -0.505101 0.596870
USER    NEWDPF dihe0	177.02 -28.48 10.75 124.73 -174.66 -53.43 36.25 -180.00 -35.01 -18.42 
USER  
USER                              x       y       z    vdW   Elec        q     RMS 
ATOM      1  C   UNL d   1     -15.698  -3.015   3.973 -0.12 +0.04    +0.064    40.622
ATOM      2  C   UNL d   1     -12.076  -0.022   3.278 -0.22 +0.04    +0.064    40.622
ATOM      3  C   UNL d   1     -13.227   0.438  -1.365 -0.20 +0.07    +0.064    40.622
ATOM      4  C   UNL d   1     -17.240  -2.264  -0.554 -0.07 +0.07    +0.064    40.622
ATOM      5  C   UNL d   1     -14.620  -2.237   4.163 -0.18 +0.04    +0.066    40.622
ATOM      6  C   UNL d   1     -13.953  -2.109   5.385 -0.28 -0.01    -0.021    40.622
ATOM      7  C   UNL d   1     -12.930  -1.209   5.196 -0.28 -0.01    -0.025    40.622
ATOM      8  C   UNL d   1     -12.971  -0.850   3.851 -0.17 +0.04    +0.066    40.622
ATOM      9  C   UNL d   1     -11.997  -0.718   6.281 -0.39 +0.01    +0.051    40.622
ATOM     10  C   UNL d   1     -12.054   0.374   1.869 -0.26 +0.05    +0.066    40.622
ATOM     11  C   UNL d   1     -11.009   1.103   1.291 -0.29 -0.01    -0.021    40.622
ATOM     12  C   UNL d   1     -11.314   1.231  -0.052 -0.28 +0.00    +0.000    40.622
ATOM     13  C   UNL d   1     -12.561   0.567  -0.218 -0.19 +0.08    +0.070    40.622
ATOM     14  C   UNL d   1      -9.759   1.632   1.985 -0.20 +0.02    +0.052    40.622
ATOM     15  C   UNL d   1     -14.508  -0.194  -1.569 -0.14 +0.08    +0.066    40.622
ATOM     16  C   UNL d   1     -15.229  -0.154  -2.761 -0.10 -0.02    -0.021    40.622
ATOM     17  C   UNL d   1     -16.378  -0.917  -2.554 -0.09 +0.00    +0.000    40.622
ATOM     18  C   UNL d   1     -16.269  -1.374  -1.233 -0.11 +0.08    +0.070    40.622
ATOM     19  C   UNL d   1     -14.790   0.647  -3.961 -0.05 +0.03    +0.052    40.622
ATOM     20  C   UNL d   1     -17.188  -2.686   0.724 -0.05 +0.07    +0.066    40.622
ATOM     21  C   UNL d   1     -18.123  -3.539   1.303 -0.07 -0.02    -0.025    40.622
ATOM     22  C   UNL d   1     -17.685  -3.786   2.584 -0.07 -0.02    -0.021    40.622
ATOM     23  C   UNL d   1     -16.503  -3.057   2.747 -0.07 +0.06    +0.066    40.622
ATOM     24  C   UNL d   1     -19.374  -4.089   0.666 -0.04 +0.03    +0.051    40.622
ATOM     25  N   UNL d   1     -14.052  -1.433   3.231 -0.15 -0.19    -0.248    40.622
ATOM     26  N   UNL d   1     -13.006   0.053   0.957 -0.15 -0.31    -0.248    40.622
ATOM     27  N   UNL d   1     -15.166  -0.864  -0.627 -0.13 -0.33    -0.248    40.622
ATOM     28  N   UNL d   1     -16.229  -2.354   1.629 -0.06 -0.27    -0.248    40.622
ATOM     29 FE   UNL d   1     -14.631  -1.159   1.292 -0.04 +0.00    +0.000    40.622
ATOM     30  O   UNL d   1     -14.830   0.097   2.191 -0.31 +0.00    +0.000    40.622
ATOM     31  O   UNL d   1     -15.922  -0.278   1.120 -0.63 +0.00    +0.000    40.622
ATOM     32  C   UNL d   1     -14.341  -2.701   6.715 -0.34 +0.01    +0.052    40.622
ATOM     33  C   UNL d   1     -14.664  -4.189   6.630 -0.34 +0.03    +0.115    40.622
ATOM     34  C   UNL d   1     -15.754  -4.598   7.589 -0.38 +0.04    +0.139    40.622
ATOM     35  O   UNL d   1     -16.663  -3.821   7.836 -0.01 -0.15    -0.650    40.622
ATOM     36  O   UNL d   1     -15.735  -5.797   8.207 -0.42 -0.31    -0.776    40.622
ATOM     37  H   UNL d   1     -16.406  -6.051   8.851 -0.51 +0.03    +0.167    40.622
ATOM     38  C   UNL d   1     -18.401  -4.625   3.611 -0.09 +0.03    +0.052    40.622
ATOM     39  C   UNL d   1     -18.107  -6.115   3.453 -0.10 +0.05    +0.115    40.622
ATOM     40  C   UNL d   1     -17.192  -6.401   2.289 -0.11 +0.12    +0.139    40.622
ATOM     41  O   UNL d   1     -15.984  -6.439   2.463 -0.41 -0.71    -0.650    40.622
ATOM     42  O   UNL d   1     -17.685  -6.668   1.065 -0.41 -0.76    -0.776    40.622
ATOM     43  H   UNL d   1     -18.567  -7.040   0.946 +0.02 +0.10    +0.167    40.622
ATOM     44  C   UNL d   1     -10.403   1.960  -1.017 -0.31 +0.00    +0.004    40.622
ATOM     45  C   UNL d   1     -10.632   2.253  -2.296 -0.29 +0.00    +0.012    40.622
ATOM     46  C   UNL d   1     -17.557  -1.192  -3.449 -0.03 +0.00    +0.004    40.622
ATOM     47  C   UNL d   1     -17.975  -2.370  -3.929 -0.04 +0.01    +0.012    40.622
TER
ENDMDL
MODEL        3
USER    Run = 3
USER    Cluster Rank = 9
USER    Number of conformations in this cluster = 2
USER  
USER    RMSD from reference structure       = 37.650 A
USER  
USER    Estimated Free Energy of Binding    =   -7.97 kcal/mol  [=(1)+(2)+(3)-(4)]
USER    Estimated Inhibition Constant, Ki   =    1.43 uM (micromolar)  [Temperature = 298.15 K]
USER    
USER    (1) Final Intermolecular Energy     =  -10.95 kcal/mol
USER        vdW + Hbond + desolv Energy     =   -7.39 kcal/mol
USER        Electrostatic Energy            =   -3.56 kcal/mol
USER    (2) Final Total Internal Energy     =   -0.70 kcal/mol
USER    (3) Torsional Free Energy           =   +2.98 kcal/mol
USER    (4) Unbound System's Energy  [=(2)] =   -0.70 kcal/mol
USER    
USER    
USER  
USER    DPF = D:/Protein_go_brrr/autodock/final/AncMH_nat/heme_O2/dock.dpf
USER    NEWDPF move	heme_O2_opt.pdbqt
USER    NEWDPF about	8.287000 34.468000 -0.670000
USER    NEWDPF tran0	-14.133719 0.446586 -0.971775
USER    NEWDPF axisangle0	-0.966261 -0.104577 -0.235379 168.175451
USER    NEWDPF quaternion0	-0.961121 -0.104021 -0.234127 0.103006
USER    NEWDPF dihe0	-6.31 21.28 -56.12 -8.15 -155.54 106.09 -119.85 -163.37 179.95 -10.13 
USER  
USER                              x       y       z    vdW   Elec        q     RMS 
ATOM      1  C   UNL d   1     -16.044  -0.474  -0.929 -0.11 +0.08    +0.064    37.650
ATOM      2  C   UNL d   1     -13.689   1.874  -4.321 -0.03 +0.02    +0.064    37.650
ATOM      3  C   UNL d   1      -9.990   2.640  -1.350 -0.11 +0.01    +0.064    37.650
ATOM      4  C   UNL d   1     -12.199  -0.185   1.997 -0.25 +0.05    +0.064    37.650
ATOM      5  C   UNL d   1     -15.705   0.100  -2.095 -0.09 +0.07    +0.066    37.650
ATOM      6  C   UNL d   1     -16.527   0.124  -3.225 -0.03 -0.01    -0.021    37.650
ATOM      7  C   UNL d   1     -15.829   0.766  -4.221 -0.02 -0.01    -0.025    37.650
ATOM      8  C   UNL d   1     -14.618   1.159  -3.657 -0.04 +0.04    +0.066    37.650
ATOM      9  C   UNL d   1     -16.317   0.948  -5.641 +0.00 +0.01    +0.051    37.650
ATOM     10  C   UNL d   1     -12.412   2.335  -3.776 -0.07 +0.01    +0.066    37.650
ATOM     11  C   UNL d   1     -11.557   3.212  -4.454 -0.13 +0.00    -0.021    37.650
ATOM     12  C   UNL d   1     -10.493   3.459  -3.606 -0.22 -0.00    +0.000    37.650
ATOM     13  C   UNL d   1     -10.759   2.692  -2.438 -0.20 +0.01    +0.070    37.650
ATOM     14  C   UNL d   1     -11.761   3.811  -5.841 -0.09 -0.03    +0.052    37.650
ATOM     15  C   UNL d   1     -10.205   1.850  -0.162 -0.25 +0.02    +0.066    37.650
ATOM     16  C   UNL d   1      -9.282   1.711   0.874 -0.32 -0.01    -0.021    37.650
ATOM     17  C   UNL d   1      -9.889   0.909   1.839 -0.34 +0.00    +0.000    37.650
ATOM     18  C   UNL d   1     -11.156   0.616   1.314 -0.27 +0.04    +0.070    37.650
ATOM     19  C   UNL d   1      -7.896   2.305   0.825 -0.35 +0.01    +0.052    37.650
ATOM     20  C   UNL d   1     -13.406  -0.522   1.505 -0.24 +0.07    +0.066    37.650
ATOM     21  C   UNL d   1     -14.355  -1.264   2.203 -0.24 -0.03    -0.025    37.650
ATOM     22  C   UNL d   1     -15.467  -1.333   1.395 -0.18 -0.03    -0.021    37.650
ATOM     23  C   UNL d   1     -15.149  -0.643   0.221 -0.11 +0.10    +0.066    37.650
ATOM     24  C   UNL d   1     -14.206  -1.880   3.570 -0.25 +0.04    +0.051    37.650
ATOM     25  N   UNL d   1     -14.516   0.692  -2.367 -0.07 -0.24    -0.248    37.650
ATOM     26  N   UNL d   1     -11.925   2.008  -2.551 -0.07 -0.10    -0.248    37.650
ATOM     27  N   UNL d   1     -11.301   1.132   0.067 -0.14 -0.17    -0.248    37.650
ATOM     28  N   UNL d   1     -13.879  -0.190   0.274 -0.12 -0.37    -0.248    37.650
ATOM     29 FE   UNL d   1     -12.907   0.901  -1.127 -0.04 +0.00    +0.000    37.650
ATOM     30  O   UNL d   1     -12.655  -0.058  -2.326 -0.26 +0.00    +0.000    37.650
ATOM     31  O   UNL d   1     -12.085  -0.421  -0.903 -0.17 +0.00    +0.000    37.650
ATOM     32  C   UNL d   1     -17.862  -0.550  -3.409 -0.01 +0.03    +0.052    37.650
ATOM     33  C   UNL d   1     -17.752  -1.901  -4.108 -0.02 +0.06    +0.115    37.650
ATOM     34  C   UNL d   1     -16.852  -2.860  -3.369 -0.09 +0.12    +0.139    37.650
ATOM     35  O   UNL d   1     -17.055  -3.090  -2.188 +0.05 -0.73    -0.650    37.650
ATOM     36  O   UNL d   1     -15.805  -3.453  -3.979 -0.31 -0.81    -0.776    37.650
ATOM     37  H   UNL d   1     -15.641  -3.355  -4.924 +0.02 +0.11    +0.167    37.650
ATOM     38  C   UNL d   1     -16.739  -2.078   1.712 -0.11 +0.05    +0.052    37.650
ATOM     39  C   UNL d   1     -17.770  -1.196   2.412 -0.07 +0.11    +0.115    37.650
ATOM     40  C   UNL d   1     -17.448   0.273   2.294 -0.16 +0.21    +0.139    37.650
ATOM     41  O   UNL d   1     -17.074   0.893   3.276 -0.06 -1.01    -0.650    37.650
ATOM     42  O   UNL d   1     -17.516   0.907   1.107 -0.27 -1.53    -0.776    37.650
ATOM     43  H   UNL d   1     -18.073   0.579   0.391 +0.02 +0.23    +0.167    37.650
ATOM     44  C   UNL d   1      -9.355   4.380  -3.992 -0.30 -0.00    +0.004    37.650
ATOM     45  C   UNL d   1      -8.965   5.499  -3.384 -0.49 -0.00    +0.012    37.650
ATOM     46  C   UNL d   1      -9.369   0.368   3.144 -0.38 +0.00    +0.004    37.650
ATOM     47  C   UNL d   1      -8.100   0.308   3.569 -0.38 +0.00    +0.012    37.650
TER
ENDMDL
MODEL        5
USER    Run = 5
USER    Cluster Rank = 10
USER    Number of conformations in this cluster = 1
USER  
USER    RMSD from reference structure       = 40.817 A
USER  
USER    Estimated Free Energy of Binding    =   -7.53 kcal/mol  [=(1)+(2)+(3)-(4)]
USER    Estimated Inhibition Constant, Ki   =    3.05 uM (micromolar)  [Temperature = 298.15 K]
USER    
USER    (1) Final Intermolecular Energy     =  -10.51 kcal/mol
USER        vdW + Hbond + desolv Energy     =   -6.72 kcal/mol
USER        Electrostatic Energy            =   -3.79 kcal/mol
USER    (2) Final Total Internal Energy     =   -0.61 kcal/mol
USER    (3) Torsional Free Energy           =   +2.98 kcal/mol
USER    (4) Unbound System's Energy  [=(2)] =   -0.61 kcal/mol
USER    
USER    
USER  
USER    DPF = D:/Protein_go_brrr/autodock/final/AncMH_nat/heme_O2/dock.dpf
USER    NEWDPF move	heme_O2_opt.pdbqt
USER    NEWDPF about	8.287000 34.468000 -0.670000
USER    NEWDPF tran0	-16.721521 -1.573232 3.869566
USER    NEWDPF axisangle0	0.654155 -0.216041 0.724849 -167.579374
USER    NEWDPF quaternion0	0.650317 -0.214774 0.720596 -0.108178
USER    NEWDPF dihe0	-80.95 9.00 -59.59 -126.30 175.08 -42.96 -75.70 -179.95 -29.38 -1.11 
USER  
USER                              x       y       z    vdW   Elec        q     RMS 
ATOM      1  C   UNL d   1     -17.452  -1.515   1.879 -0.06 +0.06    +0.064    40.817
ATOM      2  C   UNL d   1     -13.116  -0.917   3.725 -0.21 +0.04    +0.064    40.817
ATOM      3  C   UNL d   1     -14.820  -1.562   8.172 -0.32 +0.01    +0.064    40.817
ATOM      4  C   UNL d   1     -19.199  -2.652   6.248 -0.06 +0.03    +0.064    40.817
ATOM      5  C   UNL d   1     -16.133  -1.301   2.018 -0.13 +0.07    +0.066    40.817
ATOM      6  C   UNL d   1     -15.265  -1.043   0.953 -0.19 -0.03    -0.021    40.817
ATOM      7  C   UNL d   1     -14.002  -0.913   1.482 -0.25 -0.03    -0.025    40.817
ATOM      8  C   UNL d   1     -14.141  -1.047   2.860 -0.22 +0.06    +0.066    40.817
ATOM      9  C   UNL d   1     -12.742  -0.701   0.671 -0.22 +0.05    +0.051    40.817
ATOM     10  C   UNL d   1     -13.204  -1.024   5.182 -0.26 +0.02    +0.066    40.817
ATOM     11  C   UNL d   1     -12.143  -0.719   6.041 -0.36 -0.00    -0.021    40.817
ATOM     12  C   UNL d   1     -12.620  -0.881   7.329 -0.46 +0.00    +0.000    40.817
ATOM     13  C   UNL d   1     -13.972  -1.298   7.178 -0.21 +0.01    +0.070    40.817
ATOM     14  C   UNL d   1     -10.741  -0.265   5.651 -0.45 +0.01    +0.052    40.817
ATOM     15  C   UNL d   1     -16.184  -2.019   8.061 -0.21 +0.02    +0.066    40.817
ATOM     16  C   UNL d   1     -16.968  -2.436   9.137 -0.21 -0.00    -0.021    40.817
ATOM     17  C   UNL d   1     -18.221  -2.753   8.612 -0.14 +0.00    +0.000    40.817
ATOM     18  C   UNL d   1     -18.107  -2.500   7.238 -0.09 +0.02    +0.070    40.817
ATOM     19  C   UNL d   1     -16.440  -2.546  10.545 -0.28 +0.01    +0.052    40.817
ATOM     20  C   UNL d   1     -19.112  -2.460   4.918 -0.03 +0.04    +0.066    40.817
ATOM     21  C   UNL d   1     -20.181  -2.602   4.037 -0.02 -0.01    -0.025    40.817
ATOM     22  C   UNL d   1     -19.708  -2.255   2.791 -0.01 -0.01    -0.021    40.817
ATOM     23  C   UNL d   1     -18.358  -1.931   2.956 -0.02 +0.05    +0.066    40.817
ATOM     24  C   UNL d   1     -21.581  -3.049   4.367 -0.01 +0.02    +0.051    40.817
ATOM     25  N   UNL d   1     -15.443  -1.351   3.184 -0.09 -0.21    -0.248    40.817
ATOM     26  N   UNL d   1     -14.318  -1.386   5.869 -0.03 -0.08    -0.248    40.817
ATOM     27  N   UNL d   1     -16.843  -2.128   6.911 -0.07 -0.09    -0.248    40.817
ATOM     28  N   UNL d   1     -17.988  -2.101   4.242 -0.01 -0.16    -0.248    40.817
ATOM     29 FE   UNL d   1     -16.167  -1.747   5.052 -0.04 +0.00    +0.000    40.817
ATOM     30  O   UNL d   1     -15.223  -2.853   4.497 -0.20 +0.00    +0.000    40.817
ATOM     31  O   UNL d   1     -16.511  -3.260   5.306 -0.16 +0.00    +0.000    40.817
ATOM     32  C   UNL d   1     -15.583  -1.055  -0.520 -0.15 +0.07    +0.052    40.817
ATOM     33  C   UNL d   1     -16.749  -0.140  -0.882 -0.07 +0.15    +0.115    40.817
ATOM     34  C   UNL d   1     -16.291   1.161  -1.494 +0.17 +0.22    +0.139    40.817
ATOM     35  O   UNL d   1     -15.204   1.217  -2.048 +0.01 -0.85    -0.650    40.817
ATOM     36  O   UNL d   1     -17.045   2.277  -1.421 -0.04 -1.24    -0.776    40.817
ATOM     37  H   UNL d   1     -17.785   2.434  -2.018 +0.01 +0.16    +0.167    40.817
ATOM     38  C   UNL d   1     -20.498  -2.298   1.509 +0.00 +0.03    +0.052    40.817
ATOM     39  C   UNL d   1     -20.997  -0.918   1.087 -0.00 +0.08    +0.115    40.817
ATOM     40  C   UNL d   1     -20.605   0.161   2.065 +0.02 +0.19    +0.139    40.817
ATOM     41  O   UNL d   1     -19.666   0.898   1.812 -0.14 -1.17    -0.650    40.817
ATOM     42  O   UNL d   1     -21.308   0.362   3.197 -0.29 -1.48    -0.776    40.817
ATOM     43  H   UNL d   1     -21.970  -0.272   3.500 +0.01 +0.18    +0.167    40.817
ATOM     44  C   UNL d   1     -11.753  -0.631   8.545 -0.55 +0.00    +0.004    40.817
ATOM     45  C   UNL d   1     -11.914   0.296   9.489 -0.38 +0.00    +0.012    40.817
ATOM     46  C   UNL d   1     -19.455  -3.310   9.270 -0.13 +0.00    +0.004    40.817
ATOM     47  C   UNL d   1     -20.233  -4.317   8.853 -0.16 +0.00    +0.012    40.817
TER
ENDMDL
MODEL       66
USER    Run = 66
USER    Cluster Rank = 11
USER    Number of conformations in this cluster = 3
USER  
USER    RMSD from reference structure       = 36.315 A
USER  
USER    Estimated Free Energy of Binding    =   -7.52 kcal/mol  [=(1)+(2)+(3)-(4)]
USER    Estimated Inhibition Constant, Ki   =    3.09 uM (micromolar)  [Temperature = 298.15 K]
USER    
USER    (1) Final Intermolecular Energy     =  -10.50 kcal/mol
USER        vdW + Hbond + desolv Energy     =   -6.09 kcal/mol
USER        Electrostatic Energy            =   -4.41 kcal/mol
USER    (2) Final Total Internal Energy     =   -1.69 kcal/mol
USER    (3) Torsional Free Energy           =   +2.98 kcal/mol
USER    (4) Unbound System's Energy  [=(2)] =   -1.69 kcal/mol
USER    
USER    
USER  
USER    DPF = D:/Protein_go_brrr/autodock/final/AncMH_nat/heme_O2/dock.dpf
USER    NEWDPF move	heme_O2_opt.pdbqt
USER    NEWDPF about	8.287000 34.468000 -0.670000
USER    NEWDPF tran0	-16.498591 3.320836 -1.405324
USER    NEWDPF axisangle0	0.946343 0.225790 -0.231199 113.843374
USER    NEWDPF quaternion0	0.792965 0.189195 -0.193728 0.545785
USER    NEWDPF dihe0	-7.90 44.72 -114.48 20.82 -113.68 133.15 -130.81 155.78 -18.34 20.37 
USER  
USER                              x       y       z    vdW   Elec        q     RMS 
ATOM      1  C   UNL d   1     -17.630   1.530  -1.519 -0.04 +0.07    +0.064    36.315
ATOM      2  C   UNL d   1     -18.773   5.975  -0.297 -0.07 +0.04    +0.064    36.315
ATOM      3  C   UNL d   1     -14.243   7.427  -0.982 -0.33 +0.02    +0.064    36.315
ATOM      4  C   UNL d   1     -13.159   2.962  -2.700 -0.09 +0.04    +0.064    36.315
ATOM      5  C   UNL d   1     -18.311   2.621  -1.132 -0.06 +0.07    +0.066    36.315
ATOM      6  C   UNL d   1     -19.670   2.621  -0.807 -0.04 -0.02    -0.021    36.315
ATOM      7  C   UNL d   1     -20.013   3.916  -0.495 -0.05 -0.02    -0.025    36.315
ATOM      8  C   UNL d   1     -18.842   4.663  -0.592 -0.07 +0.05    +0.066    36.315
ATOM      9  C   UNL d   1     -21.411   4.384  -0.155 -0.03 +0.03    +0.051    36.315
ATOM     10  C   UNL d   1     -17.570   6.806  -0.358 -0.11 +0.03    +0.066    36.315
ATOM     11  C   UNL d   1     -17.519   8.122   0.115 -0.14 -0.01    -0.021    36.315
ATOM     12  C   UNL d   1     -16.216   8.552  -0.057 -0.27 +0.00    +0.000    36.315
ATOM     13  C   UNL d   1     -15.534   7.454  -0.649 -0.25 +0.02    +0.070    36.315
ATOM     14  C   UNL d   1     -18.659   8.926   0.730 -0.08 +0.01    +0.052    36.315
ATOM     15  C   UNL d   1     -13.524   6.348  -1.615 -0.28 +0.03    +0.066    36.315
ATOM     16  C   UNL d   1     -12.215   6.441  -2.086 -0.33 -0.00    -0.021    36.315
ATOM     17  C   UNL d   1     -11.884   5.179  -2.582 -0.21 +0.00    +0.000    36.315
ATOM     18  C   UNL d   1     -13.031   4.401  -2.370 -0.13 +0.04    +0.070    36.315
ATOM     19  C   UNL d   1     -11.424   7.725  -2.073 -0.18 +0.00    +0.052    36.315
ATOM     20  C   UNL d   1     -14.257   2.197  -2.551 -0.06 +0.07    +0.066    36.315
ATOM     21  C   UNL d   1     -14.312   0.841  -2.863 -0.09 -0.02    -0.025    36.315
ATOM     22  C   UNL d   1     -15.571   0.410  -2.507 -0.08 -0.02    -0.021    36.315
ATOM     23  C   UNL d   1     -16.246   1.527  -2.006 +0.02 +0.09    +0.066    36.315
ATOM     24  C   UNL d   1     -13.221   0.001  -3.473 -0.15 +0.03    +0.051    36.315
ATOM     25  N   UNL d   1     -17.808   3.877  -1.048 -0.07 -0.29    -0.248    36.315
ATOM     26  N   UNL d   1     -16.366   6.397  -0.833 -0.11 -0.16    -0.248    36.315
ATOM     27  N   UNL d   1     -14.041   5.146  -1.852 -0.11 -0.19    -0.248    36.315
ATOM     28  N   UNL d   1     -15.459   2.621  -2.076 +0.01 -0.39    -0.248    36.315
ATOM     29 FE   UNL d   1     -15.906   4.496  -1.460 -0.03 +0.00    +0.000    36.315
ATOM     30  O   UNL d   1     -16.973   5.038  -2.456 -0.09 +0.00    +0.000    36.315
ATOM     31  O   UNL d   1     -15.568   4.572  -2.994 -0.11 +0.00    +0.000    36.315
ATOM     32  C   UNL d   1     -20.645   1.477  -0.917 -0.01 +0.03    +0.052    36.315
ATOM     33  C   UNL d   1     -20.321   0.329   0.034 -0.01 +0.09    +0.115    36.315
ATOM     34  C   UNL d   1     -20.029   0.807   1.435 +0.02 +0.21    +0.139    36.315
ATOM     35  O   UNL d   1     -20.922   0.816   2.267 +0.13 -1.27    -0.650    36.315
ATOM     36  O   UNL d   1     -18.805   1.253   1.785 -0.36 -1.52    -0.776    36.315
ATOM     37  H   UNL d   1     -18.047   1.184   1.192 +0.02 +0.30    +0.167    36.315
ATOM     38  C   UNL d   1     -16.109  -0.984  -2.701 -0.11 +0.04    +0.052    36.315
ATOM     39  C   UNL d   1     -16.566  -1.619  -1.390 -0.11 +0.12    +0.115    36.315
ATOM     40  C   UNL d   1     -15.860  -1.037  -0.191 -0.14 +0.18    +0.139    36.315
ATOM     41  O   UNL d   1     -14.751  -1.444   0.115 +0.03 -0.87    -0.650    36.315
ATOM     42  O   UNL d   1     -16.410  -0.036   0.523 -0.48 -1.48    -0.776    36.315
ATOM     43  H   UNL d   1     -17.331  -0.068   0.810 +0.03 +0.24    +0.167    36.315
ATOM     44  C   UNL d   1     -15.768   9.940   0.350 -0.36 -0.00    +0.004    36.315
ATOM     45  C   UNL d   1     -15.780  10.480   1.568 -0.37 -0.01    +0.012    36.315
ATOM     46  C   UNL d   1     -10.639   4.682  -3.267 -0.29 -0.00    +0.004    36.315
ATOM     47  C   UNL d   1      -9.440   5.274  -3.339 -0.43 -0.00    +0.012    36.315
TER
ENDMDL
MODEL       37
USER    Run = 37
USER    Cluster Rank = 12
USER    Number of conformations in this cluster = 3
USER  
USER    RMSD from reference structure       = 31.768 A
USER  
USER    Estimated Free Energy of Binding    =   -7.46 kcal/mol  [=(1)+(2)+(3)-(4)]
USER    Estimated Inhibition Constant, Ki   =    3.41 uM (micromolar)  [Temperature = 298.15 K]
USER    
USER    (1) Final Intermolecular Energy     =  -10.44 kcal/mol
USER        vdW + Hbond + desolv Energy     =   -7.55 kcal/mol
USER        Electrostatic Energy            =   -2.89 kcal/mol
USER    (2) Final Total Internal Energy     =   -0.63 kcal/mol
USER    (3) Torsional Free Energy           =   +2.98 kcal/mol
USER    (4) Unbound System's Energy  [=(2)] =   -0.63 kcal/mol
USER    
USER    
USER  
USER    DPF = D:/Protein_go_brrr/autodock/final/AncMH_nat/heme_O2/dock.dpf
USER    NEWDPF move	heme_O2_opt.pdbqt
USER    NEWDPF about	8.287000 34.468000 -0.670000
USER    NEWDPF tran0	-13.734019 8.192410 -2.949002
USER    NEWDPF axisangle0	-0.874396 -0.122907 0.469388 -158.566995
USER    NEWDPF quaternion0	-0.859146 -0.120763 0.461201 -0.185950
USER    NEWDPF dihe0	93.56 5.12 -43.23 -84.82 -127.94 -131.89 -132.94 9.98 -171.36 -176.50 
USER  
USER                              x       y       z    vdW   Elec        q     RMS 
ATOM      1  C   UNL d   1     -14.062   6.774  -1.406 -0.29 +0.02    +0.064    31.768
ATOM      2  C   UNL d   1     -16.624  10.450  -2.983 -0.09 +0.00    +0.064    31.768
ATOM      3  C   UNL d   1     -13.256  11.519  -6.240 -0.17 -0.01    +0.064    31.768
ATOM      4  C   UNL d   1     -10.832   7.454  -4.947 -0.28 -0.02    +0.064    31.768
ATOM      5  C   UNL d   1     -15.035   7.686  -1.570 -0.21 +0.02    +0.066    31.768
ATOM      6  C   UNL d   1     -16.196   7.741  -0.794 -0.21 -0.01    -0.021    31.768
ATOM      7  C   UNL d   1     -16.958   8.778  -1.278 -0.12 -0.00    -0.025    31.768
ATOM      8  C   UNL d   1     -16.220   9.358  -2.305 -0.08 +0.00    +0.066    31.768
ATOM      9  C   UNL d   1     -18.337   9.147  -0.775 -0.06 +0.01    +0.051    31.768
ATOM     10  C   UNL d   1     -15.883  11.117  -4.055 -0.09 -0.00    +0.066    31.768
ATOM     11  C   UNL d   1     -16.271  12.341  -4.612 -0.07 +0.00    -0.021    31.768
ATOM     12  C   UNL d   1     -15.302  12.674  -5.541 -0.08 -0.00    +0.000    31.768
ATOM     13  C   UNL d   1     -14.364  11.606  -5.505 -0.11 -0.00    +0.070    31.768
ATOM     14  C   UNL d   1     -17.499  13.170  -4.254 -0.03 -0.00    +0.052    31.768
ATOM     15  C   UNL d   1     -12.299  10.438  -6.259 -0.19 -0.01    +0.066    31.768
ATOM     16  C   UNL d   1     -11.248  10.329  -7.168 -0.25 +0.00    -0.021    31.768
ATOM     17  C   UNL d   1     -10.543   9.177  -6.819 -0.30 -0.00    +0.000    31.768
ATOM     18  C   UNL d   1     -11.226   8.664  -5.708 -0.27 -0.01    +0.070    31.768
ATOM     19  C   UNL d   1     -11.044  11.293  -8.310 -0.23 -0.01    +0.052    31.768
ATOM     20  C   UNL d   1     -11.488   6.911  -3.904 -0.24 -0.01    +0.066    31.768
ATOM     21  C   UNL d   1     -11.058   5.779  -3.216 -0.26 +0.00    -0.025    31.768
ATOM     22  C   UNL d   1     -11.952   5.587  -2.186 -0.26 -0.00    -0.021    31.768
ATOM     23  C   UNL d   1     -12.908   6.601  -2.296 -0.26 +0.01    +0.066    31.768
ATOM     24  C   UNL d   1      -9.858   4.923  -3.527 -0.35 -0.01    +0.051    31.768
ATOM     25  N   UNL d   1     -15.065   8.645  -2.528 -0.02 -0.03    -0.248    31.768
ATOM     26  N   UNL d   1     -14.728  10.660  -4.602 -0.06 -0.00    -0.248    31.768
ATOM     27  N   UNL d   1     -12.332   9.400  -5.428 -0.12 +0.03    -0.248    31.768
ATOM     28  N   UNL d   1     -12.647   7.377  -3.368 -0.15 -0.01    -0.248    31.768
ATOM     29 FE   UNL d   1     -13.678   9.007  -3.983 -0.05 +0.00    +0.000    31.768
ATOM     30  O   UNL d   1     -15.038   8.481  -4.528 -0.11 +0.00    +0.000    31.768
ATOM     31  O   UNL d   1     -13.690   7.968  -5.163 -0.12 -0.00    +0.000    31.768
ATOM     32  C   UNL d   1     -16.639   6.773   0.273 -0.16 +0.03    +0.052    31.768
ATOM     33  C   UNL d   1     -17.442   5.602  -0.286 -0.12 +0.10    +0.115    31.768
ATOM     34  C   UNL d   1     -16.818   5.018  -1.529 -0.09 +0.13    +0.139    31.768
ATOM     35  O   UNL d   1     -15.891   4.230  -1.425 -0.56 -1.18    -0.650    31.768
ATOM     36  O   UNL d   1     -17.242   5.368  -2.761 +0.03 -0.36    -0.776    31.768
ATOM     37  H   UNL d   1     -16.824   6.076  -3.264 +0.02 +0.05    +0.167    31.768
ATOM     38  C   UNL d   1     -11.920   4.451  -1.196 -0.20 +0.03    +0.052    31.768
ATOM     39  C   UNL d   1     -12.386   3.132  -1.807 -0.17 +0.08    +0.115    31.768
ATOM     40  C   UNL d   1     -12.558   2.047  -0.774 -0.10 +0.18    +0.139    31.768
ATOM     41  O   UNL d   1     -12.555   2.333   0.412 -0.51 -1.22    -0.650    31.768
ATOM     42  O   UNL d   1     -12.766   0.767  -1.138 +0.02 -0.80    -0.776    31.768
ATOM     43  H   UNL d   1     -12.701   0.487  -2.059 +0.06 +0.12    +0.167    31.768
ATOM     44  C   UNL d   1     -15.373  13.951  -6.352 -0.04 -0.00    +0.004    31.768
ATOM     45  C   UNL d   1     -14.404  14.842  -6.564 -0.06 +0.00    +0.012    31.768
ATOM     46  C   UNL d   1      -9.355   8.512  -7.463 -0.22 -0.00    +0.004    31.768
ATOM     47  C   UNL d   1      -9.347   7.552  -8.396 -0.35 -0.01    +0.012    31.768
TER
ENDMDL
MODEL       20
USER    Run = 20
USER    Cluster Rank = 13
USER    Number of conformations in this cluster = 2
USER  
USER    RMSD from reference structure       = 48.085 A
USER  
USER    Estimated Free Energy of Binding    =   -7.12 kcal/mol  [=(1)+(2)+(3)-(4)]
USER    Estimated Inhibition Constant, Ki   =    6.02 uM (micromolar)  [Temperature = 298.15 K]
USER    
USER    (1) Final Intermolecular Energy     =  -10.11 kcal/mol
USER        vdW + Hbond + desolv Energy     =   -7.84 kcal/mol
USER        Electrostatic Energy            =   -2.27 kcal/mol
USER    (2) Final Total Internal Energy     =   -0.19 kcal/mol
USER    (3) Torsional Free Energy           =   +2.98 kcal/mol
USER    (4) Unbound System's Energy  [=(2)] =   -0.19 kcal/mol
USER    
USER    
USER  
USER    DPF = D:/Protein_go_brrr/autodock/final/AncMH_nat/heme_O2/dock.dpf
USER    NEWDPF move	heme_O2_opt.pdbqt
USER    NEWDPF about	8.287000 34.468000 -0.670000
USER    NEWDPF tran0	-11.837308 -9.272627 18.792435
USER    NEWDPF axisangle0	-0.920826 0.374729 -0.107970 -113.705414
USER    NEWDPF quaternion0	-0.770978 0.313748 -0.090399 -0.546793
USER    NEWDPF dihe0	151.00 -117.29 -46.15 -109.37 -108.31 -16.83 -103.08 -54.47 132.57 29.82 
USER  
USER                              x       y       z    vdW   Elec        q     RMS 
ATOM      1  C   UNL d   1     -13.926  -8.936  18.940 -0.12 +0.03    +0.064    48.085
ATOM      2  C   UNL d   1     -10.164  -6.146  19.725 -0.15 +0.00    +0.064    48.085
ATOM      3  C   UNL d   1      -7.159  -9.734  18.635 -0.22 +0.00    +0.064    48.085
ATOM      4  C   UNL d   1     -11.024 -12.475  17.362 -0.13 +0.00    +0.064    48.085
ATOM      5  C   UNL d   1     -13.148  -7.884  19.241 -0.10 +0.03    +0.066    48.085
ATOM      6  C   UNL d   1     -13.638  -6.636  19.639 -0.10 -0.01    -0.021    48.085
ATOM      7  C   UNL d   1     -12.550  -5.815  19.825 -0.11 -0.01    -0.025    48.085
ATOM      8  C   UNL d   1     -11.425  -6.597  19.582 -0.11 +0.01    +0.066    48.085
ATOM      9  C   UNL d   1     -12.626  -4.348  20.188 -0.13 +0.01    +0.051    48.085
ATOM     10  C   UNL d   1      -8.944  -6.925  19.507 -0.19 +0.00    +0.066    48.085
ATOM     11  C   UNL d   1      -7.665  -6.458  19.827 -0.23 +0.00    -0.021    48.085
ATOM     12  C   UNL d   1      -6.786  -7.485  19.537 -0.24 -0.00    +0.000    48.085
ATOM     13  C   UNL d   1      -7.596  -8.540  19.033 -0.20 -0.00    +0.070    48.085
ATOM     14  C   UNL d   1      -7.298  -5.098  20.412 -0.20 -0.00    +0.052    48.085
ATOM     15  C   UNL d   1      -7.942 -10.815  18.086 -0.14 +0.01    +0.066    48.085
ATOM     16  C   UNL d   1      -7.405 -11.979  17.535 -0.16 -0.01    -0.021    48.085
ATOM     17  C   UNL d   1      -8.489 -12.775  17.164 -0.18 +0.00    +0.000    48.085
ATOM     18  C   UNL d   1      -9.620 -12.029  17.523 -0.14 +0.02    +0.070    48.085
ATOM     19  C   UNL d   1      -5.924 -12.201  17.363 -0.19 +0.01    +0.052    48.085
ATOM     20  C   UNL d   1     -12.132 -11.767  17.656 -0.17 +0.01    +0.066    48.085
ATOM     21  C   UNL d   1     -13.429 -12.247  17.499 -0.17 +0.00    -0.025    48.085
ATOM     22  C   UNL d   1     -14.269 -11.262  17.969 -0.17 -0.00    -0.021    48.085
ATOM     23  C   UNL d   1     -13.450 -10.206  18.380 -0.14 +0.02    +0.066    48.085
ATOM     24  C   UNL d   1     -13.847 -13.576  16.926 -0.10 -0.03    +0.051    48.085
ATOM     25  N   UNL d   1     -11.795  -7.852  19.159 -0.05 -0.06    -0.248    48.085
ATOM     26  N   UNL d   1      -8.907  -8.189  19.013 -0.09 -0.01    -0.248    48.085
ATOM     27  N   UNL d   1      -9.269 -10.811  18.012 -0.05 -0.05    -0.248    48.085
ATOM     28  N   UNL d   1     -12.154 -10.499  18.146 -0.09 -0.05    -0.248    48.085
ATOM     29 FE   UNL d   1     -10.541  -9.354  18.575 -0.03 +0.00    +0.000    48.085
ATOM     30  O   UNL d   1     -10.584  -8.153  17.587 -0.31 +0.00    +0.000    48.085
ATOM     31  O   UNL d   1     -10.529  -9.624  17.026 -0.30 +0.00    +0.000    48.085
ATOM     32  C   UNL d   1     -15.075  -6.189  19.711 -0.09 +0.03    +0.052    48.085
ATOM     33  C   UNL d   1     -15.261  -4.728  19.311 -0.09 +0.06    +0.115    48.085
ATOM     34  C   UNL d   1     -15.149  -4.521  17.821 -0.14 +0.12    +0.139    48.085
ATOM     35  O   UNL d   1     -16.162  -4.402  17.151 -0.42 -0.90    -0.650    48.085
ATOM     36  O   UNL d   1     -13.950  -4.491  17.203 -0.02 -0.42    -0.776    48.085
ATOM     37  H   UNL d   1     -13.842  -4.762  16.285 -0.46 +0.06    +0.167    48.085
ATOM     38  C   UNL d   1     -15.775 -11.314  17.960 -0.15 +0.01    +0.052    48.085
ATOM     39  C   UNL d   1     -16.378 -10.926  19.309 -0.07 +0.03    +0.115    48.085
ATOM     40  C   UNL d   1     -17.364  -9.790  19.193 -0.08 +0.08    +0.139    48.085
ATOM     41  O   UNL d   1     -18.482  -9.908  19.668 +0.01 -0.22    -0.650    48.085
ATOM     42  O   UNL d   1     -17.016  -8.623  18.618 -0.43 -1.30    -0.776    48.085
ATOM     43  H   UNL d   1     -16.977  -7.803  19.125 +0.01 +0.23    +0.167    48.085
ATOM     44  C   UNL d   1      -5.294  -7.355  19.763 -0.29 -0.00    +0.004    48.085
ATOM     45  C   UNL d   1      -4.488  -8.195  20.410 -0.25 -0.00    +0.012    48.085
ATOM     46  C   UNL d   1      -8.543 -14.110  16.470 -0.32 +0.00    +0.004    48.085
ATOM     47  C   UNL d   1      -9.067 -14.401  15.273 -0.36 +0.01    +0.012    48.085
TER
ENDMDL
MODEL       56
USER    Run = 56
USER    Cluster Rank = 14
USER    Number of conformations in this cluster = 2
USER  
USER    RMSD from reference structure       = 36.076 A
USER  
USER    Estimated Free Energy of Binding    =   -7.08 kcal/mol  [=(1)+(2)+(3)-(4)]
USER    Estimated Inhibition Constant, Ki   =    6.43 uM (micromolar)  [Temperature = 298.15 K]
USER    
USER    (1) Final Intermolecular Energy     =  -10.07 kcal/mol
USER        vdW + Hbond + desolv Energy     =   -6.55 kcal/mol
USER        Electrostatic Energy            =   -3.52 kcal/mol
USER    (2) Final Total Internal Energy     =   -1.78 kcal/mol
USER    (3) Torsional Free Energy           =   +2.98 kcal/mol
USER    (4) Unbound System's Energy  [=(2)] =   -1.78 kcal/mol
USER    
USER    
USER  
USER    DPF = D:/Protein_go_brrr/autodock/final/AncMH_nat/heme_O2/dock.dpf
USER    NEWDPF move	heme_O2_opt.pdbqt
USER    NEWDPF about	8.287000 34.468000 -0.670000
USER    NEWDPF tran0	-14.124474 2.313584 -2.493184
USER    NEWDPF axisangle0	0.011917 -0.553249 -0.832931 113.229493
USER    NEWDPF quaternion0	0.009951 -0.461957 -0.695488 0.550266
USER    NEWDPF dihe0	35.01 -22.17 -49.05 -107.77 -156.74 -54.17 -50.39 155.35 -177.61 179.98 
USER  
USER                              x       y       z    vdW   Elec        q     RMS 
ATOM      1  C   UNL d   1     -14.249   0.396  -1.595 -0.13 +0.08    +0.064    36.076
ATOM      2  C   UNL d   1     -10.767   3.619  -1.807 -0.08 +0.02    +0.064    36.076
ATOM      3  C   UNL d   1     -13.516   6.552  -4.440 -0.10 +0.00    +0.064    36.076
ATOM      4  C   UNL d   1     -17.269   3.453  -3.826 -0.01 +0.03    +0.064    36.076
ATOM      5  C   UNL d   1     -13.078   1.034  -1.436 -0.15 +0.07    +0.066    36.076
ATOM      6  C   UNL d   1     -11.986   0.504  -0.743 -0.25 -0.02    -0.021    36.076
ATOM      7  C   UNL d   1     -10.992   1.455  -0.767 -0.27 -0.01    -0.025    36.076
ATOM      8  C   UNL d   1     -11.488   2.519  -1.515 -0.19 +0.03    +0.066    36.076
ATOM      9  C   UNL d   1      -9.655   1.327  -0.070 -0.38 +0.01    +0.051    36.076
ATOM     10  C   UNL d   1     -11.224   4.757  -2.605 -0.19 +0.01    +0.066    36.076
ATOM     11  C   UNL d   1     -10.383   5.797  -3.015 -0.33 +0.00    -0.021    36.076
ATOM     12  C   UNL d   1     -11.153   6.644  -3.791 -0.29 -0.00    +0.000    36.076
ATOM     13  C   UNL d   1     -12.453   6.066  -3.800 -0.12 +0.00    +0.070    36.076
ATOM     14  C   UNL d   1      -8.900   5.962  -2.703 -0.46 -0.01    +0.052    36.076
ATOM     15  C   UNL d   1     -14.856   6.016  -4.446 -0.03 +0.01    +0.066    36.076
ATOM     16  C   UNL d   1     -15.962   6.660  -5.000 -0.02 -0.00    -0.021    36.076
ATOM     17  C   UNL d   1     -17.044   5.795  -4.836 -0.00 +0.00    +0.000    36.076
ATOM     18  C   UNL d   1     -16.509   4.673  -4.187 -0.01 +0.02    +0.070    36.076
ATOM     19  C   UNL d   1     -15.900   8.050  -5.580 -0.03 +0.00    +0.052    36.076
ATOM     20  C   UNL d   1     -16.797   2.378  -3.165 -0.03 +0.05    +0.066    36.076
ATOM     21  C   UNL d   1     -17.557   1.249  -2.868 -0.02 -0.02    -0.025    36.076
ATOM     22  C   UNL d   1     -16.705   0.356  -2.257 -0.05 -0.02    -0.021    36.076
ATOM     23  C   UNL d   1     -15.457   0.983  -2.186 -0.07 +0.08    +0.066    36.076
ATOM     24  C   UNL d   1     -19.021   1.035  -3.151 +0.01 +0.02    +0.051    36.076
ATOM     25  N   UNL d   1     -12.796   2.287  -1.871 -0.08 -0.22    -0.248    36.076
ATOM     26  N   UNL d   1     -12.488   4.921  -3.073 -0.06 -0.05    -0.248    36.076
ATOM     27  N   UNL d   1     -15.197   4.856  -3.892 -0.01 -0.08    -0.248    36.076
ATOM     28  N   UNL d   1     -15.529   2.229  -2.699 -0.04 -0.25    -0.248    36.076
ATOM     29 FE   UNL d   1     -14.022   3.567  -2.886 -0.02 +0.00    +0.000    36.076
ATOM     30  O   UNL d   1     -13.677   4.038  -1.443 -0.30 +0.00    +0.000    36.076
ATOM     31  O   UNL d   1     -15.137   4.234  -2.001 -0.63 +0.00    +0.000    36.076
ATOM     32  C   UNL d   1     -11.922  -0.787   0.030 +0.13 +0.04    +0.052    36.076
ATOM     33  C   UNL d   1     -12.222  -0.604   1.515 -0.24 +0.09    +0.115    36.076
ATOM     34  C   UNL d   1     -13.303  -1.537   2.002 -0.24 +0.13    +0.139    36.076
ATOM     35  O   UNL d   1     -13.207  -2.735   1.790 -0.66 -0.87    -0.650    36.076
ATOM     36  O   UNL d   1     -14.393  -1.074   2.647 +0.06 -0.74    -0.776    36.076
ATOM     37  H   UNL d   1     -14.801  -0.230   2.421 +0.05 +0.21    +0.167    36.076
ATOM     38  C   UNL d   1     -17.092  -0.995  -1.715 -0.08 +0.05    +0.052    36.076
ATOM     39  C   UNL d   1     -17.801  -0.900  -0.366 -0.05 +0.11    +0.115    36.076
ATOM     40  C   UNL d   1     -17.426   0.346   0.396 +0.04 +0.22    +0.139    36.076
ATOM     41  O   UNL d   1     -18.081   1.366   0.250 -0.12 -1.05    -0.650    36.076
ATOM     42  O   UNL d   1     -16.408   0.343   1.278 -0.39 -1.71    -0.776    36.076
ATOM     43  H   UNL d   1     -16.072  -0.478   1.657 +0.04 +0.24    +0.167    36.076
ATOM     44  C   UNL d   1     -10.581   7.894  -4.427 -0.41 -0.00    +0.004    36.076
ATOM     45  C   UNL d   1     -10.627   8.254  -5.709 -0.37 -0.00    +0.012    36.076
ATOM     46  C   UNL d   1     -18.501   5.960  -5.176 +0.00 +0.00    +0.004    36.076
ATOM     47  C   UNL d   1     -19.546   6.020  -4.340 +0.00 +0.00    +0.012    36.076
TER
ENDMDL
MODEL       84
USER    Run = 84
USER    Cluster Rank = 15
USER    Number of conformations in this cluster = 1
USER  
USER    RMSD from reference structure       = 39.312 A
USER  
USER    Estimated Free Energy of Binding    =   -6.97 kcal/mol  [=(1)+(2)+(3)-(4)]
USER    Estimated Inhibition Constant, Ki   =    7.76 uM (micromolar)  [Temperature = 298.15 K]
USER    
USER    (1) Final Intermolecular Energy     =   -9.95 kcal/mol
USER        vdW + Hbond + desolv Energy     =   -8.06 kcal/mol
USER        Electrostatic Energy            =   -1.89 kcal/mol
USER    (2) Final Total Internal Energy     =   -2.27 kcal/mol
USER    (3) Torsional Free Energy           =   +2.98 kcal/mol
USER    (4) Unbound System's Energy  [=(2)] =   -2.27 kcal/mol
USER    
USER    
USER  
USER    DPF = D:/Protein_go_brrr/autodock/final/AncMH_nat/heme_O2/dock.dpf
USER    NEWDPF move	heme_O2_opt.pdbqt
USER    NEWDPF about	8.287000 34.468000 -0.670000
USER    NEWDPF tran0	-13.986365 -0.978013 -1.898589
USER    NEWDPF axisangle0	0.450492 0.887836 -0.093833 58.220015
USER    NEWDPF quaternion0	0.219159 0.431922 -0.045648 0.873687
USER    NEWDPF dihe0	-6.52 123.29 -34.59 117.67 -123.27 -115.67 -172.35 -86.13 -5.19 -6.87 
USER  
USER                              x       y       z    vdW   Elec        q     RMS 
ATOM      1  C   UNL d   1     -14.465  -1.214  -3.951 -0.11 +0.04    +0.064    39.312
ATOM      2  C   UNL d   1     -16.904  -2.078   0.031 -0.08 +0.07    +0.064    39.312
ATOM      3  C   UNL d   1     -13.193  -0.642   2.725 -0.29 +0.05    +0.064    39.312
ATOM      4  C   UNL d   1     -10.846   0.701  -1.368 -0.25 +0.03    +0.064    39.312
ATOM      5  C   UNL d   1     -15.432  -1.565  -3.088 -0.09 +0.06    +0.066    39.312
ATOM      6  C   UNL d   1     -16.679  -2.066  -3.471 -0.09 -0.02    -0.021    39.312
ATOM      7  C   UNL d   1     -17.402  -2.276  -2.320 -0.08 -0.02    -0.025    39.312
ATOM      8  C   UNL d   1     -16.559  -1.943  -1.263 -0.04 +0.07    +0.066    39.312
ATOM      9  C   UNL d   1     -18.840  -2.745  -2.274 -0.04 +0.03    +0.051    39.312
ATOM     10  C   UNL d   1     -16.055  -1.767   1.182 -0.11 +0.08    +0.066    39.312
ATOM     11  C   UNL d   1     -16.402  -2.080   2.501 -0.11 -0.02    -0.021    39.312
ATOM     12  C   UNL d   1     -15.336  -1.690   3.291 -0.17 +0.00    +0.000    39.312
ATOM     13  C   UNL d   1     -14.384  -1.138   2.391 -0.22 +0.07    +0.070    39.312
ATOM     14  C   UNL d   1     -17.683  -2.749   2.985 -0.05 +0.04    +0.052    39.312
ATOM     15  C   UNL d   1     -12.216  -0.042   1.849 -0.25 +0.05    +0.066    39.312
ATOM     16  C   UNL d   1     -11.059   0.606   2.281 -0.31 -0.01    -0.021    39.312
ATOM     17  C   UNL d   1     -10.374   0.999   1.131 -0.32 +0.00    +0.000    39.312
ATOM     18  C   UNL d   1     -11.174   0.553   0.070 -0.27 +0.04    +0.070    39.312
ATOM     19  C   UNL d   1     -10.742   0.840   3.737 -0.27 +0.02    +0.052    39.312
ATOM     20  C   UNL d   1     -11.611   0.324  -2.411 -0.19 +0.03    +0.066    39.312
ATOM     21  C   UNL d   1     -11.241   0.474  -3.745 -0.28 -0.00    -0.025    39.312
ATOM     22  C   UNL d   1     -12.248  -0.091  -4.494 -0.18 -0.01    -0.021    39.312
ATOM     23  C   UNL d   1     -13.208  -0.551  -3.587 -0.10 +0.04    +0.066    39.312
ATOM     24  C   UNL d   1      -9.992   1.127  -4.276 -0.36 -0.01    +0.051    39.312
ATOM     25  N   UNL d   1     -15.369  -1.443  -1.739 -0.07 -0.28    -0.248    39.312
ATOM     26  N   UNL d   1     -14.831  -1.184   1.110 -0.14 -0.32    -0.248    39.312
ATOM     27  N   UNL d   1     -12.323  -0.010   0.524 -0.16 -0.24    -0.248    39.312
ATOM     28  N   UNL d   1     -12.838  -0.256  -2.324 -0.12 -0.18    -0.248    39.312
ATOM     29 FE   UNL d   1     -13.825  -0.715  -0.618 -0.05 +0.00    +0.000    39.312
ATOM     30  O   UNL d   1     -15.096   0.183  -0.596 -0.25 +0.00    +0.000    39.312
ATOM     31  O   UNL d   1     -13.670   0.849  -0.667 -0.19 +0.00    +0.000    39.312
ATOM     32  C   UNL d   1     -17.226  -2.214  -4.867 -0.03 +0.02    +0.052    39.312
ATOM     33  C   UNL d   1     -16.677  -3.440  -5.591 -0.04 +0.05    +0.115    39.312
ATOM     34  C   UNL d   1     -15.814  -4.297  -4.698 -0.11 +0.12    +0.139    39.312
ATOM     35  O   UNL d   1     -16.334  -5.144  -3.990 -0.55 -0.78    -0.650    39.312
ATOM     36  O   UNL d   1     -14.477  -4.130  -4.643 -0.58 -0.74    -0.776    39.312
ATOM     37  H   UNL d   1     -14.013  -3.523  -5.231 +0.04 +0.10    +0.167    39.312
ATOM     38  C   UNL d   1     -12.309  -0.126  -6.000 -0.13 +0.00    +0.052    39.312
ATOM     39  C   UNL d   1     -11.757  -1.428  -6.574 -0.15 +0.01    +0.115    39.312
ATOM     40  C   UNL d   1     -12.831  -2.465  -6.788 -0.10 +0.03    +0.139    39.312
ATOM     41  O   UNL d   1     -13.975  -2.112  -7.026 +0.04 -0.15    -0.650    39.312
ATOM     42  O   UNL d   1     -12.542  -3.780  -6.773 +0.07 -0.26    -0.776    39.312
ATOM     43  H   UNL d   1     -13.012  -4.394  -6.196 +0.06 +0.07    +0.167    39.312
ATOM     44  C   UNL d   1     -15.339  -1.878   4.794 -0.18 +0.00    +0.004    39.312
ATOM     45  C   UNL d   1     -14.322  -2.241   5.575 -0.31 +0.00    +0.012    39.312
ATOM     46  C   UNL d   1      -9.102   1.784   0.958 -0.38 +0.00    +0.004    39.312
ATOM     47  C   UNL d   1      -7.916   1.352   0.511 -0.47 +0.00    +0.012    39.312
TER
ENDMDL
MODEL       78
USER    Run = 78
USER    Cluster Rank = 16
USER    Number of conformations in this cluster = 3
USER  
USER    RMSD from reference structure       = 37.590 A
USER  
USER    Estimated Free Energy of Binding    =   -6.87 kcal/mol  [=(1)+(2)+(3)-(4)]
USER    Estimated Inhibition Constant, Ki   =    9.15 uM (micromolar)  [Temperature = 298.15 K]
USER    
USER    (1) Final Intermolecular Energy     =   -9.86 kcal/mol
USER        vdW + Hbond + desolv Energy     =   -5.56 kcal/mol
USER        Electrostatic Energy            =   -4.29 kcal/mol
USER    (2) Final Total Internal Energy     =   -1.75 kcal/mol
USER    (3) Torsional Free Energy           =   +2.98 kcal/mol
USER    (4) Unbound System's Energy  [=(2)] =   -1.75 kcal/mol
USER    
USER    
USER  
USER    DPF = D:/Protein_go_brrr/autodock/final/AncMH_nat/heme_O2/dock.dpf
USER    NEWDPF move	heme_O2_opt.pdbqt
USER    NEWDPF about	8.287000 34.468000 -0.670000
USER    NEWDPF tran0	-20.972334 5.499920 2.577323
USER    NEWDPF axisangle0	-0.799990 -0.478353 0.362208 -79.688876
USER    NEWDPF quaternion0	-0.512558 -0.306483 0.232068 -0.767787
USER    NEWDPF dihe0	62.57 53.90 -69.42 -63.06 -128.58 139.27 167.97 144.83 2.47 13.83 
USER  
USER                              x       y       z    vdW   Elec        q     RMS 
ATOM      1  C   UNL d   1     -21.748   3.951   1.353 +0.00 +0.08    +0.064    37.590
ATOM      2  C   UNL d   1     -23.432   6.129   5.224 -0.05 +0.03    +0.064    37.590
ATOM      3  C   UNL d   1     -19.487   8.857   5.518 -0.25 +0.02    +0.064    37.590
ATOM      4  C   UNL d   1     -17.956   6.959   1.261 -0.16 +0.04    +0.064    37.590
ATOM      5  C   UNL d   1     -22.529   4.322   2.381 +0.05 +0.08    +0.066    37.590
ATOM      6  C   UNL d   1     -23.770   3.747   2.669 -0.05 -0.02    -0.021    37.590
ATOM      7  C   UNL d   1     -24.278   4.406   3.763 -0.04 -0.01    -0.025    37.590
ATOM      8  C   UNL d   1     -23.312   5.333   4.144 -0.07 +0.05    +0.066    37.590
ATOM      9  C   UNL d   1     -25.641   4.154   4.370 -0.01 +0.02    +0.051    37.590
ATOM     10  C   UNL d   1     -22.443   7.104   5.685 -0.07 +0.03    +0.066    37.590
ATOM     11  C   UNL d   1     -22.544   7.786   6.903 -0.06 -0.01    -0.021    37.590
ATOM     12  C   UNL d   1     -21.407   8.564   7.014 -0.11 +0.00    +0.000    37.590
ATOM     13  C   UNL d   1     -20.665   8.316   5.826 -0.14 +0.02    +0.070    37.590
ATOM     14  C   UNL d   1     -23.666   7.679   7.930 -0.03 +0.01    +0.052    37.590
ATOM     15  C   UNL d   1     -18.721   8.659   4.311 -0.23 +0.02    +0.066    37.590
ATOM     16  C   UNL d   1     -17.575   9.379   3.975 -0.35 -0.00    -0.021    37.590
ATOM     17  C   UNL d   1     -17.121   8.856   2.764 -0.32 +0.00    +0.000    37.590
ATOM     18  C   UNL d   1     -18.035   7.841   2.449 -0.21 +0.03    +0.070    37.590
ATOM     19  C   UNL d   1     -17.052  10.527   4.802 -0.33 +0.00    +0.052    37.590
ATOM     20  C   UNL d   1     -18.839   6.005   0.907 -0.13 +0.05    +0.066    37.590
ATOM     21  C   UNL d   1     -18.701   5.193  -0.216 -0.10 -0.02    -0.025    37.590
ATOM     22  C   UNL d   1     -19.758   4.311  -0.191 -0.07 -0.02    -0.021    37.590
ATOM     23  C   UNL d   1     -20.515   4.632   0.941 -0.08 +0.07    +0.066    37.590
ATOM     24  C   UNL d   1     -17.618   5.257  -1.261 -0.10 +0.04    +0.051    37.590
ATOM     25  N   UNL d   1     -22.263   5.326   3.253 -0.06 -0.28    -0.248    37.590
ATOM     26  N   UNL d   1     -21.305   7.430   5.021 -0.08 -0.11    -0.248    37.590
ATOM     27  N   UNL d   1     -19.041   7.786   3.360 -0.11 -0.11    -0.248    37.590
ATOM     28  N   UNL d   1     -19.977   5.691   1.580 -0.08 -0.23    -0.248    37.590
ATOM     29 FE   UNL d   1     -20.634   6.556   3.288 -0.03 +0.00    +0.000    37.590
ATOM     30  O   UNL d   1     -21.962   7.282   2.925 -0.05 +0.00    +0.000    37.590
ATOM     31  O   UNL d   1     -20.632   7.662   2.169 -0.07 +0.00    +0.000    37.590
ATOM     32  C   UNL d   1     -24.516   2.712   1.867 -0.02 +0.03    +0.052    37.590
ATOM     33  C   UNL d   1     -24.107   1.284   2.216 -0.02 +0.07    +0.115    37.590
ATOM     34  C   UNL d   1     -22.830   1.231   3.017 +0.04 +0.18    +0.139    37.590
ATOM     35  O   UNL d   1     -22.862   1.444   4.219 -0.33 -0.98    -0.650    37.590
ATOM     36  O   UNL d   1     -21.641   0.982   2.431 -0.12 -1.43    -0.776    37.590
ATOM     37  H   UNL d   1     -21.263   1.573   1.769 +0.00 +0.30    +0.167    37.590
ATOM     38  C   UNL d   1     -20.055   3.265  -1.234 -0.02 +0.03    +0.052    37.590
ATOM     39  C   UNL d   1     -19.954   1.846  -0.679 -0.03 +0.09    +0.115    37.590
ATOM     40  C   UNL d   1     -18.846   1.700   0.335 -0.10 +0.19    +0.139    37.590
ATOM     41  O   UNL d   1     -17.686   1.640  -0.039 -0.13 -1.21    -0.650    37.590
ATOM     42  O   UNL d   1     -19.110   1.687   1.656 -0.34 -1.69    -0.776    37.590
ATOM     43  H   UNL d   1     -19.720   1.048   2.042 +0.02 +0.36    +0.167    37.590
ATOM     44  C   UNL d   1     -21.153   9.448   8.217 -0.15 +0.00    +0.004    37.590
ATOM     45  C   UNL d   1     -20.285   9.252   9.209 -0.22 +0.00    +0.012    37.590
ATOM     46  C   UNL d   1     -15.969   9.260   1.883 -0.34 -0.00    +0.004    37.590
ATOM     47  C   UNL d   1     -15.842  10.369   1.142 -0.43 -0.00    +0.012    37.590
TER
ENDMDL
MODEL       27
USER    Run = 27
USER    Cluster Rank = 17
USER    Number of conformations in this cluster = 1
USER  
USER    RMSD from reference structure       = 35.545 A
USER  
USER    Estimated Free Energy of Binding    =   -6.68 kcal/mol  [=(1)+(2)+(3)-(4)]
USER    Estimated Inhibition Constant, Ki   =   12.75 uM (micromolar)  [Temperature = 298.15 K]
USER    
USER    (1) Final Intermolecular Energy     =   -9.66 kcal/mol
USER        vdW + Hbond + desolv Energy     =   -5.89 kcal/mol
USER        Electrostatic Energy            =   -3.77 kcal/mol
USER    (2) Final Total Internal Energy     =   -1.15 kcal/mol
USER    (3) Torsional Free Energy           =   +2.98 kcal/mol
USER    (4) Unbound System's Energy  [=(2)] =   -1.15 kcal/mol
USER    
USER    
USER  
USER    DPF = D:/Protein_go_brrr/autodock/final/AncMH_nat/heme_O2/dock.dpf
USER    NEWDPF move	heme_O2_opt.pdbqt
USER    NEWDPF about	8.287000 34.468000 -0.670000
USER    NEWDPF tran0	-19.853641 7.808804 2.483587
USER    NEWDPF axisangle0	0.478781 0.146128 0.865688 176.646790
USER    NEWDPF quaternion0	0.478576 0.146065 0.865317 0.029258
USER    NEWDPF dihe0	-59.36 15.70 27.67 -108.69 -60.79 130.50 -69.37 -136.13 172.73 138.67 
USER  
USER                              x       y       z    vdW   Elec        q     RMS 
ATOM      1  C   UNL d   1     -19.385   6.842   0.655 -0.06 +0.03    +0.064    35.545
ATOM      2  C   UNL d   1     -17.500  10.594   2.876 -0.24 -0.01    +0.064    35.545
ATOM      3  C   UNL d   1     -20.700  10.207   6.440 -0.11 +0.01    +0.064    35.545
ATOM      4  C   UNL d   1     -22.344   6.058   4.405 -0.10 +0.05    +0.064    35.545
ATOM      5  C   UNL d   1     -18.610   7.893   0.969 -0.09 +0.02    +0.066    35.545
ATOM      6  C   UNL d   1     -17.562   8.360   0.170 -0.13 -0.00    -0.021    35.545
ATOM      7  C   UNL d   1     -16.988   9.419   0.833 -0.23 -0.00    -0.025    35.545
ATOM      8  C   UNL d   1     -17.732   9.601   1.996 -0.18 +0.00    +0.066    35.545
ATOM      9  C   UNL d   1     -15.767  10.178   0.359 -0.33 -0.01    +0.051    35.545
ATOM     10  C   UNL d   1     -18.260  10.849   4.100 -0.21 +0.00    +0.066    35.545
ATOM     11  C   UNL d   1     -18.083  11.988   4.893 -0.22 +0.00    -0.021    35.545
ATOM     12  C   UNL d   1     -19.009  11.904   5.916 -0.16 +0.00    +0.000    35.545
ATOM     13  C   UNL d   1     -19.706  10.685   5.691 -0.12 +0.01    +0.070    35.545
ATOM     14  C   UNL d   1     -17.090  13.123   4.668 -0.12 -0.01    +0.052    35.545
ATOM     15  C   UNL d   1     -21.407   8.962   6.267 -0.07 +0.02    +0.066    35.545
ATOM     16  C   UNL d   1     -22.325   8.440   7.178 -0.05 -0.00    -0.021    35.545
ATOM     17  C   UNL d   1     -22.807   7.257   6.619 -0.06 +0.00    +0.000    35.545
ATOM     18  C   UNL d   1     -22.139   7.144   5.392 -0.08 +0.03    +0.070    35.545
ATOM     19  C   UNL d   1     -22.617   9.083   8.511 -0.05 +0.01    +0.052    35.545
ATOM     20  C   UNL d   1     -21.690   5.896   3.239 -0.08 +0.07    +0.066    35.545
ATOM     21  C   UNL d   1     -21.939   4.862   2.341 +0.02 -0.03    -0.025    35.545
ATOM     22  C   UNL d   1     -21.124   5.085   1.254 -0.08 -0.02    -0.021    35.545
ATOM     23  C   UNL d   1     -20.391   6.241   1.538 -0.08 +0.05    +0.066    35.545
ATOM     24  C   UNL d   1     -22.903   3.717   2.513 -0.02 +0.06    +0.051    35.545
ATOM     25  N   UNL d   1     -18.689   8.620   2.110 -0.05 -0.06    -0.248    35.545
ATOM     26  N   UNL d   1     -19.241  10.047   4.587 -0.07 -0.04    -0.248    35.545
ATOM     27  N   UNL d   1     -21.239   8.147   5.229 -0.05 -0.08    -0.248    35.545
ATOM     28  N   UNL d   1     -20.706   6.706   2.764 -0.07 -0.17    -0.248    35.545
ATOM     29 FE   UNL d   1     -19.980   8.363   3.672 -0.03 +0.00    +0.000    35.545
ATOM     30  O   UNL d   1     -18.497   8.052   4.025 -0.33 +0.00    +0.000    35.545
ATOM     31  O   UNL d   1     -19.645   7.135   4.595 -0.26 +0.00    +0.000    35.545
ATOM     32  C   UNL d   1     -17.029   7.751  -1.102 -0.12 +0.01    +0.052    35.545
ATOM     33  C   UNL d   1     -15.716   7.003  -0.895 -0.22 +0.05    +0.115    35.545
ATOM     34  C   UNL d   1     -15.885   5.507  -0.996 -0.06 +0.14    +0.139    35.545
ATOM     35  O   UNL d   1     -14.970   4.824  -1.428 -0.43 -0.85    -0.650    35.545
ATOM     36  O   UNL d   1     -17.040   4.904  -0.645 -0.16 -0.97    -0.776    35.545
ATOM     37  H   UNL d   1     -17.405   4.978   0.245 +0.02 +0.22    +0.167    35.545
ATOM     38  C   UNL d   1     -21.013   4.196   0.042 -0.05 +0.04    +0.052    35.545
ATOM     39  C   UNL d   1     -19.601   3.647  -0.151 -0.08 +0.11    +0.115    35.545
ATOM     40  C   UNL d   1     -18.978   3.191   1.145 -0.12 +0.25    +0.139    35.545
ATOM     41  O   UNL d   1     -18.410   3.999   1.862 -0.23 -1.23    -0.650    35.545
ATOM     42  O   UNL d   1     -19.082   1.911   1.554 -0.33 -1.70    -0.776    35.545
ATOM     43  H   UNL d   1     -19.312   1.203   0.941 +0.02 +0.24    +0.167    35.545
ATOM     44  C   UNL d   1     -19.128  12.972   6.983 -0.14 +0.00    +0.004    35.545
ATOM     45  C   UNL d   1     -19.631  12.851   8.210 -0.14 +0.00    +0.012    35.545
ATOM     46  C   UNL d   1     -23.768   6.230   7.156 -0.04 +0.00    +0.004    35.545
ATOM     47  C   UNL d   1     -23.527   4.948   7.460 -0.06 +0.00    +0.012    35.545
TER
ENDMDL
MODEL       31
USER    Run = 31
USER    Cluster Rank = 18
USER    Number of conformations in this cluster = 1
USER  
USER    RMSD from reference structure       = 32.703 A
USER  
USER    Estimated Free Energy of Binding    =   -6.45 kcal/mol  [=(1)+(2)+(3)-(4)]
USER    Estimated Inhibition Constant, Ki   =   18.76 uM (micromolar)  [Temperature = 298.15 K]
USER    
USER    (1) Final Intermolecular Energy     =   -9.43 kcal/mol
USER        vdW + Hbond + desolv Energy     =   -5.60 kcal/mol
USER        Electrostatic Energy            =   -3.84 kcal/mol
USER    (2) Final Total Internal Energy     =   -0.59 kcal/mol
USER    (3) Torsional Free Energy           =   +2.98 kcal/mol
USER    (4) Unbound System's Energy  [=(2)] =   -0.59 kcal/mol
USER    
USER    
USER  
USER    DPF = D:/Protein_go_brrr/autodock/final/AncMH_nat/heme_O2/dock.dpf
USER    NEWDPF move	heme_O2_opt.pdbqt
USER    NEWDPF about	8.287000 34.468000 -0.670000
USER    NEWDPF tran0	-17.367784 9.246849 -0.477581
USER    NEWDPF axisangle0	-0.593873 -0.527616 -0.607401 170.187519
USER    NEWDPF quaternion0	-0.591697 -0.525683 -0.605175 0.085525
USER    NEWDPF dihe0	-36.86 52.88 65.48 -139.94 106.23 -167.09 -62.04 38.30 -154.94 -3.12 
USER  
USER                              x       y       z    vdW   Elec        q     RMS 
ATOM      1  C   UNL d   1     -17.167   7.201  -1.002 -0.10 +0.02    +0.064    32.703
ATOM      2  C   UNL d   1     -15.928  11.217  -3.215 -0.02 -0.00    +0.064    32.703
ATOM      3  C   UNL d   1     -17.738  13.859   0.368 -0.06 -0.05    +0.064    32.703
ATOM      4  C   UNL d   1     -18.588   9.728   2.875 -0.12 +0.01    +0.064    32.703
ATOM      5  C   UNL d   1     -16.681   8.078  -1.896 -0.09 +0.01    +0.066    32.703
ATOM      6  C   UNL d   1     -16.085   7.713  -3.106 -0.08 -0.00    -0.021    32.703
ATOM      7  C   UNL d   1     -15.687   8.873  -3.728 -0.09 -0.00    -0.025    32.703
ATOM      8  C   UNL d   1     -16.094   9.918  -2.902 -0.02 +0.00    +0.066    32.703
ATOM      9  C   UNL d   1     -14.928   8.938  -5.036 -0.09 +0.00    +0.051    32.703
ATOM     10  C   UNL d   1     -16.354  12.356  -2.401 -0.12 -0.01    +0.066    32.703
ATOM     11  C   UNL d   1     -16.306  13.682  -2.846 -0.11 +0.00    -0.021    32.703
ATOM     12  C   UNL d   1     -16.840  14.457  -1.834 -0.10 -0.00    +0.000    32.703
ATOM     13  C   UNL d   1     -17.181  13.541  -0.800 -0.11 -0.04    +0.070    32.703
ATOM     14  C   UNL d   1     -15.797  14.185  -4.192 -0.08 -0.00    +0.052    32.703
ATOM     15  C   UNL d   1     -18.066  12.967   1.454 -0.02 -0.04    +0.066    32.703
ATOM     16  C   UNL d   1     -18.496  13.380   2.715 -0.11 +0.01    -0.021    32.703
ATOM     17  C   UNL d   1     -18.743  12.219   3.447 -0.12 -0.00    +0.000    32.703
ATOM     18  C   UNL d   1     -18.444  11.171   2.566 -0.11 -0.01    +0.070    32.703
ATOM     19  C   UNL d   1     -18.578  14.830   3.121 -0.09 -0.02    +0.052    32.703
ATOM     20  C   UNL d   1     -18.270   8.697   2.069 -0.14 +0.01    +0.066    32.703
ATOM     21  C   UNL d   1     -18.444   7.358   2.408 -0.21 -0.01    -0.025    32.703
ATOM     22  C   UNL d   1     -18.070   6.625   1.305 -0.18 -0.01    -0.021    32.703
ATOM     23  C   UNL d   1     -17.662   7.546   0.336 -0.13 +0.03    +0.066    32.703
ATOM     24  C   UNL d   1     -18.940   6.807   3.720 -0.23 +0.04    +0.051    32.703
ATOM     25  N   UNL d   1     -16.647   9.425  -1.743 -0.08 -0.01    -0.248    32.703
ATOM     26  N   UNL d   1     -16.878  12.266  -1.151 -0.10 +0.09    -0.248    32.703
ATOM     27  N   UNL d   1     -17.963  11.642   1.387 -0.08 +0.10    -0.248    32.703
ATOM     28  N   UNL d   1     -17.742   8.802   0.820 -0.07 -0.04    -0.248    32.703
ATOM     29 FE   UNL d   1     -17.314  10.523  -0.156 -0.03 -0.00    +0.000    32.703
ATOM     30  O   UNL d   1     -15.768  10.549  -0.333 -0.34 -0.00    +0.000    32.703
ATOM     31  O   UNL d   1     -16.387  10.457   1.113 -0.40 -0.00    +0.000    32.703
ATOM     32  C   UNL d   1     -15.776   6.324  -3.601 -0.05 +0.01    +0.052    32.703
ATOM     33  C   UNL d   1     -14.631   5.664  -2.837 -0.10 +0.05    +0.115    32.703
ATOM     34  C   UNL d   1     -15.079   4.444  -2.071 -0.07 +0.15    +0.139    32.703
ATOM     35  O   UNL d   1     -16.111   4.485  -1.421 -0.53 -0.99    -0.650    32.703
ATOM     36  O   UNL d   1     -14.347   3.311  -2.063 -0.17 -1.03    -0.776    32.703
ATOM     37  H   UNL d   1     -13.865   3.009  -2.842 +0.03 +0.12    +0.167    32.703
ATOM     38  C   UNL d   1     -18.047   5.121   1.217 -0.01 +0.06    +0.052    32.703
ATOM     39  C   UNL d   1     -19.286   4.559   0.523 -0.13 +0.12    +0.115    32.703
ATOM     40  C   UNL d   1     -19.757   3.267   1.142 -0.00 +0.24    +0.139    32.703
ATOM     41  O   UNL d   1     -18.977   2.582   1.783 -0.40 -1.69    -0.650    32.703
ATOM     42  O   UNL d   1     -21.043   2.876   1.043 +0.01 -1.10    -0.776    32.703
ATOM     43  H   UNL d   1     -21.478   2.785   0.187 +0.01 +0.14    +0.167    32.703
ATOM     44  C   UNL d   1     -16.965  15.962  -1.954 -0.07 -0.00    +0.004    32.703
ATOM     45  C   UNL d   1     -16.399  16.894  -1.187 -0.13 +0.00    +0.012    32.703
ATOM     46  C   UNL d   1     -19.168  12.026   4.879 -0.15 -0.00    +0.004    32.703
ATOM     47  C   UNL d   1     -18.837  11.033   5.714 -0.22 +0.00    +0.012    32.703
TER
ENDMDL
MODEL       30
USER    Run = 30
USER    Cluster Rank = 19
USER    Number of conformations in this cluster = 1
USER  
USER    RMSD from reference structure       = 18.282 A
USER  
USER    Estimated Free Energy of Binding    =   -6.35 kcal/mol  [=(1)+(2)+(3)-(4)]
USER    Estimated Inhibition Constant, Ki   =   22.10 uM (micromolar)  [Temperature = 298.15 K]
USER    
USER    (1) Final Intermolecular Energy     =   -9.33 kcal/mol
USER        vdW + Hbond + desolv Energy     =   -6.28 kcal/mol
USER        Electrostatic Energy            =   -3.05 kcal/mol
USER    (2) Final Total Internal Energy     =   -0.66 kcal/mol
USER    (3) Torsional Free Energy           =   +2.98 kcal/mol
USER    (4) Unbound System's Energy  [=(2)] =   -0.66 kcal/mol
USER    
USER    
USER  
USER    DPF = D:/Protein_go_brrr/autodock/final/AncMH_nat/heme_O2/dock.dpf
USER    NEWDPF move	heme_O2_opt.pdbqt
USER    NEWDPF about	8.287000 34.468000 -0.670000
USER    NEWDPF tran0	-5.139850 20.203237 6.082778
USER    NEWDPF axisangle0	-0.083059 0.995979 0.033561 152.644894
USER    NEWDPF quaternion0	-0.080704 0.967735 0.032610 0.236458
USER    NEWDPF dihe0	-22.96 -21.31 -104.13 139.96 169.06 -46.15 -19.88 151.30 -31.78 11.43 
USER  
USER                              x       y       z    vdW   Elec        q     RMS 
ATOM      1  C   UNL d   1      -3.218  21.097   6.007 -0.03 +0.02    +0.064    18.282
ATOM      2  C   UNL d   1      -5.578  18.302   2.977 -0.20 +0.00    +0.064    18.282
ATOM      3  C   UNL d   1      -9.310  18.028   5.994 -0.20 -0.01    +0.064    18.282
ATOM      4  C   UNL d   1      -7.089  21.290   8.908 -0.11 +0.01    +0.064    18.282
ATOM      5  C   UNL d   1      -3.556  20.361   4.936 -0.06 +0.01    +0.066    18.282
ATOM      6  C   UNL d   1      -2.726  20.161   3.829 -0.09 -0.00    -0.021    18.282
ATOM      7  C   UNL d   1      -3.425  19.387   2.933 -0.14 -0.00    -0.025    18.282
ATOM      8  C   UNL d   1      -4.645  19.096   3.537 -0.15 +0.00    +0.066    18.282
ATOM      9  C   UNL d   1      -2.928  18.991   1.559 -0.12 +0.00    +0.051    18.282
ATOM     10  C   UNL d   1      -6.866  17.942   3.572 -0.11 -0.01    +0.066    18.282
ATOM     11  C   UNL d   1      -7.727  16.985   3.023 -0.29 +0.00    -0.021    18.282
ATOM     12  C   UNL d   1      -8.800  16.879   3.888 -0.32 -0.00    +0.000    18.282
ATOM     13  C   UNL d   1      -8.533  17.807   4.933 -0.18 -0.01    +0.070    18.282
ATOM     14  C   UNL d   1      -7.520  16.186   1.742 -0.44 +0.01    +0.052    18.282
ATOM     15  C   UNL d   1      -9.093  18.983   7.054 -0.12 -0.02    +0.066    18.282
ATOM     16  C   UNL d   1     -10.022  19.284   8.049 -0.19 +0.01    -0.021    18.282
ATOM     17  C   UNL d   1      -9.411  20.213   8.891 -0.19 -0.00    +0.000    18.282
ATOM     18  C   UNL d   1      -8.137  20.410   8.341 -0.15 -0.01    +0.070    18.282
ATOM     19  C   UNL d   1     -11.415  18.706   8.075 -0.19 -0.03    +0.052    18.282
ATOM     20  C   UNL d   1      -5.873  21.535   8.382 -0.08 +0.02    +0.066    18.282
ATOM     21  C   UNL d   1      -4.920  22.361   8.972 -0.06 -0.01    -0.025    18.282
ATOM     22  C   UNL d   1      -3.800  22.297   8.173 -0.04 -0.01    -0.021    18.282
ATOM     23  C   UNL d   1      -4.119  21.445   7.111 -0.04 +0.02    +0.066    18.282
ATOM     24  C   UNL d   1      -5.071  23.174  10.232 -0.05 +0.01    +0.051    18.282
ATOM     25  N   UNL d   1      -4.751  19.750   4.743 -0.05 -0.03    -0.248    18.282
ATOM     26  N   UNL d   1      -7.357  18.453   4.730 -0.10 +0.03    -0.248    18.282
ATOM     27  N   UNL d   1      -7.989  19.713   7.185 -0.11 +0.03    -0.248    18.282
ATOM     28  N   UNL d   1      -5.395  21.020   7.219 -0.04 -0.07    -0.248    18.282
ATOM     29 FE   UNL d   1      -6.371  19.746   5.985 -0.03 +0.00    +0.000    18.282
ATOM     30  O   UNL d   1      -6.602  20.520   4.655 -0.06 +0.00    +0.000    18.282
ATOM     31  O   UNL d   1      -7.177  21.096   6.003 -0.05 +0.00    +0.000    18.282
ATOM     32  C   UNL d   1      -1.380  20.784   3.560 -0.10 +0.01    +0.052    18.282
ATOM     33  C   UNL d   1      -0.406  20.615   4.722 -0.11 +0.04    +0.115    18.282
ATOM     34  C   UNL d   1       1.033  20.739   4.289 -0.14 +0.09    +0.139    18.282
ATOM     35  O   UNL d   1       1.299  21.269   3.222 -0.05 -0.40    -0.650    18.282
ATOM     36  O   UNL d   1       2.040  20.251   5.043 -0.43 -1.03    -0.776    18.282
ATOM     37  H   UNL d   1       1.942  20.103   5.991 +0.02 +0.16    +0.167    18.282
ATOM     38  C   UNL d   1      -2.522  23.065   8.389 -0.01 +0.02    +0.052    18.282
ATOM     39  C   UNL d   1      -1.347  22.153   8.735 -0.02 +0.05    +0.115    18.282
ATOM     40  C   UNL d   1      -1.780  20.906   9.465 -0.01 +0.15    +0.139    18.282
ATOM     41  O   UNL d   1      -1.922  19.862   8.850 -0.01 -0.94    -0.650    18.282
ATOM     42  O   UNL d   1      -1.965  20.911  10.800 -0.01 -1.31    -0.776    18.282
ATOM     43  H   UNL d   1      -1.587  21.600  11.359 +0.00 +0.15    +0.167    18.282
ATOM     44  C   UNL d   1      -9.948  15.925   3.631 -0.47 -0.00    +0.004    18.282
ATOM     45  C   UNL d   1      -9.942  14.595   3.718 -0.61 -0.00    +0.012    18.282
ATOM     46  C   UNL d   1      -9.934  20.947  10.097 -0.18 -0.00    +0.004    18.282
ATOM     47  C   UNL d   1      -9.342  21.113  11.287 -0.13 -0.01    +0.012    18.282
TER
ENDMDL
MODEL       95
USER    Run = 95
USER    Cluster Rank = 20
USER    Number of conformations in this cluster = 2
USER  
USER    RMSD from reference structure       = 37.453 A
USER  
USER    Estimated Free Energy of Binding    =   -6.34 kcal/mol  [=(1)+(2)+(3)-(4)]
USER    Estimated Inhibition Constant, Ki   =   22.43 uM (micromolar)  [Temperature = 298.15 K]
USER    
USER    (1) Final Intermolecular Energy     =   -9.33 kcal/mol
USER        vdW + Hbond + desolv Energy     =   -5.25 kcal/mol
USER        Electrostatic Energy            =   -4.08 kcal/mol
USER    (2) Final Total Internal Energy     =   -1.76 kcal/mol
USER    (3) Torsional Free Energy           =   +2.98 kcal/mol
USER    (4) Unbound System's Energy  [=(2)] =   -1.76 kcal/mol
USER    
USER    
USER  
USER    DPF = D:/Protein_go_brrr/autodock/final/AncMH_nat/heme_O2/dock.dpf
USER    NEWDPF move	heme_O2_opt.pdbqt
USER    NEWDPF about	8.287000 34.468000 -0.670000
USER    NEWDPF tran0	-19.847168 4.429648 0.920749
USER    NEWDPF axisangle0	0.857631 0.356845 -0.370310 94.932277
USER    NEWDPF quaternion0	0.631970 0.262952 -0.272873 0.676026
USER    NEWDPF dihe0	4.37 50.95 -41.66 126.92 -144.85 119.41 -143.77 170.80 -28.35 -9.03 
USER  
USER                              x       y       z    vdW   Elec        q     RMS 
ATOM      1  C   UNL d   1     -20.642   2.581   0.250 -0.05 +0.07    +0.064    37.453
ATOM      2  C   UNL d   1     -22.301   5.898   3.217 -0.08 +0.05    +0.064    37.453
ATOM      3  C   UNL d   1     -18.321   8.530   2.647 -0.20 +0.02    +0.064    37.453
ATOM      4  C   UNL d   1     -16.811   5.357  -0.776 -0.09 +0.07    +0.064    37.453
ATOM      5  C   UNL d   1     -21.419   3.269   1.102 -0.04 +0.08    +0.066    37.453
ATOM      6  C   UNL d   1     -22.667   2.830   1.552 -0.03 -0.02    -0.021    37.453
ATOM      7  C   UNL d   1     -23.168   3.810   2.377 -0.04 -0.03    -0.025    37.453
ATOM      8  C   UNL d   1     -22.190   4.798   2.447 -0.01 +0.08    +0.066    37.453
ATOM      9  C   UNL d   1     -24.534   3.780   3.026 -0.03 +0.03    +0.051    37.453
ATOM     10  C   UNL d   1     -21.300   6.957   3.349 -0.09 +0.04    +0.066    37.453
ATOM     11  C   UNL d   1     -21.394   7.992   4.286 -0.07 -0.01    -0.021    37.453
ATOM     12  C   UNL d   1     -20.247   8.752   4.149 -0.10 +0.00    +0.000    37.453
ATOM     13  C   UNL d   1     -19.507   8.130   3.105 -0.11 +0.03    +0.070    37.453
ATOM     14  C   UNL d   1     -22.518   8.231   5.287 -0.04 +0.01    +0.052    37.453
ATOM     15  C   UNL d   1     -17.557   7.950   1.569 -0.19 +0.02    +0.066    37.453
ATOM     16  C   UNL d   1     -16.401   8.511   1.027 -0.30 -0.00    -0.021    37.453
ATOM     17  C   UNL d   1     -15.953   7.625   0.049 -0.27 +0.00    +0.000    37.453
ATOM     18  C   UNL d   1     -16.880   6.573   0.069 -0.11 +0.05    +0.070    37.453
ATOM     19  C   UNL d   1     -15.865   9.856   1.449 -0.41 -0.01    +0.052    37.453
ATOM     20  C   UNL d   1     -17.706   4.351  -0.813 -0.09 +0.08    +0.066    37.453
ATOM     21  C   UNL d   1     -17.577   3.222  -1.618 -0.04 -0.03    -0.025    37.453
ATOM     22  C   UNL d   1     -18.646   2.407  -1.319 -0.05 -0.02    -0.021    37.453
ATOM     23  C   UNL d   1     -19.400   3.080  -0.352 -0.07 +0.07    +0.066    37.453
ATOM     24  C   UNL d   1     -16.492   2.937  -2.623 -0.05 +0.05    +0.051    37.453
ATOM     25  N   UNL d   1     -21.141   4.495   1.610 -0.04 -0.34    -0.248    37.453
ATOM     26  N   UNL d   1     -20.157   7.042   2.621 -0.06 -0.15    -0.248    37.453
ATOM     27  N   UNL d   1     -17.887   6.823   0.944 -0.11 -0.15    -0.248    37.453
ATOM     28  N   UNL d   1     -18.849   4.281  -0.081 -0.08 -0.26    -0.248    37.453
ATOM     29 FE   UNL d   1     -19.496   5.653   1.260 -0.02 +0.00    +0.000    37.453
ATOM     30  O   UNL d   1     -20.814   6.242   0.677 -0.05 +0.00    +0.000    37.453
ATOM     31  O   UNL d   1     -19.479   6.345  -0.153 -0.06 +0.00    +0.000    37.453
ATOM     32  C   UNL d   1     -23.426   1.603   1.117 -0.02 +0.03    +0.052    37.453
ATOM     33  C   UNL d   1     -22.619   0.318   1.285 -0.02 +0.08    +0.115    37.453
ATOM     34  C   UNL d   1     -21.708   0.364   2.486 +0.05 +0.19    +0.139    37.453
ATOM     35  O   UNL d   1     -22.189   0.442   3.605 -0.55 -1.00    -0.650    37.453
ATOM     36  O   UNL d   1     -20.366   0.348   2.352 -0.04 -1.29    -0.776    37.453
ATOM     37  H   UNL d   1     -19.939   0.374   1.488 +0.02 +0.22    +0.167    37.453
ATOM     38  C   UNL d   1     -18.955   1.087  -1.976 -0.01 +0.03    +0.052    37.453
ATOM     39  C   UNL d   1     -18.357  -0.095  -1.216 -0.02 +0.09    +0.115    37.453
ATOM     40  C   UNL d   1     -17.397   0.339  -0.137 -0.01 +0.21    +0.139    37.453
ATOM     41  O   UNL d   1     -16.199   0.366  -0.366 -0.34 -1.31    -0.650    37.453
ATOM     42  O   UNL d   1     -17.842   0.750   1.067 -0.21 -1.30    -0.776    37.453
ATOM     43  H   UNL d   1     -18.437   0.207   1.597 +0.03 +0.23    +0.167    37.453
ATOM     44  C   UNL d   1     -19.982   9.970   5.009 -0.14 +0.00    +0.004    37.453
ATOM     45  C   UNL d   1     -18.855  10.298   5.639 -0.28 +0.00    +0.012    37.453
ATOM     46  C   UNL d   1     -14.796   7.713  -0.910 -0.31 +0.00    +0.004    37.453
ATOM     47  C   UNL d   1     -13.750   6.884  -1.026 -0.40 +0.00    +0.012    37.453
TER
ENDMDL
MODEL       10
USER    Run = 10
USER    Cluster Rank = 21
USER    Number of conformations in this cluster = 1
USER  
USER    RMSD from reference structure       = 35.559 A
USER  
USER    Estimated Free Energy of Binding    =   -6.33 kcal/mol  [=(1)+(2)+(3)-(4)]
USER    Estimated Inhibition Constant, Ki   =   22.77 uM (micromolar)  [Temperature = 298.15 K]
USER    
USER    (1) Final Intermolecular Energy     =   -9.32 kcal/mol
USER        vdW + Hbond + desolv Energy     =   -5.63 kcal/mol
USER        Electrostatic Energy            =   -3.68 kcal/mol
USER    (2) Final Total Internal Energy     =   -2.30 kcal/mol
USER    (3) Torsional Free Energy           =   +2.98 kcal/mol
USER    (4) Unbound System's Energy  [=(2)] =   -2.30 kcal/mol
USER    
USER    
USER  
USER    DPF = D:/Protein_go_brrr/autodock/final/AncMH_nat/heme_O2/dock.dpf
USER    NEWDPF move	heme_O2_opt.pdbqt
USER    NEWDPF about	8.287000 34.468000 -0.670000
USER    NEWDPF tran0	-15.479307 3.884193 -2.613849
USER    NEWDPF axisangle0	0.271706 0.549363 0.790174 -106.648639
USER    NEWDPF quaternion0	0.217916 0.440606 0.633743 -0.597285
USER    NEWDPF dihe0	111.21 -10.76 -61.56 -103.71 -69.70 -9.83 66.51 122.97 -33.74 180.00 
USER  
USER                              x       y       z    vdW   Elec        q     RMS 
ATOM      1  C   UNL d   1     -16.103   1.932  -2.067 +0.01 +0.09    +0.064    35.559
ATOM      2  C   UNL d   1     -11.813   3.875  -2.678 -0.14 +0.02    +0.064    35.559
ATOM      3  C   UNL d   1     -13.789   8.087  -3.880 -0.15 +0.00    +0.064    35.559
ATOM      4  C   UNL d   1     -18.200   6.235  -2.791 -0.01 +0.02    +0.064    35.559
ATOM      5  C   UNL d   1     -14.775   2.117  -2.133 +0.05 +0.09    +0.066    35.559
ATOM      6  C   UNL d   1     -13.831   1.118  -1.878 -0.10 -0.02    -0.021    35.559
ATOM      7  C   UNL d   1     -12.588   1.691  -2.012 -0.15 -0.02    -0.025    35.559
ATOM      8  C   UNL d   1     -12.807   3.012  -2.393 -0.12 +0.04    +0.066    35.559
ATOM      9  C   UNL d   1     -11.277   0.983  -1.751 -0.29 +0.02    +0.051    35.559
ATOM     10  C   UNL d   1     -11.980   5.265  -3.104 -0.15 +0.01    +0.066    35.559
ATOM     11  C   UNL d   1     -10.921   6.068  -3.544 -0.27 +0.00    -0.021    35.559
ATOM     12  C   UNL d   1     -11.474   7.280  -3.913 -0.31 -0.00    +0.000    35.559
ATOM     13  C   UNL d   1     -12.867   7.150  -3.659 -0.18 +0.00    +0.070    35.559
ATOM     14  C   UNL d   1      -9.449   5.684  -3.636 -0.43 -0.01    +0.052    35.559
ATOM     15  C   UNL d   1     -15.203   8.007  -3.604 -0.10 +0.01    +0.066    35.559
ATOM     16  C   UNL d   1     -16.090   9.079  -3.704 -0.08 -0.00    -0.021    35.559
ATOM     17  C   UNL d   1     -17.354   8.575  -3.397 -0.04 +0.00    +0.000    35.559
ATOM     18  C   UNL d   1     -17.141   7.215  -3.132 -0.03 +0.02    +0.070    35.559
ATOM     19  C   UNL d   1     -15.649  10.485  -4.026 -0.09 +0.00    +0.052    35.559
ATOM     20  C   UNL d   1     -18.025   4.935  -2.488 -0.03 +0.03    +0.066    35.559
ATOM     21  C   UNL d   1     -19.064   4.056  -2.193 -0.01 -0.01    -0.025    35.559
ATOM     22  C   UNL d   1     -18.487   2.819  -2.011 -0.04 -0.02    -0.021    35.559
ATOM     23  C   UNL d   1     -17.111   2.993  -2.184 -0.05 +0.07    +0.066    35.559
ATOM     24  C   UNL d   1     -20.531   4.381  -2.087 -0.00 +0.02    +0.051    35.559
ATOM     25  N   UNL d   1     -14.154   3.292  -2.403 -0.06 -0.25    -0.248    35.559
ATOM     26  N   UNL d   1     -13.166   5.923  -3.163 -0.06 -0.05    -0.248    35.559
ATOM     27  N   UNL d   1     -15.821   6.905  -3.188 -0.03 -0.06    -0.248    35.559
ATOM     28  N   UNL d   1     -16.830   4.289  -2.430 -0.05 -0.20    -0.248    35.559
ATOM     29 FE   UNL d   1     -15.012   5.103  -2.794 -0.02 +0.00    +0.000    35.559
ATOM     30  O   UNL d   1     -14.236   5.053  -1.446 -0.37 +0.00    +0.000    35.559
ATOM     31  O   UNL d   1     -15.607   5.824  -1.529 -0.25 +0.00    +0.000    35.559
ATOM     32  C   UNL d   1     -14.083  -0.286  -1.392 -0.16 +0.06    +0.052    35.559
ATOM     33  C   UNL d   1     -15.146  -1.014  -2.208 -0.10 +0.11    +0.115    35.559
ATOM     34  C   UNL d   1     -16.369  -1.350  -1.390 -0.12 +0.15    +0.139    35.559
ATOM     35  O   UNL d   1     -17.478  -1.219  -1.881 +0.01 -0.52    -0.650    35.559
ATOM     36  O   UNL d   1     -16.266  -1.768  -0.111 +0.00 -0.96    -0.776    35.559
ATOM     37  H   UNL d   1     -16.564  -1.226   0.629 +0.03 +0.20    +0.167    35.559
ATOM     38  C   UNL d   1     -19.217   1.557  -1.627 -0.02 +0.04    +0.052    35.559
ATOM     39  C   UNL d   1     -19.555   1.510  -0.139 -0.06 +0.12    +0.115    35.559
ATOM     40  C   UNL d   1     -18.330   1.615   0.734 -0.11 +0.23    +0.139    35.559
ATOM     41  O   UNL d   1     -18.336   2.360   1.701 -0.60 -1.48    -0.650    35.559
ATOM     42  O   UNL d   1     -17.239   0.861   0.496 -0.24 -1.68    -0.776    35.559
ATOM     43  H   UNL d   1     -17.248   0.155  -0.162 +0.02 +0.24    +0.167    35.559
ATOM     44  C   UNL d   1     -10.631   8.416  -4.454 -0.33 -0.00    +0.004    35.559
ATOM     45  C   UNL d   1     -10.656   8.943  -5.678 -0.39 -0.00    +0.012    35.559
ATOM     46  C   UNL d   1     -18.690   9.260  -3.282 -0.02 +0.00    +0.004    35.559
ATOM     47  C   UNL d   1     -19.415   9.481  -2.178 -0.01 +0.00    +0.012    35.559
TER
ENDMDL
MODEL      100
USER    Run = 100
USER    Cluster Rank = 22
USER    Number of conformations in this cluster = 1
USER  
USER    RMSD from reference structure       = 44.431 A
USER  
USER    Estimated Free Energy of Binding    =   -6.25 kcal/mol  [=(1)+(2)+(3)-(4)]
USER    Estimated Inhibition Constant, Ki   =   26.39 uM (micromolar)  [Temperature = 298.15 K]
USER    
USER    (1) Final Intermolecular Energy     =   -9.23 kcal/mol
USER        vdW + Hbond + desolv Energy     =   -7.94 kcal/mol
USER        Electrostatic Energy            =   -1.29 kcal/mol
USER    (2) Final Total Internal Energy     =   -0.69 kcal/mol
USER    (3) Torsional Free Energy           =   +2.98 kcal/mol
USER    (4) Unbound System's Energy  [=(2)] =   -0.69 kcal/mol
USER    
USER    
USER  
USER    DPF = D:/Protein_go_brrr/autodock/final/AncMH_nat/heme_O2/dock.dpf
USER    NEWDPF move	heme_O2_opt.pdbqt
USER    NEWDPF about	8.287000 34.468000 -0.670000
USER    NEWDPF tran0	-9.743340 -4.928520 20.526175
USER    NEWDPF axisangle0	-0.712529 0.662381 -0.231417 -110.957761
USER    NEWDPF quaternion0	-0.587065 0.545747 -0.190668 -0.566710
USER    NEWDPF dihe0	15.87 -15.08 108.73 -118.00 36.16 -84.39 98.62 -86.18 -146.67 -171.10 
USER  
USER                              x       y       z    vdW   Elec        q     RMS 
ATOM      1  C   UNL d   1     -11.293  -3.549  20.966 -0.11 -0.00    +0.064    44.431
ATOM      2  C   UNL d   1      -6.622  -3.509  21.828 -0.10 -0.01    +0.064    44.431
ATOM      3  C   UNL d   1      -6.112  -7.819  19.764 -0.27 -0.01    +0.064    44.431
ATOM      4  C   UNL d   1     -10.834  -7.657  18.446 -0.17 +0.01    +0.064    44.431
ATOM      5  C   UNL d   1     -10.064  -3.186  21.368 -0.11 -0.01    +0.066    44.431
ATOM      6  C   UNL d   1      -9.781  -1.994  22.042 -0.09 +0.00    -0.021    44.431
ATOM      7  C   UNL d   1      -8.422  -1.962  22.254 -0.08 +0.00    -0.025    44.431
ATOM      8  C   UNL d   1      -7.920  -3.157  21.746 -0.11 -0.01    +0.066    44.431
ATOM      9  C   UNL d   1      -7.673  -0.811  22.889 -0.04 -0.01    +0.051    44.431
ATOM     10  C   UNL d   1      -6.040  -4.758  21.334 -0.05 -0.01    +0.066    44.431
ATOM     11  C   UNL d   1      -4.721  -5.146  21.591 -0.10 +0.01    -0.021    44.431
ATOM     12  C   UNL d   1      -4.560  -6.395  21.019 -0.20 -0.00    +0.000    44.431
ATOM     13  C   UNL d   1      -5.814  -6.699  20.422 -0.20 -0.01    +0.070    44.431
ATOM     14  C   UNL d   1      -3.666  -4.371  22.373 -0.09 -0.01    +0.052    44.431
ATOM     15  C   UNL d   1      -7.358  -8.149  19.115 -0.23 -0.00    +0.066    44.431
ATOM     16  C   UNL d   1      -7.554  -9.265  18.302 -0.24 -0.00    -0.021    44.431
ATOM     17  C   UNL d   1      -8.894  -9.240  17.914 -0.23 +0.00    +0.000    44.431
ATOM     18  C   UNL d   1      -9.421  -8.096  18.529 -0.19 +0.01    +0.070    44.431
ATOM     19  C   UNL d   1      -6.445 -10.215  17.927 -0.15 +0.00    +0.052    44.431
ATOM     20  C   UNL d   1     -11.364  -6.543  18.988 -0.14 +0.01    +0.066    44.431
ATOM     21  C   UNL d   1     -12.707  -6.191  18.891 -0.17 -0.01    -0.025    44.431
ATOM     22  C   UNL d   1     -12.862  -5.037  19.626 -0.13 -0.00    -0.021    44.431
ATOM     23  C   UNL d   1     -11.598  -4.716  20.131 -0.13 +0.00    +0.066    44.431
ATOM     24  C   UNL d   1     -13.788  -6.916  18.132 -0.10 +0.04    +0.051    44.431
ATOM     25  N   UNL d   1      -8.922  -3.880  21.142 -0.10 +0.02    -0.248    44.431
ATOM     26  N   UNL d   1      -6.708  -5.696  20.615 -0.11 +0.03    -0.248    44.431
ATOM     27  N   UNL d   1      -8.458  -7.406  19.192 -0.14 +0.00    -0.248    44.431
ATOM     28  N   UNL d   1     -10.682  -5.610  19.704 -0.10 -0.02    -0.248    44.431
ATOM     29 FE   UNL d   1      -8.709  -5.655  20.154 -0.04 -0.00    +0.000    44.431
ATOM     30  O   UNL d   1      -8.067  -4.444  19.416 -0.42 -0.00    +0.000    44.431
ATOM     31  O   UNL d   1      -8.834  -5.545  18.590 -0.48 -0.00    +0.000    44.431
ATOM     32  C   UNL d   1     -10.727  -0.864  22.356 -0.06 -0.01    +0.052    44.431
ATOM     33  C   UNL d   1     -11.287  -0.196  21.104 -0.06 -0.03    +0.115    44.431
ATOM     34  C   UNL d   1     -10.354   0.847  20.541 -0.05 -0.04    +0.139    44.431
ATOM     35  O   UNL d   1     -10.692   2.020  20.537 +0.01 +0.12    -0.650    44.431
ATOM     36  O   UNL d   1      -9.158   0.511  20.014 -0.07 +0.22    -0.776    44.431
ATOM     37  H   UNL d   1      -8.946  -0.397  19.766 -0.34 -0.04    +0.167    44.431
ATOM     38  C   UNL d   1     -14.142  -4.256  19.776 -0.09 +0.01    +0.052    44.431
ATOM     39  C   UNL d   1     -14.561  -3.571  18.478 -0.16 +0.04    +0.115    44.431
ATOM     40  C   UNL d   1     -15.503  -4.417  17.658 +0.05 +0.14    +0.139    44.431
ATOM     41  O   UNL d   1     -16.578  -4.755  18.127 -0.30 -0.80    -0.650    44.431
ATOM     42  O   UNL d   1     -15.202  -4.766  16.392 -0.27 -1.00    -0.776    44.431
ATOM     43  H   UNL d   1     -14.474  -4.351  15.914 -0.52 +0.06    +0.167    44.431
ATOM     44  C   UNL d   1      -3.250  -7.152  21.097 -0.22 -0.00    +0.004    44.431
ATOM     45  C   UNL d   1      -2.133  -6.928  20.406 -0.27 -0.01    +0.012    44.431
ATOM     46  C   UNL d   1      -9.674 -10.142  16.995 -0.31 +0.00    +0.004    44.431
ATOM     47  C   UNL d   1     -10.390  -9.805  15.915 -0.48 +0.01    +0.012    44.431
TER
ENDMDL
MODEL       46
USER    Run = 46
USER    Cluster Rank = 23
USER    Number of conformations in this cluster = 1
USER  
USER    RMSD from reference structure       = 46.135 A
USER  
USER    Estimated Free Energy of Binding    =   -6.09 kcal/mol  [=(1)+(2)+(3)-(4)]
USER    Estimated Inhibition Constant, Ki   =   34.20 uM (micromolar)  [Temperature = 298.15 K]
USER    
USER    (1) Final Intermolecular Energy     =   -9.08 kcal/mol
USER        vdW + Hbond + desolv Energy     =   -6.44 kcal/mol
USER        Electrostatic Energy            =   -2.64 kcal/mol
USER    (2) Final Total Internal Energy     =   -1.43 kcal/mol
USER    (3) Torsional Free Energy           =   +2.98 kcal/mol
USER    (4) Unbound System's Energy  [=(2)] =   -1.43 kcal/mol
USER    
USER    
USER  
USER    DPF = D:/Protein_go_brrr/autodock/final/AncMH_nat/heme_O2/dock.dpf
USER    NEWDPF move	heme_O2_opt.pdbqt
USER    NEWDPF about	8.287000 34.468000 -0.670000
USER    NEWDPF tran0	-18.164109 -3.854261 16.165421
USER    NEWDPF axisangle0	-0.947120 -0.268685 -0.175422 159.638893
USER    NEWDPF quaternion0	-0.932208 -0.264455 -0.172660 0.176751
USER    NEWDPF dihe0	100.05 -38.05 137.30 -116.68 60.95 -9.18 110.26 141.90 -117.21 -163.46 
USER  
USER                              x       y       z    vdW   Elec        q     RMS 
ATOM      1  C   UNL d   1     -19.733  -5.180  16.694 -0.05 +0.05    +0.064    46.135
ATOM      2  C   UNL d   1     -18.431  -3.237  12.560 -0.10 +0.02    +0.064    46.135
ATOM      3  C   UNL d   1     -14.840  -0.866  14.700 -0.31 +0.00    +0.064    46.135
ATOM      4  C   UNL d   1     -15.874  -3.230  18.873 -0.05 +0.02    +0.064    46.135
ATOM      5  C   UNL d   1     -19.671  -4.846  15.395 -0.07 +0.04    +0.066    46.135
ATOM      6  C   UNL d   1     -20.565  -5.308  14.424 -0.06 -0.01    -0.021    46.135
ATOM      7  C   UNL d   1     -20.162  -4.781  13.219 -0.07 -0.01    -0.025    46.135
ATOM      8  C   UNL d   1     -19.063  -3.972  13.495 -0.08 +0.03    +0.066    46.135
ATOM      9  C   UNL d   1     -20.806  -5.083  11.884 -0.06 +0.02    +0.051    46.135
ATOM     10  C   UNL d   1     -17.288  -2.353  12.793 -0.14 +0.02    +0.066    46.135
ATOM     11  C   UNL d   1     -16.773  -1.488  11.821 -0.18 -0.00    -0.021    46.135
ATOM     12  C   UNL d   1     -15.749  -0.783  12.424 -0.29 +0.00    +0.000    46.135
ATOM     13  C   UNL d   1     -15.687  -1.277  13.757 -0.23 +0.01    +0.070    46.135
ATOM     14  C   UNL d   1     -17.257  -1.322  10.385 -0.17 +0.01    +0.052    46.135
ATOM     15  C   UNL d   1     -14.722  -1.365  16.049 -0.21 +0.01    +0.066    46.135
ATOM     16  C   UNL d   1     -13.708  -1.009  16.938 -0.28 -0.00    -0.021    46.135
ATOM     17  C   UNL d   1     -13.982  -1.672  18.134 -0.19 +0.00    +0.000    46.135
ATOM     18  C   UNL d   1     -15.159  -2.391  17.883 -0.11 +0.02    +0.070    46.135
ATOM     19  C   UNL d   1     -12.551  -0.122  16.553 -0.35 -0.00    +0.052    46.135
ATOM     20  C   UNL d   1     -16.981  -3.967  18.653 -0.05 +0.04    +0.066    46.135
ATOM     21  C   UNL d   1     -17.621  -4.725  19.630 -0.03 -0.01    -0.025    46.135
ATOM     22  C   UNL d   1     -18.738  -5.266  19.034 -0.04 -0.01    -0.021    46.135
ATOM     23  C   UNL d   1     -18.728  -4.831  17.705 -0.04 +0.06    +0.066    46.135
ATOM     24  C   UNL d   1     -17.186  -4.925  21.058 -0.01 +0.01    +0.051    46.135
ATOM     25  N   UNL d   1     -18.721  -4.065  14.824 -0.06 -0.15    -0.248    46.135
ATOM     26  N   UNL d   1     -16.623  -2.236  13.971 -0.09 -0.05    -0.248    46.135
ATOM     27  N   UNL d   1     -15.552  -2.252  16.591 -0.09 -0.06    -0.248    46.135
ATOM     28  N   UNL d   1     -17.634  -4.078  17.466 -0.05 -0.21    -0.248    46.135
ATOM     29 FE   UNL d   1     -17.130  -3.163  15.732 -0.03 +0.00    +0.000    46.135
ATOM     30  O   UNL d   1     -16.729  -4.295  14.743 -0.35 +0.00    +0.000    46.135
ATOM     31  O   UNL d   1     -15.957  -4.142  16.107 -0.71 +0.00    +0.000    46.135
ATOM     32  C   UNL d   1     -21.672  -6.316  14.594 -0.03 +0.02    +0.052    46.135
ATOM     33  C   UNL d   1     -21.338  -7.396  15.618 -0.03 +0.04    +0.115    46.135
ATOM     34  C   UNL d   1     -20.296  -8.364  15.114 -0.09 +0.08    +0.139    46.135
ATOM     35  O   UNL d   1     -20.645  -9.368  14.513 +0.03 -0.18    -0.650    46.135
ATOM     36  O   UNL d   1     -18.981  -8.162  15.338 -0.53 -1.15    -0.776    46.135
ATOM     37  H   UNL d   1     -18.505  -8.623  16.038 +0.02 +0.32    +0.167    46.135
ATOM     38  C   UNL d   1     -19.720  -6.199  19.693 -0.01 +0.02    +0.052    46.135
ATOM     39  C   UNL d   1     -19.068  -7.505  20.144 -0.02 +0.05    +0.115    46.135
ATOM     40  C   UNL d   1     -18.054  -8.016  19.151 -0.04 +0.14    +0.139    46.135
ATOM     41  O   UNL d   1     -16.975  -8.428  19.545 -0.31 -0.58    -0.650    46.135
ATOM     42  O   UNL d   1     -18.337  -8.075  17.835 +0.18 -1.38    -0.776    46.135
ATOM     43  H   UNL d   1     -19.222  -8.290  17.518 +0.01 +0.18    +0.167    46.135
ATOM     44  C   UNL d   1     -14.949   0.266  11.681 -0.41 -0.00    +0.004    46.135
ATOM     45  C   UNL d   1     -14.403   0.174  10.469 -0.43 +0.00    +0.012    46.135
ATOM     46  C   UNL d   1     -13.218  -1.727  19.431 -0.12 -0.00    +0.004    46.135
ATOM     47  C   UNL d   1     -12.762  -2.806  20.079 -0.12 -0.00    +0.012    46.135
TER
ENDMDL
MODEL       97
USER    Run = 97
USER    Cluster Rank = 24
USER    Number of conformations in this cluster = 1
USER  
USER    RMSD from reference structure       = 35.616 A
USER  
USER    Estimated Free Energy of Binding    =   -6.05 kcal/mol  [=(1)+(2)+(3)-(4)]
USER    Estimated Inhibition Constant, Ki   =   36.53 uM (micromolar)  [Temperature = 298.15 K]
USER    
USER    (1) Final Intermolecular Energy     =   -9.04 kcal/mol
USER        vdW + Hbond + desolv Energy     =   -6.46 kcal/mol
USER        Electrostatic Energy            =   -2.58 kcal/mol
USER    (2) Final Total Internal Energy     =   -1.62 kcal/mol
USER    (3) Torsional Free Energy           =   +2.98 kcal/mol
USER    (4) Unbound System's Energy  [=(2)] =   -1.62 kcal/mol
USER    
USER    
USER  
USER    DPF = D:/Protein_go_brrr/autodock/final/AncMH_nat/heme_O2/dock.dpf
USER    NEWDPF move	heme_O2_opt.pdbqt
USER    NEWDPF about	8.287000 34.468000 -0.670000
USER    NEWDPF tran0	-16.885085 9.568111 16.484298
USER    NEWDPF axisangle0	-0.237416 -0.904374 -0.354602 58.041305
USER    NEWDPF quaternion0	-0.115176 -0.438734 -0.172026 0.874445
USER    NEWDPF dihe0	-24.95 -76.74 100.82 -9.09 -113.71 126.59 172.54 -145.65 18.61 -9.91 
USER  
USER                              x       y       z    vdW   Elec        q     RMS 
ATOM      1  C   UNL d   1     -18.690   9.407  17.586 +0.02 +0.07    +0.064    35.616
ATOM      2  C   UNL d   1     -14.501   7.199  17.952 -0.09 +0.02    +0.064    35.616
ATOM      3  C   UNL d   1     -12.782   9.640  14.186 -0.39 -0.00    +0.064    35.616
ATOM      4  C   UNL d   1     -16.926  12.263  14.097 -0.07 +0.01    +0.064    35.616
ATOM      5  C   UNL d   1     -17.691   8.609  17.994 -0.01 +0.07    +0.066    35.616
ATOM      6  C   UNL d   1     -17.792   7.710  19.060 -0.05 -0.01    -0.021    35.616
ATOM      7  C   UNL d   1     -16.566   7.101  19.194 -0.05 -0.01    -0.025    35.616
ATOM      8  C   UNL d   1     -15.764   7.610  18.176 -0.09 +0.03    +0.066    35.616
ATOM      9  C   UNL d   1     -16.207   6.107  20.277 -0.01 +0.01    +0.051    35.616
ATOM     10  C   UNL d   1     -13.620   7.679  16.887 -0.14 +0.01    +0.066    35.616
ATOM     11  C   UNL d   1     -12.378   7.102  16.597 -0.21 +0.00    -0.021    35.616
ATOM     12  C   UNL d   1     -11.874   7.781  15.503 -0.35 -0.00    +0.000    35.616
ATOM     13  C   UNL d   1     -12.854   8.763  15.187 -0.27 +0.00    +0.070    35.616
ATOM     14  C   UNL d   1     -11.712   5.936  17.318 -0.21 -0.01    +0.052    35.616
ATOM     15  C   UNL d   1     -13.735  10.672  13.855 -0.27 -0.00    +0.066    35.616
ATOM     16  C   UNL d   1     -13.525  11.664  12.898 -0.37 +0.00    -0.021    35.616
ATOM     17  C   UNL d   1     -14.693  12.425  12.856 -0.25 -0.00    +0.000    35.616
ATOM     18  C   UNL d   1     -15.540  11.830  13.801 -0.15 +0.00    +0.070    35.616
ATOM     19  C   UNL d   1     -12.222  11.830  12.157 -0.33 -0.01    +0.052    35.616
ATOM     20  C   UNL d   1     -17.750  11.743  15.028 -0.06 +0.02    +0.066    35.616
ATOM     21  C   UNL d   1     -19.053  12.181  15.249 -0.03 -0.01    -0.025    35.616
ATOM     22  C   UNL d   1     -19.580  11.361  16.221 -0.04 -0.01    -0.021    35.616
ATOM     23  C   UNL d   1     -18.569  10.460  16.571 -0.04 +0.06    +0.066    35.616
ATOM     24  C   UNL d   1     -19.757  13.327  14.570 -0.01 +0.01    +0.051    35.616
ATOM     25  N   UNL d   1     -16.437   8.586  17.478 -0.08 -0.21    -0.248    35.616
ATOM     26  N   UNL d   1     -13.910   8.697  16.037 -0.12 -0.05    -0.248    35.616
ATOM     27  N   UNL d   1     -14.915  10.815  14.451 -0.11 -0.03    -0.248    35.616
ATOM     28  N   UNL d   1     -17.444  10.725  15.876 -0.07 -0.17    -0.248    35.616
ATOM     29 FE   UNL d   1     -15.689   9.720  15.954 -0.03 +0.00    +0.000    35.616
ATOM     30  O   UNL d   1     -15.064  10.043  17.342 -0.07 +0.00    +0.000    35.616
ATOM     31  O   UNL d   1     -15.394  11.215  16.342 -0.07 +0.00    +0.000    35.616
ATOM     32  C   UNL d   1     -18.950   7.527  20.006 -0.01 +0.02    +0.052    35.616
ATOM     33  C   UNL d   1     -19.789   6.294  19.683 -0.01 +0.04    +0.115    35.616
ATOM     34  C   UNL d   1     -19.413   5.672  18.361 -0.05 +0.09    +0.139    35.616
ATOM     35  O   UNL d   1     -18.622   4.743  18.335 -0.01 -0.34    -0.650    35.616
ATOM     36  O   UNL d   1     -19.910   6.139  17.197 -0.20 -1.10    -0.776    35.616
ATOM     37  H   UNL d   1     -20.747   6.616  17.154 +0.00 +0.18    +0.167    35.616
ATOM     38  C   UNL d   1     -20.957  11.483  16.821 -0.01 +0.02    +0.052    35.616
ATOM     39  C   UNL d   1     -21.990  10.632  16.086 -0.01 +0.04    +0.115    35.616
ATOM     40  C   UNL d   1     -21.401   9.355  15.540 -0.02 +0.13    +0.139    35.616
ATOM     41  O   UNL d   1     -20.909   9.344  14.423 -0.59 -0.78    -0.650    35.616
ATOM     42  O   UNL d   1     -21.361   8.233  16.284 -0.07 -0.85    -0.776    35.616
ATOM     43  H   UNL d   1     -20.736   8.132  17.012 -0.00 +0.20    +0.167    35.616
ATOM     44  C   UNL d   1     -10.536   7.431  14.887 -0.52 -0.00    +0.004    35.616
ATOM     45  C   UNL d   1      -9.326   7.837  15.272 -0.47 -0.00    +0.012    35.616
ATOM     46  C   UNL d   1     -15.041  13.658  12.066 -0.19 -0.00    +0.004    35.616
ATOM     47  C   UNL d   1     -14.213  14.490  11.421 -0.29 -0.01    +0.012    35.616
TER
ENDMDL
MODEL        4
USER    Run = 4
USER    Cluster Rank = 25
USER    Number of conformations in this cluster = 1
USER  
USER    RMSD from reference structure       = 46.246 A
USER  
USER    Estimated Free Energy of Binding    =   -5.95 kcal/mol  [=(1)+(2)+(3)-(4)]
USER    Estimated Inhibition Constant, Ki   =   43.68 uM (micromolar)  [Temperature = 298.15 K]
USER    
USER    (1) Final Intermolecular Energy     =   -8.93 kcal/mol
USER        vdW + Hbond + desolv Energy     =   -6.35 kcal/mol
USER        Electrostatic Energy            =   -2.58 kcal/mol
USER    (2) Final Total Internal Energy     =   -0.67 kcal/mol
USER    (3) Torsional Free Energy           =   +2.98 kcal/mol
USER    (4) Unbound System's Energy  [=(2)] =   -0.67 kcal/mol
USER    
USER    
USER  
USER    DPF = D:/Protein_go_brrr/autodock/final/AncMH_nat/heme_O2/dock.dpf
USER    NEWDPF move	heme_O2_opt.pdbqt
USER    NEWDPF about	8.287000 34.468000 -0.670000
USER    NEWDPF tran0	-9.508888 -7.190032 19.980874
USER    NEWDPF axisangle0	0.982709 0.165018 0.083976 115.770999
USER    NEWDPF quaternion0	0.832342 0.139768 0.071126 0.531613
USER    NEWDPF dihe0	6.99 55.14 62.47 130.07 174.80 93.64 -25.23 -96.87 -33.76 145.23 
USER  
USER                              x       y       z    vdW   Elec        q     RMS 
ATOM      1  C   UNL d   1     -11.077  -8.446  19.301 -0.07 +0.01    +0.064    46.246
ATOM      2  C   UNL d   1     -10.913  -3.828  20.399 -0.12 -0.01    +0.064    46.246
ATOM      3  C   UNL d   1      -6.264  -4.177  21.567 -0.11 -0.01    +0.064    46.246
ATOM      4  C   UNL d   1      -6.299  -8.820  19.985 -0.18 -0.01    +0.064    46.246
ATOM      5  C   UNL d   1     -11.411  -7.161  19.502 -0.10 +0.01    +0.066    46.246
ATOM      6  C   UNL d   1     -12.695  -6.645  19.301 -0.13 -0.01    -0.021    46.246
ATOM      7  C   UNL d   1     -12.638  -5.299  19.577 -0.13 -0.01    -0.025    46.246
ATOM      8  C   UNL d   1     -11.333  -5.039  19.986 -0.13 +0.00    +0.066    46.246
ATOM      9  C   UNL d   1     -13.792  -4.333  19.417 -0.14 +0.01    +0.051    46.246
ATOM     10  C   UNL d   1      -9.563  -3.500  20.861 -0.13 -0.01    +0.066    46.246
ATOM     11  C   UNL d   1      -9.223  -2.269  21.432 -0.11 +0.00    -0.021    46.246
ATOM     12  C   UNL d   1      -7.891  -2.356  21.792 -0.12 -0.00    +0.000    46.246
ATOM     13  C   UNL d   1      -7.481  -3.660  21.400 -0.14 -0.01    +0.070    46.246
ATOM     14  C   UNL d   1     -10.138  -1.069  21.651 -0.09 -0.01    +0.052    46.246
ATOM     15  C   UNL d   1      -5.800  -5.479  21.152 -0.10 -0.01    +0.066    46.246
ATOM     16  C   UNL d   1      -4.471  -5.899  21.208 -0.16 +0.01    -0.021    46.246
ATOM     17  C   UNL d   1      -4.457  -7.220  20.761 -0.23 -0.00    +0.000    46.246
ATOM     18  C   UNL d   1      -5.796  -7.511  20.464 -0.20 -0.01    +0.070    46.246
ATOM     19  C   UNL d   1      -3.339  -4.995  21.625 -0.15 -0.02    +0.052    46.246
ATOM     20  C   UNL d   1      -7.569  -9.121  19.650 -0.12 -0.00    +0.066    46.246
ATOM     21  C   UNL d   1      -7.987 -10.378  19.222 -0.08 -0.00    -0.025    46.246
ATOM     22  C   UNL d   1      -9.350 -10.297  19.048 -0.07 -0.00    -0.021    46.246
ATOM     23  C   UNL d   1      -9.713  -8.983  19.361 -0.07 +0.00    +0.066    46.246
ATOM     24  C   UNL d   1      -7.128 -11.593  18.987 -0.09 +0.00    +0.051    46.246
ATOM     25  N   UNL d   1     -10.562  -6.173  19.877 -0.07 -0.02    -0.248    46.246
ATOM     26  N   UNL d   1      -8.503  -4.348  20.830 -0.13 +0.02    -0.248    46.246
ATOM     27  N   UNL d   1      -6.585  -6.420  20.636 -0.11 +0.03    -0.248    46.246
ATOM     28  N   UNL d   1      -8.621  -8.260  19.683 -0.05 -0.00    -0.248    46.246
ATOM     29 FE   UNL d   1      -8.560  -6.318  20.252 -0.03 -0.00    +0.000    46.246
ATOM     30  O   UNL d   1      -8.902  -5.482  18.985 -0.42 -0.00    +0.000    46.246
ATOM     31  O   UNL d   1      -7.668  -6.461  18.965 -0.32 -0.00    +0.000    46.246
ATOM     32  C   UNL d   1     -13.898  -7.357  18.739 -0.15 +0.04    +0.052    46.246
ATOM     33  C   UNL d   1     -14.165  -8.696  19.419 -0.10 +0.06    +0.115    46.246
ATOM     34  C   UNL d   1     -15.623  -9.084  19.373 -0.09 +0.10    +0.139    46.246
ATOM     35  O   UNL d   1     -16.342  -8.622  18.502 -0.26 -1.23    -0.650    46.246
ATOM     36  O   UNL d   1     -16.159  -9.911  20.294 +0.01 -0.24    -0.776    46.246
ATOM     37  H   UNL d   1     -15.665 -10.203  21.069 +0.01 +0.03    +0.167    46.246
ATOM     38  C   UNL d   1     -10.239 -11.406  18.548 -0.09 +0.01    +0.052    46.246
ATOM     39  C   UNL d   1     -10.835 -11.099  17.175 -0.22 +0.03    +0.115    46.246
ATOM     40  C   UNL d   1      -9.880 -11.411  16.050 -0.22 +0.10    +0.139    46.246
ATOM     41  O   UNL d   1      -9.551 -10.529  15.273 -0.04 -0.68    -0.650    46.246
ATOM     42  O   UNL d   1      -9.340 -12.637  15.915 -0.42 -0.85    -0.776    46.246
ATOM     43  H   UNL d   1      -9.891 -13.423  15.817 -0.30 +0.08    +0.167    46.246
ATOM     44  C   UNL d   1      -7.161  -1.208  22.456 -0.06 -0.00    +0.004    46.246
ATOM     45  C   UNL d   1      -6.065  -0.579  22.032 -0.06 -0.00    +0.012    46.246
ATOM     46  C   UNL d   1      -3.315  -8.177  20.543 -0.14 -0.00    +0.004    46.246
ATOM     47  C   UNL d   1      -3.139  -9.392  21.078 -0.13 -0.00    +0.012    46.246
TER
ENDMDL
MODEL       32
USER    Run = 32
USER    Cluster Rank = 26
USER    Number of conformations in this cluster = 1
USER  
USER    RMSD from reference structure       = 42.776 A
USER  
USER    Estimated Free Energy of Binding    =   -5.63 kcal/mol  [=(1)+(2)+(3)-(4)]
USER    Estimated Inhibition Constant, Ki   =   74.27 uM (micromolar)  [Temperature = 298.15 K]
USER    
USER    (1) Final Intermolecular Energy     =   -8.62 kcal/mol
USER        vdW + Hbond + desolv Energy     =   -5.02 kcal/mol
USER        Electrostatic Energy            =   -3.60 kcal/mol
USER    (2) Final Total Internal Energy     =   -2.42 kcal/mol
USER    (3) Torsional Free Energy           =   +2.98 kcal/mol
USER    (4) Unbound System's Energy  [=(2)] =   -2.42 kcal/mol
USER    
USER    
USER  
USER    DPF = D:/Protein_go_brrr/autodock/final/AncMH_nat/heme_O2/dock.dpf
USER    NEWDPF move	heme_O2_opt.pdbqt
USER    NEWDPF about	8.287000 34.468000 -0.670000
USER    NEWDPF tran0	-17.568204 -3.168137 5.103223
USER    NEWDPF axisangle0	0.139143 0.966906 0.213852 98.334457
USER    NEWDPF quaternion0	0.105278 0.731581 0.161805 0.653853
USER    NEWDPF dihe0	-79.85 -156.36 -43.50 48.89 57.44 115.85 -105.29 89.44 169.08 -179.32 
USER  
USER                              x       y       z    vdW   Elec        q     RMS 
ATOM      1  C   UNL d   1     -16.380  -2.803   3.384 -0.08 +0.05    +0.064    42.776
ATOM      2  C   UNL d   1     -20.942  -4.006   3.935 -0.03 +0.02    +0.064    42.776
ATOM      3  C   UNL d   1     -20.433  -4.113   8.712 -0.13 +0.02    +0.064    42.776
ATOM      4  C   UNL d   1     -15.863  -2.409   8.182 -0.24 +0.01    +0.064    42.776
ATOM      5  C   UNL d   1     -17.663  -3.120   3.144 -0.04 +0.04    +0.066    42.776
ATOM      6  C   UNL d   1     -18.218  -3.224   1.865 -0.05 -0.02    -0.021    42.776
ATOM      7  C   UNL d   1     -19.549  -3.530   2.025 -0.01 -0.01    -0.025    42.776
ATOM      8  C   UNL d   1     -19.760  -3.652   3.396 -0.02 +0.03    +0.066    42.776
ATOM      9  C   UNL d   1     -20.548  -3.662   0.896 +0.00 +0.02    +0.051    42.776
ATOM     10  C   UNL d   1     -21.218  -4.172   5.363 -0.05 +0.02    +0.066    42.776
ATOM     11  C   UNL d   1     -22.415  -4.700   5.859 -0.05 -0.01    -0.021    42.776
ATOM     12  C   UNL d   1     -22.280  -4.756   7.234 -0.06 +0.00    +0.000    42.776
ATOM     13  C   UNL d   1     -20.985  -4.236   7.505 -0.08 +0.02    +0.070    42.776
ATOM     14  C   UNL d   1     -23.625  -5.158   5.054 -0.02 +0.01    +0.052    42.776
ATOM     15  C   UNL d   1     -19.139  -3.559   9.032 -0.11 +0.02    +0.066    42.776
ATOM     16  C   UNL d   1     -18.685  -3.307  10.326 -0.09 -0.01    -0.021    42.776
ATOM     17  C   UNL d   1     -17.384  -2.819  10.200 -0.22 +0.00    +0.000    42.776
ATOM     18  C   UNL d   1     -17.138  -2.813   8.820 -0.19 +0.01    +0.070    42.776
ATOM     19  C   UNL d   1     -19.544  -3.498  11.551 -0.09 +0.02    +0.052    42.776
ATOM     20  C   UNL d   1     -15.608  -2.350   6.860 -0.19 +0.02    +0.066    42.776
ATOM     21  C   UNL d   1     -14.381  -1.978   6.318 -0.27 -0.01    -0.025    42.776
ATOM     22  C   UNL d   1     -14.501  -2.111   4.953 -0.22 -0.01    -0.021    42.776
ATOM     23  C   UNL d   1     -15.809  -2.543   4.711 -0.11 +0.04    +0.066    42.776
ATOM     24  C   UNL d   1     -13.156  -1.517   7.065 -0.42 +0.01    +0.051    42.776
ATOM     25  N   UNL d   1     -18.613  -3.335   4.087 -0.02 -0.13    -0.248    42.776
ATOM     26  N   UNL d   1     -20.347  -3.879   6.362 -0.05 -0.10    -0.248    42.776
ATOM     27  N   UNL d   1     -18.239  -3.194   8.123 -0.09 -0.07    -0.248    42.776
ATOM     28  N   UNL d   1     -16.491  -2.644   5.870 -0.05 -0.10    -0.248    42.776
ATOM     29 FE   UNL d   1     -18.405  -3.256   6.117 -0.03 +0.00    +0.000    42.776
ATOM     30  O   UNL d   1     -19.302  -2.126   5.533 -0.07 +0.00    +0.000    42.776
ATOM     31  O   UNL d   1     -18.296  -1.800   6.701 -0.12 +0.00    +0.000    42.776
ATOM     32  C   UNL d   1     -17.559  -2.914   0.546 -0.06 +0.05    +0.052    42.776
ATOM     33  C   UNL d   1     -18.075  -1.624  -0.084 -0.05 +0.10    +0.115    42.776
ATOM     34  C   UNL d   1     -17.582  -0.394   0.637 -0.07 +0.17    +0.139    42.776
ATOM     35  O   UNL d   1     -18.266   0.105   1.516 -0.03 -0.86    -0.650    42.776
ATOM     36  O   UNL d   1     -16.408   0.188   0.314 -0.42 -1.63    -0.776    42.776
ATOM     37  H   UNL d   1     -15.564  -0.160   0.622 +0.03 +0.32    +0.167    42.776
ATOM     38  C   UNL d   1     -13.436  -1.777   3.941 -0.16 +0.03    +0.052    42.776
ATOM     39  C   UNL d   1     -13.314  -0.274   3.698 -0.23 +0.07    +0.115    42.776
ATOM     40  C   UNL d   1     -14.181   0.198   2.558 -0.14 +0.18    +0.139    42.776
ATOM     41  O   UNL d   1     -13.687   0.380   1.457 -0.01 -1.07    -0.650    42.776
ATOM     42  O   UNL d   1     -15.507   0.373   2.718 +0.00 -1.20    -0.776    42.776
ATOM     43  H   UNL d   1     -16.119   0.303   1.976 +0.03 +0.32    +0.167    42.776
ATOM     44  C   UNL d   1     -23.382  -5.285   8.129 -0.03 +0.00    +0.004    42.776
ATOM     45  C   UNL d   1     -23.277  -6.168   9.121 -0.04 +0.00    +0.012    42.776
ATOM     46  C   UNL d   1     -16.410  -2.322  11.235 -0.31 +0.00    +0.004    42.776
ATOM     47  C   UNL d   1     -16.146  -2.841  12.441 -0.35 +0.00    +0.012    42.776
TER
ENDMDL
MODEL       34
USER    Run = 34
USER    Cluster Rank = 27
USER    Number of conformations in this cluster = 1
USER  
USER    RMSD from reference structure       = 41.078 A
USER  
USER    Estimated Free Energy of Binding    =   -5.63 kcal/mol  [=(1)+(2)+(3)-(4)]
USER    Estimated Inhibition Constant, Ki   =   74.48 uM (micromolar)  [Temperature = 298.15 K]
USER    
USER    (1) Final Intermolecular Energy     =   -8.61 kcal/mol
USER        vdW + Hbond + desolv Energy     =   -5.87 kcal/mol
USER        Electrostatic Energy            =   -2.74 kcal/mol
USER    (2) Final Total Internal Energy     =   -2.49 kcal/mol
USER    (3) Torsional Free Energy           =   +2.98 kcal/mol
USER    (4) Unbound System's Energy  [=(2)] =   -2.49 kcal/mol
USER    
USER    
USER  
USER    DPF = D:/Protein_go_brrr/autodock/final/AncMH_nat/heme_O2/dock.dpf
USER    NEWDPF move	heme_O2_opt.pdbqt
USER    NEWDPF about	8.287000 34.468000 -0.670000
USER    NEWDPF tran0	-18.206039 -0.830431 7.377068
USER    NEWDPF axisangle0	0.591532 0.756839 0.278002 97.154191
USER    NEWDPF quaternion0	0.443558 0.567513 0.208459 0.661612
USER    NEWDPF dihe0	142.89 -90.70 43.14 44.19 26.94 148.53 -104.47 59.20 -168.12 -164.75 
USER  
USER                              x       y       z    vdW   Elec        q     RMS 
ATOM      1  C   UNL d   1     -17.787  -1.602   5.446 -0.08 +0.04    +0.064    41.078
ATOM      2  C   UNL d   1     -21.694   0.301   7.362 -0.06 +0.04    +0.064    41.078
ATOM      3  C   UNL d   1     -19.460   0.873  11.578 -0.08 +0.01    +0.064    41.078
ATOM      4  C   UNL d   1     -15.292  -0.643   9.483 -0.23 +0.01    +0.064    41.078
ATOM      5  C   UNL d   1     -19.031  -1.129   5.623 -0.09 +0.05    +0.066    41.078
ATOM      6  C   UNL d   1     -20.019  -1.136   4.633 -0.07 -0.02    -0.021    41.078
ATOM      7  C   UNL d   1     -21.137  -0.545   5.173 -0.05 -0.02    -0.025    41.078
ATOM      8  C   UNL d   1     -20.818  -0.239   6.493 -0.06 +0.05    +0.066    41.078
ATOM      9  C   UNL d   1     -22.423  -0.277   4.422 -0.05 +0.05    +0.051    41.078
ATOM     10  C   UNL d   1     -21.424   0.624   8.764 -0.05 +0.03    +0.066    41.078
ATOM     11  C   UNL d   1     -22.415   1.029   9.664 -0.02 -0.01    -0.021    41.078
ATOM     12  C   UNL d   1     -21.794   1.182  10.890 -0.02 +0.00    +0.000    41.078
ATOM     13  C   UNL d   1     -20.426   0.866  10.660 -0.05 +0.02    +0.070    41.078
ATOM     14  C   UNL d   1     -23.897   1.236   9.374 -0.01 +0.01    +0.052    41.078
ATOM     15  C   UNL d   1     -18.059   0.594  11.378 -0.13 +0.01    +0.066    41.078
ATOM     16  C   UNL d   1     -17.070   0.778  12.344 -0.19 -0.00    -0.021    41.078
ATOM     17  C   UNL d   1     -15.873   0.353  11.769 -0.33 +0.00    +0.000    41.078
ATOM     18  C   UNL d   1     -16.226  -0.066  10.478 -0.29 +0.01    +0.070    41.078
ATOM     19  C   UNL d   1     -17.344   1.389  13.695 -0.16 +0.01    +0.052    41.078
ATOM     20  C   UNL d   1     -15.589  -1.015   8.222 -0.08 +0.02    +0.066    41.078
ATOM     21  C   UNL d   1     -14.670  -1.569   7.335 -0.30 -0.01    -0.025    41.078
ATOM     22  C   UNL d   1     -15.369  -1.873   6.189 -0.16 -0.01    -0.021    41.078
ATOM     23  C   UNL d   1     -16.691  -1.476   6.414 -0.08 +0.03    +0.066    41.078
ATOM     24  C   UNL d   1     -13.198  -1.792   7.568 -0.38 +0.00    +0.051    41.078
ATOM     25  N   UNL d   1     -19.500  -0.539   6.749 -0.07 -0.17    -0.248    41.078
ATOM     26  N   UNL d   1     -20.210   0.532   9.362 -0.04 -0.08    -0.248    41.078
ATOM     27  N   UNL d   1     -17.542   0.157  10.233 -0.11 -0.05    -0.248    41.078
ATOM     28  N   UNL d   1     -16.810  -0.913   7.634 -0.10 -0.10    -0.248    41.078
ATOM     29 FE   UNL d   1     -18.496  -0.195   8.494 -0.03 +0.00    +0.000    41.078
ATOM     30  O   UNL d   1     -18.863   1.101   7.715 -0.27 +0.00    +0.000    41.078
ATOM     31  O   UNL d   1     -17.461   0.987   8.424 -0.51 +0.00    +0.000    41.078
ATOM     32  C   UNL d   1     -19.879  -1.553   3.192 -0.04 +0.04    +0.052    41.078
ATOM     33  C   UNL d   1     -19.343  -0.437   2.301 -0.07 +0.13    +0.115    41.078
ATOM     34  C   UNL d   1     -17.873  -0.180   2.522 -0.13 +0.18    +0.139    41.078
ATOM     35  O   UNL d   1     -17.495   0.942   2.821 -0.17 -1.14    -0.650    41.078
ATOM     36  O   UNL d   1     -16.957  -1.158   2.368 +0.07 -0.79    -0.776    41.078
ATOM     37  H   UNL d   1     -16.085  -0.987   1.995 +0.05 +0.20    +0.167    41.078
ATOM     38  C   UNL d   1     -14.781  -2.454   4.929 -0.23 +0.02    +0.052    41.078
ATOM     39  C   UNL d   1     -13.756  -1.524   4.283 -0.25 +0.06    +0.115    41.078
ATOM     40  C   UNL d   1     -14.122  -1.160   2.866 -0.23 +0.12    +0.139    41.078
ATOM     41  O   UNL d   1     -14.117  -2.019   1.999 -0.11 -0.71    -0.650    41.078
ATOM     42  O   UNL d   1     -14.506   0.091   2.546 +0.03 -1.04    -0.776    41.078
ATOM     43  H   UNL d   1     -15.429   0.366   2.604 +0.04 +0.27    +0.167    41.078
ATOM     44  C   UNL d   1     -22.554   1.609  12.129 -0.01 +0.00    +0.004    41.078
ATOM     45  C   UNL d   1     -22.148   2.433  13.095 -0.02 +0.00    +0.012    41.078
ATOM     46  C   UNL d   1     -14.463   0.365  12.298 -0.39 -0.00    +0.004    41.078
ATOM     47  C   UNL d   1     -14.046   0.129  13.548 -0.24 -0.00    +0.012    41.078
TER
ENDMDL
MODEL       39
USER    Run = 39
USER    Cluster Rank = 28
USER    Number of conformations in this cluster = 1
USER  
USER    RMSD from reference structure       = 34.181 A
USER  
USER    Estimated Free Energy of Binding    =   -5.36 kcal/mol  [=(1)+(2)+(3)-(4)]
USER    Estimated Inhibition Constant, Ki   =  117.19 uM (micromolar)  [Temperature = 298.15 K]
USER    
USER    (1) Final Intermolecular Energy     =   -8.35 kcal/mol
USER        vdW + Hbond + desolv Energy     =   -5.80 kcal/mol
USER        Electrostatic Energy            =   -2.54 kcal/mol
USER    (2) Final Total Internal Energy     =   -2.15 kcal/mol
USER    (3) Torsional Free Energy           =   +2.98 kcal/mol
USER    (4) Unbound System's Energy  [=(2)] =   -2.15 kcal/mol
USER    
USER    
USER  
USER    DPF = D:/Protein_go_brrr/autodock/final/AncMH_nat/heme_O2/dock.dpf
USER    NEWDPF move	heme_O2_opt.pdbqt
USER    NEWDPF about	8.287000 34.468000 -0.670000
USER    NEWDPF tran0	-19.190254 10.100539 6.870857
USER    NEWDPF axisangle0	-0.625574 -0.324847 0.709317 -95.821818
USER    NEWDPF quaternion0	-0.464241 -0.241070 0.526387 -0.670285
USER    NEWDPF dihe0	28.41 159.62 -41.02 -106.84 -172.66 114.85 -8.24 74.69 -150.27 175.82 
USER  
USER                              x       y       z    vdW   Elec        q     RMS 
ATOM      1  C   UNL d   1     -19.447   8.076   6.291 -0.18 +0.02    +0.064    34.181
ATOM      2  C   UNL d   1     -20.756  10.494  10.164 -0.11 +0.01    +0.064    34.181
ATOM      3  C   UNL d   1     -18.711  14.499   8.467 -0.12 -0.01    +0.064    34.181
ATOM      4  C   UNL d   1     -17.776  12.144   4.266 -0.24 -0.01    +0.064    34.181
ATOM      5  C   UNL d   1     -19.971   8.408   7.482 -0.23 +0.02    +0.066    34.181
ATOM      6  C   UNL d   1     -20.639   7.510   8.320 -0.23 -0.01    -0.021    34.181
ATOM      7  C   UNL d   1     -21.056   8.219   9.422 -0.17 -0.01    -0.025    34.181
ATOM      8  C   UNL d   1     -20.590   9.520   9.249 -0.16 +0.01    +0.066    34.181
ATOM      9  C   UNL d   1     -21.887   7.652  10.553 -0.10 +0.01    +0.051    34.181
ATOM     10  C   UNL d   1     -20.269  11.870  10.049 -0.10 +0.01    +0.066    34.181
ATOM     11  C   UNL d   1     -20.325  12.796  11.096 -0.05 -0.00    -0.021    34.181
ATOM     12  C   UNL d   1     -19.724  13.952  10.632 -0.06 +0.00    +0.000    34.181
ATOM     13  C   UNL d   1     -19.338  13.663   9.294 -0.10 -0.00    +0.070    34.181
ATOM     14  C   UNL d   1     -20.903  12.579  12.490 -0.02 +0.01    +0.052    34.181
ATOM     15  C   UNL d   1     -18.335  14.257   7.095 -0.08 -0.01    +0.066    34.181
ATOM     16  C   UNL d   1     -17.830  15.228   6.231 -0.11 +0.00    -0.021    34.181
ATOM     17  C   UNL d   1     -17.556  14.579   5.026 -0.18 -0.00    +0.000    34.181
ATOM     18  C   UNL d   1     -17.919  13.244   5.250 -0.09 -0.01    +0.070    34.181
ATOM     19  C   UNL d   1     -17.706  16.682   6.610 -0.05 -0.01    +0.052    34.181
ATOM     20  C   UNL d   1     -18.154  10.862   4.433 -0.24 +0.00    +0.066    34.181
ATOM     21  C   UNL d   1     -17.978   9.866   3.476 -0.25 -0.00    -0.025    34.181
ATOM     22  C   UNL d   1     -18.423   8.695   4.046 -0.27 -0.01    -0.021    34.181
ATOM     23  C   UNL d   1     -18.873   9.024   5.328 -0.27 +0.02    +0.066    34.181
ATOM     24  C   UNL d   1     -17.416  10.025   2.086 -0.27 -0.00    +0.051    34.181
ATOM     25  N   UNL d   1     -19.978   9.650   8.024 -0.14 -0.05    -0.248    34.181
ATOM     26  N   UNL d   1     -19.678  12.396   8.946 -0.10 -0.02    -0.248    34.181
ATOM     27  N   UNL d   1     -18.459  13.082   6.485 -0.05 +0.01    -0.248    34.181
ATOM     28  N   UNL d   1     -18.749  10.350   5.542 -0.16 -0.04    -0.248    34.181
ATOM     29 FE   UNL d   1     -19.209  11.368   7.230 -0.05 +0.00    +0.000    34.181
ATOM     30  O   UNL d   1     -20.762  11.363   7.331 -0.10 +0.00    +0.000    34.181
ATOM     31  O   UNL d   1     -20.064  11.981   6.061 -0.11 +0.00    +0.000    34.181
ATOM     32  C   UNL d   1     -20.994   6.073   8.038 -0.21 +0.02    +0.052    34.181
ATOM     33  C   UNL d   1     -22.021   5.926   6.919 -0.14 +0.06    +0.115    34.181
ATOM     34  C   UNL d   1     -22.183   4.494   6.473 -0.06 +0.12    +0.139    34.181
ATOM     35  O   UNL d   1     -22.118   3.594   7.295 -0.02 -0.49    -0.650    34.181
ATOM     36  O   UNL d   1     -22.370   4.179   5.174 -0.04 -1.13    -0.776    34.181
ATOM     37  H   UNL d   1     -22.024   4.727   4.460 +0.01 +0.29    +0.167    34.181
ATOM     38  C   UNL d   1     -18.471   7.350   3.367 -0.29 +0.03    +0.052    34.181
ATOM     39  C   UNL d   1     -19.712   7.184   2.492 -0.12 +0.06    +0.115    34.181
ATOM     40  C   UNL d   1     -20.729   6.255   3.105 -0.12 +0.13    +0.139    34.181
ATOM     41  O   UNL d   1     -20.807   5.100   2.718 -0.19 -1.15    -0.650    34.181
ATOM     42  O   UNL d   1     -21.524   6.662   4.114 -0.02 -0.53    -0.776    34.181
ATOM     43  H   UNL d   1     -22.330   6.185   4.346 +0.02 +0.12    +0.167    34.181
ATOM     44  C   UNL d   1     -19.587  15.189  11.495 -0.02 -0.00    +0.004    34.181
ATOM     45  C   UNL d   1     -18.514  15.962  11.652 -0.02 -0.00    +0.012    34.181
ATOM     46  C   UNL d   1     -17.054  15.110   3.710 -0.08 -0.00    +0.004    34.181
ATOM     47  C   UNL d   1     -17.700  15.165   2.538 -0.12 -0.01    +0.012    34.181
TER
ENDMDL
MODEL       13
USER    Run = 13
USER    Cluster Rank = 29
USER    Number of conformations in this cluster = 2
USER  
USER    RMSD from reference structure       = 22.320 A
USER  
USER    Estimated Free Energy of Binding    =   -5.14 kcal/mol  [=(1)+(2)+(3)-(4)]
USER    Estimated Inhibition Constant, Ki   =  171.74 uM (micromolar)  [Temperature = 298.15 K]
USER    
USER    (1) Final Intermolecular Energy     =   -8.12 kcal/mol
USER        vdW + Hbond + desolv Energy     =   -5.60 kcal/mol
USER        Electrostatic Energy            =   -2.52 kcal/mol
USER    (2) Final Total Internal Energy     =   -2.12 kcal/mol
USER    (3) Torsional Free Energy           =   +2.98 kcal/mol
USER    (4) Unbound System's Energy  [=(2)] =   -2.12 kcal/mol
USER    
USER    
USER  
USER    DPF = D:/Protein_go_brrr/autodock/final/AncMH_nat/heme_O2/dock.dpf
USER    NEWDPF move	heme_O2_opt.pdbqt
USER    NEWDPF about	8.287000 34.468000 -0.670000
USER    NEWDPF tran0	-2.831626 17.492828 14.218940
USER    NEWDPF axisangle0	0.118971 -0.294421 -0.948242 -120.025545
USER    NEWDPF quaternion0	0.103045 -0.255009 -0.821307 -0.499807
USER    NEWDPF dihe0	45.87 150.38 54.00 -112.79 -138.82 95.30 170.54 -112.21 11.42 -6.27 
USER  
USER                              x       y       z    vdW   Elec        q     RMS 
ATOM      1  C   UNL d   1      -1.134  18.651  13.694 -0.05 +0.05    +0.064    22.320
ATOM      2  C   UNL d   1      -5.365  19.805  15.518 -0.11 +0.01    +0.064    22.320
ATOM      3  C   UNL d   1      -6.771  15.211  15.403 -0.25 -0.02    +0.064    22.320
ATOM      4  C   UNL d   1      -2.251  13.948  13.974 -0.14 -0.01    +0.064    22.320
ATOM      5  C   UNL d   1      -2.169  19.339  14.201 -0.07 +0.05    +0.066    22.320
ATOM      6  C   UNL d   1      -2.175  20.726  14.378 -0.07 -0.01    -0.021    22.320
ATOM      7  C   UNL d   1      -3.383  21.056  14.946 -0.06 -0.01    -0.025    22.320
ATOM      8  C   UNL d   1      -4.101  19.868  15.056 -0.10 +0.02    +0.066    22.320
ATOM      9  C   UNL d   1      -3.785  22.450  15.378 -0.02 +0.01    +0.051    22.320
ATOM     10  C   UNL d   1      -6.175  18.592  15.634 -0.13 -0.00    +0.066    22.320
ATOM     11  C   UNL d   1      -7.535  18.605  15.965 -0.18 +0.01    -0.021    22.320
ATOM     12  C   UNL d   1      -7.963  17.291  15.919 -0.21 -0.00    +0.000    22.320
ATOM     13  C   UNL d   1      -6.812  16.533  15.568 -0.19 -0.02    +0.070    22.320
ATOM     14  C   UNL d   1      -8.396  19.821  16.283 -0.13 -0.02    +0.052    22.320
ATOM     15  C   UNL d   1      -5.619  14.403  15.082 -0.22 -0.01    +0.066    22.320
ATOM     16  C   UNL d   1      -5.605  13.009  15.085 -0.25 +0.00    -0.021    22.320
ATOM     17  C   UNL d   1      -4.326  12.626  14.681 -0.24 -0.00    +0.000    22.320
ATOM     18  C   UNL d   1      -3.647  13.832  14.458 -0.16 -0.01    +0.070    22.320
ATOM     19  C   UNL d   1      -6.784  12.176  15.521 -0.30 -0.01    +0.052    22.320
ATOM     20  C   UNL d   1      -1.555  15.087  13.790 -0.10 +0.00    +0.066    22.320
ATOM     21  C   UNL d   1      -0.248  15.135  13.315 -0.08 +0.00    -0.025    22.320
ATOM     22  C   UNL d   1       0.078  16.468  13.203 -0.06 -0.01    -0.021    22.320
ATOM     23  C   UNL d   1      -1.042  17.187  13.633 -0.07 +0.03    +0.066    22.320
ATOM     24  C   UNL d   1       0.647  13.968  12.988 -0.04 -0.02    +0.051    22.320
ATOM     25  N   UNL d   1      -3.327  18.802  14.657 -0.09 -0.13    -0.248    22.320
ATOM     26  N   UNL d   1      -5.728  17.332  15.401 -0.12 -0.00    -0.248    22.320
ATOM     27  N   UNL d   1      -4.422  14.899  14.778 -0.10 +0.00    -0.248    22.320
ATOM     28  N   UNL d   1      -2.016  16.343  14.032 -0.07 -0.09    -0.248    22.320
ATOM     29 FE   UNL d   1      -3.859  16.831  14.712 -0.04 +0.00    +0.000    22.320
ATOM     30  O   UNL d   1      -3.650  17.465  16.118 -0.08 +0.00    +0.000    22.320
ATOM     31  O   UNL d   1      -3.145  15.999  15.839 -0.07 +0.00    +0.000    22.320
ATOM     32  C   UNL d   1      -1.040  21.691  14.152 -0.02 +0.02    +0.052    22.320
ATOM     33  C   UNL d   1      -1.081  22.340  12.772 -0.02 +0.04    +0.115    22.320
ATOM     34  C   UNL d   1      -2.070  21.671  11.850 -0.03 +0.13    +0.139    22.320
ATOM     35  O   UNL d   1      -3.267  21.795  12.057 -0.42 -0.60    -0.650    22.320
ATOM     36  O   UNL d   1      -1.663  20.910  10.813 -0.11 -1.13    -0.776    22.320
ATOM     37  H   UNL d   1      -0.971  20.245  10.908 +0.00 +0.24    +0.167    22.320
ATOM     38  C   UNL d   1       1.414  17.013  12.768 -0.02 +0.01    +0.052    22.320
ATOM     39  C   UNL d   1       1.448  17.350  11.279 -0.03 +0.03    +0.115    22.320
ATOM     40  C   UNL d   1       0.536  18.499  10.928 -0.05 +0.10    +0.139    22.320
ATOM     41  O   UNL d   1      -0.370  18.332  10.128 -0.31 -0.81    -0.650    22.320
ATOM     42  O   UNL d   1       0.672  19.701  11.521 +0.00 -0.45    -0.776    22.320
ATOM     43  H   UNL d   1       0.396  20.515  11.082 +0.01 +0.10    +0.167    22.320
ATOM     44  C   UNL d   1      -9.397  16.902  16.214 -0.14 -0.00    +0.004    22.320
ATOM     45  C   UNL d   1      -9.834  15.951  17.039 -0.14 -0.01    +0.012    22.320
ATOM     46  C   UNL d   1      -3.698  11.264  14.550 -0.26 -0.00    +0.004    22.320
ATOM     47  C   UNL d   1      -2.622  10.784  15.187 -0.26 -0.00    +0.012    22.320
TER
ENDMDL
MODEL       62
USER    Run = 62
USER    Cluster Rank = 30
USER    Number of conformations in this cluster = 1
USER  
USER    RMSD from reference structure       = 40.864 A
USER  
USER    Estimated Free Energy of Binding    =   -5.10 kcal/mol  [=(1)+(2)+(3)-(4)]
USER    Estimated Inhibition Constant, Ki   =  181.85 uM (micromolar)  [Temperature = 298.15 K]
USER    
USER    (1) Final Intermolecular Energy     =   -8.09 kcal/mol
USER        vdW + Hbond + desolv Energy     =   -6.03 kcal/mol
USER        Electrostatic Energy            =   -2.06 kcal/mol
USER    (2) Final Total Internal Energy     =   -2.52 kcal/mol
USER    (3) Torsional Free Energy           =   +2.98 kcal/mol
USER    (4) Unbound System's Energy  [=(2)] =   -2.52 kcal/mol
USER    
USER    
USER  
USER    DPF = D:/Protein_go_brrr/autodock/final/AncMH_nat/heme_O2/dock.dpf
USER    NEWDPF move	heme_O2_opt.pdbqt
USER    NEWDPF about	8.287000 34.468000 -0.670000
USER    NEWDPF tran0	-18.984458 2.076017 10.245045
USER    NEWDPF axisangle0	-0.478177 0.332970 -0.812698 118.619235
USER    NEWDPF quaternion0	-0.411202 0.286333 -0.698870 0.510399
USER    NEWDPF dihe0	131.24 126.29 -98.87 118.55 177.28 37.74 -48.20 46.98 -160.46 178.00 
USER  
USER                              x       y       z    vdW   Elec        q     RMS 
ATOM      1  C   UNL d   1     -19.518   1.649   8.237 -0.13 +0.04    +0.064    40.864
ATOM      2  C   UNL d   1     -16.049   0.030  11.048 -0.30 +0.00    +0.064    40.864
ATOM      3  C   UNL d   1     -17.509   2.869  14.640 -0.19 +0.02    +0.064    40.864
ATOM      4  C   UNL d   1     -21.371   4.190  11.918 -0.07 +0.02    +0.064    40.864
ATOM      5  C   UNL d   1     -18.457   0.975   8.709 -0.25 +0.03    +0.066    40.864
ATOM      6  C   UNL d   1     -17.718   0.055   7.961 -0.21 -0.01    -0.021    40.864
ATOM      7  C   UNL d   1     -16.739  -0.447   8.787 -0.13 -0.01    -0.025    40.864
ATOM      8  C   UNL d   1     -16.878   0.217  10.003 -0.26 +0.01    +0.066    40.864
ATOM      9  C   UNL d   1     -15.756  -1.531   8.405 -0.28 +0.01    +0.051    40.864
ATOM     10  C   UNL d   1     -16.130   0.713  12.340 -0.24 +0.00    +0.066    40.864
ATOM     11  C   UNL d   1     -15.149   0.603  13.332 -0.31 +0.00    -0.021    40.864
ATOM     12  C   UNL d   1     -15.543   1.428  14.368 -0.26 +0.00    +0.000    40.864
ATOM     13  C   UNL d   1     -16.776   1.999  13.946 -0.20 +0.01    +0.070    40.864
ATOM     14  C   UNL d   1     -13.876  -0.233  13.281 -0.09 +0.00    +0.052    40.864
ATOM     15  C   UNL d   1     -18.779   3.442  14.264 -0.14 +0.04    +0.066    40.864
ATOM     16  C   UNL d   1     -19.576   4.219  15.104 -0.10 -0.02    -0.021    40.864
ATOM     17  C   UNL d   1     -20.683   4.606  14.349 -0.09 +0.00    +0.000    40.864
ATOM     18  C   UNL d   1     -20.475   4.030  13.088 -0.11 +0.03    +0.070    40.864
ATOM     19  C   UNL d   1     -19.240   4.473  16.552 -0.03 +0.05    +0.052    40.864
ATOM     20  C   UNL d   1     -21.223   3.617  10.708 -0.10 +0.02    +0.066    40.864
ATOM     21  C   UNL d   1     -22.091   3.818   9.638 -0.08 -0.01    -0.025    40.864
ATOM     22  C   UNL d   1     -21.564   3.123   8.573 -0.14 -0.01    -0.021    40.864
ATOM     23  C   UNL d   1     -20.399   2.506   9.039 -0.16 +0.03    +0.066    40.864
ATOM     24  C   UNL d   1     -23.360   4.630   9.634 -0.04 +0.01    +0.051    40.864
ATOM     25  N   UNL d   1     -17.976   1.045   9.975 -0.16 -0.05    -0.248    40.864
ATOM     26  N   UNL d   1     -17.128   1.554  12.713 -0.14 -0.02    -0.248    40.864
ATOM     27  N   UNL d   1     -19.353   3.266  13.077 -0.10 -0.09    -0.248    40.864
ATOM     28  N   UNL d   1     -20.220   2.772  10.349 -0.10 -0.06    -0.248    40.864
ATOM     29 FE   UNL d   1     -18.687   2.169  11.525 -0.04 +0.00    +0.000    40.864
ATOM     30  O   UNL d   1     -18.869   0.636  11.725 -0.11 +0.00    +0.000    40.864
ATOM     31  O   UNL d   1     -20.015   1.624  12.166 -0.08 +0.00    +0.000    40.864
ATOM     32  C   UNL d   1     -18.001  -0.440   6.566 -0.17 +0.03    +0.052    40.864
ATOM     33  C   UNL d   1     -19.132  -1.462   6.518 -0.07 +0.06    +0.115    40.864
ATOM     34  C   UNL d   1     -20.173  -1.120   5.482 -0.07 +0.11    +0.139    40.864
ATOM     35  O   UNL d   1     -19.860  -0.452   4.509 -0.05 -0.80    -0.650    40.864
ATOM     36  O   UNL d   1     -21.457  -1.512   5.619 +0.03 -0.44    -0.776    40.864
ATOM     37  H   UNL d   1     -22.193  -0.901   5.500 +0.01 +0.11    +0.167    40.864
ATOM     38  C   UNL d   1     -22.185   3.011   7.205 -0.04 +0.04    +0.052    40.864
ATOM     39  C   UNL d   1     -23.299   1.967   7.155 -0.06 +0.06    +0.115    40.864
ATOM     40  C   UNL d   1     -23.192   1.066   5.951 -0.06 +0.11    +0.139    40.864
ATOM     41  O   UNL d   1     -24.041   0.211   5.757 +0.01 -0.31    -0.650    40.864
ATOM     42  O   UNL d   1     -22.201   1.222   5.051 -0.16 -1.39    -0.776    40.864
ATOM     43  H   UNL d   1     -21.651   0.480   4.774 +0.02 +0.30    +0.167    40.864
ATOM     44  C   UNL d   1     -14.721   1.582  15.631 -0.28 +0.00    +0.004    40.864
ATOM     45  C   UNL d   1     -13.604   2.289  15.800 -0.35 -0.00    +0.012    40.864
ATOM     46  C   UNL d   1     -21.907   5.398  14.725 -0.07 +0.00    +0.004    40.864
ATOM     47  C   UNL d   1     -22.258   6.624  14.317 -0.07 +0.01    +0.012    40.864
TER
ENDMDL
MODEL       59
USER    Run = 59
USER    Cluster Rank = 31
USER    Number of conformations in this cluster = 1
USER  
USER    RMSD from reference structure       = 25.249 A
USER  
USER    Estimated Free Energy of Binding    =   -4.53 kcal/mol  [=(1)+(2)+(3)-(4)]
USER    Estimated Inhibition Constant, Ki   =  477.03 uM (micromolar)  [Temperature = 298.15 K]
USER    
USER    (1) Final Intermolecular Energy     =   -7.51 kcal/mol
USER        vdW + Hbond + desolv Energy     =   -5.34 kcal/mol
USER        Electrostatic Energy            =   -2.18 kcal/mol
USER    (2) Final Total Internal Energy     =   -2.07 kcal/mol
USER    (3) Torsional Free Energy           =   +2.98 kcal/mol
USER    (4) Unbound System's Energy  [=(2)] =   -2.07 kcal/mol
USER    
USER    
USER  
USER    DPF = D:/Protein_go_brrr/autodock/final/AncMH_nat/heme_O2/dock.dpf
USER    NEWDPF move	heme_O2_opt.pdbqt
USER    NEWDPF about	8.287000 34.468000 -0.670000
USER    NEWDPF tran0	-5.280264 15.654782 15.572171
USER    NEWDPF axisangle0	-0.215687 0.342523 0.914416 104.043289
USER    NEWDPF quaternion0	-0.170013 0.269991 0.720783 0.615364
USER    NEWDPF dihe0	-152.99 73.46 -50.87 156.55 168.22 -29.85 70.08 -35.62 -11.85 -34.92 
USER  
USER                              x       y       z    vdW   Elec        q     RMS 
ATOM      1  C   UNL d   1      -3.994  17.283  15.132 -0.10 +0.02    +0.064    25.249
ATOM      2  C   UNL d   1      -8.520  17.064  16.555 -0.18 -0.03    +0.064    25.249
ATOM      3  C   UNL d   1      -8.389  12.260  16.540 -0.20 -0.02    +0.064    25.249
ATOM      4  C   UNL d   1      -3.591  12.476  15.539 -0.11 -0.01    +0.064    25.249
ATOM      5  C   UNL d   1      -5.235  17.615  15.522 -0.12 +0.01    +0.066    25.249
ATOM      6  C   UNL d   1      -5.695  18.931  15.634 -0.13 -0.00    -0.021    25.249
ATOM      7  C   UNL d   1      -6.992  18.870  16.087 -0.15 +0.00    -0.025    25.249
ATOM      8  C   UNL d   1      -7.304  17.517  16.194 -0.18 -0.02    +0.066    25.249
ATOM      9  C   UNL d   1      -7.849  20.071  16.421 -0.11 -0.02    +0.051    25.249
ATOM     10  C   UNL d   1      -8.914  15.659  16.662 -0.10 -0.03    +0.066    25.249
ATOM     11  C   UNL d   1     -10.232  15.244  16.881 -0.09 +0.01    -0.021    25.249
ATOM     12  C   UNL d   1     -10.218  13.861  16.863 -0.10 -0.00    +0.000    25.249
ATOM     13  C   UNL d   1      -8.860  13.503  16.640 -0.12 -0.02    +0.070    25.249
ATOM     14  C   UNL d   1     -11.459  16.129  17.073 -0.11 -0.02    +0.052    25.249
ATOM     15  C   UNL d   1      -7.017  11.855  16.351 -0.18 -0.01    +0.066    25.249
ATOM     16  C   UNL d   1      -6.565  10.538  16.419 -0.18 +0.01    -0.021    25.249
ATOM     17  C   UNL d   1      -5.199  10.575  16.137 -0.17 -0.00    +0.000    25.249
ATOM     18  C   UNL d   1      -4.917  11.930  15.914 -0.15 -0.01    +0.070    25.249
ATOM     19  C   UNL d   1      -7.455   9.381  16.797 -0.22 -0.02    +0.052    25.249
ATOM     20  C   UNL d   1      -3.277  13.773  15.359 -0.07 -0.01    +0.066    25.249
ATOM     21  C   UNL d   1      -2.014  14.226  14.989 -0.07 +0.00    -0.025    25.249
ATOM     22  C   UNL d   1      -2.117  15.591  14.842 -0.07 -0.00    -0.021    25.249
ATOM     23  C   UNL d   1      -3.440  15.924  15.147 -0.09 +0.01    +0.066    25.249
ATOM     24  C   UNL d   1      -0.771  13.398  14.788 -0.09 -0.01    +0.051    25.249
ATOM     25  N   UNL d   1      -6.201  16.746  15.908 -0.12 +0.03    -0.248    25.249
ATOM     26  N   UNL d   1      -8.073  14.603  16.524 -0.09 +0.10    -0.248    25.249
ATOM     27  N   UNL d   1      -6.016  12.700  16.121 -0.09 +0.05    -0.248    25.249
ATOM     28  N   UNL d   1      -4.130  14.822  15.504 -0.05 +0.01    -0.248    25.249
ATOM     29 FE   UNL d   1      -6.086  14.710  16.011 -0.03 -0.00    +0.000    25.249
ATOM     30  O   UNL d   1      -6.217  15.403  17.399 -0.07 -0.00    +0.000    25.249
ATOM     31  O   UNL d   1      -5.252  14.169  17.229 -0.06 -0.00    +0.000    25.249
ATOM     32  C   UNL d   1      -4.906  20.202  15.455 -0.11 +0.01    +0.052    25.249
ATOM     33  C   UNL d   1      -4.547  20.477  13.998 -0.08 +0.06    +0.115    25.249
ATOM     34  C   UNL d   1      -3.065  20.360  13.739 -0.00 +0.12    +0.139    25.249
ATOM     35  O   UNL d   1      -2.356  19.778  14.544 -0.04 -0.34    -0.650    25.249
ATOM     36  O   UNL d   1      -2.497  20.910  12.646 -0.51 -1.01    -0.776    25.249
ATOM     37  H   UNL d   1      -1.691  20.554  12.255 +0.00 +0.25    +0.167    25.249
ATOM     38  C   UNL d   1      -0.987  16.524  14.490 -0.06 +0.01    +0.052    25.249
ATOM     39  C   UNL d   1      -0.470  16.304  13.070 -0.08 +0.03    +0.115    25.249
ATOM     40  C   UNL d   1      -0.075  17.593  12.394 -0.05 +0.09    +0.139    25.249
ATOM     41  O   UNL d   1       1.093  17.790  12.099 +0.01 -0.24    -0.650    25.249
ATOM     42  O   UNL d   1      -0.999  18.515  12.061 +0.04 -1.40    -0.776    25.249
ATOM     43  H   UNL d   1      -1.397  19.093  12.723 +0.00 +0.26    +0.167    25.249
ATOM     44  C   UNL d   1     -11.476  13.042  17.059 -0.09 -0.00    +0.004    25.249
ATOM     45  C   UNL d   1     -11.977  12.105  16.254 -0.14 -0.00    +0.012    25.249
ATOM     46  C   UNL d   1      -4.164   9.482  16.120 -0.29 -0.00    +0.004    25.249
ATOM     47  C   UNL d   1      -3.060   9.398  15.367 -0.35 -0.00    +0.012    25.249
TER
ENDMDL
MODEL        2
USER    Run = 2
USER    Cluster Rank = 32
USER    Number of conformations in this cluster = 1
USER  
USER    RMSD from reference structure       = 45.114 A
USER  
USER    Estimated Free Energy of Binding    =   -4.10 kcal/mol  [=(1)+(2)+(3)-(4)]
USER    Estimated Inhibition Constant, Ki   =  985.61 uM (micromolar)  [Temperature = 298.15 K]
USER    
USER    (1) Final Intermolecular Energy     =   -7.08 kcal/mol
USER        vdW + Hbond + desolv Energy     =   -7.38 kcal/mol
USER        Electrostatic Energy            =   +0.30 kcal/mol
USER    (2) Final Total Internal Energy     =   -2.21 kcal/mol
USER    (3) Torsional Free Energy           =   +2.98 kcal/mol
USER    (4) Unbound System's Energy  [=(2)] =   -2.21 kcal/mol
USER    
USER    
USER  
USER    DPF = D:/Protein_go_brrr/autodock/final/AncMH_nat/heme_O2/dock.dpf
USER    NEWDPF move	heme_O2_opt.pdbqt
USER    NEWDPF about	8.287000 34.468000 -0.670000
USER    NEWDPF tran0	11.057096 -11.767223 -5.289770
USER    NEWDPF axisangle0	0.481286 0.590287 -0.648016 -168.069886
USER    NEWDPF quaternion0	0.478680 0.587091 -0.644507 -0.103922
USER    NEWDPF dihe0	166.45 -56.05 -40.23 -24.57 178.45 156.82 -70.82 7.55 -159.74 168.17 
USER  
USER                              x       y       z    vdW   Elec        q     RMS 
ATOM      1  C   UNL d   1      12.845 -12.057  -4.185 -0.20 -0.02    +0.064    45.114
ATOM      2  C   UNL d   1       8.501 -13.940  -3.809 -0.15 -0.01    +0.064    45.114
ATOM      3  C   UNL d   1       6.930 -11.284  -7.493 -0.25 -0.01    +0.064    45.114
ATOM      4  C   UNL d   1      11.517  -9.694  -8.197 -0.27 -0.04    +0.064    45.114
ATOM      5  C   UNL d   1      11.792 -12.787  -3.783 -0.18 -0.02    +0.066    45.114
ATOM      6  C   UNL d   1      11.823 -13.681  -2.709 -0.12 +0.01    -0.021    45.114
ATOM      7  C   UNL d   1      10.578 -14.258  -2.626 -0.11 +0.00    -0.025    45.114
ATOM      8  C   UNL d   1       9.806 -13.666  -3.622 -0.16 -0.01    +0.066    45.114
ATOM      9  C   UNL d   1      10.192 -15.345  -1.646 -0.05 -0.01    +0.051    45.114
ATOM     10  C   UNL d   1       7.634 -13.334  -4.821 -0.17 -0.00    +0.066    45.114
ATOM     11  C   UNL d   1       6.249 -13.532  -4.866 -0.09 -0.00    -0.021    45.114
ATOM     12  C   UNL d   1       5.776 -12.760  -5.911 -0.21 +0.00    +0.000    45.114
ATOM     13  C   UNL d   1       6.925 -12.131  -6.464 -0.20 -0.00    +0.070    45.114
ATOM     14  C   UNL d   1       5.410 -14.398  -3.934 -0.16 +0.00    +0.052    45.114
ATOM     15  C   UNL d   1       8.075 -10.655  -8.105 -0.21 -0.01    +0.066    45.114
ATOM     16  C   UNL d   1       8.032  -9.908  -9.282 -0.23 +0.00    -0.021    45.114
ATOM     17  C   UNL d   1       9.329  -9.445  -9.503 -0.27 -0.00    +0.000    45.114
ATOM     18  C   UNL d   1      10.075  -9.948  -8.429 -0.27 -0.03    +0.070    45.114
ATOM     19  C   UNL d   1       6.782  -9.752 -10.111 -0.28 -0.01    +0.052    45.114
ATOM     20  C   UNL d   1      12.273 -10.196  -7.201 -0.27 -0.03    +0.066    45.114
ATOM     21  C   UNL d   1      13.622  -9.906  -7.024 -0.27 +0.01    -0.025    45.114
ATOM     22  C   UNL d   1      14.011 -10.549  -5.870 -0.26 +0.00    -0.021    45.114
ATOM     23  C   UNL d   1      12.884 -11.225  -5.394 -0.25 -0.02    +0.066    45.114
ATOM     24  C   UNL d   1      14.498  -9.060  -7.912 -0.32 -0.03    +0.051    45.114
ATOM     25  N   UNL d   1      10.573 -12.808  -4.376 -0.11 +0.08    -0.248    45.114
ATOM     26  N   UNL d   1       8.052 -12.490  -5.798 -0.13 +0.04    -0.248    45.114
ATOM     27  N   UNL d   1       9.315 -10.742  -7.632 -0.14 +0.09    -0.248    45.114
ATOM     28  N   UNL d   1      11.841 -11.044  -6.231 -0.17 +0.10    -0.248    45.114
ATOM     29 FE   UNL d   1       9.960 -11.761  -6.018 -0.05 -0.00    +0.000    45.114
ATOM     30  O   UNL d   1      10.050 -13.297  -6.251 -0.12 -0.00    +0.000    45.114
ATOM     31  O   UNL d   1      10.521 -12.307  -7.382 -0.13 -0.00    +0.000    45.114
ATOM     32  C   UNL d   1      13.014 -14.081  -1.876 -0.07 -0.01    +0.052    45.114
ATOM     33  C   UNL d   1      13.941 -15.054  -2.598 -0.01 -0.02    +0.115    45.114
ATOM     34  C   UNL d   1      15.227 -14.401  -3.040 -0.01 -0.02    +0.139    45.114
ATOM     35  O   UNL d   1      15.661 -13.442  -2.422 +0.03 +0.09    -0.650    45.114
ATOM     36  O   UNL d   1      15.900 -14.836  -4.126 +0.01 +0.09    -0.776    45.114
ATOM     37  H   UNL d   1      16.610 -14.321  -4.527 +0.00 -0.02    +0.167    45.114
ATOM     38  C   UNL d   1      15.405 -10.561  -5.298 -0.20 -0.00    +0.052    45.114
ATOM     39  C   UNL d   1      16.242 -11.723  -5.829 -0.06 -0.01    +0.115    45.114
ATOM     40  C   UNL d   1      17.582 -11.828  -5.145 -0.03 -0.01    +0.139    45.114
ATOM     41  O   UNL d   1      18.357 -10.886  -5.183 +0.01 +0.06    -0.650    45.114
ATOM     42  O   UNL d   1      17.922 -12.928  -4.446 +0.02 +0.08    -0.776    45.114
ATOM     43  H   UNL d   1      17.356 -13.276  -3.746 +0.01 -0.02    +0.167    45.114
ATOM     44  C   UNL d   1       4.305 -12.706  -6.268 -0.31 -0.00    +0.004    45.114
ATOM     45  C   UNL d   1       3.571 -11.632  -6.557 -0.49 +0.00    +0.012    45.114
ATOM     46  C   UNL d   1       9.912  -8.643 -10.636 -0.27 -0.00    +0.004    45.114
ATOM     47  C   UNL d   1       9.547  -8.642 -11.924 -0.22 -0.00    +0.012    45.114
TER
ENDMDL


AVSFLD: # AVS field file
AVSFLD: #
AVSFLD: # Created by AutoDock
AVSFLD: #
AVSFLD: ndim=2           # number of dimensions in the field
AVSFLD: nspace=1         # number of physical coordinates
AVSFLD: veclen=7         # vector size
AVSFLD: dim1=47          # atoms
AVSFLD: dim2=32          # conformations
AVSFLD: data=Real       # data type (byte,integer,Real,double)
AVSFLD: field=uniform    # field coordinate layout
AVSFLD: label= x y z vdW Elec q RMS
AVSFLD: variable 1 file = D:/Protein_go_brrr/autodock/final/AncMH_nat/heme_O2/dock.dlg.pdb filetype = ascii offset = 5 stride = 12
AVSFLD: variable 2 file = D:/Protein_go_brrr/autodock/final/AncMH_nat/heme_O2/dock.dlg.pdb filetype = ascii offset = 6 stride = 12
AVSFLD: variable 3 file = D:/Protein_go_brrr/autodock/final/AncMH_nat/heme_O2/dock.dlg.pdb filetype = ascii offset = 7 stride = 12
AVSFLD: variable 4 file = D:/Protein_go_brrr/autodock/final/AncMH_nat/heme_O2/dock.dlg.pdb filetype = ascii offset = 8 stride = 12
AVSFLD: variable 5 file = D:/Protein_go_brrr/autodock/final/AncMH_nat/heme_O2/dock.dlg.pdb filetype = ascii offset = 9 stride = 12
AVSFLD: variable 6 file = D:/Protein_go_brrr/autodock/final/AncMH_nat/heme_O2/dock.dlg.pdb filetype = ascii offset = 10 stride = 12
AVSFLD: variable 7 file = D:/Protein_go_brrr/autodock/final/AncMH_nat/heme_O2/dock.dlg.pdb filetype = ascii offset = 11 stride = 12
AVSFLD: # end of file

>>> Closing the docking parameter file (DPF)...
This docking finished at:			10:17 55" p.m., 01/16/2026


________________________________________________________________________________

D:/autodockScripts/autodock4.exe: Successful Completion on "ACER"

Real= 34h 37m 47.26s,  CPU= 4m 59.47s,  System= 1m 57.02s
________________________________________________________________________________

