          AutoDock 4.2 Release 4.2.6   
         (C) 1989-2012 The Scripps Research Institute
        AutoDock comes with ABSOLUTELY NO WARRANTY.
        AutoDock is free software, and you are welcome
        to redistribute it under certain conditions;
        for details type 'autodock4 -C'

                     main.cc  $Revision: 1.213 $

                   Compiled on Jul 18 2014 at 15:34:58


This file was created at:			12:31 49" p.m., 09/30/2025
                   on host:		"ACER"
Current Working Directory = "D:\Protein_go_brrr\autodock\final\AncB\heme"

      ________________________________________________________________

                   SETTING UP DEFAULT PARAMETER LIBRARY
      ________________________________________________________________


Random number generator was seeded with values 118720, 1759228309.
Docking parameter file (DPF) used for this docking:		D:/Protein_go_brrr/autodock/final/AncB/heme/dock.dpf
DPF> autodock_parameter_version 4.2       # used by autodock to validate parameter set

	Autodock parameter version 4.2.
DPF> outlev 1                             # diagnostic output level

Output Level = 1  ADT-COMPATIBLE OUTPUT DURING DOCKING.
DPF> intelec                              # calculate internal electrostatics

Electrostatic energies will be calculated for all non-bonds between moving atoms.
DPF> seed pid time                        # seeds for random generator

Random number generator was seeded with values 118720, 1759228309.
DPF> ligand_types A C NA OA N HD          # atoms types in ligand

DPF> fld opt_AncB.maps.fld                # grid_data_file

Opening Grid Map Dimensions file:		opt_AncB.maps.fld
Grid Point Spacing =				0.425 Angstroms

Even Number of User-specified Grid Points =	126 x-points
						126 y-points
						126 z-points

Coordinates of Central Grid Point of Maps =	(-0.470, 0.127, 0.025)
Macromolecule file used to create Grid Maps =	opt_AncB.pdbqt
Grid Parameter file used to create Grid Maps =	D:/Protein_go_brrr/autodock/final/AncB/heme/grid.gpf
Minimum coordinates in grid = (-27.245, -26.648, -26.750)
Maximum coordinates in grid = (26.305, 26.902, 26.800)

DPF> map opt_AncB.A.map                   # atom-specific affinity map

DPF> map opt_AncB.C.map                   # atom-specific affinity map

DPF> map opt_AncB.NA.map                  # atom-specific affinity map

DPF> map opt_AncB.OA.map                  # atom-specific affinity map

DPF> map opt_AncB.N.map                   # atom-specific affinity map

DPF> map opt_AncB.HD.map                  # atom-specific affinity map

DPF> elecmap opt_AncB.e.map               # electrostatics map

DPF> desolvmap opt_AncB.d.map             # desolvation map

DPF> move heme_opt.pdbqt                  # small molecule

1,4-interactions will be _ignored_ in the non-bonded internal energy calculation.

Ligand PDBQT file = "heme_opt.pdbqt"

INPUT LIGAND PDBQT FILE:
________________________

INPUT-LIGAND-PDBQT: REMARK  13 active torsions:
INPUT-LIGAND-PDBQT: REMARK  status: ('A' for Active; 'I' for Inactive)
INPUT-LIGAND-PDBQT: REMARK    1  A    between atoms: O_3  and  C_38 
INPUT-LIGAND-PDBQT: REMARK    2  A    between atoms: O_4  and  C_40 
INPUT-LIGAND-PDBQT: REMARK    3  A    between atoms: O_7  and  C_46 
INPUT-LIGAND-PDBQT: REMARK    4  A    between atoms: O_9  and  C_48 
INPUT-LIGAND-PDBQT: REMARK    5  A    between atoms: C_15  and  C_20 
INPUT-LIGAND-PDBQT: REMARK    6  A    between atoms: C_16  and  C_23 
INPUT-LIGAND-PDBQT: REMARK    7  A    between atoms: C_20  and  C_38 
INPUT-LIGAND-PDBQT: REMARK    8  A    between atoms: C_23  and  C_40 
INPUT-LIGAND-PDBQT: REMARK    9  A    between atoms: C_32  and  C_41 
INPUT-LIGAND-PDBQT: REMARK   10  A    between atoms: C_37  and  C_45 
INPUT-LIGAND-PDBQT: REMARK   11  A    between atoms: C_41  and  C_44 
INPUT-LIGAND-PDBQT: REMARK   12  A    between atoms: C_44  and  C_46 
INPUT-LIGAND-PDBQT: REMARK   13  A    between atoms: C_47  and  C_48 
INPUT-LIGAND-PDBQT: ROOT
INPUT-LIGAND-PDBQT: ATOM      1  O   UNL d   1      -5.458   1.707   0.620  0.00  0.00    -0.289 OA
INPUT-LIGAND-PDBQT: ATOM      2  O   UNL d   1      -2.504  -4.828  -1.607  0.00  0.00    -0.289 OA
INPUT-LIGAND-PDBQT: ATOM      3  N   UNL d   1      -2.063   1.218   0.259  0.00  0.00    -0.247 NA
INPUT-LIGAND-PDBQT: ATOM      4  N   UNL d   1      -1.851  -1.684  -0.343  0.00  0.00    -0.247 NA
INPUT-LIGAND-PDBQT: ATOM      5  N   UNL d   1       0.972  -1.489   0.166  0.00  0.00    -0.354 N 
INPUT-LIGAND-PDBQT: ATOM      6  N   UNL d   1       0.740   1.517   0.808  0.00  0.00    -0.354 N 
INPUT-LIGAND-PDBQT: ATOM      7  C   UNL d   1      -3.467   3.037   1.112  0.00  0.00     0.084 A 
INPUT-LIGAND-PDBQT: ATOM      8  C   UNL d   1      -3.784  -2.753  -1.388  0.00  0.00     0.084 A 
INPUT-LIGAND-PDBQT: ATOM      9  C   UNL d   1      -3.156  -1.511  -0.747  0.00  0.00     0.058 A 
INPUT-LIGAND-PDBQT: ATOM     10  C   UNL d   1      -2.069   2.485   0.818  0.00  0.00     0.058 A 
INPUT-LIGAND-PDBQT: ATOM     11  C   UNL d   1      -4.251   1.865   0.603  0.00  0.00     0.193 A 
INPUT-LIGAND-PDBQT: ATOM     12  C   UNL d   1      -3.288   0.840   0.089  0.00  0.00     0.109 A 
INPUT-LIGAND-PDBQT: ATOM     13  C   UNL d   1      -2.606  -3.674  -1.239  0.00  0.00     0.193 A 
INPUT-LIGAND-PDBQT: ATOM     14  C   UNL d   1      -3.721   3.188   2.614  0.00  0.00     0.026 C 
INPUT-LIGAND-PDBQT: ATOM     15  C   UNL d   1      -3.838  -0.372  -0.551  0.00  0.00     0.055 C 
INPUT-LIGAND-PDBQT: ATOM     16  C   UNL d   1      -4.060  -2.544  -2.880  0.00  0.00     0.026 C 
INPUT-LIGAND-PDBQT: ATOM     17  C   UNL d   1      -1.503  -2.907  -0.585  0.00  0.00     0.109 A 
INPUT-LIGAND-PDBQT: ATOM     18  C   UNL d   1      -0.964   3.229   1.013  0.00  0.00     0.050 C 
INPUT-LIGAND-PDBQT: ATOM     19  C   UNL d   1       0.360   2.835   0.692  0.00  0.00     0.045 A 
INPUT-LIGAND-PDBQT: ATOM     20  C   UNL d   1       0.841  -2.851   0.084  0.00  0.00     0.045 A 
INPUT-LIGAND-PDBQT: ATOM     21  C   UNL d   1      -0.229  -3.570  -0.270  0.00  0.00     0.057 C 
INPUT-LIGAND-PDBQT: ATOM     22  C   UNL d   1       2.967  -2.353   0.755  0.00  0.00    -0.019 A 
INPUT-LIGAND-PDBQT: ATOM     23  C   UNL d   1       2.221  -1.093   0.564  0.00  0.00     0.045 A 
INPUT-LIGAND-PDBQT: ATOM     24  C   UNL d   1       2.145  -3.390   0.468  0.00  0.00    -0.022 A 
INPUT-LIGAND-PDBQT: ATOM     25  C   UNL d   1       2.081   1.375   0.536  0.00  0.00     0.049 A 
INPUT-LIGAND-PDBQT: ATOM     26  C   UNL d   1       1.473   3.562   0.299  0.00  0.00    -0.018 A 
INPUT-LIGAND-PDBQT: ATOM     27  C   UNL d   1       2.552   2.632   0.183  0.00  0.00     0.003 A 
INPUT-LIGAND-PDBQT: ATOM     28  C   UNL d   1       2.739   0.132   0.742  0.00  0.00     0.052 C 
INPUT-LIGAND-PDBQT: ATOM     29  C   UNL d   1       2.440  -4.851   0.501  0.00  0.00     0.046 C 
INPUT-LIGAND-PDBQT: ATOM     30  C   UNL d   1       1.533   5.030   0.044  0.00  0.00     0.046 C 
INPUT-LIGAND-PDBQT: ATOM     31  H   UNL d   1       0.223  -0.870  -0.125  0.00  0.00     0.166 HD
INPUT-LIGAND-PDBQT: ATOM     32  H   UNL d   1       0.112   0.776   1.096  0.00  0.00     0.166 HD
INPUT-LIGAND-PDBQT: ENDROOT
INPUT-LIGAND-PDBQT: BRANCH   7  33
INPUT-LIGAND-PDBQT: ATOM     33  C   UNL d   1      -3.845   4.310   0.347  0.00  0.00     0.141 C 
INPUT-LIGAND-PDBQT: BRANCH  33  34
INPUT-LIGAND-PDBQT: ATOM     34  C   UNL d   1      -3.538   4.215  -1.123  0.00  0.00     0.306 C 
INPUT-LIGAND-PDBQT: ATOM     35  O   UNL d   1      -3.917   3.340  -1.883  0.00  0.00    -0.251 OA
INPUT-LIGAND-PDBQT: BRANCH  34  36
INPUT-LIGAND-PDBQT: ATOM     36  O   UNL d   1      -2.771   5.230  -1.559  0.00  0.00    -0.481 OA
INPUT-LIGAND-PDBQT: ATOM     37  H   UNL d   1      -2.612   5.030  -2.506  0.00  0.00     0.295 HD
INPUT-LIGAND-PDBQT: ENDBRANCH  34  36
INPUT-LIGAND-PDBQT: ENDBRANCH  33  34
INPUT-LIGAND-PDBQT: ENDBRANCH   7  33
INPUT-LIGAND-PDBQT: BRANCH  27  38
INPUT-LIGAND-PDBQT: ATOM     38  C   UNL d   1       3.894   2.967  -0.187  0.00  0.00     0.017 C 
INPUT-LIGAND-PDBQT: ATOM     39  C   UNL d   1       4.701   2.208  -0.944  0.00  0.00     0.092 C 
INPUT-LIGAND-PDBQT: BRANCH  39  40
INPUT-LIGAND-PDBQT: ATOM     40  C   UNL d   1       6.052   2.675  -1.266  0.00  0.00     0.330 C 
INPUT-LIGAND-PDBQT: ATOM     41  O   UNL d   1       6.568   3.731  -0.953  0.00  0.00    -0.246 OA
INPUT-LIGAND-PDBQT: BRANCH  40  42
INPUT-LIGAND-PDBQT: ATOM     42  O   UNL d   1       6.703   1.746  -1.983  0.00  0.00    -0.477 OA
INPUT-LIGAND-PDBQT: ATOM     43  H   UNL d   1       7.581   2.148  -2.146  0.00  0.00     0.295 HD
INPUT-LIGAND-PDBQT: ENDBRANCH  40  42
INPUT-LIGAND-PDBQT: ENDBRANCH  39  40
INPUT-LIGAND-PDBQT: ENDBRANCH  27  38
INPUT-LIGAND-PDBQT: BRANCH   8  44
INPUT-LIGAND-PDBQT: ATOM     44  C   UNL d   1      -5.015  -3.316  -0.670  0.00  0.00     0.141 C 
INPUT-LIGAND-PDBQT: BRANCH  44  45
INPUT-LIGAND-PDBQT: ATOM     45  C   UNL d   1      -4.806  -3.504   0.809  0.00  0.00     0.306 C 
INPUT-LIGAND-PDBQT: ATOM     46  O   UNL d   1      -3.825  -3.985   1.349  0.00  0.00    -0.251 OA
INPUT-LIGAND-PDBQT: BRANCH  45  47
INPUT-LIGAND-PDBQT: ATOM     47  O   UNL d   1      -5.864  -3.098   1.534  0.00  0.00    -0.481 OA
INPUT-LIGAND-PDBQT: ATOM     48  H   UNL d   1      -5.613  -3.283   2.464  0.00  0.00     0.295 HD
INPUT-LIGAND-PDBQT: ENDBRANCH  45  47
INPUT-LIGAND-PDBQT: ENDBRANCH  44  45
INPUT-LIGAND-PDBQT: ENDBRANCH   8  44
INPUT-LIGAND-PDBQT: BRANCH  22  49
INPUT-LIGAND-PDBQT: ATOM     49  C   UNL d   1       4.395  -2.426   1.210  0.00  0.00     0.048 C 
INPUT-LIGAND-PDBQT: BRANCH  49  50
INPUT-LIGAND-PDBQT: ATOM     50  C   UNL d   1       5.372  -2.242   0.049  0.00  0.00     0.125 C 
INPUT-LIGAND-PDBQT: BRANCH  50  51
INPUT-LIGAND-PDBQT: ATOM     51  C   UNL d   1       6.794  -2.339   0.524  0.00  0.00     0.305 C 
INPUT-LIGAND-PDBQT: ATOM     52  O   UNL d   1       7.189  -2.431   1.673  0.00  0.00    -0.251 OA
INPUT-LIGAND-PDBQT: BRANCH  51  53
INPUT-LIGAND-PDBQT: ATOM     53  O   UNL d   1       7.671  -2.302  -0.499  0.00  0.00    -0.481 OA
INPUT-LIGAND-PDBQT: ATOM     54  H   UNL d   1       8.547  -2.365  -0.064  0.00  0.00     0.295 HD
INPUT-LIGAND-PDBQT: ENDBRANCH  51  53
INPUT-LIGAND-PDBQT: ENDBRANCH  50  51
INPUT-LIGAND-PDBQT: ENDBRANCH  49  50
INPUT-LIGAND-PDBQT: ENDBRANCH  22  49
INPUT-LIGAND-PDBQT: TORSDOF 13
________________________________________________________________________________

Total charge on ligand                               =	-0.002 e
REMARK  13 active torsions:
REMARK  status: ('A' for Active; 'I' for Inactive)
REMARK    1  A    between atoms: O_3  and  C_38 
REMARK    2  A    between atoms: O_4  and  C_40 
REMARK    3  A    between atoms: O_7  and  C_46 
REMARK    4  A    between atoms: O_9  and  C_48 
REMARK    5  A    between atoms: C_15  and  C_20 
REMARK    6  A    between atoms: C_16  and  C_23 
REMARK    7  A    between atoms: C_20  and  C_38 
REMARK    8  A    between atoms: C_23  and  C_40 
REMARK    9  A    between atoms: C_32  and  C_41 
REMARK   10  A    between atoms: C_37  and  C_45 
REMARK   11  A    between atoms: C_41  and  C_44 
REMARK   12  A    between atoms: C_44  and  C_46 
REMARK   13  A    between atoms: C_47  and  C_48 


Number of Rotatable Bonds in Small Molecule =	13 torsions
Number of atoms in ligand:  54

Number of non-hydrogen atoms in ligand:  48

Number of vibrational degrees of freedom of ligand:  156


Number of torsional degrees of freedom = 13
Estimated loss of torsional free energy upon binding = +3.8779 kcal/mol


DPF> about 0.153 0.018 -0.028            # small molecule center

Small molecule center of rotation =	(+0.153, +0.018, -0.028)

DPF> tran0 random                         # initial coordinates/A or random

Initial translation =			(-19.858, 13.836, -19.351) Angstroms
DPF> quaternion0 random                   # initial orientation

Each run will begin with a new, random initial orientation.
Initial quaternion,  (x,y,z,w) =	( -0.133, 0.658, -0.384, 0.634 ),
DPF> dihe0 random                         # initial dihedrals (relative) or random

DPF> torsdof 13                            # torsional degrees of freedom

Number of torsional degrees of freedom = 13
Free energy coefficient for torsional degrees of freedom = 0.2983, the factory default value.

Estimated loss of torsional free energy upon binding = +3.8779 kcal/mol

DPF> rmstol 2.0                           # cluster_tolerance/A

Maximum RMS tolerance for conformational cluster analysis = 2.00 Angstroms
DPF> extnrg 1000.0                        # external grid energy

External grid energy (beyond grid map walls) = 1000.00

DPF> e0max 0.0 10000                      # max initial energy; max number of retries

Using user-specified maximum number of retries for simanneal initialization, 10000 retries.
If the simanneal initial energy is greater than e0max, 0.000,
then a new, random initial state will be created.

DPF> ga_pop_size 150                      # number of individuals in population

A population of 150 individuals will be used
DPF> ga_num_evals 25000000                # maximum number of energy evaluations

There will be at most 25000000 function evaluations used.
DPF> ga_num_generations 27000             # maximum number of generations

The GA will run for at most 27000 generations.
DPF> ga_elitism 1                         # number of top individuals to survive to next generation

The 1 best will be preserved each GA generation.
DPF> ga_mutation_rate 0.02                # rate of gene mutation

The mutation rate is 0.020000.
DPF> ga_crossover_rate 0.8                # rate of crossover

The crossover rate is 0.800000.
DPF> ga_window_size 10                    # 

The GA's selection window is 10 generations.
DPF> ga_cauchy_alpha 0.0                  # Alpha parameter of Cauchy distribution

The alpha parameter (for the Cauchy distribution) is being set to 0.000000.
DPF> ga_cauchy_beta 1.0                   # Beta parameter Cauchy distribution

The beta parameter (for the Cauchy distribution) is being set to 1.000000.
DPF> set_ga                               # set the above parameters for GA or LGA

DPF> sw_max_its 300                       # iterations of Solis & Wets local search

Solis & Wets algorithms will perform at most 300 iterations.
DPF> sw_max_succ 4                        # consecutive successes before changing rho

Solis & Wets algorithms expand rho every 4 in a row successes.
DPF> sw_max_fail 4                        # consecutive failures before changing rho

Solis & Wets algorithms contract rho every 4 in a row failures.
DPF> sw_rho 1.0                           # size of local search space to sample

rho is set to 1.000000.
DPF> sw_lb_rho 0.01                       # lower bound on rho

rho will never get smaller than 0.010000.
DPF> ls_search_freq 0.06                  # probability of performing local search on individual

Local search will be performed with frequency 0.060000.
DPF> set_psw1                             # set the above pseudo-Solis & Wets parameters

Creating a new Local Search object using the pseudo-Solis-Wets algorithm (pSW1) with the current settings.

DPF> unbound_model bound                  # state of unbound ligand

DPF> ga_run 100                           # do this many hybrid GA-LS runs

centering ligand on specified point: 0.153 0.018 -0.028
Furthest true ligand atom from "about" center is 8.726 Angstroms (maxrad).
Number of requested GA dockings = 100 runs
Unbound model to be used is 'same as bound' [AutoDock 4.2 default].

	BEGINNING GENETIC ALGORITHM DOCKING 1 of 100
Run: 1 Seed: 230389492 1231111257 [ Run 1 of 100 GA/GALS ]
Beginning LAMARCKIAN GENETIC ALGORITHM (LGA), with a maximum of 25000000 energy evaluations.

Final-Value: -11.241


	FINAL GENETIC ALGORITHM DOCKED STATE
	_______________________________________________


Detailed state:  trans 3.830 1.718 -17.804 quatxyzw -0.560085 0.525157 0.320183 0.554976 center 0.153 0.018 -0.028 ntor 13 117.4549 121.2943 62.2599 -40.2053 -23.7913 172.4912 144.5200 -112.4296 -142.8901 173.6688 -61.2287 170.7847 20.1515
State:	  3.830   1.718 -17.804  -0.673  0.631  0.385 112.582    117.45  121.29   62.26  -40.21  -23.79  172.49  144.52 -112.43 -142.89  173.67  -61.23  170.78   20.15

DOCKED: MODEL        1
DOCKED: USER    Run = 1
DOCKED: USER    DPF = D:/Protein_go_brrr/autodock/final/AncB/heme/dock.dpf
DOCKED: USER  
DOCKED: USER    Estimated Free Energy of Binding    =   -5.70 kcal/mol  [=(1)+(2)+(3)-(4)]
DOCKED: USER    Estimated Inhibition Constant, Ki   =   66.01 uM (micromolar)  [Temperature = 298.15 K]
DOCKED: USER    
DOCKED: USER    (1) Final Intermolecular Energy     =   -9.58 kcal/mol
DOCKED: USER        vdW + Hbond + desolv Energy     =   -9.16 kcal/mol
DOCKED: USER        Electrostatic Energy            =   -0.42 kcal/mol
DOCKED: USER    (2) Final Total Internal Energy     =   -1.66 kcal/mol
DOCKED: USER    (3) Torsional Free Energy           =   +3.88 kcal/mol
DOCKED: USER    (4) Unbound System's Energy  [=(2)] =   -1.66 kcal/mol
DOCKED: USER    
DOCKED: USER    
DOCKED: USER    NEWDPF move heme_opt.pdbqt
DOCKED: USER    NEWDPF about 0.153000 0.018000 -0.028000
DOCKED: USER    NEWDPF tran0 3.829718 1.717511 -17.803874
DOCKED: USER    NEWDPF quaternion0 -0.560085 0.525157 0.320183 0.554976
DOCKED: USER    NEWDPF axisangle0 -0.673287 0.631300 0.384897 112.581833
DOCKED: USER    NEWDPF quat0 -0.673287 0.631300 0.384897 112.581833
DOCKED: USER    NEWDPF dihe0 117.45 121.29 62.26 -40.21 -23.79 172.49 144.52 -112.43 -142.89 173.67 -61.23 170.78 20.15 
DOCKED: USER  keepresnum = 1 
DOCKED: USER  
DOCKED: REMARK  13 active torsions:
DOCKED: REMARK  status: ('A' for Active; 'I' for Inactive)
DOCKED: REMARK    1  A    between atoms: O_3  and  C_38 
DOCKED: REMARK    2  A    between atoms: O_4  and  C_40 
DOCKED: REMARK    3  A    between atoms: O_7  and  C_46 
DOCKED: REMARK    4  A    between atoms: O_9  and  C_48 
DOCKED: REMARK    5  A    between atoms: C_15  and  C_20 
DOCKED: REMARK    6  A    between atoms: C_16  and  C_23 
DOCKED: REMARK    7  A    between atoms: C_20  and  C_38 
DOCKED: REMARK    8  A    between atoms: C_23  and  C_40 
DOCKED: REMARK    9  A    between atoms: C_32  and  C_41 
DOCKED: REMARK   10  A    between atoms: C_37  and  C_45 
DOCKED: REMARK   11  A    between atoms: C_41  and  C_44 
DOCKED: REMARK   12  A    between atoms: C_44  and  C_46 
DOCKED: REMARK   13  A    between atoms: C_47  and  C_48 
DOCKED: USER                              x       y       z     vdW  Elec       q    Type
DOCKED: USER                           _______ _______ _______ _____ _____    ______ ____
DOCKED: ROOT
DOCKED: ATOM      1  O   UNL d   1       1.461   7.110 -17.560 -0.12 -0.24    -0.289 OA
DOCKED: ATOM      2  O   UNL d   1       5.798   3.863 -22.759 -0.02 -0.11    -0.289 OA
DOCKED: ATOM      3  N   UNL d   1       2.741   3.928 -17.203 -0.13 -0.13    -0.247 NA
DOCKED: ATOM      4  N   UNL d   1       4.035   3.413 -19.827 -0.03 -0.13    -0.247 NA
DOCKED: ATOM      5  N   UNL d   1       4.197   0.637 -19.099 -0.04 -0.15    -0.354 N 
DOCKED: ATOM      6  N   UNL d   1       2.836   1.176 -16.386 -0.04 -0.16    -0.354 N 
DOCKED: ATOM      7  C   UNL d   1       1.172   5.314 -15.928 -0.19 +0.06    +0.084 A 
DOCKED: ATOM      8  C   UNL d   1       4.797   5.356 -21.098 -0.13 +0.07    +0.084 A 
DOCKED: ATOM      9  C   UNL d   1       4.057   4.789 -19.882 -0.16 +0.04    +0.058 A 
DOCKED: ATOM     10  C   UNL d   1       1.918   3.986 -16.090 -0.16 +0.03    +0.058 A 
DOCKED: ATOM     11  C   UNL d   1       1.734   6.003 -17.135 -0.15 +0.15    +0.193 A 
DOCKED: ATOM     12  C   UNL d   1       2.691   5.069 -17.809 -0.21 +0.08    +0.109 A 
DOCKED: ATOM     13  C   UNL d   1       5.158   4.048 -21.743 -0.05 +0.10    +0.193 A 
DOCKED: ATOM     14  C   UNL d   1      -0.339   5.150 -16.109 -0.15 +0.03    +0.026 C 
DOCKED: ATOM     15  C   UNL d   1       3.442   5.568 -18.979 -0.26 +0.05    +0.055 C 
DOCKED: ATOM     16  C   UNL d   1       6.086   6.078 -20.692 -0.17 +0.03    +0.026 C 
DOCKED: ATOM     17  C   UNL d   1       4.632   2.949 -20.878 -0.05 +0.05    +0.109 A 
DOCKED: ATOM     18  C   UNL d   1       1.830   3.013 -15.165 -0.19 +0.03    +0.050 C 
DOCKED: ATOM     19  C   UNL d   1       2.546   1.789 -15.188 -0.22 +0.02    +0.045 A 
DOCKED: ATOM     20  C   UNL d   1       4.560   0.556 -20.418 -0.05 +0.02    +0.045 A 
DOCKED: ATOM     21  C   UNL d   1       4.800   1.546 -21.283 -0.05 +0.02    +0.057 C 
DOCKED: ATOM     22  C   UNL d   1       4.330  -1.559 -19.584 -0.01 -0.01    -0.019 A 
DOCKED: ATOM     23  C   UNL d   1       4.034  -0.589 -18.510 -0.05 +0.02    +0.045 A 
DOCKED: ATOM     24  C   UNL d   1       4.641  -0.875 -20.711 -0.01 -0.01    -0.022 A 
DOCKED: ATOM     25  C   UNL d   1       3.452  -0.035 -16.173 -0.14 +0.02    +0.049 A 
DOCKED: ATOM     26  C   UNL d   1       3.018   0.972 -14.171 -0.32 -0.01    -0.018 A 
DOCKED: ATOM     27  C   UNL d   1       3.606  -0.168 -14.800 -0.26 +0.00    +0.003 A 
DOCKED: ATOM     28  C   UNL d   1       3.708  -0.923 -17.253 -0.10 +0.02    +0.052 C 
DOCKED: ATOM     29  C   UNL d   1       5.022  -1.408 -22.050 -0.00 +0.01    +0.046 C 
DOCKED: ATOM     30  C   UNL d   1       2.931   1.235 -12.706 -0.35 +0.01    +0.046 C 
DOCKED: ATOM     31  H   UNL d   1       4.145   1.530 -18.621 +0.04 +0.09    +0.166 HD
DOCKED: ATOM     32  H   UNL d   1       2.585   1.562 -17.288 +0.04 +0.08    +0.166 HD
DOCKED: ENDROOT
DOCKED: BRANCH   7  33
DOCKED: ATOM     33  C   UNL d   1       1.504   6.102 -14.656 -0.33 +0.10    +0.141 C 
DOCKED: BRANCH  33  34
DOCKED: ATOM     34  C   UNL d   1       0.531   5.837 -13.540 -0.36 +0.26    +0.306 C 
DOCKED: ATOM     35  O   UNL d   1      -0.078   4.799 -13.346 -0.97 -0.32    -0.251 OA
DOCKED: BRANCH  34  36
DOCKED: ATOM     36  O   UNL d   1       0.378   6.895 -12.723 -0.30 -0.30    -0.481 OA
DOCKED: ATOM     37  H   UNL d   1       1.256   7.009 -12.300 -0.37 +0.07    +0.295 HD
DOCKED: ENDBRANCH  34  36
DOCKED: ENDBRANCH  33  34
DOCKED: ENDBRANCH   7  33
DOCKED: BRANCH  27  38
DOCKED: ATOM     38  C   UNL d   1       4.203  -1.273 -14.112 -0.33 +0.00    +0.017 C 
DOCKED: ATOM     39  C   UNL d   1       3.875  -1.685 -12.877 -0.42 +0.02    +0.092 C 
DOCKED: BRANCH  39  40
DOCKED: ATOM     40  C   UNL d   1       4.553  -2.845 -12.291 -0.31 +0.08    +0.330 C 
DOCKED: ATOM     41  O   UNL d   1       4.488  -3.242 -11.143 -0.40 -0.07    -0.246 OA
DOCKED: BRANCH  40  42
DOCKED: ATOM     42  O   UNL d   1       5.293  -3.467 -13.222 -0.26 -0.08    -0.477 OA
DOCKED: ATOM     43  H   UNL d   1       4.644  -3.713 -13.912 +0.17 +0.06    +0.295 HD
DOCKED: ENDBRANCH  40  42
DOCKED: ENDBRANCH  39  40
DOCKED: ENDBRANCH  27  38
DOCKED: BRANCH   8  44
DOCKED: ATOM     44  C   UNL d   1       3.953   6.219 -22.042 -0.05 +0.09    +0.141 C 
DOCKED: BRANCH  44  45
DOCKED: ATOM     45  C   UNL d   1       4.521   7.596 -22.256 -0.04 +0.26    +0.306 C 
DOCKED: ATOM     46  O   UNL d   1       5.167   7.975 -23.217 -0.02 -0.14    -0.251 OA
DOCKED: BRANCH  45  47
DOCKED: ATOM     47  O   UNL d   1       4.266   8.424 -21.226 -0.59 -0.79    -0.481 OA
DOCKED: ATOM     48  H   UNL d   1       3.730   9.147 -21.616 +0.02 +0.30    +0.295 HD
DOCKED: ENDBRANCH  45  47
DOCKED: ENDBRANCH  44  45
DOCKED: ENDBRANCH   8  44
DOCKED: BRANCH  22  49
DOCKED: ATOM     49  C   UNL d   1       4.266  -3.048 -19.415 -0.03 +0.01    +0.048 C 
DOCKED: BRANCH  49  50
DOCKED: ATOM     50  C   UNL d   1       5.289  -3.550 -18.397 -0.05 +0.02    +0.125 C 
DOCKED: BRANCH  50  51
DOCKED: ATOM     51  C   UNL d   1       4.609  -4.240 -17.248 -0.12 +0.05    +0.305 C 
DOCKED: ATOM     52  O   UNL d   1       4.634  -3.925 -16.072 -0.18 -0.04    -0.251 OA
DOCKED: BRANCH  51  53
DOCKED: ATOM     53  O   UNL d   1       3.922  -5.328 -17.649 -0.10 -0.03    -0.481 OA
DOCKED: ATOM     54  H   UNL d   1       4.101  -5.993 -16.951 -0.36 -0.06    +0.295 HD
DOCKED: ENDBRANCH  51  53
DOCKED: ENDBRANCH  50  51
DOCKED: ENDBRANCH  49  50
DOCKED: ENDBRANCH  22  49
DOCKED: TORSDOF 13
DOCKED: TER
DOCKED: ENDMDL
________________________________________________________________________________


	BEGINNING GENETIC ALGORITHM DOCKING 2 of 100
Run: 2 Seed: 296250791 1623507724 [ Run 2 of 100 GA/GALS ]
Beginning LAMARCKIAN GENETIC ALGORITHM (LGA), with a maximum of 25000000 energy evaluations.

Final-Value: -11.528


	FINAL GENETIC ALGORITHM DOCKED STATE
	_______________________________________________


Detailed state:  trans -16.284 3.979 9.474 quatxyzw 0.419947 0.574064 -0.141610 0.688506 center 0.153 0.018 -0.028 ntor 13 108.0404 77.6837 141.3608 90.5609 174.3141 -38.4346 -39.7290 96.1478 -13.1542 -140.7257 138.3222 -179.4239 -175.3963
State:	-16.284   3.979   9.474   0.579  0.792 -0.195 92.976    108.04   77.68  141.36   90.56  174.31  -38.43  -39.73   96.15  -13.15 -140.73  138.32 -179.42 -175.40

DOCKED: MODEL        2
DOCKED: USER    Run = 2
DOCKED: USER    DPF = D:/Protein_go_brrr/autodock/final/AncB/heme/dock.dpf
DOCKED: USER  
DOCKED: USER    Estimated Free Energy of Binding    =   -5.38 kcal/mol  [=(1)+(2)+(3)-(4)]
DOCKED: USER    Estimated Inhibition Constant, Ki   =  113.35 uM (micromolar)  [Temperature = 298.15 K]
DOCKED: USER    
DOCKED: USER    (1) Final Intermolecular Energy     =   -9.26 kcal/mol
DOCKED: USER        vdW + Hbond + desolv Energy     =   -9.01 kcal/mol
DOCKED: USER        Electrostatic Energy            =   -0.26 kcal/mol
DOCKED: USER    (2) Final Total Internal Energy     =   -2.27 kcal/mol
DOCKED: USER    (3) Torsional Free Energy           =   +3.88 kcal/mol
DOCKED: USER    (4) Unbound System's Energy  [=(2)] =   -2.27 kcal/mol
DOCKED: USER    
DOCKED: USER    
DOCKED: USER    NEWDPF move heme_opt.pdbqt
DOCKED: USER    NEWDPF about 0.153000 0.018000 -0.028000
DOCKED: USER    NEWDPF tran0 -16.283977 3.978773 9.473556
DOCKED: USER    NEWDPF quaternion0 0.419947 0.574064 -0.141610 0.688506
DOCKED: USER    NEWDPF axisangle0 0.579053 0.791562 -0.195262 92.976010
DOCKED: USER    NEWDPF quat0 0.579053 0.791562 -0.195262 92.976010
DOCKED: USER    NEWDPF dihe0 108.04 77.68 141.36 90.56 174.31 -38.43 -39.73 96.15 -13.15 -140.73 138.32 -179.42 -175.40 
DOCKED: USER  keepresnum = 1 
DOCKED: USER  
DOCKED: REMARK  13 active torsions:
DOCKED: REMARK  status: ('A' for Active; 'I' for Inactive)
DOCKED: REMARK    1  A    between atoms: O_3  and  C_38 
DOCKED: REMARK    2  A    between atoms: O_4  and  C_40 
DOCKED: REMARK    3  A    between atoms: O_7  and  C_46 
DOCKED: REMARK    4  A    between atoms: O_9  and  C_48 
DOCKED: REMARK    5  A    between atoms: C_15  and  C_20 
DOCKED: REMARK    6  A    between atoms: C_16  and  C_23 
DOCKED: REMARK    7  A    between atoms: C_20  and  C_38 
DOCKED: REMARK    8  A    between atoms: C_23  and  C_40 
DOCKED: REMARK    9  A    between atoms: C_32  and  C_41 
DOCKED: REMARK   10  A    between atoms: C_37  and  C_45 
DOCKED: REMARK   11  A    between atoms: C_41  and  C_44 
DOCKED: REMARK   12  A    between atoms: C_44  and  C_46 
DOCKED: REMARK   13  A    between atoms: C_47  and  C_48 
DOCKED: USER                              x       y       z     vdW  Elec       q    Type
DOCKED: USER                           _______ _______ _______ _____ _____    ______ ____
DOCKED: ROOT
DOCKED: ATOM      1  O   UNL d   1     -18.076   1.474   4.446 -0.12 -0.03    -0.289 OA
DOCKED: ATOM      2  O   UNL d   1     -17.039  -1.419  11.298 +0.03 -0.11    -0.289 OA
DOCKED: ATOM      3  N   UNL d   1     -16.867   3.326   7.093 -0.07 -0.02    -0.247 NA
DOCKED: ATOM      4  N   UNL d   1     -17.089   1.457   9.392 -0.10 -0.01    -0.247 NA
DOCKED: ATOM      5  N   UNL d   1     -16.647   3.699  11.138 -0.08 +0.03    -0.354 N 
DOCKED: ATOM      6  N   UNL d   1     -16.437   5.634   8.747 -0.08 -0.02    -0.354 N 
DOCKED: ATOM      7  C   UNL d   1     -17.543   3.834   4.792 -0.09 +0.01    +0.084 A 
DOCKED: ATOM      8  C   UNL d   1     -17.027  -0.935   8.899 -0.20 +0.02    +0.084 A 
DOCKED: ATOM      9  C   UNL d   1     -17.064   0.511   8.393 -0.16 +0.01    +0.058 A 
DOCKED: ATOM     10  C   UNL d   1     -17.013   4.324   6.144 -0.11 +0.01    +0.058 A 
DOCKED: ATOM     11  C   UNL d   1     -17.652   2.380   5.140 -0.11 +0.02    +0.193 A 
DOCKED: ATOM     12  C   UNL d   1     -17.189   2.196   6.552 -0.12 +0.01    +0.109 A 
DOCKED: ATOM     13  C   UNL d   1     -17.073  -0.635  10.370 -0.15 +0.04    +0.193 A 
DOCKED: ATOM     14  C   UNL d   1     -18.942   4.378   4.492 -0.05 +0.00    +0.026 C 
DOCKED: ATOM     15  C   UNL d   1     -17.121   0.822   7.088 -0.20 +0.00    +0.055 C 
DOCKED: ATOM     16  C   UNL d   1     -15.693  -1.615   8.576 -0.34 +0.01    +0.026 C 
DOCKED: ATOM     17  C   UNL d   1     -17.115   0.850  10.535 -0.20 +0.01    +0.109 A 
DOCKED: ATOM     18  C   UNL d   1     -16.645   5.605   6.332 -0.13 +0.00    +0.050 C 
DOCKED: ATOM     19  C   UNL d   1     -16.068   6.129   7.517 -0.17 +0.00    +0.045 A 
DOCKED: ATOM     20  C   UNL d   1     -17.003   2.749  12.060 -0.24 -0.00    +0.045 A 
DOCKED: ATOM     21  C   UNL d   1     -17.209   1.441  11.878 -0.27 +0.00    +0.057 C 
DOCKED: ATOM     22  C   UNL d   1     -16.830   4.770  13.111 -0.22 -0.00    -0.019 A 
DOCKED: ATOM     23  C   UNL d   1     -16.519   4.951  11.678 -0.20 +0.00    +0.045 A 
DOCKED: ATOM     24  C   UNL d   1     -17.114   3.465  13.330 -0.22 -0.00    -0.022 A 
DOCKED: ATOM     25  C   UNL d   1     -15.827   6.343   9.756 -0.21 +0.00    +0.049 A 
DOCKED: ATOM     26  C   UNL d   1     -15.167   7.160   7.731 -0.24 -0.00    -0.018 A 
DOCKED: ATOM     27  C   UNL d   1     -15.004   7.278   9.146 -0.27 +0.00    +0.003 A 
DOCKED: ATOM     28  C   UNL d   1     -16.174   6.119  11.117 -0.24 +0.00    +0.052 C 
DOCKED: ATOM     29  C   UNL d   1     -17.475   2.791  14.610 -0.23 +0.00    +0.046 C 
DOCKED: ATOM     30  C   UNL d   1     -14.495   7.986   6.686 -0.23 +0.00    +0.046 C 
DOCKED: ATOM     31  H   UNL d   1     -16.430   3.447  10.180 -0.27 -0.03    +0.166 HD
DOCKED: ATOM     32  H   UNL d   1     -17.101   4.878   8.871 +0.03 +0.01    +0.166 HD
DOCKED: ENDROOT
DOCKED: BRANCH   7  33
DOCKED: ATOM     33  C   UNL d   1     -16.595   4.033   3.604 -0.18 +0.03    +0.141 C 
DOCKED: BRANCH  33  34
DOCKED: ATOM     34  C   UNL d   1     -15.148   3.875   3.985 -0.24 +0.05    +0.306 C 
DOCKED: ATOM     35  O   UNL d   1     -14.241   4.640   3.703 -0.26 -0.04    -0.251 OA
DOCKED: BRANCH  34  36
DOCKED: ATOM     36  O   UNL d   1     -14.920   2.762   4.705 -0.18 -0.05    -0.481 OA
DOCKED: ATOM     37  H   UNL d   1     -15.276   2.967   5.595 +0.16 +0.04    +0.295 HD
DOCKED: ENDBRANCH  34  36
DOCKED: ENDBRANCH  33  34
DOCKED: ENDBRANCH   7  33
DOCKED: BRANCH  27  38
DOCKED: ATOM     38  C   UNL d   1     -14.167   8.236   9.803 -0.28 +0.00    +0.017 C 
DOCKED: ATOM     39  C   UNL d   1     -13.984   9.505   9.407 -0.34 +0.01    +0.092 C 
DOCKED: BRANCH  39  40
DOCKED: ATOM     40  C   UNL d   1     -13.112  10.393  10.181 -0.24 +0.05    +0.330 C 
DOCKED: ATOM     41  O   UNL d   1     -13.023  10.478  11.391 -0.25 -0.08    -0.246 OA
DOCKED: BRANCH  40  42
DOCKED: ATOM     42  O   UNL d   1     -12.368  11.144   9.355 -0.23 -0.06    -0.477 OA
DOCKED: ATOM     43  H   UNL d   1     -11.489  10.714   9.374 -0.40 -0.01    +0.295 HD
DOCKED: ENDBRANCH  40  42
DOCKED: ENDBRANCH  39  40
DOCKED: ENDBRANCH  27  38
DOCKED: BRANCH   8  44
DOCKED: ATOM     44  C   UNL d   1     -18.212  -1.812   8.481 -0.11 +0.04    +0.141 C 
DOCKED: BRANCH  44  45
DOCKED: ATOM     45  C   UNL d   1     -18.009  -3.272   8.788 -0.09 +0.20    +0.306 C 
DOCKED: ATOM     46  O   UNL d   1     -17.413  -4.083   8.102 -0.79 -0.16    -0.251 OA
DOCKED: BRANCH  45  47
DOCKED: ATOM     47  O   UNL d   1     -18.596  -3.641   9.941 -0.18 -0.43    -0.481 OA
DOCKED: ATOM     48  H   UNL d   1     -18.437  -2.890  10.552 +0.07 +0.19    +0.295 HD
DOCKED: ENDBRANCH  45  47
DOCKED: ENDBRANCH  44  45
DOCKED: ENDBRANCH   8  44
DOCKED: BRANCH  22  49
DOCKED: ATOM     49  C   UNL d   1     -16.836   5.882  14.118 -0.16 +0.01    +0.048 C 
DOCKED: BRANCH  49  50
DOCKED: ATOM     50  C   UNL d   1     -18.254   6.358  14.433 -0.07 +0.01    +0.125 C 
DOCKED: BRANCH  50  51
DOCKED: ATOM     51  C   UNL d   1     -19.086   6.425  13.184 -0.00 +0.01    +0.305 C 
DOCKED: ATOM     52  O   UNL d   1     -19.774   5.543  12.701 -0.00 -0.01    -0.251 OA
DOCKED: BRANCH  51  53
DOCKED: ATOM     53  O   UNL d   1     -18.999   7.629  12.584 +0.01 -0.02    -0.481 OA
DOCKED: ATOM     54  H   UNL d   1     -19.722   8.151  12.990 +0.01 +0.01    +0.295 HD
DOCKED: ENDBRANCH  51  53
DOCKED: ENDBRANCH  50  51
DOCKED: ENDBRANCH  49  50
DOCKED: ENDBRANCH  22  49
DOCKED: TORSDOF 13
DOCKED: TER
DOCKED: ENDMDL
________________________________________________________________________________


	BEGINNING GENETIC ALGORITHM DOCKING 3 of 100
Run: 3 Seed: 296733725 2079382569 [ Run 3 of 100 GA/GALS ]
Beginning LAMARCKIAN GENETIC ALGORITHM (LGA), with a maximum of 25000000 energy evaluations.

Final-Value: -11.934


	FINAL GENETIC ALGORITHM DOCKED STATE
	_______________________________________________


Detailed state:  trans 5.500 -14.495 -0.589 quatxyzw -0.695314 -0.530884 -0.236370 -0.422883 center 0.153 0.018 -0.028 ntor 13 -99.8137 125.4686 117.5740 8.9370 28.6203 147.0855 -55.9827 -57.3454 142.4152 -132.7879 98.5686 -157.7225 -149.9040
State:	  5.500 -14.495  -0.589  -0.767 -0.586 -0.261 -129.967    -99.81  125.47  117.57    8.94   28.62  147.09  -55.98  -57.35  142.42 -132.79   98.57 -157.72 -149.90

DOCKED: MODEL        3
DOCKED: USER    Run = 3
DOCKED: USER    DPF = D:/Protein_go_brrr/autodock/final/AncB/heme/dock.dpf
DOCKED: USER  
DOCKED: USER    Estimated Free Energy of Binding    =   -5.84 kcal/mol  [=(1)+(2)+(3)-(4)]
DOCKED: USER    Estimated Inhibition Constant, Ki   =   52.29 uM (micromolar)  [Temperature = 298.15 K]
DOCKED: USER    
DOCKED: USER    (1) Final Intermolecular Energy     =   -9.72 kcal/mol
DOCKED: USER        vdW + Hbond + desolv Energy     =   -9.17 kcal/mol
DOCKED: USER        Electrostatic Energy            =   -0.54 kcal/mol
DOCKED: USER    (2) Final Total Internal Energy     =   -2.21 kcal/mol
DOCKED: USER    (3) Torsional Free Energy           =   +3.88 kcal/mol
DOCKED: USER    (4) Unbound System's Energy  [=(2)] =   -2.21 kcal/mol
DOCKED: USER    
DOCKED: USER    
DOCKED: USER    NEWDPF move heme_opt.pdbqt
DOCKED: USER    NEWDPF about 0.153000 0.018000 -0.028000
DOCKED: USER    NEWDPF tran0 5.500303 -14.494940 -0.588500
DOCKED: USER    NEWDPF quaternion0 -0.695314 -0.530884 -0.236370 -0.422883
DOCKED: USER    NEWDPF axisangle0 -0.767298 -0.585845 -0.260841 -129.966565
DOCKED: USER    NEWDPF quat0 -0.767298 -0.585845 -0.260841 -129.966565
DOCKED: USER    NEWDPF dihe0 -99.81 125.47 117.57 8.94 28.62 147.09 -55.98 -57.35 142.42 -132.79 98.57 -157.72 -149.90 
DOCKED: USER  keepresnum = 1 
DOCKED: USER  
DOCKED: REMARK  13 active torsions:
DOCKED: REMARK  status: ('A' for Active; 'I' for Inactive)
DOCKED: REMARK    1  A    between atoms: O_3  and  C_38 
DOCKED: REMARK    2  A    between atoms: O_4  and  C_40 
DOCKED: REMARK    3  A    between atoms: O_7  and  C_46 
DOCKED: REMARK    4  A    between atoms: O_9  and  C_48 
DOCKED: REMARK    5  A    between atoms: C_15  and  C_20 
DOCKED: REMARK    6  A    between atoms: C_16  and  C_23 
DOCKED: REMARK    7  A    between atoms: C_20  and  C_38 
DOCKED: REMARK    8  A    between atoms: C_23  and  C_40 
DOCKED: REMARK    9  A    between atoms: C_32  and  C_41 
DOCKED: REMARK   10  A    between atoms: C_37  and  C_45 
DOCKED: REMARK   11  A    between atoms: C_41  and  C_44 
DOCKED: REMARK   12  A    between atoms: C_44  and  C_46 
DOCKED: REMARK   13  A    between atoms: C_47  and  C_48 
DOCKED: USER                              x       y       z     vdW  Elec       q    Type
DOCKED: USER                           _______ _______ _______ _____ _____    ______ ____
DOCKED: ROOT
DOCKED: ATOM      1  O   UNL d   1       5.186 -17.105  -5.865 -0.27 +0.27    -0.289 OA
DOCKED: ATOM      2  O   UNL d   1       0.281 -16.869  -0.183 -0.12 -0.05    -0.289 OA
DOCKED: ATOM      3  N   UNL d   1       5.872 -15.542  -2.869 -0.10 +0.04    -0.247 NA
DOCKED: ATOM      4  N   UNL d   1       3.291 -15.704  -1.406 -0.15 +0.00    -0.247 NA
DOCKED: ATOM      5  N   UNL d   1       4.329 -13.773   0.454 -0.08 -0.01    -0.354 N 
DOCKED: ATOM      6  N   UNL d   1       6.997 -13.595  -1.081 -0.05 +0.10    -0.354 N 
DOCKED: ATOM      7  C   UNL d   1       7.021 -15.725  -5.026 -0.18 -0.03    +0.084 A 
DOCKED: ATOM      8  C   UNL d   1       1.786 -17.538  -1.995 -0.21 -0.01    +0.084 A 
DOCKED: ATOM      9  C   UNL d   1       3.078 -16.759  -2.265 -0.24 -0.01    +0.058 A 
DOCKED: ATOM     10  C   UNL d   1       6.992 -15.175  -3.597 -0.08 -0.01    +0.058 A 
DOCKED: ATOM     11  C   UNL d   1       5.728 -16.482  -4.971 -0.22 -0.08    +0.193 A 
DOCKED: ATOM     12  C   UNL d   1       5.141 -16.314  -3.604 -0.21 -0.02    +0.109 A 
DOCKED: ATOM     13  C   UNL d   1       1.287 -16.706  -0.847 -0.14 +0.01    +0.193 A 
DOCKED: ATOM     14  C   UNL d   1       6.899 -14.613  -6.072 -0.28 -0.01    +0.026 C 
DOCKED: ATOM     15  C   UNL d   1       3.902 -17.052  -3.283 -0.28 -0.01    +0.055 C 
DOCKED: ATOM     16  C   UNL d   1       2.072 -18.954  -1.488 -0.10 -0.00    +0.026 C 
DOCKED: ATOM     17  C   UNL d   1       2.286 -15.624  -0.595 -0.18 +0.01    +0.109 A 
DOCKED: ATOM     18  C   UNL d   1       8.025 -14.475  -3.092 -0.15 -0.02    +0.050 C 
DOCKED: ATOM     19  C   UNL d   1       8.124 -14.001  -1.759 -0.18 -0.02    +0.045 A 
DOCKED: ATOM     20  C   UNL d   1       3.019 -13.805   0.854 -0.15 +0.01    +0.045 A 
DOCKED: ATOM     21  C   UNL d   1       2.039 -14.621   0.452 -0.09 +0.01    +0.057 C 
DOCKED: ATOM     22  C   UNL d   1       4.095 -12.137   1.984 -0.21 +0.00    -0.019 A 
DOCKED: ATOM     23  C   UNL d   1       5.058 -12.798   1.080 -0.22 -0.01    +0.045 A 
DOCKED: ATOM     24  C   UNL d   1       2.890 -12.738   1.846 -0.21 -0.00    -0.022 A 
DOCKED: ATOM     25  C   UNL d   1       7.331 -13.091   0.154 -0.24 -0.02    +0.049 A 
DOCKED: ATOM     26  C   UNL d   1       9.214 -13.789  -0.930 -0.15 +0.01    -0.018 A 
DOCKED: ATOM     27  C   UNL d   1       8.706 -13.232   0.284 -0.19 -0.00    +0.003 A 
DOCKED: ATOM     28  C   UNL d   1       6.354 -12.466   0.976 -0.29 -0.03    +0.052 C 
DOCKED: ATOM     29  C   UNL d   1       1.611 -12.437   2.551 -0.32 +0.01    +0.046 C 
DOCKED: ATOM     30  C   UNL d   1      10.642 -14.086  -1.243 -0.09 -0.02    +0.046 C 
DOCKED: ATOM     31  H   UNL d   1       4.702 -14.469  -0.183 +0.06 -0.00    +0.166 HD
DOCKED: ATOM     32  H   UNL d   1       6.063 -13.634  -1.472 +0.09 -0.02    +0.166 HD
DOCKED: ENDROOT
DOCKED: BRANCH   7  33
DOCKED: ATOM     33  C   UNL d   1       8.184 -16.670  -5.344 -0.08 -0.05    +0.141 C 
DOCKED: BRANCH  33  34
DOCKED: ATOM     34  C   UNL d   1       8.295 -16.980  -6.812 -0.05 -0.17    +0.306 C 
DOCKED: ATOM     35  O   UNL d   1       8.842 -16.290  -7.655 -0.03 +0.09    -0.251 OA
DOCKED: BRANCH  34  36
DOCKED: ATOM     36  O   UNL d   1       7.712 -18.147  -7.140 -0.03 +0.55    -0.481 OA
DOCKED: ATOM     37  H   UNL d   1       6.752 -17.946  -7.160 -0.38 -0.62    +0.295 HD
DOCKED: ENDBRANCH  34  36
DOCKED: ENDBRANCH  33  34
DOCKED: ENDBRANCH   7  33
DOCKED: BRANCH  27  38
DOCKED: ATOM     38  C   UNL d   1       9.500 -12.846   1.411 -0.16 -0.01    +0.017 C 
DOCKED: ATOM     39  C   UNL d   1      10.487 -11.937   1.389 -0.08 -0.06    +0.092 C 
DOCKED: BRANCH  39  40
DOCKED: ATOM     40  C   UNL d   1      11.215 -11.619   2.620 -0.05 -0.19    +0.330 C 
DOCKED: ATOM     41  O   UNL d   1      12.392 -11.337   2.736 -0.07 +0.08    -0.246 OA
DOCKED: BRANCH  40  42
DOCKED: ATOM     42  O   UNL d   1      10.384 -11.667   3.673 -0.07 +0.36    -0.477 OA
DOCKED: ATOM     43  H   UNL d   1       9.657 -11.058   3.426 -0.03 -0.50    +0.295 HD
DOCKED: ENDBRANCH  40  42
DOCKED: ENDBRANCH  39  40
DOCKED: ENDBRANCH  27  38
DOCKED: BRANCH   8  44
DOCKED: ATOM     44  C   UNL d   1       0.772 -17.554  -3.143 -0.23 -0.04    +0.141 C 
DOCKED: BRANCH  44  45
DOCKED: ATOM     45  C   UNL d   1      -0.451 -18.380  -2.845 -0.21 -0.03    +0.306 C 
DOCKED: ATOM     46  O   UNL d   1      -0.671 -19.515  -3.227 -0.15 +0.02    -0.251 OA
DOCKED: BRANCH  45  47
DOCKED: ATOM     47  O   UNL d   1      -1.350 -17.715  -2.097 -0.14 -0.07    -0.481 OA
DOCKED: ATOM     48  H   UNL d   1      -0.890 -17.545  -1.248 +0.12 +0.06    +0.295 HD
DOCKED: ENDBRANCH  45  47
DOCKED: ENDBRANCH  44  45
DOCKED: ENDBRANCH   8  44
DOCKED: BRANCH  22  49
DOCKED: ATOM     49  C   UNL d   1       4.435 -10.980   2.878 -0.28 -0.01    +0.048 C 
DOCKED: BRANCH  49  50
DOCKED: ATOM     50  C   UNL d   1       3.486  -9.801   2.669 -0.39 -0.00    +0.125 C 
DOCKED: BRANCH  50  51
DOCKED: ATOM     51  C   UNL d   1       3.882  -9.001   1.460 -0.38 -0.05    +0.305 C 
DOCKED: ATOM     52  O   UNL d   1       4.914  -8.376   1.288 -0.71 +0.08    -0.251 OA
DOCKED: BRANCH  51  53
DOCKED: ATOM     53  O   UNL d   1       2.927  -9.018   0.509 -0.32 +0.06    -0.481 OA
DOCKED: ATOM     54  H   UNL d   1       3.352  -8.591  -0.264 -0.25 -0.12    +0.295 HD
DOCKED: ENDBRANCH  51  53
DOCKED: ENDBRANCH  50  51
DOCKED: ENDBRANCH  49  50
DOCKED: ENDBRANCH  22  49
DOCKED: TORSDOF 13
DOCKED: TER
DOCKED: ENDMDL
________________________________________________________________________________


	BEGINNING GENETIC ALGORITHM DOCKING 4 of 100
Run: 4 Seed: 1181075937 1961460191 [ Run 4 of 100 GA/GALS ]
Beginning LAMARCKIAN GENETIC ALGORITHM (LGA), with a maximum of 25000000 energy evaluations.

Final-Value: -12.847


	FINAL GENETIC ALGORITHM DOCKED STATE
	_______________________________________________


Detailed state:  trans -5.491 -11.159 13.474 quatxyzw -0.616933 0.558911 0.552516 0.041692 center 0.153 0.018 -0.028 ntor 13 177.0863 178.3265 87.3856 151.8035 -151.0749 -62.0328 -44.5936 25.4259 13.7168 -115.7978 1.2430 -15.1445 35.1703
State:	 -5.491 -11.159  13.474  -0.617  0.559  0.553 175.221    177.09  178.33   87.39  151.80 -151.07  -62.03  -44.59   25.43   13.72 -115.80    1.24  -15.14   35.17

DOCKED: MODEL        4
DOCKED: USER    Run = 4
DOCKED: USER    DPF = D:/Protein_go_brrr/autodock/final/AncB/heme/dock.dpf
DOCKED: USER  
DOCKED: USER    Estimated Free Energy of Binding    =   -5.38 kcal/mol  [=(1)+(2)+(3)-(4)]
DOCKED: USER    Estimated Inhibition Constant, Ki   =  113.11 uM (micromolar)  [Temperature = 298.15 K]
DOCKED: USER    
DOCKED: USER    (1) Final Intermolecular Energy     =   -9.26 kcal/mol
DOCKED: USER        vdW + Hbond + desolv Energy     =   -8.48 kcal/mol
DOCKED: USER        Electrostatic Energy            =   -0.78 kcal/mol
DOCKED: USER    (2) Final Total Internal Energy     =   -3.59 kcal/mol
DOCKED: USER    (3) Torsional Free Energy           =   +3.88 kcal/mol
DOCKED: USER    (4) Unbound System's Energy  [=(2)] =   -3.59 kcal/mol
DOCKED: USER    
DOCKED: USER    
DOCKED: USER    NEWDPF move heme_opt.pdbqt
DOCKED: USER    NEWDPF about 0.153000 0.018000 -0.028000
DOCKED: USER    NEWDPF tran0 -5.490960 -11.159024 13.473633
DOCKED: USER    NEWDPF quaternion0 -0.616933 0.558911 0.552516 0.041692
DOCKED: USER    NEWDPF axisangle0 -0.617470 0.559397 0.552997 175.221053
DOCKED: USER    NEWDPF quat0 -0.617470 0.559397 0.552997 175.221053
DOCKED: USER    NEWDPF dihe0 177.09 178.33 87.39 151.80 -151.07 -62.03 -44.59 25.43 13.72 -115.80 1.24 -15.14 35.17 
DOCKED: USER  keepresnum = 1 
DOCKED: USER  
DOCKED: REMARK  13 active torsions:
DOCKED: REMARK  status: ('A' for Active; 'I' for Inactive)
DOCKED: REMARK    1  A    between atoms: O_3  and  C_38 
DOCKED: REMARK    2  A    between atoms: O_4  and  C_40 
DOCKED: REMARK    3  A    between atoms: O_7  and  C_46 
DOCKED: REMARK    4  A    between atoms: O_9  and  C_48 
DOCKED: REMARK    5  A    between atoms: C_15  and  C_20 
DOCKED: REMARK    6  A    between atoms: C_16  and  C_23 
DOCKED: REMARK    7  A    between atoms: C_20  and  C_38 
DOCKED: REMARK    8  A    between atoms: C_23  and  C_40 
DOCKED: REMARK    9  A    between atoms: C_32  and  C_41 
DOCKED: REMARK   10  A    between atoms: C_37  and  C_45 
DOCKED: REMARK   11  A    between atoms: C_41  and  C_44 
DOCKED: REMARK   12  A    between atoms: C_44  and  C_46 
DOCKED: REMARK   13  A    between atoms: C_47  and  C_48 
DOCKED: USER                              x       y       z     vdW  Elec       q    Type
DOCKED: USER                           _______ _______ _______ _____ _____    ______ ____
DOCKED: ROOT
DOCKED: ATOM      1  O   UNL d   1      -5.730  -7.292  17.917 -0.10 +0.07    -0.289 OA
DOCKED: ATOM      2  O   UNL d   1      -0.597  -8.297  12.528 -0.11 -0.03    -0.289 OA
DOCKED: ATOM      3  N   UNL d   1      -5.951  -9.812  15.573 -0.23 -0.20    -0.247 NA
DOCKED: ATOM      4  N   UNL d   1      -3.695  -9.230  13.729 -0.09 -0.10    -0.247 NA
DOCKED: ATOM      5  N   UNL d   1      -4.855 -11.091  11.870 -0.10 -0.17    -0.354 N 
DOCKED: ATOM      6  N   UNL d   1      -7.203 -11.675  13.781 -0.17 -0.23    -0.354 N 
DOCKED: ATOM      7  C   UNL d   1      -7.412  -8.973  17.353 -0.17 +0.02    +0.084 A 
DOCKED: ATOM      8  C   UNL d   1      -1.791  -8.002  14.645 -0.13 +0.01    +0.084 A 
DOCKED: ATOM      9  C   UNL d   1      -3.205  -8.563  14.830 -0.15 +0.01    +0.058 A 
DOCKED: ATOM     10  C   UNL d   1      -7.172  -9.962  16.209 -0.09 +0.04    +0.058 A 
DOCKED: ATOM     11  C   UNL d   1      -6.103  -8.248  17.263 -0.11 +0.01    +0.193 A 
DOCKED: ATOM     12  C   UNL d   1      -5.295  -8.867  16.164 -0.12 +0.05    +0.109 A 
DOCKED: ATOM     13  C   UNL d   1      -1.584  -8.442  13.223 -0.13 +0.03    +0.193 A 
DOCKED: ATOM     14  C   UNL d   1      -8.544  -7.992  17.035 -0.16 -0.00    +0.026 C 
DOCKED: ATOM     15  C   UNL d   1      -3.920  -8.374  15.949 -0.17 +0.01    +0.055 C 
DOCKED: ATOM     16  C   UNL d   1      -0.774  -8.722  15.536 -0.05 +0.00    +0.026 C 
DOCKED: ATOM     17  C   UNL d   1      -2.813  -9.169  12.783 -0.10 +0.03    +0.109 A 
DOCKED: ATOM     18  C   UNL d   1      -8.053 -10.942  15.930 -0.25 +0.03    +0.050 C 
DOCKED: ATOM     19  C   UNL d   1      -7.877 -11.951  14.949 -0.24 +0.02    +0.045 A 
DOCKED: ATOM     20  C   UNL d   1      -3.888 -10.535  11.074 -0.25 +0.02    +0.045 A 
DOCKED: ATOM     21  C   UNL d   1      -2.916  -9.681  11.409 -0.27 +0.02    +0.057 C 
DOCKED: ATOM     22  C   UNL d   1      -5.198 -11.905   9.798 -0.25 -0.01    -0.019 A 
DOCKED: ATOM     23  C   UNL d   1      -5.694 -11.932  11.188 -0.24 +0.02    +0.045 A 
DOCKED: ATOM     24  C   UNL d   1      -4.128 -11.077   9.737 -0.26 -0.01    -0.022 A 
DOCKED: ATOM     25  C   UNL d   1      -7.229 -12.763  12.939 -0.31 +0.03    +0.049 A 
DOCKED: ATOM     26  C   UNL d   1      -8.320 -13.263  14.880 -0.20 -0.01    -0.018 A 
DOCKED: ATOM     27  C   UNL d   1      -7.891 -13.776  13.617 -0.26 +0.00    +0.003 A 
DOCKED: ATOM     28  C   UNL d   1      -6.734 -12.668  11.610 -0.33 +0.03    +0.052 C 
DOCKED: ATOM     29  C   UNL d   1      -3.281 -10.732   8.559 -0.26 +0.01    +0.046 C 
DOCKED: ATOM     30  C   UNL d   1      -9.094 -13.997  15.923 -0.14 +0.01    +0.046 C 
DOCKED: ATOM     31  H   UNL d   1      -4.865 -10.935  12.872 +0.06 +0.08    +0.166 HD
DOCKED: ATOM     32  H   UNL d   1      -6.788 -10.774  13.573 +0.05 +0.16    +0.166 HD
DOCKED: ENDROOT
DOCKED: BRANCH   7  33
DOCKED: ATOM     33  C   UNL d   1      -7.585  -9.601  18.740 -0.05 +0.01    +0.141 C 
DOCKED: BRANCH  33  34
DOCKED: ATOM     34  C   UNL d   1      -6.368 -10.366  19.185 +0.01 +0.02    +0.306 C 
DOCKED: ATOM     35  O   UNL d   1      -6.198 -11.569  19.088 +0.00 -0.02    -0.251 OA
DOCKED: BRANCH  34  36
DOCKED: ATOM     36  O   UNL d   1      -5.428  -9.573  19.728 +0.01 -0.01    -0.481 OA
DOCKED: ATOM     37  H   UNL d   1      -5.770  -8.662  19.602 +0.03 -0.01    +0.295 HD
DOCKED: ENDBRANCH  34  36
DOCKED: ENDBRANCH  33  34
DOCKED: ENDBRANCH   7  33
DOCKED: BRANCH  27  38
DOCKED: ATOM     38  C   UNL d   1      -8.153 -15.098  13.132 -0.24 +0.01    +0.017 C 
DOCKED: ATOM     39  C   UNL d   1      -7.448 -15.727  12.180 -0.17 +0.05    +0.092 C 
DOCKED: BRANCH  39  40
DOCKED: ATOM     40  C   UNL d   1      -7.810 -17.090  11.784 -0.09 +0.23    +0.330 C 
DOCKED: ATOM     41  O   UNL d   1      -7.775 -18.097  12.466 -0.03 -0.12    -0.246 OA
DOCKED: BRANCH  40  42
DOCKED: ATOM     42  O   UNL d   1      -8.218 -17.107  10.506 -0.10 -0.75    -0.477 OA
DOCKED: ATOM     43  H   UNL d   1      -8.173 -16.168  10.233 -0.30 +0.45    +0.295 HD
DOCKED: ENDBRANCH  40  42
DOCKED: ENDBRANCH  39  40
DOCKED: ENDBRANCH  27  38
DOCKED: BRANCH   8  44
DOCKED: ATOM     44  C   UNL d   1      -1.662  -6.481  14.773 -0.24 +0.00    +0.141 C 
DOCKED: BRANCH  44  45
DOCKED: ATOM     45  C   UNL d   1      -0.354  -5.949  14.249 -0.20 -0.00    +0.306 C 
DOCKED: ATOM     46  O   UNL d   1       0.682  -5.821  14.878 -0.11 +0.01    -0.251 OA
DOCKED: BRANCH  45  47
DOCKED: ATOM     47  O   UNL d   1      -0.430  -5.578  12.958 -0.20 +0.00    -0.481 OA
DOCKED: ATOM     48  H   UNL d   1      -0.139  -6.369  12.456 +0.13 +0.01    +0.295 HD
DOCKED: ENDBRANCH  45  47
DOCKED: ENDBRANCH  44  45
DOCKED: ENDBRANCH   8  44
DOCKED: BRANCH  22  49
DOCKED: ATOM     49  C   UNL d   1      -5.818 -12.670   8.666 -0.30 +0.03    +0.048 C 
DOCKED: BRANCH  49  50
DOCKED: ATOM     50  C   UNL d   1      -6.067 -14.132   9.038 -0.23 +0.10    +0.125 C 
DOCKED: BRANCH  50  51
DOCKED: ATOM     51  C   UNL d   1      -6.641 -14.891   7.875 -0.17 +0.44    +0.305 C 
DOCKED: ATOM     52  O   UNL d   1      -6.606 -14.583   6.697 -0.40 -0.45    -0.251 OA
DOCKED: BRANCH  51  53
DOCKED: ATOM     53  O   UNL d   1      -7.258 -16.023   8.267 -0.58 -1.17    -0.481 OA
DOCKED: ATOM     54  H   UNL d   1      -6.786 -16.280   9.087 +0.06 +0.45    +0.295 HD
DOCKED: ENDBRANCH  51  53
DOCKED: ENDBRANCH  50  51
DOCKED: ENDBRANCH  49  50
DOCKED: ENDBRANCH  22  49
DOCKED: TORSDOF 13
DOCKED: TER
DOCKED: ENDMDL
________________________________________________________________________________


	BEGINNING GENETIC ALGORITHM DOCKING 5 of 100
Run: 5 Seed: 1717791726 1202197088 [ Run 5 of 100 GA/GALS ]
Beginning LAMARCKIAN GENETIC ALGORITHM (LGA), with a maximum of 25000000 energy evaluations.

Final-Value: -11.305


	FINAL GENETIC ALGORITHM DOCKED STATE
	_______________________________________________


Detailed state:  trans 19.205 3.781 -0.580 quatxyzw 0.198157 -0.787033 -0.082043 -0.578430 center 0.153 0.018 -0.028 ntor 13 -107.3692 -172.8951 -132.8778 38.6247 63.7547 -98.8318 123.2702 17.0824 149.6046 -23.3379 -77.2436 14.4013 7.1849
State:	 19.205   3.781  -0.580   0.243 -0.965 -0.101 -109.320   -107.37 -172.90 -132.88   38.62   63.75  -98.83  123.27   17.08  149.60  -23.34  -77.24   14.40    7.18

DOCKED: MODEL        5
DOCKED: USER    Run = 5
DOCKED: USER    DPF = D:/Protein_go_brrr/autodock/final/AncB/heme/dock.dpf
DOCKED: USER  
DOCKED: USER    Estimated Free Energy of Binding    =   -2.82 kcal/mol  [=(1)+(2)+(3)-(4)]
DOCKED: USER    Estimated Inhibition Constant, Ki   =    8.51 mM (millimolar)  [Temperature = 298.15 K]
DOCKED: USER    
DOCKED: USER    (1) Final Intermolecular Energy     =   -6.70 kcal/mol
DOCKED: USER        vdW + Hbond + desolv Energy     =   -6.58 kcal/mol
DOCKED: USER        Electrostatic Energy            =   -0.12 kcal/mol
DOCKED: USER    (2) Final Total Internal Energy     =   -4.60 kcal/mol
DOCKED: USER    (3) Torsional Free Energy           =   +3.88 kcal/mol
DOCKED: USER    (4) Unbound System's Energy  [=(2)] =   -4.60 kcal/mol
DOCKED: USER    
DOCKED: USER    
DOCKED: USER    NEWDPF move heme_opt.pdbqt
DOCKED: USER    NEWDPF about 0.153000 0.018000 -0.028000
DOCKED: USER    NEWDPF tran0 19.204930 3.781239 -0.580272
DOCKED: USER    NEWDPF quaternion0 0.198157 -0.787033 -0.082043 -0.578430
DOCKED: USER    NEWDPF axisangle0 0.242919 -0.964818 -0.100576 -109.319602
DOCKED: USER    NEWDPF quat0 0.242919 -0.964818 -0.100576 -109.319602
DOCKED: USER    NEWDPF dihe0 -107.37 -172.90 -132.88 38.62 63.75 -98.83 123.27 17.08 149.60 -23.34 -77.24 14.40 7.18 
DOCKED: USER  keepresnum = 1 
DOCKED: USER  
DOCKED: REMARK  13 active torsions:
DOCKED: REMARK  status: ('A' for Active; 'I' for Inactive)
DOCKED: REMARK    1  A    between atoms: O_3  and  C_38 
DOCKED: REMARK    2  A    between atoms: O_4  and  C_40 
DOCKED: REMARK    3  A    between atoms: O_7  and  C_46 
DOCKED: REMARK    4  A    between atoms: O_9  and  C_48 
DOCKED: REMARK    5  A    between atoms: C_15  and  C_20 
DOCKED: REMARK    6  A    between atoms: C_16  and  C_23 
DOCKED: REMARK    7  A    between atoms: C_20  and  C_38 
DOCKED: REMARK    8  A    between atoms: C_23  and  C_40 
DOCKED: REMARK    9  A    between atoms: C_32  and  C_41 
DOCKED: REMARK   10  A    between atoms: C_37  and  C_45 
DOCKED: REMARK   11  A    between atoms: C_41  and  C_44 
DOCKED: REMARK   12  A    between atoms: C_44  and  C_46 
DOCKED: REMARK   13  A    between atoms: C_47  and  C_48 
DOCKED: USER                              x       y       z     vdW  Elec       q    Type
DOCKED: USER                           _______ _______ _______ _____ _____    ______ ____
DOCKED: ROOT
DOCKED: ATOM      1  O   UNL d   1      19.643   7.533  -5.107 -0.08 -0.10    -0.289 OA
DOCKED: ATOM      2  O   UNL d   1      22.416   0.620  -4.149 -0.02 -0.05    -0.289 OA
DOCKED: ATOM      3  N   UNL d   1      19.233   5.744  -2.187 -0.09 -0.04    -0.247 NA
DOCKED: ATOM      4  N   UNL d   1      20.377   3.083  -2.850 -0.07 -0.06    -0.247 NA
DOCKED: ATOM      5  N   UNL d   1      19.142   2.060  -0.463 -0.11 -0.03    -0.354 N 
DOCKED: ATOM      6  N   UNL d   1      17.943   4.820   0.207 -0.05 +0.04    -0.354 N 
DOCKED: ATOM      7  C   UNL d   1      18.388   7.881  -3.038 -0.17 +0.02    +0.084 A 
DOCKED: ATOM      8  C   UNL d   1      22.082   3.003  -4.598 -0.03 +0.02    +0.084 A 
DOCKED: ATOM      9  C   UNL d   1      21.050   3.811  -3.805 -0.07 +0.01    +0.058 A 
DOCKED: ATOM     10  C   UNL d   1      18.432   6.841  -1.916 -0.18 +0.01    +0.058 A 
DOCKED: ATOM     11  C   UNL d   1      19.320   7.187  -3.985 -0.07 +0.06    +0.193 A 
DOCKED: ATOM     12  C   UNL d   1      19.784   5.916  -3.344 -0.08 +0.03    +0.109 A 
DOCKED: ATOM     13  C   UNL d   1      21.844   1.673  -3.941 -0.04 +0.04    +0.193 A 
DOCKED: ATOM     14  C   UNL d   1      17.003   7.971  -3.684 -0.45 +0.01    +0.026 C 
DOCKED: ATOM     15  C   UNL d   1      20.790   5.103  -4.058 -0.07 +0.02    +0.055 C 
DOCKED: ATOM     16  C   UNL d   1      23.513   3.454  -4.292 -0.01 +0.00    +0.026 C 
DOCKED: ATOM     17  C   UNL d   1      20.783   1.855  -2.906 -0.08 +0.02    +0.109 A 
DOCKED: ATOM     18  C   UNL d   1      17.808   7.047  -0.741 -0.15 +0.00    +0.050 C 
DOCKED: ATOM     19  C   UNL d   1      17.862   6.183   0.383 -0.19 +0.00    +0.045 A 
DOCKED: ATOM     20  C   UNL d   1      19.548   0.885  -1.040 -0.17 +0.01    +0.045 A 
DOCKED: ATOM     21  C   UNL d   1      20.308   0.703  -2.125 -0.13 +0.01    +0.057 C 
DOCKED: ATOM     22  C   UNL d   1      18.271   0.405   0.792 -0.28 +0.00    -0.019 A 
DOCKED: ATOM     23  C   UNL d   1      18.366   1.872   0.649 -0.21 -0.00    +0.045 A 
DOCKED: ATOM     24  C   UNL d   1      18.974  -0.173  -0.210 -0.26 -0.00    -0.022 A 
DOCKED: ATOM     25  C   UNL d   1      17.892   4.173   1.420 -0.27 -0.00    +0.049 A 
DOCKED: ATOM     26  C   UNL d   1      17.794   6.429   1.745 -0.19 -0.00    -0.018 A 
DOCKED: ATOM     27  C   UNL d   1      17.833   5.158   2.396 -0.20 +0.00    +0.003 A 
DOCKED: ATOM     28  C   UNL d   1      17.802   2.756   1.487 -0.19 -0.00    +0.052 C 
DOCKED: ATOM     29  C   UNL d   1      19.186  -1.623  -0.485 -0.12 +0.01    +0.046 C 
DOCKED: ATOM     30  C   UNL d   1      17.701   7.764   2.405 -0.11 +0.01    +0.046 C 
DOCKED: ATOM     31  H   UNL d   1      19.471   2.956  -0.806 +0.05 +0.02    +0.166 HD
DOCKED: ATOM     32  H   UNL d   1      17.991   4.374  -0.701 -0.32 -0.03    +0.166 HD
DOCKED: ENDROOT
DOCKED: BRANCH   7  33
DOCKED: ATOM     33  C   UNL d   1      18.929   9.267  -2.671 -0.13 +0.04    +0.141 C 
DOCKED: BRANCH  33  34
DOCKED: ATOM     34  C   UNL d   1      18.492  10.334  -3.638 -0.16 +0.13    +0.306 C 
DOCKED: ATOM     35  O   UNL d   1      17.807  11.308  -3.375 -0.71 -0.18    -0.251 OA
DOCKED: BRANCH  34  36
DOCKED: ATOM     36  O   UNL d   1      18.943  10.118  -4.887 -0.11 -0.17    -0.481 OA
DOCKED: ATOM     37  H   UNL d   1      18.436   9.340  -5.201 -0.04 +0.10    +0.295 HD
DOCKED: ENDBRANCH  34  36
DOCKED: ENDBRANCH  33  34
DOCKED: ENDBRANCH   7  33
DOCKED: BRANCH  27  38
DOCKED: ATOM     38  C   UNL d   1      17.771   4.953   3.812 -0.13 +0.00    +0.017 C 
DOCKED: ATOM     39  C   UNL d   1      18.631   4.211   4.525 -0.05 +0.01    +0.092 C 
DOCKED: BRANCH  39  40
DOCKED: ATOM     40  C   UNL d   1      18.466   4.095   5.977 -0.01 +0.03    +0.330 C 
DOCKED: ATOM     41  O   UNL d   1      19.080   4.687   6.844 -0.00 -0.02    -0.246 OA
DOCKED: BRANCH  40  42
DOCKED: ATOM     42  O   UNL d   1      17.494   3.215   6.262 -0.00 -0.04    -0.477 OA
DOCKED: ATOM     43  H   UNL d   1      17.266   2.828   5.393 +0.05 +0.02    +0.295 HD
DOCKED: ENDBRANCH  40  42
DOCKED: ENDBRANCH  39  40
DOCKED: ENDBRANCH  27  38
DOCKED: BRANCH   8  44
DOCKED: ATOM     44  C   UNL d   1      21.838   2.921  -6.109 -0.03 +0.04    +0.141 C 
DOCKED: BRANCH  44  45
DOCKED: ATOM     45  C   UNL d   1      20.689   2.020  -6.477 -0.06 +0.11    +0.306 C 
DOCKED: ATOM     46  O   UNL d   1      19.503   2.295  -6.419 -0.14 -0.14    -0.251 OA
DOCKED: BRANCH  45  47
DOCKED: ATOM     47  O   UNL d   1      21.097   0.802  -6.875 -0.00 -0.13    -0.481 OA
DOCKED: ATOM     48  H   UNL d   1      21.763   0.533  -6.208 +0.03 +0.07    +0.295 HD
DOCKED: ENDBRANCH  45  47
DOCKED: ENDBRANCH  44  45
DOCKED: ENDBRANCH   8  44
DOCKED: BRANCH  22  49
DOCKED: ATOM     49  C   UNL d   1      17.498  -0.288   1.875 -0.32 -0.00    +0.048 C 
DOCKED: BRANCH  49  50
DOCKED: ATOM     50  C   UNL d   1      18.233  -0.247   3.215 -0.13 +0.00    +0.125 C 
DOCKED: BRANCH  50  51
DOCKED: ATOM     51  C   UNL d   1      17.621   0.774   4.131 -0.09 +0.01    +0.305 C 
DOCKED: ATOM     52  O   UNL d   1      16.570   1.372   3.982 -0.18 -0.01    -0.251 OA
DOCKED: BRANCH  51  53
DOCKED: ATOM     53  O   UNL d   1      18.391   1.006   5.213 +0.00 -0.03    -0.481 OA
DOCKED: ATOM     54  H   UNL d   1      17.748   1.115   5.945 +0.03 +0.02    +0.295 HD
DOCKED: ENDBRANCH  51  53
DOCKED: ENDBRANCH  50  51
DOCKED: ENDBRANCH  49  50
DOCKED: ENDBRANCH  22  49
DOCKED: TORSDOF 13
DOCKED: TER
DOCKED: ENDMDL
________________________________________________________________________________


	BEGINNING GENETIC ALGORITHM DOCKING 6 of 100
Run: 6 Seed: 1745789759 8380268 [ Run 6 of 100 GA/GALS ]
Beginning LAMARCKIAN GENETIC ALGORITHM (LGA), with a maximum of 25000000 energy evaluations.

Final-Value: -12.079


	FINAL GENETIC ALGORITHM DOCKED STATE
	_______________________________________________


Detailed state:  trans 2.228 -2.758 -17.458 quatxyzw 0.232262 0.009322 -0.134901 -0.963208 center 0.153 0.018 -0.028 ntor 13 180.0000 -108.1894 -139.2661 -129.0466 57.3403 -76.7720 129.5352 -36.5944 145.6379 -37.0475 75.4122 -93.1514 142.8937
State:	  2.228  -2.758 -17.458   0.864  0.035 -0.502 -31.181    180.00 -108.19 -139.27 -129.05   57.34  -76.77  129.54  -36.59  145.64  -37.05   75.41  -93.15  142.89

DOCKED: MODEL        6
DOCKED: USER    Run = 6
DOCKED: USER    DPF = D:/Protein_go_brrr/autodock/final/AncB/heme/dock.dpf
DOCKED: USER  
DOCKED: USER    Estimated Free Energy of Binding    =   -5.58 kcal/mol  [=(1)+(2)+(3)-(4)]
DOCKED: USER    Estimated Inhibition Constant, Ki   =   81.14 uM (micromolar)  [Temperature = 298.15 K]
DOCKED: USER    
DOCKED: USER    (1) Final Intermolecular Energy     =   -9.46 kcal/mol
DOCKED: USER        vdW + Hbond + desolv Energy     =   -8.40 kcal/mol
DOCKED: USER        Electrostatic Energy            =   -1.06 kcal/mol
DOCKED: USER    (2) Final Total Internal Energy     =   -2.62 kcal/mol
DOCKED: USER    (3) Torsional Free Energy           =   +3.88 kcal/mol
DOCKED: USER    (4) Unbound System's Energy  [=(2)] =   -2.62 kcal/mol
DOCKED: USER    
DOCKED: USER    
DOCKED: USER    NEWDPF move heme_opt.pdbqt
DOCKED: USER    NEWDPF about 0.153000 0.018000 -0.028000
DOCKED: USER    NEWDPF tran0 2.228392 -2.758369 -17.457653
DOCKED: USER    NEWDPF quaternion0 0.232262 0.009322 -0.134901 -0.963208
DOCKED: USER    NEWDPF axisangle0 0.864205 0.034686 -0.501943 -31.180695
DOCKED: USER    NEWDPF quat0 0.864205 0.034686 -0.501943 -31.180695
DOCKED: USER    NEWDPF dihe0 180.00 -108.19 -139.27 -129.05 57.34 -76.77 129.54 -36.59 145.64 -37.05 75.41 -93.15 142.89 
DOCKED: USER  keepresnum = 1 
DOCKED: USER  
DOCKED: REMARK  13 active torsions:
DOCKED: REMARK  status: ('A' for Active; 'I' for Inactive)
DOCKED: REMARK    1  A    between atoms: O_3  and  C_38 
DOCKED: REMARK    2  A    between atoms: O_4  and  C_40 
DOCKED: REMARK    3  A    between atoms: O_7  and  C_46 
DOCKED: REMARK    4  A    between atoms: O_9  and  C_48 
DOCKED: REMARK    5  A    between atoms: C_15  and  C_20 
DOCKED: REMARK    6  A    between atoms: C_16  and  C_23 
DOCKED: REMARK    7  A    between atoms: C_20  and  C_38 
DOCKED: REMARK    8  A    between atoms: C_23  and  C_40 
DOCKED: REMARK    9  A    between atoms: C_32  and  C_41 
DOCKED: REMARK   10  A    between atoms: C_37  and  C_45 
DOCKED: REMARK   11  A    between atoms: C_41  and  C_44 
DOCKED: REMARK   12  A    between atoms: C_44  and  C_46 
DOCKED: REMARK   13  A    between atoms: C_47  and  C_48 
DOCKED: USER                              x       y       z     vdW  Elec       q    Type
DOCKED: USER                           _______ _______ _______ _____ _____    ______ ____
DOCKED: ROOT
DOCKED: ATOM      1  O   UNL d   1      -2.760  -0.171 -15.676 -0.51 -0.50    -0.289 OA
DOCKED: ATOM      2  O   UNL d   1      -1.541  -5.516 -20.808 -0.03 -0.16    -0.289 OA
DOCKED: ATOM      3  N   UNL d   1       0.398  -1.294 -16.489 -0.05 -0.17    -0.247 NA
DOCKED: ATOM      4  N   UNL d   1      -0.138  -3.561 -18.334 -0.05 -0.14    -0.247 NA
DOCKED: ATOM      5  N   UNL d   1       2.611  -4.345 -18.021 -0.07 -0.09    -0.354 N 
DOCKED: ATOM      6  N   UNL d   1       3.153  -2.002 -16.092 -0.02 -0.12    -0.354 N 
DOCKED: ATOM      7  C   UNL d   1      -0.513   0.237 -14.806 -0.11 +0.08    +0.084 A 
DOCKED: ATOM      8  C   UNL d   1      -2.236  -3.512 -19.586 -0.03 +0.05    +0.084 A 
DOCKED: ATOM      9  C   UNL d   1      -1.331  -2.898 -18.512 -0.06 +0.04    +0.058 A 
DOCKED: ATOM     10  C   UNL d   1       0.702  -0.460 -15.426 -0.10 +0.04    +0.058 A 
DOCKED: ATOM     11  C   UNL d   1      -1.555  -0.336 -15.718 -0.04 +0.26    +0.193 A 
DOCKED: ATOM     12  C   UNL d   1      -0.875  -1.228 -16.710 -0.08 +0.10    +0.109 A 
DOCKED: ATOM     13  C   UNL d   1      -1.351  -4.668 -19.958 -0.04 +0.11    +0.193 A 
DOCKED: ATOM     14  C   UNL d   1      -0.785  -0.245 -13.378 -0.24 +0.03    +0.026 C 
DOCKED: ATOM     15  C   UNL d   1      -1.696  -1.837 -17.776 -0.08 +0.05    +0.055 C 
DOCKED: ATOM     16  C   UNL d   1      -2.380  -2.591 -20.802 -0.00 +0.01    +0.026 C 
DOCKED: ATOM     17  C   UNL d   1      -0.115  -4.588 -19.122 -0.09 +0.05    +0.109 A 
DOCKED: ATOM     18  C   UNL d   1       1.954  -0.194 -15.010 -0.17 +0.02    +0.050 C 
DOCKED: ATOM     19  C   UNL d   1       3.140  -0.725 -15.579 -0.15 +0.02    +0.045 A 
DOCKED: ATOM     20  C   UNL d   1       2.128  -5.440 -18.690 -0.19 +0.01    +0.045 A 
DOCKED: ATOM     21  C   UNL d   1       0.923  -5.622 -19.239 -0.18 +0.02    +0.057 C 
DOCKED: ATOM     22  C   UNL d   1       4.278  -5.859 -18.041 -0.08 +0.00    -0.019 A 
DOCKED: ATOM     23  C   UNL d   1       3.901  -4.504 -17.591 -0.17 +0.01    +0.045 A 
DOCKED: ATOM     24  C   UNL d   1       3.225  -6.407 -18.692 -0.08 -0.00    -0.022 A 
DOCKED: ATOM     25  C   UNL d   1       4.419  -2.344 -16.506 -0.13 +0.01    +0.049 A 
DOCKED: ATOM     26  C   UNL d   1       4.422  -0.210 -15.696 -0.24 -0.00    -0.018 A 
DOCKED: ATOM     27  C   UNL d   1       5.221  -1.230 -16.300 -0.20 +0.00    +0.003 A 
DOCKED: ATOM     28  C   UNL d   1       4.716  -3.668 -16.929 -0.18 +0.01    +0.052 C 
DOCKED: ATOM     29  C   UNL d   1       3.122  -7.747 -19.337 -0.16 +0.00    +0.046 C 
DOCKED: ATOM     30  C   UNL d   1       4.879   1.145 -15.275 -0.45 +0.01    +0.046 C 
DOCKED: ATOM     31  H   UNL d   1       2.066  -3.492 -17.945 +0.03 +0.06    +0.166 HD
DOCKED: ATOM     32  H   UNL d   1       2.339  -2.605 -16.115 +0.05 +0.07    +0.166 HD
DOCKED: ENDROOT
DOCKED: BRANCH   7  33
DOCKED: ATOM     33  C   UNL d   1      -0.506   1.767 -14.891 -0.12 +0.14    +0.141 C 
DOCKED: BRANCH  33  34
DOCKED: ATOM     34  C   UNL d   1      -1.540   2.401 -14.001 -0.08 +0.48    +0.306 C 
DOCKED: ATOM     35  O   UNL d   1      -1.321   3.068 -13.004 -0.47 -0.40    -0.251 OA
DOCKED: BRANCH  34  36
DOCKED: ATOM     36  O   UNL d   1      -2.797   2.164 -14.416 -0.38 -1.02    -0.481 OA
DOCKED: ATOM     37  H   UNL d   1      -2.691   1.653 -15.246 +0.05 +0.46    +0.295 HD
DOCKED: ENDBRANCH  34  36
DOCKED: ENDBRANCH  33  34
DOCKED: ENDBRANCH   7  33
DOCKED: BRANCH  27  38
DOCKED: ATOM     38  C   UNL d   1       6.619  -1.119 -16.589 -0.31 +0.00    +0.017 C 
DOCKED: ATOM     39  C   UNL d   1       7.570  -1.956 -16.146 -0.31 +0.01    +0.092 C 
DOCKED: BRANCH  39  40
DOCKED: ATOM     40  C   UNL d   1       8.967  -1.742 -16.530 -0.01 +0.04    +0.330 C 
DOCKED: ATOM     41  O   UNL d   1       9.501  -2.029 -17.584 -0.13 -0.07    -0.246 OA
DOCKED: BRANCH  40  42
DOCKED: ATOM     42  O   UNL d   1       9.635  -1.148 -15.529 -0.40 -0.01    -0.477 OA
DOCKED: ATOM     43  H   UNL d   1       9.720  -1.852 -14.853 -0.44 -0.10    +0.295 HD
DOCKED: ENDBRANCH  40  42
DOCKED: ENDBRANCH  39  40
DOCKED: ENDBRANCH  27  38
DOCKED: BRANCH   8  44
DOCKED: ATOM     44  C   UNL d   1      -3.603  -4.002 -19.097 -0.05 +0.11    +0.141 C 
DOCKED: BRANCH  44  45
DOCKED: ATOM     45  C   UNL d   1      -3.576  -5.414 -18.575 -0.10 +0.36    +0.306 C 
DOCKED: ATOM     46  O   UNL d   1      -3.286  -5.765 -17.445 -0.19 -0.34    -0.251 OA
DOCKED: BRANCH  45  47
DOCKED: ATOM     47  O   UNL d   1      -3.891  -6.318 -19.520 -0.37 -0.79    -0.481 OA
DOCKED: ATOM     48  H   UNL d   1      -3.447  -5.993 -20.332 +0.03 +0.31    +0.295 HD
DOCKED: ENDBRANCH  45  47
DOCKED: ENDBRANCH  44  45
DOCKED: ENDBRANCH   8  44
DOCKED: BRANCH  22  49
DOCKED: ATOM     49  C   UNL d   1       5.614  -6.491 -17.783 -0.20 -0.00    +0.048 C 
DOCKED: BRANCH  49  50
DOCKED: ATOM     50  C   UNL d   1       5.911  -6.602 -16.288 -0.28 -0.01    +0.125 C 
DOCKED: BRANCH  50  51
DOCKED: ATOM     51  C   UNL d   1       6.897  -5.552 -15.857 -0.18 +0.02    +0.305 C 
DOCKED: ATOM     52  O   UNL d   1       7.909  -5.201 -16.437 -0.08 -0.03    -0.251 OA
DOCKED: BRANCH  51  53
DOCKED: ATOM     53  O   UNL d   1       6.554  -4.992 -14.680 -0.15 -0.01    -0.481 OA
DOCKED: ATOM     54  H   UNL d   1       6.393  -5.758 -14.090 -0.32 -0.11    +0.295 HD
DOCKED: ENDBRANCH  51  53
DOCKED: ENDBRANCH  50  51
DOCKED: ENDBRANCH  49  50
DOCKED: ENDBRANCH  22  49
DOCKED: TORSDOF 13
DOCKED: TER
DOCKED: ENDMDL
________________________________________________________________________________


	BEGINNING GENETIC ALGORITHM DOCKING 7 of 100
Run: 7 Seed: 361605595 465434697 [ Run 7 of 100 GA/GALS ]
Beginning LAMARCKIAN GENETIC ALGORITHM (LGA), with a maximum of 25000000 energy evaluations.

Final-Value: -11.412


	FINAL GENETIC ALGORITHM DOCKED STATE
	_______________________________________________


Detailed state:  trans -12.523 12.973 5.510 quatxyzw -0.886407 0.118561 0.406441 -0.187168 center 0.153 0.018 -0.028 ntor 13 176.0252 153.9514 109.2777 -116.7039 -150.8692 45.7729 -45.0379 -26.5654 12.3948 -128.2790 -59.4550 -93.9346 27.4730
State:	-12.523  12.973   5.510  -0.902  0.121  0.414 -158.425    176.03  153.95  109.28 -116.70 -150.87   45.77  -45.04  -26.57   12.39 -128.28  -59.46  -93.93   27.47

DOCKED: MODEL        7
DOCKED: USER    Run = 7
DOCKED: USER    DPF = D:/Protein_go_brrr/autodock/final/AncB/heme/dock.dpf
DOCKED: USER  
DOCKED: USER    Estimated Free Energy of Binding    =   -3.02 kcal/mol  [=(1)+(2)+(3)-(4)]
DOCKED: USER    Estimated Inhibition Constant, Ki   =    6.16 mM (millimolar)  [Temperature = 298.15 K]
DOCKED: USER    
DOCKED: USER    (1) Final Intermolecular Energy     =   -6.89 kcal/mol
DOCKED: USER        vdW + Hbond + desolv Energy     =   -6.89 kcal/mol
DOCKED: USER        Electrostatic Energy            =   +0.00 kcal/mol
DOCKED: USER    (2) Final Total Internal Energy     =   -4.52 kcal/mol
DOCKED: USER    (3) Torsional Free Energy           =   +3.88 kcal/mol
DOCKED: USER    (4) Unbound System's Energy  [=(2)] =   -4.52 kcal/mol
DOCKED: USER    
DOCKED: USER    
DOCKED: USER    NEWDPF move heme_opt.pdbqt
DOCKED: USER    NEWDPF about 0.153000 0.018000 -0.028000
DOCKED: USER    NEWDPF tran0 -12.523242 12.973232 5.510483
DOCKED: USER    NEWDPF quaternion0 -0.886407 0.118561 0.406441 -0.187168
DOCKED: USER    NEWDPF axisangle0 -0.902353 0.120693 0.413753 -158.424895
DOCKED: USER    NEWDPF quat0 -0.902353 0.120693 0.413753 -158.424895
DOCKED: USER    NEWDPF dihe0 176.03 153.95 109.28 -116.70 -150.87 45.77 -45.04 -26.57 12.39 -128.28 -59.46 -93.93 27.47 
DOCKED: USER  keepresnum = 1 
DOCKED: USER  
DOCKED: REMARK  13 active torsions:
DOCKED: REMARK  status: ('A' for Active; 'I' for Inactive)
DOCKED: REMARK    1  A    between atoms: O_3  and  C_38 
DOCKED: REMARK    2  A    between atoms: O_4  and  C_40 
DOCKED: REMARK    3  A    between atoms: O_7  and  C_46 
DOCKED: REMARK    4  A    between atoms: O_9  and  C_48 
DOCKED: REMARK    5  A    between atoms: C_15  and  C_20 
DOCKED: REMARK    6  A    between atoms: C_16  and  C_23 
DOCKED: REMARK    7  A    between atoms: C_20  and  C_38 
DOCKED: REMARK    8  A    between atoms: C_23  and  C_40 
DOCKED: REMARK    9  A    between atoms: C_32  and  C_41 
DOCKED: REMARK   10  A    between atoms: C_37  and  C_45 
DOCKED: REMARK   11  A    between atoms: C_41  and  C_44 
DOCKED: REMARK   12  A    between atoms: C_44  and  C_46 
DOCKED: REMARK   13  A    between atoms: C_47  and  C_48 
DOCKED: USER                              x       y       z     vdW  Elec       q    Type
DOCKED: USER                           _______ _______ _______ _____ _____    ______ ____
DOCKED: ROOT
DOCKED: ATOM      1  O   UNL d   1     -17.173  12.053   9.016 -0.00 -0.01    -0.289 OA
DOCKED: ATOM      2  O   UNL d   1     -11.404  16.822   9.631 -0.04 -0.03    -0.289 OA
DOCKED: ATOM      3  N   UNL d   1     -14.574  12.143   6.751 -0.08 +0.02    -0.247 NA
DOCKED: ATOM      4  N   UNL d   1     -12.979  14.490   7.633 -0.11 +0.02    -0.247 NA
DOCKED: ATOM      5  N   UNL d   1     -11.583  14.368   5.123 +0.01 +0.11    -0.354 N 
DOCKED: ATOM      6  N   UNL d   1     -13.255  11.945   4.207 +0.13 +0.08    -0.354 N 
DOCKED: ATOM      7  C   UNL d   1     -16.710  10.949   6.885 -0.03 +0.00    +0.084 A 
DOCKED: ATOM      8  C   UNL d   1     -13.125  15.118   9.990 -0.08 +0.01    +0.084 A 
DOCKED: ATOM      9  C   UNL d   1     -13.606  14.236   8.833 -0.12 +0.00    +0.058 A 
DOCKED: ATOM     10  C   UNL d   1     -15.415  11.240   6.122 -0.10 +0.00    +0.058 A 
DOCKED: ATOM     11  C   UNL d   1     -16.444  11.833   8.066 -0.02 +0.01    +0.193 A 
DOCKED: ATOM     12  C   UNL d   1     -15.108  12.482   7.879 -0.09 +0.00    +0.109 A 
DOCKED: ATOM     13  C   UNL d   1     -12.137  15.944   9.216 -0.07 +0.02    +0.193 A 
DOCKED: ATOM     14  C   UNL d   1     -17.943  11.471   6.143 -0.01 +0.00    +0.026 C 
DOCKED: ATOM     15  C   UNL d   1     -14.589  13.333   8.969 -0.11 +0.00    +0.055 C 
DOCKED: ATOM     16  C   UNL d   1     -12.369  14.307  11.046 -0.12 +0.01    +0.026 C 
DOCKED: ATOM     17  C   UNL d   1     -12.149  15.469   7.800 -0.13 -0.00    +0.109 A 
DOCKED: ATOM     18  C   UNL d   1     -15.107  10.588   4.985 -0.13 +0.00    +0.050 C 
DOCKED: ATOM     19  C   UNL d   1     -13.898  10.729   4.257 -0.08 -0.00    +0.045 A 
DOCKED: ATOM     20  C   UNL d   1     -11.118  15.569   5.593 -0.17 -0.01    +0.045 A 
DOCKED: ATOM     21  C   UNL d   1     -11.305  16.128   6.793 -0.14 -0.00    +0.057 C 
DOCKED: ATOM     22  C   UNL d   1     -10.388  15.283   3.447 -0.16 +0.00    -0.019 A 
DOCKED: ATOM     23  C   UNL d   1     -11.194  14.109   3.835 -0.21 -0.01    +0.045 A 
DOCKED: ATOM     24  C   UNL d   1     -10.346  16.143   4.492 -0.12 +0.00    -0.022 A 
DOCKED: ATOM     25  C   UNL d   1     -12.159  11.879   3.378 -0.15 -0.01    +0.049 A 
DOCKED: ATOM     26  C   UNL d   1     -13.182   9.841   3.470 -0.22 +0.00    -0.018 A 
DOCKED: ATOM     27  C   UNL d   1     -12.074  10.567   2.933 -0.31 -0.00    +0.003 A 
DOCKED: ATOM     28  C   UNL d   1     -11.426  13.050   3.044 -0.25 -0.01    +0.052 C 
DOCKED: ATOM     29  C   UNL d   1      -9.650  17.458   4.590 -0.06 -0.01    +0.046 C 
DOCKED: ATOM     30  C   UNL d   1     -13.503   8.404   3.232 -0.27 +0.00    +0.046 C 
DOCKED: ATOM     31  H   UNL d   1     -12.091  13.728   5.724 -0.53 -0.10    +0.166 HD
DOCKED: ATOM     32  H   UNL d   1     -13.584  12.773   4.689 -0.23 -0.04    +0.166 HD
DOCKED: ENDROOT
DOCKED: BRANCH   7  33
DOCKED: ATOM     33  C   UNL d   1     -16.897   9.495   7.333 -0.03 +0.01    +0.141 C 
DOCKED: BRANCH  33  34
DOCKED: ATOM     34  C   UNL d   1     -15.802   9.028   8.255 -0.06 +0.02    +0.306 C 
DOCKED: ATOM     35  O   UNL d   1     -14.810   8.398   7.933 -0.19 -0.01    -0.251 OA
DOCKED: BRANCH  34  36
DOCKED: ATOM     36  O   UNL d   1     -16.016   9.383   9.534 +0.01 -0.03    -0.481 OA
DOCKED: ATOM     37  H   UNL d   1     -16.808   9.961   9.501 +0.04 +0.02    +0.295 HD
DOCKED: ENDBRANCH  34  36
DOCKED: ENDBRANCH  33  34
DOCKED: ENDBRANCH   7  33
DOCKED: BRANCH  27  38
DOCKED: ATOM     38  C   UNL d   1     -11.084  10.029   2.050 -0.44 -0.00    +0.017 C 
DOCKED: ATOM     39  C   UNL d   1     -10.789  10.509   0.833 -0.26 -0.01    +0.092 C 
DOCKED: BRANCH  39  40
DOCKED: ATOM     40  C   UNL d   1      -9.739   9.875   0.032 -0.19 -0.01    +0.330 C 
DOCKED: ATOM     41  O   UNL d   1      -9.547   8.686  -0.135 -0.28 -0.01    -0.246 OA
DOCKED: BRANCH  40  42
DOCKED: ATOM     42  O   UNL d   1      -8.966  10.811  -0.541 -0.50 -0.02    -0.477 OA
DOCKED: ATOM     43  H   UNL d   1      -9.555  11.590  -0.612 +0.12 -0.02    +0.295 HD
DOCKED: ENDBRANCH  40  42
DOCKED: ENDBRANCH  39  40
DOCKED: ENDBRANCH  27  38
DOCKED: BRANCH   8  44
DOCKED: ATOM     44  C   UNL d   1     -14.196  16.005  10.633 -0.02 +0.01    +0.141 C 
DOCKED: BRANCH  44  45
DOCKED: ATOM     45  C   UNL d   1     -13.659  16.885  11.730 -0.00 +0.03    +0.306 C 
DOCKED: ATOM     46  O   UNL d   1     -13.574  16.603  12.913 -0.01 -0.04    -0.251 OA
DOCKED: BRANCH  45  47
DOCKED: ATOM     47  O   UNL d   1     -13.279  18.095  11.280 +0.00 -0.03    -0.481 OA
DOCKED: ATOM     48  H   UNL d   1     -12.461  17.923  10.767 +0.02 +0.02    +0.295 HD
DOCKED: ENDBRANCH  45  47
DOCKED: ENDBRANCH  44  45
DOCKED: ENDBRANCH   8  44
DOCKED: BRANCH  22  49
DOCKED: ATOM     49  C   UNL d   1      -9.754  15.461   2.099 -0.16 -0.01    +0.048 C 
DOCKED: BRANCH  49  50
DOCKED: ATOM     50  C   UNL d   1      -8.836  14.291   1.743 -0.07 -0.06    +0.125 C 
DOCKED: BRANCH  50  51
DOCKED: ATOM     51  C   UNL d   1      -9.280  13.630   0.470 -0.16 -0.10    +0.305 C 
DOCKED: ATOM     52  O   UNL d   1     -10.419  13.507   0.053 -0.07 +0.05    -0.251 OA
DOCKED: BRANCH  51  53
DOCKED: ATOM     53  O   UNL d   1      -8.241  13.131  -0.228 -0.42 +0.18    -0.481 OA
DOCKED: ATOM     54  H   UNL d   1      -7.862  12.448   0.364 -0.22 -0.04    +0.295 HD
DOCKED: ENDBRANCH  51  53
DOCKED: ENDBRANCH  50  51
DOCKED: ENDBRANCH  49  50
DOCKED: ENDBRANCH  22  49
DOCKED: TORSDOF 13
DOCKED: TER
DOCKED: ENDMDL
________________________________________________________________________________


	BEGINNING GENETIC ALGORITHM DOCKING 8 of 100
Run: 8 Seed: 1229845008 839271516 [ Run 8 of 100 GA/GALS ]
Beginning LAMARCKIAN GENETIC ALGORITHM (LGA), with a maximum of 25000000 energy evaluations.

Final-Value: -12.666


	FINAL GENETIC ALGORITHM DOCKED STATE
	_______________________________________________


Detailed state:  trans 16.286 1.594 -11.254 quatxyzw -0.872730 0.027378 -0.482093 0.071967 center 0.153 0.018 -0.028 ntor 13 -172.1250 156.6862 -164.3902 40.6421 42.2330 3.2224 -20.8153 -179.9649 124.4979 41.8795 69.8403 -64.1381 128.4336
State:	 16.286   1.594 -11.254  -0.875  0.027 -0.483 171.746   -172.12  156.69 -164.39   40.64   42.23    3.22  -20.82 -179.96  124.50   41.88   69.84  -64.14  128.43

DOCKED: MODEL        8
DOCKED: USER    Run = 8
DOCKED: USER    DPF = D:/Protein_go_brrr/autodock/final/AncB/heme/dock.dpf
DOCKED: USER  
DOCKED: USER    Estimated Free Energy of Binding    =   -5.37 kcal/mol  [=(1)+(2)+(3)-(4)]
DOCKED: USER    Estimated Inhibition Constant, Ki   =  116.78 uM (micromolar)  [Temperature = 298.15 K]
DOCKED: USER    
DOCKED: USER    (1) Final Intermolecular Energy     =   -9.24 kcal/mol
DOCKED: USER        vdW + Hbond + desolv Energy     =   -9.07 kcal/mol
DOCKED: USER        Electrostatic Energy            =   -0.17 kcal/mol
DOCKED: USER    (2) Final Total Internal Energy     =   -3.42 kcal/mol
DOCKED: USER    (3) Torsional Free Energy           =   +3.88 kcal/mol
DOCKED: USER    (4) Unbound System's Energy  [=(2)] =   -3.42 kcal/mol
DOCKED: USER    
DOCKED: USER    
DOCKED: USER    NEWDPF move heme_opt.pdbqt
DOCKED: USER    NEWDPF about 0.153000 0.018000 -0.028000
DOCKED: USER    NEWDPF tran0 16.286244 1.593680 -11.253840
DOCKED: USER    NEWDPF quaternion0 -0.872730 0.027378 -0.482093 0.071967
DOCKED: USER    NEWDPF axisangle0 -0.874999 0.027450 -0.483346 171.746025
DOCKED: USER    NEWDPF quat0 -0.874999 0.027450 -0.483346 171.746025
DOCKED: USER    NEWDPF dihe0 -172.12 156.69 -164.39 40.64 42.23 3.22 -20.82 -179.96 124.50 41.88 69.84 -64.14 128.43 
DOCKED: USER  keepresnum = 1 
DOCKED: USER  
DOCKED: REMARK  13 active torsions:
DOCKED: REMARK  status: ('A' for Active; 'I' for Inactive)
DOCKED: REMARK    1  A    between atoms: O_3  and  C_38 
DOCKED: REMARK    2  A    between atoms: O_4  and  C_40 
DOCKED: REMARK    3  A    between atoms: O_7  and  C_46 
DOCKED: REMARK    4  A    between atoms: O_9  and  C_48 
DOCKED: REMARK    5  A    between atoms: C_15  and  C_20 
DOCKED: REMARK    6  A    between atoms: C_16  and  C_23 
DOCKED: REMARK    7  A    between atoms: C_20  and  C_38 
DOCKED: REMARK    8  A    between atoms: C_23  and  C_40 
DOCKED: REMARK    9  A    between atoms: C_32  and  C_41 
DOCKED: REMARK   10  A    between atoms: C_37  and  C_45 
DOCKED: REMARK   11  A    between atoms: C_41  and  C_44 
DOCKED: REMARK   12  A    between atoms: C_44  and  C_46 
DOCKED: REMARK   13  A    between atoms: C_47  and  C_48 
DOCKED: USER                              x       y       z     vdW  Elec       q    Type
DOCKED: USER                           _______ _______ _______ _____ _____    ______ ____
DOCKED: ROOT
DOCKED: ATOM      1  O   UNL d   1      13.637  -0.295 -16.170 -0.04 -0.10    -0.289 OA
DOCKED: ATOM      2  O   UNL d   1      14.114   6.565 -13.152 -0.43 -0.09    -0.289 OA
DOCKED: ATOM      3  N   UNL d   1      15.203   0.316 -13.159 -0.15 -0.07    -0.247 NA
DOCKED: ATOM      4  N   UNL d   1      15.152   3.280 -12.952 -0.10 -0.09    -0.247 NA
DOCKED: ATOM      5  N   UNL d   1      17.062   3.071 -10.813 -0.08 -0.27    -0.354 N 
DOCKED: ATOM      6  N   UNL d   1      17.124  -0.002 -11.048 -0.04 -0.12    -0.354 N 
DOCKED: ATOM      7  C   UNL d   1      14.955  -1.641 -14.613 -0.15 +0.02    +0.084 A 
DOCKED: ATOM      8  C   UNL d   1      13.371   4.454 -14.143 -0.37 +0.02    +0.084 A 
DOCKED: ATOM      9  C   UNL d   1      14.097   3.142 -13.826 -0.28 +0.02    +0.058 A 
DOCKED: ATOM     10  C   UNL d   1      15.520  -1.021 -13.332 -0.16 +0.02    +0.058 A 
DOCKED: ATOM     11  C   UNL d   1      14.248  -0.422 -15.125 -0.17 +0.05    +0.193 A 
DOCKED: ATOM     12  C   UNL d   1      14.452   0.689 -14.143 -0.24 +0.03    +0.109 A 
DOCKED: ATOM     13  C   UNL d   1      14.232   5.366 -13.317 -0.27 +0.06    +0.193 A 
DOCKED: ATOM     14  C   UNL d   1      16.060  -2.024 -15.601 -0.06 +0.01    +0.026 C 
DOCKED: ATOM     15  C   UNL d   1      13.764   1.972 -14.392 -0.30 +0.02    +0.055 C 
DOCKED: ATOM     16  C   UNL d   1      11.949   4.468 -13.573 -0.39 +0.00    +0.026 C 
DOCKED: ATOM     17  C   UNL d   1      15.279   4.533 -12.652 -0.23 +0.05    +0.109 A 
DOCKED: ATOM     18  C   UNL d   1      16.186  -1.762 -12.426 -0.17 +0.02    +0.050 C 
DOCKED: ATOM     19  C   UNL d   1      16.670  -1.295 -11.177 -0.19 +0.01    +0.045 A 
DOCKED: ATOM     20  C   UNL d   1      17.083   4.426 -11.016 -0.21 +0.04    +0.045 A 
DOCKED: ATOM     21  C   UNL d   1      16.300   5.168 -11.806 -0.33 +0.04    +0.057 C 
DOCKED: ATOM     22  C   UNL d   1      18.722   3.878  -9.521 -0.12 -0.02    -0.019 A 
DOCKED: ATOM     23  C   UNL d   1      18.016   2.646  -9.926 -0.15 +0.03    +0.045 A 
DOCKED: ATOM     24  C   UNL d   1      18.164   4.929 -10.168 -0.16 -0.03    -0.022 A 
DOCKED: ATOM     25  C   UNL d   1      17.629   0.209  -9.785 -0.20 +0.02    +0.049 A 
DOCKED: ATOM     26  C   UNL d   1      16.849  -1.929  -9.958 -0.28 -0.01    -0.018 A 
DOCKED: ATOM     27  C   UNL d   1      17.437  -0.970  -9.077 -0.28 +0.00    +0.003 A 
DOCKED: ATOM     28  C   UNL d   1      18.298   1.420  -9.460 -0.18 +0.03    +0.052 C 
DOCKED: ATOM     29  C   UNL d   1      18.520   6.374 -10.081 -0.24 +0.04    +0.046 C 
DOCKED: ATOM     30  C   UNL d   1      16.496  -3.340  -9.628 -0.31 +0.02    +0.046 C 
DOCKED: ATOM     31  H   UNL d   1      16.346   2.487 -11.232 +0.07 +0.10    +0.166 HD
DOCKED: ATOM     32  H   UNL d   1      17.117   0.673 -11.803 +0.05 +0.06    +0.166 HD
DOCKED: ENDROOT
DOCKED: BRANCH   7  33
DOCKED: ATOM     33  C   UNL d   1      13.964  -2.791 -14.405 -0.07 +0.04    +0.141 C 
DOCKED: BRANCH  33  34
DOCKED: ATOM     34  C   UNL d   1      13.307  -3.228 -15.686 -0.11 +0.06    +0.306 C 
DOCKED: ATOM     35  O   UNL d   1      13.654  -4.160 -16.392 -0.04 -0.05    -0.251 OA
DOCKED: BRANCH  34  36
DOCKED: ATOM     36  O   UNL d   1      12.245  -2.469 -16.010 -0.08 -0.06    -0.481 OA
DOCKED: ATOM     37  H   UNL d   1      12.238  -1.755 -15.337 -0.44 -0.01    +0.295 HD
DOCKED: ENDBRANCH  34  36
DOCKED: ENDBRANCH  33  34
DOCKED: ENDBRANCH   7  33
DOCKED: BRANCH  27  38
DOCKED: ATOM     38  C   UNL d   1      17.804  -1.215  -7.715 -0.27 +0.01    +0.017 C 
DOCKED: ATOM     39  C   UNL d   1      18.777  -0.576  -7.048 -0.27 +0.03    +0.092 C 
DOCKED: BRANCH  39  40
DOCKED: ATOM     40  C   UNL d   1      19.042  -0.911  -5.646 -0.20 +0.11    +0.330 C 
DOCKED: ATOM     41  O   UNL d   1      18.485  -1.750  -4.964 -0.33 -0.08    -0.246 OA
DOCKED: BRANCH  40  42
DOCKED: ATOM     42  O   UNL d   1      20.037  -0.146  -5.169 -0.06 -0.14    -0.477 OA
DOCKED: ATOM     43  H   UNL d   1      20.531   0.122  -5.971 +0.06 +0.08    +0.295 HD
DOCKED: ENDBRANCH  40  42
DOCKED: ENDBRANCH  39  40
DOCKED: ENDBRANCH  27  38
DOCKED: BRANCH   8  44
DOCKED: ATOM     44  C   UNL d   1      13.381   4.874 -15.617 -0.28 +0.02    +0.141 C 
DOCKED: BRANCH  44  45
DOCKED: ATOM     45  C   UNL d   1      14.269   4.012 -16.475 -0.11 +0.07    +0.306 C 
DOCKED: ATOM     46  O   UNL d   1      15.481   3.913 -16.397 -0.04 -0.06    -0.251 OA
DOCKED: BRANCH  45  47
DOCKED: ATOM     47  O   UNL d   1      13.579   3.335 -17.411 -0.06 -0.12    -0.481 OA
DOCKED: ATOM     48  H   UNL d   1      12.701   3.772 -17.436 -0.40 +0.02    +0.295 HD
DOCKED: ENDBRANCH  45  47
DOCKED: ENDBRANCH  44  45
DOCKED: ENDBRANCH   8  44
DOCKED: BRANCH  22  49
DOCKED: ATOM     49  C   UNL d   1      19.873   3.912  -8.560 -0.11 +0.04    +0.048 C 
DOCKED: BRANCH  49  50
DOCKED: ATOM     50  C   UNL d   1      20.893   2.812  -8.855 -0.03 +0.05    +0.125 C 
DOCKED: BRANCH  50  51
DOCKED: ATOM     51  C   UNL d   1      20.859   1.750  -7.792 -0.02 +0.10    +0.305 C 
DOCKED: ATOM     52  O   UNL d   1      21.464   0.693  -7.779 -0.01 -0.06    -0.251 OA
DOCKED: BRANCH  51  53
DOCKED: ATOM     53  O   UNL d   1      20.033   2.078  -6.778 -0.05 -0.22    -0.481 OA
DOCKED: ATOM     54  H   UNL d   1      20.514   1.787  -5.976 +0.06 +0.11    +0.295 HD
DOCKED: ENDBRANCH  51  53
DOCKED: ENDBRANCH  50  51
DOCKED: ENDBRANCH  49  50
DOCKED: ENDBRANCH  22  49
DOCKED: TORSDOF 13
DOCKED: TER
DOCKED: ENDMDL
________________________________________________________________________________


	BEGINNING GENETIC ALGORITHM DOCKING 9 of 100
Run: 9 Seed: 1521764217 479662793 [ Run 9 of 100 GA/GALS ]
Beginning LAMARCKIAN GENETIC ALGORITHM (LGA), with a maximum of 25000000 energy evaluations.

Final-Value: -12.156


	FINAL GENETIC ALGORITHM DOCKED STATE
	_______________________________________________


Detailed state:  trans -0.100 -9.041 10.128 quatxyzw 0.010969 0.857230 0.417520 0.301186 center 0.153 0.018 -0.028 ntor 13 81.9286 -49.0081 -149.4867 -3.3150 -178.9956 113.2064 132.0889 -94.1688 107.6953 -10.4181 25.1580 -47.0188 0.4201
State:	 -0.100  -9.041  10.128   0.012  0.899  0.438 144.942     81.93  -49.01 -149.49   -3.31 -179.00  113.21  132.09  -94.17  107.70  -10.42   25.16  -47.02    0.42

DOCKED: MODEL        9
DOCKED: USER    Run = 9
DOCKED: USER    DPF = D:/Protein_go_brrr/autodock/final/AncB/heme/dock.dpf
DOCKED: USER  
DOCKED: USER    Estimated Free Energy of Binding    =   -5.96 kcal/mol  [=(1)+(2)+(3)-(4)]
DOCKED: USER    Estimated Inhibition Constant, Ki   =   42.61 uM (micromolar)  [Temperature = 298.15 K]
DOCKED: USER    
DOCKED: USER    (1) Final Intermolecular Energy     =   -9.84 kcal/mol
DOCKED: USER        vdW + Hbond + desolv Energy     =   -9.66 kcal/mol
DOCKED: USER        Electrostatic Energy            =   -0.18 kcal/mol
DOCKED: USER    (2) Final Total Internal Energy     =   -2.32 kcal/mol
DOCKED: USER    (3) Torsional Free Energy           =   +3.88 kcal/mol
DOCKED: USER    (4) Unbound System's Energy  [=(2)] =   -2.32 kcal/mol
DOCKED: USER    
DOCKED: USER    
DOCKED: USER    NEWDPF move heme_opt.pdbqt
DOCKED: USER    NEWDPF about 0.153000 0.018000 -0.028000
DOCKED: USER    NEWDPF tran0 -0.100153 -9.040803 10.128120
DOCKED: USER    NEWDPF quaternion0 0.010969 0.857230 0.417520 0.301186
DOCKED: USER    NEWDPF axisangle0 0.011504 0.898974 0.437852 144.942268
DOCKED: USER    NEWDPF quat0 0.011504 0.898974 0.437852 144.942268
DOCKED: USER    NEWDPF dihe0 81.93 -49.01 -149.49 -3.31 -179.00 113.21 132.09 -94.17 107.70 -10.42 25.16 -47.02 0.42 
DOCKED: USER  keepresnum = 1 
DOCKED: USER  
DOCKED: REMARK  13 active torsions:
DOCKED: REMARK  status: ('A' for Active; 'I' for Inactive)
DOCKED: REMARK    1  A    between atoms: O_3  and  C_38 
DOCKED: REMARK    2  A    between atoms: O_4  and  C_40 
DOCKED: REMARK    3  A    between atoms: O_7  and  C_46 
DOCKED: REMARK    4  A    between atoms: O_9  and  C_48 
DOCKED: REMARK    5  A    between atoms: C_15  and  C_20 
DOCKED: REMARK    6  A    between atoms: C_16  and  C_23 
DOCKED: REMARK    7  A    between atoms: C_20  and  C_38 
DOCKED: REMARK    8  A    between atoms: C_23  and  C_40 
DOCKED: REMARK    9  A    between atoms: C_32  and  C_41 
DOCKED: REMARK   10  A    between atoms: C_37  and  C_45 
DOCKED: REMARK   11  A    between atoms: C_41  and  C_44 
DOCKED: REMARK   12  A    between atoms: C_44  and  C_46 
DOCKED: REMARK   13  A    between atoms: C_47  and  C_48 
DOCKED: USER                              x       y       z     vdW  Elec       q    Type
DOCKED: USER                           _______ _______ _______ _____ _____    ______ ____
DOCKED: ROOT
DOCKED: ATOM      1  O   UNL d   1       4.619  -6.167   8.073 -0.53 -0.02    -0.289 OA
DOCKED: ATOM      2  O   UNL d   1       1.565 -12.719   6.037 -0.04 -0.04    -0.289 OA
DOCKED: ATOM      3  N   UNL d   1       1.892  -7.536   9.680 -0.01 -0.02    -0.247 NA
DOCKED: ATOM      4  N   UNL d   1       1.239  -9.910   8.016 +0.05 -0.04    -0.247 NA
DOCKED: ATOM      5  N   UNL d   1      -1.276 -10.072   9.399 -0.08 -0.07    -0.354 N 
DOCKED: ATOM      6  N   UNL d   1      -0.599  -7.597  11.107 -0.17 -0.04    -0.354 N 
DOCKED: ATOM      7  C   UNL d   1       3.100  -5.409   9.831 -0.24 -0.01    +0.084 A 
DOCKED: ATOM      8  C   UNL d   1       3.062 -10.911   6.733 -0.08 +0.01    +0.084 A 
DOCKED: ATOM      9  C   UNL d   1       2.559  -9.786   7.643 -0.13 +0.01    +0.058 A 
DOCKED: ATOM     10  C   UNL d   1       1.956  -6.306  10.312 -0.24 +0.00    +0.058 A 
DOCKED: ATOM     11  C   UNL d   1       3.683  -6.358   8.827 -0.14 -0.00    +0.193 A 
DOCKED: ATOM     12  C   UNL d   1       2.879  -7.620   8.848 -0.12 +0.01    +0.109 A 
DOCKED: ATOM     13  C   UNL d   1       1.774 -11.678   6.629 -0.07 +0.03    +0.193 A 
DOCKED: ATOM     14  C   UNL d   1       2.587  -4.167   9.099 -0.44 -0.00    +0.026 C 
DOCKED: ATOM     15  C   UNL d   1       3.326  -8.744   8.000 -0.16 +0.01    +0.055 C 
DOCKED: ATOM     16  C   UNL d   1       4.102 -11.789   7.437 -0.05 +0.00    +0.026 C 
DOCKED: ATOM     17  C   UNL d   1       0.747 -10.962   7.445 -0.14 +0.02    +0.109 A 
DOCKED: ATOM     18  C   UNL d   1       1.154  -5.938  11.329 -0.28 +0.00    +0.050 C 
DOCKED: ATOM     19  C   UNL d   1       0.127  -6.735  11.896 -0.30 +0.00    +0.045 A 
DOCKED: ATOM     20  C   UNL d   1      -1.495 -10.988   8.402 -0.23 +0.01    +0.045 A 
DOCKED: ATOM     21  C   UNL d   1      -0.635 -11.463   7.496 -0.23 +0.01    +0.057 C 
DOCKED: ATOM     22  C   UNL d   1      -3.441 -10.674   9.557 -0.28 -0.01    -0.019 A 
DOCKED: ATOM     23  C   UNL d   1      -2.393  -9.818  10.149 -0.30 +0.01    +0.045 A 
DOCKED: ATOM     24  C   UNL d   1      -2.903 -11.365   8.525 -0.25 -0.01    -0.022 A 
DOCKED: ATOM     25  C   UNL d   1      -1.597  -8.198  11.839 -0.21 +0.01    +0.049 A 
DOCKED: ATOM     26  C   UNL d   1      -0.388  -6.804  13.182 -0.27 -0.00    -0.018 A 
DOCKED: ATOM     27  C   UNL d   1      -1.464  -7.745  13.144 -0.23 +0.00    +0.003 A 
DOCKED: ATOM     28  C   UNL d   1      -2.576  -9.012  11.206 -0.24 +0.01    +0.052 C 
DOCKED: ATOM     29  C   UNL d   1      -3.556 -12.361   7.628 -0.25 +0.02    +0.046 C 
DOCKED: ATOM     30  C   UNL d   1       0.089  -6.047  14.374 -0.26 -0.00    +0.046 C 
DOCKED: ATOM     31  H   UNL d   1      -0.348  -9.705   9.581 +0.06 +0.03    +0.166 HD
DOCKED: ATOM     32  H   UNL d   1      -0.432  -7.726  10.116 +0.11 +0.02    +0.166 HD
DOCKED: ENDROOT
DOCKED: BRANCH   7  33
DOCKED: ATOM     33  C   UNL d   1       4.142  -5.045  10.895 -0.17 -0.01    +0.141 C 
DOCKED: BRANCH  33  34
DOCKED: ATOM     34  C   UNL d   1       5.480  -4.700  10.300 -0.11 -0.08    +0.306 C 
DOCKED: ATOM     35  O   UNL d   1       6.548  -5.220  10.579 -0.07 +0.03    -0.251 OA
DOCKED: BRANCH  34  36
DOCKED: ATOM     36  O   UNL d   1       5.403  -3.720   9.383 +0.07 +0.49    -0.481 OA
DOCKED: ATOM     37  H   UNL d   1       5.429  -4.187   8.521 -0.43 -0.44    +0.295 HD
DOCKED: ENDBRANCH  34  36
DOCKED: ENDBRANCH  33  34
DOCKED: ENDBRANCH   7  33
DOCKED: BRANCH  27  38
DOCKED: ATOM     38  C   UNL d   1      -2.284  -8.106  14.260 -0.21 +0.00    +0.017 C 
DOCKED: ATOM     39  C   UNL d   1      -3.410  -8.832  14.191 -0.13 +0.03    +0.092 C 
DOCKED: BRANCH  39  40
DOCKED: ATOM     40  C   UNL d   1      -4.150  -9.149  15.415 -0.09 +0.11    +0.330 C 
DOCKED: ATOM     41  O   UNL d   1      -5.241  -8.731  15.753 -0.48 -0.14    -0.246 OA
DOCKED: BRANCH  40  42
DOCKED: ATOM     42  O   UNL d   1      -3.452 -10.014  16.167 -0.00 -0.09    -0.477 OA
DOCKED: ATOM     43  H   UNL d   1      -3.464  -9.612  17.060 +0.03 +0.04    +0.295 HD
DOCKED: ENDBRANCH  40  42
DOCKED: ENDBRANCH  39  40
DOCKED: ENDBRANCH  27  38
DOCKED: BRANCH   8  44
DOCKED: ATOM     44  C   UNL d   1       3.553 -10.473   5.349 -0.14 +0.01    +0.141 C 
DOCKED: BRANCH  44  45
DOCKED: ATOM     45  C   UNL d   1       2.491  -9.788   4.532 -0.20 +0.03    +0.306 C 
DOCKED: ATOM     46  O   UNL d   1       2.228  -8.598   4.533 -0.28 -0.04    -0.251 OA
DOCKED: BRANCH  45  47
DOCKED: ATOM     47  O   UNL d   1       1.793 -10.649   3.769 -0.12 -0.06    -0.481 OA
DOCKED: ATOM     48  H   UNL d   1       1.809 -11.492   4.270 +0.12 +0.04    +0.295 HD
DOCKED: ENDBRANCH  45  47
DOCKED: ENDBRANCH  44  45
DOCKED: ENDBRANCH   8  44
DOCKED: BRANCH  22  49
DOCKED: ATOM     49  C   UNL d   1      -4.860 -10.725  10.042 -0.29 +0.02    +0.048 C 
DOCKED: BRANCH  49  50
DOCKED: ATOM     50  C   UNL d   1      -5.019 -11.663  11.238 -0.22 +0.06    +0.125 C 
DOCKED: BRANCH  50  51
DOCKED: ATOM     51  C   UNL d   1      -6.421 -12.197  11.319 -0.15 +0.18    +0.305 C 
DOCKED: ATOM     52  O   UNL d   1      -7.321 -11.814  12.047 -0.75 -0.19    -0.251 OA
DOCKED: BRANCH  51  53
DOCKED: ATOM     53  O   UNL d   1      -6.621 -13.220  10.465 -0.13 -0.30    -0.481 OA
DOCKED: ATOM     54  H   UNL d   1      -7.537 -13.514  10.656 -0.16 +0.18    +0.295 HD
DOCKED: ENDBRANCH  51  53
DOCKED: ENDBRANCH  50  51
DOCKED: ENDBRANCH  49  50
DOCKED: ENDBRANCH  22  49
DOCKED: TORSDOF 13
DOCKED: TER
DOCKED: ENDMDL
________________________________________________________________________________


	BEGINNING GENETIC ALGORITHM DOCKING 10 of 100
Run: 10 Seed: 136346252 1248220537 [ Run 10 of 100 GA/GALS ]
Beginning LAMARCKIAN GENETIC ALGORITHM (LGA), with a maximum of 25000000 energy evaluations.

Final-Value: -10.524


	FINAL GENETIC ALGORITHM DOCKED STATE
	_______________________________________________


Detailed state:  trans 3.245 -3.692 14.048 quatxyzw 0.126458 0.590348 -0.655778 -0.453269 center 0.153 0.018 -0.028 ntor 13 127.0516 -92.1887 -110.3450 109.6862 -133.0288 -151.5221 119.9948 87.8297 23.9924 -31.7377 58.1769 85.3777 130.4682
State:	  3.245  -3.692  14.048   0.142  0.662 -0.736 -126.093    127.05  -92.19 -110.35  109.69 -133.03 -151.52  119.99   87.83   23.99  -31.74   58.18   85.38  130.47

DOCKED: MODEL       10
DOCKED: USER    Run = 10
DOCKED: USER    DPF = D:/Protein_go_brrr/autodock/final/AncB/heme/dock.dpf
DOCKED: USER  
DOCKED: USER    Estimated Free Energy of Binding    =   -3.96 kcal/mol  [=(1)+(2)+(3)-(4)]
DOCKED: USER    Estimated Inhibition Constant, Ki   =    1.24 mM (millimolar)  [Temperature = 298.15 K]
DOCKED: USER    
DOCKED: USER    (1) Final Intermolecular Energy     =   -7.84 kcal/mol
DOCKED: USER        vdW + Hbond + desolv Energy     =   -7.74 kcal/mol
DOCKED: USER        Electrostatic Energy            =   -0.10 kcal/mol
DOCKED: USER    (2) Final Total Internal Energy     =   -2.68 kcal/mol
DOCKED: USER    (3) Torsional Free Energy           =   +3.88 kcal/mol
DOCKED: USER    (4) Unbound System's Energy  [=(2)] =   -2.68 kcal/mol
DOCKED: USER    
DOCKED: USER    
DOCKED: USER    NEWDPF move heme_opt.pdbqt
DOCKED: USER    NEWDPF about 0.153000 0.018000 -0.028000
DOCKED: USER    NEWDPF tran0 3.245122 -3.692481 14.047507
DOCKED: USER    NEWDPF quaternion0 0.126458 0.590348 -0.655778 -0.453269
DOCKED: USER    NEWDPF axisangle0 0.141869 0.662290 -0.735693 -126.092715
DOCKED: USER    NEWDPF quat0 0.141869 0.662290 -0.735693 -126.092715
DOCKED: USER    NEWDPF dihe0 127.05 -92.19 -110.35 109.69 -133.03 -151.52 119.99 87.83 23.99 -31.74 58.18 85.38 130.47 
DOCKED: USER  keepresnum = 1 
DOCKED: USER  
DOCKED: REMARK  13 active torsions:
DOCKED: REMARK  status: ('A' for Active; 'I' for Inactive)
DOCKED: REMARK    1  A    between atoms: O_3  and  C_38 
DOCKED: REMARK    2  A    between atoms: O_4  and  C_40 
DOCKED: REMARK    3  A    between atoms: O_7  and  C_46 
DOCKED: REMARK    4  A    between atoms: O_9  and  C_48 
DOCKED: REMARK    5  A    between atoms: C_15  and  C_20 
DOCKED: REMARK    6  A    between atoms: C_16  and  C_23 
DOCKED: REMARK    7  A    between atoms: C_20  and  C_38 
DOCKED: REMARK    8  A    between atoms: C_23  and  C_40 
DOCKED: REMARK    9  A    between atoms: C_32  and  C_41 
DOCKED: REMARK   10  A    between atoms: C_37  and  C_45 
DOCKED: REMARK   11  A    between atoms: C_41  and  C_44 
DOCKED: REMARK   12  A    between atoms: C_44  and  C_46 
DOCKED: REMARK   13  A    between atoms: C_47  and  C_48 
DOCKED: USER                              x       y       z     vdW  Elec       q    Type
DOCKED: USER                           _______ _______ _______ _____ _____    ______ ____
DOCKED: ROOT
DOCKED: ATOM      1  O   UNL d   1       7.867  -1.588  17.042 +0.00 +0.00    -0.289 OA
DOCKED: ATOM      2  O   UNL d   1       0.538  -1.629  18.679 -0.21 +0.05    -0.289 OA
DOCKED: ATOM      3  N   UNL d   1       5.478  -2.832  14.887 -0.42 -0.01    -0.247 NA
DOCKED: ATOM      4  N   UNL d   1       2.979  -2.704  16.490 -0.11 +0.04    -0.247 NA
DOCKED: ATOM      5  N   UNL d   1       1.740  -4.392  14.520 -0.02 +0.07    -0.354 N 
DOCKED: ATOM      6  N   UNL d   1       4.342  -4.535  12.874 -0.07 +0.03    -0.354 N 
DOCKED: ATOM      7  C   UNL d   1       7.928  -2.768  14.903 -0.01 +0.00    +0.084 A 
DOCKED: ATOM      8  C   UNL d   1       2.875  -1.030  18.267 -0.20 -0.01    +0.084 A 
DOCKED: ATOM      9  C   UNL d   1       3.686  -1.745  17.181 -0.17 -0.00    +0.058 A 
DOCKED: ATOM     10  C   UNL d   1       6.630  -3.189  14.207 -0.07 +0.00    +0.058 A 
DOCKED: ATOM     11  C   UNL d   1       7.305  -2.093  16.087 -0.01 +0.00    +0.193 A 
DOCKED: ATOM     12  C   UNL d   1       5.817  -2.176  15.949 -0.10 +0.00    +0.109 A 
DOCKED: ATOM     13  C   UNL d   1       1.589  -1.786  18.089 -0.19 -0.02    +0.193 A 
DOCKED: ATOM     14  C   UNL d   1       8.737  -3.974  15.388 +0.00 +0.00    +0.026 C 
DOCKED: ATOM     15  C   UNL d   1       4.985  -1.493  16.961 -0.14 -0.00    +0.055 C 
DOCKED: ATOM     16  C   UNL d   1       2.633   0.442  17.918 -0.41 -0.00    +0.026 C 
DOCKED: ATOM     17  C   UNL d   1       1.786  -2.776  16.987 -0.20 -0.01    +0.109 A 
DOCKED: ATOM     18  C   UNL d   1       6.640  -3.774  12.995 -0.08 -0.00    +0.050 C 
DOCKED: ATOM     19  C   UNL d   1       5.491  -4.121  12.239 -0.07 -0.00    +0.045 A 
DOCKED: ATOM     20  C   UNL d   1       0.769  -4.408  15.488 -0.25 -0.00    +0.045 A 
DOCKED: ATOM     21  C   UNL d   1       0.700  -3.695  16.616 +0.05 -0.00    +0.057 C 
DOCKED: ATOM     22  C   UNL d   1       0.203  -5.897  13.851 -0.29 +0.00    -0.019 A 
DOCKED: ATOM     23  C   UNL d   1       1.485  -5.259  13.491 -0.23 -0.00    +0.045 A 
DOCKED: ATOM     24  C   UNL d   1      -0.216  -5.388  15.034 -0.27 +0.00    -0.022 A 
DOCKED: ATOM     25  C   UNL d   1       3.389  -4.906  11.954 -0.14 -0.00    +0.049 A 
DOCKED: ATOM     26  C   UNL d   1       5.267  -4.188  10.873 -0.17 +0.00    -0.018 A 
DOCKED: ATOM     27  C   UNL d   1       3.931  -4.666  10.699 -0.23 -0.00    +0.003 A 
DOCKED: ATOM     28  C   UNL d   1       2.174  -5.516  12.368 -0.24 +0.00    +0.052 C 
DOCKED: ATOM     29  C   UNL d   1      -1.455  -5.706  15.799 -0.24 -0.00    +0.046 C 
DOCKED: ATOM     30  C   UNL d   1       6.231  -3.830   9.794 -0.15 -0.03    +0.046 C 
DOCKED: ATOM     31  H   UNL d   1       2.510  -3.733  14.558 -0.28 -0.08    +0.166 HD
DOCKED: ATOM     32  H   UNL d   1       4.247  -4.592  13.881 +0.01 -0.01    +0.166 HD
DOCKED: ENDROOT
DOCKED: BRANCH   7  33
DOCKED: ATOM     33  C   UNL d   1       8.803  -1.783  14.121 -0.00 -0.00    +0.141 C 
DOCKED: BRANCH  33  34
DOCKED: ATOM     34  C   UNL d   1       8.212  -0.400  14.066 -0.02 -0.00    +0.306 C 
DOCKED: ATOM     35  O   UNL d   1       7.313  -0.030  13.330 -0.09 -0.00    -0.251 OA
DOCKED: BRANCH  34  36
DOCKED: ATOM     36  O   UNL d   1       8.782   0.442  14.946 +0.01 -0.00    -0.481 OA
DOCKED: ATOM     37  H   UNL d   1       8.682  -0.003  15.814 +0.02 +0.00    +0.295 HD
DOCKED: ENDBRANCH  34  36
DOCKED: ENDBRANCH  33  34
DOCKED: ENDBRANCH   7  33
DOCKED: BRANCH  27  38
DOCKED: ATOM     38  C   UNL d   1       3.296  -4.898   9.437 -0.36 -0.00    +0.017 C 
DOCKED: ATOM     39  C   UNL d   1       3.123  -3.978   8.476 -0.42 -0.04    +0.092 C 
DOCKED: BRANCH  39  40
DOCKED: ATOM     40  C   UNL d   1       2.470  -4.350   7.217 -0.34 -0.09    +0.330 C 
DOCKED: ATOM     41  O   UNL d   1       2.613  -3.834   6.125 -0.48 +0.08    -0.246 OA
DOCKED: BRANCH  40  42
DOCKED: ATOM     42  O   UNL d   1       1.652  -5.395   7.413 -0.15 +0.04    -0.477 OA
DOCKED: ATOM     43  H   UNL d   1       0.804  -4.983   7.679 -0.34 -0.07    +0.295 HD
DOCKED: ENDBRANCH  40  42
DOCKED: ENDBRANCH  39  40
DOCKED: ENDBRANCH  27  38
DOCKED: BRANCH   8  44
DOCKED: ATOM     44  C   UNL d   1       3.407  -1.181  19.696 -0.09 -0.01    +0.141 C 
DOCKED: BRANCH  44  45
DOCKED: ATOM     45  C   UNL d   1       3.004  -2.477  20.346 -0.02 -0.02    +0.306 C 
DOCKED: ATOM     46  O   UNL d   1       3.476  -3.579  20.126 -0.01 +0.01    -0.251 OA
DOCKED: BRANCH  45  47
DOCKED: ATOM     47  O   UNL d   1       1.999  -2.320  21.227 -0.00 +0.05    -0.481 OA
DOCKED: ATOM     48  H   UNL d   1       1.219  -2.096  20.676 +0.08 -0.04    +0.295 HD
DOCKED: ENDBRANCH  45  47
DOCKED: ENDBRANCH  44  45
DOCKED: ENDBRANCH   8  44
DOCKED: BRANCH  22  49
DOCKED: ATOM     49  C   UNL d   1      -0.479  -6.945  13.021 -0.30 +0.00    +0.048 C 
DOCKED: BRANCH  49  50
DOCKED: ATOM     50  C   UNL d   1       0.493  -8.036  12.573 -0.13 +0.01    +0.125 C 
DOCKED: BRANCH  50  51
DOCKED: ATOM     51  C   UNL d   1       0.542  -8.128  11.074 -0.12 +0.03    +0.305 C 
DOCKED: ATOM     52  O   UNL d   1       1.182  -7.430  10.307 -0.14 -0.02    -0.251 OA
DOCKED: BRANCH  51  53
DOCKED: ATOM     53  O   UNL d   1      -0.248  -9.113  10.603 -0.04 -0.07    -0.481 OA
DOCKED: ATOM     54  H   UNL d   1       0.212  -9.936  10.870 +0.06 +0.04    +0.295 HD
DOCKED: ENDBRANCH  51  53
DOCKED: ENDBRANCH  50  51
DOCKED: ENDBRANCH  49  50
DOCKED: ENDBRANCH  22  49
DOCKED: TORSDOF 13
DOCKED: TER
DOCKED: ENDMDL
________________________________________________________________________________


	BEGINNING GENETIC ALGORITHM DOCKING 11 of 100
Run: 11 Seed: 1146761797 1919142683 [ Run 11 of 100 GA/GALS ]
Beginning LAMARCKIAN GENETIC ALGORITHM (LGA), with a maximum of 25000000 energy evaluations.

Final-Value: -13.019


	FINAL GENETIC ALGORITHM DOCKED STATE
	_______________________________________________


Detailed state:  trans 0.010 -8.916 10.150 quatxyzw -0.034887 -0.860108 -0.393727 -0.322454 center 0.153 0.018 -0.028 ntor 13 154.9972 98.4172 -140.3357 2.9059 -152.9808 55.7678 129.8837 -84.4909 64.1714 -9.7181 32.8229 -132.2587 -11.1117
State:	  0.010  -8.916  10.150  -0.037 -0.909 -0.416 -142.377    155.00   98.42 -140.34    2.91 -152.98   55.77  129.88  -84.49   64.17   -9.72   32.82 -132.26  -11.11

DOCKED: MODEL       11
DOCKED: USER    Run = 11
DOCKED: USER    DPF = D:/Protein_go_brrr/autodock/final/AncB/heme/dock.dpf
DOCKED: USER  
DOCKED: USER    Estimated Free Energy of Binding    =   -6.83 kcal/mol  [=(1)+(2)+(3)-(4)]
DOCKED: USER    Estimated Inhibition Constant, Ki   =    9.90 uM (micromolar)  [Temperature = 298.15 K]
DOCKED: USER    
DOCKED: USER    (1) Final Intermolecular Energy     =  -10.71 kcal/mol
DOCKED: USER        vdW + Hbond + desolv Energy     =  -10.17 kcal/mol
DOCKED: USER        Electrostatic Energy            =   -0.53 kcal/mol
DOCKED: USER    (2) Final Total Internal Energy     =   -2.31 kcal/mol
DOCKED: USER    (3) Torsional Free Energy           =   +3.88 kcal/mol
DOCKED: USER    (4) Unbound System's Energy  [=(2)] =   -2.31 kcal/mol
DOCKED: USER    
DOCKED: USER    
DOCKED: USER    NEWDPF move heme_opt.pdbqt
DOCKED: USER    NEWDPF about 0.153000 0.018000 -0.028000
DOCKED: USER    NEWDPF tran0 0.009706 -8.915916 10.150273
DOCKED: USER    NEWDPF quaternion0 -0.034887 -0.860108 -0.393727 -0.322454
DOCKED: USER    NEWDPF axisangle0 -0.036856 -0.908643 -0.415944 -142.377167
DOCKED: USER    NEWDPF quat0 -0.036856 -0.908643 -0.415944 -142.377167
DOCKED: USER    NEWDPF dihe0 155.00 98.42 -140.34 2.91 -152.98 55.77 129.88 -84.49 64.17 -9.72 32.82 -132.26 -11.11 
DOCKED: USER  keepresnum = 1 
DOCKED: USER  
DOCKED: REMARK  13 active torsions:
DOCKED: REMARK  status: ('A' for Active; 'I' for Inactive)
DOCKED: REMARK    1  A    between atoms: O_3  and  C_38 
DOCKED: REMARK    2  A    between atoms: O_4  and  C_40 
DOCKED: REMARK    3  A    between atoms: O_7  and  C_46 
DOCKED: REMARK    4  A    between atoms: O_9  and  C_48 
DOCKED: REMARK    5  A    between atoms: C_15  and  C_20 
DOCKED: REMARK    6  A    between atoms: C_16  and  C_23 
DOCKED: REMARK    7  A    between atoms: C_20  and  C_38 
DOCKED: REMARK    8  A    between atoms: C_23  and  C_40 
DOCKED: REMARK    9  A    between atoms: C_32  and  C_41 
DOCKED: REMARK   10  A    between atoms: C_37  and  C_45 
DOCKED: REMARK   11  A    between atoms: C_41  and  C_44 
DOCKED: REMARK   12  A    between atoms: C_44  and  C_46 
DOCKED: REMARK   13  A    between atoms: C_47  and  C_48 
DOCKED: USER                              x       y       z     vdW  Elec       q    Type
DOCKED: USER                           _______ _______ _______ _____ _____    ______ ____
DOCKED: ROOT
DOCKED: ATOM      1  O   UNL d   1       4.629  -6.213   7.677 -0.64 -0.04    -0.289 OA
DOCKED: ATOM      2  O   UNL d   1       1.419 -12.837   6.191 -0.04 -0.05    -0.289 OA
DOCKED: ATOM      3  N   UNL d   1       1.985  -7.460   9.508 +0.00 -0.02    -0.247 NA
DOCKED: ATOM      4  N   UNL d   1       1.224  -9.918   8.021 +0.05 -0.04    -0.247 NA
DOCKED: ATOM      5  N   UNL d   1      -1.212  -9.975   9.547 -0.05 -0.07    -0.354 N 
DOCKED: ATOM      6  N   UNL d   1      -0.424  -7.414  11.071 -0.17 -0.03    -0.354 N 
DOCKED: ATOM      7  C   UNL d   1       3.215  -5.341   9.470 -0.25 -0.01    +0.084 A 
DOCKED: ATOM      8  C   UNL d   1       2.966 -11.009   6.699 -0.08 +0.01    +0.084 A 
DOCKED: ATOM      9  C   UNL d   1       2.522  -9.829   7.569 -0.13 +0.01    +0.058 A 
DOCKED: ATOM     10  C   UNL d   1       2.093  -6.197  10.064 -0.25 -0.00    +0.058 A 
DOCKED: ATOM     11  C   UNL d   1       3.734  -6.351   8.492 -0.15 -0.00    +0.193 A 
DOCKED: ATOM     12  C   UNL d   1       2.923  -7.602   8.629 -0.13 +0.01    +0.109 A 
DOCKED: ATOM     13  C   UNL d   1       1.668 -11.767   6.710 -0.06 +0.03    +0.193 A 
DOCKED: ATOM     14  C   UNL d   1       2.671  -4.136   8.697 -0.48 -0.01    +0.026 C 
DOCKED: ATOM     15  C   UNL d   1       3.314  -8.776   7.824 -0.17 +0.01    +0.055 C 
DOCKED: ATOM     16  C   UNL d   1       4.036 -11.856   7.395 -0.05 +0.00    +0.026 C 
DOCKED: ATOM     17  C   UNL d   1       0.693 -10.996   7.539 -0.14 +0.02    +0.109 A 
DOCKED: ATOM     18  C   UNL d   1       1.351  -5.763  11.101 -0.23 +0.00    +0.050 C 
DOCKED: ATOM     19  C   UNL d   1       0.351  -6.515  11.768 -0.30 +0.00    +0.045 A 
DOCKED: ATOM     20  C   UNL d   1      -1.493 -10.943   8.618 -0.22 +0.01    +0.045 A 
DOCKED: ATOM     21  C   UNL d   1      -0.687 -11.478   7.695 -0.22 +0.01    +0.057 C 
DOCKED: ATOM     22  C   UNL d   1      -3.369 -10.544   9.859 -0.29 -0.01    -0.019 A 
DOCKED: ATOM     23  C   UNL d   1      -2.284  -9.666  10.341 -0.30 +0.01    +0.045 A 
DOCKED: ATOM     24  C   UNL d   1      -2.895 -11.298   8.839 -0.23 -0.01    -0.022 A 
DOCKED: ATOM     25  C   UNL d   1      -1.384  -7.962  11.889 -0.23 +0.01    +0.049 A 
DOCKED: ATOM     26  C   UNL d   1      -0.092  -6.506  13.082 -0.29 -0.00    -0.018 A 
DOCKED: ATOM     27  C   UNL d   1      -1.175  -7.436  13.157 -0.25 +0.00    +0.003 A 
DOCKED: ATOM     28  C   UNL d   1      -2.402  -8.800  11.359 -0.22 +0.01    +0.052 C 
DOCKED: ATOM     29  C   UNL d   1      -3.604 -12.337   8.038 -0.22 +0.02    +0.046 C 
DOCKED: ATOM     30  C   UNL d   1       0.456  -5.687  14.201 -0.29 -0.00    +0.046 C 
DOCKED: ATOM     31  H   UNL d   1      -0.273  -9.608   9.656 +0.06 +0.03    +0.166 HD
DOCKED: ATOM     32  H   UNL d   1      -0.313  -7.600  10.081 +0.12 +0.02    +0.166 HD
DOCKED: ENDROOT
DOCKED: BRANCH   7  33
DOCKED: ATOM     33  C   UNL d   1       4.316  -4.927  10.452 -0.19 -0.02    +0.141 C 
DOCKED: BRANCH  33  34
DOCKED: ATOM     34  C   UNL d   1       5.636  -5.586  10.153 -0.08 -0.04    +0.306 C 
DOCKED: ATOM     35  O   UNL d   1       6.091  -6.572  10.707 -0.04 -0.00    -0.251 OA
DOCKED: BRANCH  34  36
DOCKED: ATOM     36  O   UNL d   1       6.312  -4.967   9.169 -0.16 +0.17    -0.481 OA
DOCKED: ATOM     37  H   UNL d   1       5.617  -4.550   8.616 -0.29 -0.27    +0.295 HD
DOCKED: ENDBRANCH  34  36
DOCKED: ENDBRANCH  33  34
DOCKED: ENDBRANCH   7  33
DOCKED: BRANCH  27  38
DOCKED: ATOM     38  C   UNL d   1      -1.935  -7.725  14.336 -0.22 +0.00    +0.017 C 
DOCKED: ATOM     39  C   UNL d   1      -2.987  -7.016  14.772 -0.20 +0.01    +0.092 C 
DOCKED: BRANCH  39  40
DOCKED: ATOM     40  C   UNL d   1      -3.691  -7.429  15.989 -0.12 +0.02    +0.330 C 
DOCKED: ATOM     41  O   UNL d   1      -3.216  -7.634  17.089 -0.04 -0.00    -0.246 OA
DOCKED: BRANCH  40  42
DOCKED: ATOM     42  O   UNL d   1      -5.004  -7.555  15.742 -0.32 -0.07    -0.477 OA
DOCKED: ATOM     43  H   UNL d   1      -5.343  -6.638  15.798 -0.36 -0.20    +0.295 HD
DOCKED: ENDBRANCH  40  42
DOCKED: ENDBRANCH  39  40
DOCKED: ENDBRANCH  27  38
DOCKED: BRANCH   8  44
DOCKED: ATOM     44  C   UNL d   1       3.382 -10.655   5.268 -0.14 +0.01    +0.141 C 
DOCKED: BRANCH  44  45
DOCKED: ATOM     45  C   UNL d   1       2.287  -9.992   4.477 -0.21 +0.03    +0.306 C 
DOCKED: ATOM     46  O   UNL d   1       2.022  -8.802   4.459 -0.28 -0.03    -0.251 OA
DOCKED: BRANCH  45  47
DOCKED: ATOM     47  O   UNL d   1       1.559 -10.872   3.767 -0.13 -0.07    -0.481 OA
DOCKED: ATOM     48  H   UNL d   1       1.470 -11.652   4.355 +0.12 +0.05    +0.295 HD
DOCKED: ENDBRANCH  45  47
DOCKED: ENDBRANCH  44  45
DOCKED: ENDBRANCH   8  44
DOCKED: BRANCH  22  49
DOCKED: ATOM     49  C   UNL d   1      -4.760 -10.552  10.423 -0.34 +0.02    +0.048 C 
DOCKED: BRANCH  49  50
DOCKED: ATOM     50  C   UNL d   1      -4.931 -11.627  11.496 -0.21 +0.06    +0.125 C 
DOCKED: BRANCH  50  51
DOCKED: ATOM     51  C   UNL d   1      -6.323 -12.192  11.472 -0.18 +0.17    +0.305 C 
DOCKED: ATOM     52  O   UNL d   1      -7.294 -11.805  12.099 -0.76 -0.19    -0.251 OA
DOCKED: BRANCH  51  53
DOCKED: ATOM     53  O   UNL d   1      -6.422 -13.253  10.646 -0.13 -0.28    -0.481 OA
DOCKED: ATOM     54  H   UNL d   1      -7.370 -13.499  10.687 -0.05 +0.18    +0.295 HD
DOCKED: ENDBRANCH  51  53
DOCKED: ENDBRANCH  50  51
DOCKED: ENDBRANCH  49  50
DOCKED: ENDBRANCH  22  49
DOCKED: TORSDOF 13
DOCKED: TER
DOCKED: ENDMDL
________________________________________________________________________________


	BEGINNING GENETIC ALGORITHM DOCKING 12 of 100
Run: 12 Seed: 322265279 1217384281 [ Run 12 of 100 GA/GALS ]
Beginning LAMARCKIAN GENETIC ALGORITHM (LGA), with a maximum of 25000000 energy evaluations.

Final-Value: -11.271


	FINAL GENETIC ALGORITHM DOCKED STATE
	_______________________________________________


Detailed state:  trans -16.218 4.039 9.301 quatxyzw 0.453617 0.574613 -0.163562 0.661286 center 0.153 0.018 -0.028 ntor 13 -151.2328 56.8686 -8.8810 -75.7707 179.8189 -148.5530 -37.5068 -94.7038 -1.9280 157.1486 -147.9316 -76.1216 146.6131
State:	-16.218   4.039   9.301   0.605  0.766 -0.218 97.204   -151.23   56.87   -8.88  -75.77  179.82 -148.55  -37.51  -94.70   -1.93  157.15 -147.93  -76.12  146.61

DOCKED: MODEL       12
DOCKED: USER    Run = 12
DOCKED: USER    DPF = D:/Protein_go_brrr/autodock/final/AncB/heme/dock.dpf
DOCKED: USER  
DOCKED: USER    Estimated Free Energy of Binding    =   -5.69 kcal/mol  [=(1)+(2)+(3)-(4)]
DOCKED: USER    Estimated Inhibition Constant, Ki   =   67.96 uM (micromolar)  [Temperature = 298.15 K]
DOCKED: USER    
DOCKED: USER    (1) Final Intermolecular Energy     =   -9.56 kcal/mol
DOCKED: USER        vdW + Hbond + desolv Energy     =   -9.23 kcal/mol
DOCKED: USER        Electrostatic Energy            =   -0.33 kcal/mol
DOCKED: USER    (2) Final Total Internal Energy     =   -1.71 kcal/mol
DOCKED: USER    (3) Torsional Free Energy           =   +3.88 kcal/mol
DOCKED: USER    (4) Unbound System's Energy  [=(2)] =   -1.71 kcal/mol
DOCKED: USER    
DOCKED: USER    
DOCKED: USER    NEWDPF move heme_opt.pdbqt
DOCKED: USER    NEWDPF about 0.153000 0.018000 -0.028000
DOCKED: USER    NEWDPF tran0 -16.217796 4.039346 9.300699
DOCKED: USER    NEWDPF quaternion0 0.453617 0.574613 -0.163562 0.661286
DOCKED: USER    NEWDPF axisangle0 0.604715 0.766014 -0.218043 97.203984
DOCKED: USER    NEWDPF quat0 0.604715 0.766014 -0.218043 97.203984
DOCKED: USER    NEWDPF dihe0 -151.23 56.87 -8.88 -75.77 179.82 -148.55 -37.51 -94.70 -1.93 157.15 -147.93 -76.12 146.61 
DOCKED: USER  keepresnum = 1 
DOCKED: USER  
DOCKED: REMARK  13 active torsions:
DOCKED: REMARK  status: ('A' for Active; 'I' for Inactive)
DOCKED: REMARK    1  A    between atoms: O_3  and  C_38 
DOCKED: REMARK    2  A    between atoms: O_4  and  C_40 
DOCKED: REMARK    3  A    between atoms: O_7  and  C_46 
DOCKED: REMARK    4  A    between atoms: O_9  and  C_48 
DOCKED: REMARK    5  A    between atoms: C_15  and  C_20 
DOCKED: REMARK    6  A    between atoms: C_16  and  C_23 
DOCKED: REMARK    7  A    between atoms: C_20  and  C_38 
DOCKED: REMARK    8  A    between atoms: C_23  and  C_40 
DOCKED: REMARK    9  A    between atoms: C_32  and  C_41 
DOCKED: REMARK   10  A    between atoms: C_37  and  C_45 
DOCKED: REMARK   11  A    between atoms: C_41  and  C_44 
DOCKED: REMARK   12  A    between atoms: C_44  and  C_46 
DOCKED: REMARK   13  A    between atoms: C_47  and  C_48 
DOCKED: USER                              x       y       z     vdW  Elec       q    Type
DOCKED: USER                           _______ _______ _______ _____ _____    ______ ____
DOCKED: ROOT
DOCKED: ATOM      1  O   UNL d   1     -17.897   1.071   4.492 -0.16 -0.02    -0.289 OA
DOCKED: ATOM      2  O   UNL d   1     -17.022  -1.163  11.607 -0.10 -0.09    -0.289 OA
DOCKED: ATOM      3  N   UNL d   1     -16.747   3.165   6.979 -0.07 -0.03    -0.247 NA
DOCKED: ATOM      4  N   UNL d   1     -17.024   1.521   9.439 -0.11 -0.01    -0.247 NA
DOCKED: ATOM      5  N   UNL d   1     -16.619   3.917  10.975 -0.06 +0.03    -0.354 N 
DOCKED: ATOM      6  N   UNL d   1     -16.352   5.619   8.419 -0.08 -0.03    -0.354 N 
DOCKED: ATOM      7  C   UNL d   1     -17.368   3.454   4.626 -0.12 +0.01    +0.084 A 
DOCKED: ATOM      8  C   UNL d   1     -16.954  -0.907   9.174 -0.21 +0.02    +0.084 A 
DOCKED: ATOM      9  C   UNL d   1     -16.978   0.484   8.533 -0.16 +0.01    +0.058 A 
DOCKED: ATOM     10  C   UNL d   1     -16.870   4.069   5.937 -0.12 +0.01    +0.058 A 
DOCKED: ATOM     11  C   UNL d   1     -17.488   2.039   5.107 -0.13 +0.02    +0.193 A 
DOCKED: ATOM     12  C   UNL d   1     -17.058   1.989   6.540 -0.14 +0.01    +0.109 A 
DOCKED: ATOM     13  C   UNL d   1     -17.033  -0.470  10.609 -0.15 +0.04    +0.193 A 
DOCKED: ATOM     14  C   UNL d   1     -18.759   3.966   4.244 -0.06 +0.00    +0.026 C 
DOCKED: ATOM     15  C   UNL d   1     -17.004   0.671   7.205 -0.21 +0.00    +0.055 C 
DOCKED: ATOM     16  C   UNL d   1     -15.614  -1.614   8.948 -0.27 +0.01    +0.026 C 
DOCKED: ATOM     17  C   UNL d   1     -17.078   1.024  10.633 -0.21 +0.01    +0.109 A 
DOCKED: ATOM     18  C   UNL d   1     -16.504   5.362   6.013 -0.14 +0.01    +0.050 C 
DOCKED: ATOM     19  C   UNL d   1     -15.953   5.996   7.156 -0.18 +0.00    +0.045 A 
DOCKED: ATOM     20  C   UNL d   1     -16.998   3.058  11.974 -0.23 -0.00    +0.045 A 
DOCKED: ATOM     21  C   UNL d   1     -17.202   1.738  11.911 -0.27 +0.00    +0.057 C 
DOCKED: ATOM     22  C   UNL d   1     -16.847   5.169  12.834 -0.21 -0.00    -0.019 A 
DOCKED: ATOM     23  C   UNL d   1     -16.503   5.214  11.398 -0.19 +0.00    +0.045 A 
DOCKED: ATOM     24  C   UNL d   1     -17.138   3.890  13.169 -0.21 -0.00    -0.022 A 
DOCKED: ATOM     25  C   UNL d   1     -15.765   6.420   9.370 -0.21 +0.00    +0.049 A 
DOCKED: ATOM     26  C   UNL d   1     -15.056   7.044   7.292 -0.26 -0.00    -0.018 A 
DOCKED: ATOM     27  C   UNL d   1     -14.926   7.294   8.693 -0.25 +0.00    +0.003 A 
DOCKED: ATOM     28  C   UNL d   1     -16.143   6.325  10.737 -0.23 +0.00    +0.052 C 
DOCKED: ATOM     29  C   UNL d   1     -17.529   3.340  14.498 -0.21 +0.00    +0.046 C 
DOCKED: ATOM     30  C   UNL d   1     -14.360   7.768   6.190 -0.23 +0.00    +0.046 C 
DOCKED: ATOM     31  H   UNL d   1     -16.380   3.576  10.050 -0.30 -0.03    +0.166 HD
DOCKED: ATOM     32  H   UNL d   1     -17.019   4.878   8.598 +0.03 +0.01    +0.166 HD
DOCKED: ENDROOT
DOCKED: BRANCH   7  33
DOCKED: ATOM     33  C   UNL d   1     -16.393   3.541   3.447 -0.21 +0.03    +0.141 C 
DOCKED: BRANCH  33  34
DOCKED: ATOM     34  C   UNL d   1     -14.989   3.155   3.827 -0.27 +0.05    +0.306 C 
DOCKED: ATOM     35  O   UNL d   1     -13.986   3.825   3.652 -0.34 -0.04    -0.251 OA
DOCKED: BRANCH  34  36
DOCKED: ATOM     36  O   UNL d   1     -14.924   1.945   4.409 -0.13 -0.02    -0.481 OA
DOCKED: ATOM     37  H   UNL d   1     -15.703   1.461   4.061 +0.12 +0.02    +0.295 HD
DOCKED: ENDBRANCH  34  36
DOCKED: ENDBRANCH  33  34
DOCKED: ENDBRANCH   7  33
DOCKED: BRANCH  27  38
DOCKED: ATOM     38  C   UNL d   1     -14.104   8.311   9.276 -0.26 +0.00    +0.017 C 
DOCKED: ATOM     39  C   UNL d   1     -14.439   9.067  10.333 -0.27 +0.01    +0.092 C 
DOCKED: BRANCH  39  40
DOCKED: ATOM     40  C   UNL d   1     -13.497  10.065  10.846 -0.18 +0.06    +0.330 C 
DOCKED: ATOM     41  O   UNL d   1     -13.385  10.464  11.989 -0.19 -0.07    -0.246 OA
DOCKED: BRANCH  40  42
DOCKED: ATOM     42  O   UNL d   1     -12.713  10.513   9.853 -0.23 -0.06    -0.477 OA
DOCKED: ATOM     43  H   UNL d   1     -11.805  10.329  10.169 -0.45 +0.00    +0.295 HD
DOCKED: ENDBRANCH  40  42
DOCKED: ENDBRANCH  39  40
DOCKED: ENDBRANCH  27  38
DOCKED: BRANCH   8  44
DOCKED: ATOM     44  C   UNL d   1     -18.130  -1.821   8.813 -0.13 +0.04    +0.141 C 
DOCKED: BRANCH  44  45
DOCKED: ATOM     45  C   UNL d   1     -17.749  -2.939   7.880 -0.13 +0.10    +0.306 C 
DOCKED: ATOM     46  O   UNL d   1     -17.636  -2.868   6.668 -0.15 -0.03    -0.251 OA
DOCKED: BRANCH  45  47
DOCKED: ATOM     47  O   UNL d   1     -17.557  -4.104   8.524 -0.64 -0.51    -0.481 OA
DOCKED: ATOM     48  H   UNL d   1     -17.476  -4.772   7.810 -0.13 +0.08    +0.295 HD
DOCKED: ENDBRANCH  45  47
DOCKED: ENDBRANCH  44  45
DOCKED: ENDBRANCH   8  44
DOCKED: BRANCH  22  49
DOCKED: ATOM     49  C   UNL d   1     -16.874   6.371  13.732 -0.16 +0.00    +0.048 C 
DOCKED: BRANCH  49  50
DOCKED: ATOM     50  C   UNL d   1     -17.930   7.386  13.293 -0.04 +0.01    +0.125 C 
DOCKED: BRANCH  50  51
DOCKED: ATOM     51  C   UNL d   1     -19.119   6.695  12.688 +0.00 +0.01    +0.305 C 
DOCKED: ATOM     52  O   UNL d   1     -19.382   6.567  11.505 -0.00 -0.01    -0.251 OA
DOCKED: BRANCH  51  53
DOCKED: ATOM     53  O   UNL d   1     -19.945   6.197  13.629 +0.01 -0.02    -0.481 OA
DOCKED: ATOM     54  H   UNL d   1     -20.696   6.826  13.643 +0.01 +0.01    +0.295 HD
DOCKED: ENDBRANCH  51  53
DOCKED: ENDBRANCH  50  51
DOCKED: ENDBRANCH  49  50
DOCKED: ENDBRANCH  22  49
DOCKED: TORSDOF 13
DOCKED: TER
DOCKED: ENDMDL
________________________________________________________________________________


	BEGINNING GENETIC ALGORITHM DOCKING 13 of 100
Run: 13 Seed: 1549486585 1477941785 [ Run 13 of 100 GA/GALS ]
Beginning LAMARCKIAN GENETIC ALGORITHM (LGA), with a maximum of 25000000 energy evaluations.

Final-Value: -11.798


	FINAL GENETIC ALGORITHM DOCKED STATE
	_______________________________________________


Detailed state:  trans 18.784 4.235 -1.494 quatxyzw 0.552386 -0.087504 0.801510 0.211646 center 0.153 0.018 -0.028 ntor 13 110.7192 147.2653 -78.6427 49.6253 178.1959 88.8254 139.3927 106.5586 -13.5372 -56.3040 -76.4051 -105.9752 0.0912
State:	 18.784   4.235  -1.494   0.565 -0.090  0.820 155.562    110.72  147.27  -78.64   49.63  178.20   88.83  139.39  106.56  -13.54  -56.30  -76.41 -105.98    0.09

DOCKED: MODEL       13
DOCKED: USER    Run = 13
DOCKED: USER    DPF = D:/Protein_go_brrr/autodock/final/AncB/heme/dock.dpf
DOCKED: USER  
DOCKED: USER    Estimated Free Energy of Binding    =   -3.67 kcal/mol  [=(1)+(2)+(3)-(4)]
DOCKED: USER    Estimated Inhibition Constant, Ki   =    2.04 mM (millimolar)  [Temperature = 298.15 K]
DOCKED: USER    
DOCKED: USER    (1) Final Intermolecular Energy     =   -7.55 kcal/mol
DOCKED: USER        vdW + Hbond + desolv Energy     =   -7.46 kcal/mol
DOCKED: USER        Electrostatic Energy            =   -0.09 kcal/mol
DOCKED: USER    (2) Final Total Internal Energy     =   -4.25 kcal/mol
DOCKED: USER    (3) Torsional Free Energy           =   +3.88 kcal/mol
DOCKED: USER    (4) Unbound System's Energy  [=(2)] =   -4.25 kcal/mol
DOCKED: USER    
DOCKED: USER    
DOCKED: USER    NEWDPF move heme_opt.pdbqt
DOCKED: USER    NEWDPF about 0.153000 0.018000 -0.028000
DOCKED: USER    NEWDPF tran0 18.783931 4.234523 -1.494265
DOCKED: USER    NEWDPF quaternion0 0.552386 -0.087504 0.801510 0.211646
DOCKED: USER    NEWDPF axisangle0 0.565190 -0.089533 0.820088 155.562317
DOCKED: USER    NEWDPF quat0 0.565190 -0.089533 0.820088 155.562317
DOCKED: USER    NEWDPF dihe0 110.72 147.27 -78.64 49.63 178.20 88.83 139.39 106.56 -13.54 -56.30 -76.41 -105.98 0.09 
DOCKED: USER  keepresnum = 1 
DOCKED: USER  
DOCKED: REMARK  13 active torsions:
DOCKED: REMARK  status: ('A' for Active; 'I' for Inactive)
DOCKED: REMARK    1  A    between atoms: O_3  and  C_38 
DOCKED: REMARK    2  A    between atoms: O_4  and  C_40 
DOCKED: REMARK    3  A    between atoms: O_7  and  C_46 
DOCKED: REMARK    4  A    between atoms: O_9  and  C_48 
DOCKED: REMARK    5  A    between atoms: C_15  and  C_20 
DOCKED: REMARK    6  A    between atoms: C_16  and  C_23 
DOCKED: REMARK    7  A    between atoms: C_20  and  C_38 
DOCKED: REMARK    8  A    between atoms: C_23  and  C_40 
DOCKED: REMARK    9  A    between atoms: C_32  and  C_41 
DOCKED: REMARK   10  A    between atoms: C_37  and  C_45 
DOCKED: REMARK   11  A    between atoms: C_41  and  C_44 
DOCKED: REMARK   12  A    between atoms: C_44  and  C_46 
DOCKED: REMARK   13  A    between atoms: C_47  and  C_48 
DOCKED: USER                              x       y       z     vdW  Elec       q    Type
DOCKED: USER                           _______ _______ _______ _____ _____    ______ ____
DOCKED: ROOT
DOCKED: ATOM      1  O   UNL d   1      21.476   5.229  -6.644 -0.01 -0.10    -0.289 OA
DOCKED: ATOM      2  O   UNL d   1      16.949   9.583  -2.527 -0.27 -0.11    -0.289 OA
DOCKED: ATOM      3  N   UNL d   1      20.005   4.153  -3.716 -0.08 -0.08    -0.247 NA
DOCKED: ATOM      4  N   UNL d   1      18.682   6.602  -2.676 -0.10 -0.06    -0.247 NA
DOCKED: ATOM      5  N   UNL d   1      18.351   5.245  -0.163 -0.10 +0.01    -0.354 N 
DOCKED: ATOM      6  N   UNL d   1      19.743   2.715  -1.244 -0.07 -0.05    -0.354 N 
DOCKED: ATOM      7  C   UNL d   1      21.655   3.217  -5.268 -0.04 +0.02    +0.084 A 
DOCKED: ATOM      8  C   UNL d   1      18.039   8.304  -4.307 -0.27 +0.03    +0.084 A 
DOCKED: ATOM      9  C   UNL d   1      18.743   6.978  -3.999 -0.17 +0.02    +0.058 A 
DOCKED: ATOM     10  C   UNL d   1      20.830   3.074  -3.986 -0.09 +0.02    +0.058 A 
DOCKED: ATOM     11  C   UNL d   1      21.136   4.560  -5.686 -0.03 +0.07    +0.193 A 
DOCKED: ATOM     12  C   UNL d   1      20.124   5.010  -4.677 -0.09 +0.04    +0.109 A 
DOCKED: ATOM     13  C   UNL d   1      17.599   8.629  -2.907 -0.22 +0.06    +0.193 A 
DOCKED: ATOM     14  C   UNL d   1      23.153   3.333  -4.978 -0.01 +0.00    +0.026 C 
DOCKED: ATOM     15  C   UNL d   1      19.405   6.275  -4.930 -0.17 +0.03    +0.055 C 
DOCKED: ATOM     16  C   UNL d   1      16.796   8.098  -5.178 -0.56 +0.02    +0.026 C 
DOCKED: ATOM     17  C   UNL d   1      18.058   7.523  -2.014 -0.18 +0.02    +0.109 A 
DOCKED: ATOM     18  C   UNL d   1      20.859   1.945  -3.253 -0.10 +0.01    +0.050 C 
DOCKED: ATOM     19  C   UNL d   1      20.069   1.690  -2.103 +0.04 +0.01    +0.045 A 
DOCKED: ATOM     20  C   UNL d   1      17.985   6.513   0.205 -0.18 +0.00    +0.045 A 
DOCKED: ATOM     21  C   UNL d   1      17.805   7.590  -0.567 -0.07 +0.01    +0.057 C 
DOCKED: ATOM     22  C   UNL d   1      18.086   5.203   2.073 -0.19 -0.00    -0.019 A 
DOCKED: ATOM     23  C   UNL d   1      18.440   4.383   0.898 -0.23 +0.00    +0.045 A 
DOCKED: ATOM     24  C   UNL d   1      17.817   6.463   1.656 -0.19 -0.00    -0.022 A 
DOCKED: ATOM     25  C   UNL d   1      19.055   2.232  -0.155 -0.23 +0.00    +0.049 A 
DOCKED: ATOM     26  C   UNL d   1      19.549   0.517  -1.578 -0.09 -0.00    -0.018 A 
DOCKED: ATOM     27  C   UNL d   1      18.893   0.869  -0.358 -0.26 +0.00    +0.003 A 
DOCKED: ATOM     28  C   UNL d   1      18.746   3.077   0.945 -0.24 +0.00    +0.052 C 
DOCKED: ATOM     29  C   UNL d   1      17.404   7.645   2.466 -0.13 +0.01    +0.046 C 
DOCKED: ATOM     30  C   UNL d   1      19.652  -0.847  -2.171 -0.24 +0.01    +0.046 C 
DOCKED: ATOM     31  H   UNL d   1      18.458   4.990  -1.139 -0.09 -0.00    +0.166 HD
DOCKED: ATOM     32  H   UNL d   1      20.017   3.679  -1.392 +0.04 +0.02    +0.166 HD
DOCKED: ENDROOT
DOCKED: BRANCH   7  33
DOCKED: ATOM     33  C   UNL d   1      21.371   2.171  -6.352 -0.05 +0.04    +0.141 C 
DOCKED: BRANCH  33  34
DOCKED: ATOM     34  C   UNL d   1      19.928   1.746  -6.383 -0.09 +0.13    +0.306 C 
DOCKED: ATOM     35  O   UNL d   1      19.513   0.600  -6.344 -0.15 -0.10    -0.251 OA
DOCKED: BRANCH  34  36
DOCKED: ATOM     36  O   UNL d   1      19.082   2.789  -6.460 -0.06 -0.36    -0.481 OA
DOCKED: ATOM     37  H   UNL d   1      19.126   3.208  -5.574 +0.10 +0.20    +0.295 HD
DOCKED: ENDBRANCH  34  36
DOCKED: ENDBRANCH  33  34
DOCKED: ENDBRANCH   7  33
DOCKED: BRANCH  27  38
DOCKED: ATOM     38  C   UNL d   1      18.230  -0.051   0.517 -0.36 +0.00    +0.017 C 
DOCKED: ATOM     39  C   UNL d   1      18.656  -0.400   1.740 -0.19 +0.00    +0.092 C 
DOCKED: BRANCH  39  40
DOCKED: ATOM     40  C   UNL d   1      17.873  -1.342   2.545 -0.13 +0.01    +0.330 C 
DOCKED: ATOM     41  O   UNL d   1      17.931  -2.557   2.533 -0.11 -0.01    -0.246 OA
DOCKED: BRANCH  40  42
DOCKED: ATOM     42  O   UNL d   1      17.038  -0.674   3.355 -0.09 -0.01    -0.477 OA
DOCKED: ATOM     43  H   UNL d   1      17.527   0.146   3.572 +0.09 +0.01    +0.295 HD
DOCKED: ENDBRANCH  40  42
DOCKED: ENDBRANCH  39  40
DOCKED: ENDBRANCH  27  38
DOCKED: BRANCH   8  44
DOCKED: ATOM     44  C   UNL d   1      18.934   9.412  -4.872 -0.17 +0.04    +0.141 C 
DOCKED: BRANCH  44  45
DOCKED: ATOM     45  C   UNL d   1      19.237  10.497  -3.874 -0.13 +0.10    +0.306 C 
DOCKED: ATOM     46  O   UNL d   1      20.223  10.575  -3.162 -0.04 -0.06    -0.251 OA
DOCKED: BRANCH  45  47
DOCKED: ATOM     47  O   UNL d   1      18.262  11.421  -3.807 -0.63 -0.31    -0.481 OA
DOCKED: ATOM     48  H   UNL d   1      17.749  11.182  -3.006 +0.09 +0.18    +0.295 HD
DOCKED: ENDBRANCH  45  47
DOCKED: ENDBRANCH  44  45
DOCKED: ENDBRANCH   8  44
DOCKED: BRANCH  22  49
DOCKED: ATOM     49  C   UNL d   1      18.060   4.689   3.483 -0.13 +0.00    +0.048 C 
DOCKED: BRANCH  49  50
DOCKED: ATOM     50  C   UNL d   1      16.741   3.987   3.807 -0.19 +0.01    +0.125 C 
DOCKED: BRANCH  50  51
DOCKED: ATOM     51  C   UNL d   1      16.917   2.496   3.824 -0.13 +0.01    +0.305 C 
DOCKED: ATOM     52  O   UNL d   1      17.045   1.773   4.797 -0.09 -0.02    -0.251 OA
DOCKED: BRANCH  51  53
DOCKED: ATOM     53  O   UNL d   1      16.934   1.976   2.580 -0.05 +0.06    -0.481 OA
DOCKED: ATOM     54  H   UNL d   1      16.298   1.232   2.625 -0.34 -0.07    +0.295 HD
DOCKED: ENDBRANCH  51  53
DOCKED: ENDBRANCH  50  51
DOCKED: ENDBRANCH  49  50
DOCKED: ENDBRANCH  22  49
DOCKED: TORSDOF 13
DOCKED: TER
DOCKED: ENDMDL
________________________________________________________________________________


	BEGINNING GENETIC ALGORITHM DOCKING 14 of 100
Run: 14 Seed: 1846495762 1029285398 [ Run 14 of 100 GA/GALS ]
Beginning LAMARCKIAN GENETIC ALGORITHM (LGA), with a maximum of 25000000 energy evaluations.

Final-Value: -10.808


	FINAL GENETIC ALGORITHM DOCKED STATE
	_______________________________________________


Detailed state:  trans -4.658 1.959 -12.479 quatxyzw -0.180688 0.750509 -0.378073 0.511028 center 0.153 0.018 -0.028 ntor 13 155.7035 86.4735 -170.9274 92.0132 -141.0083 64.6914 139.2835 98.6858 16.8804 -11.9449 140.2558 -10.8009 -180.0000
State:	 -4.658   1.959 -12.479  -0.210  0.873 -0.440 118.535    155.70   86.47 -170.93   92.01 -141.01   64.69  139.28   98.69   16.88  -11.94  140.26  -10.80 -180.00

DOCKED: MODEL       14
DOCKED: USER    Run = 14
DOCKED: USER    DPF = D:/Protein_go_brrr/autodock/final/AncB/heme/dock.dpf
DOCKED: USER  
DOCKED: USER    Estimated Free Energy of Binding    =   -4.16 kcal/mol  [=(1)+(2)+(3)-(4)]
DOCKED: USER    Estimated Inhibition Constant, Ki   =  886.61 uM (micromolar)  [Temperature = 298.15 K]
DOCKED: USER    
DOCKED: USER    (1) Final Intermolecular Energy     =   -8.04 kcal/mol
DOCKED: USER        vdW + Hbond + desolv Energy     =   -7.40 kcal/mol
DOCKED: USER        Electrostatic Energy            =   -0.65 kcal/mol
DOCKED: USER    (2) Final Total Internal Energy     =   -2.77 kcal/mol
DOCKED: USER    (3) Torsional Free Energy           =   +3.88 kcal/mol
DOCKED: USER    (4) Unbound System's Energy  [=(2)] =   -2.77 kcal/mol
DOCKED: USER    
DOCKED: USER    
DOCKED: USER    NEWDPF move heme_opt.pdbqt
DOCKED: USER    NEWDPF about 0.153000 0.018000 -0.028000
DOCKED: USER    NEWDPF tran0 -4.658290 1.959111 -12.478695
DOCKED: USER    NEWDPF quaternion0 -0.180688 0.750509 -0.378073 0.511028
DOCKED: USER    NEWDPF axisangle0 -0.210209 0.873127 -0.439842 118.535340
DOCKED: USER    NEWDPF quat0 -0.210209 0.873127 -0.439842 118.535340
DOCKED: USER    NEWDPF dihe0 155.70 86.47 -170.93 92.01 -141.01 64.69 139.28 98.69 16.88 -11.94 140.26 -10.80 -180.00 
DOCKED: USER  keepresnum = 1 
DOCKED: USER  
DOCKED: REMARK  13 active torsions:
DOCKED: REMARK  status: ('A' for Active; 'I' for Inactive)
DOCKED: REMARK    1  A    between atoms: O_3  and  C_38 
DOCKED: REMARK    2  A    between atoms: O_4  and  C_40 
DOCKED: REMARK    3  A    between atoms: O_7  and  C_46 
DOCKED: REMARK    4  A    between atoms: O_9  and  C_48 
DOCKED: REMARK    5  A    between atoms: C_15  and  C_20 
DOCKED: REMARK    6  A    between atoms: C_16  and  C_23 
DOCKED: REMARK    7  A    between atoms: C_20  and  C_38 
DOCKED: REMARK    8  A    between atoms: C_23  and  C_40 
DOCKED: REMARK    9  A    between atoms: C_32  and  C_41 
DOCKED: REMARK   10  A    between atoms: C_37  and  C_45 
DOCKED: REMARK   11  A    between atoms: C_41  and  C_44 
DOCKED: REMARK   12  A    between atoms: C_44  and  C_46 
DOCKED: REMARK   13  A    between atoms: C_47  and  C_48 
DOCKED: USER                              x       y       z     vdW  Elec       q    Type
DOCKED: USER                           _______ _______ _______ _____ _____    ______ ____
DOCKED: ROOT
DOCKED: ATOM      1  O   UNL d   1      -3.864   1.921 -18.320 +0.00 -0.20    -0.289 OA
DOCKED: ATOM      2  O   UNL d   1       0.620  -0.304 -12.722 -0.15 -0.20    -0.289 OA
DOCKED: ATOM      3  N   UNL d   1      -4.714   2.267 -14.996 -0.51 -0.46    -0.247 NA
DOCKED: ATOM      4  N   UNL d   1      -2.514   0.861 -13.578 -0.13 -0.38    -0.247 NA
DOCKED: ATOM      5  N   UNL d   1      -4.127   0.930 -11.199 -0.10 -0.34    -0.354 N 
DOCKED: ATOM      6  N   UNL d   1      -6.413   2.371 -12.682 -0.07 -0.35    -0.354 N 
DOCKED: ATOM      7  C   UNL d   1      -5.869   2.643 -17.124 -0.02 +0.07    +0.084 A 
DOCKED: ATOM      8  C   UNL d   1      -0.355   0.731 -14.715 -0.11 +0.08    +0.084 A 
DOCKED: ATOM      9  C   UNL d   1      -1.835   1.127 -14.746 -0.13 +0.08    +0.058 A 
DOCKED: ATOM     10  C   UNL d   1      -5.898   2.667 -15.593 -0.06 +0.07    +0.058 A 
DOCKED: ATOM     11  C   UNL d   1      -4.455   2.176 -17.287 -0.02 +0.18    +0.193 A 
DOCKED: ATOM     12  C   UNL d   1      -3.854   2.008 -15.925 -0.02 +0.17    +0.109 A 
DOCKED: ATOM     13  C   UNL d   1      -0.329   0.157 -13.326 -0.12 +0.18    +0.193 A 
DOCKED: ATOM     14  C   UNL d   1      -6.811   1.582 -17.700 +0.00 +0.02    +0.026 C 
DOCKED: ATOM     15  C   UNL d   1      -2.426   1.640 -15.836 -0.09 +0.07    +0.055 C 
DOCKED: ATOM     16  C   UNL d   1       0.562   1.957 -14.758 -0.20 +0.02    +0.026 C 
DOCKED: ATOM     17  C   UNL d   1      -1.701   0.289 -12.749 -0.19 +0.14    +0.109 A 
DOCKED: ATOM     18  C   UNL d   1      -6.966   3.131 -14.917 -0.08 +0.05    +0.050 C 
DOCKED: ATOM     19  C   UNL d   1      -7.050   3.269 -13.508 -0.08 +0.04    +0.045 A 
DOCKED: ATOM     20  C   UNL d   1      -3.126   0.093 -10.780 -0.27 +0.04    +0.045 A 
DOCKED: ATOM     21  C   UNL d   1      -1.989  -0.231 -11.404 -0.28 +0.06    +0.057 C 
DOCKED: ATOM     22  C   UNL d   1      -4.753   0.156  -9.178 -0.31 -0.01    -0.019 A 
DOCKED: ATOM     23  C   UNL d   1      -5.154   1.031 -10.298 -0.22 +0.03    +0.045 A 
DOCKED: ATOM     24  C   UNL d   1      -3.551  -0.396  -9.469 -0.31 -0.01    -0.022 A 
DOCKED: ATOM     25  C   UNL d   1      -6.701   2.637 -11.364 -0.12 +0.04    +0.049 A 
DOCKED: ATOM     26  C   UNL d   1      -7.739   4.165 -12.705 -0.11 -0.01    -0.018 A 
DOCKED: ATOM     27  C   UNL d   1      -7.500   3.773 -11.352 -0.14 +0.00    +0.003 A 
DOCKED: ATOM     28  C   UNL d   1      -6.285   1.752 -10.333 -0.23 +0.03    +0.052 C 
DOCKED: ATOM     29  C   UNL d   1      -2.733  -1.334  -8.649 -0.34 +0.02    +0.046 C 
DOCKED: ATOM     30  C   UNL d   1      -8.569   5.316 -13.164 -0.07 +0.03    +0.046 C 
DOCKED: ATOM     31  H   UNL d   1      -4.042   1.464 -12.057 +0.04 +0.21    +0.166 HD
DOCKED: ATOM     32  H   UNL d   1      -5.848   1.601 -13.022 +0.02 +0.18    +0.166 HD
DOCKED: ENDROOT
DOCKED: BRANCH   7  33
DOCKED: ATOM     33  C   UNL d   1      -6.068   4.001 -17.807 -0.02 +0.10    +0.141 C 
DOCKED: BRANCH  33  34
DOCKED: ATOM     34  C   UNL d   1      -4.953   4.967 -17.510 -0.03 +0.31    +0.306 C 
DOCKED: ATOM     35  O   UNL d   1      -4.885   5.716 -16.550 -0.57 -0.41    -0.251 OA
DOCKED: BRANCH  34  36
DOCKED: ATOM     36  O   UNL d   1      -3.981   4.937 -18.439 -0.01 -0.36    -0.481 OA
DOCKED: ATOM     37  H   UNL d   1      -4.023   4.031 -18.811 +0.01 +0.19    +0.295 HD
DOCKED: ENDBRANCH  34  36
DOCKED: ENDBRANCH  33  34
DOCKED: ENDBRANCH   7  33
DOCKED: BRANCH  27  38
DOCKED: ATOM     38  C   UNL d   1      -8.040   4.423 -10.196 -0.21 +0.01    +0.017 C 
DOCKED: ATOM     39  C   UNL d   1      -7.487   4.416  -8.974 -0.25 +0.04    +0.092 C 
DOCKED: BRANCH  39  40
DOCKED: ATOM     40  C   UNL d   1      -8.134   5.138  -7.876 -0.23 +0.10    +0.330 C 
DOCKED: ATOM     41  O   UNL d   1      -9.231   4.931  -7.394 -0.16 -0.07    -0.246 OA
DOCKED: BRANCH  40  42
DOCKED: ATOM     42  O   UNL d   1      -7.327   6.111  -7.424 -0.18 -0.10    -0.477 OA
DOCKED: ATOM     43  H   UNL d   1      -6.846   5.692  -6.682 -0.30 -0.02    +0.295 HD
DOCKED: ENDBRANCH  40  42
DOCKED: ENDBRANCH  39  40
DOCKED: ENDBRANCH  27  38
DOCKED: BRANCH   8  44
DOCKED: ATOM     44  C   UNL d   1       0.070  -0.317 -15.749 -0.08 +0.11    +0.141 C 
DOCKED: BRANCH  44  45
DOCKED: ATOM     45  C   UNL d   1      -0.636  -1.636 -15.584 -0.07 +0.38    +0.306 C 
DOCKED: ATOM     46  O   UNL d   1      -1.639  -2.001 -16.171 -0.34 -0.42    -0.251 OA
DOCKED: BRANCH  45  47
DOCKED: ATOM     47  O   UNL d   1      -0.051  -2.420 -14.661 -0.06 -0.53    -0.481 OA
DOCKED: ATOM     48  H   UNL d   1       0.623  -1.847 -14.239 +0.11 +0.24    +0.295 HD
DOCKED: ENDBRANCH  45  47
DOCKED: ENDBRANCH  44  45
DOCKED: ENDBRANCH   8  44
DOCKED: BRANCH  22  49
DOCKED: ATOM     49  C   UNL d   1      -5.581  -0.069  -7.947 -0.32 +0.01    +0.048 C 
DOCKED: BRANCH  49  50
DOCKED: ATOM     50  C   UNL d   1      -6.416  -1.345  -8.049 -0.17 +0.05    +0.125 C 
DOCKED: BRANCH  50  51
DOCKED: ATOM     51  C   UNL d   1      -6.960  -1.521  -9.439 -0.11 +0.14    +0.305 C 
DOCKED: ATOM     52  O   UNL d   1      -6.458  -2.140 -10.360 -0.11 -0.17    -0.251 OA
DOCKED: BRANCH  51  53
DOCKED: ATOM     53  O   UNL d   1      -8.134  -0.880  -9.606 -0.00 -0.19    -0.481 OA
DOCKED: ATOM     54  H   UNL d   1      -8.806  -1.539  -9.330 +0.08 +0.10    +0.295 HD
DOCKED: ENDBRANCH  51  53
DOCKED: ENDBRANCH  50  51
DOCKED: ENDBRANCH  49  50
DOCKED: ENDBRANCH  22  49
DOCKED: TORSDOF 13
DOCKED: TER
DOCKED: ENDMDL
________________________________________________________________________________


	BEGINNING GENETIC ALGORITHM DOCKING 15 of 100
Run: 15 Seed: 1226120298 1424255573 [ Run 15 of 100 GA/GALS ]
Beginning LAMARCKIAN GENETIC ALGORITHM (LGA), with a maximum of 25000000 energy evaluations.

Final-Value: -12.376


	FINAL GENETIC ALGORITHM DOCKED STATE
	_______________________________________________


Detailed state:  trans -16.699 4.294 9.501 quatxyzw -0.590579 -0.060560 -0.720035 0.359304 center 0.153 0.018 -0.028 ntor 13 149.6358 174.3524 -84.5235 19.9430 30.4543 105.0311 171.3786 -0.5999 -149.7261 -108.9123 -71.9342 -132.6476 15.4133
State:	-16.699   4.294   9.501  -0.633 -0.065 -0.772 137.885    149.64  174.35  -84.52   19.94   30.45  105.03  171.38   -0.60 -149.73 -108.91  -71.93 -132.65   15.41

DOCKED: MODEL       15
DOCKED: USER    Run = 15
DOCKED: USER    DPF = D:/Protein_go_brrr/autodock/final/AncB/heme/dock.dpf
DOCKED: USER  
DOCKED: USER    Estimated Free Energy of Binding    =   -4.86 kcal/mol  [=(1)+(2)+(3)-(4)]
DOCKED: USER    Estimated Inhibition Constant, Ki   =  274.31 uM (micromolar)  [Temperature = 298.15 K]
DOCKED: USER    
DOCKED: USER    (1) Final Intermolecular Energy     =   -8.74 kcal/mol
DOCKED: USER        vdW + Hbond + desolv Energy     =   -8.37 kcal/mol
DOCKED: USER        Electrostatic Energy            =   -0.37 kcal/mol
DOCKED: USER    (2) Final Total Internal Energy     =   -3.64 kcal/mol
DOCKED: USER    (3) Torsional Free Energy           =   +3.88 kcal/mol
DOCKED: USER    (4) Unbound System's Energy  [=(2)] =   -3.64 kcal/mol
DOCKED: USER    
DOCKED: USER    
DOCKED: USER    NEWDPF move heme_opt.pdbqt
DOCKED: USER    NEWDPF about 0.153000 0.018000 -0.028000
DOCKED: USER    NEWDPF tran0 -16.699168 4.293795 9.501359
DOCKED: USER    NEWDPF quaternion0 -0.590579 -0.060560 -0.720035 0.359304
DOCKED: USER    NEWDPF axisangle0 -0.632839 -0.064894 -0.771559 137.885045
DOCKED: USER    NEWDPF quat0 -0.632839 -0.064894 -0.771559 137.885045
DOCKED: USER    NEWDPF dihe0 149.64 174.35 -84.52 19.94 30.45 105.03 171.38 -0.60 -149.73 -108.91 -71.93 -132.65 15.41 
DOCKED: USER  keepresnum = 1 
DOCKED: USER  
DOCKED: REMARK  13 active torsions:
DOCKED: REMARK  status: ('A' for Active; 'I' for Inactive)
DOCKED: REMARK    1  A    between atoms: O_3  and  C_38 
DOCKED: REMARK    2  A    between atoms: O_4  and  C_40 
DOCKED: REMARK    3  A    between atoms: O_7  and  C_46 
DOCKED: REMARK    4  A    between atoms: O_9  and  C_48 
DOCKED: REMARK    5  A    between atoms: C_15  and  C_20 
DOCKED: REMARK    6  A    between atoms: C_16  and  C_23 
DOCKED: REMARK    7  A    between atoms: C_20  and  C_38 
DOCKED: REMARK    8  A    between atoms: C_23  and  C_40 
DOCKED: REMARK    9  A    between atoms: C_32  and  C_41 
DOCKED: REMARK   10  A    between atoms: C_37  and  C_45 
DOCKED: REMARK   11  A    between atoms: C_41  and  C_44 
DOCKED: REMARK   12  A    between atoms: C_44  and  C_46 
DOCKED: REMARK   13  A    between atoms: C_47  and  C_48 
DOCKED: USER                              x       y       z     vdW  Elec       q    Type
DOCKED: USER                           _______ _______ _______ _____ _____    ______ ____
DOCKED: ROOT
DOCKED: ATOM      1  O   UNL d   1     -16.625  -0.470   6.029 -0.24 +0.01    -0.289 OA
DOCKED: ATOM      2  O   UNL d   1     -15.832   6.821   4.412 -0.05 -0.03    -0.289 OA
DOCKED: ATOM      3  N   UNL d   1     -16.880   2.011   8.412 +0.04 -0.02    -0.247 NA
DOCKED: ATOM      4  N   UNL d   1     -16.133   4.470   6.921 -0.10 -0.03    -0.247 NA
DOCKED: ATOM      5  N   UNL d   1     -15.890   5.818   9.449 -0.06 -0.02    -0.354 N 
DOCKED: ATOM      6  N   UNL d   1     -16.646   3.257  10.989 -0.08 +0.04    -0.354 N 
DOCKED: ATOM      7  C   UNL d   1     -16.866  -0.440   8.461 -0.20 +0.01    +0.084 A 
DOCKED: ATOM      8  C   UNL d   1     -16.505   4.469   4.505 -0.13 +0.01    +0.084 A 
DOCKED: ATOM      9  C   UNL d   1     -16.514   3.710   5.837 -0.16 +0.01    +0.058 A 
DOCKED: ATOM     10  C   UNL d   1     -16.945   0.888   9.220 -0.17 +0.00    +0.058 A 
DOCKED: ATOM     11  C   UNL d   1     -16.764   0.131   7.079 -0.16 +0.01    +0.193 A 
DOCKED: ATOM     12  C   UNL d   1     -16.809   1.624   7.180 -0.07 +0.01    +0.109 A 
DOCKED: ATOM     13  C   UNL d   1     -16.014   5.789   5.029 -0.08 +0.02    +0.193 A 
DOCKED: ATOM     14  C   UNL d   1     -15.579  -1.207   8.777 -0.36 +0.01    +0.026 C 
DOCKED: ATOM     15  C   UNL d   1     -16.816   2.406   5.927 -0.22 +0.00    +0.055 C 
DOCKED: ATOM     16  C   UNL d   1     -17.920   4.656   3.949 -0.08 +0.00    +0.026 C 
DOCKED: ATOM     17  C   UNL d   1     -15.820   5.655   6.504 -0.16 +0.01    +0.109 A 
DOCKED: ATOM     18  C   UNL d   1     -17.151   0.927  10.550 -0.25 +0.00    +0.050 C 
DOCKED: ATOM     19  C   UNL d   1     -17.321   2.104  11.322 -0.20 +0.00    +0.045 A 
DOCKED: ATOM     20  C   UNL d   1     -15.350   6.768   8.622 -0.23 +0.00    +0.045 A 
DOCKED: ATOM     21  C   UNL d   1     -15.299   6.786   7.286 -0.26 +0.00    +0.057 C 
DOCKED: ATOM     22  C   UNL d   1     -15.066   7.429  10.790 -0.29 -0.00    -0.019 A 
DOCKED: ATOM     23  C   UNL d   1     -15.766   6.128  10.776 -0.24 +0.00    +0.045 A 
DOCKED: ATOM     24  C   UNL d   1     -14.824   7.803   9.512 -0.29 -0.00    -0.022 A 
DOCKED: ATOM     25  C   UNL d   1     -16.885   4.242  11.918 -0.20 -0.00    +0.049 A 
DOCKED: ATOM     26  C   UNL d   1     -18.045   2.358  12.476 -0.12 -0.00    -0.018 A 
DOCKED: ATOM     27  C   UNL d   1     -17.782   3.716  12.837 -0.14 +0.00    +0.003 A 
DOCKED: ATOM     28  C   UNL d   1     -16.176   5.473  11.874 -0.28 +0.00    +0.052 C 
DOCKED: ATOM     29  C   UNL d   1     -14.156   9.038   9.012 -0.35 +0.00    +0.046 C 
DOCKED: ATOM     30  C   UNL d   1     -18.931   1.401  13.200 -0.08 +0.00    +0.046 C 
DOCKED: ATOM     31  H   UNL d   1     -16.393   5.020   9.075 +0.03 +0.01    +0.166 HD
DOCKED: ATOM     32  H   UNL d   1     -16.030   3.334  10.188 -0.47 -0.05    +0.166 HD
DOCKED: ENDROOT
DOCKED: BRANCH   7  33
DOCKED: ATOM     33  C   UNL d   1     -18.101  -1.340   8.582 -0.11 +0.03    +0.141 C 
DOCKED: BRANCH  33  34
DOCKED: ATOM     34  C   UNL d   1     -17.900  -2.471   9.553 -0.06 +0.16    +0.306 C 
DOCKED: ATOM     35  O   UNL d   1     -18.058  -2.421  10.761 -0.08 -0.14    -0.251 OA
DOCKED: BRANCH  34  36
DOCKED: ATOM     36  O   UNL d   1     -17.513  -3.609   8.950 -0.50 -0.52    -0.481 OA
DOCKED: ATOM     37  H   UNL d   1     -17.955  -3.587   8.074 +0.10 +0.14    +0.295 HD
DOCKED: ENDBRANCH  34  36
DOCKED: ENDBRANCH  33  34
DOCKED: ENDBRANCH   7  33
DOCKED: BRANCH  27  38
DOCKED: ATOM     38  C   UNL d   1     -18.322   4.385  13.982 -0.12 +0.00    +0.017 C 
DOCKED: ATOM     39  C   UNL d   1     -17.814   4.328  15.223 -0.14 +0.00    +0.092 C 
DOCKED: BRANCH  39  40
DOCKED: ATOM     40  C   UNL d   1     -18.453   5.076  16.308 -0.06 -0.00    +0.330 C 
DOCKED: ATOM     41  O   UNL d   1     -19.173   4.642  17.187 -0.05 +0.00    -0.246 OA
DOCKED: BRANCH  40  42
DOCKED: ATOM     42  O   UNL d   1     -18.129   6.376  16.226 -0.04 -0.02    -0.477 OA
DOCKED: ATOM     43  H   UNL d   1     -17.473   6.409  15.500 +0.03 +0.03    +0.295 HD
DOCKED: ENDBRANCH  40  42
DOCKED: ENDBRANCH  39  40
DOCKED: ENDBRANCH  27  38
DOCKED: BRANCH   8  44
DOCKED: ATOM     44  C   UNL d   1     -15.558   3.915   3.436 -0.29 +0.03    +0.141 C 
DOCKED: BRANCH  44  45
DOCKED: ATOM     45  C   UNL d   1     -15.193   4.928   2.383 -0.18 +0.09    +0.306 C 
DOCKED: ATOM     46  O   UNL d   1     -14.068   5.236   2.030 -0.31 -0.07    -0.251 OA
DOCKED: BRANCH  45  47
DOCKED: ATOM     47  O   UNL d   1     -16.273   5.524   1.846 -0.04 -0.17    -0.481 OA
DOCKED: ATOM     48  H   UNL d   1     -16.385   6.349   2.365 +0.07 +0.07    +0.295 HD
DOCKED: ENDBRANCH  45  47
DOCKED: ENDBRANCH  44  45
DOCKED: ENDBRANCH   8  44
DOCKED: BRANCH  22  49
DOCKED: ATOM     49  C   UNL d   1     -14.690   8.170  12.039 -0.13 -0.00    +0.048 C 
DOCKED: BRANCH  49  50
DOCKED: ATOM     50  C   UNL d   1     -15.920   8.688  12.785 -0.09 +0.01    +0.125 C 
DOCKED: BRANCH  50  51
DOCKED: ATOM     51  C   UNL d   1     -16.141   7.918  14.056 -0.09 +0.03    +0.305 C 
DOCKED: ATOM     52  O   UNL d   1     -15.545   6.926  14.436 -0.63 -0.05    -0.251 OA
DOCKED: BRANCH  51  53
DOCKED: ATOM     53  O   UNL d   1     -17.137   8.443  14.797 -0.03 -0.04    -0.481 OA
DOCKED: ATOM     54  H   UNL d   1     -16.979   8.085  15.696 +0.03 +0.04    +0.295 HD
DOCKED: ENDBRANCH  51  53
DOCKED: ENDBRANCH  50  51
DOCKED: ENDBRANCH  49  50
DOCKED: ENDBRANCH  22  49
DOCKED: TORSDOF 13
DOCKED: TER
DOCKED: ENDMDL
________________________________________________________________________________


	BEGINNING GENETIC ALGORITHM DOCKING 16 of 100
Run: 16 Seed: 1767089740 1304557412 [ Run 16 of 100 GA/GALS ]
Beginning LAMARCKIAN GENETIC ALGORITHM (LGA), with a maximum of 25000000 energy evaluations.

Final-Value: -11.587


	FINAL GENETIC ALGORITHM DOCKED STATE
	_______________________________________________


Detailed state:  trans -17.103 3.115 6.938 quatxyzw 0.361648 -0.663292 0.382657 0.531815 center 0.153 0.018 -0.028 ntor 13 -117.4113 153.5498 5.3474 -57.9695 29.7051 -34.1872 120.8159 50.3534 131.7946 10.7431 -25.8574 -4.4975 -2.1031
State:	-17.103   3.115   6.938   0.427 -0.783  0.452 115.744   -117.41  153.55    5.35  -57.97   29.71  -34.19  120.82   50.35  131.79   10.74  -25.86   -4.50   -2.10

DOCKED: MODEL       16
DOCKED: USER    Run = 16
DOCKED: USER    DPF = D:/Protein_go_brrr/autodock/final/AncB/heme/dock.dpf
DOCKED: USER  
DOCKED: USER    Estimated Free Energy of Binding    =   -4.69 kcal/mol  [=(1)+(2)+(3)-(4)]
DOCKED: USER    Estimated Inhibition Constant, Ki   =  362.38 uM (micromolar)  [Temperature = 298.15 K]
DOCKED: USER    
DOCKED: USER    (1) Final Intermolecular Energy     =   -8.57 kcal/mol
DOCKED: USER        vdW + Hbond + desolv Energy     =   -8.47 kcal/mol
DOCKED: USER        Electrostatic Energy            =   -0.10 kcal/mol
DOCKED: USER    (2) Final Total Internal Energy     =   -3.01 kcal/mol
DOCKED: USER    (3) Torsional Free Energy           =   +3.88 kcal/mol
DOCKED: USER    (4) Unbound System's Energy  [=(2)] =   -3.01 kcal/mol
DOCKED: USER    
DOCKED: USER    
DOCKED: USER    NEWDPF move heme_opt.pdbqt
DOCKED: USER    NEWDPF about 0.153000 0.018000 -0.028000
DOCKED: USER    NEWDPF tran0 -17.103440 3.115021 6.937732
DOCKED: USER    NEWDPF quaternion0 0.361648 -0.663292 0.382657 0.531815
DOCKED: USER    NEWDPF axisangle0 0.427046 -0.783237 0.451854 115.743650
DOCKED: USER    NEWDPF quat0 0.427046 -0.783237 0.451854 115.743650
DOCKED: USER    NEWDPF dihe0 -117.41 153.55 5.35 -57.97 29.71 -34.19 120.82 50.35 131.79 10.74 -25.86 -4.50 -2.10 
DOCKED: USER  keepresnum = 1 
DOCKED: USER  
DOCKED: REMARK  13 active torsions:
DOCKED: REMARK  status: ('A' for Active; 'I' for Inactive)
DOCKED: REMARK    1  A    between atoms: O_3  and  C_38 
DOCKED: REMARK    2  A    between atoms: O_4  and  C_40 
DOCKED: REMARK    3  A    between atoms: O_7  and  C_46 
DOCKED: REMARK    4  A    between atoms: O_9  and  C_48 
DOCKED: REMARK    5  A    between atoms: C_15  and  C_20 
DOCKED: REMARK    6  A    between atoms: C_16  and  C_23 
DOCKED: REMARK    7  A    between atoms: C_20  and  C_38 
DOCKED: REMARK    8  A    between atoms: C_23  and  C_40 
DOCKED: REMARK    9  A    between atoms: C_32  and  C_41 
DOCKED: REMARK   10  A    between atoms: C_37  and  C_45 
DOCKED: REMARK   11  A    between atoms: C_41  and  C_44 
DOCKED: REMARK   12  A    between atoms: C_44  and  C_46 
DOCKED: REMARK   13  A    between atoms: C_47  and  C_48 
DOCKED: USER                              x       y       z     vdW  Elec       q    Type
DOCKED: USER                           _______ _______ _______ _____ _____    ______ ____
DOCKED: ROOT
DOCKED: ATOM      1  O   UNL d   1     -15.620   8.764   7.745 -0.08 -0.02    -0.289 OA
DOCKED: ATOM      2  O   UNL d   1     -17.843   3.506  12.624 -0.07 -0.01    -0.289 OA
DOCKED: ATOM      3  N   UNL d   1     -16.526   5.579   6.776 -0.07 -0.02    -0.247 NA
DOCKED: ATOM      4  N   UNL d   1     -16.943   4.172   9.360 -0.08 -0.00    -0.247 NA
DOCKED: ATOM      5  N   UNL d   1     -16.945   1.693   7.904 -0.01 -0.03    -0.354 N 
DOCKED: ATOM      6  N   UNL d   1     -16.493   3.160   5.230 -0.08 -0.04    -0.354 N 
DOCKED: ATOM      7  C   UNL d   1     -15.578   7.530   5.635 -0.13 +0.01    +0.084 A 
DOCKED: ATOM      8  C   UNL d   1     -17.558   5.539  11.291 -0.08 +0.00    +0.084 A 
DOCKED: ATOM      9  C   UNL d   1     -17.127   5.456   9.822 -0.12 +0.00    +0.058 A 
DOCKED: ATOM     10  C   UNL d   1     -16.068   6.081   5.569 -0.12 +0.01    +0.058 A 
DOCKED: ATOM     11  C   UNL d   1     -15.857   7.766   7.088 -0.09 +0.01    +0.193 A 
DOCKED: ATOM     12  C   UNL d   1     -16.454   6.518   7.663 -0.11 +0.01    +0.109 A 
DOCKED: ATOM     13  C   UNL d   1     -17.548   4.065  11.586 -0.09 +0.00    +0.193 A 
DOCKED: ATOM     14  C   UNL d   1     -14.070   7.638   5.396 -0.29 +0.00    +0.026 C 
DOCKED: ATOM     15  C   UNL d   1     -16.899   6.545   9.071 -0.13 +0.00    +0.055 C 
DOCKED: ATOM     16  C   UNL d   1     -18.991   6.060  11.434 -0.03 +0.00    +0.026 C 
DOCKED: ATOM     17  C   UNL d   1     -17.152   3.349  10.336 -0.13 -0.00    +0.109 A 
DOCKED: ATOM     18  C   UNL d   1     -16.122   5.408   4.404 -0.16 +0.01    +0.050 C 
DOCKED: ATOM     19  C   UNL d   1     -16.637   4.098   4.234 -0.16 +0.01    +0.045 A 
DOCKED: ATOM     20  C   UNL d   1     -16.904   1.213   9.187 -0.12 +0.00    +0.045 A 
DOCKED: ATOM     21  C   UNL d   1     -17.014   1.885  10.337 -0.23 +0.00    +0.057 C 
DOCKED: ATOM     22  C   UNL d   1     -16.648  -0.533   7.736 -0.25 -0.00    -0.019 A 
DOCKED: ATOM     23  C   UNL d   1     -16.798   0.713   6.959 -0.21 +0.00    +0.045 A 
DOCKED: ATOM     24  C   UNL d   1     -16.712  -0.231   9.054 -0.25 -0.00    -0.022 A 
DOCKED: ATOM     25  C   UNL d   1     -16.981   1.941   4.821 -0.25 +0.00    +0.049 A 
DOCKED: ATOM     26  C   UNL d   1     -17.268   3.483   3.163 -0.17 -0.00    -0.018 A 
DOCKED: ATOM     27  C   UNL d   1     -17.501   2.126   3.547 -0.21 +0.00    +0.003 A 
DOCKED: ATOM     28  C   UNL d   1     -16.802   0.778   5.618 -0.32 +0.00    +0.052 C 
DOCKED: ATOM     29  C   UNL d   1     -16.625  -1.148  10.227 -0.07 +0.01    +0.046 C 
DOCKED: ATOM     30  C   UNL d   1     -17.636   4.116   1.864 -0.13 +0.02    +0.046 C 
DOCKED: ATOM     31  H   UNL d   1     -17.146   2.669   7.714 +0.04 +0.01    +0.166 HD
DOCKED: ATOM     32  H   UNL d   1     -16.047   3.351   6.120 +0.07 +0.02    +0.166 HD
DOCKED: ENDROOT
DOCKED: BRANCH   7  33
DOCKED: ATOM     33  C   UNL d   1     -16.357   8.527   4.769 -0.05 +0.01    +0.141 C 
DOCKED: BRANCH  33  34
DOCKED: ATOM     34  C   UNL d   1     -15.832   9.932   4.890 -0.04 +0.02    +0.306 C 
DOCKED: ATOM     35  O   UNL d   1     -14.894  10.406   4.272 -0.09 -0.01    -0.251 OA
DOCKED: BRANCH  34  36
DOCKED: ATOM     36  O   UNL d   1     -16.520  10.667   5.781 -0.00 -0.02    -0.481 OA
DOCKED: ATOM     37  H   UNL d   1     -16.413  10.188   6.631 +0.04 +0.02    +0.295 HD
DOCKED: ENDBRANCH  34  36
DOCKED: ENDBRANCH  33  34
DOCKED: ENDBRANCH   7  33
DOCKED: BRANCH  27  38
DOCKED: ATOM     38  C   UNL d   1     -18.120   1.131   2.725 -0.04 +0.00    +0.017 C 
DOCKED: ATOM     39  C   UNL d   1     -18.880   0.120   3.173 -0.19 +0.00    +0.092 C 
DOCKED: BRANCH  39  40
DOCKED: ATOM     40  C   UNL d   1     -19.472  -0.825   2.223 -0.11 -0.01    +0.330 C 
DOCKED: ATOM     41  O   UNL d   1     -19.909  -0.587   1.113 -0.13 -0.01    -0.246 OA
DOCKED: BRANCH  40  42
DOCKED: ATOM     42  O   UNL d   1     -19.473  -2.063   2.741 -0.05 +0.07    -0.477 OA
DOCKED: ATOM     43  H   UNL d   1     -18.723  -2.053   3.371 -0.47 -0.11    +0.295 HD
DOCKED: ENDBRANCH  40  42
DOCKED: ENDBRANCH  39  40
DOCKED: ENDBRANCH  27  38
DOCKED: BRANCH   8  44
DOCKED: ATOM     44  C   UNL d   1     -16.599   6.291  12.219 -0.16 +0.01    +0.141 C 
DOCKED: BRANCH  44  45
DOCKED: ATOM     45  C   UNL d   1     -15.148   6.030  11.913 -0.17 +0.03    +0.306 C 
DOCKED: ATOM     46  O   UNL d   1     -14.502   6.504  10.994 -0.49 -0.04    -0.251 OA
DOCKED: BRANCH  45  47
DOCKED: ATOM     47  O   UNL d   1     -14.590   5.158  12.772 -0.23 -0.09    -0.481 OA
DOCKED: ATOM     48  H   UNL d   1     -13.643   5.130  12.516 -0.41 +0.11    +0.295 HD
DOCKED: ENDBRANCH  45  47
DOCKED: ENDBRANCH  44  45
DOCKED: ENDBRANCH   8  44
DOCKED: BRANCH  22  49
DOCKED: ATOM     49  C   UNL d   1     -16.442  -1.888   7.125 -0.39 +0.01    +0.048 C 
DOCKED: BRANCH  49  50
DOCKED: ATOM     50  C   UNL d   1     -17.768  -2.551   6.753 -0.20 +0.01    +0.125 C 
DOCKED: BRANCH  50  51
DOCKED: ATOM     51  C   UNL d   1     -17.577  -3.552   5.650 -0.21 -0.01    +0.305 C 
DOCKED: ATOM     52  O   UNL d   1     -16.691  -4.383   5.545 -0.50 -0.01    -0.251 OA
DOCKED: BRANCH  51  53
DOCKED: ATOM     53  O   UNL d   1     -18.528  -3.446   4.701 -0.05 +0.05    -0.481 OA
DOCKED: ATOM     54  H   UNL d   1     -18.026  -3.270   3.878 -0.41 -0.13    +0.295 HD
DOCKED: ENDBRANCH  51  53
DOCKED: ENDBRANCH  50  51
DOCKED: ENDBRANCH  49  50
DOCKED: ENDBRANCH  22  49
DOCKED: TORSDOF 13
DOCKED: TER
DOCKED: ENDMDL
________________________________________________________________________________


	BEGINNING GENETIC ALGORITHM DOCKING 17 of 100
Run: 17 Seed: 1599232611 1039349582 [ Run 17 of 100 GA/GALS ]
Beginning LAMARCKIAN GENETIC ALGORITHM (LGA), with a maximum of 25000000 energy evaluations.

Final-Value: -10.815


	FINAL GENETIC ALGORITHM DOCKED STATE
	_______________________________________________


Detailed state:  trans -8.575 15.537 7.024 quatxyzw -0.293952 0.610716 0.700151 -0.224517 center 0.153 0.018 -0.028 ntor 13 -22.4261 -179.9225 -88.3227 -116.4120 21.5934 69.6766 127.7463 -36.6554 107.5558 -29.5333 93.2207 -3.4918 166.0554
State:	 -8.575  15.537   7.024  -0.302  0.627  0.718 -154.051    -22.43 -179.92  -88.32 -116.41   21.59   69.68  127.75  -36.66  107.56  -29.53   93.22   -3.49  166.06

DOCKED: MODEL       17
DOCKED: USER    Run = 17
DOCKED: USER    DPF = D:/Protein_go_brrr/autodock/final/AncB/heme/dock.dpf
DOCKED: USER  
DOCKED: USER    Estimated Free Energy of Binding    =   -4.95 kcal/mol  [=(1)+(2)+(3)-(4)]
DOCKED: USER    Estimated Inhibition Constant, Ki   =  236.26 uM (micromolar)  [Temperature = 298.15 K]
DOCKED: USER    
DOCKED: USER    (1) Final Intermolecular Energy     =   -8.83 kcal/mol
DOCKED: USER        vdW + Hbond + desolv Energy     =   -8.52 kcal/mol
DOCKED: USER        Electrostatic Energy            =   -0.30 kcal/mol
DOCKED: USER    (2) Final Total Internal Energy     =   -1.99 kcal/mol
DOCKED: USER    (3) Torsional Free Energy           =   +3.88 kcal/mol
DOCKED: USER    (4) Unbound System's Energy  [=(2)] =   -1.99 kcal/mol
DOCKED: USER    
DOCKED: USER    
DOCKED: USER    NEWDPF move heme_opt.pdbqt
DOCKED: USER    NEWDPF about 0.153000 0.018000 -0.028000
DOCKED: USER    NEWDPF tran0 -8.575412 15.536609 7.023994
DOCKED: USER    NEWDPF quaternion0 -0.293952 0.610716 0.700151 -0.224517
DOCKED: USER    NEWDPF axisangle0 -0.301653 0.626715 0.718494 -154.051097
DOCKED: USER    NEWDPF quat0 -0.301653 0.626715 0.718494 -154.051097
DOCKED: USER    NEWDPF dihe0 -22.43 -179.92 -88.32 -116.41 21.59 69.68 127.75 -36.66 107.56 -29.53 93.22 -3.49 166.06 
DOCKED: USER  keepresnum = 1 
DOCKED: USER  
DOCKED: REMARK  13 active torsions:
DOCKED: REMARK  status: ('A' for Active; 'I' for Inactive)
DOCKED: REMARK    1  A    between atoms: O_3  and  C_38 
DOCKED: REMARK    2  A    between atoms: O_4  and  C_40 
DOCKED: REMARK    3  A    between atoms: O_7  and  C_46 
DOCKED: REMARK    4  A    between atoms: O_9  and  C_48 
DOCKED: REMARK    5  A    between atoms: C_15  and  C_20 
DOCKED: REMARK    6  A    between atoms: C_16  and  C_23 
DOCKED: REMARK    7  A    between atoms: C_20  and  C_38 
DOCKED: REMARK    8  A    between atoms: C_23  and  C_40 
DOCKED: REMARK    9  A    between atoms: C_32  and  C_41 
DOCKED: REMARK   10  A    between atoms: C_37  and  C_45 
DOCKED: REMARK   11  A    between atoms: C_41  and  C_44 
DOCKED: REMARK   12  A    between atoms: C_44  and  C_46 
DOCKED: REMARK   13  A    between atoms: C_47  and  C_48 
DOCKED: USER                              x       y       z     vdW  Elec       q    Type
DOCKED: USER                           _______ _______ _______ _____ _____    ______ ____
DOCKED: ROOT
DOCKED: ATOM      1  O   UNL d   1      -5.726  16.168  12.146 -0.07 +0.04    -0.289 OA
DOCKED: ATOM      2  O   UNL d   1      -3.165  14.839   5.213 -0.44 +0.13    -0.289 OA
DOCKED: ATOM      3  N   UNL d   1      -7.813  15.735   9.435 -0.16 -0.01    -0.247 NA
DOCKED: ATOM      4  N   UNL d   1      -5.930  15.576   7.142 -0.07 +0.09    -0.247 NA
DOCKED: ATOM      5  N   UNL d   1      -8.182  15.922   5.388 -0.04 +0.13    -0.354 N 
DOCKED: ATOM      6  N   UNL d   1     -10.126  16.106   7.773 -0.10 +0.01    -0.354 N 
DOCKED: ATOM      7  C   UNL d   1      -8.136  16.361  11.783 -0.11 +0.02    +0.084 A 
DOCKED: ATOM      8  C   UNL d   1      -3.663  14.794   7.610 -0.36 -0.02    +0.084 A 
DOCKED: ATOM      9  C   UNL d   1      -5.043  15.209   8.129 -0.28 -0.01    +0.058 A 
DOCKED: ATOM     10  C   UNL d   1      -8.739  16.093  10.401 -0.15 +0.01    +0.058 A 
DOCKED: ATOM     11  C   UNL d   1      -6.707  16.073  11.431 -0.11 +0.01    +0.193 A 
DOCKED: ATOM     12  C   UNL d   1      -6.646  15.680   9.988 -0.20 +0.00    +0.109 A 
DOCKED: ATOM     13  C   UNL d   1      -3.919  15.030   6.148 -0.25 -0.06    +0.193 A 
DOCKED: ATOM     14  C   UNL d   1      -8.259  17.832  12.188 -0.04 +0.00    +0.026 C 
DOCKED: ATOM     15  C   UNL d   1      -5.342  15.258   9.437 -0.31 -0.01    +0.055 C 
DOCKED: ATOM     16  C   UNL d   1      -3.398  13.302   7.829 -0.45 -0.00    +0.026 C 
DOCKED: ATOM     17  C   UNL d   1      -5.326  15.509   5.999 -0.14 -0.04    +0.109 A 
DOCKED: ATOM     18  C   UNL d   1     -10.069  16.122  10.197 -0.16 +0.01    +0.050 C 
DOCKED: ATOM     19  C   UNL d   1     -10.722  15.806   8.978 -0.17 +0.00    +0.045 A 
DOCKED: ATOM     20  C   UNL d   1      -7.158  16.056   4.486 -0.20 -0.02    +0.045 A 
DOCKED: ATOM     21  C   UNL d   1      -5.848  15.865   4.672 -0.28 -0.03    +0.057 C 
DOCKED: ATOM     22  C   UNL d   1      -9.130  16.547   3.443 -0.11 +0.00    -0.019 A 
DOCKED: ATOM     23  C   UNL d   1      -9.411  16.199   4.850 -0.15 -0.01    +0.045 A 
DOCKED: ATOM     24  C   UNL d   1      -7.795  16.460   3.233 -0.19 +0.01    -0.022 A 
DOCKED: ATOM     25  C   UNL d   1     -10.967  15.799   6.729 -0.17 -0.00    +0.049 A 
DOCKED: ATOM     26  C   UNL d   1     -11.966  15.257   8.708 -0.17 -0.00    -0.018 A 
DOCKED: ATOM     27  C   UNL d   1     -12.107  15.237   7.286 -0.17 -0.00    +0.003 A 
DOCKED: ATOM     28  C   UNL d   1     -10.636  16.164   5.395 -0.14 -0.01    +0.052 C 
DOCKED: ATOM     29  C   UNL d   1      -7.030  16.703   1.977 -0.11 -0.03    +0.046 C 
DOCKED: ATOM     30  C   UNL d   1     -12.963  14.778   9.708 -0.14 +0.01    +0.046 C 
DOCKED: ATOM     31  H   UNL d   1      -8.015  15.574   6.326 -0.40 -0.08    +0.166 HD
DOCKED: ATOM     32  H   UNL d   1      -9.211  16.532   7.692 +0.03 -0.01    +0.166 HD
DOCKED: ENDROOT
DOCKED: BRANCH   7  33
DOCKED: ATOM     33  C   UNL d   1      -8.613  15.428  12.900 -0.10 +0.10    +0.141 C 
DOCKED: BRANCH  33  34
DOCKED: ATOM     34  C   UNL d   1      -7.621  15.317  14.026 -0.09 +0.09    +0.306 C 
DOCKED: ATOM     35  O   UNL d   1      -7.414  16.154  14.888 -0.08 +0.06    -0.251 OA
DOCKED: BRANCH  34  36
DOCKED: ATOM     36  O   UNL d   1      -6.944  14.156  14.008 -0.64 -0.15    -0.481 OA
DOCKED: ATOM     37  H   UNL d   1      -6.104  14.352  14.476 -0.47 -0.40    +0.295 HD
DOCKED: ENDBRANCH  34  36
DOCKED: ENDBRANCH  33  34
DOCKED: ENDBRANCH   7  33
DOCKED: BRANCH  27  38
DOCKED: ATOM     38  C   UNL d   1     -13.257  14.761   6.578 -0.13 -0.00    +0.017 C 
DOCKED: ATOM     39  C   UNL d   1     -13.233  14.152   5.382 -0.02 -0.02    +0.092 C 
DOCKED: BRANCH  39  40
DOCKED: ATOM     40  C   UNL d   1     -14.483  13.695   4.771 -0.05 -0.03    +0.330 C 
DOCKED: ATOM     41  O   UNL d   1     -15.396  14.377   4.345 -0.01 +0.01    -0.246 OA
DOCKED: BRANCH  40  42
DOCKED: ATOM     42  O   UNL d   1     -14.508  12.354   4.719 -0.05 +0.05    -0.477 OA
DOCKED: ATOM     43  H   UNL d   1     -13.655  12.088   5.120 -0.49 -0.09    +0.295 HD
DOCKED: ENDBRANCH  40  42
DOCKED: ENDBRANCH  39  40
DOCKED: ENDBRANCH  27  38
DOCKED: BRANCH   8  44
DOCKED: ATOM     44  C   UNL d   1      -2.488  15.644   8.105 -0.25 -0.03    +0.141 C 
DOCKED: BRANCH  44  45
DOCKED: ATOM     45  C   UNL d   1      -2.348  16.951   7.370 -0.11 -0.09    +0.306 C 
DOCKED: ATOM     46  O   UNL d   1      -2.951  17.984   7.604 -0.03 +0.07    -0.251 OA
DOCKED: BRANCH  45  47
DOCKED: ATOM     47  O   UNL d   1      -1.470  16.878   6.354 -0.25 +0.22    -0.481 OA
DOCKED: ATOM     48  H   UNL d   1      -2.010  16.622   5.577 +0.10 -0.18    +0.295 HD
DOCKED: ENDBRANCH  45  47
DOCKED: ENDBRANCH  44  45
DOCKED: ENDBRANCH   8  44
DOCKED: BRANCH  22  49
DOCKED: ATOM     49  C   UNL d   1     -10.181  16.944   2.448 -0.04 -0.01    +0.048 C 
DOCKED: BRANCH  49  50
DOCKED: ATOM     50  C   UNL d   1     -10.546  18.423   2.565 -0.01 -0.02    +0.125 C 
DOCKED: BRANCH  50  51
DOCKED: ATOM     51  C   UNL d   1     -11.608  18.632   3.608 -0.00 -0.02    +0.305 C 
DOCKED: ATOM     52  O   UNL d   1     -12.608  17.962   3.795 -0.00 +0.01    -0.251 OA
DOCKED: BRANCH  51  53
DOCKED: ATOM     53  O   UNL d   1     -11.356  19.712   4.375 +0.00 +0.03    -0.481 OA
DOCKED: ATOM     54  H   UNL d   1     -11.388  20.463   3.746 +0.00 -0.01    +0.295 HD
DOCKED: ENDBRANCH  51  53
DOCKED: ENDBRANCH  50  51
DOCKED: ENDBRANCH  49  50
DOCKED: ENDBRANCH  22  49
DOCKED: TORSDOF 13
DOCKED: TER
DOCKED: ENDMDL
________________________________________________________________________________


	BEGINNING GENETIC ALGORITHM DOCKING 18 of 100
Run: 18 Seed: 1004666693 346596015 [ Run 18 of 100 GA/GALS ]
Beginning LAMARCKIAN GENETIC ALGORITHM (LGA), with a maximum of 25000000 energy evaluations.

Final-Value: -11.597


	FINAL GENETIC ALGORITHM DOCKED STATE
	_______________________________________________


Detailed state:  trans 6.817 -14.100 -2.428 quatxyzw 0.444760 -0.102603 0.581777 -0.673199 center 0.153 0.018 -0.028 ntor 13 180.0000 -136.7800 129.2764 -68.8540 52.0931 75.3840 -4.4169 111.9965 159.3983 18.7122 91.7681 -150.7857 161.3337
State:	  6.817 -14.100  -2.428   0.601 -0.139  0.787 -95.371    180.00 -136.78  129.28  -68.85   52.09   75.38   -4.42  112.00  159.40   18.71   91.77 -150.79  161.33

DOCKED: MODEL       18
DOCKED: USER    Run = 18
DOCKED: USER    DPF = D:/Protein_go_brrr/autodock/final/AncB/heme/dock.dpf
DOCKED: USER  
DOCKED: USER    Estimated Free Energy of Binding    =   -5.90 kcal/mol  [=(1)+(2)+(3)-(4)]
DOCKED: USER    Estimated Inhibition Constant, Ki   =   47.25 uM (micromolar)  [Temperature = 298.15 K]
DOCKED: USER    
DOCKED: USER    (1) Final Intermolecular Energy     =   -9.78 kcal/mol
DOCKED: USER        vdW + Hbond + desolv Energy     =   -8.65 kcal/mol
DOCKED: USER        Electrostatic Energy            =   -1.13 kcal/mol
DOCKED: USER    (2) Final Total Internal Energy     =   -1.82 kcal/mol
DOCKED: USER    (3) Torsional Free Energy           =   +3.88 kcal/mol
DOCKED: USER    (4) Unbound System's Energy  [=(2)] =   -1.82 kcal/mol
DOCKED: USER    
DOCKED: USER    
DOCKED: USER    NEWDPF move heme_opt.pdbqt
DOCKED: USER    NEWDPF about 0.153000 0.018000 -0.028000
DOCKED: USER    NEWDPF tran0 6.817006 -14.100007 -2.428485
DOCKED: USER    NEWDPF quaternion0 0.444760 -0.102603 0.581777 -0.673199
DOCKED: USER    NEWDPF axisangle0 0.601465 -0.138754 0.786757 -95.371115
DOCKED: USER    NEWDPF quat0 0.601465 -0.138754 0.786757 -95.371115
DOCKED: USER    NEWDPF dihe0 180.00 -136.78 129.28 -68.85 52.09 75.38 -4.42 112.00 159.40 18.71 91.77 -150.79 161.33 
DOCKED: USER  keepresnum = 1 
DOCKED: USER  
DOCKED: REMARK  13 active torsions:
DOCKED: REMARK  status: ('A' for Active; 'I' for Inactive)
DOCKED: REMARK    1  A    between atoms: O_3  and  C_38 
DOCKED: REMARK    2  A    between atoms: O_4  and  C_40 
DOCKED: REMARK    3  A    between atoms: O_7  and  C_46 
DOCKED: REMARK    4  A    between atoms: O_9  and  C_48 
DOCKED: REMARK    5  A    between atoms: C_15  and  C_20 
DOCKED: REMARK    6  A    between atoms: C_16  and  C_23 
DOCKED: REMARK    7  A    between atoms: C_20  and  C_38 
DOCKED: REMARK    8  A    between atoms: C_23  and  C_40 
DOCKED: REMARK    9  A    between atoms: C_32  and  C_41 
DOCKED: REMARK   10  A    between atoms: C_37  and  C_45 
DOCKED: REMARK   11  A    between atoms: C_41  and  C_44 
DOCKED: REMARK   12  A    between atoms: C_44  and  C_46 
DOCKED: REMARK   13  A    between atoms: C_47  and  C_48 
DOCKED: USER                              x       y       z     vdW  Elec       q    Type
DOCKED: USER                           _______ _______ _______ _____ _____    ______ ____
DOCKED: ROOT
DOCKED: ATOM      1  O   UNL d   1       3.891 -18.571  -4.920 -0.17 +0.24    -0.289 OA
DOCKED: ATOM      2  O   UNL d   1       9.654 -14.453  -7.415 -0.03 +0.06    -0.289 OA
DOCKED: ATOM      3  N   UNL d   1       5.207 -15.927  -3.139 -0.14 +0.04    -0.247 NA
DOCKED: ATOM      4  N   UNL d   1       7.581 -15.137  -4.742 -0.10 +0.07    -0.247 NA
DOCKED: ATOM      5  N   UNL d   1       8.456 -13.563  -2.501 -0.13 +0.20    -0.354 N 
DOCKED: ATOM      6  N   UNL d   1       6.000 -14.403  -0.837 -0.06 +0.04    -0.354 N 
DOCKED: ATOM      7  C   UNL d   1       3.516 -17.643  -2.690 -0.18 -0.02    +0.084 A 
DOCKED: ATOM      8  C   UNL d   1       7.535 -15.647  -7.132 -0.15 -0.04    +0.084 A 
DOCKED: ATOM      9  C   UNL d   1       6.882 -15.763  -5.750 -0.22 -0.02    +0.058 A 
DOCKED: ATOM     10  C   UNL d   1       4.309 -16.424  -2.209 -0.17 -0.01    +0.058 A 
DOCKED: ATOM     11  C   UNL d   1       4.111 -17.735  -4.062 -0.19 -0.08    +0.193 A 
DOCKED: ATOM     12  C   UNL d   1       5.103 -16.625  -4.222 -0.24 -0.03    +0.109 A 
DOCKED: ATOM     13  C   UNL d   1       8.753 -14.872  -6.714 -0.07 -0.05    +0.193 A 
DOCKED: ATOM     14  C   UNL d   1       3.877 -18.908  -1.908 -0.08 -0.00    +0.026 C 
DOCKED: ATOM     15  C   UNL d   1       5.754 -16.458  -5.537 -0.34 -0.03    +0.055 C 
DOCKED: ATOM     16  C   UNL d   1       6.703 -14.781  -8.083 -0.30 -0.01    +0.026 C 
DOCKED: ATOM     17  C   UNL d   1       8.664 -14.634  -5.242 -0.14 -0.04    +0.109 A 
DOCKED: ATOM     18  C   UNL d   1       4.066 -15.854  -1.014 -0.17 -0.00    +0.050 C 
DOCKED: ATOM     19  C   UNL d   1       4.689 -14.678  -0.522 -0.17 -0.00    +0.045 A 
DOCKED: ATOM     20  C   UNL d   1       9.576 -13.496  -3.288 -0.21 -0.03    +0.045 A 
DOCKED: ATOM     21  C   UNL d   1       9.748 -13.930  -4.540 -0.20 -0.03    +0.057 C 
DOCKED: ATOM     22  C   UNL d   1      10.038 -12.543  -1.264 -0.24 +0.01    -0.019 A 
DOCKED: ATOM     23  C   UNL d   1       8.638 -13.013  -1.260 -0.28 -0.03    +0.045 A 
DOCKED: ATOM     24  C   UNL d   1      10.587 -12.830  -2.467 -0.16 +0.02    -0.022 A 
DOCKED: ATOM     25  C   UNL d   1       6.426 -13.269  -0.185 -0.23 -0.01    +0.049 A 
DOCKED: ATOM     26  C   UNL d   1       4.240 -13.678   0.327 -0.22 -0.00    -0.018 A 
DOCKED: ATOM     27  C   UNL d   1       5.335 -12.781   0.521 -0.30 -0.00    +0.003 A 
DOCKED: ATOM     28  C   UNL d   1       7.790 -12.872  -0.229 -0.31 -0.03    +0.052 C 
DOCKED: ATOM     29  C   UNL d   1      11.967 -12.544  -2.955 -0.07 -0.04    +0.046 C 
DOCKED: ATOM     30  C   UNL d   1       2.878 -13.560   0.921 -0.17 +0.01    +0.046 C 
DOCKED: ATOM     31  H   UNL d   1       7.578 -13.917  -2.865 +0.06 -0.06    +0.166 HD
DOCKED: ATOM     32  H   UNL d   1       6.568 -14.991  -1.436 +0.05 -0.03    +0.166 HD
DOCKED: ENDROOT
DOCKED: BRANCH   7  33
DOCKED: ATOM     33  C   UNL d   1       1.998 -17.447  -2.773 -0.28 -0.03    +0.141 C 
DOCKED: BRANCH  33  34
DOCKED: ATOM     34  C   UNL d   1       1.238 -18.735  -2.605 -0.13 -0.05    +0.306 C 
DOCKED: ATOM     35  O   UNL d   1       0.603 -19.073  -1.620 -0.06 -0.00    -0.251 OA
DOCKED: BRANCH  34  36
DOCKED: ATOM     36  O   UNL d   1       1.316 -19.529  -3.688 -0.01 +0.19    -0.481 OA
DOCKED: ATOM     37  H   UNL d   1       1.838 -19.010  -4.337 -0.25 -0.25    +0.295 HD
DOCKED: ENDBRANCH  34  36
DOCKED: ENDBRANCH  33  34
DOCKED: ENDBRANCH   7  33
DOCKED: BRANCH  27  38
DOCKED: ATOM     38  C   UNL d   1       5.307 -11.611   1.345 -0.38 -0.01    +0.017 C 
DOCKED: ATOM     39  C   UNL d   1       5.173 -11.607   2.680 -0.21 -0.03    +0.092 C 
DOCKED: BRANCH  39  40
DOCKED: ATOM     40  C   UNL d   1       5.177 -10.337   3.411 -0.15 -0.13    +0.330 C 
DOCKED: ATOM     41  O   UNL d   1       4.296  -9.500   3.452 -0.23 +0.02    -0.246 OA
DOCKED: BRANCH  40  42
DOCKED: ATOM     42  O   UNL d   1       6.331 -10.194   4.081 -0.03 +0.38    -0.477 OA
DOCKED: ATOM     43  H   UNL d   1       7.012 -10.486   3.440 -0.45 -0.68    +0.295 HD
DOCKED: ENDBRANCH  40  42
DOCKED: ENDBRANCH  39  40
DOCKED: ENDBRANCH  27  38
DOCKED: BRANCH   8  44
DOCKED: ATOM     44  C   UNL d   1       7.928 -16.973  -7.790 -0.09 -0.10    +0.141 C 
DOCKED: BRANCH  44  45
DOCKED: ATOM     45  C   UNL d   1       8.306 -18.040  -6.797 -0.05 -0.22    +0.306 C 
DOCKED: ATOM     46  O   UNL d   1       9.076 -17.921  -5.860 -0.02 +0.10    -0.251 OA
DOCKED: BRANCH  45  47
DOCKED: ATOM     47  O   UNL d   1       7.710 -19.218  -7.056 -0.04 +0.63    -0.481 OA
DOCKED: ATOM     48  H   UNL d   1       6.758 -19.001  -7.142 -0.40 -0.80    +0.295 HD
DOCKED: ENDBRANCH  45  47
DOCKED: ENDBRANCH  44  45
DOCKED: ENDBRANCH   8  44
DOCKED: BRANCH  22  49
DOCKED: ATOM     49  C   UNL d   1      10.705 -11.876  -0.097 -0.08 -0.03    +0.048 C 
DOCKED: BRANCH  49  50
DOCKED: ATOM     50  C   UNL d   1      11.123 -12.885   0.972 -0.09 -0.05    +0.125 C 
DOCKED: BRANCH  50  51
DOCKED: ATOM     51  C   UNL d   1      10.002 -13.138   1.939 -0.07 -0.14    +0.305 C 
DOCKED: ATOM     52  O   UNL d   1       9.293 -14.126   2.013 -0.03 +0.08    -0.251 OA
DOCKED: BRANCH  51  53
DOCKED: ATOM     53  O   UNL d   1       9.816 -12.100   2.779 -0.04 +0.44    -0.481 OA
DOCKED: ATOM     54  H   UNL d   1       8.956 -11.721   2.503 -0.21 -0.54    +0.295 HD
DOCKED: ENDBRANCH  51  53
DOCKED: ENDBRANCH  50  51
DOCKED: ENDBRANCH  49  50
DOCKED: ENDBRANCH  22  49
DOCKED: TORSDOF 13
DOCKED: TER
DOCKED: ENDMDL
________________________________________________________________________________


	BEGINNING GENETIC ALGORITHM DOCKING 19 of 100
Run: 19 Seed: 1767128801 364645064 [ Run 19 of 100 GA/GALS ]
Beginning LAMARCKIAN GENETIC ALGORITHM (LGA), with a maximum of 25000000 energy evaluations.

Final-Value: -12.099


	FINAL GENETIC ALGORITHM DOCKED STATE
	_______________________________________________


Detailed state:  trans -17.902 -1.542 3.922 quatxyzw 0.242046 0.378526 -0.289989 0.845008 center 0.153 0.018 -0.028 ntor 13 103.6919 -49.9690 -178.6258 37.4335 -134.7721 119.8969 -62.5690 -86.9390 55.0465 -148.7472 -5.8954 9.9126 178.7391
State:	-17.902  -1.542   3.922   0.453  0.708 -0.542 64.654    103.69  -49.97 -178.63   37.43 -134.77  119.90  -62.57  -86.94   55.05 -148.75   -5.90    9.91  178.74

DOCKED: MODEL       19
DOCKED: USER    Run = 19
DOCKED: USER    DPF = D:/Protein_go_brrr/autodock/final/AncB/heme/dock.dpf
DOCKED: USER  
DOCKED: USER    Estimated Free Energy of Binding    =   -5.93 kcal/mol  [=(1)+(2)+(3)-(4)]
DOCKED: USER    Estimated Inhibition Constant, Ki   =   44.63 uM (micromolar)  [Temperature = 298.15 K]
DOCKED: USER    
DOCKED: USER    (1) Final Intermolecular Energy     =   -9.81 kcal/mol
DOCKED: USER        vdW + Hbond + desolv Energy     =   -9.71 kcal/mol
DOCKED: USER        Electrostatic Energy            =   -0.10 kcal/mol
DOCKED: USER    (2) Final Total Internal Energy     =   -2.29 kcal/mol
DOCKED: USER    (3) Torsional Free Energy           =   +3.88 kcal/mol
DOCKED: USER    (4) Unbound System's Energy  [=(2)] =   -2.29 kcal/mol
DOCKED: USER    
DOCKED: USER    
DOCKED: USER    NEWDPF move heme_opt.pdbqt
DOCKED: USER    NEWDPF about 0.153000 0.018000 -0.028000
DOCKED: USER    NEWDPF tran0 -17.902305 -1.542356 3.922112
DOCKED: USER    NEWDPF quaternion0 0.242046 0.378526 -0.289989 0.845008
DOCKED: USER    NEWDPF axisangle0 0.452630 0.707850 -0.542285 64.654490
DOCKED: USER    NEWDPF quat0 0.452630 0.707850 -0.542285 64.654490
DOCKED: USER    NEWDPF dihe0 103.69 -49.97 -178.63 37.43 -134.77 119.90 -62.57 -86.94 55.05 -148.75 -5.90 9.91 178.74 
DOCKED: USER  keepresnum = 1 
DOCKED: USER  
DOCKED: REMARK  13 active torsions:
DOCKED: REMARK  status: ('A' for Active; 'I' for Inactive)
DOCKED: REMARK    1  A    between atoms: O_3  and  C_38 
DOCKED: REMARK    2  A    between atoms: O_4  and  C_40 
DOCKED: REMARK    3  A    between atoms: O_7  and  C_46 
DOCKED: REMARK    4  A    between atoms: O_9  and  C_48 
DOCKED: REMARK    5  A    between atoms: C_15  and  C_20 
DOCKED: REMARK    6  A    between atoms: C_16  and  C_23 
DOCKED: REMARK    7  A    between atoms: C_20  and  C_38 
DOCKED: REMARK    8  A    between atoms: C_23  and  C_40 
DOCKED: REMARK    9  A    between atoms: C_32  and  C_41 
DOCKED: REMARK   10  A    between atoms: C_37  and  C_45 
DOCKED: REMARK   11  A    between atoms: C_41  and  C_44 
DOCKED: REMARK   12  A    between atoms: C_44  and  C_46 
DOCKED: REMARK   13  A    between atoms: C_47  and  C_48 
DOCKED: USER                              x       y       z     vdW  Elec       q    Type
DOCKED: USER                           _______ _______ _______ _____ _____    ______ ____
DOCKED: ROOT
DOCKED: ATOM      1  O   UNL d   1     -21.985  -3.991   0.445 -0.02 -0.03    -0.289 OA
DOCKED: ATOM      2  O   UNL d   1     -16.632  -7.094   4.700 -0.36 -0.05    -0.289 OA
DOCKED: ATOM      3  N   UNL d   1     -19.703  -2.122   2.232 -0.13 +0.02    -0.247 NA
DOCKED: ATOM      4  N   UNL d   1     -18.227  -4.168   3.803 -0.10 +0.03    -0.247 NA
DOCKED: ATOM      5  N   UNL d   1     -17.145  -2.031   5.394 +0.01 +0.05    -0.354 N 
DOCKED: ATOM      6  N   UNL d   1     -18.694   0.083   3.771 -0.10 -0.00    -0.354 N 
DOCKED: ATOM      7  C   UNL d   1     -21.692  -1.606   0.897 -0.04 +0.01    +0.084 A 
DOCKED: ATOM      8  C   UNL d   1     -18.138  -6.431   2.887 -0.27 +0.01    +0.084 A 
DOCKED: ATOM      9  C   UNL d   1     -18.676  -4.999   2.802 -0.22 +0.00    +0.058 A 
DOCKED: ATOM     10  C   UNL d   1     -20.531  -1.115   1.766 -0.11 +0.00    +0.058 A 
DOCKED: ATOM     11  C   UNL d   1     -21.363  -3.068   0.938 -0.05 +0.01    +0.193 A 
DOCKED: ATOM     12  C   UNL d   1     -20.122  -3.250   1.757 -0.15 -0.00    +0.109 A 
DOCKED: ATOM     13  C   UNL d   1     -17.329  -6.268   4.143 -0.33 +0.02    +0.193 A 
DOCKED: ATOM     14  C   UNL d   1     -23.048  -1.385   1.570 -0.01 +0.00    +0.026 C 
DOCKED: ATOM     15  C   UNL d   1     -19.551  -4.607   1.863 -0.15 +0.00    +0.055 C 
DOCKED: ATOM     16  C   UNL d   1     -17.188  -6.751   1.728 -0.14 +0.01    +0.026 C 
DOCKED: ATOM     17  C   UNL d   1     -17.473  -4.853   4.602 -0.33 -0.00    +0.109 A 
DOCKED: ATOM     18  C   UNL d   1     -20.309   0.198   1.967 -0.12 +0.00    +0.050 C 
DOCKED: ATOM     19  C   UNL d   1     -19.215   0.747   2.684 -0.17 +0.00    +0.045 A 
DOCKED: ATOM     20  C   UNL d   1     -16.734  -3.108   6.136 -0.41 +0.00    +0.045 A 
DOCKED: ATOM     21  C   UNL d   1     -16.821  -4.410   5.842 -0.49 +0.00    +0.057 C 
DOCKED: ATOM     22  C   UNL d   1     -16.251  -1.194   7.285 -0.35 -0.00    -0.019 A 
DOCKED: ATOM     23  C   UNL d   1     -16.896  -0.832   6.006 -0.30 -0.00    +0.045 A 
DOCKED: ATOM     24  C   UNL d   1     -16.157  -2.543   7.355 -0.42 -0.00    -0.022 A 
DOCKED: ATOM     25  C   UNL d   1     -17.707   0.832   4.368 -0.22 +0.00    +0.049 A 
DOCKED: ATOM     26  C   UNL d   1     -18.525   1.941   2.548 -0.16 -0.00    -0.018 A 
DOCKED: ATOM     27  C   UNL d   1     -17.561   1.981   3.603 -0.21 +0.00    +0.003 A 
DOCKED: ATOM     28  C   UNL d   1     -17.128   0.426   5.601 -0.30 +0.00    +0.052 C 
DOCKED: ATOM     29  C   UNL d   1     -15.574  -3.382   8.440 -0.02 +0.03    +0.046 C 
DOCKED: ATOM     30  C   UNL d   1     -18.744   2.982   1.504 -0.14 +0.01    +0.046 C 
DOCKED: ATOM     31  H   UNL d   1     -17.516  -2.148   4.457 -0.27 -0.09    +0.166 HD
DOCKED: ATOM     32  H   UNL d   1     -19.034  -0.815   4.095 -0.02 -0.01    +0.166 HD
DOCKED: ENDROOT
DOCKED: BRANCH   7  33
DOCKED: ATOM     33  C   UNL d   1     -21.692  -1.096  -0.549 -0.04 +0.01    +0.141 C 
DOCKED: BRANCH  33  34
DOCKED: ATOM     34  C   UNL d   1     -21.211  -2.132  -1.528 -0.05 +0.04    +0.306 C 
DOCKED: ATOM     35  O   UNL d   1     -20.049  -2.416  -1.765 -0.44 -0.05    -0.251 OA
DOCKED: BRANCH  34  36
DOCKED: ATOM     36  O   UNL d   1     -22.221  -2.758  -2.158 -0.00 -0.05    -0.481 OA
DOCKED: ATOM     37  H   UNL d   1     -22.547  -3.417  -1.507 +0.02 +0.03    +0.295 HD
DOCKED: ENDBRANCH  34  36
DOCKED: ENDBRANCH  33  34
DOCKED: ENDBRANCH   7  33
DOCKED: BRANCH  27  38
DOCKED: ATOM     38  C   UNL d   1     -16.643   3.054   3.842 -0.28 +0.00    +0.017 C 
DOCKED: ATOM     39  C   UNL d   1     -15.332   2.911   4.087 -0.39 +0.01    +0.092 C 
DOCKED: BRANCH  39  40
DOCKED: ATOM     40  C   UNL d   1     -14.496   4.096   4.298 -0.24 +0.05    +0.330 C 
DOCKED: ATOM     41  O   UNL d   1     -13.872   4.397   5.298 -0.34 -0.04    -0.246 OA
DOCKED: BRANCH  40  42
DOCKED: ATOM     42  O   UNL d   1     -14.485   4.857   3.193 -0.12 -0.09    -0.477 OA
DOCKED: ATOM     43  H   UNL d   1     -14.695   5.754   3.525 +0.14 +0.05    +0.295 HD
DOCKED: ENDBRANCH  40  42
DOCKED: ENDBRANCH  39  40
DOCKED: ENDBRANCH  27  38
DOCKED: BRANCH   8  44
DOCKED: ATOM     44  C   UNL d   1     -19.196  -7.526   3.055 -0.11 +0.02    +0.141 C 
DOCKED: BRANCH  44  45
DOCKED: ATOM     45  C   UNL d   1     -18.692  -8.899   2.698 -0.10 +0.06    +0.306 C 
DOCKED: ATOM     46  O   UNL d   1     -18.975  -9.541   1.701 -0.11 -0.05    -0.251 OA
DOCKED: BRANCH  45  47
DOCKED: ATOM     47  O   UNL d   1     -17.873  -9.407   3.636 -0.13 -0.08    -0.481 OA
DOCKED: ATOM     48  H   UNL d   1     -17.834  -8.716   4.331 +0.11 +0.03    +0.295 HD
DOCKED: ENDBRANCH  45  47
DOCKED: ENDBRANCH  44  45
DOCKED: ENDBRANCH   8  44
DOCKED: BRANCH  22  49
DOCKED: ATOM     49  C   UNL d   1     -15.805  -0.198   8.315 -0.31 +0.01    +0.048 C 
DOCKED: BRANCH  49  50
DOCKED: ATOM     50  C   UNL d   1     -16.862   0.010   9.399 -0.23 +0.02    +0.125 C 
DOCKED: BRANCH  50  51
DOCKED: ATOM     51  C   UNL d   1     -16.347   0.915  10.483 -0.21 +0.01    +0.305 C 
DOCKED: ATOM     52  O   UNL d   1     -15.800   0.592  11.522 -0.28 -0.01    -0.251 OA
DOCKED: BRANCH  51  53
DOCKED: ATOM     53  O   UNL d   1     -16.565   2.215  10.200 -0.07 +0.03    -0.481 OA
DOCKED: ATOM     54  H   UNL d   1     -15.767   2.670  10.541 -0.44 -0.12    +0.295 HD
DOCKED: ENDBRANCH  51  53
DOCKED: ENDBRANCH  50  51
DOCKED: ENDBRANCH  49  50
DOCKED: ENDBRANCH  22  49
DOCKED: TORSDOF 13
DOCKED: TER
DOCKED: ENDMDL
________________________________________________________________________________


	BEGINNING GENETIC ALGORITHM DOCKING 20 of 100
Run: 20 Seed: 678854420 1579430380 [ Run 20 of 100 GA/GALS ]
Beginning LAMARCKIAN GENETIC ALGORITHM (LGA), with a maximum of 25000000 energy evaluations.

Final-Value: -12.886


	FINAL GENETIC ALGORITHM DOCKED STATE
	_______________________________________________


Detailed state:  trans -2.070 16.638 11.651 quatxyzw 0.475310 -0.517152 0.567007 -0.430276 center 0.153 0.018 -0.028 ntor 13 137.5445 171.8479 180.0000 -20.5361 -138.6801 133.5854 142.4785 42.2805 13.7958 -20.2495 -52.6461 179.9892 25.2976
State:	 -2.070  16.638  11.651   0.527 -0.573  0.628 -129.030    137.54  171.85  180.00  -20.54 -138.68  133.59  142.48   42.28   13.80  -20.25  -52.65  179.99   25.30

DOCKED: MODEL       20
DOCKED: USER    Run = 20
DOCKED: USER    DPF = D:/Protein_go_brrr/autodock/final/AncB/heme/dock.dpf
DOCKED: USER  
DOCKED: USER    Estimated Free Energy of Binding    =   -5.51 kcal/mol  [=(1)+(2)+(3)-(4)]
DOCKED: USER    Estimated Inhibition Constant, Ki   =   91.36 uM (micromolar)  [Temperature = 298.15 K]
DOCKED: USER    
DOCKED: USER    (1) Final Intermolecular Energy     =   -9.39 kcal/mol
DOCKED: USER        vdW + Hbond + desolv Energy     =   -8.93 kcal/mol
DOCKED: USER        Electrostatic Energy            =   -0.46 kcal/mol
DOCKED: USER    (2) Final Total Internal Energy     =   -3.50 kcal/mol
DOCKED: USER    (3) Torsional Free Energy           =   +3.88 kcal/mol
DOCKED: USER    (4) Unbound System's Energy  [=(2)] =   -3.50 kcal/mol
DOCKED: USER    
DOCKED: USER    
DOCKED: USER    NEWDPF move heme_opt.pdbqt
DOCKED: USER    NEWDPF about 0.153000 0.018000 -0.028000
DOCKED: USER    NEWDPF tran0 -2.069853 16.638245 11.651497
DOCKED: USER    NEWDPF quaternion0 0.475310 -0.517152 0.567007 -0.430276
DOCKED: USER    NEWDPF axisangle0 0.526544 -0.572896 0.628125 -129.029868
DOCKED: USER    NEWDPF quat0 0.526544 -0.572896 0.628125 -129.029868
DOCKED: USER    NEWDPF dihe0 137.54 171.85 180.00 -20.54 -138.68 133.59 142.48 42.28 13.80 -20.25 -52.65 179.99 25.30 
DOCKED: USER  keepresnum = 1 
DOCKED: USER  
DOCKED: REMARK  13 active torsions:
DOCKED: REMARK  status: ('A' for Active; 'I' for Inactive)
DOCKED: REMARK    1  A    between atoms: O_3  and  C_38 
DOCKED: REMARK    2  A    between atoms: O_4  and  C_40 
DOCKED: REMARK    3  A    between atoms: O_7  and  C_46 
DOCKED: REMARK    4  A    between atoms: O_9  and  C_48 
DOCKED: REMARK    5  A    between atoms: C_15  and  C_20 
DOCKED: REMARK    6  A    between atoms: C_16  and  C_23 
DOCKED: REMARK    7  A    between atoms: C_20  and  C_38 
DOCKED: REMARK    8  A    between atoms: C_23  and  C_40 
DOCKED: REMARK    9  A    between atoms: C_32  and  C_41 
DOCKED: REMARK   10  A    between atoms: C_37  and  C_45 
DOCKED: REMARK   11  A    between atoms: C_41  and  C_44 
DOCKED: REMARK   12  A    between atoms: C_44  and  C_46 
DOCKED: REMARK   13  A    between atoms: C_47  and  C_48 
DOCKED: USER                              x       y       z     vdW  Elec       q    Type
DOCKED: USER                           _______ _______ _______ _____ _____    ______ ____
DOCKED: ROOT
DOCKED: ATOM      1  O   UNL d   1      -2.665  15.854   5.839 -0.59 +0.10    -0.289 OA
DOCKED: ATOM      2  O   UNL d   1       3.001  18.679   9.876 -0.02 +0.06    -0.289 OA
DOCKED: ATOM      3  N   UNL d   1      -2.824  16.247   9.262 -0.14 +0.08    -0.247 NA
DOCKED: ATOM      4  N   UNL d   1      -0.076  17.121   9.977 -0.10 +0.10    -0.247 NA
DOCKED: ATOM      5  N   UNL d   1      -0.721  16.585  12.727 -0.10 +0.14    -0.354 N 
DOCKED: ATOM      6  N   UNL d   1      -3.564  15.662  11.974 -0.14 +0.12    -0.354 N 
DOCKED: ATOM      7  C   UNL d   1      -4.276  15.230   7.569 -0.28 -0.02    +0.084 A 
DOCKED: ATOM      8  C   UNL d   1       1.217  18.269   8.251 -0.07 -0.03    +0.084 A 
DOCKED: ATOM      9  C   UNL d   1      -0.051  17.511   8.657 -0.17 -0.02    +0.058 A 
DOCKED: ATOM     10  C   UNL d   1      -4.012  15.570   9.038 -0.26 -0.01    +0.058 A 
DOCKED: ATOM     11  C   UNL d   1      -3.036  15.851   6.998 -0.10 -0.04    +0.193 A 
DOCKED: ATOM     12  C   UNL d   1      -2.252  16.456   8.121 -0.20 -0.03    +0.109 A 
DOCKED: ATOM     13  C   UNL d   1       1.924  18.204   9.576 -0.05 -0.05    +0.193 A 
DOCKED: ATOM     14  C   UNL d   1      -4.238  13.722   7.312 -0.59 -0.01    +0.026 C 
DOCKED: ATOM     15  C   UNL d   1      -1.027  17.211   7.786 -0.21 -0.02    +0.055 C 
DOCKED: ATOM     16  C   UNL d   1       0.921  19.736   7.922 -0.02 -0.01    +0.026 C 
DOCKED: ATOM     17  C   UNL d   1       1.038  17.476  10.534 -0.14 -0.04    +0.109 A 
DOCKED: ATOM     18  C   UNL d   1      -4.919  15.302   9.996 -0.30 -0.01    +0.050 C 
DOCKED: ATOM     19  C   UNL d   1      -4.798  15.654  11.365 -0.22 -0.01    +0.045 A 
DOCKED: ATOM     20  C   UNL d   1       0.629  16.796  12.839 -0.21 -0.01    +0.045 A 
DOCKED: ATOM     21  C   UNL d   1       1.490  17.221  11.909 -0.18 -0.02    +0.057 C 
DOCKED: ATOM     22  C   UNL d   1      -0.174  16.073  14.852 -0.25 +0.01    -0.019 A 
DOCKED: ATOM     23  C   UNL d   1      -1.294  16.147  13.891 -0.24 -0.02    +0.045 A 
DOCKED: ATOM     24  C   UNL d   1       0.961  16.460  14.223 -0.21 +0.00    -0.022 A 
DOCKED: ATOM     25  C   UNL d   1      -3.689  15.941  13.315 -0.24 -0.02    +0.049 A 
DOCKED: ATOM     26  C   UNL d   1      -5.745  15.972  12.326 -0.16 +0.00    -0.018 A 
DOCKED: ATOM     27  C   UNL d   1      -5.037  16.171  13.551 -0.15 -0.00    +0.003 A 
DOCKED: ATOM     28  C   UNL d   1      -2.569  15.851  14.186 -0.31 -0.03    +0.052 C 
DOCKED: ATOM     29  C   UNL d   1       2.342  16.565  14.773 -0.15 -0.00    +0.046 C 
DOCKED: ATOM     30  C   UNL d   1      -7.218  16.086  12.121 -0.16 +0.01    +0.046 C 
DOCKED: ATOM     31  H   UNL d   1      -1.222  16.819  11.877 -0.12 -0.08    +0.166 HD
DOCKED: ATOM     32  H   UNL d   1      -2.699  15.448  11.492 -0.38 -0.09    +0.166 HD
DOCKED: ENDROOT
DOCKED: BRANCH   7  33
DOCKED: ATOM     33  C   UNL d   1      -5.528  15.873   6.961 -0.18 -0.04    +0.141 C 
DOCKED: BRANCH  33  34
DOCKED: ATOM     34  C   UNL d   1      -5.469  17.376   6.968 -0.03 -0.07    +0.306 C 
DOCKED: ATOM     35  O   UNL d   1      -5.779  18.104   7.896 -0.02 +0.04    -0.251 OA
DOCKED: BRANCH  34  36
DOCKED: ATOM     36  O   UNL d   1      -5.020  17.883   5.806 +0.02 +0.15    -0.481 OA
DOCKED: ATOM     37  H   UNL d   1      -4.244  17.329   5.579 +0.09 -0.12    +0.295 HD
DOCKED: ENDBRANCH  34  36
DOCKED: ENDBRANCH  33  34
DOCKED: ENDBRANCH   7  33
DOCKED: BRANCH  27  38
DOCKED: ATOM     38  C   UNL d   1      -5.639  16.503  14.807 +0.01 -0.01    +0.017 C 
DOCKED: ATOM     39  C   UNL d   1      -6.819  16.039  15.248 +0.06 -0.06    +0.092 C 
DOCKED: BRANCH  39  40
DOCKED: ATOM     40  C   UNL d   1      -7.317  16.444  16.565 -0.03 -0.17    +0.330 C 
DOCKED: ATOM     41  O   UNL d   1      -8.425  16.857  16.846 -0.02 +0.04    -0.246 OA
DOCKED: BRANCH  40  42
DOCKED: ATOM     42  O   UNL d   1      -6.356  16.289  17.489 -0.05 +0.46    -0.477 OA
DOCKED: ATOM     43  H   UNL d   1      -5.643  15.819  17.010 -0.51 -0.59    +0.295 HD
DOCKED: ENDBRANCH  40  42
DOCKED: ENDBRANCH  39  40
DOCKED: ENDBRANCH  27  38
DOCKED: BRANCH   8  44
DOCKED: ATOM     44  C   UNL d   1       2.055  17.613   7.149 -0.12 -0.06    +0.141 C 
DOCKED: BRANCH  44  45
DOCKED: ATOM     45  C   UNL d   1       2.744  16.352   7.598 -0.19 -0.14    +0.306 C 
DOCKED: ATOM     46  O   UNL d   1       2.364  15.209   7.410 -0.31 +0.14    -0.251 OA
DOCKED: BRANCH  45  47
DOCKED: ATOM     47  O   UNL d   1       3.870  16.599   8.291 -0.05 +0.16    -0.481 OA
DOCKED: ATOM     48  H   UNL d   1       3.945  17.577   8.302 +0.06 -0.08    +0.295 HD
DOCKED: ENDBRANCH  45  47
DOCKED: ENDBRANCH  44  45
DOCKED: ENDBRANCH   8  44
DOCKED: BRANCH  22  49
DOCKED: ATOM     49  C   UNL d   1      -0.314  15.622  16.276 -0.26 -0.01    +0.048 C 
DOCKED: BRANCH  49  50
DOCKED: ATOM     50  C   UNL d   1      -1.315  16.480  17.049 -0.20 -0.05    +0.125 C 
DOCKED: BRANCH  50  51
DOCKED: ATOM     51  C   UNL d   1      -2.340  15.622  17.735 -0.14 -0.27    +0.305 C 
DOCKED: ATOM     52  O   UNL d   1      -2.171  14.530  18.249 -0.22 +0.29    -0.251 OA
DOCKED: BRANCH  51  53
DOCKED: ATOM     53  O   UNL d   1      -3.561  16.192  17.729 -0.06 +0.55    -0.481 OA
DOCKED: ATOM     54  H   UNL d   1      -4.175  15.441  17.871 -0.33 -0.68    +0.295 HD
DOCKED: ENDBRANCH  51  53
DOCKED: ENDBRANCH  50  51
DOCKED: ENDBRANCH  49  50
DOCKED: ENDBRANCH  22  49
DOCKED: TORSDOF 13
DOCKED: TER
DOCKED: ENDMDL
________________________________________________________________________________


	BEGINNING GENETIC ALGORITHM DOCKING 21 of 100
Run: 21 Seed: 2100910125 1036772867 [ Run 21 of 100 GA/GALS ]
Beginning LAMARCKIAN GENETIC ALGORITHM (LGA), with a maximum of 25000000 energy evaluations.

Final-Value: -10.328


	FINAL GENETIC ALGORITHM DOCKED STATE
	_______________________________________________


Detailed state:  trans -18.208 -6.756 12.938 quatxyzw 0.738878 0.377765 0.553810 -0.068165 center 0.153 0.018 -0.028 ntor 13 74.3263 86.9524 -90.9122 -157.3857 179.6098 96.9929 -176.2044 -55.6646 106.3052 11.5111 -62.4899 -163.9298 -178.8906
State:	-18.208  -6.756  12.938   0.741  0.379  0.555 -172.183     74.33   86.95  -90.91 -157.39  179.61   96.99 -176.20  -55.66  106.31   11.51  -62.49 -163.93 -178.89

DOCKED: MODEL       21
DOCKED: USER    Run = 21
DOCKED: USER    DPF = D:/Protein_go_brrr/autodock/final/AncB/heme/dock.dpf
DOCKED: USER  
DOCKED: USER    Estimated Free Energy of Binding    =   -4.59 kcal/mol  [=(1)+(2)+(3)-(4)]
DOCKED: USER    Estimated Inhibition Constant, Ki   =  434.58 uM (micromolar)  [Temperature = 298.15 K]
DOCKED: USER    
DOCKED: USER    (1) Final Intermolecular Energy     =   -8.46 kcal/mol
DOCKED: USER        vdW + Hbond + desolv Energy     =   -8.13 kcal/mol
DOCKED: USER        Electrostatic Energy            =   -0.34 kcal/mol
DOCKED: USER    (2) Final Total Internal Energy     =   -1.86 kcal/mol
DOCKED: USER    (3) Torsional Free Energy           =   +3.88 kcal/mol
DOCKED: USER    (4) Unbound System's Energy  [=(2)] =   -1.86 kcal/mol
DOCKED: USER    
DOCKED: USER    
DOCKED: USER    NEWDPF move heme_opt.pdbqt
DOCKED: USER    NEWDPF about 0.153000 0.018000 -0.028000
DOCKED: USER    NEWDPF tran0 -18.208462 -6.756318 12.937729
DOCKED: USER    NEWDPF quaternion0 0.738878 0.377765 0.553810 -0.068165
DOCKED: USER    NEWDPF axisangle0 0.740601 0.378646 0.555101 -172.182771
DOCKED: USER    NEWDPF quat0 0.740601 0.378646 0.555101 -172.182771
DOCKED: USER    NEWDPF dihe0 74.33 86.95 -90.91 -157.39 179.61 96.99 -176.20 -55.66 106.31 11.51 -62.49 -163.93 -178.89 
DOCKED: USER  keepresnum = 1 
DOCKED: USER  
DOCKED: REMARK  13 active torsions:
DOCKED: REMARK  status: ('A' for Active; 'I' for Inactive)
DOCKED: REMARK    1  A    between atoms: O_3  and  C_38 
DOCKED: REMARK    2  A    between atoms: O_4  and  C_40 
DOCKED: REMARK    3  A    between atoms: O_7  and  C_46 
DOCKED: REMARK    4  A    between atoms: O_9  and  C_48 
DOCKED: REMARK    5  A    between atoms: C_15  and  C_20 
DOCKED: REMARK    6  A    between atoms: C_16  and  C_23 
DOCKED: REMARK    7  A    between atoms: C_20  and  C_38 
DOCKED: REMARK    8  A    between atoms: C_23  and  C_40 
DOCKED: REMARK    9  A    between atoms: C_32  and  C_41 
DOCKED: REMARK   10  A    between atoms: C_37  and  C_45 
DOCKED: REMARK   11  A    between atoms: C_41  and  C_44 
DOCKED: REMARK   12  A    between atoms: C_44  and  C_46 
DOCKED: REMARK   13  A    between atoms: C_47  and  C_48 
DOCKED: USER                              x       y       z     vdW  Elec       q    Type
DOCKED: USER                           _______ _______ _______ _____ _____    ______ ____
DOCKED: ROOT
DOCKED: ATOM      1  O   UNL d   1     -17.397 -11.298   9.267 -0.11 +0.04    -0.289 OA
DOCKED: ATOM      2  O   UNL d   1     -22.190  -5.524   8.980 +0.00 -0.04    -0.289 OA
DOCKED: ATOM      3  N   UNL d   1     -17.604  -8.916  11.753 -0.10 -0.06    -0.247 NA
DOCKED: ATOM      4  N   UNL d   1     -19.507  -6.926  10.636 -0.15 -0.15    -0.247 NA
DOCKED: ATOM      5  N   UNL d   1     -18.684  -5.113  12.710 -0.04 -0.31    -0.354 N 
DOCKED: ATOM      6  N   UNL d   1     -16.698  -7.176  13.851 -0.13 -0.10    -0.354 N 
DOCKED: ATOM      7  C   UNL d   1     -16.126 -10.818  11.299 -0.23 -0.01    +0.084 A 
DOCKED: ATOM      8  C   UNL d   1     -21.128  -7.729   8.993 -0.02 +0.01    +0.084 A 
DOCKED: ATOM      9  C   UNL d   1     -19.907  -8.003   9.878 -0.08 +0.01    +0.058 A 
DOCKED: ATOM     10  C   UNL d   1     -16.506  -9.636  12.195 -0.23 +0.00    +0.058 A 
DOCKED: ATOM     11  C   UNL d   1     -17.214 -10.650  10.281 -0.10 -0.04    +0.193 A 
DOCKED: ATOM     12  C   UNL d   1     -18.058  -9.480  10.681 -0.12 -0.00    +0.109 A 
DOCKED: ATOM     13  C   UNL d   1     -21.323  -6.286   9.362 -0.01 +0.03    +0.193 A 
DOCKED: ATOM     14  C   UNL d   1     -14.772 -10.608  10.616 -0.48 -0.01    +0.026 C 
DOCKED: ATOM     15  C   UNL d   1     -19.255  -9.177   9.872 -0.11 -0.00    +0.055 C 
DOCKED: ATOM     16  C   UNL d   1     -22.352  -8.525   9.453 +0.00 +0.00    +0.026 C 
DOCKED: ATOM     17  C   UNL d   1     -20.273  -5.920  10.359 -0.06 +0.05    +0.109 A 
DOCKED: ATOM     18  C   UNL d   1     -15.866  -9.398  13.355 -0.29 +0.00    +0.050 C 
DOCKED: ATOM     19  C   UNL d   1     -16.201  -8.383  14.287 +0.04 -0.00    +0.045 A 
DOCKED: ATOM     20  C   UNL d   1     -19.426  -4.261  11.934 -0.10 +0.03    +0.045 A 
DOCKED: ATOM     21  C   UNL d   1     -20.190  -4.545  10.873 -0.08 +0.03    +0.057 C 
DOCKED: ATOM     22  C   UNL d   1     -18.387  -3.052  13.569 -0.20 -0.01    -0.019 A 
DOCKED: ATOM     23  C   UNL d   1     -18.021  -4.474  13.724 -0.21 +0.02    +0.045 A 
DOCKED: ATOM     24  C   UNL d   1     -19.221  -2.933  12.509 -0.11 -0.01    -0.022 A 
DOCKED: ATOM     25  C   UNL d   1     -16.868  -6.312  14.908 -0.28 +0.01    +0.049 A 
DOCKED: ATOM     26  C   UNL d   1     -16.080  -8.315  15.667 -0.05 +0.00    -0.018 A 
DOCKED: ATOM     27  C   UNL d   1     -16.520  -7.013  16.055 -0.24 -0.00    +0.003 A 
DOCKED: ATOM     28  C   UNL d   1     -17.222  -4.953  14.690 -0.33 +0.01    +0.052 C 
DOCKED: ATOM     29  C   UNL d   1     -19.867  -1.705  11.964 -0.06 +0.01    +0.046 C 
DOCKED: ATOM     30  C   UNL d   1     -15.587  -9.394  16.571 -0.17 -0.00    +0.046 C 
DOCKED: ATOM     31  H   UNL d   1     -18.714  -6.116  12.567 +0.03 +0.16    +0.166 HD
DOCKED: ATOM     32  H   UNL d   1     -16.869  -6.960  12.876 +0.04 +0.15    +0.166 HD
DOCKED: ENDROOT
DOCKED: BRANCH   7  33
DOCKED: ATOM     33  C   UNL d   1     -16.215 -12.198  11.958 -0.10 +0.02    +0.141 C 
DOCKED: BRANCH  33  34
DOCKED: ATOM     34  C   UNL d   1     -16.450 -13.301  10.963 -0.10 +0.03    +0.306 C 
DOCKED: ATOM     35  O   UNL d   1     -17.346 -14.128  11.002 -0.08 -0.03    -0.251 OA
DOCKED: BRANCH  34  36
DOCKED: ATOM     36  O   UNL d   1     -15.546 -13.304   9.968 -0.11 -0.02    -0.481 OA
DOCKED: ATOM     37  H   UNL d   1     -16.042 -12.992   9.182 +0.05 -0.01    +0.295 HD
DOCKED: ENDBRANCH  34  36
DOCKED: ENDBRANCH  33  34
DOCKED: ENDBRANCH   7  33
DOCKED: BRANCH  27  38
DOCKED: ATOM     38  C   UNL d   1     -16.545  -6.516  17.398 -0.25 -0.00    +0.017 C 
DOCKED: ATOM     39  C   UNL d   1     -15.504  -6.521  18.244 -0.18 -0.00    +0.092 C 
DOCKED: BRANCH  39  40
DOCKED: ATOM     40  C   UNL d   1     -15.656  -5.965  19.591 -0.17 -0.09    +0.330 C 
DOCKED: ATOM     41  O   UNL d   1     -15.922  -6.562  20.617 -0.06 +0.06    -0.246 OA
DOCKED: BRANCH  40  42
DOCKED: ATOM     42  O   UNL d   1     -15.446  -4.640  19.570 -0.71 +0.35    -0.477 OA
DOCKED: ATOM     43  H   UNL d   1     -14.493  -4.550  19.781 -0.46 -0.44    +0.295 HD
DOCKED: ENDBRANCH  40  42
DOCKED: ENDBRANCH  39  40
DOCKED: ENDBRANCH  27  38
DOCKED: BRANCH   8  44
DOCKED: ATOM     44  C   UNL d   1     -20.899  -7.884   7.486 -0.03 -0.00    +0.141 C 
DOCKED: BRANCH  44  45
DOCKED: ATOM     45  C   UNL d   1     -19.551  -7.389   7.035 -0.02 -0.08    +0.306 C 
DOCKED: ATOM     46  O   UNL d   1     -18.822  -7.914   6.211 -0.12 +0.08    -0.251 OA
DOCKED: BRANCH  45  47
DOCKED: ATOM     47  O   UNL d   1     -19.176  -6.265   7.671 -0.03 +0.14    -0.481 OA
DOCKED: ATOM     48  H   UNL d   1     -18.716  -6.578   8.479 -0.41 -0.15    +0.295 HD
DOCKED: ENDBRANCH  45  47
DOCKED: ENDBRANCH  44  45
DOCKED: ENDBRANCH   8  44
DOCKED: BRANCH  22  49
DOCKED: ATOM     49  C   UNL d   1     -17.882  -1.951  14.455 -0.25 +0.01    +0.048 C 
DOCKED: BRANCH  49  50
DOCKED: ATOM     50  C   UNL d   1     -16.694  -1.219  13.831 -0.21 +0.01    +0.125 C 
DOCKED: BRANCH  50  51
DOCKED: ATOM     51  C   UNL d   1     -17.017   0.230  13.601 -0.24 +0.01    +0.305 C 
DOCKED: ATOM     52  O   UNL d   1     -17.885   0.692  12.881 -0.11 -0.02    -0.251 OA
DOCKED: BRANCH  51  53
DOCKED: ATOM     53  O   UNL d   1     -16.202   1.046  14.297 -0.19 +0.03    -0.481 OA
DOCKED: ATOM     54  H   UNL d   1     -15.409   0.496  14.474 -0.38 -0.10    +0.295 HD
DOCKED: ENDBRANCH  51  53
DOCKED: ENDBRANCH  50  51
DOCKED: ENDBRANCH  49  50
DOCKED: ENDBRANCH  22  49
DOCKED: TORSDOF 13
DOCKED: TER
DOCKED: ENDMDL
________________________________________________________________________________


	BEGINNING GENETIC ALGORITHM DOCKING 22 of 100
Run: 22 Seed: 1516827117 169395685 [ Run 22 of 100 GA/GALS ]
Beginning LAMARCKIAN GENETIC ALGORITHM (LGA), with a maximum of 25000000 energy evaluations.

Final-Value: -11.942


	FINAL GENETIC ALGORITHM DOCKED STATE
	_______________________________________________


Detailed state:  trans -3.141 -7.844 15.271 quatxyzw 0.660330 0.614524 0.045688 0.429229 center 0.153 0.018 -0.028 ntor 13 -179.9632 -118.0379 178.3787 158.8382 -153.2409 -38.7268 150.8125 -17.8909 11.5433 -0.9339 -66.1932 -168.8630 156.2730
State:	 -3.141  -7.844  15.271   0.731  0.680  0.051 129.163   -179.96 -118.04  178.38  158.84 -153.24  -38.73  150.81  -17.89   11.54   -0.93  -66.19 -168.86  156.27

DOCKED: MODEL       22
DOCKED: USER    Run = 22
DOCKED: USER    DPF = D:/Protein_go_brrr/autodock/final/AncB/heme/dock.dpf
DOCKED: USER  
DOCKED: USER    Estimated Free Energy of Binding    =   -5.65 kcal/mol  [=(1)+(2)+(3)-(4)]
DOCKED: USER    Estimated Inhibition Constant, Ki   =   72.59 uM (micromolar)  [Temperature = 298.15 K]
DOCKED: USER    
DOCKED: USER    (1) Final Intermolecular Energy     =   -9.52 kcal/mol
DOCKED: USER        vdW + Hbond + desolv Energy     =   -9.20 kcal/mol
DOCKED: USER        Electrostatic Energy            =   -0.32 kcal/mol
DOCKED: USER    (2) Final Total Internal Energy     =   -2.42 kcal/mol
DOCKED: USER    (3) Torsional Free Energy           =   +3.88 kcal/mol
DOCKED: USER    (4) Unbound System's Energy  [=(2)] =   -2.42 kcal/mol
DOCKED: USER    
DOCKED: USER    
DOCKED: USER    NEWDPF move heme_opt.pdbqt
DOCKED: USER    NEWDPF about 0.153000 0.018000 -0.028000
DOCKED: USER    NEWDPF tran0 -3.140863 -7.844257 15.271074
DOCKED: USER    NEWDPF quaternion0 0.660330 0.614524 0.045688 0.429229
DOCKED: USER    NEWDPF axisangle0 0.731104 0.680388 0.050584 129.162739
DOCKED: USER    NEWDPF quat0 0.731104 0.680388 0.050584 129.162739
DOCKED: USER    NEWDPF dihe0 -179.96 -118.04 178.38 158.84 -153.24 -38.73 150.81 -17.89 11.54 -0.93 -66.19 -168.86 156.27 
DOCKED: USER  keepresnum = 1 
DOCKED: USER  
DOCKED: REMARK  13 active torsions:
DOCKED: REMARK  status: ('A' for Active; 'I' for Inactive)
DOCKED: REMARK    1  A    between atoms: O_3  and  C_38 
DOCKED: REMARK    2  A    between atoms: O_4  and  C_40 
DOCKED: REMARK    3  A    between atoms: O_7  and  C_46 
DOCKED: REMARK    4  A    between atoms: O_9  and  C_48 
DOCKED: REMARK    5  A    between atoms: C_15  and  C_20 
DOCKED: REMARK    6  A    between atoms: C_16  and  C_23 
DOCKED: REMARK    7  A    between atoms: C_20  and  C_38 
DOCKED: REMARK    8  A    between atoms: C_23  and  C_40 
DOCKED: REMARK    9  A    between atoms: C_32  and  C_41 
DOCKED: REMARK   10  A    between atoms: C_37  and  C_45 
DOCKED: REMARK   11  A    between atoms: C_41  and  C_44 
DOCKED: REMARK   12  A    between atoms: C_44  and  C_46 
DOCKED: REMARK   13  A    between atoms: C_47  and  C_48 
DOCKED: USER                              x       y       z     vdW  Elec       q    Type
DOCKED: USER                           _______ _______ _______ _____ _____    ______ ____
DOCKED: ROOT
DOCKED: ATOM      1  O   UNL d   1      -3.356 -11.565  10.703 -0.07 -0.09    -0.289 OA
DOCKED: ATOM      2  O   UNL d   1      -7.165 -11.480  17.175 -0.02 -0.07    -0.289 OA
DOCKED: ATOM      3  N   UNL d   1      -2.787  -9.228  13.175 -0.12 -0.07    -0.247 NA
DOCKED: ATOM      4  N   UNL d   1      -4.924  -9.799  15.160 -0.12 -0.13    -0.247 NA
DOCKED: ATOM      5  N   UNL d   1      -4.317  -7.277  16.400 -0.10 +0.02    -0.354 N 
DOCKED: ATOM      6  N   UNL d   1      -2.115  -6.685  14.326 -0.13 -0.02    -0.354 N 
DOCKED: ATOM      7  C   UNL d   1      -1.976  -9.556  10.886 -0.23 +0.02    +0.084 A 
DOCKED: ATOM      8  C   UNL d   1      -5.810 -12.075  15.225 -0.06 +0.03    +0.084 A 
DOCKED: ATOM      9  C   UNL d   1      -4.902 -11.037  14.558 -0.12 +0.02    +0.058 A 
DOCKED: ATOM     10  C   UNL d   1      -1.972  -8.728  12.174 -0.20 +0.01    +0.058 A 
DOCKED: ATOM     11  C   UNL d   1      -2.924 -10.624  11.343 -0.12 +0.05    +0.193 A 
DOCKED: ATOM     12  C   UNL d   1      -3.324 -10.327  12.755 -0.13 +0.04    +0.109 A 
DOCKED: ATOM     13  C   UNL d   1      -6.380 -11.187  16.294 -0.06 +0.07    +0.193 A 
DOCKED: ATOM     14  C   UNL d   1      -2.610  -8.798   9.717 -0.41 +0.00    +0.026 C 
DOCKED: ATOM     15  C   UNL d   1      -4.188 -11.301  13.452 -0.13 +0.02    +0.055 C 
DOCKED: ATOM     16  C   UNL d   1      -5.002 -13.192  15.892 -0.02 +0.01    +0.026 C 
DOCKED: ATOM     17  C   UNL d   1      -5.768  -9.832  16.141 -0.11 +0.06    +0.109 A 
DOCKED: ATOM     18  C   UNL d   1      -1.164  -7.661  12.321 -0.27 +0.01    +0.050 C 
DOCKED: ATOM     19  C   UNL d   1      -1.031  -6.887  13.502 -0.25 +0.00    +0.045 A 
DOCKED: ATOM     20  C   UNL d   1      -5.469  -7.598  17.071 -0.14 -0.01    +0.045 A 
DOCKED: ATOM     21  C   UNL d   1      -6.172  -8.734  17.031 -0.17 +0.02    +0.057 C 
DOCKED: ATOM     22  C   UNL d   1      -4.847  -5.476  17.645 -0.18 +0.01    -0.019 A 
DOCKED: ATOM     23  C   UNL d   1      -3.865  -6.016  16.683 -0.22 -0.01    +0.045 A 
DOCKED: ATOM     24  C   UNL d   1      -5.793  -6.418  17.871 -0.10 +0.01    -0.022 A 
DOCKED: ATOM     25  C   UNL d   1      -1.786  -5.836  15.358 -0.25 -0.00    +0.049 A 
DOCKED: ATOM     26  C   UNL d   1       0.039  -6.182  14.032 -0.25 -0.00    -0.018 A 
DOCKED: ATOM     27  C   UNL d   1      -0.438  -5.536  15.214 -0.25 -0.00    +0.003 A 
DOCKED: ATOM     28  C   UNL d   1      -2.782  -5.353  16.250 -0.26 -0.00    +0.052 C 
DOCKED: ATOM     29  C   UNL d   1      -6.980  -6.351  18.770 -0.17 -0.02    +0.046 C 
DOCKED: ATOM     30  C   UNL d   1       1.422  -6.113  13.477 -0.21 -0.00    +0.046 C 
DOCKED: ATOM     31  H   UNL d   1      -3.834  -7.961  15.827 +0.04 +0.02    +0.166 HD
DOCKED: ATOM     32  H   UNL d   1      -3.031  -7.082  14.155 +0.06 +0.03    +0.166 HD
DOCKED: ENDROOT
DOCKED: BRANCH   7  33
DOCKED: ATOM     33  C   UNL d   1      -0.626 -10.167  10.493 -0.12 +0.02    +0.141 C 
DOCKED: BRANCH  33  34
DOCKED: ATOM     34  C   UNL d   1      -0.077 -11.086  11.551 -0.02 +0.04    +0.306 C 
DOCKED: ATOM     35  O   UNL d   1       0.770 -10.804  12.382 -0.01 -0.03    -0.251 OA
DOCKED: BRANCH  34  36
DOCKED: ATOM     36  O   UNL d   1      -0.626 -12.313  11.507 +0.01 -0.08    -0.481 OA
DOCKED: ATOM     37  H   UNL d   1      -1.293 -12.260  10.790 +0.04 +0.06    +0.295 HD
DOCKED: ENDBRANCH  34  36
DOCKED: ENDBRANCH  33  34
DOCKED: ENDBRANCH   7  33
DOCKED: BRANCH  27  38
DOCKED: ATOM     38  C   UNL d   1       0.342  -4.689  16.064 -0.22 -0.00    +0.017 C 
DOCKED: ATOM     39  C   UNL d   1       1.129  -3.686  15.646 -0.19 -0.01    +0.092 C 
DOCKED: BRANCH  39  40
DOCKED: ATOM     40  C   UNL d   1       1.865  -2.879  16.623 -0.14 -0.05    +0.330 C 
DOCKED: ATOM     41  O   UNL d   1       1.470  -2.471  17.699 -0.17 +0.03    -0.246 OA
DOCKED: BRANCH  40  42
DOCKED: ATOM     42  O   UNL d   1       3.106  -2.631  16.176 -0.08 +0.10    -0.477 OA
DOCKED: ATOM     43  H   UNL d   1       2.961  -2.120  15.353 -0.49 -0.17    +0.295 HD
DOCKED: ENDBRANCH  40  42
DOCKED: ENDBRANCH  39  40
DOCKED: ENDBRANCH  27  38
DOCKED: BRANCH   8  44
DOCKED: ATOM     44  C   UNL d   1      -6.921 -12.648  14.338 -0.15 +0.06    +0.141 C 
DOCKED: BRANCH  44  45
DOCKED: ATOM     45  C   UNL d   1      -7.736 -11.588  13.647 -0.23 +0.22    +0.306 C 
DOCKED: ATOM     46  O   UNL d   1      -7.694 -11.296  12.464 -0.89 -0.23    -0.251 OA
DOCKED: BRANCH  45  47
DOCKED: ATOM     47  O   UNL d   1      -8.546 -10.928  14.494 -0.29 -0.37    -0.481 OA
DOCKED: ATOM     48  H   UNL d   1      -8.406 -11.364  15.361 +0.10 +0.15    +0.295 HD
DOCKED: ENDBRANCH  45  47
DOCKED: ENDBRANCH  44  45
DOCKED: ENDBRANCH   8  44
DOCKED: BRANCH  22  49
DOCKED: ATOM     49  C   UNL d   1      -4.778  -4.099  18.236 -0.23 -0.01    +0.048 C 
DOCKED: BRANCH  49  50
DOCKED: ATOM     50  C   UNL d   1      -5.145  -3.023  17.215 -0.39 -0.04    +0.125 C 
DOCKED: BRANCH  50  51
DOCKED: ATOM     51  C   UNL d   1      -6.413  -2.319  17.609 -0.26 -0.09    +0.305 C 
DOCKED: ATOM     52  O   UNL d   1      -7.308  -2.743  18.320 -0.23 +0.08    -0.251 OA
DOCKED: BRANCH  51  53
DOCKED: ATOM     53  O   UNL d   1      -6.498  -1.089  17.065 -0.20 +0.13    -0.481 OA
DOCKED: ATOM     54  H   UNL d   1      -5.569  -0.858  16.854 -0.28 -0.16    +0.295 HD
DOCKED: ENDBRANCH  51  53
DOCKED: ENDBRANCH  50  51
DOCKED: ENDBRANCH  49  50
DOCKED: ENDBRANCH  22  49
DOCKED: TORSDOF 13
DOCKED: TER
DOCKED: ENDMDL
________________________________________________________________________________


	BEGINNING GENETIC ALGORITHM DOCKING 23 of 100
Run: 23 Seed: 1950803086 663367615 [ Run 23 of 100 GA/GALS ]
Beginning LAMARCKIAN GENETIC ALGORITHM (LGA), with a maximum of 25000000 energy evaluations.

Final-Value: -12.685


	FINAL GENETIC ALGORITHM DOCKED STATE
	_______________________________________________


Detailed state:  trans -0.014 -8.947 10.248 quatxyzw -0.050329 -0.854872 -0.400624 -0.325825 center 0.153 0.018 -0.028 ntor 13 136.8476 98.7798 -127.5928 12.6440 -160.5242 3.2812 122.8504 -81.9132 82.6250 -21.9731 39.7138 -84.0552 -3.9740
State:	 -0.014  -8.947  10.248  -0.053 -0.904 -0.424 -141.969    136.85   98.78 -127.59   12.64 -160.52    3.28  122.85  -81.91   82.63  -21.97   39.71  -84.06   -3.97

DOCKED: MODEL       23
DOCKED: USER    Run = 23
DOCKED: USER    DPF = D:/Protein_go_brrr/autodock/final/AncB/heme/dock.dpf
DOCKED: USER  
DOCKED: USER    Estimated Free Energy of Binding    =   -6.49 kcal/mol  [=(1)+(2)+(3)-(4)]
DOCKED: USER    Estimated Inhibition Constant, Ki   =   17.47 uM (micromolar)  [Temperature = 298.15 K]
DOCKED: USER    
DOCKED: USER    (1) Final Intermolecular Energy     =  -10.37 kcal/mol
DOCKED: USER        vdW + Hbond + desolv Energy     =   -9.99 kcal/mol
DOCKED: USER        Electrostatic Energy            =   -0.38 kcal/mol
DOCKED: USER    (2) Final Total Internal Energy     =   -2.32 kcal/mol
DOCKED: USER    (3) Torsional Free Energy           =   +3.88 kcal/mol
DOCKED: USER    (4) Unbound System's Energy  [=(2)] =   -2.32 kcal/mol
DOCKED: USER    
DOCKED: USER    
DOCKED: USER    NEWDPF move heme_opt.pdbqt
DOCKED: USER    NEWDPF about 0.153000 0.018000 -0.028000
DOCKED: USER    NEWDPF tran0 -0.013871 -8.946646 10.248352
DOCKED: USER    NEWDPF quaternion0 -0.050329 -0.854872 -0.400624 -0.325825
DOCKED: USER    NEWDPF axisangle0 -0.053234 -0.904214 -0.423748 -141.968924
DOCKED: USER    NEWDPF quat0 -0.053234 -0.904214 -0.423748 -141.968924
DOCKED: USER    NEWDPF dihe0 136.85 98.78 -127.59 12.64 -160.52 3.28 122.85 -81.91 82.63 -21.97 39.71 -84.06 -3.97 
DOCKED: USER  keepresnum = 1 
DOCKED: USER  
DOCKED: REMARK  13 active torsions:
DOCKED: REMARK  status: ('A' for Active; 'I' for Inactive)
DOCKED: REMARK    1  A    between atoms: O_3  and  C_38 
DOCKED: REMARK    2  A    between atoms: O_4  and  C_40 
DOCKED: REMARK    3  A    between atoms: O_7  and  C_46 
DOCKED: REMARK    4  A    between atoms: O_9  and  C_48 
DOCKED: REMARK    5  A    between atoms: C_15  and  C_20 
DOCKED: REMARK    6  A    between atoms: C_16  and  C_23 
DOCKED: REMARK    7  A    between atoms: C_20  and  C_38 
DOCKED: REMARK    8  A    between atoms: C_23  and  C_40 
DOCKED: REMARK    9  A    between atoms: C_32  and  C_41 
DOCKED: REMARK   10  A    between atoms: C_37  and  C_45 
DOCKED: REMARK   11  A    between atoms: C_41  and  C_44 
DOCKED: REMARK   12  A    between atoms: C_44  and  C_46 
DOCKED: REMARK   13  A    between atoms: C_47  and  C_48 
DOCKED: USER                              x       y       z     vdW  Elec       q    Type
DOCKED: USER                           _______ _______ _______ _____ _____    ______ ____
DOCKED: ROOT
DOCKED: ATOM      1  O   UNL d   1       4.629  -6.361   7.695 -0.55 -0.05    -0.289 OA
DOCKED: ATOM      2  O   UNL d   1       1.199 -12.881   6.238 -0.04 -0.05    -0.289 OA
DOCKED: ATOM      3  N   UNL d   1       1.989  -7.544   9.573 -0.01 -0.02    -0.247 NA
DOCKED: ATOM      4  N   UNL d   1       1.126  -9.969   8.088 +0.08 -0.04    -0.247 NA
DOCKED: ATOM      5  N   UNL d   1      -1.278  -9.966   9.664 -0.07 -0.07    -0.354 N 
DOCKED: ATOM      6  N   UNL d   1      -0.385  -7.439  11.186 -0.17 -0.03    -0.354 N 
DOCKED: ATOM      7  C   UNL d   1       3.278  -5.460   9.523 -0.23 -0.01    +0.084 A 
DOCKED: ATOM      8  C   UNL d   1       2.808 -11.101   6.724 -0.08 +0.01    +0.084 A 
DOCKED: ATOM      9  C   UNL d   1       2.417  -9.914   7.610 -0.12 +0.01    +0.058 A 
DOCKED: ATOM     10  C   UNL d   1       2.144  -6.288  10.135 -0.23 +0.00    +0.058 A 
DOCKED: ATOM     11  C   UNL d   1       3.748  -6.478   8.527 -0.14 +0.00    +0.193 A 
DOCKED: ATOM     12  C   UNL d   1       2.904  -7.706   8.674 -0.13 +0.01    +0.109 A 
DOCKED: ATOM     13  C   UNL d   1       1.490 -11.821   6.757 -0.07 +0.03    +0.193 A 
DOCKED: ATOM     14  C   UNL d   1       2.753  -4.236   8.768 -0.47 -0.01    +0.026 C 
DOCKED: ATOM     15  C   UNL d   1       3.244  -8.886   7.854 -0.17 +0.01    +0.055 C 
DOCKED: ATOM     16  C   UNL d   1       3.868 -11.983   7.392 -0.04 +0.00    +0.026 C 
DOCKED: ATOM     17  C   UNL d   1       0.555 -11.028   7.611 -0.14 +0.02    +0.109 A 
DOCKED: ATOM     18  C   UNL d   1       1.437  -5.840  11.189 -0.29 +0.00    +0.050 C 
DOCKED: ATOM     19  C   UNL d   1       0.430  -6.568  11.873 -0.30 +0.00    +0.045 A 
DOCKED: ATOM     20  C   UNL d   1      -1.606 -10.920   8.736 -0.22 +0.01    +0.045 A 
DOCKED: ATOM     21  C   UNL d   1      -0.835 -11.472   7.793 -0.22 +0.01    +0.057 C 
DOCKED: ATOM     22  C   UNL d   1      -3.444 -10.475  10.018 -0.29 -0.01    -0.019 A 
DOCKED: ATOM     23  C   UNL d   1      -2.324  -9.632  10.483 -0.29 +0.01    +0.045 A 
DOCKED: ATOM     24  C   UNL d   1      -3.012 -11.236   8.984 -0.23 -0.01    -0.022 A 
DOCKED: ATOM     25  C   UNL d   1      -1.343  -7.965  12.022 -0.25 +0.01    +0.049 A 
DOCKED: ATOM     26  C   UNL d   1       0.014  -6.555  13.196 -0.27 -0.00    -0.018 A 
DOCKED: ATOM     27  C   UNL d   1      -1.093  -7.453  13.288 -0.24 +0.00    +0.003 A 
DOCKED: ATOM     28  C   UNL d   1      -2.396  -8.770  11.508 -0.16 +0.01    +0.052 C 
DOCKED: ATOM     29  C   UNL d   1      -3.767 -12.249   8.192 -0.23 +0.02    +0.046 C 
DOCKED: ATOM     30  C   UNL d   1       0.609  -5.759  14.308 -0.26 -0.00    +0.046 C 
DOCKED: ATOM     31  H   UNL d   1      -0.327  -9.627   9.756 +0.06 +0.03    +0.166 HD
DOCKED: ATOM     32  H   UNL d   1      -0.299  -7.622  10.194 +0.08 +0.02    +0.166 HD
DOCKED: ENDROOT
DOCKED: BRANCH   7  33
DOCKED: ATOM     33  C   UNL d   1       4.411  -5.085  10.484 -0.17 -0.02    +0.141 C 
DOCKED: BRANCH  33  34
DOCKED: ATOM     34  C   UNL d   1       5.772  -5.402   9.926 -0.10 -0.05    +0.306 C 
DOCKED: ATOM     35  O   UNL d   1       6.499  -6.316  10.276 -0.07 -0.00    -0.251 OA
DOCKED: BRANCH  34  36
DOCKED: ATOM     36  O   UNL d   1       6.146  -4.550   8.955 -0.13 +0.35    -0.481 OA
DOCKED: ATOM     37  H   UNL d   1       5.356  -4.472   8.378 -0.37 -0.34    +0.295 HD
DOCKED: ENDBRANCH  34  36
DOCKED: ENDBRANCH  33  34
DOCKED: ENDBRANCH   7  33
DOCKED: BRANCH  27  38
DOCKED: ATOM     38  C   UNL d   1      -1.836  -7.728  14.481 -0.20 +0.00    +0.017 C 
DOCKED: ATOM     39  C   UNL d   1      -3.174  -7.743  14.573 -0.09 +0.02    +0.092 C 
DOCKED: BRANCH  39  40
DOCKED: ATOM     40  C   UNL d   1      -3.814  -8.057  15.854 -0.11 +0.05    +0.330 C 
DOCKED: ATOM     41  O   UNL d   1      -3.273  -8.302  16.915 -0.04 -0.02    -0.246 OA
DOCKED: BRANCH  40  42
DOCKED: ATOM     42  O   UNL d   1      -5.149  -8.035  15.720 -0.44 -0.19    -0.477 OA
DOCKED: ATOM     43  H   UNL d   1      -5.375  -7.084  15.779 -0.30 -0.07    +0.295 HD
DOCKED: ENDBRANCH  40  42
DOCKED: ENDBRANCH  39  40
DOCKED: ENDBRANCH  27  38
DOCKED: BRANCH   8  44
DOCKED: ATOM     44  C   UNL d   1       3.205 -10.750   5.286 -0.14 +0.01    +0.141 C 
DOCKED: BRANCH  44  45
DOCKED: ATOM     45  C   UNL d   1       2.039 -10.322   4.435 -0.21 +0.03    +0.306 C 
DOCKED: ATOM     46  O   UNL d   1       1.501  -9.228   4.436 -0.31 -0.03    -0.251 OA
DOCKED: BRANCH  45  47
DOCKED: ATOM     47  O   UNL d   1       1.591 -11.312   3.642 -0.11 -0.08    -0.481 OA
DOCKED: ATOM     48  H   UNL d   1       1.452 -12.071   4.247 +0.11 +0.06    +0.295 HD
DOCKED: ENDBRANCH  45  47
DOCKED: ENDBRANCH  44  45
DOCKED: ENDBRANCH   8  44
DOCKED: BRANCH  22  49
DOCKED: ATOM     49  C   UNL d   1      -4.822 -10.448  10.611 -0.35 +0.02    +0.048 C 
DOCKED: BRANCH  49  50
DOCKED: ATOM     50  C   UNL d   1      -4.949 -11.402  11.798 -0.22 +0.06    +0.125 C 
DOCKED: BRANCH  50  51
DOCKED: ATOM     51  C   UNL d   1      -6.270 -12.118  11.771 -0.18 +0.17    +0.305 C 
DOCKED: ATOM     52  O   UNL d   1      -7.325 -11.750  12.258 -0.80 -0.19    -0.251 OA
DOCKED: BRANCH  51  53
DOCKED: ATOM     53  O   UNL d   1      -6.191 -13.299  11.126 -0.09 -0.25    -0.481 OA
DOCKED: ATOM     54  H   UNL d   1      -7.126 -13.565  11.000 +0.04 +0.17    +0.295 HD
DOCKED: ENDBRANCH  51  53
DOCKED: ENDBRANCH  50  51
DOCKED: ENDBRANCH  49  50
DOCKED: ENDBRANCH  22  49
DOCKED: TORSDOF 13
DOCKED: TER
DOCKED: ENDMDL
________________________________________________________________________________


	BEGINNING GENETIC ALGORITHM DOCKING 24 of 100
Run: 24 Seed: 310255407 1280419807 [ Run 24 of 100 GA/GALS ]
Beginning LAMARCKIAN GENETIC ALGORITHM (LGA), with a maximum of 25000000 energy evaluations.

Final-Value: -12.303


	FINAL GENETIC ALGORITHM DOCKED STATE
	_______________________________________________


Detailed state:  trans 17.634 1.882 -10.659 quatxyzw -0.440344 -0.011095 0.896243 0.052168 center 0.153 0.018 -0.028 ntor 13 132.9572 -165.1264 -107.0886 46.7612 -134.1008 58.4724 118.2604 31.7355 22.5113 -32.8478 -83.8858 -103.1616 7.5553
State:	 17.634   1.882 -10.659  -0.441 -0.011  0.897 174.019    132.96 -165.13 -107.09   46.76 -134.10   58.47  118.26   31.74   22.51  -32.85  -83.89 -103.16    7.56

DOCKED: MODEL       24
DOCKED: USER    Run = 24
DOCKED: USER    DPF = D:/Protein_go_brrr/autodock/final/AncB/heme/dock.dpf
DOCKED: USER  
DOCKED: USER    Estimated Free Energy of Binding    =   -3.59 kcal/mol  [=(1)+(2)+(3)-(4)]
DOCKED: USER    Estimated Inhibition Constant, Ki   =    2.34 mM (millimolar)  [Temperature = 298.15 K]
DOCKED: USER    
DOCKED: USER    (1) Final Intermolecular Energy     =   -7.47 kcal/mol
DOCKED: USER        vdW + Hbond + desolv Energy     =   -7.36 kcal/mol
DOCKED: USER        Electrostatic Energy            =   -0.10 kcal/mol
DOCKED: USER    (2) Final Total Internal Energy     =   -4.84 kcal/mol
DOCKED: USER    (3) Torsional Free Energy           =   +3.88 kcal/mol
DOCKED: USER    (4) Unbound System's Energy  [=(2)] =   -4.84 kcal/mol
DOCKED: USER    
DOCKED: USER    
DOCKED: USER    NEWDPF move heme_opt.pdbqt
DOCKED: USER    NEWDPF about 0.153000 0.018000 -0.028000
DOCKED: USER    NEWDPF tran0 17.634120 1.881595 -10.659083
DOCKED: USER    NEWDPF quaternion0 -0.440344 -0.011095 0.896243 0.052168
DOCKED: USER    NEWDPF axisangle0 -0.440945 -0.011110 0.897465 174.019284
DOCKED: USER    NEWDPF quat0 -0.440945 -0.011110 0.897465 174.019284
DOCKED: USER    NEWDPF dihe0 132.96 -165.13 -107.09 46.76 -134.10 58.47 118.26 31.74 22.51 -32.85 -83.89 -103.16 7.56 
DOCKED: USER  keepresnum = 1 
DOCKED: USER  
DOCKED: REMARK  13 active torsions:
DOCKED: REMARK  status: ('A' for Active; 'I' for Inactive)
DOCKED: REMARK    1  A    between atoms: O_3  and  C_38 
DOCKED: REMARK    2  A    between atoms: O_4  and  C_40 
DOCKED: REMARK    3  A    between atoms: O_7  and  C_46 
DOCKED: REMARK    4  A    between atoms: O_9  and  C_48 
DOCKED: REMARK    5  A    between atoms: C_15  and  C_20 
DOCKED: REMARK    6  A    between atoms: C_16  and  C_23 
DOCKED: REMARK    7  A    between atoms: C_20  and  C_38 
DOCKED: REMARK    8  A    between atoms: C_23  and  C_40 
DOCKED: REMARK    9  A    between atoms: C_32  and  C_41 
DOCKED: REMARK   10  A    between atoms: C_37  and  C_45 
DOCKED: REMARK   11  A    between atoms: C_41  and  C_44 
DOCKED: REMARK   12  A    between atoms: C_44  and  C_46 
DOCKED: REMARK   13  A    between atoms: C_47  and  C_48 
DOCKED: USER                              x       y       z     vdW  Elec       q    Type
DOCKED: USER                           _______ _______ _______ _____ _____    ______ ____
DOCKED: ROOT
DOCKED: ATOM      1  O   UNL d   1      20.702   0.629  -5.783 -0.07 -0.08    -0.289 OA
DOCKED: ATOM      2  O   UNL d   1      19.990   7.026  -9.651 -0.14 -0.15    -0.289 OA
DOCKED: ATOM      3  N   UNL d   1      18.876   0.855  -8.701 -0.09 -0.10    -0.247 NA
DOCKED: ATOM      4  N   UNL d   1      18.923   3.762  -9.312 -0.22 -0.24    -0.247 NA
DOCKED: ATOM      5  N   UNL d   1      16.829   3.299 -11.227 -0.08 -0.24    -0.354 N 
DOCKED: ATOM      6  N   UNL d   1      16.774   0.287 -10.572 -0.10 -0.13    -0.354 N 
DOCKED: ATOM      7  C   UNL d   1      19.244  -0.892  -7.021 -0.19 +0.03    +0.084 A 
DOCKED: ATOM      8  C   UNL d   1      20.809   5.056  -8.451 -0.05 +0.04    +0.084 A 
DOCKED: ATOM      9  C   UNL d   1      20.051   3.726  -8.523 -0.08 +0.04    +0.058 A 
DOCKED: ATOM     10  C   UNL d   1      18.570  -0.441  -8.321 -0.20 +0.02    +0.058 A 
DOCKED: ATOM     11  C   UNL d   1      20.000   0.372  -6.744 -0.10 +0.06    +0.193 A 
DOCKED: ATOM     12  C   UNL d   1      19.715   1.345  -7.846 -0.11 +0.05    +0.109 A 
DOCKED: ATOM     13  C   UNL d   1      19.881   5.863  -9.315 -0.11 +0.13    +0.193 A 
DOCKED: ATOM     14  C   UNL d   1      18.230  -1.120  -5.897 -0.32 +0.01    +0.026 C 
DOCKED: ATOM     15  C   UNL d   1      20.428   2.638  -7.835 -0.08 +0.03    +0.055 C 
DOCKED: ATOM     16  C   UNL d   1      22.174   4.970  -9.141 -0.02 +0.01    +0.026 C 
DOCKED: ATOM     17  C   UNL d   1      18.776   4.965  -9.767 -0.12 +0.12    +0.109 A 
DOCKED: ATOM     18  C   UNL d   1      17.823  -1.286  -9.055 -0.25 +0.02    +0.050 C 
DOCKED: ATOM     19  C   UNL d   1      17.232  -0.984 -10.309 -0.20 +0.01    +0.045 A 
DOCKED: ATOM     20  C   UNL d   1      16.832   4.669 -11.209 -0.24 +0.04    +0.045 A 
DOCKED: ATOM     21  C   UNL d   1      17.686   5.497 -10.599 -0.28 +0.06    +0.057 C 
DOCKED: ATOM     22  C   UNL d   1      15.065   3.952 -12.466 -0.29 -0.01    -0.019 A 
DOCKED: ATOM     23  C   UNL d   1      15.798   2.774 -11.960 -0.22 +0.02    +0.045 A 
DOCKED: ATOM     24  C   UNL d   1      15.683   5.071 -12.019 -0.34 -0.01    -0.022 A 
DOCKED: ATOM     25  C   UNL d   1      16.160   0.334 -11.803 -0.21 +0.02    +0.049 A 
DOCKED: ATOM     26  C   UNL d   1      16.942  -1.774 -11.410 -0.16 -0.01    -0.018 A 
DOCKED: ATOM     27  C   UNL d   1      16.282  -0.932 -12.358 -0.17 +0.00    +0.003 A 
DOCKED: ATOM     28  C   UNL d   1      15.470   1.501 -12.229 -0.29 +0.02    +0.052 C 
DOCKED: ATOM     29  C   UNL d   1      15.327   6.497 -12.270 -0.29 +0.03    +0.046 C 
DOCKED: ATOM     30  C   UNL d   1      17.258  -3.222 -11.575 -0.12 +0.01    +0.046 C 
DOCKED: ATOM     31  H   UNL d   1      17.576   2.765 -10.797 +0.05 +0.11    +0.166 HD
DOCKED: ATOM     32  H   UNL d   1      16.851   1.057  -9.919 +0.06 +0.08    +0.166 HD
DOCKED: ENDROOT
DOCKED: BRANCH   7  33
DOCKED: ATOM     33  C   UNL d   1      20.208  -2.076  -7.157 -0.07 +0.03    +0.141 C 
DOCKED: BRANCH  33  34
DOCKED: ATOM     34  C   UNL d   1      21.469  -1.714  -7.894 -0.01 +0.06    +0.306 C 
DOCKED: ATOM     35  O   UNL d   1      21.596  -1.625  -9.104 -0.00 -0.05    -0.251 OA
DOCKED: BRANCH  34  36
DOCKED: ATOM     36  O   UNL d   1      22.504  -1.482  -7.068 +0.00 -0.08    -0.481 OA
DOCKED: ATOM     37  H   UNL d   1      22.150  -0.856  -6.400 +0.02 +0.05    +0.295 HD
DOCKED: ENDBRANCH  34  36
DOCKED: ENDBRANCH  33  34
DOCKED: ENDBRANCH   7  33
DOCKED: BRANCH  27  38
DOCKED: ATOM     38  C   UNL d   1      15.794  -1.353 -13.637 -0.17 +0.00    +0.017 C 
DOCKED: ATOM     39  C   UNL d   1      14.502  -1.404 -13.994 -0.10 +0.03    +0.092 C 
DOCKED: BRANCH  39  40
DOCKED: ATOM     40  C   UNL d   1      14.134  -1.838 -15.344 -0.12 +0.08    +0.330 C 
DOCKED: ATOM     41  O   UNL d   1      14.421  -2.886 -15.892 -0.07 -0.05    -0.246 OA
DOCKED: BRANCH  40  42
DOCKED: ATOM     42  O   UNL d   1      13.391  -0.897 -15.946 -0.08 -0.14    -0.477 OA
DOCKED: ATOM     43  H   UNL d   1      13.521  -0.103 -15.388 +0.10 +0.09    +0.295 HD
DOCKED: ENDBRANCH  40  42
DOCKED: ENDBRANCH  39  40
DOCKED: ENDBRANCH  27  38
DOCKED: BRANCH   8  44
DOCKED: ATOM     44  C   UNL d   1      20.931   5.672  -7.054 -0.06 +0.06    +0.141 C 
DOCKED: BRANCH  44  45
DOCKED: ATOM     45  C   UNL d   1      19.712   6.451  -6.639 -0.10 +0.20    +0.306 C 
DOCKED: ATOM     46  O   UNL d   1      18.637   5.991  -6.296 -0.25 -0.31    -0.251 OA
DOCKED: BRANCH  45  47
DOCKED: ATOM     47  O   UNL d   1      19.905   7.781  -6.703 +0.04 -0.12    -0.481 OA
DOCKED: ATOM     48  H   UNL d   1      19.924   7.983  -7.663 -0.49 +0.03    +0.295 HD
DOCKED: ENDBRANCH  45  47
DOCKED: ENDBRANCH  44  45
DOCKED: ENDBRANCH   8  44
DOCKED: BRANCH  22  49
DOCKED: ATOM     49  C   UNL d   1      13.832   3.875 -13.318 -0.42 +0.01    +0.048 C 
DOCKED: BRANCH  49  50
DOCKED: ATOM     50  C   UNL d   1      14.162   3.503 -14.764 -0.23 +0.03    +0.125 C 
DOCKED: BRANCH  50  51
DOCKED: ATOM     51  C   UNL d   1      13.978   2.030 -14.994 -0.09 +0.10    +0.305 C 
DOCKED: ATOM     52  O   UNL d   1      13.249   1.268 -14.384 -0.29 -0.08    -0.251 OA
DOCKED: BRANCH  51  53
DOCKED: ATOM     53  O   UNL d   1      14.752   1.576 -16.000 -0.03 -0.14    -0.481 OA
DOCKED: ATOM     54  H   UNL d   1      14.146   1.024 -16.536 +0.08 +0.11    +0.295 HD
DOCKED: ENDBRANCH  51  53
DOCKED: ENDBRANCH  50  51
DOCKED: ENDBRANCH  49  50
DOCKED: ENDBRANCH  22  49
DOCKED: TORSDOF 13
DOCKED: TER
DOCKED: ENDMDL
________________________________________________________________________________


	BEGINNING GENETIC ALGORITHM DOCKING 25 of 100
Run: 25 Seed: 24810642 1623357035 [ Run 25 of 100 GA/GALS ]
Beginning LAMARCKIAN GENETIC ALGORITHM (LGA), with a maximum of 25000000 energy evaluations.

Final-Value: -10.312


	FINAL GENETIC ALGORITHM DOCKED STATE
	_______________________________________________


Detailed state:  trans -0.736 -14.098 4.775 quatxyzw 0.390229 -0.467359 0.769707 -0.191959 center 0.153 0.018 -0.028 ntor 13 96.1999 91.4404 -109.9377 -111.1548 10.6418 -175.4448 -33.8282 -56.1629 -126.7355 158.7021 114.9255 -90.4895 -180.0000
State:	 -0.736 -14.098   4.775   0.398 -0.476  0.784 -157.866     96.20   91.44 -109.94 -111.15   10.64 -175.44  -33.83  -56.16 -126.74  158.70  114.93  -90.49 -180.00

DOCKED: MODEL       25
DOCKED: USER    Run = 25
DOCKED: USER    DPF = D:/Protein_go_brrr/autodock/final/AncB/heme/dock.dpf
DOCKED: USER  
DOCKED: USER    Estimated Free Energy of Binding    =   -5.23 kcal/mol  [=(1)+(2)+(3)-(4)]
DOCKED: USER    Estimated Inhibition Constant, Ki   =  147.87 uM (micromolar)  [Temperature = 298.15 K]
DOCKED: USER    
DOCKED: USER    (1) Final Intermolecular Energy     =   -9.10 kcal/mol
DOCKED: USER        vdW + Hbond + desolv Energy     =   -8.38 kcal/mol
DOCKED: USER        Electrostatic Energy            =   -0.72 kcal/mol
DOCKED: USER    (2) Final Total Internal Energy     =   -1.21 kcal/mol
DOCKED: USER    (3) Torsional Free Energy           =   +3.88 kcal/mol
DOCKED: USER    (4) Unbound System's Energy  [=(2)] =   -1.21 kcal/mol
DOCKED: USER    
DOCKED: USER    
DOCKED: USER    NEWDPF move heme_opt.pdbqt
DOCKED: USER    NEWDPF about 0.153000 0.018000 -0.028000
DOCKED: USER    NEWDPF tran0 -0.735992 -14.097668 4.774652
DOCKED: USER    NEWDPF quaternion0 0.390229 -0.467359 0.769707 -0.191959
DOCKED: USER    NEWDPF axisangle0 0.397624 -0.476215 0.784292 -157.865753
DOCKED: USER    NEWDPF quat0 0.397624 -0.476215 0.784292 -157.865753
DOCKED: USER    NEWDPF dihe0 96.20 91.44 -109.94 -111.15 10.64 -175.44 -33.83 -56.16 -126.74 158.70 114.93 -90.49 -180.00 
DOCKED: USER  keepresnum = 1 
DOCKED: USER  
DOCKED: REMARK  13 active torsions:
DOCKED: REMARK  status: ('A' for Active; 'I' for Inactive)
DOCKED: REMARK    1  A    between atoms: O_3  and  C_38 
DOCKED: REMARK    2  A    between atoms: O_4  and  C_40 
DOCKED: REMARK    3  A    between atoms: O_7  and  C_46 
DOCKED: REMARK    4  A    between atoms: O_9  and  C_48 
DOCKED: REMARK    5  A    between atoms: C_15  and  C_20 
DOCKED: REMARK    6  A    between atoms: C_16  and  C_23 
DOCKED: REMARK    7  A    between atoms: C_20  and  C_38 
DOCKED: REMARK    8  A    between atoms: C_23  and  C_40 
DOCKED: REMARK    9  A    between atoms: C_32  and  C_41 
DOCKED: REMARK   10  A    between atoms: C_37  and  C_45 
DOCKED: REMARK   11  A    between atoms: C_41  and  C_44 
DOCKED: REMARK   12  A    between atoms: C_44  and  C_46 
DOCKED: REMARK   13  A    between atoms: C_47  and  C_48 
DOCKED: USER                              x       y       z     vdW  Elec       q    Type
DOCKED: USER                           _______ _______ _______ _____ _____    ______ ____
DOCKED: ROOT
DOCKED: ATOM      1  O   UNL d   1       1.910 -15.099  -0.397 -0.13 -0.04    -0.289 OA
DOCKED: ATOM      2  O   UNL d   1       3.450 -10.169   5.054 -0.12 -0.02    -0.289 OA
DOCKED: ATOM      3  N   UNL d   1      -0.030 -14.781   2.436 -0.65 -0.12    -0.247 NA
DOCKED: ATOM      4  N   UNL d   1       1.501 -12.852   4.099 -0.10 -0.05    -0.247 NA
DOCKED: ATOM      5  N   UNL d   1      -0.168 -13.585   6.322 -0.04 -0.09    -0.354 N 
DOCKED: ATOM      6  N   UNL d   1      -1.738 -15.599   4.595 -0.02 -0.17    -0.354 N 
DOCKED: ATOM      7  C   UNL d   1       0.002 -16.316   0.526 -0.19 +0.02    +0.084 A 
DOCKED: ATOM      8  C   UNL d   1       2.968 -11.287   2.930 -0.22 +0.00    +0.084 A 
DOCKED: ATOM      9  C   UNL d   1       2.028 -12.495   2.878 -0.23 +0.01    +0.058 A 
DOCKED: ATOM     10  C   UNL d   1      -0.627 -15.887   1.855 -0.18 +0.02    +0.058 A 
DOCKED: ATOM     11  C   UNL d   1       1.049 -15.245   0.450 -0.16 +0.04    +0.193 A 
DOCKED: ATOM     12  C   UNL d   1       0.910 -14.363   1.652 -0.23 +0.03    +0.109 A 
DOCKED: ATOM     13  C   UNL d   1       2.907 -11.047   4.412 -0.11 +0.01    +0.193 A 
DOCKED: ATOM     14  C   UNL d   1       0.693 -17.678   0.630 -0.08 +0.00    +0.026 C 
DOCKED: ATOM     15  C   UNL d   1       1.783 -13.176   1.748 -0.30 +0.01    +0.055 C 
DOCKED: ATOM     16  C   UNL d   1       2.373 -10.073   2.210 -0.37 +0.00    +0.026 C 
DOCKED: ATOM     17  C   UNL d   1       1.990 -12.067   5.005 -0.11 +0.01    +0.109 A 
DOCKED: ATOM     18  C   UNL d   1      -1.723 -16.497   2.343 -0.17 +0.03    +0.050 C 
DOCKED: ATOM     19  C   UNL d   1      -2.421 -16.117   3.518 -0.08 +0.03    +0.045 A 
DOCKED: ATOM     20  C   UNL d   1       0.778 -12.838   6.975 -0.07 +0.01    +0.045 A 
DOCKED: ATOM     21  C   UNL d   1       1.769 -12.105   6.458 -0.10 +0.01    +0.057 C 
DOCKED: ATOM     22  C   UNL d   1      -0.590 -13.813   8.523 -0.02 -0.00    -0.019 A 
DOCKED: ATOM     23  C   UNL d   1      -1.039 -14.212   7.174 -0.06 +0.01    +0.045 A 
DOCKED: ATOM     24  C   UNL d   1       0.485 -12.999   8.398 -0.03 -0.00    -0.022 A 
DOCKED: ATOM     25  C   UNL d   1      -2.593 -15.386   5.652 -0.07 +0.02    +0.049 A 
DOCKED: ATOM     26  C   UNL d   1      -3.759 -16.208   3.870 -0.17 -0.02    -0.018 A 
DOCKED: ATOM     27  C   UNL d   1      -3.865 -15.727   5.212 -0.14 +0.00    +0.003 A 
DOCKED: ATOM     28  C   UNL d   1      -2.095 -15.002   6.926 -0.06 +0.02    +0.052 C 
DOCKED: ATOM     29  C   UNL d   1       1.280 -12.333   9.469 -0.03 +0.01    +0.046 C 
DOCKED: ATOM     30  C   UNL d   1      -4.873 -16.709   3.015 -0.12 +0.09    +0.046 C 
DOCKED: ATOM     31  H   UNL d   1      -0.234 -13.584   5.310 +0.04 +0.05    +0.166 HD
DOCKED: ATOM     32  H   UNL d   1      -0.737 -15.443   4.602 +0.03 +0.07    +0.166 HD
DOCKED: ENDROOT
DOCKED: BRANCH   7  33
DOCKED: ATOM     33  C   UNL d   1      -0.926 -16.248  -0.692 -0.20 +0.04    +0.141 C 
DOCKED: BRANCH  33  34
DOCKED: ATOM     34  C   UNL d   1      -1.866 -17.420  -0.771 -0.12 +0.14    +0.306 C 
DOCKED: ATOM     35  O   UNL d   1      -2.750 -17.689   0.025 -0.38 -0.20    -0.251 OA
DOCKED: BRANCH  34  36
DOCKED: ATOM     36  O   UNL d   1      -1.644 -18.191  -1.850 -0.11 -0.11    -0.481 OA
DOCKED: ATOM     37  H   UNL d   1      -2.169 -17.773  -2.564 -0.38 +0.03    +0.295 HD
DOCKED: ENDBRANCH  34  36
DOCKED: ENDBRANCH  33  34
DOCKED: ENDBRANCH   7  33
DOCKED: BRANCH  27  38
DOCKED: ATOM     38  C   UNL d   1      -5.076 -15.662   5.972 -0.08 +0.03    +0.017 C 
DOCKED: ATOM     39  C   UNL d   1      -5.256 -16.198   7.189 -0.10 +0.11    +0.092 C 
DOCKED: BRANCH  39  40
DOCKED: ATOM     40  C   UNL d   1      -6.544 -16.046   7.871 -0.07 +0.57    +0.330 C 
DOCKED: ATOM     41  O   UNL d   1      -6.847 -16.433   8.983 -0.62 -0.40    -0.246 OA
DOCKED: BRANCH  40  42
DOCKED: ATOM     42  O   UNL d   1      -7.406 -15.381   7.086 -0.44 -1.18    -0.477 OA
DOCKED: ATOM     43  H   UNL d   1      -7.246 -14.440   7.306 +0.10 +0.50    +0.295 HD
DOCKED: ENDBRANCH  40  42
DOCKED: ENDBRANCH  39  40
DOCKED: ENDBRANCH  27  38
DOCKED: BRANCH   8  44
DOCKED: ATOM     44  C   UNL d   1       4.408 -11.550   2.476 -0.20 -0.02    +0.141 C 
DOCKED: BRANCH  44  45
DOCKED: ATOM     45  C   UNL d   1       4.741 -10.911   1.154 -0.28 -0.09    +0.306 C 
DOCKED: ATOM     46  O   UNL d   1       4.424 -11.318   0.050 -0.74 +0.00    -0.251 OA
DOCKED: BRANCH  45  47
DOCKED: ATOM     47  O   UNL d   1       5.484  -9.798   1.293 -0.23 +0.34    -0.481 OA
DOCKED: ATOM     48  H   UNL d   1       6.357 -10.121   1.603 -0.22 -0.47    +0.295 HD
DOCKED: ENDBRANCH  45  47
DOCKED: ENDBRANCH  44  45
DOCKED: ENDBRANCH   8  44
DOCKED: BRANCH  22  49
DOCKED: ATOM     49  C   UNL d   1      -1.238 -14.271   9.796 -0.01 +0.01    +0.048 C 
DOCKED: BRANCH  49  50
DOCKED: ATOM     50  C   UNL d   1      -0.511 -15.471  10.405 +0.00 +0.02    +0.125 C 
DOCKED: BRANCH  50  51
DOCKED: ATOM     51  C   UNL d   1      -0.597 -16.666   9.498 +0.00 +0.06    +0.305 C 
DOCKED: ATOM     52  O   UNL d   1      -1.601 -17.259   9.144 +0.00 -0.07    -0.251 OA
DOCKED: BRANCH  51  53
DOCKED: ATOM     53  O   UNL d   1       0.619 -17.072   9.083 +0.00 -0.08    -0.481 OA
DOCKED: ATOM     54  H   UNL d   1       1.044 -17.422   9.894 +0.00 +0.04    +0.295 HD
DOCKED: ENDBRANCH  51  53
DOCKED: ENDBRANCH  50  51
DOCKED: ENDBRANCH  49  50
DOCKED: ENDBRANCH  22  49
DOCKED: TORSDOF 13
DOCKED: TER
DOCKED: ENDMDL
________________________________________________________________________________


	BEGINNING GENETIC ALGORITHM DOCKING 26 of 100
Run: 26 Seed: 1244689396 508770295 [ Run 26 of 100 GA/GALS ]
Beginning LAMARCKIAN GENETIC ALGORITHM (LGA), with a maximum of 25000000 energy evaluations.

Final-Value: -11.660


	FINAL GENETIC ALGORITHM DOCKED STATE
	_______________________________________________


Detailed state:  trans -12.169 13.155 4.329 quatxyzw -0.136847 -0.501090 0.316207 0.793848 center 0.153 0.018 -0.028 ntor 13 108.9118 158.7262 -141.2220 -102.0769 177.6373 33.5747 126.2576 -47.4444 -18.9685 -19.2930 -56.5204 -85.6611 33.7917
State:	-12.169  13.155   4.329  -0.225 -0.824  0.520 74.907    108.91  158.73 -141.22 -102.08  177.64   33.57  126.26  -47.44  -18.97  -19.29  -56.52  -85.66   33.79

DOCKED: MODEL       26
DOCKED: USER    Run = 26
DOCKED: USER    DPF = D:/Protein_go_brrr/autodock/final/AncB/heme/dock.dpf
DOCKED: USER  
DOCKED: USER    Estimated Free Energy of Binding    =   -3.31 kcal/mol  [=(1)+(2)+(3)-(4)]
DOCKED: USER    Estimated Inhibition Constant, Ki   =    3.77 mM (millimolar)  [Temperature = 298.15 K]
DOCKED: USER    
DOCKED: USER    (1) Final Intermolecular Energy     =   -7.19 kcal/mol
DOCKED: USER        vdW + Hbond + desolv Energy     =   -7.26 kcal/mol
DOCKED: USER        Electrostatic Energy            =   +0.07 kcal/mol
DOCKED: USER    (2) Final Total Internal Energy     =   -4.48 kcal/mol
DOCKED: USER    (3) Torsional Free Energy           =   +3.88 kcal/mol
DOCKED: USER    (4) Unbound System's Energy  [=(2)] =   -4.48 kcal/mol
DOCKED: USER    
DOCKED: USER    
DOCKED: USER    NEWDPF move heme_opt.pdbqt
DOCKED: USER    NEWDPF about 0.153000 0.018000 -0.028000
DOCKED: USER    NEWDPF tran0 -12.168509 13.154598 4.329103
DOCKED: USER    NEWDPF quaternion0 -0.136847 -0.501090 0.316207 0.793848
DOCKED: USER    NEWDPF axisangle0 -0.225035 -0.824004 0.519978 74.906790
DOCKED: USER    NEWDPF quat0 -0.225035 -0.824004 0.519978 74.906790
DOCKED: USER    NEWDPF dihe0 108.91 158.73 -141.22 -102.08 177.64 33.57 126.26 -47.44 -18.97 -19.29 -56.52 -85.66 33.79 
DOCKED: USER  keepresnum = 1 
DOCKED: USER  
DOCKED: REMARK  13 active torsions:
DOCKED: REMARK  status: ('A' for Active; 'I' for Inactive)
DOCKED: REMARK    1  A    between atoms: O_3  and  C_38 
DOCKED: REMARK    2  A    between atoms: O_4  and  C_40 
DOCKED: REMARK    3  A    between atoms: O_7  and  C_46 
DOCKED: REMARK    4  A    between atoms: O_9  and  C_48 
DOCKED: REMARK    5  A    between atoms: C_15  and  C_20 
DOCKED: REMARK    6  A    between atoms: C_16  and  C_23 
DOCKED: REMARK    7  A    between atoms: C_20  and  C_38 
DOCKED: REMARK    8  A    between atoms: C_23  and  C_40 
DOCKED: REMARK    9  A    between atoms: C_32  and  C_41 
DOCKED: REMARK   10  A    between atoms: C_37  and  C_45 
DOCKED: REMARK   11  A    between atoms: C_41  and  C_44 
DOCKED: REMARK   12  A    between atoms: C_44  and  C_46 
DOCKED: REMARK   13  A    between atoms: C_47  and  C_48 
DOCKED: USER                              x       y       z     vdW  Elec       q    Type
DOCKED: USER                           _______ _______ _______ _____ _____    ______ ____
DOCKED: ROOT
DOCKED: ATOM      1  O   UNL d   1     -12.301  16.144   9.409 -0.04 -0.03    -0.289 OA
DOCKED: ATOM      2  O   UNL d   1     -17.177  11.272   6.429 -0.01 -0.01    -0.289 OA
DOCKED: ATOM      3  N   UNL d   1     -11.858  14.725   6.296 -0.10 +0.06    -0.247 NA
DOCKED: ATOM      4  N   UNL d   1     -14.077  12.756   6.121 +0.08 +0.05    -0.247 NA
DOCKED: ATOM      5  N   UNL d   1     -12.750  11.603   3.846 +0.01 +0.08    -0.354 N 
DOCKED: ATOM      6  N   UNL d   1     -10.443  13.637   4.047 -0.20 +0.13    -0.354 N 
DOCKED: ATOM      7  C   UNL d   1     -10.509  16.169   7.746 -0.15 -0.00    +0.084 A 
DOCKED: ATOM      8  C   UNL d   1     -16.077  13.205   7.452 -0.03 +0.00    +0.084 A 
DOCKED: ATOM      9  C   UNL d   1     -14.641  13.580   7.069 -0.09 -0.00    +0.058 A 
DOCKED: ATOM     10  C   UNL d   1     -10.654  15.395   6.433 -0.22 -0.01    +0.058 A 
DOCKED: ATOM     11  C   UNL d   1     -11.852  15.833   8.320 -0.10 +0.01    +0.193 A 
DOCKED: ATOM     12  C   UNL d   1     -12.585  14.975   7.336 -0.14 -0.01    +0.109 A 
DOCKED: ATOM     13  C   UNL d   1     -16.209  11.993   6.573 -0.03 +0.00    +0.193 A 
DOCKED: ATOM     14  C   UNL d   1      -9.423  15.574   8.647 -0.21 +0.00    +0.026 C 
DOCKED: ATOM     15  C   UNL d   1     -13.977  14.593   7.648 -0.10 -0.00    +0.055 C 
DOCKED: ATOM     16  C   UNL d   1     -17.083  14.262   6.988 -0.01 +0.00    +0.026 C 
DOCKED: ATOM     17  C   UNL d   1     -14.926  11.826   5.825 -0.09 -0.01    +0.109 A 
DOCKED: ATOM     18  C   UNL d   1      -9.711  15.455   5.474 -0.24 -0.01    +0.050 C 
DOCKED: ATOM     19  C   UNL d   1      -9.796  14.843   4.197 -0.27 -0.01    +0.045 A 
DOCKED: ATOM     20  C   UNL d   1     -13.718  10.656   4.060 -0.09 -0.00    +0.045 A 
DOCKED: ATOM     21  C   UNL d   1     -14.747  10.687   4.912 -0.12 +0.00    +0.057 C 
DOCKED: ATOM     22  C   UNL d   1     -12.291   9.901   2.443 -0.30 +0.00    -0.019 A 
DOCKED: ATOM     23  C   UNL d   1     -11.843  11.237   2.888 -0.28 -0.01    +0.045 A 
DOCKED: ATOM     24  C   UNL d   1     -13.402   9.564   3.140 -0.24 -0.00    -0.022 A 
DOCKED: ATOM     25  C   UNL d   1     -10.327  13.185   2.753 -0.22 -0.02    +0.049 A 
DOCKED: ATOM     26  C   UNL d   1      -9.278  15.201   2.962 -0.23 +0.01    -0.018 A 
DOCKED: ATOM     27  C   UNL d   1      -9.634  14.160   2.050 -0.22 -0.00    +0.003 A 
DOCKED: ATOM     28  C   UNL d   1     -10.779  11.887   2.391 -0.32 -0.02    +0.052 C 
DOCKED: ATOM     29  C   UNL d   1     -14.224   8.325   3.040 -0.22 +0.00    +0.046 C 
DOCKED: ATOM     30  C   UNL d   1      -8.503  16.435   2.646 -0.17 -0.02    +0.046 C 
DOCKED: ATOM     31  H   UNL d   1     -12.784  12.504   4.311 -0.40 -0.06    +0.166 HD
DOCKED: ATOM     32  H   UNL d   1     -10.899  13.147   4.807 -0.34 -0.10    +0.166 HD
DOCKED: ENDROOT
DOCKED: BRANCH   7  33
DOCKED: ATOM     33  C   UNL d   1     -10.350  17.686   7.601 -0.04 -0.00    +0.141 C 
DOCKED: BRANCH  33  34
DOCKED: ATOM     34  C   UNL d   1     -11.020  18.223   6.365 -0.01 -0.02    +0.306 C 
DOCKED: ATOM     35  O   UNL d   1     -10.507  18.934   5.519 -0.01 +0.02    -0.251 OA
DOCKED: BRANCH  34  36
DOCKED: ATOM     36  O   UNL d   1     -12.302  17.831   6.259 +0.00 +0.02    -0.481 OA
DOCKED: ATOM     37  H   UNL d   1     -12.251  16.885   6.006 +0.03 -0.02    +0.295 HD
DOCKED: ENDBRANCH  34  36
DOCKED: ENDBRANCH  33  34
DOCKED: ENDBRANCH   7  33
DOCKED: BRANCH  27  38
DOCKED: ATOM     38  C   UNL d   1      -9.282  14.123   0.662 -0.26 -0.01    +0.017 C 
DOCKED: ATOM     39  C   UNL d   1      -8.737  13.073   0.029 -0.23 -0.03    +0.092 C 
DOCKED: BRANCH  39  40
DOCKED: ATOM     40  C   UNL d   1      -8.440  13.159  -1.404 -0.20 -0.12    +0.330 C 
DOCKED: ATOM     41  O   UNL d   1      -8.117  14.145  -2.038 -0.22 +0.16    -0.246 OA
DOCKED: BRANCH  40  42
DOCKED: ATOM     42  O   UNL d   1      -8.562  11.950  -1.973 -0.26 +0.03    -0.477 OA
DOCKED: ATOM     43  H   UNL d   1      -8.470  11.327  -1.224 +0.15 +0.02    +0.295 HD
DOCKED: ENDBRANCH  40  42
DOCKED: ENDBRANCH  39  40
DOCKED: ENDBRANCH  27  38
DOCKED: BRANCH   8  44
DOCKED: ATOM     44  C   UNL d   1     -16.294  12.841   8.925 -0.02 +0.01    +0.141 C 
DOCKED: BRANCH  44  45
DOCKED: ATOM     45  C   UNL d   1     -15.644  11.541   9.318 -0.03 +0.02    +0.306 C 
DOCKED: ATOM     46  O   UNL d   1     -14.475  11.376   9.620 -0.10 -0.03    -0.251 OA
DOCKED: BRANCH  45  47
DOCKED: ATOM     47  O   UNL d   1     -16.502  10.505   9.283 +0.01 -0.03    -0.481 OA
DOCKED: ATOM     48  H   UNL d   1     -17.066  10.677   8.500 +0.03 +0.02    +0.295 HD
DOCKED: ENDBRANCH  45  47
DOCKED: ENDBRANCH  44  45
DOCKED: ENDBRANCH   8  44
DOCKED: BRANCH  22  49
DOCKED: ATOM     49  C   UNL d   1     -11.589   9.082   1.401 -0.34 -0.00    +0.048 C 
DOCKED: BRANCH  49  50
DOCKED: ATOM     50  C   UNL d   1     -11.303   9.893   0.137 -0.18 +0.00    +0.125 C 
DOCKED: BRANCH  50  51
DOCKED: ATOM     51  C   UNL d   1      -9.839   9.863  -0.199 -0.19 +0.00    +0.305 C 
DOCKED: ATOM     52  O   UNL d   1      -8.904  10.155   0.526 -0.47 +0.03    -0.251 OA
DOCKED: BRANCH  51  53
DOCKED: ATOM     53  O   UNL d   1      -9.621   9.468  -1.469 +0.01 -0.06    -0.481 OA
DOCKED: ATOM     54  H   UNL d   1      -9.833  10.261  -2.005 +0.12 +0.03    +0.295 HD
DOCKED: ENDBRANCH  51  53
DOCKED: ENDBRANCH  50  51
DOCKED: ENDBRANCH  49  50
DOCKED: ENDBRANCH  22  49
DOCKED: TORSDOF 13
DOCKED: TER
DOCKED: ENDMDL
________________________________________________________________________________


	BEGINNING GENETIC ALGORITHM DOCKING 27 of 100
Run: 27 Seed: 1720035669 1093972637 [ Run 27 of 100 GA/GALS ]
Beginning LAMARCKIAN GENETIC ALGORITHM (LGA), with a maximum of 25000000 energy evaluations.

Final-Value: -13.754


	FINAL GENETIC ALGORITHM DOCKED STATE
	_______________________________________________


Detailed state:  trans 1.045 -0.960 -11.166 quatxyzw -0.661754 0.078163 -0.261082 -0.698433 center 0.153 0.018 -0.028 ntor 13 111.5167 33.7989 -165.2155 33.7709 -179.9885 -59.0976 -73.3759 -52.2425 -21.6810 -154.5644 28.1555 148.3052 -51.3617
State:	  1.045  -0.960 -11.166  -0.925  0.109 -0.365 -91.397    111.52   33.80 -165.22   33.77 -179.99  -59.10  -73.38  -52.24  -21.68 -154.56   28.16  148.31  -51.36

DOCKED: MODEL       27
DOCKED: USER    Run = 27
DOCKED: USER    DPF = D:/Protein_go_brrr/autodock/final/AncB/heme/dock.dpf
DOCKED: USER  
DOCKED: USER    Estimated Free Energy of Binding    =   -8.04 kcal/mol  [=(1)+(2)+(3)-(4)]
DOCKED: USER    Estimated Inhibition Constant, Ki   =    1.27 uM (micromolar)  [Temperature = 298.15 K]
DOCKED: USER    
DOCKED: USER    (1) Final Intermolecular Energy     =  -11.92 kcal/mol
DOCKED: USER        vdW + Hbond + desolv Energy     =  -11.40 kcal/mol
DOCKED: USER        Electrostatic Energy            =   -0.52 kcal/mol
DOCKED: USER    (2) Final Total Internal Energy     =   -1.83 kcal/mol
DOCKED: USER    (3) Torsional Free Energy           =   +3.88 kcal/mol
DOCKED: USER    (4) Unbound System's Energy  [=(2)] =   -1.83 kcal/mol
DOCKED: USER    
DOCKED: USER    
DOCKED: USER    NEWDPF move heme_opt.pdbqt
DOCKED: USER    NEWDPF about 0.153000 0.018000 -0.028000
DOCKED: USER    NEWDPF tran0 1.044798 -0.959567 -11.165865
DOCKED: USER    NEWDPF quaternion0 -0.661754 0.078163 -0.261082 -0.698433
DOCKED: USER    NEWDPF axisangle0 -0.924656 0.109216 -0.364805 -91.397187
DOCKED: USER    NEWDPF quat0 -0.924656 0.109216 -0.364805 -91.397187
DOCKED: USER    NEWDPF dihe0 111.52 33.80 -165.22 33.77 -179.99 -59.10 -73.38 -52.24 -21.68 -154.56 28.16 148.31 -51.36 
DOCKED: USER  keepresnum = 1 
DOCKED: USER  
DOCKED: REMARK  13 active torsions:
DOCKED: REMARK  status: ('A' for Active; 'I' for Inactive)
DOCKED: REMARK    1  A    between atoms: O_3  and  C_38 
DOCKED: REMARK    2  A    between atoms: O_4  and  C_40 
DOCKED: REMARK    3  A    between atoms: O_7  and  C_46 
DOCKED: REMARK    4  A    between atoms: O_9  and  C_48 
DOCKED: REMARK    5  A    between atoms: C_15  and  C_20 
DOCKED: REMARK    6  A    between atoms: C_16  and  C_23 
DOCKED: REMARK    7  A    between atoms: C_20  and  C_38 
DOCKED: REMARK    8  A    between atoms: C_23  and  C_40 
DOCKED: REMARK    9  A    between atoms: C_32  and  C_41 
DOCKED: REMARK   10  A    between atoms: C_37  and  C_45 
DOCKED: REMARK   11  A    between atoms: C_41  and  C_44 
DOCKED: REMARK   12  A    between atoms: C_44  and  C_46 
DOCKED: REMARK   13  A    between atoms: C_47  and  C_48 
DOCKED: USER                              x       y       z     vdW  Elec       q    Type
DOCKED: USER                           _______ _______ _______ _____ _____    ______ ____
DOCKED: ROOT
DOCKED: ATOM      1  O   UNL d   1      -2.997   2.219 -14.050 -0.41 -0.66    -0.289 OA
DOCKED: ATOM      2  O   UNL d   1      -3.202  -1.052  -7.293 -0.28 -0.10    -0.289 OA
DOCKED: ATOM      3  N   UNL d   1      -0.398   0.317 -12.816 -0.01 -0.22    -0.247 NA
DOCKED: ATOM      4  N   UNL d   1      -1.249  -0.279 -10.032 -0.05 -0.15    -0.247 NA
DOCKED: ATOM      5  N   UNL d   1       1.437  -1.153  -9.496 -0.12 -0.19    -0.354 N 
DOCKED: ATOM      6  N   UNL d   1       2.316  -0.514 -12.380 -0.16 -0.14    -0.354 N 
DOCKED: ATOM      7  C   UNL d   1      -0.730   1.706 -14.808 -0.12 +0.09    +0.084 A 
DOCKED: ATOM      8  C   UNL d   1      -3.650  -0.284  -9.574 -0.27 +0.05    +0.084 A 
DOCKED: ATOM      9  C   UNL d   1      -2.499  -0.027 -10.553 -0.28 +0.05    +0.058 A 
DOCKED: ATOM     10  C   UNL d   1       0.182   0.798 -13.977 -0.16 +0.05    +0.058 A 
DOCKED: ATOM     11  C   UNL d   1      -1.936   1.637 -13.919 -0.14 +0.28    +0.193 A 
DOCKED: ATOM     12  C   UNL d   1      -1.617   0.745 -12.759 -0.18 +0.13    +0.109 A 
DOCKED: ATOM     13  C   UNL d   1      -2.820  -0.693  -8.390 -0.28 +0.09    +0.193 A 
DOCKED: ATOM     14  C   UNL d   1      -0.224   3.150 -14.845 -0.23 +0.03    +0.026 C 
DOCKED: ATOM     15  C   UNL d   1      -2.693   0.451 -11.791 -0.28 +0.06    +0.055 C 
DOCKED: ATOM     16  C   UNL d   1      -4.509  -1.476 -10.008 +0.02 +0.02    +0.026 C 
DOCKED: ATOM     17  C   UNL d   1      -1.383  -0.641  -8.796 -0.32 +0.05    +0.109 A 
DOCKED: ATOM     18  C   UNL d   1       1.406   0.444 -14.413 -0.20 +0.03    +0.050 C 
DOCKED: ATOM     19  C   UNL d   1       2.284  -0.455 -13.755 -0.25 +0.02    +0.045 A 
DOCKED: ATOM     20  C   UNL d   1       0.932  -1.148  -8.222 +0.45 +0.03    +0.045 A 
DOCKED: ATOM     21  C   UNL d   1      -0.328  -0.951  -7.820 -0.19 +0.03    +0.057 C 
DOCKED: ATOM     22  C   UNL d   1       3.177  -1.556  -8.125 -0.44 -0.01    -0.019 A 
DOCKED: ATOM     23  C   UNL d   1       2.785  -1.391  -9.538 -0.42 +0.02    +0.045 A 
DOCKED: ATOM     24  C   UNL d   1       2.076  -1.412  -7.350 -0.37 -0.01    -0.022 A 
DOCKED: ATOM     25  C   UNL d   1       3.297  -1.380 -11.957 -0.43 +0.01    +0.049 A 
DOCKED: ATOM     26  C   UNL d   1       3.243  -1.332 -14.238 -0.24 -0.01    -0.018 A 
DOCKED: ATOM     27  C   UNL d   1       3.866  -1.928 -13.098 -0.39 +0.00    +0.003 A 
DOCKED: ATOM     28  C   UNL d   1       3.627  -1.491 -10.578 -0.50 +0.02    +0.052 C 
DOCKED: ATOM     29  C   UNL d   1       1.961  -1.504  -5.867 -0.45 +0.01    +0.046 C 
DOCKED: ATOM     30  C   UNL d   1       3.562  -1.603 -15.669 -0.18 +0.01    +0.046 C 
DOCKED: ATOM     31  H   UNL d   1       0.828  -1.067 -10.303 +0.08 +0.09    +0.166 HD
DOCKED: ATOM     32  H   UNL d   1       1.719   0.044 -11.781 +0.10 +0.07    +0.166 HD
DOCKED: ENDROOT
DOCKED: BRANCH   7  33
DOCKED: ATOM     33  C   UNL d   1      -1.068   1.191 -16.211 -0.04 +0.13    +0.141 C 
DOCKED: BRANCH  33  34
DOCKED: ATOM     34  C   UNL d   1      -0.990  -0.308 -16.313 -0.04 +0.30    +0.306 C 
DOCKED: ATOM     35  O   UNL d   1      -0.333  -0.943 -17.121 -0.04 -0.18    -0.251 OA
DOCKED: BRANCH  34  36
DOCKED: ATOM     36  O   UNL d   1      -1.743  -0.930 -15.388 -0.53 -0.96    -0.481 OA
DOCKED: ATOM     37  H   UNL d   1      -1.274  -0.772 -14.541 +0.07 +0.51    +0.295 HD
DOCKED: ENDBRANCH  34  36
DOCKED: ENDBRANCH  33  34
DOCKED: ENDBRANCH   7  33
DOCKED: BRANCH  27  38
DOCKED: ATOM     38  C   UNL d   1       4.928  -2.887 -13.146 -0.51 +0.00    +0.017 C 
DOCKED: ATOM     39  C   UNL d   1       5.555  -3.294 -14.260 -0.43 +0.01    +0.092 C 
DOCKED: BRANCH  39  40
DOCKED: ATOM     40  C   UNL d   1       6.642  -4.272 -14.171 -0.28 +0.03    +0.330 C 
DOCKED: ATOM     41  O   UNL d   1       7.699  -4.157 -13.579 -0.27 -0.05    -0.246 OA
DOCKED: BRANCH  40  42
DOCKED: ATOM     42  O   UNL d   1       6.320  -5.384 -14.849 -0.13 +0.01    -0.477 OA
DOCKED: ATOM     43  H   UNL d   1       6.740  -6.104 -14.334 -0.22 -0.09    +0.295 HD
DOCKED: ENDBRANCH  40  42
DOCKED: ENDBRANCH  39  40
DOCKED: ENDBRANCH  27  38
DOCKED: BRANCH   8  44
DOCKED: ATOM     44  C   UNL d   1      -4.518   0.933  -9.241 -0.25 +0.07    +0.141 C 
DOCKED: BRANCH  44  45
DOCKED: ATOM     45  C   UNL d   1      -5.906   0.567  -8.785 -0.19 +0.11    +0.306 C 
DOCKED: ATOM     46  O   UNL d   1      -6.952   0.854  -9.339 -0.14 -0.10    -0.251 OA
DOCKED: BRANCH  45  47
DOCKED: ATOM     47  O   UNL d   1      -5.902  -0.126  -7.632 -0.09 -0.13    -0.481 OA
DOCKED: ATOM     48  H   UNL d   1      -4.995  -0.011  -7.277 +0.13 +0.07    +0.295 HD
DOCKED: ENDBRANCH  45  47
DOCKED: ENDBRANCH  44  45
DOCKED: ENDBRANCH   8  44
DOCKED: BRANCH  22  49
DOCKED: ATOM     49  C   UNL d   1       4.581  -1.822  -7.666 -0.46 +0.01    +0.048 C 
DOCKED: BRANCH  49  50
DOCKED: ATOM     50  C   UNL d   1       4.635  -2.927  -6.611 -0.43 +0.03    +0.125 C 
DOCKED: BRANCH  50  51
DOCKED: ATOM     51  C   UNL d   1       5.801  -2.729  -5.685 -0.38 +0.07    +0.305 C 
DOCKED: ATOM     52  O   UNL d   1       6.982  -2.666  -5.980 -0.49 -0.08    -0.251 OA
DOCKED: BRANCH  51  53
DOCKED: ATOM     53  O   UNL d   1       5.412  -2.628  -4.399 -0.21 -0.07    -0.481 OA
DOCKED: ATOM     54  H   UNL d   1       6.055  -2.003  -4.003 +0.20 +0.02    +0.295 HD
DOCKED: ENDBRANCH  51  53
DOCKED: ENDBRANCH  50  51
DOCKED: ENDBRANCH  49  50
DOCKED: ENDBRANCH  22  49
DOCKED: TORSDOF 13
DOCKED: TER
DOCKED: ENDMDL
________________________________________________________________________________


	BEGINNING GENETIC ALGORITHM DOCKING 28 of 100
Run: 28 Seed: 1411945384 284263671 [ Run 28 of 100 GA/GALS ]
Beginning LAMARCKIAN GENETIC ALGORITHM (LGA), with a maximum of 25000000 energy evaluations.

Final-Value: -11.534


	FINAL GENETIC ALGORITHM DOCKED STATE
	_______________________________________________


Detailed state:  trans 15.715 -0.148 -13.742 quatxyzw -0.715701 0.296590 -0.553596 -0.305512 center 0.153 0.018 -0.028 ntor 13 167.7686 -170.0018 72.3783 135.1806 -146.5881 -84.2214 91.2889 86.1628 14.6602 -25.8265 -91.9487 35.4937 -7.0053
State:	 15.715  -0.148 -13.742  -0.752  0.311 -0.581 -144.422    167.77 -170.00   72.38  135.18 -146.59  -84.22   91.29   86.16   14.66  -25.83  -91.95   35.49   -7.01

DOCKED: MODEL       28
DOCKED: USER    Run = 28
DOCKED: USER    DPF = D:/Protein_go_brrr/autodock/final/AncB/heme/dock.dpf
DOCKED: USER  
DOCKED: USER    Estimated Free Energy of Binding    =   -4.00 kcal/mol  [=(1)+(2)+(3)-(4)]
DOCKED: USER    Estimated Inhibition Constant, Ki   =    1.16 mM (millimolar)  [Temperature = 298.15 K]
DOCKED: USER    
DOCKED: USER    (1) Final Intermolecular Energy     =   -7.88 kcal/mol
DOCKED: USER        vdW + Hbond + desolv Energy     =   -7.51 kcal/mol
DOCKED: USER        Electrostatic Energy            =   -0.37 kcal/mol
DOCKED: USER    (2) Final Total Internal Energy     =   -3.65 kcal/mol
DOCKED: USER    (3) Torsional Free Energy           =   +3.88 kcal/mol
DOCKED: USER    (4) Unbound System's Energy  [=(2)] =   -3.65 kcal/mol
DOCKED: USER    
DOCKED: USER    
DOCKED: USER    NEWDPF move heme_opt.pdbqt
DOCKED: USER    NEWDPF about 0.153000 0.018000 -0.028000
DOCKED: USER    NEWDPF tran0 15.714740 -0.147812 -13.742350
DOCKED: USER    NEWDPF quaternion0 -0.715701 0.296590 -0.553596 -0.305512
DOCKED: USER    NEWDPF axisangle0 -0.751639 0.311482 -0.581393 -144.422013
DOCKED: USER    NEWDPF quat0 -0.751639 0.311482 -0.581393 -144.422013
DOCKED: USER    NEWDPF dihe0 167.77 -170.00 72.38 135.18 -146.59 -84.22 91.29 86.16 14.66 -25.83 -91.95 35.49 -7.01 
DOCKED: USER  keepresnum = 1 
DOCKED: USER  
DOCKED: REMARK  13 active torsions:
DOCKED: REMARK  status: ('A' for Active; 'I' for Inactive)
DOCKED: REMARK    1  A    between atoms: O_3  and  C_38 
DOCKED: REMARK    2  A    between atoms: O_4  and  C_40 
DOCKED: REMARK    3  A    between atoms: O_7  and  C_46 
DOCKED: REMARK    4  A    between atoms: O_9  and  C_48 
DOCKED: REMARK    5  A    between atoms: C_15  and  C_20 
DOCKED: REMARK    6  A    between atoms: C_16  and  C_23 
DOCKED: REMARK    7  A    between atoms: C_20  and  C_38 
DOCKED: REMARK    8  A    between atoms: C_23  and  C_40 
DOCKED: REMARK    9  A    between atoms: C_32  and  C_41 
DOCKED: REMARK   10  A    between atoms: C_37  and  C_45 
DOCKED: REMARK   11  A    between atoms: C_41  and  C_44 
DOCKED: REMARK   12  A    between atoms: C_44  and  C_46 
DOCKED: REMARK   13  A    between atoms: C_47  and  C_48 
DOCKED: USER                              x       y       z     vdW  Elec       q    Type
DOCKED: USER                           _______ _______ _______ _____ _____    ______ ____
DOCKED: ROOT
DOCKED: ATOM      1  O   UNL d   1      15.015   3.126 -18.595 -0.04 -0.06    -0.289 OA
DOCKED: ATOM      2  O   UNL d   1      14.034   4.796 -11.339 -0.33 -0.19    -0.289 OA
DOCKED: ATOM      3  N   UNL d   1      15.423   0.809 -16.073 -0.04 -0.06    -0.247 NA
DOCKED: ATOM      4  N   UNL d   1      15.132   2.431 -13.601 -0.08 -0.08    -0.247 NA
DOCKED: ATOM      5  N   UNL d   1      16.207   0.209 -12.127 -0.07 -0.12    -0.354 N 
DOCKED: ATOM      6  N   UNL d   1      16.523  -1.460 -14.699 -0.01 -0.08    -0.354 N 
DOCKED: ATOM      7  C   UNL d   1      15.800   0.813 -18.495 -0.02 +0.02    +0.084 A 
DOCKED: ATOM      8  C   UNL d   1      13.798   4.473 -13.754 -0.33 +0.02    +0.084 A 
DOCKED: ATOM      9  C   UNL d   1      14.448   3.273 -14.450 -0.20 +0.02    +0.058 A 
DOCKED: ATOM     10  C   UNL d   1      15.856   0.067 -17.159 -0.04 +0.01    +0.058 A 
DOCKED: ATOM     11  C   UNL d   1      15.240   2.103 -17.975 -0.04 +0.04    +0.193 A 
DOCKED: ATOM     12  C   UNL d   1      15.031   1.966 -16.498 -0.08 +0.03    +0.109 A 
DOCKED: ATOM     13  C   UNL d   1      14.272   4.178 -12.359 -0.28 +0.09    +0.193 A 
DOCKED: ATOM     14  C   UNL d   1      17.196   1.075 -19.067 -0.01 +0.00    +0.026 C 
DOCKED: ATOM     15  C   UNL d   1      14.397   3.088 -15.778 -0.19 +0.02    +0.055 C 
DOCKED: ATOM     16  C   UNL d   1      12.269   4.388 -13.784 -0.55 +0.00    +0.026 C 
DOCKED: ATOM     17  C   UNL d   1      15.075   2.919 -12.403 -0.23 +0.05    +0.109 A 
DOCKED: ATOM     18  C   UNL d   1      16.215  -1.229 -17.092 -0.03 +0.01    +0.050 C 
DOCKED: ATOM     19  C   UNL d   1      16.216  -2.023 -15.917 -0.03 +0.01    +0.045 A 
DOCKED: ATOM     20  C   UNL d   1      16.217   1.168 -11.148 -0.26 +0.02    +0.045 A 
DOCKED: ATOM     21  C   UNL d   1      15.708   2.404 -11.180 -0.29 +0.03    +0.057 C 
DOCKED: ATOM     22  C   UNL d   1      17.276  -0.698 -10.364 -0.20 -0.01    -0.019 A 
DOCKED: ATOM     23  C   UNL d   1      16.824  -0.953 -11.746 -0.14 +0.01    +0.045 A 
DOCKED: ATOM     24  C   UNL d   1      16.912   0.559 -10.015 -0.28 -0.01    -0.022 A 
DOCKED: ATOM     25  C   UNL d   1      16.554  -2.422 -13.716 -0.08 +0.01    +0.049 A 
DOCKED: ATOM     26  C   UNL d   1      16.006  -3.378 -15.715 -0.04 -0.00    -0.018 A 
DOCKED: ATOM     27  C   UNL d   1      16.201  -3.621 -14.320 -0.07 +0.00    +0.003 A 
DOCKED: ATOM     28  C   UNL d   1      17.001  -2.109 -12.403 -0.12 +0.02    +0.052 C 
DOCKED: ATOM     29  C   UNL d   1      17.133   1.269  -8.722 -0.22 +0.03    +0.046 C 
DOCKED: ATOM     30  C   UNL d   1      15.644  -4.387 -16.751 -0.02 +0.01    +0.046 C 
DOCKED: ATOM     31  H   UNL d   1      15.712   0.354 -13.000 +0.06 +0.05    +0.166 HD
DOCKED: ATOM     32  H   UNL d   1      16.735  -0.477 -14.573 +0.03 +0.04    +0.166 HD
DOCKED: ENDROOT
DOCKED: BRANCH   7  33
DOCKED: ATOM     33  C   UNL d   1      14.865   0.207 -19.547 -0.03 +0.03    +0.141 C 
DOCKED: BRANCH  33  34
DOCKED: ATOM     34  C   UNL d   1      13.426   0.198 -19.108 -0.02 +0.09    +0.306 C 
DOCKED: ATOM     35  O   UNL d   1      12.854  -0.712 -18.534 -0.12 -0.10    -0.251 OA
DOCKED: BRANCH  34  36
DOCKED: ATOM     36  O   UNL d   1      12.784   1.340 -19.413 -0.03 -0.14    -0.481 OA
DOCKED: ATOM     37  H   UNL d   1      13.500   1.974 -19.633 +0.04 +0.07    +0.295 HD
DOCKED: ENDBRANCH  34  36
DOCKED: ENDBRANCH  33  34
DOCKED: ENDBRANCH   7  33
DOCKED: BRANCH  27  38
DOCKED: ATOM     38  C   UNL d   1      16.095  -4.898 -13.682 -0.10 +0.01    +0.017 C 
DOCKED: ATOM     39  C   UNL d   1      15.097  -5.278 -12.870 -0.13 +0.05    +0.092 C 
DOCKED: BRANCH  39  40
DOCKED: ATOM     40  C   UNL d   1      15.098  -6.625 -12.293 -0.06 +0.23    +0.330 C 
DOCKED: ATOM     41  O   UNL d   1      14.660  -7.646 -12.787 -0.13 -0.14    -0.246 OA
DOCKED: BRANCH  40  42
DOCKED: ATOM     42  O   UNL d   1      15.681  -6.609 -11.084 -0.62 -0.48    -0.477 OA
DOCKED: ATOM     43  H   UNL d   1      15.786  -5.655 -10.887 +0.08 +0.24    +0.295 HD
DOCKED: ENDBRANCH  40  42
DOCKED: ENDBRANCH  39  40
DOCKED: ENDBRANCH  27  38
DOCKED: BRANCH   8  44
DOCKED: ATOM     44  C   UNL d   1      14.286   5.849 -14.220 -0.26 +0.03    +0.141 C 
DOCKED: BRANCH  44  45
DOCKED: ATOM     45  C   UNL d   1      15.649   6.207 -13.690 -0.19 +0.11    +0.306 C 
DOCKED: ATOM     46  O   UNL d   1      16.638   5.495 -13.689 -0.07 -0.09    -0.251 OA
DOCKED: BRANCH  45  47
DOCKED: ATOM     47  O   UNL d   1      15.687   7.443 -13.159 -0.77 -0.27    -0.481 OA
DOCKED: ATOM     48  H   UNL d   1      16.209   7.972 -13.799 +0.11 +0.13    +0.295 HD
DOCKED: ENDBRANCH  45  47
DOCKED: ENDBRANCH  44  45
DOCKED: ENDBRANCH   8  44
DOCKED: BRANCH  22  49
DOCKED: ATOM     49  C   UNL d   1      18.027  -1.691  -9.526 -0.18 +0.01    +0.048 C 
DOCKED: BRANCH  49  50
DOCKED: ATOM     50  C   UNL d   1      17.084  -2.569  -8.704 -0.14 +0.05    +0.125 C 
DOCKED: BRANCH  50  51
DOCKED: ATOM     51  C   UNL d   1      16.678  -3.792  -9.478 -0.17 +0.13    +0.305 C 
DOCKED: ATOM     52  O   UNL d   1      17.319  -4.816  -9.638 -0.10 -0.10    -0.251 OA
DOCKED: BRANCH  51  53
DOCKED: ATOM     53  O   UNL d   1      15.459  -3.654 -10.035 -0.02 -0.27    -0.481 OA
DOCKED: ATOM     54  H   UNL d   1      14.911  -3.273  -9.318 -0.37 +0.13    +0.295 HD
DOCKED: ENDBRANCH  51  53
DOCKED: ENDBRANCH  50  51
DOCKED: ENDBRANCH  49  50
DOCKED: ENDBRANCH  22  49
DOCKED: TORSDOF 13
DOCKED: TER
DOCKED: ENDMDL
________________________________________________________________________________


	BEGINNING GENETIC ALGORITHM DOCKING 29 of 100
Run: 29 Seed: 1375800722 1096397053 [ Run 29 of 100 GA/GALS ]
Beginning LAMARCKIAN GENETIC ALGORITHM (LGA), with a maximum of 25000000 energy evaluations.

Final-Value: -12.249


	FINAL GENETIC ALGORITHM DOCKED STATE
	_______________________________________________


Detailed state:  trans 4.588 -0.913 -16.009 quatxyzw 0.121822 0.781435 -0.411646 0.452842 center 0.153 0.018 -0.028 ntor 13 144.1145 -173.1197 -84.6103 70.6386 -138.5525 0.9344 132.2567 -14.1259 15.7126 -30.2857 77.1569 -78.1416 155.8513
State:	  4.588  -0.913 -16.009   0.137  0.876 -0.462 126.148    144.11 -173.12  -84.61   70.64 -138.55    0.93  132.26  -14.13   15.71  -30.29   77.16  -78.14  155.85

DOCKED: MODEL       29
DOCKED: USER    Run = 29
DOCKED: USER    DPF = D:/Protein_go_brrr/autodock/final/AncB/heme/dock.dpf
DOCKED: USER  
DOCKED: USER    Estimated Free Energy of Binding    =   -4.91 kcal/mol  [=(1)+(2)+(3)-(4)]
DOCKED: USER    Estimated Inhibition Constant, Ki   =  253.09 uM (micromolar)  [Temperature = 298.15 K]
DOCKED: USER    
DOCKED: USER    (1) Final Intermolecular Energy     =   -8.78 kcal/mol
DOCKED: USER        vdW + Hbond + desolv Energy     =   -8.39 kcal/mol
DOCKED: USER        Electrostatic Energy            =   -0.40 kcal/mol
DOCKED: USER    (2) Final Total Internal Energy     =   -3.46 kcal/mol
DOCKED: USER    (3) Torsional Free Energy           =   +3.88 kcal/mol
DOCKED: USER    (4) Unbound System's Energy  [=(2)] =   -3.46 kcal/mol
DOCKED: USER    
DOCKED: USER    
DOCKED: USER    NEWDPF move heme_opt.pdbqt
DOCKED: USER    NEWDPF about 0.153000 0.018000 -0.028000
DOCKED: USER    NEWDPF tran0 4.587836 -0.913101 -16.008992
DOCKED: USER    NEWDPF quaternion0 0.121822 0.781435 -0.411646 0.452842
DOCKED: USER    NEWDPF axisangle0 0.136635 0.876450 -0.461699 126.147638
DOCKED: USER    NEWDPF quat0 0.136635 0.876450 -0.461699 126.147638
DOCKED: USER    NEWDPF dihe0 144.11 -173.12 -84.61 70.64 -138.55 0.93 132.26 -14.13 15.71 -30.29 77.16 -78.14 155.85 
DOCKED: USER  keepresnum = 1 
DOCKED: USER  
DOCKED: REMARK  13 active torsions:
DOCKED: REMARK  status: ('A' for Active; 'I' for Inactive)
DOCKED: REMARK    1  A    between atoms: O_3  and  C_38 
DOCKED: REMARK    2  A    between atoms: O_4  and  C_40 
DOCKED: REMARK    3  A    between atoms: O_7  and  C_46 
DOCKED: REMARK    4  A    between atoms: O_9  and  C_48 
DOCKED: REMARK    5  A    between atoms: C_15  and  C_20 
DOCKED: REMARK    6  A    between atoms: C_16  and  C_23 
DOCKED: REMARK    7  A    between atoms: C_20  and  C_38 
DOCKED: REMARK    8  A    between atoms: C_23  and  C_40 
DOCKED: REMARK    9  A    between atoms: C_32  and  C_41 
DOCKED: REMARK   10  A    between atoms: C_37  and  C_45 
DOCKED: REMARK   11  A    between atoms: C_41  and  C_44 
DOCKED: REMARK   12  A    between atoms: C_44  and  C_46 
DOCKED: REMARK   13  A    between atoms: C_47  and  C_48 
DOCKED: USER                              x       y       z     vdW  Elec       q    Type
DOCKED: USER                           _______ _______ _______ _____ _____    ______ ____
DOCKED: ROOT
DOCKED: ATOM      1  O   UNL d   1       6.899  -3.352 -20.853 +0.00 -0.05    -0.289 OA
DOCKED: ATOM      2  O   UNL d   1       8.236  -4.628 -13.574 -0.23 -0.05    -0.289 OA
DOCKED: ATOM      3  N   UNL d   1       5.378  -1.556 -18.332 -0.02 -0.06    -0.247 NA
DOCKED: ATOM      4  N   UNL d   1       6.275  -2.949 -15.864 -0.13 -0.03    -0.247 NA
DOCKED: ATOM      5  N   UNL d   1       4.247  -1.507 -14.424 -0.11 -0.06    -0.354 N 
DOCKED: ATOM      6  N   UNL d   1       3.310  -0.082 -16.992 -0.02 -0.14    -0.354 N 
DOCKED: ATOM      7  C   UNL d   1       5.144  -1.653 -20.769 -0.00 +0.02    +0.084 A 
DOCKED: ATOM      8  C   UNL d   1       8.398  -4.155 -15.971 -0.18 +0.01    +0.084 A 
DOCKED: ATOM      9  C   UNL d   1       7.301  -3.359 -16.686 -0.14 +0.01    +0.058 A 
DOCKED: ATOM     10  C   UNL d   1       4.699  -1.058 -19.430 -0.03 +0.02    +0.058 A 
DOCKED: ATOM     11  C   UNL d   1       6.208  -2.564 -20.235 +0.00 +0.04    +0.193 A 
DOCKED: ATOM     12  C   UNL d   1       6.271  -2.394 -18.748 -0.02 +0.02    +0.109 A 
DOCKED: ATOM     13  C   UNL d   1       7.785  -4.153 -14.598 -0.27 +0.02    +0.193 A 
DOCKED: ATOM     14  C   UNL d   1       4.045  -2.502 -21.414 -0.00 +0.01    +0.026 C 
DOCKED: ATOM     15  C   UNL d   1       7.317  -3.128 -18.008 -0.07 +0.01    +0.055 C 
DOCKED: ATOM     16  C   UNL d   1       9.720  -3.383 -15.921 -0.26 +0.00    +0.026 C 
DOCKED: ATOM     17  C   UNL d   1       6.499  -3.396 -14.671 -0.31 +0.01    +0.109 A 
DOCKED: ATOM     18  C   UNL d   1       3.787  -0.070 -19.369 -0.05 +0.02    +0.050 C 
DOCKED: ATOM     19  C   UNL d   1       3.376   0.598 -18.187 -0.07 +0.02    +0.045 A 
DOCKED: ATOM     20  C   UNL d   1       4.635  -2.397 -13.457 -0.36 +0.01    +0.045 A 
DOCKED: ATOM     21  C   UNL d   1       5.652  -3.265 -13.476 -0.42 +0.01    +0.057 C 
DOCKED: ATOM     22  C   UNL d   1       2.811  -1.243 -12.709 -0.35 -0.01    -0.019 A 
DOCKED: ATOM     23  C   UNL d   1       3.154  -0.765 -14.064 -0.26 +0.01    +0.045 A 
DOCKED: ATOM     24  C   UNL d   1       3.693  -2.207 -12.355 -0.40 -0.01    -0.022 A 
DOCKED: ATOM     25  C   UNL d   1       2.805   0.729 -16.002 -0.13 +0.02    +0.049 A 
DOCKED: ATOM     26  C   UNL d   1       2.938   1.894 -17.960 -0.10 -0.01    -0.018 A 
DOCKED: ATOM     27  C   UNL d   1       2.597   1.976 -16.575 -0.16 +0.00    +0.003 A 
DOCKED: ATOM     28  C   UNL d   1       2.496   0.205 -14.717 -0.22 +0.02    +0.052 C 
DOCKED: ATOM     29  C   UNL d   1       3.767  -2.981 -11.083 -0.43 +0.01    +0.046 C 
DOCKED: ATOM     30  C   UNL d   1       2.842   2.990 -18.966 -0.11 +0.02    +0.046 C 
DOCKED: ATOM     31  H   UNL d   1       4.789  -1.383 -15.273 +0.03 +0.02    +0.166 HD
DOCKED: ATOM     32  H   UNL d   1       3.564  -1.057 -16.887 +0.05 +0.06    +0.166 HD
DOCKED: ENDROOT
DOCKED: BRANCH   7  33
DOCKED: ATOM     33  C   UNL d   1       5.741  -0.655 -21.766 -0.01 +0.03    +0.141 C 
DOCKED: BRANCH  33  34
DOCKED: ATOM     34  C   UNL d   1       7.013  -0.026 -21.265 -0.02 +0.08    +0.306 C 
DOCKED: ATOM     35  O   UNL d   1       7.096   0.945 -20.531 -0.09 -0.09    -0.251 OA
DOCKED: BRANCH  34  36
DOCKED: ATOM     36  O   UNL d   1       8.114  -0.656 -21.711 +0.01 -0.10    -0.481 OA
DOCKED: ATOM     37  H   UNL d   1       7.878  -1.608 -21.694 +0.02 +0.06    +0.295 HD
DOCKED: ENDBRANCH  34  36
DOCKED: ENDBRANCH  33  34
DOCKED: ENDBRANCH   7  33
DOCKED: BRANCH  27  38
DOCKED: ATOM     38  C   UNL d   1       2.083   3.141 -15.919 -0.22 +0.01    +0.017 C 
DOCKED: ATOM     39  C   UNL d   1       1.096   3.146 -15.010 -0.23 +0.07    +0.092 C 
DOCKED: BRANCH  39  40
DOCKED: ATOM     40  C   UNL d   1       0.673   4.408 -14.398 -0.19 +0.30    +0.330 C 
DOCKED: ATOM     41  O   UNL d   1       1.127   5.519 -14.596 -0.27 -0.19    -0.246 OA
DOCKED: BRANCH  40  42
DOCKED: ATOM     42  O   UNL d   1      -0.342   4.192 -13.548 -0.94 -0.69    -0.477 OA
DOCKED: ATOM     43  H   UNL d   1      -0.418   3.216 -13.516 +0.12 +0.39    +0.295 HD
DOCKED: ENDBRANCH  40  42
DOCKED: ENDBRANCH  39  40
DOCKED: ENDBRANCH  27  38
DOCKED: BRANCH   8  44
DOCKED: ATOM     44  C   UNL d   1       8.610  -5.587 -16.474 -0.11 +0.02    +0.141 C 
DOCKED: BRANCH  44  45
DOCKED: ATOM     45  C   UNL d   1       7.600  -6.563 -15.932 -0.18 +0.01    +0.306 C 
DOCKED: ATOM     46  O   UNL d   1       6.514  -6.829 -16.417 -0.27 +0.00    -0.251 OA
DOCKED: BRANCH  45  47
DOCKED: ATOM     47  O   UNL d   1       8.004  -7.137 -14.785 -0.15 +0.00    -0.481 OA
DOCKED: ATOM     48  H   UNL d   1       7.605  -6.586 -14.078 -0.18 -0.06    +0.295 HD
DOCKED: ENDBRANCH  45  47
DOCKED: ENDBRANCH  44  45
DOCKED: ENDBRANCH   8  44
DOCKED: BRANCH  22  49
DOCKED: ATOM     49  C   UNL d   1       1.657  -0.727 -11.901 -0.22 +0.02    +0.048 C 
DOCKED: BRANCH  49  50
DOCKED: ATOM     50  C   UNL d   1       0.316  -1.212 -12.451 -0.24 +0.10    +0.125 C 
DOCKED: BRANCH  50  51
DOCKED: ATOM     51  C   UNL d   1      -0.364  -0.130 -13.239 -0.13 +0.30    +0.305 C 
DOCKED: ATOM     52  O   UNL d   1      -0.160   1.070 -13.183 -0.10 -0.22    -0.251 OA
DOCKED: BRANCH  51  53
DOCKED: ATOM     53  O   UNL d   1      -1.301  -0.625 -14.072 -0.27 -0.81    -0.481 OA
DOCKED: ATOM     54  H   UNL d   1      -0.918  -0.497 -14.965 +0.07 +0.38    +0.295 HD
DOCKED: ENDBRANCH  51  53
DOCKED: ENDBRANCH  50  51
DOCKED: ENDBRANCH  49  50
DOCKED: ENDBRANCH  22  49
DOCKED: TORSDOF 13
DOCKED: TER
DOCKED: ENDMDL
________________________________________________________________________________


	BEGINNING GENETIC ALGORITHM DOCKING 30 of 100
Run: 30 Seed: 1934172325 1516226406 [ Run 30 of 100 GA/GALS ]
Beginning LAMARCKIAN GENETIC ALGORITHM (LGA), with a maximum of 25000000 energy evaluations.

Final-Value: -11.406


	FINAL GENETIC ALGORITHM DOCKED STATE
	_______________________________________________


Detailed state:  trans -18.715 -1.472 4.130 quatxyzw 0.714254 0.335720 0.529125 -0.311707 center 0.153 0.018 -0.028 ntor 13 -176.2687 -58.7140 -90.5168 -109.4766 19.1787 -53.7616 149.8268 -146.7894 -21.7388 -74.9162 -84.1764 -105.1359 149.9624
State:	-18.715  -1.472   4.130   0.752  0.353  0.557 -143.676   -176.27  -58.71  -90.52 -109.48   19.18  -53.76  149.83 -146.79  -21.74  -74.92  -84.18 -105.14  149.96

DOCKED: MODEL       30
DOCKED: USER    Run = 30
DOCKED: USER    DPF = D:/Protein_go_brrr/autodock/final/AncB/heme/dock.dpf
DOCKED: USER  
DOCKED: USER    Estimated Free Energy of Binding    =   -5.72 kcal/mol  [=(1)+(2)+(3)-(4)]
DOCKED: USER    Estimated Inhibition Constant, Ki   =   63.76 uM (micromolar)  [Temperature = 298.15 K]
DOCKED: USER    
DOCKED: USER    (1) Final Intermolecular Energy     =   -9.60 kcal/mol
DOCKED: USER        vdW + Hbond + desolv Energy     =   -9.17 kcal/mol
DOCKED: USER        Electrostatic Energy            =   -0.43 kcal/mol
DOCKED: USER    (2) Final Total Internal Energy     =   -1.81 kcal/mol
DOCKED: USER    (3) Torsional Free Energy           =   +3.88 kcal/mol
DOCKED: USER    (4) Unbound System's Energy  [=(2)] =   -1.81 kcal/mol
DOCKED: USER    
DOCKED: USER    
DOCKED: USER    NEWDPF move heme_opt.pdbqt
DOCKED: USER    NEWDPF about 0.153000 0.018000 -0.028000
DOCKED: USER    NEWDPF tran0 -18.715371 -1.472337 4.129970
DOCKED: USER    NEWDPF quaternion0 0.714254 0.335720 0.529125 -0.311707
DOCKED: USER    NEWDPF axisangle0 0.751705 0.353323 0.556869 -143.675765
DOCKED: USER    NEWDPF quat0 0.751705 0.353323 0.556869 -143.675765
DOCKED: USER    NEWDPF dihe0 -176.27 -58.71 -90.52 -109.48 19.18 -53.76 149.83 -146.79 -21.74 -74.92 -84.18 -105.14 149.96 
DOCKED: USER  keepresnum = 1 
DOCKED: USER  
DOCKED: REMARK  13 active torsions:
DOCKED: REMARK  status: ('A' for Active; 'I' for Inactive)
DOCKED: REMARK    1  A    between atoms: O_3  and  C_38 
DOCKED: REMARK    2  A    between atoms: O_4  and  C_40 
DOCKED: REMARK    3  A    between atoms: O_7  and  C_46 
DOCKED: REMARK    4  A    between atoms: O_9  and  C_48 
DOCKED: REMARK    5  A    between atoms: C_15  and  C_20 
DOCKED: REMARK    6  A    between atoms: C_16  and  C_23 
DOCKED: REMARK    7  A    between atoms: C_20  and  C_38 
DOCKED: REMARK    8  A    between atoms: C_23  and  C_40 
DOCKED: REMARK    9  A    between atoms: C_32  and  C_41 
DOCKED: REMARK   10  A    between atoms: C_37  and  C_45 
DOCKED: REMARK   11  A    between atoms: C_41  and  C_44 
DOCKED: REMARK   12  A    between atoms: C_44  and  C_46 
DOCKED: REMARK   13  A    between atoms: C_47  and  C_48 
DOCKED: USER                              x       y       z     vdW  Elec       q    Type
DOCKED: USER                           _______ _______ _______ _____ _____    ______ ____
DOCKED: ROOT
DOCKED: ATOM      1  O   UNL d   1     -19.041  -7.052   2.256 -0.09 -0.04    -0.289 OA
DOCKED: ATOM      2  O   UNL d   1     -21.535  -0.669  -0.814 -0.02 -0.03    -0.289 OA
DOCKED: ATOM      3  N   UNL d   1     -18.734  -3.988   3.809 -0.12 +0.03    -0.247 NA
DOCKED: ATOM      4  N   UNL d   1     -19.704  -2.079   1.750 -0.15 +0.02    -0.247 NA
DOCKED: ATOM      5  N   UNL d   1     -18.578   0.048   3.324 -0.10 +0.00    -0.354 N 
DOCKED: ATOM      6  N   UNL d   1     -17.558  -1.942   5.445 -0.06 +0.04    -0.354 N 
DOCKED: ATOM      7  C   UNL d   1     -17.940  -6.257   4.288 -0.31 +0.00    +0.084 A 
DOCKED: ATOM      8  C   UNL d   1     -21.288  -2.929   0.094 -0.08 +0.01    +0.084 A 
DOCKED: ATOM      9  C   UNL d   1     -20.348  -3.199   1.274 -0.15 +0.00    +0.058 A 
DOCKED: ATOM     10  C   UNL d   1     -18.006  -4.779   4.683 -0.29 -0.00    +0.058 A 
DOCKED: ATOM     11  C   UNL d   1     -18.775  -6.166   3.046 -0.14 +0.02    +0.193 A 
DOCKED: ATOM     12  C   UNL d   1     -19.218  -4.745   2.879 -0.17 +0.00    +0.109 A 
DOCKED: ATOM     13  C   UNL d   1     -21.029  -1.454  -0.036 -0.06 +0.02    +0.193 A 
DOCKED: ATOM     14  C   UNL d   1     -16.522  -6.685   3.901 -0.34 +0.01    +0.026 C 
DOCKED: ATOM     15  C   UNL d   1     -20.135  -4.429   1.765 -0.15 +0.00    +0.055 C 
DOCKED: ATOM     16  C   UNL d   1     -22.756  -3.139   0.477 -0.02 +0.00    +0.026 C 
DOCKED: ATOM     17  C   UNL d   1     -20.046  -1.065   1.020 -0.16 +0.00    +0.109 A 
DOCKED: ATOM     18  C   UNL d   1     -17.470  -4.333   5.834 -0.40 -0.00    +0.050 C 
DOCKED: ATOM     19  C   UNL d   1     -17.554  -3.004   6.321 -0.26 +0.00    +0.045 A 
DOCKED: ATOM     20  C   UNL d   1     -18.889   0.739   2.182 -0.18 +0.01    +0.045 A 
DOCKED: ATOM     21  C   UNL d   1     -19.568   0.322   1.108 -0.20 +0.01    +0.057 C 
DOCKED: ATOM     22  C   UNL d   1     -17.711   2.111   3.577 -0.20 -0.00    -0.019 A 
DOCKED: ATOM     23  C   UNL d   1     -17.866   0.793   4.225 -0.22 +0.00    +0.045 A 
DOCKED: ATOM     24  C   UNL d   1     -18.319   2.073   2.369 -0.11 -0.00    -0.022 A 
DOCKED: ATOM     25  C   UNL d   1     -17.554  -0.750   6.132 -0.22 +0.00    +0.049 A 
DOCKED: ATOM     26  C   UNL d   1     -17.586  -2.490   7.608 -0.22 -0.00    -0.018 A 
DOCKED: ATOM     27  C   UNL d   1     -17.605  -1.066   7.482 -0.16 +0.00    +0.003 A 
DOCKED: ATOM     28  C   UNL d   1     -17.400   0.485   5.445 -0.27 +0.00    +0.052 C 
DOCKED: ATOM     29  C   UNL d   1     -18.443   3.157   1.352 -0.10 +0.02    +0.046 C 
DOCKED: ATOM     30  C   UNL d   1     -17.599  -3.270   8.879 -0.11 +0.04    +0.046 C 
DOCKED: ATOM     31  H   UNL d   1     -18.927  -0.892   3.481 -0.17 -0.02    +0.166 HD
DOCKED: ATOM     32  H   UNL d   1     -17.526  -2.047   4.438 -0.28 -0.09    +0.166 HD
DOCKED: ENDROOT
DOCKED: BRANCH   7  33
DOCKED: ATOM     33  C   UNL d   1     -18.569  -7.233   5.289 -0.16 -0.02    +0.141 C 
DOCKED: BRANCH  33  34
DOCKED: ATOM     34  C   UNL d   1     -19.644  -6.592   6.125 -0.05 -0.04    +0.306 C 
DOCKED: ATOM     35  O   UNL d   1     -20.762  -6.285   5.749 -0.01 -0.00    -0.251 OA
DOCKED: BRANCH  34  36
DOCKED: ATOM     36  O   UNL d   1     -19.253  -6.375   7.393 -0.03 +0.15    -0.481 OA
DOCKED: ATOM     37  H   UNL d   1     -18.325  -6.691   7.423 -0.49 -0.42    +0.295 HD
DOCKED: ENDBRANCH  34  36
DOCKED: ENDBRANCH  33  34
DOCKED: ENDBRANCH   7  33
DOCKED: BRANCH  27  38
DOCKED: ATOM     38  C   UNL d   1     -17.624  -0.141   8.575 -0.16 +0.00    +0.017 C 
DOCKED: ATOM     39  C   UNL d   1     -16.618   0.681   8.911 -0.17 +0.01    +0.092 C 
DOCKED: BRANCH  39  40
DOCKED: ATOM     40  C   UNL d   1     -16.771   1.596  10.045 -0.10 +0.00    +0.330 C 
DOCKED: ATOM     41  O   UNL d   1     -17.641   2.429  10.216 -0.10 -0.01    -0.246 OA
DOCKED: BRANCH  40  42
DOCKED: ATOM     42  O   UNL d   1     -15.788   1.395  10.936 -0.20 +0.04    -0.477 OA
DOCKED: ATOM     43  H   UNL d   1     -15.344   2.265  10.996 -0.40 -0.14    +0.295 HD
DOCKED: ENDBRANCH  40  42
DOCKED: ENDBRANCH  39  40
DOCKED: ENDBRANCH  27  38
DOCKED: BRANCH   8  44
DOCKED: ATOM     44  C   UNL d   1     -20.943  -3.663  -1.206 -0.08 +0.02    +0.141 C 
DOCKED: BRANCH  44  45
DOCKED: ATOM     45  C   UNL d   1     -20.773  -2.740  -2.383 -0.04 +0.05    +0.306 C 
DOCKED: ATOM     46  O   UNL d   1     -19.721  -2.420  -2.909 -0.43 -0.04    -0.251 OA
DOCKED: BRANCH  45  47
DOCKED: ATOM     47  O   UNL d   1     -21.943  -2.242  -2.820 -0.00 -0.05    -0.481 OA
DOCKED: ATOM     48  H   UNL d   1     -22.078  -1.425  -2.294 +0.02 +0.03    +0.295 HD
DOCKED: ENDBRANCH  45  47
DOCKED: ENDBRANCH  44  45
DOCKED: ENDBRANCH   8  44
DOCKED: BRANCH  22  49
DOCKED: ATOM     49  C   UNL d   1     -16.976   3.268   4.188 -0.21 +0.01    +0.048 C 
DOCKED: BRANCH  49  50
DOCKED: ATOM     50  C   UNL d   1     -15.479   2.987   4.317 -0.36 +0.02    +0.125 C 
DOCKED: BRANCH  50  51
DOCKED: ATOM     51  C   UNL d   1     -14.722   3.572   3.159 -0.24 +0.06    +0.305 C 
DOCKED: ATOM     52  O   UNL d   1     -13.662   3.190   2.695 -0.50 -0.04    -0.251 OA
DOCKED: BRANCH  51  53
DOCKED: ATOM     53  O   UNL d   1     -15.348   4.645   2.636 -0.09 -0.13    -0.481 OA
DOCKED: ATOM     54  H   UNL d   1     -15.250   5.336   3.324 +0.13 +0.06    +0.295 HD
DOCKED: ENDBRANCH  51  53
DOCKED: ENDBRANCH  50  51
DOCKED: ENDBRANCH  49  50
DOCKED: ENDBRANCH  22  49
DOCKED: TORSDOF 13
DOCKED: TER
DOCKED: ENDMDL
________________________________________________________________________________


	BEGINNING GENETIC ALGORITHM DOCKING 31 of 100
Run: 31 Seed: 1869036015 865599842 [ Run 31 of 100 GA/GALS ]
Beginning LAMARCKIAN GENETIC ALGORITHM (LGA), with a maximum of 25000000 energy evaluations.

Final-Value: -12.420


	FINAL GENETIC ALGORITHM DOCKED STATE
	_______________________________________________


Detailed state:  trans -16.217 4.189 8.847 quatxyzw -0.455262 -0.588120 0.181576 -0.643336 center 0.153 0.018 -0.028 ntor 13 70.4049 129.3915 -7.3089 45.7193 -37.9210 31.2349 -16.3456 178.8582 -1.4752 166.8096 -66.7457 -48.9711 -41.4240
State:	-16.217   4.189   8.847  -0.595 -0.768  0.237 -99.918     70.40  129.39   -7.31   45.72  -37.92   31.23  -16.35  178.86   -1.48  166.81  -66.75  -48.97  -41.42

DOCKED: MODEL       31
DOCKED: USER    Run = 31
DOCKED: USER    DPF = D:/Protein_go_brrr/autodock/final/AncB/heme/dock.dpf
DOCKED: USER  
DOCKED: USER    Estimated Free Energy of Binding    =   -6.25 kcal/mol  [=(1)+(2)+(3)-(4)]
DOCKED: USER    Estimated Inhibition Constant, Ki   =   26.32 uM (micromolar)  [Temperature = 298.15 K]
DOCKED: USER    
DOCKED: USER    (1) Final Intermolecular Energy     =  -10.13 kcal/mol
DOCKED: USER        vdW + Hbond + desolv Energy     =   -9.77 kcal/mol
DOCKED: USER        Electrostatic Energy            =   -0.36 kcal/mol
DOCKED: USER    (2) Final Total Internal Energy     =   -2.29 kcal/mol
DOCKED: USER    (3) Torsional Free Energy           =   +3.88 kcal/mol
DOCKED: USER    (4) Unbound System's Energy  [=(2)] =   -2.29 kcal/mol
DOCKED: USER    
DOCKED: USER    
DOCKED: USER    NEWDPF move heme_opt.pdbqt
DOCKED: USER    NEWDPF about 0.153000 0.018000 -0.028000
DOCKED: USER    NEWDPF tran0 -16.217181 4.189213 8.846550
DOCKED: USER    NEWDPF quaternion0 -0.455262 -0.588120 0.181576 -0.643336
DOCKED: USER    NEWDPF axisangle0 -0.594660 -0.768198 0.237173 -99.917905
DOCKED: USER    NEWDPF quat0 -0.594660 -0.768198 0.237173 -99.917905
DOCKED: USER    NEWDPF dihe0 70.40 129.39 -7.31 45.72 -37.92 31.23 -16.35 178.86 -1.48 166.81 -66.75 -48.97 -41.42 
DOCKED: USER  keepresnum = 1 
DOCKED: USER  
DOCKED: REMARK  13 active torsions:
DOCKED: REMARK  status: ('A' for Active; 'I' for Inactive)
DOCKED: REMARK    1  A    between atoms: O_3  and  C_38 
DOCKED: REMARK    2  A    between atoms: O_4  and  C_40 
DOCKED: REMARK    3  A    between atoms: O_7  and  C_46 
DOCKED: REMARK    4  A    between atoms: O_9  and  C_48 
DOCKED: REMARK    5  A    between atoms: C_15  and  C_20 
DOCKED: REMARK    6  A    between atoms: C_16  and  C_23 
DOCKED: REMARK    7  A    between atoms: C_20  and  C_38 
DOCKED: REMARK    8  A    between atoms: C_23  and  C_40 
DOCKED: REMARK    9  A    between atoms: C_32  and  C_41 
DOCKED: REMARK   10  A    between atoms: C_37  and  C_45 
DOCKED: REMARK   11  A    between atoms: C_41  and  C_44 
DOCKED: REMARK   12  A    between atoms: C_44  and  C_46 
DOCKED: REMARK   13  A    between atoms: C_47  and  C_48 
DOCKED: USER                              x       y       z     vdW  Elec       q    Type
DOCKED: USER                           _______ _______ _______ _____ _____    ______ ____
DOCKED: ROOT
DOCKED: ATOM      1  O   UNL d   1     -17.664   0.992   4.109 -0.20 -0.02    -0.289 OA
DOCKED: ATOM      2  O   UNL d   1     -16.868  -0.960  11.317 -0.07 -0.08    -0.289 OA
DOCKED: ATOM      3  N   UNL d   1     -16.656   3.215   6.546 -0.09 -0.03    -0.247 NA
DOCKED: ATOM      4  N   UNL d   1     -16.926   1.646   9.055 -0.05 -0.01    -0.247 NA
DOCKED: ATOM      5  N   UNL d   1     -16.653   4.108  10.515 -0.04 +0.03    -0.354 N 
DOCKED: ATOM      6  N   UNL d   1     -16.393   5.731   7.907 -0.07 -0.03    -0.354 N 
DOCKED: ATOM      7  C   UNL d   1     -17.234   3.398   4.171 -0.14 +0.01    +0.084 A 
DOCKED: ATOM      8  C   UNL d   1     -16.754  -0.785   8.878 -0.22 +0.02    +0.084 A 
DOCKED: ATOM      9  C   UNL d   1     -16.818   0.582   8.188 -0.16 +0.01    +0.058 A 
DOCKED: ATOM     10  C   UNL d   1     -16.791   4.077   5.471 -0.13 +0.01    +0.058 A 
DOCKED: ATOM     11  C   UNL d   1     -17.308   1.996   4.699 -0.17 +0.02    +0.193 A 
DOCKED: ATOM     12  C   UNL d   1     -16.911   2.013   6.142 -0.17 +0.01    +0.109 A 
DOCKED: ATOM     13  C   UNL d   1     -16.884  -0.302  10.295 -0.17 +0.04    +0.193 A 
DOCKED: ATOM     14  C   UNL d   1     -18.635   3.840   3.741 -0.08 +0.00    +0.026 C 
DOCKED: ATOM     15  C   UNL d   1     -16.820   0.722   6.854 -0.24 +0.00    +0.055 C 
DOCKED: ATOM     16  C   UNL d   1     -15.382  -1.444   8.706 -0.23 +0.01    +0.026 C 
DOCKED: ATOM     17  C   UNL d   1     -16.988   1.189  10.265 -0.20 +0.01    +0.109 A 
DOCKED: ATOM     18  C   UNL d   1     -16.478   5.386   5.509 -0.14 +0.01    +0.050 C 
DOCKED: ATOM     19  C   UNL d   1     -15.981   6.080   6.641 -0.16 +0.00    +0.045 A 
DOCKED: ATOM     20  C   UNL d   1     -17.020   3.270  11.535 -0.21 -0.00    +0.045 A 
DOCKED: ATOM     21  C   UNL d   1     -17.170   1.941  11.514 -0.26 +0.00    +0.057 C 
DOCKED: ATOM     22  C   UNL d   1     -16.973   5.413  12.323 -0.17 -0.00    -0.019 A 
DOCKED: ATOM     23  C   UNL d   1     -16.597   5.423  10.895 -0.17 +0.00    +0.045 A 
DOCKED: ATOM     24  C   UNL d   1     -17.221   4.135  12.696 -0.19 -0.00    -0.022 A 
DOCKED: ATOM     25  C   UNL d   1     -15.860   6.587   8.842 -0.20 +0.00    +0.049 A 
DOCKED: ATOM     26  C   UNL d   1     -15.129   7.167   6.760 -0.24 -0.00    -0.018 A 
DOCKED: ATOM     27  C   UNL d   1     -15.041   7.471   8.153 -0.25 +0.00    +0.003 A 
DOCKED: ATOM     28  C   UNL d   1     -16.266   6.524  10.203 -0.21 +0.00    +0.052 C 
DOCKED: ATOM     29  C   UNL d   1     -17.621   3.615  14.035 -0.19 +0.00    +0.046 C 
DOCKED: ATOM     30  C   UNL d   1     -14.436   7.881   5.649 -0.24 +0.00    +0.046 C 
DOCKED: ATOM     31  H   UNL d   1     -16.379   3.746   9.608 -0.20 -0.01    +0.166 HD
DOCKED: ATOM     32  H   UNL d   1     -17.035   4.970   8.097 +0.04 +0.01    +0.166 HD
DOCKED: ENDROOT
DOCKED: BRANCH   7  33
DOCKED: ATOM     33  C   UNL d   1     -16.236   3.484   3.012 -0.05 +0.04    +0.141 C 
DOCKED: BRANCH  33  34
DOCKED: ATOM     34  C   UNL d   1     -14.829   3.158   3.433 -0.22 +0.05    +0.306 C 
DOCKED: ATOM     35  O   UNL d   1     -14.497   2.593   4.462 -0.19 -0.03    -0.251 OA
DOCKED: BRANCH  34  36
DOCKED: ATOM     36  O   UNL d   1     -13.912   3.558   2.534 -0.28 -0.09    -0.481 OA
DOCKED: ATOM     37  H   UNL d   1     -13.542   2.726   2.171 -0.03 +0.03    +0.295 HD
DOCKED: ENDBRANCH  34  36
DOCKED: ENDBRANCH  33  34
DOCKED: ENDBRANCH   7  33
DOCKED: BRANCH  27  38
DOCKED: ATOM     38  C   UNL d   1     -14.274   8.539   8.719 -0.31 +0.00    +0.017 C 
DOCKED: ATOM     39  C   UNL d   1     -14.367   8.975   9.984 -0.29 +0.01    +0.092 C 
DOCKED: BRANCH  39  40
DOCKED: ATOM     40  C   UNL d   1     -13.509  10.069  10.445 -0.21 +0.05    +0.330 C 
DOCKED: ATOM     41  O   UNL d   1     -13.050  10.982   9.786 -0.31 -0.04    -0.246 OA
DOCKED: BRANCH  40  42
DOCKED: ATOM     42  O   UNL d   1     -13.277   9.952  11.762 -0.13 -0.12    -0.477 OA
DOCKED: ATOM     43  H   UNL d   1     -14.170   9.840  12.148 +0.09 +0.05    +0.295 HD
DOCKED: ENDBRANCH  40  42
DOCKED: ENDBRANCH  39  40
DOCKED: ENDBRANCH  27  38
DOCKED: BRANCH   8  44
DOCKED: ATOM     44  C   UNL d   1     -17.884  -1.757   8.524 -0.14 +0.04    +0.141 C 
DOCKED: BRANCH  44  45
DOCKED: ATOM     45  C   UNL d   1     -17.400  -3.006   7.837 -0.17 +0.11    +0.306 C 
DOCKED: ATOM     46  O   UNL d   1     -16.802  -3.068   6.777 -0.27 -0.04    -0.251 OA
DOCKED: BRANCH  45  47
DOCKED: ATOM     47  O   UNL d   1     -17.720  -4.123   8.515 -0.64 -0.47    -0.481 OA
DOCKED: ATOM     48  H   UNL d   1     -17.476  -4.858   7.913 -0.20 +0.10    +0.295 HD
DOCKED: ENDBRANCH  45  47
DOCKED: ENDBRANCH  44  45
DOCKED: ENDBRANCH   8  44
DOCKED: BRANCH  22  49
DOCKED: ATOM     49  C   UNL d   1     -17.069   6.643  13.177 -0.13 +0.00    +0.048 C 
DOCKED: BRANCH  49  50
DOCKED: ATOM     50  C   UNL d   1     -16.200   6.534  14.430 +0.08 +0.03    +0.125 C 
DOCKED: BRANCH  50  51
DOCKED: ATOM     51  C   UNL d   1     -15.082   7.536  14.397 -0.03 +0.03    +0.305 C 
DOCKED: ATOM     52  O   UNL d   1     -14.291   7.798  15.286 -0.57 -0.03    -0.251 OA
DOCKED: BRANCH  51  53
DOCKED: ATOM     53  O   UNL d   1     -15.022   8.186  13.217 -0.06 +0.01    -0.481 OA
DOCKED: ATOM     54  H   UNL d   1     -14.069   8.178  12.989 -0.47 -0.06    +0.295 HD
DOCKED: ENDBRANCH  51  53
DOCKED: ENDBRANCH  50  51
DOCKED: ENDBRANCH  49  50
DOCKED: ENDBRANCH  22  49
DOCKED: TORSDOF 13
DOCKED: TER
DOCKED: ENDMDL
________________________________________________________________________________


	BEGINNING GENETIC ALGORITHM DOCKING 32 of 100
Run: 32 Seed: 1838613865 1260305989 [ Run 32 of 100 GA/GALS ]
Beginning LAMARCKIAN GENETIC ALGORITHM (LGA), with a maximum of 25000000 energy evaluations.

Final-Value: -11.488


	FINAL GENETIC ALGORITHM DOCKED STATE
	_______________________________________________


Detailed state:  trans 14.901 0.465 -15.439 quatxyzw 0.374362 -0.489519 -0.366958 -0.696826 center 0.153 0.018 -0.028 ntor 13 127.8791 151.8294 96.0275 59.3094 -131.2029 134.0355 -47.6706 57.7833 42.5519 -121.7879 -82.4548 -156.5250 16.5716
State:	 14.901   0.465 -15.439   0.522 -0.683 -0.512 -91.654    127.88  151.83   96.03   59.31 -131.20  134.04  -47.67   57.78   42.55 -121.79  -82.45 -156.52   16.57

DOCKED: MODEL       32
DOCKED: USER    Run = 32
DOCKED: USER    DPF = D:/Protein_go_brrr/autodock/final/AncB/heme/dock.dpf
DOCKED: USER  
DOCKED: USER    Estimated Free Energy of Binding    =   -3.46 kcal/mol  [=(1)+(2)+(3)-(4)]
DOCKED: USER    Estimated Inhibition Constant, Ki   =    2.93 mM (millimolar)  [Temperature = 298.15 K]
DOCKED: USER    
DOCKED: USER    (1) Final Intermolecular Energy     =   -7.33 kcal/mol
DOCKED: USER        vdW + Hbond + desolv Energy     =   -7.19 kcal/mol
DOCKED: USER        Electrostatic Energy            =   -0.14 kcal/mol
DOCKED: USER    (2) Final Total Internal Energy     =   -4.15 kcal/mol
DOCKED: USER    (3) Torsional Free Energy           =   +3.88 kcal/mol
DOCKED: USER    (4) Unbound System's Energy  [=(2)] =   -4.15 kcal/mol
DOCKED: USER    
DOCKED: USER    
DOCKED: USER    NEWDPF move heme_opt.pdbqt
DOCKED: USER    NEWDPF about 0.153000 0.018000 -0.028000
DOCKED: USER    NEWDPF tran0 14.900538 0.464726 -15.439226
DOCKED: USER    NEWDPF quaternion0 0.374362 -0.489519 -0.366958 -0.696826
DOCKED: USER    NEWDPF axisangle0 0.521947 -0.682504 -0.511625 -91.654251
DOCKED: USER    NEWDPF quat0 0.521947 -0.682504 -0.511625 -91.654251
DOCKED: USER    NEWDPF dihe0 127.88 151.83 96.03 59.31 -131.20 134.04 -47.67 57.78 42.55 -121.79 -82.45 -156.52 16.57 
DOCKED: USER  keepresnum = 1 
DOCKED: USER  
DOCKED: REMARK  13 active torsions:
DOCKED: REMARK  status: ('A' for Active; 'I' for Inactive)
DOCKED: REMARK    1  A    between atoms: O_3  and  C_38 
DOCKED: REMARK    2  A    between atoms: O_4  and  C_40 
DOCKED: REMARK    3  A    between atoms: O_7  and  C_46 
DOCKED: REMARK    4  A    between atoms: O_9  and  C_48 
DOCKED: REMARK    5  A    between atoms: C_15  and  C_20 
DOCKED: REMARK    6  A    between atoms: C_16  and  C_23 
DOCKED: REMARK    7  A    between atoms: C_20  and  C_38 
DOCKED: REMARK    8  A    between atoms: C_23  and  C_40 
DOCKED: REMARK    9  A    between atoms: C_32  and  C_41 
DOCKED: REMARK   10  A    between atoms: C_37  and  C_45 
DOCKED: REMARK   11  A    between atoms: C_41  and  C_44 
DOCKED: REMARK   12  A    between atoms: C_44  and  C_46 
DOCKED: REMARK   13  A    between atoms: C_47  and  C_48 
DOCKED: USER                              x       y       z     vdW  Elec       q    Type
DOCKED: USER                           _______ _______ _______ _____ _____    ______ ____
DOCKED: ROOT
DOCKED: ATOM      1  O   UNL d   1      13.114   6.046 -16.082 -0.16 +0.01    -0.289 OA
DOCKED: ATOM      2  O   UNL d   1      15.041   0.871 -21.171 -0.00 -0.05    -0.289 OA
DOCKED: ATOM      3  N   UNL d   1      14.243   2.904 -15.216 -0.12 -0.07    -0.247 NA
DOCKED: ATOM      4  N   UNL d   1      14.452   1.509 -17.831 -0.06 -0.07    -0.247 NA
DOCKED: ATOM      5  N   UNL d   1      14.702  -0.965 -16.387 -0.04 -0.09    -0.354 N 
DOCKED: ATOM      6  N   UNL d   1      14.465   0.489 -13.678 -0.16 -0.10    -0.354 N 
DOCKED: ATOM      7  C   UNL d   1      13.337   4.817 -13.980 -0.39 +0.02    +0.084 A 
DOCKED: ATOM      8  C   UNL d   1      14.811   2.894 -19.812 -0.03 +0.02    +0.084 A 
DOCKED: ATOM      9  C   UNL d   1      14.535   2.798 -18.307 -0.10 +0.01    +0.058 A 
DOCKED: ATOM     10  C   UNL d   1      13.890   3.389 -13.968 -0.30 +0.02    +0.058 A 
DOCKED: ATOM     11  C   UNL d   1      13.457   5.060 -15.455 -0.23 +0.02    +0.193 A 
DOCKED: ATOM     12  C   UNL d   1      14.043   3.837 -16.089 -0.16 +0.03    +0.109 A 
DOCKED: ATOM     13  C   UNL d   1      14.831   1.421 -20.107 -0.02 +0.04    +0.193 A 
DOCKED: ATOM     14  C   UNL d   1      11.858   4.864 -13.590 -0.34 +0.00    +0.026 C 
DOCKED: ATOM     15  C   UNL d   1      14.341   3.878 -17.535 -0.15 +0.01    +0.055 C 
DOCKED: ATOM     16  C   UNL d   1      16.199   3.473 -20.099 -0.01 +0.00    +0.026 C 
DOCKED: ATOM     17  C   UNL d   1      14.593   0.692 -18.825 -0.05 +0.03    +0.109 A 
DOCKED: ATOM     18  C   UNL d   1      14.089   2.722 -12.815 -0.40 +0.02    +0.050 C 
DOCKED: ATOM     19  C   UNL d   1      14.672   1.435 -12.700 -0.29 +0.01    +0.045 A 
DOCKED: ATOM     20  C   UNL d   1      14.551  -1.450 -17.660 -0.06 +0.01    +0.045 A 
DOCKED: ATOM     21  C   UNL d   1      14.516  -0.777 -18.814 -0.05 +0.01    +0.057 C 
DOCKED: ATOM     22  C   UNL d   1      14.515  -3.201 -16.193 -0.08 -0.00    -0.019 A 
DOCKED: ATOM     23  C   UNL d   1      14.693  -1.947 -15.433 -0.14 +0.01    +0.045 A 
DOCKED: ATOM     24  C   UNL d   1      14.433  -2.900 -17.511 -0.04 -0.00    -0.022 A 
DOCKED: ATOM     25  C   UNL d   1      15.042  -0.708 -13.323 -0.13 +0.02    +0.049 A 
DOCKED: ATOM     26  C   UNL d   1      15.433   0.849 -11.700 -0.31 -0.01    -0.018 A 
DOCKED: ATOM     27  C   UNL d   1      15.681  -0.498 -12.108 -0.25 +0.00    +0.003 A 
DOCKED: ATOM     28  C   UNL d   1      14.830  -1.879 -14.100 -0.18 +0.02    +0.052 C 
DOCKED: ATOM     29  C   UNL d   1      14.264  -3.822 -18.670 -0.01 +0.01    +0.046 C 
DOCKED: ATOM     30  C   UNL d   1      15.905   1.499 -10.444 -0.32 +0.03    +0.046 C 
DOCKED: ATOM     31  H   UNL d   1      14.882   0.019 -16.216 +0.04 +0.04    +0.166 HD
DOCKED: ATOM     32  H   UNL d   1      13.924   0.660 -14.518 +0.06 +0.05    +0.166 HD
DOCKED: ENDROOT
DOCKED: BRANCH   7  33
DOCKED: ATOM     33  C   UNL d   1      14.158   5.847 -13.197 -0.35 +0.04    +0.141 C 
DOCKED: BRANCH  33  34
DOCKED: ATOM     34  C   UNL d   1      15.207   6.517 -14.043 -0.22 +0.09    +0.306 C 
DOCKED: ATOM     35  O   UNL d   1      16.273   6.034 -14.385 -0.09 -0.08    -0.251 OA
DOCKED: BRANCH  34  36
DOCKED: ATOM     36  O   UNL d   1      14.855   7.759 -14.418 -0.56 -0.14    -0.481 OA
DOCKED: ATOM     37  H   UNL d   1      13.983   7.648 -14.854 -0.24 -0.07    +0.295 HD
DOCKED: ENDBRANCH  34  36
DOCKED: ENDBRANCH  33  34
DOCKED: ENDBRANCH   7  33
DOCKED: BRANCH  27  38
DOCKED: ATOM     38  C   UNL d   1      16.421  -1.466 -11.355 -0.25 +0.01    +0.017 C 
DOCKED: ATOM     39  C   UNL d   1      16.104  -1.897 -10.125 -0.37 +0.03    +0.092 C 
DOCKED: BRANCH  39  40
DOCKED: ATOM     40  C   UNL d   1      16.937  -2.907  -9.467 -0.16 +0.13    +0.330 C 
DOCKED: ATOM     41  O   UNL d   1      17.377  -2.885  -8.334 -0.19 -0.10    -0.246 OA
DOCKED: BRANCH  40  42
DOCKED: ATOM     42  O   UNL d   1      17.171  -3.929 -10.305 -0.04 -0.18    -0.477 OA
DOCKED: ATOM     43  H   UNL d   1      16.387  -3.934 -10.893 +0.09 +0.13    +0.295 HD
DOCKED: ENDBRANCH  40  42
DOCKED: ENDBRANCH  39  40
DOCKED: ENDBRANCH  27  38
DOCKED: BRANCH   8  44
DOCKED: ATOM     44  C   UNL d   1      13.732   3.605 -20.637 -0.05 +0.03    +0.141 C 
DOCKED: BRANCH  44  45
DOCKED: ATOM     45  C   UNL d   1      13.951   3.492 -22.122 +0.00 +0.05    +0.306 C 
DOCKED: ATOM     46  O   UNL d   1      14.560   4.277 -22.828 -0.00 -0.04    -0.251 OA
DOCKED: BRANCH  45  47
DOCKED: ATOM     47  O   UNL d   1      13.361   2.403 -22.648 +0.01 -0.08    -0.481 OA
DOCKED: ATOM     48  H   UNL d   1      14.011   1.681 -22.514 +0.01 +0.05    +0.295 HD
DOCKED: ENDBRANCH  45  47
DOCKED: ENDBRANCH  44  45
DOCKED: ENDBRANCH   8  44
DOCKED: BRANCH  22  49
DOCKED: ATOM     49  C   UNL d   1      14.428  -4.561 -15.566 -0.08 +0.01    +0.048 C 
DOCKED: BRANCH  49  50
DOCKED: ATOM     50  C   UNL d   1      15.750  -4.975 -14.920 -0.05 +0.03    +0.125 C 
DOCKED: BRANCH  50  51
DOCKED: ATOM     51  C   UNL d   1      15.726  -4.721 -13.439 -0.07 +0.11    +0.305 C 
DOCKED: ATOM     52  O   UNL d   1      14.880  -5.078 -12.638 -0.13 -0.14    -0.251 OA
DOCKED: BRANCH  51  53
DOCKED: ATOM     53  O   UNL d   1      16.790  -4.000 -13.034 -0.02 -0.15    -0.481 OA
DOCKED: ATOM     54  H   UNL d   1      17.231  -4.577 -12.374 +0.05 +0.09    +0.295 HD
DOCKED: ENDBRANCH  51  53
DOCKED: ENDBRANCH  50  51
DOCKED: ENDBRANCH  49  50
DOCKED: ENDBRANCH  22  49
DOCKED: TORSDOF 13
DOCKED: TER
DOCKED: ENDMDL
________________________________________________________________________________


	BEGINNING GENETIC ALGORITHM DOCKING 33 of 100
Run: 33 Seed: 834721244 1205625498 [ Run 33 of 100 GA/GALS ]
Beginning LAMARCKIAN GENETIC ALGORITHM (LGA), with a maximum of 25000000 energy evaluations.

Final-Value: -11.805


	FINAL GENETIC ALGORITHM DOCKED STATE
	_______________________________________________


Detailed state:  trans 18.246 2.967 -9.176 quatxyzw -0.871556 -0.076327 -0.419772 0.241571 center 0.153 0.018 -0.028 ntor 13 155.5685 -171.9475 58.4048 -58.5815 -50.8084 -16.9279 -8.0539 -108.1454 -123.8526 -179.6699 -99.8097 -5.5400 -12.5430
State:	 18.246   2.967  -9.176  -0.898 -0.079 -0.433 152.042    155.57 -171.95   58.40  -58.58  -50.81  -16.93   -8.05 -108.15 -123.85 -179.67  -99.81   -5.54  -12.54

DOCKED: MODEL       33
DOCKED: USER    Run = 33
DOCKED: USER    DPF = D:/Protein_go_brrr/autodock/final/AncB/heme/dock.dpf
DOCKED: USER  
DOCKED: USER    Estimated Free Energy of Binding    =   -4.92 kcal/mol  [=(1)+(2)+(3)-(4)]
DOCKED: USER    Estimated Inhibition Constant, Ki   =  248.54 uM (micromolar)  [Temperature = 298.15 K]
DOCKED: USER    
DOCKED: USER    (1) Final Intermolecular Energy     =   -8.80 kcal/mol
DOCKED: USER        vdW + Hbond + desolv Energy     =   -8.60 kcal/mol
DOCKED: USER        Electrostatic Energy            =   -0.19 kcal/mol
DOCKED: USER    (2) Final Total Internal Energy     =   -3.01 kcal/mol
DOCKED: USER    (3) Torsional Free Energy           =   +3.88 kcal/mol
DOCKED: USER    (4) Unbound System's Energy  [=(2)] =   -3.01 kcal/mol
DOCKED: USER    
DOCKED: USER    
DOCKED: USER    NEWDPF move heme_opt.pdbqt
DOCKED: USER    NEWDPF about 0.153000 0.018000 -0.028000
DOCKED: USER    NEWDPF tran0 18.245545 2.966955 -9.176246
DOCKED: USER    NEWDPF quaternion0 -0.871556 -0.076327 -0.419772 0.241571
DOCKED: USER    NEWDPF axisangle0 -0.898156 -0.078657 -0.432584 152.041497
DOCKED: USER    NEWDPF quat0 -0.898156 -0.078657 -0.432584 152.041497
DOCKED: USER    NEWDPF dihe0 155.57 -171.95 58.40 -58.58 -50.81 -16.93 -8.05 -108.15 -123.85 -179.67 -99.81 -5.54 -12.54 
DOCKED: USER  keepresnum = 1 
DOCKED: USER  
DOCKED: REMARK  13 active torsions:
DOCKED: REMARK  status: ('A' for Active; 'I' for Inactive)
DOCKED: REMARK    1  A    between atoms: O_3  and  C_38 
DOCKED: REMARK    2  A    between atoms: O_4  and  C_40 
DOCKED: REMARK    3  A    between atoms: O_7  and  C_46 
DOCKED: REMARK    4  A    between atoms: O_9  and  C_48 
DOCKED: REMARK    5  A    between atoms: C_15  and  C_20 
DOCKED: REMARK    6  A    between atoms: C_16  and  C_23 
DOCKED: REMARK    7  A    between atoms: C_20  and  C_38 
DOCKED: REMARK    8  A    between atoms: C_23  and  C_40 
DOCKED: REMARK    9  A    between atoms: C_32  and  C_41 
DOCKED: REMARK   10  A    between atoms: C_37  and  C_45 
DOCKED: REMARK   11  A    between atoms: C_41  and  C_44 
DOCKED: REMARK   12  A    between atoms: C_44  and  C_46 
DOCKED: REMARK   13  A    between atoms: C_47  and  C_48 
DOCKED: USER                              x       y       z     vdW  Elec       q    Type
DOCKED: USER                           _______ _______ _______ _____ _____    ______ ____
DOCKED: ROOT
DOCKED: ATOM      1  O   UNL d   1      15.058  -0.621 -12.600 -0.14 -0.10    -0.289 OA
DOCKED: ATOM      2  O   UNL d   1      15.680   6.862 -12.535 -0.59 -0.17    -0.289 OA
DOCKED: ATOM      3  N   UNL d   1      16.973   1.074 -10.286 -0.15 -0.12    -0.247 NA
DOCKED: ATOM      4  N   UNL d   1      16.848   3.890 -11.227 -0.12 -0.19    -0.247 NA
DOCKED: ATOM      5  N   UNL d   1      19.021   4.486  -9.441 -0.06 -0.37    -0.354 N 
DOCKED: ATOM      6  N   UNL d   1      19.157   1.559  -8.485 -0.06 -0.18    -0.354 N 
DOCKED: ATOM      7  C   UNL d   1      16.609  -1.287 -10.832 -0.22 +0.03    +0.084 A 
DOCKED: ATOM      8  C   UNL d   1      14.890   4.546 -12.534 -0.30 +0.04    +0.084 A 
DOCKED: ATOM      9  C   UNL d   1      15.695   3.445 -11.836 -0.24 +0.03    +0.058 A 
DOCKED: ATOM     10  C   UNL d   1      17.311  -0.232  -9.972 -0.21 +0.02    +0.058 A 
DOCKED: ATOM     11  C   UNL d   1      15.801  -0.347 -11.675 -0.19 +0.07    +0.193 A 
DOCKED: ATOM     12  C   UNL d   1      16.090   1.053 -11.230 -0.24 +0.05    +0.109 A 
DOCKED: ATOM     13  C   UNL d   1      15.818   5.691 -12.242 -0.26 +0.11    +0.193 A 
DOCKED: ATOM     14  C   UNL d   1      17.591  -2.040 -11.733 -0.10 +0.01    +0.026 C 
DOCKED: ATOM     15  C   UNL d   1      15.333   2.153 -11.861 -0.31 +0.02    +0.055 C 
DOCKED: ATOM     16  C   UNL d   1      13.553   4.803 -11.833 -0.18 +0.01    +0.026 C 
DOCKED: ATOM     17  C   UNL d   1      16.968   5.159 -11.450 -0.24 +0.08    +0.109 A 
DOCKED: ATOM     18  C   UNL d   1      18.111  -0.579  -8.947 -0.23 +0.02    +0.050 C 
DOCKED: ATOM     19  C   UNL d   1      18.734   0.324  -8.048 -0.21 +0.02    +0.045 A 
DOCKED: ATOM     20  C   UNL d   1      18.969   5.659 -10.150 -0.19 +0.04    +0.045 A 
DOCKED: ATOM     21  C   UNL d   1      18.067   6.052 -11.054 -0.28 +0.04    +0.057 C 
DOCKED: ATOM     22  C   UNL d   1      20.802   5.699  -8.787 -0.07 -0.01    -0.019 A 
DOCKED: ATOM     23  C   UNL d   1      20.093   4.419  -8.593 -0.09 +0.03    +0.045 A 
DOCKED: ATOM     24  C   UNL d   1      20.131   6.429  -9.709 -0.14 -0.01    -0.022 A 
DOCKED: ATOM     25  C   UNL d   1      19.810   2.230  -7.478 -0.13 +0.03    +0.049 A 
DOCKED: ATOM     26  C   UNL d   1      19.089   0.204  -6.713 -0.24 -0.01    -0.018 A 
DOCKED: ATOM     27  C   UNL d   1      19.751   1.419  -6.353 -0.15 +0.00    +0.003 A 
DOCKED: ATOM     28  C   UNL d   1      20.474   3.461  -7.733 -0.09 +0.03    +0.052 C 
DOCKED: ATOM     29  C   UNL d   1      20.446   7.790 -10.230 -0.12 +0.02    +0.046 C 
DOCKED: ATOM     30  C   UNL d   1      18.829  -0.964  -5.824 -0.34 +0.02    +0.046 C 
DOCKED: ATOM     31  H   UNL d   1      18.277   3.799  -9.507 +0.04 +0.21    +0.166 HD
DOCKED: ATOM     32  H   UNL d   1      19.030   1.891  -9.434 +0.04 +0.09    +0.166 HD
DOCKED: ENDROOT
DOCKED: BRANCH   7  33
DOCKED: ATOM     33  C   UNL d   1      15.692  -2.251 -10.071 -0.23 +0.06    +0.141 C 
DOCKED: BRANCH  33  34
DOCKED: ATOM     34  C   UNL d   1      16.457  -3.302  -9.313 -0.19 +0.13    +0.306 C 
DOCKED: ATOM     35  O   UNL d   1      17.670  -3.387  -9.226 -0.12 -0.09    -0.251 OA
DOCKED: BRANCH  34  36
DOCKED: ATOM     36  O   UNL d   1      15.652  -4.189  -8.702 -0.16 -0.28    -0.481 OA
DOCKED: ATOM     37  H   UNL d   1      14.820  -3.696  -8.540 -0.36 +0.13    +0.295 HD
DOCKED: ENDBRANCH  34  36
DOCKED: ENDBRANCH  33  34
DOCKED: ENDBRANCH   7  33
DOCKED: BRANCH  27  38
DOCKED: ATOM     38  C   UNL d   1      20.297   1.710  -5.062 -0.05 +0.01    +0.017 C 
DOCKED: ATOM     39  C   UNL d   1      20.375   2.931  -4.511 -0.09 +0.03    +0.092 C 
DOCKED: BRANCH  39  40
DOCKED: ATOM     40  C   UNL d   1      20.942   3.092  -3.170 -0.05 +0.07    +0.330 C 
DOCKED: ATOM     41  O   UNL d   1      21.086   2.238  -2.316 -0.06 -0.04    -0.246 OA
DOCKED: BRANCH  40  42
DOCKED: ATOM     42  O   UNL d   1      21.318   4.366  -2.977 -0.00 -0.09    -0.477 OA
DOCKED: ATOM     43  H   UNL d   1      20.972   4.834  -3.765 +0.04 +0.07    +0.295 HD
DOCKED: ENDBRANCH  40  42
DOCKED: ENDBRANCH  39  40
DOCKED: ENDBRANCH  27  38
DOCKED: BRANCH   8  44
DOCKED: ATOM     44  C   UNL d   1      14.698   4.366 -14.044 -0.20 +0.04    +0.141 C 
DOCKED: BRANCH  44  45
DOCKED: ATOM     45  C   UNL d   1      13.268   4.529 -14.485 -0.27 +0.06    +0.306 C 
DOCKED: ATOM     46  O   UNL d   1      12.296   3.956 -14.025 -0.37 -0.05    -0.251 OA
DOCKED: BRANCH  45  47
DOCKED: ATOM     47  O   UNL d   1      13.140   5.393 -15.508 -0.16 -0.02    -0.481 OA
DOCKED: ATOM     48  H   UNL d   1      12.521   6.079 -15.178 -0.40 -0.07    +0.295 HD
DOCKED: ENDBRANCH  45  47
DOCKED: ENDBRANCH  44  45
DOCKED: ENDBRANCH   8  44
DOCKED: BRANCH  22  49
DOCKED: ATOM     49  C   UNL d   1      22.065   6.080  -8.072 -0.03 +0.01    +0.048 C 
DOCKED: BRANCH  49  50
DOCKED: ATOM     50  C   UNL d   1      21.783   6.934  -6.836 -0.04 +0.03    +0.125 C 
DOCKED: BRANCH  50  51
DOCKED: ATOM     51  C   UNL d   1      21.379   6.076  -5.671 -0.01 +0.09    +0.305 C 
DOCKED: ATOM     52  O   UNL d   1      20.298   6.047  -5.109 -0.04 -0.10    -0.251 OA
DOCKED: BRANCH  51  53
DOCKED: ATOM     53  O   UNL d   1      22.386   5.284  -5.254 +0.01 -0.11    -0.481 OA
DOCKED: ATOM     54  H   UNL d   1      22.520   5.541  -4.318 +0.01 +0.06    +0.295 HD
DOCKED: ENDBRANCH  51  53
DOCKED: ENDBRANCH  50  51
DOCKED: ENDBRANCH  49  50
DOCKED: ENDBRANCH  22  49
DOCKED: TORSDOF 13
DOCKED: TER
DOCKED: ENDMDL
________________________________________________________________________________


	BEGINNING GENETIC ALGORITHM DOCKING 34 of 100
Run: 34 Seed: 2114095276 1192813905 [ Run 34 of 100 GA/GALS ]
Beginning LAMARCKIAN GENETIC ALGORITHM (LGA), with a maximum of 25000000 energy evaluations.

Final-Value: -12.578


	FINAL GENETIC ALGORITHM DOCKED STATE
	_______________________________________________


Detailed state:  trans 0.058 -8.941 10.102 quatxyzw 0.029344 0.847392 0.413281 0.332062 center 0.153 0.018 -0.028 ntor 13 173.2113 124.8326 -42.6215 159.0029 -174.1682 24.9365 144.7182 69.4674 80.2280 3.9129 -15.2245 -48.1810 -1.5015
State:	  0.058  -8.941  10.102   0.031  0.898  0.438 141.212    173.21  124.83  -42.62  159.00 -174.17   24.94  144.72   69.47   80.23    3.91  -15.22  -48.18   -1.50

DOCKED: MODEL       34
DOCKED: USER    Run = 34
DOCKED: USER    DPF = D:/Protein_go_brrr/autodock/final/AncB/heme/dock.dpf
DOCKED: USER  
DOCKED: USER    Estimated Free Energy of Binding    =   -6.09 kcal/mol  [=(1)+(2)+(3)-(4)]
DOCKED: USER    Estimated Inhibition Constant, Ki   =   34.10 uM (micromolar)  [Temperature = 298.15 K]
DOCKED: USER    
DOCKED: USER    (1) Final Intermolecular Energy     =   -9.97 kcal/mol
DOCKED: USER        vdW + Hbond + desolv Energy     =   -9.73 kcal/mol
DOCKED: USER        Electrostatic Energy            =   -0.25 kcal/mol
DOCKED: USER    (2) Final Total Internal Energy     =   -2.61 kcal/mol
DOCKED: USER    (3) Torsional Free Energy           =   +3.88 kcal/mol
DOCKED: USER    (4) Unbound System's Energy  [=(2)] =   -2.61 kcal/mol
DOCKED: USER    
DOCKED: USER    
DOCKED: USER    NEWDPF move heme_opt.pdbqt
DOCKED: USER    NEWDPF about 0.153000 0.018000 -0.028000
DOCKED: USER    NEWDPF tran0 0.058408 -8.940894 10.102061
DOCKED: USER    NEWDPF quaternion0 0.029344 0.847392 0.413281 0.332062
DOCKED: USER    NEWDPF axisangle0 0.031109 0.898367 0.438142 141.212084
DOCKED: USER    NEWDPF quat0 0.031109 0.898367 0.438142 141.212084
DOCKED: USER    NEWDPF dihe0 173.21 124.83 -42.62 159.00 -174.17 24.94 144.72 69.47 80.23 3.91 -15.22 -48.18 -1.50 
DOCKED: USER  keepresnum = 1 
DOCKED: USER  
DOCKED: REMARK  13 active torsions:
DOCKED: REMARK  status: ('A' for Active; 'I' for Inactive)
DOCKED: REMARK    1  A    between atoms: O_3  and  C_38 
DOCKED: REMARK    2  A    between atoms: O_4  and  C_40 
DOCKED: REMARK    3  A    between atoms: O_7  and  C_46 
DOCKED: REMARK    4  A    between atoms: O_9  and  C_48 
DOCKED: REMARK    5  A    between atoms: C_15  and  C_20 
DOCKED: REMARK    6  A    between atoms: C_16  and  C_23 
DOCKED: REMARK    7  A    between atoms: C_20  and  C_38 
DOCKED: REMARK    8  A    between atoms: C_23  and  C_40 
DOCKED: REMARK    9  A    between atoms: C_32  and  C_41 
DOCKED: REMARK   10  A    between atoms: C_37  and  C_45 
DOCKED: REMARK   11  A    between atoms: C_41  and  C_44 
DOCKED: REMARK   12  A    between atoms: C_44  and  C_46 
DOCKED: REMARK   13  A    between atoms: C_47  and  C_48 
DOCKED: USER                              x       y       z     vdW  Elec       q    Type
DOCKED: USER                           _______ _______ _______ _____ _____    ______ ____
DOCKED: ROOT
DOCKED: ATOM      1  O   UNL d   1       4.621  -6.104   7.675 -0.67 -0.03    -0.289 OA
DOCKED: ATOM      2  O   UNL d   1       1.404 -12.663   5.934 -0.05 -0.05    -0.289 OA
DOCKED: ATOM      3  N   UNL d   1       2.016  -7.448   9.493 -0.02 -0.02    -0.247 NA
DOCKED: ATOM      4  N   UNL d   1       1.235  -9.835   7.905 +0.10 -0.04    -0.247 NA
DOCKED: ATOM      5  N   UNL d   1      -1.172  -9.975   9.472 -0.04 -0.07    -0.354 N 
DOCKED: ATOM      6  N   UNL d   1      -0.362  -7.487  11.101 -0.17 -0.03    -0.354 N 
DOCKED: ATOM      7  C   UNL d   1       3.239  -5.324   9.534 -0.25 -0.01    +0.084 A 
DOCKED: ATOM      8  C   UNL d   1       2.954 -10.855   6.500 -0.09 +0.01    +0.084 A 
DOCKED: ATOM      9  C   UNL d   1       2.523  -9.719   7.433 -0.14 +0.01    +0.058 A 
DOCKED: ATOM     10  C   UNL d   1       2.131  -6.212  10.107 -0.24 -0.00    +0.058 A 
DOCKED: ATOM     11  C   UNL d   1       3.743  -6.284   8.498 -0.15 -0.00    +0.193 A 
DOCKED: ATOM     12  C   UNL d   1       2.938  -7.544   8.591 -0.14 +0.01    +0.109 A 
DOCKED: ATOM     13  C   UNL d   1       1.659 -11.617   6.499 -0.08 +0.03    +0.193 A 
DOCKED: ATOM     14  C   UNL d   1       2.676  -4.087   8.830 -0.47 -0.01    +0.026 C 
DOCKED: ATOM     15  C   UNL d   1       3.318  -8.677   7.723 -0.18 +0.01    +0.055 C 
DOCKED: ATOM     16  C   UNL d   1       4.040 -11.730   7.133 -0.06 +0.00    +0.026 C 
DOCKED: ATOM     17  C   UNL d   1       0.698 -10.890   7.382 -0.14 +0.02    +0.109 A 
DOCKED: ATOM     18  C   UNL d   1       1.408  -5.832  11.177 -0.29 +0.00    +0.050 C 
DOCKED: ATOM     19  C   UNL d   1       0.423  -6.619  11.827 -0.30 +0.00    +0.045 A 
DOCKED: ATOM     20  C   UNL d   1      -1.467 -10.899   8.503 -0.22 +0.01    +0.045 A 
DOCKED: ATOM     21  C   UNL d   1      -0.677 -11.385   7.541 -0.23 +0.01    +0.057 C 
DOCKED: ATOM     22  C   UNL d   1      -3.321 -10.567   9.797 -0.29 -0.01    -0.019 A 
DOCKED: ATOM     23  C   UNL d   1      -2.229  -9.709  10.300 -0.29 +0.01    +0.045 A 
DOCKED: ATOM     24  C   UNL d   1      -2.863 -11.269   8.734 -0.25 -0.01    -0.022 A 
DOCKED: ATOM     25  C   UNL d   1      -1.305  -8.077  11.911 -0.25 +0.01    +0.049 A 
DOCKED: ATOM     26  C   UNL d   1       0.005  -6.675  13.147 -0.26 -0.00    -0.018 A 
DOCKED: ATOM     27  C   UNL d   1      -1.074  -7.612  13.198 -0.23 +0.00    +0.003 A 
DOCKED: ATOM     28  C   UNL d   1      -2.331  -8.893  11.361 -0.25 +0.01    +0.052 C 
DOCKED: ATOM     29  C   UNL d   1      -3.584 -12.271   7.897 -0.24 +0.02    +0.046 C 
DOCKED: ATOM     30  C   UNL d   1       0.571  -5.908  14.293 -0.25 -0.00    +0.046 C 
DOCKED: ATOM     31  H   UNL d   1      -0.232  -9.610   9.581 +0.06 +0.03    +0.166 HD
DOCKED: ATOM     32  H   UNL d   1      -0.269  -7.625  10.102 +0.11 +0.02    +0.166 HD
DOCKED: ENDROOT
DOCKED: BRANCH   7  33
DOCKED: ATOM     33  C   UNL d   1       4.357  -4.954  10.513 -0.18 -0.02    +0.141 C 
DOCKED: BRANCH  33  34
DOCKED: ATOM     34  C   UNL d   1       5.727  -5.257   9.970 -0.11 -0.06    +0.306 C 
DOCKED: ATOM     35  O   UNL d   1       6.547  -6.013  10.463 -0.06 +0.01    -0.251 OA
DOCKED: BRANCH  34  36
DOCKED: ATOM     36  O   UNL d   1       5.992  -4.592   8.831 -0.10 +0.37    -0.481 OA
DOCKED: ATOM     37  H   UNL d   1       5.134  -4.189   8.576 -0.39 -0.39    +0.295 HD
DOCKED: ENDBRANCH  34  36
DOCKED: ENDBRANCH  33  34
DOCKED: ENDBRANCH   7  33
DOCKED: BRANCH  27  38
DOCKED: ATOM     38  C   UNL d   1      -1.809  -7.960  14.376 -0.19 +0.00    +0.017 C 
DOCKED: ATOM     39  C   UNL d   1      -2.952  -8.664  14.396 -0.17 +0.02    +0.092 C 
DOCKED: BRANCH  39  40
DOCKED: ATOM     40  C   UNL d   1      -3.599  -8.969  15.674 -0.08 +0.07    +0.330 C 
DOCKED: ATOM     41  O   UNL d   1      -3.479  -8.375  16.729 -0.05 -0.02    -0.246 OA
DOCKED: BRANCH  40  42
DOCKED: ATOM     42  O   UNL d   1      -4.398 -10.039  15.544 -0.04 -0.16    -0.477 OA
DOCKED: ATOM     43  H   UNL d   1      -4.997  -9.797  14.808 +0.08 +0.19    +0.295 HD
DOCKED: ENDBRANCH  40  42
DOCKED: ENDBRANCH  39  40
DOCKED: ENDBRANCH  27  38
DOCKED: BRANCH   8  44
DOCKED: ATOM     44  C   UNL d   1       3.343 -10.431   5.079 -0.16 +0.01    +0.141 C 
DOCKED: BRANCH  44  45
DOCKED: ATOM     45  C   UNL d   1       2.370  -9.463   4.461 -0.21 +0.03    +0.306 C 
DOCKED: ATOM     46  O   UNL d   1       2.505  -8.255   4.371 -0.27 -0.04    -0.251 OA
DOCKED: BRANCH  45  47
DOCKED: ATOM     47  O   UNL d   1       1.256 -10.069   4.010 -0.18 -0.06    -0.481 OA
DOCKED: ATOM     48  H   UNL d   1       0.522  -9.485   4.299 -0.35 -0.00    +0.295 HD
DOCKED: ENDBRANCH  45  47
DOCKED: ENDBRANCH  44  45
DOCKED: ENDBRANCH   8  44
DOCKED: BRANCH  22  49
DOCKED: ATOM     49  C   UNL d   1      -4.700 -10.608  10.386 -0.34 +0.02    +0.048 C 
DOCKED: BRANCH  49  50
DOCKED: ATOM     50  C   UNL d   1      -4.784 -11.570  11.570 -0.20 +0.05    +0.125 C 
DOCKED: BRANCH  50  51
DOCKED: ATOM     51  C   UNL d   1      -6.045 -11.346  12.356 -0.19 +0.19    +0.305 C 
DOCKED: ATOM     52  O   UNL d   1      -7.193 -11.491  11.975 -0.57 -0.19    -0.251 OA
DOCKED: BRANCH  51  53
DOCKED: ATOM     53  O   UNL d   1      -5.789 -10.928  13.611 -0.07 -0.32    -0.481 OA
DOCKED: ATOM     54  H   UNL d   1      -4.866 -11.215  13.775 +0.08 +0.13    +0.295 HD
DOCKED: ENDBRANCH  51  53
DOCKED: ENDBRANCH  50  51
DOCKED: ENDBRANCH  49  50
DOCKED: ENDBRANCH  22  49
DOCKED: TORSDOF 13
DOCKED: TER
DOCKED: ENDMDL
________________________________________________________________________________


	BEGINNING GENETIC ALGORITHM DOCKING 35 of 100
Run: 35 Seed: 193035748 668100605 [ Run 35 of 100 GA/GALS ]
Beginning LAMARCKIAN GENETIC ALGORITHM (LGA), with a maximum of 25000000 energy evaluations.

Final-Value: -10.229


	FINAL GENETIC ALGORITHM DOCKED STATE
	_______________________________________________


Detailed state:  trans -13.020 10.734 3.592 quatxyzw -0.738319 0.555027 0.349387 0.157349 center 0.153 0.018 -0.028 ntor 13 81.6413 160.7606 -120.0390 150.0777 -170.8634 76.6101 122.0682 33.1229 98.4085 -25.8768 62.4082 -109.3726 151.1712
State:	-13.020  10.734   3.592  -0.748  0.562  0.354 161.894     81.64  160.76 -120.04  150.08 -170.86   76.61  122.07   33.12   98.41  -25.88   62.41 -109.37  151.17

DOCKED: MODEL       35
DOCKED: USER    Run = 35
DOCKED: USER    DPF = D:/Protein_go_brrr/autodock/final/AncB/heme/dock.dpf
DOCKED: USER  
DOCKED: USER    Estimated Free Energy of Binding    =   -3.06 kcal/mol  [=(1)+(2)+(3)-(4)]
DOCKED: USER    Estimated Inhibition Constant, Ki   =    5.68 mM (millimolar)  [Temperature = 298.15 K]
DOCKED: USER    
DOCKED: USER    (1) Final Intermolecular Energy     =   -6.94 kcal/mol
DOCKED: USER        vdW + Hbond + desolv Energy     =   -6.77 kcal/mol
DOCKED: USER        Electrostatic Energy            =   -0.17 kcal/mol
DOCKED: USER    (2) Final Total Internal Energy     =   -3.29 kcal/mol
DOCKED: USER    (3) Torsional Free Energy           =   +3.88 kcal/mol
DOCKED: USER    (4) Unbound System's Energy  [=(2)] =   -3.29 kcal/mol
DOCKED: USER    
DOCKED: USER    
DOCKED: USER    NEWDPF move heme_opt.pdbqt
DOCKED: USER    NEWDPF about 0.153000 0.018000 -0.028000
DOCKED: USER    NEWDPF tran0 -13.019540 10.733807 3.591773
DOCKED: USER    NEWDPF quaternion0 -0.738319 0.555027 0.349387 0.157349
DOCKED: USER    NEWDPF axisangle0 -0.747632 0.562028 0.353794 161.893897
DOCKED: USER    NEWDPF quat0 -0.747632 0.562028 0.353794 161.893897
DOCKED: USER    NEWDPF dihe0 81.64 160.76 -120.04 150.08 -170.86 76.61 122.07 33.12 98.41 -25.88 62.41 -109.37 151.17 
DOCKED: USER  keepresnum = 1 
DOCKED: USER  
DOCKED: REMARK  13 active torsions:
DOCKED: REMARK  status: ('A' for Active; 'I' for Inactive)
DOCKED: REMARK    1  A    between atoms: O_3  and  C_38 
DOCKED: REMARK    2  A    between atoms: O_4  and  C_40 
DOCKED: REMARK    3  A    between atoms: O_7  and  C_46 
DOCKED: REMARK    4  A    between atoms: O_9  and  C_48 
DOCKED: REMARK    5  A    between atoms: C_15  and  C_20 
DOCKED: REMARK    6  A    between atoms: C_16  and  C_23 
DOCKED: REMARK    7  A    between atoms: C_20  and  C_38 
DOCKED: REMARK    8  A    between atoms: C_23  and  C_40 
DOCKED: REMARK    9  A    between atoms: C_32  and  C_41 
DOCKED: REMARK   10  A    between atoms: C_37  and  C_45 
DOCKED: REMARK   11  A    between atoms: C_41  and  C_44 
DOCKED: REMARK   12  A    between atoms: C_44  and  C_46 
DOCKED: REMARK   13  A    between atoms: C_47  and  C_48 
DOCKED: USER                              x       y       z     vdW  Elec       q    Type
DOCKED: USER                           _______ _______ _______ _____ _____    ______ ____
DOCKED: ROOT
DOCKED: ATOM      1  O   UNL d   1     -15.450  15.485   6.096 -0.01 +0.00    -0.289 OA
DOCKED: ATOM      2  O   UNL d   1      -8.862  14.578   2.608 -0.23 +0.12    -0.289 OA
DOCKED: ATOM      3  N   UNL d   1     -14.379  12.437   4.889 -0.07 +0.03    -0.247 NA
DOCKED: ATOM      4  N   UNL d   1     -11.874  13.117   3.443 -0.12 +0.07    -0.247 NA
DOCKED: ATOM      5  N   UNL d   1     -11.970  10.507   2.241 -0.12 +0.05    -0.354 N 
DOCKED: ATOM      6  N   UNL d   1     -14.579   9.817   3.731 -0.05 -0.01    -0.354 N 
DOCKED: ATOM      7  C   UNL d   1     -16.455  13.266   5.894 -0.02 +0.00    +0.084 A 
DOCKED: ATOM      8  C   UNL d   1     -10.664  15.108   4.177 -0.18 -0.02    +0.084 A 
DOCKED: ATOM      9  C   UNL d   1     -11.900  14.209   4.281 -0.12 -0.02    +0.058 A 
DOCKED: ATOM     10  C   UNL d   1     -15.665  12.106   5.282 -0.06 -0.00    +0.058 A 
DOCKED: ATOM     11  C   UNL d   1     -15.381  14.308   5.794 -0.03 -0.01    +0.193 A 
DOCKED: ATOM     12  C   UNL d   1     -14.165  13.676   5.193 -0.07 -0.02    +0.109 A 
DOCKED: ATOM     13  C   UNL d   1      -9.949  14.345   3.099 -0.20 -0.06    +0.193 A 
DOCKED: ATOM     14  C   UNL d   1     -17.635  13.686   5.014 -0.01 +0.00    +0.026 C 
DOCKED: ATOM     15  C   UNL d   1     -12.939  14.493   5.081 -0.09 -0.01    +0.055 C 
DOCKED: ATOM     16  C   UNL d   1      -9.821  15.063   5.455 -0.24 -0.01    +0.026 C 
DOCKED: ATOM     17  C   UNL d   1     -10.791  13.165   2.736 -0.22 -0.03    +0.109 A 
DOCKED: ATOM     18  C   UNL d   1     -16.173  10.860   5.229 -0.06 +0.00    +0.050 C 
DOCKED: ATOM     19  C   UNL d   1     -15.487   9.711   4.760 -0.09 +0.00    +0.045 A 
DOCKED: ATOM     20  C   UNL d   1     -10.965  11.071   1.499 -0.25 -0.01    +0.045 A 
DOCKED: ATOM     21  C   UNL d   1     -10.360  12.251   1.668 -0.15 -0.02    +0.057 C 
DOCKED: ATOM     22  C   UNL d   1     -11.485   9.033   0.608 -0.26 -0.00    -0.019 A 
DOCKED: ATOM     23  C   UNL d   1     -12.351   9.275   1.779 -0.26 -0.00    +0.045 A 
DOCKED: ATOM     24  C   UNL d   1     -10.665  10.099   0.448 -0.26 +0.00    -0.022 A 
DOCKED: ATOM     25  C   UNL d   1     -14.103   8.576   3.377 -0.21 +0.00    +0.049 A 
DOCKED: ATOM     26  C   UNL d   1     -15.576   8.373   5.108 -0.12 -0.00    -0.018 A 
DOCKED: ATOM     27  C   UNL d   1     -14.685   7.663   4.245 -0.22 +0.00    +0.003 A 
DOCKED: ATOM     28  C   UNL d   1     -13.271   8.412   2.236 -0.23 +0.00    +0.052 C 
DOCKED: ATOM     29  C   UNL d   1      -9.610  10.318  -0.582 -0.24 +0.00    +0.046 C 
DOCKED: ATOM     30  C   UNL d   1     -16.433   7.786   6.178 -0.08 +0.00    +0.046 C 
DOCKED: ATOM     31  H   UNL d   1     -12.313  10.951   3.086 +0.05 -0.03    +0.166 HD
DOCKED: ATOM     32  H   UNL d   1     -14.339  10.693   3.282 +0.03 -0.00    +0.166 HD
DOCKED: ENDROOT
DOCKED: BRANCH   7  33
DOCKED: ATOM     33  C   UNL d   1     -16.883  13.073   7.353 -0.01 +0.00    +0.141 C 
DOCKED: BRANCH  33  34
DOCKED: ATOM     34  C   UNL d   1     -16.888  14.361   8.131 -0.00 +0.01    +0.306 C 
DOCKED: ATOM     35  O   UNL d   1     -16.185  14.626   9.091 -0.01 -0.01    -0.251 OA
DOCKED: BRANCH  34  36
DOCKED: ATOM     36  O   UNL d   1     -17.777  15.251   7.655 +0.00 -0.01    -0.481 OA
DOCKED: ATOM     37  H   UNL d   1     -17.240  15.877   7.125 +0.00 +0.01    +0.295 HD
DOCKED: ENDBRANCH  34  36
DOCKED: ENDBRANCH  33  34
DOCKED: ENDBRANCH   7  33
DOCKED: BRANCH  27  38
DOCKED: ATOM     38  C   UNL d   1     -14.480   6.246   4.256 -0.25 +0.00    +0.017 C 
DOCKED: ATOM     39  C   UNL d   1     -14.923   5.392   3.321 -0.27 +0.02    +0.092 C 
DOCKED: BRANCH  39  40
DOCKED: ATOM     40  C   UNL d   1     -14.629   3.961   3.441 -0.27 +0.06    +0.330 C 
DOCKED: ATOM     41  O   UNL d   1     -15.137   3.159   4.202 -0.31 -0.04    -0.246 OA
DOCKED: BRANCH  40  42
DOCKED: ATOM     42  O   UNL d   1     -13.684   3.608   2.557 -0.30 -0.08    -0.477 OA
DOCKED: ATOM     43  H   UNL d   1     -13.701   4.329   1.894 +0.17 +0.07    +0.295 HD
DOCKED: ENDBRANCH  40  42
DOCKED: ENDBRANCH  39  40
DOCKED: ENDBRANCH  27  38
DOCKED: BRANCH   8  44
DOCKED: ATOM     44  C   UNL d   1     -10.933  16.553   3.741 -0.04 -0.02    +0.141 C 
DOCKED: BRANCH  44  45
DOCKED: ATOM     45  C   UNL d   1     -11.221  16.685   2.269 +0.00 -0.04    +0.306 C 
DOCKED: ATOM     46  O   UNL d   1     -12.271  16.425   1.708 -0.00 +0.02    -0.251 OA
DOCKED: BRANCH  45  47
DOCKED: ATOM     47  O   UNL d   1     -10.153  17.115   1.573 +0.01 +0.10    -0.481 OA
DOCKED: ATOM     48  H   UNL d   1      -9.460  16.441   1.740 +0.06 -0.08    +0.295 HD
DOCKED: ENDBRANCH  45  47
DOCKED: ENDBRANCH  44  45
DOCKED: ENDBRANCH   8  44
DOCKED: BRANCH  22  49
DOCKED: ATOM     49  C   UNL d   1     -11.547   7.800  -0.246 -0.18 +0.01    +0.048 C 
DOCKED: BRANCH  49  50
DOCKED: ATOM     50  C   UNL d   1     -12.853   7.722  -1.037 -0.14 +0.04    +0.125 C 
DOCKED: BRANCH  50  51
DOCKED: ATOM     51  C   UNL d   1     -13.658   6.522  -0.626 -0.15 +0.16    +0.305 C 
DOCKED: ATOM     52  O   UNL d   1     -13.644   5.951   0.450 -0.66 -0.13    -0.251 OA
DOCKED: BRANCH  51  53
DOCKED: ATOM     53  O   UNL d   1     -14.452   6.082  -1.623 -0.27 -0.52    -0.481 OA
DOCKED: ATOM     54  H   UNL d   1     -14.665   6.892  -2.132 +0.05 +0.22    +0.295 HD
DOCKED: ENDBRANCH  51  53
DOCKED: ENDBRANCH  50  51
DOCKED: ENDBRANCH  49  50
DOCKED: ENDBRANCH  22  49
DOCKED: TORSDOF 13
DOCKED: TER
DOCKED: ENDMDL
________________________________________________________________________________


	BEGINNING GENETIC ALGORITHM DOCKING 36 of 100
Run: 36 Seed: 1973613750 2030449100 [ Run 36 of 100 GA/GALS ]
Beginning LAMARCKIAN GENETIC ALGORITHM (LGA), with a maximum of 25000000 energy evaluations.

Final-Value: -11.037


	FINAL GENETIC ALGORITHM DOCKED STATE
	_______________________________________________


Detailed state:  trans -9.040 -2.802 -11.711 quatxyzw 0.325652 -0.739383 0.586749 0.054665 center 0.153 0.018 -0.028 ntor 13 179.8934 -151.7485 -139.4168 38.9099 -153.1719 83.8424 130.7779 47.9016 11.4978 -9.1822 -81.2699 -116.0336 5.2258
State:	 -9.040  -2.802 -11.711   0.326 -0.740  0.588 173.733    179.89 -151.75 -139.42   38.91 -153.17   83.84  130.78   47.90   11.50   -9.18  -81.27 -116.03    5.23

DOCKED: MODEL       36
DOCKED: USER    Run = 36
DOCKED: USER    DPF = D:/Protein_go_brrr/autodock/final/AncB/heme/dock.dpf
DOCKED: USER  
DOCKED: USER    Estimated Free Energy of Binding    =   -2.44 kcal/mol  [=(1)+(2)+(3)-(4)]
DOCKED: USER    Estimated Inhibition Constant, Ki   =   16.36 mM (millimolar)  [Temperature = 298.15 K]
DOCKED: USER    
DOCKED: USER    (1) Final Intermolecular Energy     =   -6.31 kcal/mol
DOCKED: USER        vdW + Hbond + desolv Energy     =   -6.09 kcal/mol
DOCKED: USER        Electrostatic Energy            =   -0.22 kcal/mol
DOCKED: USER    (2) Final Total Internal Energy     =   -4.72 kcal/mol
DOCKED: USER    (3) Torsional Free Energy           =   +3.88 kcal/mol
DOCKED: USER    (4) Unbound System's Energy  [=(2)] =   -4.72 kcal/mol
DOCKED: USER    
DOCKED: USER    
DOCKED: USER    NEWDPF move heme_opt.pdbqt
DOCKED: USER    NEWDPF about 0.153000 0.018000 -0.028000
DOCKED: USER    NEWDPF tran0 -9.040384 -2.802300 -11.711485
DOCKED: USER    NEWDPF quaternion0 0.325652 -0.739383 0.586749 0.054665
DOCKED: USER    NEWDPF axisangle0 0.326140 -0.740490 0.587628 173.732728
DOCKED: USER    NEWDPF quat0 0.326140 -0.740490 0.587628 173.732728
DOCKED: USER    NEWDPF dihe0 179.89 -151.75 -139.42 38.91 -153.17 83.84 130.78 47.90 11.50 -9.18 -81.27 -116.03 5.23 
DOCKED: USER  keepresnum = 1 
DOCKED: USER  
DOCKED: REMARK  13 active torsions:
DOCKED: REMARK  status: ('A' for Active; 'I' for Inactive)
DOCKED: REMARK    1  A    between atoms: O_3  and  C_38 
DOCKED: REMARK    2  A    between atoms: O_4  and  C_40 
DOCKED: REMARK    3  A    between atoms: O_7  and  C_46 
DOCKED: REMARK    4  A    between atoms: O_9  and  C_48 
DOCKED: REMARK    5  A    between atoms: C_15  and  C_20 
DOCKED: REMARK    6  A    between atoms: C_16  and  C_23 
DOCKED: REMARK    7  A    between atoms: C_20  and  C_38 
DOCKED: REMARK    8  A    between atoms: C_23  and  C_40 
DOCKED: REMARK    9  A    between atoms: C_32  and  C_41 
DOCKED: REMARK   10  A    between atoms: C_37  and  C_45 
DOCKED: REMARK   11  A    between atoms: C_41  and  C_44 
DOCKED: REMARK   12  A    between atoms: C_44  and  C_46 
DOCKED: REMARK   13  A    between atoms: C_47  and  C_48 
DOCKED: USER                              x       y       z     vdW  Elec       q    Type
DOCKED: USER                           _______ _______ _______ _____ _____    ______ ____
DOCKED: ROOT
DOCKED: ATOM      1  O   UNL d   1      -5.058  -0.112 -15.126 -0.05 -0.44    -0.289 OA
DOCKED: ATOM      2  O   UNL d   1      -5.671  -0.520  -7.652 -0.21 -0.09    -0.289 OA
DOCKED: ATOM      3  N   UNL d   1      -7.676  -1.713 -13.551 -0.03 -0.20    -0.247 NA
DOCKED: ATOM      4  N   UNL d   1      -6.909  -1.616 -10.682 -0.07 -0.16    -0.247 NA
DOCKED: ATOM      5  N   UNL d   1      -8.962  -3.560 -10.163 -0.04 -0.15    -0.354 N 
DOCKED: ATOM      6  N   UNL d   1      -9.738  -3.669 -13.144 +0.00 -0.19    -0.354 N 
DOCKED: ATOM      7  C   UNL d   1      -6.942  -1.475 -15.877 -0.03 +0.08    +0.084 A 
DOCKED: ATOM      8  C   UNL d   1      -5.435   0.202  -9.979 -0.20 +0.05    +0.084 A 
DOCKED: ATOM      9  C   UNL d   1      -6.148  -0.550 -11.108 -0.12 +0.05    +0.058 A 
DOCKED: ATOM     10  C   UNL d   1      -7.941  -2.049 -14.868 -0.03 +0.04    +0.058 A 
DOCKED: ATOM     11  C   UNL d   1      -6.076  -0.741 -14.900 -0.04 +0.25    +0.193 A 
DOCKED: ATOM     12  C   UNL d   1      -6.639  -0.940 -13.527 -0.07 +0.12    +0.109 A 
DOCKED: ATOM     13  C   UNL d   1      -5.903  -0.656  -8.838 -0.17 +0.08    +0.193 A 
DOCKED: ATOM     14  C   UNL d   1      -6.111  -2.572 -16.549 -0.07 +0.03    +0.026 C 
DOCKED: ATOM     15  C   UNL d   1      -5.999  -0.228 -12.402 -0.12 +0.06    +0.055 C 
DOCKED: ATOM     16  C   UNL d   1      -5.997   1.615  -9.796 -0.25 +0.01    +0.026 C 
DOCKED: ATOM     17  C   UNL d   1      -6.782  -1.726  -9.398 -0.13 +0.05    +0.109 A 
DOCKED: ATOM     18  C   UNL d   1      -9.025  -2.740 -15.266 -0.01 +0.03    +0.050 C 
DOCKED: ATOM     19  C   UNL d   1     -10.045  -3.234 -14.414 -0.01 +0.02    +0.045 A 
DOCKED: ATOM     20  C   UNL d   1      -8.329  -3.556  -8.947 -0.24 +0.02    +0.045 A 
DOCKED: ATOM     21  C   UNL d   1      -7.356  -2.749  -8.512 -0.17 +0.02    +0.057 C 
DOCKED: ATOM     22  C   UNL d   1      -9.889  -5.225  -8.961 -0.30 -0.01    -0.019 A 
DOCKED: ATOM     23  C   UNL d   1      -9.920  -4.534 -10.266 -0.15 +0.02    +0.045 A 
DOCKED: ATOM     24  C   UNL d   1      -8.946  -4.641  -8.184 -0.37 -0.01    -0.022 A 
DOCKED: ATOM     25  C   UNL d   1     -10.853  -4.189 -12.529 -0.06 +0.03    +0.049 A 
DOCKED: ATOM     26  C   UNL d   1     -11.400  -3.443 -14.615 -0.01 -0.01    -0.018 A 
DOCKED: ATOM     27  C   UNL d   1     -11.910  -4.027 -13.414 -0.03 +0.00    +0.003 A 
DOCKED: ATOM     28  C   UNL d   1     -10.754  -4.843 -11.270 -0.14 +0.03    +0.052 C 
DOCKED: ATOM     29  C   UNL d   1      -8.551  -4.974  -6.786 -0.53 +0.01    +0.046 C 
DOCKED: ATOM     30  C   UNL d   1     -12.178  -3.117 -15.845 +0.00 +0.02    +0.046 C 
DOCKED: ATOM     31  H   UNL d   1      -8.769  -2.848 -10.859 +0.04 +0.08    +0.166 HD
DOCKED: ATOM     32  H   UNL d   1      -8.804  -3.640 -12.752 +0.04 +0.10    +0.166 HD
DOCKED: ENDROOT
DOCKED: BRANCH   7  33
DOCKED: ATOM     33  C   UNL d   1      -7.532  -0.506 -16.908 +0.00 +0.09    +0.141 C 
DOCKED: BRANCH  33  34
DOCKED: ATOM     34  C   UNL d   1      -8.181   0.693 -16.270 +0.01 +0.17    +0.306 C 
DOCKED: ATOM     35  O   UNL d   1      -9.374   0.844 -16.068 +0.00 -0.11    -0.251 OA
DOCKED: BRANCH  34  36
DOCKED: ATOM     36  O   UNL d   1      -7.291   1.637 -15.918 +0.01 -0.33    -0.481 OA
DOCKED: ATOM     37  H   UNL d   1      -6.418   1.252 -16.146 +0.02 +0.24    +0.295 HD
DOCKED: ENDBRANCH  34  36
DOCKED: ENDBRANCH  33  34
DOCKED: ENDBRANCH   7  33
DOCKED: BRANCH  27  38
DOCKED: ATOM     38  C   UNL d   1     -13.270  -4.419 -13.199 -0.06 +0.01    +0.017 C 
DOCKED: ATOM     39  C   UNL d   1     -13.737  -5.674 -13.281 -0.05 +0.11    +0.092 C 
DOCKED: BRANCH  39  40
DOCKED: ATOM     40  C   UNL d   1     -15.153  -5.944 -13.020 -0.02 +0.38    +0.330 C 
DOCKED: ATOM     41  O   UNL d   1     -16.088  -5.816 -13.787 -0.02 -0.18    -0.246 OA
DOCKED: BRANCH  40  42
DOCKED: ATOM     42  O   UNL d   1     -15.315  -6.387 -11.763 -0.44 -0.63    -0.477 OA
DOCKED: ATOM     43  H   UNL d   1     -14.572  -5.978 -11.273 +0.02 +0.35    +0.295 HD
DOCKED: ENDBRANCH  40  42
DOCKED: ENDBRANCH  39  40
DOCKED: ENDBRANCH  27  38
DOCKED: BRANCH   8  44
DOCKED: ATOM     44  C   UNL d   1      -3.905   0.221 -10.061 -0.26 +0.10    +0.141 C 
DOCKED: BRANCH  44  45
DOCKED: ATOM     45  C   UNL d   1      -3.293  -1.155 -10.059 -0.18 +0.25    +0.306 C 
DOCKED: ATOM     46  O   UNL d   1      -3.102  -1.866 -11.030 -0.77 -0.37    -0.251 OA
DOCKED: BRANCH  45  47
DOCKED: ATOM     47  O   UNL d   1      -2.977  -1.576  -8.821 -0.09 -0.26    -0.481 OA
DOCKED: ATOM     48  H   UNL d   1      -3.721  -1.272  -8.259 +0.17 +0.13    +0.295 HD
DOCKED: ENDBRANCH  45  47
DOCKED: ENDBRANCH  44  45
DOCKED: ENDBRANCH   8  44
DOCKED: BRANCH  22  49
DOCKED: ATOM     49  C   UNL d   1     -10.764  -6.390  -8.604 -0.36 +0.02    +0.048 C 
DOCKED: BRANCH  49  50
DOCKED: ATOM     50  C   UNL d   1     -12.182  -5.947  -8.244 -0.20 +0.04    +0.125 C 
DOCKED: BRANCH  50  51
DOCKED: ATOM     51  C   UNL d   1     -13.115  -6.138  -9.406 -0.09 +0.19    +0.305 C 
DOCKED: ATOM     52  O   UNL d   1     -13.165  -7.085 -10.171 -0.26 -0.32    -0.251 OA
DOCKED: BRANCH  51  53
DOCKED: ATOM     53  O   UNL d   1     -13.953  -5.093  -9.557 -0.00 -0.23    -0.481 OA
DOCKED: ATOM     54  H   UNL d   1     -14.804  -5.505  -9.813 +0.03 +0.16    +0.295 HD
DOCKED: ENDBRANCH  51  53
DOCKED: ENDBRANCH  50  51
DOCKED: ENDBRANCH  49  50
DOCKED: ENDBRANCH  22  49
DOCKED: TORSDOF 13
DOCKED: TER
DOCKED: ENDMDL
________________________________________________________________________________


	BEGINNING GENETIC ALGORITHM DOCKING 37 of 100
Run: 37 Seed: 1506623582 504988054 [ Run 37 of 100 GA/GALS ]
Beginning LAMARCKIAN GENETIC ALGORITHM (LGA), with a maximum of 25000000 energy evaluations.

Final-Value: -12.030


	FINAL GENETIC ALGORITHM DOCKED STATE
	_______________________________________________


Detailed state:  trans 17.370 1.684 -10.440 quatxyzw -0.423742 0.011713 0.901674 0.085382 center 0.153 0.018 -0.028 ntor 13 101.5467 114.3426 172.0129 -61.8995 0.9809 -33.3418 150.6557 -10.0438 -141.2972 -4.0566 59.5092 -40.6328 -26.7454
State:	 17.370   1.684 -10.440  -0.425  0.012  0.905 170.204    101.55  114.34  172.01  -61.90    0.98  -33.34  150.66  -10.04 -141.30   -4.06   59.51  -40.63  -26.75

DOCKED: MODEL       37
DOCKED: USER    Run = 37
DOCKED: USER    DPF = D:/Protein_go_brrr/autodock/final/AncB/heme/dock.dpf
DOCKED: USER  
DOCKED: USER    Estimated Free Energy of Binding    =   -6.46 kcal/mol  [=(1)+(2)+(3)-(4)]
DOCKED: USER    Estimated Inhibition Constant, Ki   =   18.38 uM (micromolar)  [Temperature = 298.15 K]
DOCKED: USER    
DOCKED: USER    (1) Final Intermolecular Energy     =  -10.34 kcal/mol
DOCKED: USER        vdW + Hbond + desolv Energy     =  -10.00 kcal/mol
DOCKED: USER        Electrostatic Energy            =   -0.34 kcal/mol
DOCKED: USER    (2) Final Total Internal Energy     =   -1.69 kcal/mol
DOCKED: USER    (3) Torsional Free Energy           =   +3.88 kcal/mol
DOCKED: USER    (4) Unbound System's Energy  [=(2)] =   -1.69 kcal/mol
DOCKED: USER    
DOCKED: USER    
DOCKED: USER    NEWDPF move heme_opt.pdbqt
DOCKED: USER    NEWDPF about 0.153000 0.018000 -0.028000
DOCKED: USER    NEWDPF tran0 17.370352 1.684341 -10.440162
DOCKED: USER    NEWDPF quaternion0 -0.423742 0.011713 0.901674 0.085382
DOCKED: USER    NEWDPF axisangle0 -0.425295 0.011756 0.904978 170.204007
DOCKED: USER    NEWDPF quat0 -0.425295 0.011756 0.904978 170.204007
DOCKED: USER    NEWDPF dihe0 101.55 114.34 172.01 -61.90 0.98 -33.34 150.66 -10.04 -141.30 -4.06 59.51 -40.63 -26.75 
DOCKED: USER  keepresnum = 1 
DOCKED: USER  
DOCKED: REMARK  13 active torsions:
DOCKED: REMARK  status: ('A' for Active; 'I' for Inactive)
DOCKED: REMARK    1  A    between atoms: O_3  and  C_38 
DOCKED: REMARK    2  A    between atoms: O_4  and  C_40 
DOCKED: REMARK    3  A    between atoms: O_7  and  C_46 
DOCKED: REMARK    4  A    between atoms: O_9  and  C_48 
DOCKED: REMARK    5  A    between atoms: C_15  and  C_20 
DOCKED: REMARK    6  A    between atoms: C_16  and  C_23 
DOCKED: REMARK    7  A    between atoms: C_20  and  C_38 
DOCKED: REMARK    8  A    between atoms: C_23  and  C_40 
DOCKED: REMARK    9  A    between atoms: C_32  and  C_41 
DOCKED: REMARK   10  A    between atoms: C_37  and  C_45 
DOCKED: REMARK   11  A    between atoms: C_41  and  C_44 
DOCKED: REMARK   12  A    between atoms: C_44  and  C_46 
DOCKED: REMARK   13  A    between atoms: C_47  and  C_48 
DOCKED: USER                              x       y       z     vdW  Elec       q    Type
DOCKED: USER                           _______ _______ _______ _____ _____    ______ ____
DOCKED: ROOT
DOCKED: ATOM      1  O   UNL d   1      20.631   0.907  -5.591 -0.08 -0.09    -0.289 OA
DOCKED: ATOM      2  O   UNL d   1      19.546   6.975  -9.880 -0.16 -0.18    -0.289 OA
DOCKED: ATOM      3  N   UNL d   1      18.711   0.851  -8.455 -0.12 -0.11    -0.247 NA
DOCKED: ATOM      4  N   UNL d   1      18.622   3.706  -9.274 -0.29 -0.28    -0.247 NA
DOCKED: ATOM      5  N   UNL d   1      16.492   3.025 -11.081 -0.10 -0.25    -0.354 N 
DOCKED: ATOM      6  N   UNL d   1      16.578   0.069 -10.212 -0.15 -0.13    -0.354 N 
DOCKED: ATOM      7  C   UNL d   1      19.199  -0.755  -6.669 -0.22 +0.03    +0.084 A 
DOCKED: ATOM      8  C   UNL d   1      20.479   5.129  -8.570 -0.07 +0.05    +0.084 A 
DOCKED: ATOM      9  C   UNL d   1      19.773   3.770  -8.522 -0.10 +0.04    +0.058 A 
DOCKED: ATOM     10  C   UNL d   1      18.469  -0.425  -7.974 -0.23 +0.02    +0.058 A 
DOCKED: ATOM     11  C   UNL d   1      19.911   0.554  -6.507 -0.11 +0.07    +0.193 A 
DOCKED: ATOM     12  C   UNL d   1      19.554   1.433  -7.666 -0.13 +0.05    +0.109 A 
DOCKED: ATOM     13  C   UNL d   1      19.494   5.836  -9.458 -0.13 +0.15    +0.193 A 
DOCKED: ATOM     14  C   UNL d   1      18.229  -0.939  -5.499 -0.23 +0.01    +0.026 C 
DOCKED: ATOM     15  C   UNL d   1      20.214   2.749  -7.770 -0.10 +0.03    +0.055 C 
DOCKED: ATOM     16  C   UNL d   1      21.825   5.045  -9.296 -0.02 +0.01    +0.026 C 
DOCKED: ATOM     17  C   UNL d   1      18.413   4.866  -9.808 -0.04 +0.14    +0.109 A 
DOCKED: ATOM     18  C   UNL d   1      17.735  -1.349  -8.622 -0.28 +0.02    +0.050 C 
DOCKED: ATOM     19  C   UNL d   1      17.095  -1.162  -9.873 -0.25 +0.01    +0.045 A 
DOCKED: ATOM     20  C   UNL d   1      16.440   4.392 -11.161 -0.24 +0.04    +0.045 A 
DOCKED: ATOM     21  C   UNL d   1      17.278   5.294 -10.639 -0.25 +0.07    +0.057 C 
DOCKED: ATOM     22  C   UNL d   1      14.666   3.519 -12.305 -0.34 -0.01    -0.019 A 
DOCKED: ATOM     23  C   UNL d   1      15.462   2.410 -11.741 -0.26 +0.02    +0.045 A 
DOCKED: ATOM     24  C   UNL d   1      15.252   4.690 -11.959 -0.36 -0.01    -0.022 A 
DOCKED: ATOM     25  C   UNL d   1      15.926   0.003 -11.421 -0.27 +0.02    +0.049 A 
DOCKED: ATOM     26  C   UNL d   1      16.804  -2.040 -10.905 -0.20 -0.01    -0.018 A 
DOCKED: ATOM     27  C   UNL d   1      16.083  -1.295 -11.889 -0.21 +0.00    +0.003 A 
DOCKED: ATOM     28  C   UNL d   1      15.177   1.109 -11.907 -0.33 +0.02    +0.052 C 
DOCKED: ATOM     29  C   UNL d   1      14.831   6.079 -12.299 -0.30 +0.03    +0.046 C 
DOCKED: ATOM     30  C   UNL d   1      17.173  -3.483 -10.977 -0.15 +0.02    +0.046 C 
DOCKED: ATOM     31  H   UNL d   1      17.273   2.553 -10.639 +0.06 +0.11    +0.166 HD
DOCKED: ATOM     32  H   UNL d   1      16.644   0.887  -9.618 +0.05 +0.08    +0.166 HD
DOCKED: ENDROOT
DOCKED: BRANCH   7  33
DOCKED: ATOM     33  C   UNL d   1      20.205  -1.908  -6.752 -0.09 +0.03    +0.141 C 
DOCKED: BRANCH  33  34
DOCKED: ATOM     34  C   UNL d   1      19.603  -3.231  -6.365 -0.08 +0.07    +0.306 C 
DOCKED: ATOM     35  O   UNL d   1      18.610  -3.742  -6.855 -0.13 -0.07    -0.251 OA
DOCKED: BRANCH  34  36
DOCKED: ATOM     36  O   UNL d   1      20.285  -3.844  -5.381 -0.00 -0.09    -0.481 OA
DOCKED: ATOM     37  H   UNL d   1      21.041  -4.273  -5.835 +0.03 +0.05    +0.295 HD
DOCKED: ENDBRANCH  34  36
DOCKED: ENDBRANCH  33  34
DOCKED: ENDBRANCH   7  33
DOCKED: BRANCH  27  38
DOCKED: ATOM     38  C   UNL d   1      15.574  -1.826 -13.118 -0.14 +0.01    +0.017 C 
DOCKED: ATOM     39  C   UNL d   1      14.833  -1.147 -14.007 -0.20 +0.03    +0.092 C 
DOCKED: BRANCH  39  40
DOCKED: ATOM     40  C   UNL d   1      14.388  -1.804 -15.239 -0.11 +0.08    +0.330 C 
DOCKED: ATOM     41  O   UNL d   1      14.989  -2.628 -15.901 -0.05 -0.05    -0.246 OA
DOCKED: BRANCH  40  42
DOCKED: ATOM     42  O   UNL d   1      13.161  -1.375 -15.573 -0.13 -0.10    -0.477 OA
DOCKED: ATOM     43  H   UNL d   1      12.591  -1.708 -14.849 -0.47 -0.01    +0.295 HD
DOCKED: ENDBRANCH  40  42
DOCKED: ENDBRANCH  39  40
DOCKED: ENDBRANCH  27  38
DOCKED: BRANCH   8  44
DOCKED: ATOM     44  C   UNL d   1      20.619   5.849  -7.224 -0.08 +0.07    +0.141 C 
DOCKED: BRANCH  44  45
DOCKED: ATOM     45  C   UNL d   1      19.310   6.010  -6.498 -0.12 +0.27    +0.306 C 
DOCKED: ATOM     46  O   UNL d   1      18.945   5.393  -5.512 -0.16 -0.21    -0.251 OA
DOCKED: BRANCH  45  47
DOCKED: ATOM     47  O   UNL d   1      18.512   6.928  -7.072 -0.11 -0.51    -0.481 OA
DOCKED: ATOM     48  H   UNL d   1      19.076   7.357  -7.750 -0.40 +0.16    +0.295 HD
DOCKED: ENDBRANCH  45  47
DOCKED: ENDBRANCH  44  45
DOCKED: ENDBRANCH   8  44
DOCKED: BRANCH  22  49
DOCKED: ATOM     49  C   UNL d   1      13.413   3.333 -13.109 -0.49 +0.01    +0.048 C 
DOCKED: BRANCH  49  50
DOCKED: ATOM     50  C   UNL d   1      13.620   3.700 -14.578 -0.29 +0.03    +0.125 C 
DOCKED: BRANCH  50  51
DOCKED: ATOM     51  C   UNL d   1      12.705   4.820 -14.985 -0.23 +0.03    +0.305 C 
DOCKED: ATOM     52  O   UNL d   1      11.713   5.220 -14.400 -0.55 -0.00    -0.251 OA
DOCKED: BRANCH  51  53
DOCKED: ATOM     53  O   UNL d   1      13.088   5.388 -16.146 -0.14 -0.01    -0.481 OA
DOCKED: ATOM     54  H   UNL d   1      12.336   5.222 -16.752 -0.44 -0.07    +0.295 HD
DOCKED: ENDBRANCH  51  53
DOCKED: ENDBRANCH  50  51
DOCKED: ENDBRANCH  49  50
DOCKED: ENDBRANCH  22  49
DOCKED: TORSDOF 13
DOCKED: TER
DOCKED: ENDMDL
________________________________________________________________________________


	BEGINNING GENETIC ALGORITHM DOCKING 38 of 100
Run: 38 Seed: 1610610311 866430911 [ Run 38 of 100 GA/GALS ]
Beginning LAMARCKIAN GENETIC ALGORITHM (LGA), with a maximum of 25000000 energy evaluations.

Final-Value: -11.319


	FINAL GENETIC ALGORITHM DOCKED STATE
	_______________________________________________


Detailed state:  trans 8.449 15.496 1.013 quatxyzw 0.013450 -0.337638 -0.581376 0.740150 center 0.153 0.018 -0.028 ntor 13 -153.1193 -175.3934 -105.3403 -33.6618 -141.8624 79.0389 124.0725 -91.9760 -127.3136 -24.4306 -86.3623 -102.3545 -4.1453
State:	  8.449  15.496   1.013   0.020 -0.502 -0.865 84.512   -153.12 -175.39 -105.34  -33.66 -141.86   79.04  124.07  -91.98 -127.31  -24.43  -86.36 -102.35   -4.15

DOCKED: MODEL       38
DOCKED: USER    Run = 38
DOCKED: USER    DPF = D:/Protein_go_brrr/autodock/final/AncB/heme/dock.dpf
DOCKED: USER  
DOCKED: USER    Estimated Free Energy of Binding    =   -3.39 kcal/mol  [=(1)+(2)+(3)-(4)]
DOCKED: USER    Estimated Inhibition Constant, Ki   =    3.27 mM (millimolar)  [Temperature = 298.15 K]
DOCKED: USER    
DOCKED: USER    (1) Final Intermolecular Energy     =   -7.27 kcal/mol
DOCKED: USER        vdW + Hbond + desolv Energy     =   -6.71 kcal/mol
DOCKED: USER        Electrostatic Energy            =   -0.56 kcal/mol
DOCKED: USER    (2) Final Total Internal Energy     =   -4.05 kcal/mol
DOCKED: USER    (3) Torsional Free Energy           =   +3.88 kcal/mol
DOCKED: USER    (4) Unbound System's Energy  [=(2)] =   -4.05 kcal/mol
DOCKED: USER    
DOCKED: USER    
DOCKED: USER    NEWDPF move heme_opt.pdbqt
DOCKED: USER    NEWDPF about 0.153000 0.018000 -0.028000
DOCKED: USER    NEWDPF tran0 8.449265 15.496008 1.013338
DOCKED: USER    NEWDPF quaternion0 0.013450 -0.337638 -0.581376 0.740150
DOCKED: USER    NEWDPF axisangle0 0.020002 -0.502107 -0.864574 84.511598
DOCKED: USER    NEWDPF quat0 0.020002 -0.502107 -0.864574 84.511598
DOCKED: USER    NEWDPF dihe0 -153.12 -175.39 -105.34 -33.66 -141.86 79.04 124.07 -91.98 -127.31 -24.43 -86.36 -102.35 -4.15 
DOCKED: USER  keepresnum = 1 
DOCKED: USER  
DOCKED: REMARK  13 active torsions:
DOCKED: REMARK  status: ('A' for Active; 'I' for Inactive)
DOCKED: REMARK    1  A    between atoms: O_3  and  C_38 
DOCKED: REMARK    2  A    between atoms: O_4  and  C_40 
DOCKED: REMARK    3  A    between atoms: O_7  and  C_46 
DOCKED: REMARK    4  A    between atoms: O_9  and  C_48 
DOCKED: REMARK    5  A    between atoms: C_15  and  C_20 
DOCKED: REMARK    6  A    between atoms: C_16  and  C_23 
DOCKED: REMARK    7  A    between atoms: C_20  and  C_38 
DOCKED: REMARK    8  A    between atoms: C_23  and  C_40 
DOCKED: REMARK    9  A    between atoms: C_32  and  C_41 
DOCKED: REMARK   10  A    between atoms: C_37  and  C_45 
DOCKED: REMARK   11  A    between atoms: C_41  and  C_44 
DOCKED: REMARK   12  A    between atoms: C_44  and  C_46 
DOCKED: REMARK   13  A    between atoms: C_47  and  C_48 
DOCKED: USER                              x       y       z     vdW  Elec       q    Type
DOCKED: USER                           _______ _______ _______ _____ _____    ______ ____
DOCKED: ROOT
DOCKED: ATOM      1  O   UNL d   1       6.755  11.532   5.035 -0.72 -0.14    -0.289 OA
DOCKED: ATOM      2  O   UNL d   1      11.644  11.014  -0.642 -0.29 -0.06    -0.289 OA
DOCKED: ATOM      3  N   UNL d   1       7.332  14.116   2.824 -0.09 +0.08    -0.247 NA
DOCKED: ATOM      4  N   UNL d   1       9.585  13.109   1.169 -0.10 -0.02    -0.247 NA
DOCKED: ATOM      5  N   UNL d   1       9.932  15.786   0.179 -0.07 -0.01    -0.354 N 
DOCKED: ATOM      6  N   UNL d   1       7.607  16.826   1.915 -0.01 +0.08    -0.354 N 
DOCKED: ATOM      7  C   UNL d   1       6.028  13.861   4.884 -0.17 -0.04    +0.084 A 
DOCKED: ATOM      8  C   UNL d   1       9.823  10.686   0.961 -0.35 +0.02    +0.084 A 
DOCKED: ATOM      9  C   UNL d   1       9.113  11.887   1.594 -0.24 +0.01    +0.058 A 
DOCKED: ATOM     10  C   UNL d   1       6.500  14.751   3.731 -0.12 -0.03    +0.058 A 
DOCKED: ATOM     11  C   UNL d   1       6.726  12.604   4.459 -0.18 -0.02    +0.193 A 
DOCKED: ATOM     12  C   UNL d   1       7.461  12.880   3.184 -0.18 -0.01    +0.109 A 
DOCKED: ATOM     13  C   UNL d   1      10.809  11.452   0.125 -0.23 +0.04    +0.193 A 
DOCKED: ATOM     14  C   UNL d   1       6.600  14.313   6.230 -0.13 -0.00    +0.026 C 
DOCKED: ATOM     15  C   UNL d   1       8.152  11.756   2.522 -0.33 +0.01    +0.055 C 
DOCKED: ATOM     16  C   UNL d   1       8.892   9.903   0.029 -0.07 +0.00    +0.026 C 
DOCKED: ATOM     17  C   UNL d   1      10.564  12.909   0.347 -0.15 +0.01    +0.109 A 
DOCKED: ATOM     18  C   UNL d   1       6.053  16.013   3.589 -0.11 -0.03    +0.050 C 
DOCKED: ATOM     19  C   UNL d   1       6.368  16.881   2.512 -0.07 -0.02    +0.045 A 
DOCKED: ATOM     20  C   UNL d   1      11.065  15.200  -0.324 -0.16 +0.00    +0.045 A 
DOCKED: ATOM     21  C   UNL d   1      11.416  13.910  -0.314 -0.22 +0.01    +0.057 C 
DOCKED: ATOM     22  C   UNL d   1      11.161  17.448  -0.717 -0.09 -0.00    -0.019 A 
DOCKED: ATOM     23  C   UNL d   1       9.901  17.142  -0.010 -0.08 +0.00    +0.045 A 
DOCKED: ATOM     24  C   UNL d   1      11.845  16.294  -0.901 -0.16 -0.00    -0.022 A 
DOCKED: ATOM     25  C   UNL d   1       7.727  17.810   0.960 -0.04 -0.01    +0.049 A 
DOCKED: ATOM     26  C   UNL d   1       5.652  17.902   1.906 -0.06 +0.01    -0.018 A 
DOCKED: ATOM     27  C   UNL d   1       6.508  18.472   0.914 -0.03 -0.00    +0.003 A 
DOCKED: ATOM     28  C   UNL d   1       8.971  18.053   0.317 -0.05 -0.00    +0.052 C 
DOCKED: ATOM     29  C   UNL d   1      13.159  16.086  -1.572 -0.24 +0.01    +0.046 C 
DOCKED: ATOM     30  C   UNL d   1       4.258  18.323   2.225 -0.09 -0.03    +0.046 C 
DOCKED: ATOM     31  H   UNL d   1       9.181  15.228   0.571 +0.04 -0.00    +0.166 HD
DOCKED: ATOM     32  H   UNL d   1       8.330  16.170   2.184 +0.02 -0.02    +0.166 HD
DOCKED: ENDROOT
DOCKED: BRANCH   7  33
DOCKED: ATOM     33  C   UNL d   1       4.514  13.635   4.963 -0.18 -0.16    +0.141 C 
DOCKED: BRANCH  33  34
DOCKED: ATOM     34  C   UNL d   1       3.788  14.794   5.591 -0.18 -0.29    +0.306 C 
DOCKED: ATOM     35  O   UNL d   1       3.583  14.956   6.782 -0.30 +0.14    -0.251 OA
DOCKED: BRANCH  34  36
DOCKED: ATOM     36  O   UNL d   1       3.361  15.691   4.684 -0.13 +0.63    -0.481 OA
DOCKED: ATOM     37  H   UNL d   1       3.282  15.180   3.851 -0.45 -0.73    +0.295 HD
DOCKED: ENDBRANCH  34  36
DOCKED: ENDBRANCH  33  34
DOCKED: ENDBRANCH   7  33
DOCKED: BRANCH  27  38
DOCKED: ATOM     38  C   UNL d   1       6.167  19.570   0.061 -0.02 -0.00    +0.017 C 
DOCKED: ATOM     39  C   UNL d   1       6.749  20.779   0.084 -0.00 -0.01    +0.092 C 
DOCKED: BRANCH  39  40
DOCKED: ATOM     40  C   UNL d   1       6.317  21.816  -0.856 +0.00 -0.02    +0.330 C 
DOCKED: ATOM     41  O   UNL d   1       5.314  22.501  -0.798 +0.00 +0.01    -0.246 OA
DOCKED: BRANCH  40  42
DOCKED: ATOM     42  O   UNL d   1       7.212  21.940  -1.849 +0.00 +0.00    -0.477 OA
DOCKED: ATOM     43  H   UNL d   1       7.861  21.229  -1.671 +0.01 -0.00    +0.295 HD
DOCKED: ENDBRANCH  40  42
DOCKED: ENDBRANCH  39  40
DOCKED: ENDBRANCH  27  38
DOCKED: BRANCH   8  44
DOCKED: ATOM     44  C   UNL d   1      10.542   9.751   1.939 -0.35 +0.08    +0.141 C 
DOCKED: BRANCH  44  45
DOCKED: ATOM     45  C   UNL d   1      11.821  10.330   2.482 -0.16 +0.14    +0.306 C 
DOCKED: ATOM     46  O   UNL d   1      11.925  11.143   3.385 -0.09 -0.12    -0.251 OA
DOCKED: BRANCH  45  47
DOCKED: ATOM     47  O   UNL d   1      12.908   9.872   1.837 -0.07 -0.17    -0.481 OA
DOCKED: ATOM     48  H   UNL d   1      12.893  10.330   0.969 +0.13 +0.09    +0.295 HD
DOCKED: ENDBRANCH  45  47
DOCKED: ENDBRANCH  44  45
DOCKED: ENDBRANCH   8  44
DOCKED: BRANCH  22  49
DOCKED: ATOM     49  C   UNL d   1      11.581  18.828  -1.129 -0.05 +0.00    +0.048 C 
DOCKED: BRANCH  49  50
DOCKED: ATOM     50  C   UNL d   1      11.035  19.201  -2.507 -0.06 +0.01    +0.125 C 
DOCKED: BRANCH  50  51
DOCKED: ATOM     51  C   UNL d   1       9.744  19.959  -2.385 -0.01 +0.01    +0.305 C 
DOCKED: ATOM     52  O   UNL d   1       8.612  19.521  -2.492 -0.02 -0.01    -0.251 OA
DOCKED: BRANCH  51  53
DOCKED: ATOM     53  O   UNL d   1       9.949  21.269  -2.139 +0.00 -0.02    -0.481 OA
DOCKED: ATOM     54  H   UNL d   1       9.215  21.717  -2.608 +0.01 +0.01    +0.295 HD
DOCKED: ENDBRANCH  51  53
DOCKED: ENDBRANCH  50  51
DOCKED: ENDBRANCH  49  50
DOCKED: ENDBRANCH  22  49
DOCKED: TORSDOF 13
DOCKED: TER
DOCKED: ENDMDL
________________________________________________________________________________


	BEGINNING GENETIC ALGORITHM DOCKING 39 of 100
Run: 39 Seed: 142815670 771796501 [ Run 39 of 100 GA/GALS ]
Beginning LAMARCKIAN GENETIC ALGORITHM (LGA), with a maximum of 25000000 energy evaluations.

Final-Value: -13.312


	FINAL GENETIC ALGORITHM DOCKED STATE
	_______________________________________________


Detailed state:  trans 0.384 -8.654 10.124 quatxyzw -0.022413 -0.860647 -0.390766 -0.325709 center 0.153 0.018 -0.028 ntor 13 116.6992 -137.9724 -158.7304 -51.0497 -139.3718 -15.2565 136.0620 -93.2470 66.9887 -7.7179 -92.7533 -21.3519 -16.2570
State:	  0.384  -8.654  10.124  -0.024 -0.910 -0.413 -141.983    116.70 -137.97 -158.73  -51.05 -139.37  -15.26  136.06  -93.25   66.99   -7.72  -92.75  -21.35  -16.26

DOCKED: MODEL       39
DOCKED: USER    Run = 39
DOCKED: USER    DPF = D:/Protein_go_brrr/autodock/final/AncB/heme/dock.dpf
DOCKED: USER  
DOCKED: USER    Estimated Free Energy of Binding    =   -4.88 kcal/mol  [=(1)+(2)+(3)-(4)]
DOCKED: USER    Estimated Inhibition Constant, Ki   =  265.57 uM (micromolar)  [Temperature = 298.15 K]
DOCKED: USER    
DOCKED: USER    (1) Final Intermolecular Energy     =   -8.76 kcal/mol
DOCKED: USER        vdW + Hbond + desolv Energy     =   -8.43 kcal/mol
DOCKED: USER        Electrostatic Energy            =   -0.33 kcal/mol
DOCKED: USER    (2) Final Total Internal Energy     =   -4.56 kcal/mol
DOCKED: USER    (3) Torsional Free Energy           =   +3.88 kcal/mol
DOCKED: USER    (4) Unbound System's Energy  [=(2)] =   -4.56 kcal/mol
DOCKED: USER    
DOCKED: USER    
DOCKED: USER    NEWDPF move heme_opt.pdbqt
DOCKED: USER    NEWDPF about 0.153000 0.018000 -0.028000
DOCKED: USER    NEWDPF tran0 0.383967 -8.653768 10.123632
DOCKED: USER    NEWDPF quaternion0 -0.022413 -0.860647 -0.390766 -0.325709
DOCKED: USER    NEWDPF axisangle0 -0.023706 -0.910285 -0.413303 -141.982953
DOCKED: USER    NEWDPF quat0 -0.023706 -0.910285 -0.413303 -141.982953
DOCKED: USER    NEWDPF dihe0 116.70 -137.97 -158.73 -51.05 -139.37 -15.26 136.06 -93.25 66.99 -7.72 -92.75 -21.35 -16.26 
DOCKED: USER  keepresnum = 1 
DOCKED: USER  
DOCKED: REMARK  13 active torsions:
DOCKED: REMARK  status: ('A' for Active; 'I' for Inactive)
DOCKED: REMARK    1  A    between atoms: O_3  and  C_38 
DOCKED: REMARK    2  A    between atoms: O_4  and  C_40 
DOCKED: REMARK    3  A    between atoms: O_7  and  C_46 
DOCKED: REMARK    4  A    between atoms: O_9  and  C_48 
DOCKED: REMARK    5  A    between atoms: C_15  and  C_20 
DOCKED: REMARK    6  A    between atoms: C_16  and  C_23 
DOCKED: REMARK    7  A    between atoms: C_20  and  C_38 
DOCKED: REMARK    8  A    between atoms: C_23  and  C_40 
DOCKED: REMARK    9  A    between atoms: C_32  and  C_41 
DOCKED: REMARK   10  A    between atoms: C_37  and  C_45 
DOCKED: REMARK   11  A    between atoms: C_41  and  C_44 
DOCKED: REMARK   12  A    between atoms: C_44  and  C_46 
DOCKED: REMARK   13  A    between atoms: C_47  and  C_48 
DOCKED: USER                              x       y       z     vdW  Elec       q    Type
DOCKED: USER                           _______ _______ _______ _____ _____    ______ ____
DOCKED: ROOT
DOCKED: ATOM      1  O   UNL d   1       4.942  -5.825   7.678 -0.76 -0.03    -0.289 OA
DOCKED: ATOM      2  O   UNL d   1       1.912 -12.526   6.160 -0.03 -0.04    -0.289 OA
DOCKED: ATOM      3  N   UNL d   1       2.323  -7.146   9.494 -0.09 -0.01    -0.247 NA
DOCKED: ATOM      4  N   UNL d   1       1.633  -9.618   7.997 +0.01 -0.04    -0.247 NA
DOCKED: ATOM      5  N   UNL d   1      -0.808  -9.743   9.512 +0.11 -0.07    -0.354 N 
DOCKED: ATOM      6  N   UNL d   1      -0.093  -7.166  11.046 -0.17 -0.02    -0.354 N 
DOCKED: ATOM      7  C   UNL d   1       3.498  -4.995   9.467 -0.26 -0.02    +0.084 A 
DOCKED: ATOM      8  C   UNL d   1       3.408 -10.660   6.680 -0.09 +0.01    +0.084 A 
DOCKED: ATOM      9  C   UNL d   1       2.930  -9.494   7.551 -0.13 +0.01    +0.058 A 
DOCKED: ATOM     10  C   UNL d   1       2.396  -5.881  10.054 -0.25 -0.00    +0.058 A 
DOCKED: ATOM     11  C   UNL d   1       4.048  -5.988   8.488 -0.16 -0.01    +0.193 A 
DOCKED: ATOM     12  C   UNL d   1       3.269  -7.260   8.619 -0.15 +0.01    +0.109 A 
DOCKED: ATOM     13  C   UNL d   1       2.130 -11.451   6.683 -0.06 +0.02    +0.193 A 
DOCKED: ATOM     14  C   UNL d   1       2.926  -3.803   8.695 -0.49 -0.01    +0.026 C 
DOCKED: ATOM     15  C   UNL d   1       3.694  -8.422   7.812 -0.15 +0.01    +0.055 C 
DOCKED: ATOM     16  C   UNL d   1       4.497 -11.481   7.378 -0.06 +0.00    +0.026 C 
DOCKED: ATOM     17  C   UNL d   1       1.132 -10.708   7.510 -0.12 +0.02    +0.109 A 
DOCKED: ATOM     18  C   UNL d   1       1.639  -5.470  11.089 -0.15 +0.00    +0.050 C 
DOCKED: ATOM     19  C   UNL d   1       0.656  -6.250  11.750 -0.29 +0.00    +0.045 A 
DOCKED: ATOM     20  C   UNL d   1      -1.059 -10.715   8.580 -0.17 +0.01    +0.045 A 
DOCKED: ATOM     21  C   UNL d   1      -0.236 -11.226   7.659 -0.21 +0.01    +0.057 C 
DOCKED: ATOM     22  C   UNL d   1      -2.950 -10.368   9.813 -0.29 -0.00    -0.019 A 
DOCKED: ATOM     23  C   UNL d   1      -1.890  -9.464  10.303 -0.28 +0.01    +0.045 A 
DOCKED: ATOM     24  C   UNL d   1      -2.452 -11.107   8.793 -0.24 -0.01    -0.022 A 
DOCKED: ATOM     25  C   UNL d   1      -1.042  -7.741  11.859 -0.23 +0.01    +0.049 A 
DOCKED: ATOM     26  C   UNL d   1       0.207  -6.256  13.061 -0.29 -0.00    -0.018 A 
DOCKED: ATOM     27  C   UNL d   1      -0.852  -7.214  13.129 -0.26 +0.00    +0.003 A 
DOCKED: ATOM     28  C   UNL d   1      -2.036  -8.604  11.322 -0.26 +0.01    +0.052 C 
DOCKED: ATOM     29  C   UNL d   1      -3.130 -12.161   7.987 -0.23 +0.02    +0.046 C 
DOCKED: ATOM     30  C   UNL d   1       0.728  -5.426  14.185 -0.31 -0.00    +0.046 C 
DOCKED: ATOM     31  H   UNL d   1       0.121  -9.351   9.627 +0.06 +0.03    +0.166 HD
DOCKED: ATOM     32  H   UNL d   1       0.028  -7.347  10.056 +0.10 +0.01    +0.166 HD
DOCKED: ENDROOT
DOCKED: BRANCH   7  33
DOCKED: ATOM     33  C   UNL d   1       4.584  -4.556  10.455 -0.20 -0.03    +0.141 C 
DOCKED: BRANCH  33  34
DOCKED: ATOM     34  C   UNL d   1       5.936  -5.125  10.121 -0.10 -0.06    +0.306 C 
DOCKED: ATOM     35  O   UNL d   1       6.360  -6.219  10.453 -0.06 +0.00    -0.251 OA
DOCKED: BRANCH  34  36
DOCKED: ATOM     36  O   UNL d   1       6.683  -4.286   9.382 -0.09 +0.32    -0.481 OA
DOCKED: ATOM     37  H   UNL d   1       6.207  -4.218   8.527 -0.38 -0.41    +0.295 HD
DOCKED: ENDBRANCH  34  36
DOCKED: ENDBRANCH  33  34
DOCKED: ENDBRANCH   7  33
DOCKED: BRANCH  27  38
DOCKED: ATOM     38  C   UNL d   1      -1.609  -7.526  14.304 -0.22 +0.00    +0.017 C 
DOCKED: ATOM     39  C   UNL d   1      -2.391  -8.605  14.457 -0.15 +0.02    +0.092 C 
DOCKED: BRANCH  39  40
DOCKED: ATOM     40  C   UNL d   1      -3.101  -8.818  15.721 -0.06 +0.05    +0.330 C 
DOCKED: ATOM     41  O   UNL d   1      -2.877  -8.297  16.797 -0.03 -0.02    -0.246 OA
DOCKED: BRANCH  40  42
DOCKED: ATOM     42  O   UNL d   1      -4.097  -9.700  15.548 -0.04 -0.15    -0.477 OA
DOCKED: ATOM     43  H   UNL d   1      -3.702 -10.391  14.977 +0.05 +0.08    +0.295 HD
DOCKED: ENDBRANCH  40  42
DOCKED: ENDBRANCH  39  40
DOCKED: ENDBRANCH  27  38
DOCKED: BRANCH   8  44
DOCKED: ATOM     44  C   UNL d   1       3.822 -10.291   5.252 -0.13 +0.01    +0.141 C 
DOCKED: BRANCH  44  45
DOCKED: ATOM     45  C   UNL d   1       2.727  -9.611   4.473 -0.19 +0.03    +0.306 C 
DOCKED: ATOM     46  O   UNL d   1       2.535  -8.410   4.387 -0.28 -0.04    -0.251 OA
DOCKED: BRANCH  45  47
DOCKED: ATOM     47  O   UNL d   1       1.910 -10.487   3.861 -0.12 -0.05    -0.481 OA
DOCKED: ATOM     48  H   UNL d   1       2.041 -11.329   4.347 +0.13 +0.04    +0.295 HD
DOCKED: ENDBRANCH  45  47
DOCKED: ENDBRANCH  44  45
DOCKED: ENDBRANCH   8  44
DOCKED: BRANCH  22  49
DOCKED: ATOM     49  C   UNL d   1      -4.343 -10.414  10.371 -0.35 +0.02    +0.048 C 
DOCKED: BRANCH  49  50
DOCKED: ATOM     50  C   UNL d   1      -4.525 -11.576  11.347 -0.19 +0.05    +0.125 C 
DOCKED: BRANCH  50  51
DOCKED: ATOM     51  C   UNL d   1      -4.148 -11.168  12.743 -0.09 +0.12    +0.305 C 
DOCKED: ATOM     52  O   UNL d   1      -3.100 -11.389  13.324 -0.04 -0.07    -0.251 OA
DOCKED: BRANCH  51  53
DOCKED: ATOM     53  O   UNL d   1      -5.141 -10.494  13.357 -0.05 -0.31    -0.481 OA
DOCKED: ATOM     54  H   UNL d   1      -5.253 -10.962  14.211 +0.08 +0.15    +0.295 HD
DOCKED: ENDBRANCH  51  53
DOCKED: ENDBRANCH  50  51
DOCKED: ENDBRANCH  49  50
DOCKED: ENDBRANCH  22  49
DOCKED: TORSDOF 13
DOCKED: TER
DOCKED: ENDMDL
________________________________________________________________________________


	BEGINNING GENETIC ALGORITHM DOCKING 40 of 100
Run: 40 Seed: 559519776 1592426182 [ Run 40 of 100 GA/GALS ]
Beginning LAMARCKIAN GENETIC ALGORITHM (LGA), with a maximum of 25000000 energy evaluations.

Final-Value: -10.726


	FINAL GENETIC ALGORITHM DOCKED STATE
	_______________________________________________


Detailed state:  trans 19.443 -0.702 -6.268 quatxyzw -0.476395 0.129652 0.777659 0.389211 center 0.153 0.018 -0.028 ntor 13 119.3020 95.4014 -29.0335 122.2426 -132.2249 -85.5513 -45.8161 68.3192 29.8596 4.6559 -54.2560 37.1302 26.2249
State:	 19.443  -0.702  -6.268  -0.517  0.141  0.844 134.189    119.30   95.40  -29.03  122.24 -132.22  -85.55  -45.82   68.32   29.86    4.66  -54.26   37.13   26.22

DOCKED: MODEL       40
DOCKED: USER    Run = 40
DOCKED: USER    DPF = D:/Protein_go_brrr/autodock/final/AncB/heme/dock.dpf
DOCKED: USER  
DOCKED: USER    Estimated Free Energy of Binding    =   -3.31 kcal/mol  [=(1)+(2)+(3)-(4)]
DOCKED: USER    Estimated Inhibition Constant, Ki   =    3.73 mM (millimolar)  [Temperature = 298.15 K]
DOCKED: USER    
DOCKED: USER    (1) Final Intermolecular Energy     =   -7.19 kcal/mol
DOCKED: USER        vdW + Hbond + desolv Energy     =   -6.79 kcal/mol
DOCKED: USER        Electrostatic Energy            =   -0.40 kcal/mol
DOCKED: USER    (2) Final Total Internal Energy     =   -3.54 kcal/mol
DOCKED: USER    (3) Torsional Free Energy           =   +3.88 kcal/mol
DOCKED: USER    (4) Unbound System's Energy  [=(2)] =   -3.54 kcal/mol
DOCKED: USER    
DOCKED: USER    
DOCKED: USER    NEWDPF move heme_opt.pdbqt
DOCKED: USER    NEWDPF about 0.153000 0.018000 -0.028000
DOCKED: USER    NEWDPF tran0 19.442929 -0.702332 -6.267621
DOCKED: USER    NEWDPF quaternion0 -0.476395 0.129652 0.777659 0.389211
DOCKED: USER    NEWDPF axisangle0 -0.517175 0.140751 0.844227 134.189202
DOCKED: USER    NEWDPF quat0 -0.517175 0.140751 0.844227 134.189202
DOCKED: USER    NEWDPF dihe0 119.30 95.40 -29.03 122.24 -132.22 -85.55 -45.82 68.32 29.86 4.66 -54.26 37.13 26.22 
DOCKED: USER  keepresnum = 1 
DOCKED: USER  
DOCKED: REMARK  13 active torsions:
DOCKED: REMARK  status: ('A' for Active; 'I' for Inactive)
DOCKED: REMARK    1  A    between atoms: O_3  and  C_38 
DOCKED: REMARK    2  A    between atoms: O_4  and  C_40 
DOCKED: REMARK    3  A    between atoms: O_7  and  C_46 
DOCKED: REMARK    4  A    between atoms: O_9  and  C_48 
DOCKED: REMARK    5  A    between atoms: C_15  and  C_20 
DOCKED: REMARK    6  A    between atoms: C_16  and  C_23 
DOCKED: REMARK    7  A    between atoms: C_20  and  C_38 
DOCKED: REMARK    8  A    between atoms: C_23  and  C_40 
DOCKED: REMARK    9  A    between atoms: C_32  and  C_41 
DOCKED: REMARK   10  A    between atoms: C_37  and  C_45 
DOCKED: REMARK   11  A    between atoms: C_41  and  C_44 
DOCKED: REMARK   12  A    between atoms: C_44  and  C_46 
DOCKED: REMARK   13  A    between atoms: C_47  and  C_48 
DOCKED: USER                              x       y       z     vdW  Elec       q    Type
DOCKED: USER                           _______ _______ _______ _____ _____    ______ ____
DOCKED: ROOT
DOCKED: ATOM      1  O   UNL d   1      21.075   2.157  -1.377 -0.04 -0.04    -0.289 OA
DOCKED: ATOM      2  O   UNL d   1      19.083   4.716  -8.151 -0.67 -0.43    -0.289 OA
DOCKED: ATOM      3  N   UNL d   1      20.318   0.068  -4.015 -0.08 -0.06    -0.247 NA
DOCKED: ATOM      4  N   UNL d   1      19.375   1.941  -6.121 +0.04 -0.13    -0.247 NA
DOCKED: ATOM      5  N   UNL d   1      18.354  -0.332  -7.555 -0.15 -0.13    -0.354 N 
DOCKED: ATOM      6  N   UNL d   1      19.319  -2.266  -5.357 -0.12 -0.09    -0.354 N 
DOCKED: ATOM      7  C   UNL d   1      20.818  -0.260  -1.638 -0.10 +0.01    +0.084 A 
DOCKED: ATOM      8  C   UNL d   1      20.210   4.236  -6.031 -0.10 +0.05    +0.084 A 
DOCKED: ATOM      9  C   UNL d   1      20.116   2.846  -5.394 -0.08 +0.03    +0.058 A 
DOCKED: ATOM     10  C   UNL d   1      20.460  -0.863  -3.000 -0.15 +0.01    +0.058 A 
DOCKED: ATOM     11  C   UNL d   1      20.872   1.176  -2.068 -0.07 +0.03    +0.193 A 
DOCKED: ATOM     12  C   UNL d   1      20.577   1.241  -3.535 +0.04 +0.03    +0.109 A 
DOCKED: ATOM     13  C   UNL d   1      19.354   3.963  -7.236 -0.08 +0.20    +0.193 A 
DOCKED: ATOM     14  C   UNL d   1      19.688  -0.429  -0.619 -0.22 +0.00    +0.026 C 
DOCKED: ATOM     15  C   UNL d   1      20.666   2.554  -4.205 -0.09 +0.02    +0.055 C 
DOCKED: ATOM     16  C   UNL d   1      21.634   4.551  -6.500 -0.04 +0.01    +0.026 C 
DOCKED: ATOM     17  C   UNL d   1      18.905   2.539  -7.168 -0.12 +0.09    +0.109 A 
DOCKED: ATOM     18  C   UNL d   1      20.385  -2.195  -3.181 -0.16 +0.01    +0.050 C 
DOCKED: ATOM     19  C   UNL d   1      20.144  -2.844  -4.418 -0.14 +0.01    +0.045 A 
DOCKED: ATOM     20  C   UNL d   1      17.799   0.681  -8.293 -0.28 +0.02    +0.045 A 
DOCKED: ATOM     21  C   UNL d   1      18.011   1.997  -8.201 -0.25 +0.05    +0.057 C 
DOCKED: ATOM     22  C   UNL d   1      16.957  -1.313  -9.025 -0.29 -0.01    -0.019 A 
DOCKED: ATOM     23  C   UNL d   1      17.906  -1.573  -7.924 -0.21 +0.02    +0.045 A 
DOCKED: ATOM     24  C   UNL d   1      16.899   0.023  -9.239 -0.33 -0.01    -0.022 A 
DOCKED: ATOM     25  C   UNL d   1      19.153  -3.103  -6.436 -0.17 +0.01    +0.049 A 
DOCKED: ATOM     26  C   UNL d   1      20.554  -4.071  -4.916 -0.07 -0.00    -0.018 A 
DOCKED: ATOM     27  C   UNL d   1      19.942  -4.221  -6.198 -0.08 +0.00    +0.003 A 
DOCKED: ATOM     28  C   UNL d   1      18.221  -2.793  -7.463 -0.21 +0.02    +0.052 C 
DOCKED: ATOM     29  C   UNL d   1      16.096   0.771 -10.248 -0.41 +0.02    +0.046 C 
DOCKED: ATOM     30  C   UNL d   1      21.462  -5.045  -4.245 -0.03 +0.01    +0.046 C 
DOCKED: ATOM     31  H   UNL d   1      19.080  -0.148  -6.871 +0.05 +0.06    +0.166 HD
DOCKED: ATOM     32  H   UNL d   1      18.872  -1.365  -5.231 +0.05 +0.05    +0.166 HD
DOCKED: ENDROOT
DOCKED: BRANCH   7  33
DOCKED: ATOM     33  C   UNL d   1      22.167  -0.699  -1.060 -0.03 +0.02    +0.141 C 
DOCKED: BRANCH  33  34
DOCKED: ATOM     34  C   UNL d   1      23.331   0.005  -1.703 -0.01 +0.03    +0.306 C 
DOCKED: ATOM     35  O   UNL d   1      23.815  -0.251  -2.792 -0.00 -0.03    -0.251 OA
DOCKED: BRANCH  34  36
DOCKED: ATOM     36  O   UNL d   1      23.821   0.999  -0.941 +0.00 -0.05    -0.481 OA
DOCKED: ATOM     37  H   UNL d   1      23.084   1.642  -0.870 +0.01 +0.03    +0.295 HD
DOCKED: ENDBRANCH  34  36
DOCKED: ENDBRANCH  33  34
DOCKED: ENDBRANCH   7  33
DOCKED: BRANCH  27  38
DOCKED: ATOM     38  C   UNL d   1      20.088  -5.359  -7.055 -0.04 +0.00    +0.017 C 
DOCKED: ATOM     39  C   UNL d   1      20.822  -5.393  -8.178 -0.01 +0.02    +0.092 C 
DOCKED: BRANCH  39  40
DOCKED: ATOM     40  C   UNL d   1      20.904  -6.630  -8.959 +0.00 +0.05    +0.330 C 
DOCKED: ATOM     41  O   UNL d   1      21.689  -7.548  -8.818 +0.00 -0.03    -0.246 OA
DOCKED: BRANCH  40  42
DOCKED: ATOM     42  O   UNL d   1      19.950  -6.644  -9.902 +0.01 -0.10    -0.477 OA
DOCKED: ATOM     43  H   UNL d   1      19.162  -6.990  -9.434 +0.02 +0.07    +0.295 HD
DOCKED: ENDBRANCH  40  42
DOCKED: ENDBRANCH  39  40
DOCKED: ENDBRANCH  27  38
DOCKED: BRANCH   8  44
DOCKED: ATOM     44  C   UNL d   1      19.634   5.385  -5.198 -0.14 +0.08    +0.141 C 
DOCKED: BRANCH  44  45
DOCKED: ATOM     45  C   UNL d   1      18.295   5.064  -4.589 -0.14 +0.21    +0.306 C 
DOCKED: ATOM     46  O   UNL d   1      17.202   5.261  -5.091 -0.50 -0.32    -0.251 OA
DOCKED: BRANCH  45  47
DOCKED: ATOM     47  O   UNL d   1      18.403   4.532  -3.358 -0.10 -0.16    -0.481 OA
DOCKED: ATOM     48  H   UNL d   1      17.586   4.812  -2.894 -0.15 +0.03    +0.295 HD
DOCKED: ENDBRANCH  45  47
DOCKED: ENDBRANCH  44  45
DOCKED: ENDBRANCH   8  44
DOCKED: BRANCH  22  49
DOCKED: ATOM     49  C   UNL d   1      16.192  -2.382  -9.747 -0.38 +0.02    +0.048 C 
DOCKED: BRANCH  49  50
DOCKED: ATOM     50  C   UNL d   1      17.121  -3.424 -10.371 -0.17 +0.05    +0.125 C 
DOCKED: BRANCH  50  51
DOCKED: ATOM     51  C   UNL d   1      16.738  -4.811  -9.939 -0.13 +0.15    +0.305 C 
DOCKED: ATOM     52  O   UNL d   1      15.687  -5.391 -10.150 -0.49 -0.22    -0.251 OA
DOCKED: BRANCH  51  53
DOCKED: ATOM     53  O   UNL d   1      17.719  -5.409  -9.235 -0.01 -0.18    -0.481 OA
DOCKED: ATOM     54  H   UNL d   1      18.487  -5.403  -9.844 +0.05 +0.09    +0.295 HD
DOCKED: ENDBRANCH  51  53
DOCKED: ENDBRANCH  50  51
DOCKED: ENDBRANCH  49  50
DOCKED: ENDBRANCH  22  49
DOCKED: TORSDOF 13
DOCKED: TER
DOCKED: ENDMDL
________________________________________________________________________________


	BEGINNING GENETIC ALGORITHM DOCKING 41 of 100
Run: 41 Seed: 1310816890 2021450414 [ Run 41 of 100 GA/GALS ]
Beginning LAMARCKIAN GENETIC ALGORITHM (LGA), with a maximum of 25000000 energy evaluations.

Final-Value: -12.988


	FINAL GENETIC ALGORITHM DOCKED STATE
	_______________________________________________


Detailed state:  trans 0.286 -8.769 10.047 quatxyzw 0.001012 0.857427 0.387198 0.338963 center 0.153 0.018 -0.028 ntor 13 172.9582 -159.5487 -159.3233 51.1525 -152.9793 50.2291 139.1273 98.3408 52.7930 -4.0650 -50.7768 -107.7025 1.9799
State:	  0.286  -8.769  10.047   0.001  0.911  0.412 140.373    172.96 -159.55 -159.32   51.15 -152.98   50.23  139.13   98.34   52.79   -4.07  -50.78 -107.70    1.98

DOCKED: MODEL       41
DOCKED: USER    Run = 41
DOCKED: USER    DPF = D:/Protein_go_brrr/autodock/final/AncB/heme/dock.dpf
DOCKED: USER  
DOCKED: USER    Estimated Free Energy of Binding    =   -5.24 kcal/mol  [=(1)+(2)+(3)-(4)]
DOCKED: USER    Estimated Inhibition Constant, Ki   =  143.39 uM (micromolar)  [Temperature = 298.15 K]
DOCKED: USER    
DOCKED: USER    (1) Final Intermolecular Energy     =   -9.12 kcal/mol
DOCKED: USER        vdW + Hbond + desolv Energy     =   -8.79 kcal/mol
DOCKED: USER        Electrostatic Energy            =   -0.33 kcal/mol
DOCKED: USER    (2) Final Total Internal Energy     =   -3.87 kcal/mol
DOCKED: USER    (3) Torsional Free Energy           =   +3.88 kcal/mol
DOCKED: USER    (4) Unbound System's Energy  [=(2)] =   -3.87 kcal/mol
DOCKED: USER    
DOCKED: USER    
DOCKED: USER    NEWDPF move heme_opt.pdbqt
DOCKED: USER    NEWDPF about 0.153000 0.018000 -0.028000
DOCKED: USER    NEWDPF tran0 0.286226 -8.769038 10.047444
DOCKED: USER    NEWDPF quaternion0 0.001012 0.857427 0.387198 0.338963
DOCKED: USER    NEWDPF axisangle0 0.001076 0.911381 0.411563 140.372598
DOCKED: USER    NEWDPF quat0 0.001076 0.911381 0.411563 140.372598
DOCKED: USER    NEWDPF dihe0 172.96 -159.55 -159.32 51.15 -152.98 50.23 139.13 98.34 52.79 -4.07 -50.78 -107.70 1.98 
DOCKED: USER  keepresnum = 1 
DOCKED: USER  
DOCKED: REMARK  13 active torsions:
DOCKED: REMARK  status: ('A' for Active; 'I' for Inactive)
DOCKED: REMARK    1  A    between atoms: O_3  and  C_38 
DOCKED: REMARK    2  A    between atoms: O_4  and  C_40 
DOCKED: REMARK    3  A    between atoms: O_7  and  C_46 
DOCKED: REMARK    4  A    between atoms: O_9  and  C_48 
DOCKED: REMARK    5  A    between atoms: C_15  and  C_20 
DOCKED: REMARK    6  A    between atoms: C_16  and  C_23 
DOCKED: REMARK    7  A    between atoms: C_20  and  C_38 
DOCKED: REMARK    8  A    between atoms: C_23  and  C_40 
DOCKED: REMARK    9  A    between atoms: C_32  and  C_41 
DOCKED: REMARK   10  A    between atoms: C_37  and  C_45 
DOCKED: REMARK   11  A    between atoms: C_41  and  C_44 
DOCKED: REMARK   12  A    between atoms: C_44  and  C_46 
DOCKED: REMARK   13  A    between atoms: C_47  and  C_48 
DOCKED: USER                              x       y       z     vdW  Elec       q    Type
DOCKED: USER                           _______ _______ _______ _____ _____    ______ ____
DOCKED: ROOT
DOCKED: ATOM      1  O   UNL d   1       4.678  -5.693   7.597 -0.71 +0.01    -0.289 OA
DOCKED: ATOM      2  O   UNL d   1       1.969 -12.519   6.029 -0.03 -0.04    -0.289 OA
DOCKED: ATOM      3  N   UNL d   1       2.143  -7.160   9.419 -0.08 -0.01    -0.247 NA
DOCKED: ATOM      4  N   UNL d   1       1.563  -9.648   7.900 +0.02 -0.04    -0.247 NA
DOCKED: ATOM      5  N   UNL d   1      -0.855  -9.909   9.433 +0.05 -0.07    -0.354 N 
DOCKED: ATOM      6  N   UNL d   1      -0.255  -7.317  10.990 -0.16 -0.03    -0.354 N 
DOCKED: ATOM      7  C   UNL d   1       3.210  -4.954   9.407 -0.28 -0.01    +0.084 A 
DOCKED: ATOM      8  C   UNL d   1       3.376 -10.587   6.558 -0.09 +0.01    +0.084 A 
DOCKED: ATOM      9  C   UNL d   1       2.848  -9.455   7.445 -0.14 +0.01    +0.058 A 
DOCKED: ATOM     10  C   UNL d   1       2.158  -5.900   9.993 -0.27 -0.00    +0.058 A 
DOCKED: ATOM     11  C   UNL d   1       3.800  -5.908   8.412 -0.18 -0.02    +0.193 A 
DOCKED: ATOM     12  C   UNL d   1       3.086  -7.218   8.535 -0.15 +0.01    +0.109 A 
DOCKED: ATOM     13  C   UNL d   1       2.139 -11.439   6.562 -0.06 +0.02    +0.193 A 
DOCKED: ATOM     14  C   UNL d   1       2.574  -3.783   8.653 -0.51 -0.01    +0.026 C 
DOCKED: ATOM     15  C   UNL d   1       3.561  -8.349   7.712 -0.16 +0.01    +0.055 C 
DOCKED: ATOM     16  C   UNL d   1       4.510 -11.360   7.237 -0.07 +0.00    +0.026 C 
DOCKED: ATOM     17  C   UNL d   1       1.112 -10.755   7.405 -0.13 +0.02    +0.109 A 
DOCKED: ATOM     18  C   UNL d   1       1.391  -5.538  11.038 -0.05 +0.00    +0.050 C 
DOCKED: ATOM     19  C   UNL d   1       0.453  -6.372  11.698 -0.29 +0.00    +0.045 A 
DOCKED: ATOM     20  C   UNL d   1      -1.067 -10.883   8.492 -0.19 +0.01    +0.045 A 
DOCKED: ATOM     21  C   UNL d   1      -0.227 -11.342   7.559 -0.21 +0.01    +0.057 C 
DOCKED: ATOM     22  C   UNL d   1      -2.962 -10.642   9.744 -0.26 -0.01    -0.019 A 
DOCKED: ATOM     23  C   UNL d   1      -1.944  -9.693  10.236 -0.27 +0.01    +0.045 A 
DOCKED: ATOM     24  C   UNL d   1      -2.436 -11.345   8.713 -0.22 -0.01    -0.022 A 
DOCKED: ATOM     25  C   UNL d   1      -1.168  -7.947  11.804 -0.26 +0.01    +0.049 A 
DOCKED: ATOM     26  C   UNL d   1       0.016  -6.415  13.013 -0.29 -0.00    -0.018 A 
DOCKED: ATOM     27  C   UNL d   1      -0.993  -7.424  13.078 -0.25 +0.00    +0.003 A 
DOCKED: ATOM     28  C   UNL d   1      -2.122  -8.852  11.266 -0.31 +0.01    +0.052 C 
DOCKED: ATOM     29  C   UNL d   1      -3.069 -12.423   7.900 -0.20 +0.02    +0.046 C 
DOCKED: ATOM     30  C   UNL d   1       0.506  -5.572  14.141 -0.31 -0.00    +0.046 C 
DOCKED: ATOM     31  H   UNL d   1       0.054  -9.473   9.545 +0.06 +0.03    +0.166 HD
DOCKED: ATOM     32  H   UNL d   1      -0.134  -7.481   9.998 +0.14 +0.02    +0.166 HD
DOCKED: ENDROOT
DOCKED: BRANCH   7  33
DOCKED: ATOM     33  C   UNL d   1       4.282  -4.472  10.391 -0.21 -0.03    +0.141 C 
DOCKED: BRANCH  33  34
DOCKED: ATOM     34  C   UNL d   1       5.576  -5.227  10.252 -0.09 -0.05    +0.306 C 
DOCKED: ATOM     35  O   UNL d   1       5.948  -6.155  10.950 -0.03 +0.01    -0.251 OA
DOCKED: BRANCH  34  36
DOCKED: ATOM     36  O   UNL d   1       6.335  -4.772   9.239 -0.13 +0.22    -0.481 OA
DOCKED: ATOM     37  H   UNL d   1       5.752  -4.151   8.753 -0.39 -0.39    +0.295 HD
DOCKED: ENDBRANCH  34  36
DOCKED: ENDBRANCH  33  34
DOCKED: ENDBRANCH   7  33
DOCKED: BRANCH  27  38
DOCKED: ATOM     38  C   UNL d   1      -1.724  -7.785  14.256 -0.21 +0.00    +0.017 C 
DOCKED: ATOM     39  C   UNL d   1      -3.020  -7.519  14.475 -0.15 +0.02    +0.092 C 
DOCKED: BRANCH  39  40
DOCKED: ATOM     40  C   UNL d   1      -3.656  -7.960  15.719 -0.11 +0.05    +0.330 C 
DOCKED: ATOM     41  O   UNL d   1      -3.243  -7.822  16.855 -0.05 -0.01    -0.246 OA
DOCKED: BRANCH  40  42
DOCKED: ATOM     42  O   UNL d   1      -4.824  -8.565  15.452 -0.22 -0.24    -0.477 OA
DOCKED: ATOM     43  H   UNL d   1      -4.744  -8.822  14.510 +0.10 +0.21    +0.295 HD
DOCKED: ENDBRANCH  40  42
DOCKED: ENDBRANCH  39  40
DOCKED: ENDBRANCH  27  38
DOCKED: BRANCH   8  44
DOCKED: ATOM     44  C   UNL d   1       3.758 -10.182   5.130 -0.15 +0.01    +0.141 C 
DOCKED: BRANCH  44  45
DOCKED: ATOM     45  C   UNL d   1       2.653  -9.470   4.397 -0.20 +0.03    +0.306 C 
DOCKED: ATOM     46  O   UNL d   1       2.501  -8.264   4.306 -0.26 -0.04    -0.251 OA
DOCKED: BRANCH  45  47
DOCKED: ATOM     47  O   UNL d   1       1.774 -10.322   3.837 -0.14 -0.06    -0.481 OA
DOCKED: ATOM     48  H   UNL d   1       1.905 -11.166   4.320 +0.13 +0.04    +0.295 HD
DOCKED: ENDBRANCH  45  47
DOCKED: ENDBRANCH  44  45
DOCKED: ENDBRANCH   8  44
DOCKED: BRANCH  22  49
DOCKED: ATOM     49  C   UNL d   1      -4.345 -10.763  10.313 -0.32 +0.02    +0.048 C 
DOCKED: BRANCH  49  50
DOCKED: ATOM     50  C   UNL d   1      -4.367 -11.622  11.578 -0.17 +0.05    +0.125 C 
DOCKED: BRANCH  50  51
DOCKED: ATOM     51  C   UNL d   1      -5.098 -10.922  12.688 -0.12 +0.17    +0.305 C 
DOCKED: ATOM     52  O   UNL d   1      -6.280 -11.008  12.970 -0.22 -0.19    -0.251 OA
DOCKED: BRANCH  51  53
DOCKED: ATOM     53  O   UNL d   1      -4.283 -10.117  13.400 -0.07 -0.24    -0.481 OA
DOCKED: ATOM     54  H   UNL d   1      -4.447 -10.376  14.331 +0.07 +0.13    +0.295 HD
DOCKED: ENDBRANCH  51  53
DOCKED: ENDBRANCH  50  51
DOCKED: ENDBRANCH  49  50
DOCKED: ENDBRANCH  22  49
DOCKED: TORSDOF 13
DOCKED: TER
DOCKED: ENDMDL
________________________________________________________________________________


	BEGINNING GENETIC ALGORITHM DOCKING 42 of 100
Run: 42 Seed: 1506037701 1271027858 [ Run 42 of 100 GA/GALS ]
Beginning LAMARCKIAN GENETIC ALGORITHM (LGA), with a maximum of 25000000 energy evaluations.

Final-Value: -10.785


	FINAL GENETIC ALGORITHM DOCKED STATE
	_______________________________________________


Detailed state:  trans 8.972 18.004 -8.778 quatxyzw 0.782545 -0.179329 -0.085102 0.590103 center 0.153 0.018 -0.028 ntor 13 119.8367 164.7351 -147.1455 15.4055 -131.1859 39.1280 131.1710 38.3330 35.9607 -11.6736 -68.5482 -79.9412 1.9596
State:	  8.972  18.004  -8.778   0.969 -0.222 -0.105 107.671    119.84  164.74 -147.15   15.41 -131.19   39.13  131.17   38.33   35.96  -11.67  -68.55  -79.94    1.96

DOCKED: MODEL       42
DOCKED: USER    Run = 42
DOCKED: USER    DPF = D:/Protein_go_brrr/autodock/final/AncB/heme/dock.dpf
DOCKED: USER  
DOCKED: USER    Estimated Free Energy of Binding    =   -2.11 kcal/mol  [=(1)+(2)+(3)-(4)]
DOCKED: USER    Estimated Inhibition Constant, Ki   =   28.40 mM (millimolar)  [Temperature = 298.15 K]
DOCKED: USER    
DOCKED: USER    (1) Final Intermolecular Energy     =   -5.99 kcal/mol
DOCKED: USER        vdW + Hbond + desolv Energy     =   -5.90 kcal/mol
DOCKED: USER        Electrostatic Energy            =   -0.09 kcal/mol
DOCKED: USER    (2) Final Total Internal Energy     =   -4.80 kcal/mol
DOCKED: USER    (3) Torsional Free Energy           =   +3.88 kcal/mol
DOCKED: USER    (4) Unbound System's Energy  [=(2)] =   -4.80 kcal/mol
DOCKED: USER    
DOCKED: USER    
DOCKED: USER    NEWDPF move heme_opt.pdbqt
DOCKED: USER    NEWDPF about 0.153000 0.018000 -0.028000
DOCKED: USER    NEWDPF tran0 8.971758 18.004279 -8.777961
DOCKED: USER    NEWDPF quaternion0 0.782545 -0.179329 -0.085102 0.590103
DOCKED: USER    NEWDPF axisangle0 0.969303 -0.222127 -0.105412 107.671405
DOCKED: USER    NEWDPF quat0 0.969303 -0.222127 -0.105412 107.671405
DOCKED: USER    NEWDPF dihe0 119.84 164.74 -147.15 15.41 -131.19 39.13 131.17 38.33 35.96 -11.67 -68.55 -79.94 1.96 
DOCKED: USER  keepresnum = 1 
DOCKED: USER  
DOCKED: REMARK  13 active torsions:
DOCKED: REMARK  status: ('A' for Active; 'I' for Inactive)
DOCKED: REMARK    1  A    between atoms: O_3  and  C_38 
DOCKED: REMARK    2  A    between atoms: O_4  and  C_40 
DOCKED: REMARK    3  A    between atoms: O_7  and  C_46 
DOCKED: REMARK    4  A    between atoms: O_9  and  C_48 
DOCKED: REMARK    5  A    between atoms: C_15  and  C_20 
DOCKED: REMARK    6  A    between atoms: C_16  and  C_23 
DOCKED: REMARK    7  A    between atoms: C_20  and  C_38 
DOCKED: REMARK    8  A    between atoms: C_23  and  C_40 
DOCKED: REMARK    9  A    between atoms: C_32  and  C_41 
DOCKED: REMARK   10  A    between atoms: C_37  and  C_45 
DOCKED: REMARK   11  A    between atoms: C_41  and  C_44 
DOCKED: REMARK   12  A    between atoms: C_44  and  C_46 
DOCKED: REMARK   13  A    between atoms: C_47  and  C_48 
DOCKED: USER                              x       y       z     vdW  Elec       q    Type
DOCKED: USER                           _______ _______ _______ _____ _____    ______ ____
DOCKED: ROOT
DOCKED: ATOM      1  O   UNL d   1       3.210  19.230  -8.539 -0.02 -0.08    -0.289 OA
DOCKED: ATOM      2  O   UNL d   1       8.247  18.136  -3.078 -0.09 -0.01    -0.289 OA
DOCKED: ATOM      3  N   UNL d   1       6.496  18.390  -9.168 -0.06 -0.02    -0.247 NA
DOCKED: ATOM      4  N   UNL d   1       7.750  18.472  -6.476 -0.10 -0.02    -0.247 NA
DOCKED: ATOM      5  N   UNL d   1      10.316  18.402  -7.771 -0.12 -0.03    -0.354 N 
DOCKED: ATOM      6  N   UNL d   1       9.007  18.337 -10.561 -0.07 -0.02    -0.354 N 
DOCKED: ATOM      7  C   UNL d   1       4.576  19.022 -10.555 -0.09 +0.01    +0.084 A 
DOCKED: ATOM      8  C   UNL d   1       6.294  18.079  -4.553 -0.15 +0.00    +0.084 A 
DOCKED: ATOM      9  C   UNL d   1       6.450  18.280  -6.064 -0.16 +0.00    +0.058 A 
DOCKED: ATOM     10  C   UNL d   1       6.051  18.622 -10.459 -0.09 +0.00    +0.058 A 
DOCKED: ATOM     11  C   UNL d   1       4.260  18.958  -9.091 -0.06 +0.03    +0.193 A 
DOCKED: ATOM     12  C   UNL d   1       5.498  18.539  -8.359 -0.13 +0.01    +0.109 A 
DOCKED: ATOM     13  C   UNL d   1       7.742  18.229  -4.179 -0.13 +0.01    +0.193 A 
DOCKED: ATOM     14  C   UNL d   1       4.402  20.465 -11.037 -0.03 +0.00    +0.026 C 
DOCKED: ATOM     15  C   UNL d   1       5.403  18.318  -6.902 -0.17 +0.01    +0.055 C 
DOCKED: ATOM     16  C   UNL d   1       5.843  16.655  -4.213 -0.25 -0.00    +0.026 C 
DOCKED: ATOM     17  C   UNL d   1       8.517  18.471  -5.434 -0.18 +0.01    +0.109 A 
DOCKED: ATOM     18  C   UNL d   1       6.801  18.431 -11.561 -0.11 -0.00    +0.050 C 
DOCKED: ATOM     19  C   UNL d   1       8.145  17.980 -11.573 +0.04 -0.00    +0.045 A 
DOCKED: ATOM     20  C   UNL d   1      10.708  18.674  -6.485 -0.21 +0.00    +0.045 A 
DOCKED: ATOM     21  C   UNL d   1       9.968  18.701  -5.372 -0.22 +0.00    +0.057 C 
DOCKED: ATOM     22  C   UNL d   1      12.529  18.811  -7.857 -0.17 -0.00    -0.019 A 
DOCKED: ATOM     23  C   UNL d   1      11.347  18.462  -8.670 -0.20 +0.00    +0.045 A 
DOCKED: ATOM     24  C   UNL d   1      12.144  18.934  -6.565 -0.14 -0.00    -0.022 A 
DOCKED: ATOM     25  C   UNL d   1      10.275  17.870 -10.818 -0.17 +0.00    +0.049 A 
DOCKED: ATOM     26  C   UNL d   1       8.863  17.230 -12.493 -0.17 -0.00    -0.018 A 
DOCKED: ATOM     27  C   UNL d   1      10.202  17.148 -12.001 -0.18 +0.00    +0.003 A 
DOCKED: ATOM     28  C   UNL d   1      11.371  18.246  -9.994 -0.19 +0.01    +0.052 C 
DOCKED: ATOM     29  C   UNL d   1      12.976  19.262  -5.371 +0.01 +0.01    +0.046 C 
DOCKED: ATOM     30  C   UNL d   1       8.339  16.625 -13.751 -0.20 +0.01    +0.046 C 
DOCKED: ATOM     31  H   UNL d   1       9.367  18.112  -7.981 +0.05 +0.03    +0.166 HD
DOCKED: ATOM     32  H   UNL d   1       8.733  18.903  -9.766 +0.03 +0.02    +0.166 HD
DOCKED: ENDROOT
DOCKED: BRANCH   7  33
DOCKED: ATOM     33  C   UNL d   1       3.683  18.056 -11.341 -0.17 +0.02    +0.141 C 
DOCKED: BRANCH  33  34
DOCKED: ATOM     34  C   UNL d   1       3.202  16.902 -10.504 -0.20 +0.07    +0.306 C 
DOCKED: ATOM     35  O   UNL d   1       3.854  15.923 -10.184 -0.36 -0.04    -0.251 OA
DOCKED: BRANCH  34  36
DOCKED: ATOM     36  O   UNL d   1       1.923  17.043 -10.111 -0.07 -0.18    -0.481 OA
DOCKED: ATOM     37  H   UNL d   1       1.925  17.848  -9.551 +0.08 +0.13    +0.295 HD
DOCKED: ENDBRANCH  34  36
DOCKED: ENDBRANCH  33  34
DOCKED: ENDBRANCH   7  33
DOCKED: BRANCH  27  38
DOCKED: ATOM     38  C   UNL d   1      11.282  16.473 -12.656 -0.18 +0.00    +0.017 C 
DOCKED: ATOM     39  C   UNL d   1      12.530  16.949 -12.782 -0.10 +0.02    +0.092 C 
DOCKED: BRANCH  39  40
DOCKED: ATOM     40  C   UNL d   1      13.551  16.148 -13.463 -0.02 +0.11    +0.330 C 
DOCKED: ATOM     41  O   UNL d   1      13.408  15.432 -14.435 -0.65 -0.11    -0.246 OA
DOCKED: BRANCH  40  42
DOCKED: ATOM     42  O   UNL d   1      14.740  16.310 -12.862 -0.20 -0.16    -0.477 OA
DOCKED: ATOM     43  H   UNL d   1      14.616  17.106 -12.305 +0.06 +0.07    +0.295 HD
DOCKED: ENDBRANCH  40  42
DOCKED: ENDBRANCH  39  40
DOCKED: ENDBRANCH  27  38
DOCKED: BRANCH   8  44
DOCKED: ATOM     44  C   UNL d   1       5.431  19.121  -3.833 -0.04 +0.00    +0.141 C 
DOCKED: BRANCH  44  45
DOCKED: ATOM     45  C   UNL d   1       5.977  20.520  -3.938 -0.00 +0.01    +0.306 C 
DOCKED: ATOM     46  O   UNL d   1       5.765  21.317  -4.835 -0.00 -0.01    -0.251 OA
DOCKED: BRANCH  45  47
DOCKED: ATOM     47  O   UNL d   1       6.790  20.833  -2.913 +0.01 -0.00    -0.481 OA
DOCKED: ATOM     48  H   UNL d   1       7.220  19.986  -2.669 +0.02 +0.00    +0.295 HD
DOCKED: ENDBRANCH  45  47
DOCKED: ENDBRANCH  44  45
DOCKED: ENDBRANCH   8  44
DOCKED: BRANCH  22  49
DOCKED: ATOM     49  C   UNL d   1      13.908  19.006  -8.416 -0.13 +0.01    +0.048 C 
DOCKED: BRANCH  49  50
DOCKED: ATOM     50  C   UNL d   1      14.629  17.674  -8.627 -0.14 +0.02    +0.125 C 
DOCKED: BRANCH  50  51
DOCKED: ATOM     51  C   UNL d   1      14.830  17.399 -10.090 -0.11 +0.06    +0.305 C 
DOCKED: ATOM     52  O   UNL d   1      15.010  18.210 -10.981 -0.03 -0.04    -0.251 OA
DOCKED: BRANCH  51  53
DOCKED: ATOM     53  O   UNL d   1      14.780  16.080 -10.366 -0.04 -0.12    -0.481 OA
DOCKED: ATOM     54  H   UNL d   1      15.160  16.011 -11.267 +0.10 +0.08    +0.295 HD
DOCKED: ENDBRANCH  51  53
DOCKED: ENDBRANCH  50  51
DOCKED: ENDBRANCH  49  50
DOCKED: ENDBRANCH  22  49
DOCKED: TORSDOF 13
DOCKED: TER
DOCKED: ENDMDL
________________________________________________________________________________


	BEGINNING GENETIC ALGORITHM DOCKING 43 of 100
Run: 43 Seed: 102664336 866600552 [ Run 43 of 100 GA/GALS ]
Beginning LAMARCKIAN GENETIC ALGORITHM (LGA), with a maximum of 25000000 energy evaluations.

Final-Value: -13.351


	FINAL GENETIC ALGORITHM DOCKED STATE
	_______________________________________________


Detailed state:  trans 0.212 -8.610 10.306 quatxyzw -0.038488 -0.858708 -0.375806 -0.346279 center 0.153 0.018 -0.028 ntor 13 177.1497 173.0061 -125.0370 -44.2575 -158.2095 97.6731 122.2937 -77.6823 56.3300 -29.1354 -100.7671 -88.6297 -5.8537
State:	  0.212  -8.610  10.306  -0.041 -0.915 -0.401 -139.480    177.15  173.01 -125.04  -44.26 -158.21   97.67  122.29  -77.68   56.33  -29.14 -100.77  -88.63   -5.85

DOCKED: MODEL       43
DOCKED: USER    Run = 43
DOCKED: USER    DPF = D:/Protein_go_brrr/autodock/final/AncB/heme/dock.dpf
DOCKED: USER  
DOCKED: USER    Estimated Free Energy of Binding    =   -4.97 kcal/mol  [=(1)+(2)+(3)-(4)]
DOCKED: USER    Estimated Inhibition Constant, Ki   =  228.52 uM (micromolar)  [Temperature = 298.15 K]
DOCKED: USER    
DOCKED: USER    (1) Final Intermolecular Energy     =   -8.85 kcal/mol
DOCKED: USER        vdW + Hbond + desolv Energy     =   -8.48 kcal/mol
DOCKED: USER        Electrostatic Energy            =   -0.37 kcal/mol
DOCKED: USER    (2) Final Total Internal Energy     =   -4.51 kcal/mol
DOCKED: USER    (3) Torsional Free Energy           =   +3.88 kcal/mol
DOCKED: USER    (4) Unbound System's Energy  [=(2)] =   -4.51 kcal/mol
DOCKED: USER    
DOCKED: USER    
DOCKED: USER    NEWDPF move heme_opt.pdbqt
DOCKED: USER    NEWDPF about 0.153000 0.018000 -0.028000
DOCKED: USER    NEWDPF tran0 0.211897 -8.609599 10.306440
DOCKED: USER    NEWDPF quaternion0 -0.038488 -0.858708 -0.375806 -0.346279
DOCKED: USER    NEWDPF axisangle0 -0.041026 -0.915339 -0.400590 -139.480241
DOCKED: USER    NEWDPF quat0 -0.041026 -0.915339 -0.400590 -139.480241
DOCKED: USER    NEWDPF dihe0 177.15 173.01 -125.04 -44.26 -158.21 97.67 122.29 -77.68 56.33 -29.14 -100.77 -88.63 -5.85 
DOCKED: USER  keepresnum = 1 
DOCKED: USER  
DOCKED: REMARK  13 active torsions:
DOCKED: REMARK  status: ('A' for Active; 'I' for Inactive)
DOCKED: REMARK    1  A    between atoms: O_3  and  C_38 
DOCKED: REMARK    2  A    between atoms: O_4  and  C_40 
DOCKED: REMARK    3  A    between atoms: O_7  and  C_46 
DOCKED: REMARK    4  A    between atoms: O_9  and  C_48 
DOCKED: REMARK    5  A    between atoms: C_15  and  C_20 
DOCKED: REMARK    6  A    between atoms: C_16  and  C_23 
DOCKED: REMARK    7  A    between atoms: C_20  and  C_38 
DOCKED: REMARK    8  A    between atoms: C_23  and  C_40 
DOCKED: REMARK    9  A    between atoms: C_32  and  C_41 
DOCKED: REMARK   10  A    between atoms: C_37  and  C_45 
DOCKED: REMARK   11  A    between atoms: C_41  and  C_44 
DOCKED: REMARK   12  A    between atoms: C_44  and  C_46 
DOCKED: REMARK   13  A    between atoms: C_47  and  C_48 
DOCKED: USER                              x       y       z     vdW  Elec       q    Type
DOCKED: USER                           _______ _______ _______ _____ _____    ______ ____
DOCKED: ROOT
DOCKED: ATOM      1  O   UNL d   1       4.645  -5.878   7.543 -0.63 -0.01    -0.289 OA
DOCKED: ATOM      2  O   UNL d   1       1.536 -12.618   6.405 -0.04 -0.04    -0.289 OA
DOCKED: ATOM      3  N   UNL d   1       2.119  -7.129   9.530 -0.09 -0.01    -0.247 NA
DOCKED: ATOM      4  N   UNL d   1       1.352  -9.648   8.154 +0.13 -0.04    -0.247 NA
DOCKED: ATOM      5  N   UNL d   1      -1.010  -9.715   9.792 -0.04 -0.07    -0.354 N 
DOCKED: ATOM      6  N   UNL d   1      -0.216  -7.091  11.201 -0.17 -0.03    -0.354 N 
DOCKED: ATOM      7  C   UNL d   1       3.293  -4.983   9.372 -0.27 -0.01    +0.084 A 
DOCKED: ATOM      8  C   UNL d   1       3.058 -10.739   6.786 -0.09 +0.01    +0.084 A 
DOCKED: ATOM      9  C   UNL d   1       2.625  -9.543   7.640 -0.13 +0.01    +0.058 A 
DOCKED: ATOM     10  C   UNL d   1       2.221  -5.847  10.043 -0.27 -0.00    +0.058 A 
DOCKED: ATOM     11  C   UNL d   1       3.792  -6.011   8.401 -0.17 -0.01    +0.193 A 
DOCKED: ATOM     12  C   UNL d   1       3.020  -7.275   8.613 -0.15 +0.01    +0.109 A 
DOCKED: ATOM     13  C   UNL d   1       1.781 -11.526   6.880 -0.07 +0.03    +0.193 A 
DOCKED: ATOM     14  C   UNL d   1       2.685  -3.817   8.590 -0.51 -0.01    +0.026 C 
DOCKED: ATOM     15  C   UNL d   1       3.403  -8.465   7.826 -0.18 +0.01    +0.055 C 
DOCKED: ATOM     16  C   UNL d   1       4.180 -11.539   7.456 -0.06 +0.00    +0.026 C 
DOCKED: ATOM     17  C   UNL d   1       0.826 -10.753   7.730 -0.11 +0.02    +0.109 A 
DOCKED: ATOM     18  C   UNL d   1       1.517  -5.399  11.099 -0.03 +0.00    +0.050 C 
DOCKED: ATOM     19  C   UNL d   1       0.567  -6.153  11.835 -0.27 +0.00    +0.045 A 
DOCKED: ATOM     20  C   UNL d   1      -1.309 -10.718   8.907 -0.19 +0.01    +0.045 A 
DOCKED: ATOM     21  C   UNL d   1      -0.533 -11.262   7.964 -0.20 +0.01    +0.057 C 
DOCKED: ATOM     22  C   UNL d   1      -3.136 -10.324  10.220 -0.28 -0.01    -0.019 A 
DOCKED: ATOM     23  C   UNL d   1      -2.052  -9.407  10.626 -0.28 +0.01    +0.045 A 
DOCKED: ATOM     24  C   UNL d   1      -2.689 -11.098   9.203 -0.23 -0.01    -0.022 A 
DOCKED: ATOM     25  C   UNL d   1      -1.124  -7.635  12.079 -0.21 +0.01    +0.049 A 
DOCKED: ATOM     26  C   UNL d   1       0.184  -6.114  13.166 -0.31 -0.00    -0.018 A 
DOCKED: ATOM     27  C   UNL d   1      -0.871  -7.066  13.319 -0.27 +0.00    +0.003 A 
DOCKED: ATOM     28  C   UNL d   1      -2.145  -8.513  11.622 -0.19 +0.01    +0.052 C 
DOCKED: ATOM     29  C   UNL d   1      -3.408 -12.177   8.467 -0.20 +0.02    +0.046 C 
DOCKED: ATOM     30  C   UNL d   1       0.762  -5.248  14.234 -0.32 -0.00    +0.046 C 
DOCKED: ATOM     31  H   UNL d   1      -0.076  -9.323   9.847 +0.06 +0.03    +0.166 HD
DOCKED: ATOM     32  H   UNL d   1      -0.146  -7.305  10.213 +0.06 +0.01    +0.166 HD
DOCKED: ENDROOT
DOCKED: BRANCH   7  33
DOCKED: ATOM     33  C   UNL d   1       4.428  -4.514  10.290 -0.21 -0.03    +0.141 C 
DOCKED: BRANCH  33  34
DOCKED: ATOM     34  C   UNL d   1       5.702  -5.285  10.075 -0.10 -0.05    +0.306 C 
DOCKED: ATOM     35  O   UNL d   1       6.147  -6.158  10.801 -0.04 +0.01    -0.251 OA
DOCKED: BRANCH  34  36
DOCKED: ATOM     36  O   UNL d   1       6.348  -4.917   8.954 -0.16 +0.19    -0.481 OA
DOCKED: ATOM     37  H   UNL d   1       5.744  -4.279   8.520 -0.40 -0.41    +0.295 HD
DOCKED: ENDBRANCH  34  36
DOCKED: ENDBRANCH  33  34
DOCKED: ENDBRANCH   7  33
DOCKED: BRANCH  27  38
DOCKED: ATOM     38  C   UNL d   1      -1.568  -7.336  14.540 -0.22 +0.00    +0.017 C 
DOCKED: ATOM     39  C   UNL d   1      -2.902  -7.332  14.687 -0.19 +0.01    +0.092 C 
DOCKED: BRANCH  39  40
DOCKED: ATOM     40  C   UNL d   1      -3.494  -7.643  15.991 -0.10 +0.02    +0.330 C 
DOCKED: ATOM     41  O   UNL d   1      -3.852  -6.861  16.850 -0.11 +0.02    -0.246 OA
DOCKED: BRANCH  40  42
DOCKED: ATOM     42  O   UNL d   1      -3.612  -8.972  16.139 -0.02 -0.08    -0.477 OA
DOCKED: ATOM     43  H   UNL d   1      -3.365  -9.329  15.262 +0.06 +0.07    +0.295 HD
DOCKED: ENDBRANCH  40  42
DOCKED: ENDBRANCH  39  40
DOCKED: ENDBRANCH  27  38
DOCKED: BRANCH   8  44
DOCKED: ATOM     44  C   UNL d   1       3.400 -10.420   5.327 -0.15 +0.01    +0.141 C 
DOCKED: BRANCH  44  45
DOCKED: ATOM     45  C   UNL d   1       2.185 -10.254   4.455 -0.20 +0.03    +0.306 C 
DOCKED: ATOM     46  O   UNL d   1       1.463  -9.274   4.392 -0.31 -0.03    -0.251 OA
DOCKED: BRANCH  45  47
DOCKED: ATOM     47  O   UNL d   1       1.925 -11.351   3.721 -0.08 -0.06    -0.481 OA
DOCKED: ATOM     48  H   UNL d   1       1.875 -12.081   4.374 +0.10 +0.04    +0.295 HD
DOCKED: ENDBRANCH  45  47
DOCKED: ENDBRANCH  44  45
DOCKED: ENDBRANCH   8  44
DOCKED: BRANCH  22  49
DOCKED: ATOM     49  C   UNL d   1      -4.498 -10.348  10.848 -0.34 +0.02    +0.048 C 
DOCKED: BRANCH  49  50
DOCKED: ATOM     50  C   UNL d   1      -4.557 -11.299  12.043 -0.19 +0.05    +0.125 C 
DOCKED: BRANCH  50  51
DOCKED: ATOM     51  C   UNL d   1      -3.976 -10.657  13.270 -0.09 +0.12    +0.305 C 
DOCKED: ATOM     52  O   UNL d   1      -2.802 -10.597  13.592 -0.06 -0.06    -0.251 OA
DOCKED: BRANCH  51  53
DOCKED: ATOM     53  O   UNL d   1      -4.928 -10.117  14.056 -0.04 -0.30    -0.481 OA
DOCKED: ATOM     54  H   UNL d   1      -4.677 -10.398  14.961 +0.06 +0.13    +0.295 HD
DOCKED: ENDBRANCH  51  53
DOCKED: ENDBRANCH  50  51
DOCKED: ENDBRANCH  49  50
DOCKED: ENDBRANCH  22  49
DOCKED: TORSDOF 13
DOCKED: TER
DOCKED: ENDMDL
________________________________________________________________________________


	BEGINNING GENETIC ALGORITHM DOCKING 44 of 100
Run: 44 Seed: 146319978 567950652 [ Run 44 of 100 GA/GALS ]
Beginning LAMARCKIAN GENETIC ALGORITHM (LGA), with a maximum of 25000000 energy evaluations.

Final-Value: -12.400


	FINAL GENETIC ALGORITHM DOCKED STATE
	_______________________________________________


Detailed state:  trans -2.586 -10.352 11.682 quatxyzw -0.861406 -0.243817 0.130919 -0.425904 center 0.153 0.018 -0.028 ntor 13 -148.9165 155.2450 -84.7491 61.9570 47.1687 -71.9486 155.5162 51.7264 143.1560 -84.0425 -92.0260 28.1507 0.0115
State:	 -2.586 -10.352  11.682  -0.952 -0.269  0.145 -129.584   -148.92  155.25  -84.75   61.96   47.17  -71.95  155.52   51.73  143.16  -84.04  -92.03   28.15    0.01

DOCKED: MODEL       44
DOCKED: USER    Run = 44
DOCKED: USER    DPF = D:/Protein_go_brrr/autodock/final/AncB/heme/dock.dpf
DOCKED: USER  
DOCKED: USER    Estimated Free Energy of Binding    =   -4.05 kcal/mol  [=(1)+(2)+(3)-(4)]
DOCKED: USER    Estimated Inhibition Constant, Ki   =    1.08 mM (millimolar)  [Temperature = 298.15 K]
DOCKED: USER    
DOCKED: USER    (1) Final Intermolecular Energy     =   -7.92 kcal/mol
DOCKED: USER        vdW + Hbond + desolv Energy     =   -7.37 kcal/mol
DOCKED: USER        Electrostatic Energy            =   -0.56 kcal/mol
DOCKED: USER    (2) Final Total Internal Energy     =   -4.48 kcal/mol
DOCKED: USER    (3) Torsional Free Energy           =   +3.88 kcal/mol
DOCKED: USER    (4) Unbound System's Energy  [=(2)] =   -4.48 kcal/mol
DOCKED: USER    
DOCKED: USER    
DOCKED: USER    NEWDPF move heme_opt.pdbqt
DOCKED: USER    NEWDPF about 0.153000 0.018000 -0.028000
DOCKED: USER    NEWDPF tran0 -2.585543 -10.351931 11.681978
DOCKED: USER    NEWDPF quaternion0 -0.861406 -0.243817 0.130919 -0.425904
DOCKED: USER    NEWDPF axisangle0 -0.952073 -0.269479 0.144699 -129.584227
DOCKED: USER    NEWDPF quat0 -0.952073 -0.269479 0.144699 -129.584227
DOCKED: USER    NEWDPF dihe0 -148.92 155.25 -84.75 61.96 47.17 -71.95 155.52 51.73 143.16 -84.04 -92.03 28.15 0.01 
DOCKED: USER  keepresnum = 1 
DOCKED: USER  
DOCKED: REMARK  13 active torsions:
DOCKED: REMARK  status: ('A' for Active; 'I' for Inactive)
DOCKED: REMARK    1  A    between atoms: O_3  and  C_38 
DOCKED: REMARK    2  A    between atoms: O_4  and  C_40 
DOCKED: REMARK    3  A    between atoms: O_7  and  C_46 
DOCKED: REMARK    4  A    between atoms: O_9  and  C_48 
DOCKED: REMARK    5  A    between atoms: C_15  and  C_20 
DOCKED: REMARK    6  A    between atoms: C_16  and  C_23 
DOCKED: REMARK    7  A    between atoms: C_20  and  C_38 
DOCKED: REMARK    8  A    between atoms: C_23  and  C_40 
DOCKED: REMARK    9  A    between atoms: C_32  and  C_41 
DOCKED: REMARK   10  A    between atoms: C_37  and  C_45 
DOCKED: REMARK   11  A    between atoms: C_41  and  C_44 
DOCKED: REMARK   12  A    between atoms: C_44  and  C_46 
DOCKED: REMARK   13  A    between atoms: C_47  and  C_48 
DOCKED: USER                              x       y       z     vdW  Elec       q    Type
DOCKED: USER                           _______ _______ _______ _____ _____    ______ ____
DOCKED: ROOT
DOCKED: ATOM      1  O   UNL d   1      -7.097 -13.776  10.044 -0.11 -0.20    -0.289 OA
DOCKED: ATOM      2  O   UNL d   1      -5.647 -10.310  16.547 -0.07 -0.10    -0.289 OA
DOCKED: ATOM      3  N   UNL d   1      -4.216 -11.960  10.591 -0.08 -0.09    -0.247 NA
DOCKED: ATOM      4  N   UNL d   1      -4.671 -10.746  13.265 -0.11 -0.12    -0.247 NA
DOCKED: ATOM      5  N   UNL d   1      -2.441  -9.006  12.752 -0.09 -0.09    -0.354 N 
DOCKED: ATOM      6  N   UNL d   1      -1.988 -10.257   9.972 -0.09 -0.08    -0.354 N 
DOCKED: ATOM      7  C   UNL d   1      -5.213 -13.077   8.651 -0.20 +0.05    +0.084 A 
DOCKED: ATOM      8  C   UNL d   1      -6.185 -11.920  14.782 -0.11 +0.04    +0.084 A 
DOCKED: ATOM      9  C   UNL d   1      -5.548 -11.800  13.394 -0.15 +0.03    +0.058 A 
DOCKED: ATOM     10  C   UNL d   1      -4.073 -12.245   9.244 -0.16 +0.02    +0.058 A 
DOCKED: ATOM     11  C   UNL d   1      -6.018 -13.228   9.907 -0.18 +0.12    +0.193 A 
DOCKED: ATOM     12  C   UNL d   1      -5.297 -12.529  11.017 -0.17 +0.05    +0.109 A 
DOCKED: ATOM     13  C   UNL d   1      -5.536 -10.716  15.406 -0.09 +0.09    +0.193 A 
DOCKED: ATOM     14  C   UNL d   1      -6.033 -12.284   7.630 -0.34 +0.02    +0.026 C 
DOCKED: ATOM     15  C   UNL d   1      -5.859 -12.622  12.380 -0.21 +0.03    +0.055 C 
DOCKED: ATOM     16  C   UNL d   1      -5.708 -13.174  15.520 -0.04 +0.01    +0.026 C 
DOCKED: ATOM     17  C   UNL d   1      -4.649 -10.089  14.380 -0.11 +0.06    +0.109 A 
DOCKED: ATOM     18  C   UNL d   1      -2.992 -11.913   8.513 -0.21 +0.02    +0.050 C 
DOCKED: ATOM     19  C   UNL d   1      -1.853 -11.220   8.997 -0.18 +0.01    +0.045 A 
DOCKED: ATOM     20  C   UNL d   1      -2.937  -8.424  13.890 -0.09 +0.01    +0.045 A 
DOCKED: ATOM     21  C   UNL d   1      -3.911  -8.857  14.696 -0.11 +0.02    +0.057 C 
DOCKED: ATOM     22  C   UNL d   1      -1.273  -7.103  13.051 -0.23 -0.00    -0.019 A 
DOCKED: ATOM     23  C   UNL d   1      -1.434  -8.280  12.174 -0.23 +0.01    +0.045 A 
DOCKED: ATOM     24  C   UNL d   1      -2.165  -7.194  14.066 -0.21 -0.00    -0.022 A 
DOCKED: ATOM     25  C   UNL d   1      -0.779  -9.653  10.225 -0.14 +0.01    +0.049 A 
DOCKED: ATOM     26  C   UNL d   1      -0.516 -11.268   8.635 -0.14 -0.00    -0.018 A 
DOCKED: ATOM     27  C   UNL d   1       0.161 -10.290   9.427 -0.07 +0.00    +0.003 A 
DOCKED: ATOM     28  C   UNL d   1      -0.694  -8.521  11.081 -0.28 +0.01    +0.052 C 
DOCKED: ATOM     29  C   UNL d   1      -2.380  -6.258  15.206 -0.30 -0.00    +0.046 C 
DOCKED: ATOM     30  C   UNL d   1       0.098 -12.168   7.616 -0.13 +0.01    +0.046 C 
DOCKED: ATOM     31  H   UNL d   1      -2.758  -9.919  12.447 +0.05 +0.05    +0.166 HD
DOCKED: ATOM     32  H   UNL d   1      -2.873 -10.014  10.400 +0.07 +0.04    +0.166 HD
DOCKED: ENDROOT
DOCKED: BRANCH   7  33
DOCKED: ATOM     33  C   UNL d   1      -4.809 -14.451   8.104 -0.10 +0.10    +0.141 C 
DOCKED: BRANCH  33  34
DOCKED: ATOM     34  C   UNL d   1      -5.908 -15.104   7.310 -0.14 +0.42    +0.306 C 
DOCKED: ATOM     35  O   UNL d   1      -5.988 -15.152   6.094 -0.56 -0.56    -0.251 OA
DOCKED: BRANCH  34  36
DOCKED: ATOM     36  O   UNL d   1      -6.848 -15.665   8.091 -0.65 -0.87    -0.481 OA
DOCKED: ATOM     37  H   UNL d   1      -6.837 -15.131   8.914 +0.08 +0.38    +0.295 HD
DOCKED: ENDBRANCH  34  36
DOCKED: ENDBRANCH  33  34
DOCKED: ENDBRANCH   7  33
DOCKED: BRANCH  27  38
DOCKED: ATOM     38  C   UNL d   1       1.561  -9.998   9.359 -0.10 +0.00    +0.017 C 
DOCKED: ATOM     39  C   UNL d   1       2.444 -10.202  10.349 -0.04 +0.01    +0.092 C 
DOCKED: BRANCH  39  40
DOCKED: ATOM     40  C   UNL d   1       3.858  -9.876  10.145 -0.01 +0.03    +0.330 C 
DOCKED: ATOM     41  O   UNL d   1       4.674 -10.487   9.481 -0.02 -0.02    -0.246 OA
DOCKED: BRANCH  40  42
DOCKED: ATOM     42  O   UNL d   1       4.172  -8.752  10.806 +0.02 -0.03    -0.477 OA
DOCKED: ATOM     43  H   UNL d   1       3.318  -8.278  10.883 +0.06 +0.02    +0.295 HD
DOCKED: ENDBRANCH  40  42
DOCKED: ENDBRANCH  39  40
DOCKED: ENDBRANCH  27  38
DOCKED: BRANCH   8  44
DOCKED: ATOM     44  C   UNL d   1      -7.712 -11.801  14.821 -0.25 +0.07    +0.141 C 
DOCKED: BRANCH  44  45
DOCKED: ATOM     45  C   UNL d   1      -8.210 -10.883  15.905 -0.16 +0.16    +0.306 C 
DOCKED: ATOM     46  O   UNL d   1      -8.747  -9.800  15.751 -0.33 -0.20    -0.251 OA
DOCKED: BRANCH  45  47
DOCKED: ATOM     47  O   UNL d   1      -7.979 -11.371  17.138 +0.01 -0.12    -0.481 OA
DOCKED: ATOM     48  H   UNL d   1      -7.129 -10.965  17.410 +0.06 +0.07    +0.295 HD
DOCKED: ENDBRANCH  45  47
DOCKED: ENDBRANCH  44  45
DOCKED: ENDBRANCH   8  44
DOCKED: BRANCH  22  49
DOCKED: ATOM     49  C   UNL d   1      -0.284  -6.001  12.809 -0.36 +0.00    +0.048 C 
DOCKED: BRANCH  49  50
DOCKED: ATOM     50  C   UNL d   1       1.103  -6.355  13.345 -0.19 +0.00    +0.125 C 
DOCKED: BRANCH  50  51
DOCKED: ATOM     51  C   UNL d   1       1.913  -7.075  12.304 -0.07 +0.01    +0.305 C 
DOCKED: ATOM     52  O   UNL d   1       2.037  -6.785  11.127 -0.13 -0.01    -0.251 OA
DOCKED: BRANCH  51  53
DOCKED: ATOM     53  O   UNL d   1       2.532  -8.161  12.808 +0.01 -0.02    -0.481 OA
DOCKED: ATOM     54  H   UNL d   1       3.485  -7.971  12.683 +0.03 +0.01    +0.295 HD
DOCKED: ENDBRANCH  51  53
DOCKED: ENDBRANCH  50  51
DOCKED: ENDBRANCH  49  50
DOCKED: ENDBRANCH  22  49
DOCKED: TORSDOF 13
DOCKED: TER
DOCKED: ENDMDL
________________________________________________________________________________


	BEGINNING GENETIC ALGORITHM DOCKING 45 of 100
Run: 45 Seed: 1206949344 1050826180 [ Run 45 of 100 GA/GALS ]
Beginning LAMARCKIAN GENETIC ALGORITHM (LGA), with a maximum of 25000000 energy evaluations.

Final-Value: -11.613


	FINAL GENETIC ALGORITHM DOCKED STATE
	_______________________________________________


Detailed state:  trans 5.857 4.256 15.206 quatxyzw 0.550551 0.682193 -0.343012 0.337416 center 0.153 0.018 -0.028 ntor 13 -180.0000 180.0000 8.0822 -92.9059 -155.3948 83.5973 -28.9296 -177.8787 6.5012 15.4288 -69.3891 -148.9592 30.8934
State:	  5.857   4.256  15.206   0.585  0.725 -0.364 140.561   -180.00  180.00    8.08  -92.91 -155.39   83.60  -28.93 -177.88    6.50   15.43  -69.39 -148.96   30.89

DOCKED: MODEL       45
DOCKED: USER    Run = 45
DOCKED: USER    DPF = D:/Protein_go_brrr/autodock/final/AncB/heme/dock.dpf
DOCKED: USER  
DOCKED: USER    Estimated Free Energy of Binding    =   -5.00 kcal/mol  [=(1)+(2)+(3)-(4)]
DOCKED: USER    Estimated Inhibition Constant, Ki   =  217.27 uM (micromolar)  [Temperature = 298.15 K]
DOCKED: USER    
DOCKED: USER    (1) Final Intermolecular Energy     =   -8.88 kcal/mol
DOCKED: USER        vdW + Hbond + desolv Energy     =   -8.71 kcal/mol
DOCKED: USER        Electrostatic Energy            =   -0.17 kcal/mol
DOCKED: USER    (2) Final Total Internal Energy     =   -2.74 kcal/mol
DOCKED: USER    (3) Torsional Free Energy           =   +3.88 kcal/mol
DOCKED: USER    (4) Unbound System's Energy  [=(2)] =   -2.74 kcal/mol
DOCKED: USER    
DOCKED: USER    
DOCKED: USER    NEWDPF move heme_opt.pdbqt
DOCKED: USER    NEWDPF about 0.153000 0.018000 -0.028000
DOCKED: USER    NEWDPF tran0 5.856559 4.256319 15.206327
DOCKED: USER    NEWDPF quaternion0 0.550551 0.682193 -0.343012 0.337416
DOCKED: USER    NEWDPF axisangle0 0.584849 0.724692 -0.364381 140.560946
DOCKED: USER    NEWDPF quat0 0.584849 0.724692 -0.364381 140.560946
DOCKED: USER    NEWDPF dihe0 -180.00 180.00 8.08 -92.91 -155.39 83.60 -28.93 -177.88 6.50 15.43 -69.39 -148.96 30.89 
DOCKED: USER  keepresnum = 1 
DOCKED: USER  
DOCKED: REMARK  13 active torsions:
DOCKED: REMARK  status: ('A' for Active; 'I' for Inactive)
DOCKED: REMARK    1  A    between atoms: O_3  and  C_38 
DOCKED: REMARK    2  A    between atoms: O_4  and  C_40 
DOCKED: REMARK    3  A    between atoms: O_7  and  C_46 
DOCKED: REMARK    4  A    between atoms: O_9  and  C_48 
DOCKED: REMARK    5  A    between atoms: C_15  and  C_20 
DOCKED: REMARK    6  A    between atoms: C_16  and  C_23 
DOCKED: REMARK    7  A    between atoms: C_20  and  C_38 
DOCKED: REMARK    8  A    between atoms: C_23  and  C_40 
DOCKED: REMARK    9  A    between atoms: C_32  and  C_41 
DOCKED: REMARK   10  A    between atoms: C_37  and  C_45 
DOCKED: REMARK   11  A    between atoms: C_41  and  C_44 
DOCKED: REMARK   12  A    between atoms: C_44  and  C_46 
DOCKED: REMARK   13  A    between atoms: C_47  and  C_48 
DOCKED: USER                              x       y       z     vdW  Elec       q    Type
DOCKED: USER                           _______ _______ _______ _____ _____    ______ ____
DOCKED: ROOT
DOCKED: ATOM      1  O   UNL d   1       7.123  -1.052  12.977 -0.13 -0.00    -0.289 OA
DOCKED: ATOM      2  O   UNL d   1       5.103   1.030  19.903 -0.04 +0.01    -0.289 OA
DOCKED: ATOM      3  N   UNL d   1       6.608   2.241  13.862 -0.20 +0.01    -0.247 NA
DOCKED: ATOM      4  N   UNL d   1       5.569   2.048  16.639 -0.36 -0.01    -0.247 NA
DOCKED: ATOM      5  N   UNL d   1       4.775   4.804  16.435 +0.02 +0.12    -0.354 N 
DOCKED: ATOM      6  N   UNL d   1       5.837   4.990  13.547 -0.11 +0.05    -0.354 N 
DOCKED: ATOM      7  C   UNL d   1       7.071   1.068  11.760 -0.17 -0.00    +0.084 A 
DOCKED: ATOM      8  C   UNL d   1       6.210   0.080  17.937 -0.05 -0.00    +0.084 A 
DOCKED: ATOM      9  C   UNL d   1       6.214   0.832  16.602 +0.08 +0.00    +0.058 A 
DOCKED: ATOM     10  C   UNL d   1       6.799   2.382  12.497 -0.21 -0.00    +0.058 A 
DOCKED: ATOM     11  C   UNL d   1       7.019   0.161  12.953 -0.11 -0.00    +0.193 A 
DOCKED: ATOM     12  C   UNL d   1       6.757   0.994  14.169 +0.00 +0.01    +0.109 A 
DOCKED: ATOM     13  C   UNL d   1       5.411   1.077  18.728 -0.06 -0.01    +0.193 A 
DOCKED: ATOM     14  C   UNL d   1       5.933   0.697  10.806 -0.37 -0.00    +0.026 C 
DOCKED: ATOM     15  C   UNL d   1       6.755   0.323  15.485 -0.05 +0.00    +0.055 C 
DOCKED: ATOM     16  C   UNL d   1       7.615  -0.014  18.540 -0.01 -0.00    +0.026 C 
DOCKED: ATOM     17  C   UNL d   1       5.078   2.219  17.824 -0.13 -0.01    +0.109 A 
DOCKED: ATOM     18  C   UNL d   1       6.838   3.567  11.859 -0.28 -0.00    +0.050 C 
DOCKED: ATOM     19  C   UNL d   1       6.683   4.837  12.472 -0.24 -0.00    +0.045 A 
DOCKED: ATOM     20  C   UNL d   1       4.157   4.467  17.612 -0.21 -0.01    +0.045 A 
DOCKED: ATOM     21  C   UNL d   1       4.258   3.336  18.317 -0.25 -0.01    +0.057 C 
DOCKED: ATOM     22  C   UNL d   1       3.501   6.570  17.009 -0.29 +0.01    -0.019 A 
DOCKED: ATOM     23  C   UNL d   1       4.440   6.055  15.992 -0.22 -0.01    +0.045 A 
DOCKED: ATOM     24  C   UNL d   1       3.339   5.626  17.966 -0.32 +0.01    -0.022 A 
DOCKED: ATOM     25  C   UNL d   1       5.769   6.311  13.924 -0.15 -0.00    +0.049 A 
DOCKED: ATOM     26  C   UNL d   1       7.205   6.083  12.165 -0.23 -0.00    -0.018 A 
DOCKED: ATOM     27  C   UNL d   1       6.640   7.008  13.097 -0.17 -0.00    +0.003 A 
DOCKED: ATOM     28  C   UNL d   1       4.841   6.741  14.911 -0.25 -0.01    +0.052 C 
DOCKED: ATOM     29  C   UNL d   1       2.503   5.681  19.199 -0.25 -0.01    +0.046 C 
DOCKED: ATOM     30  C   UNL d   1       8.172   6.400  11.074 -0.13 +0.01    +0.046 C 
DOCKED: ATOM     31  H   UNL d   1       5.465   4.194  16.010 -0.16 -0.05    +0.166 HD
DOCKED: ATOM     32  H   UNL d   1       5.315   4.228  13.963 -0.18 -0.05    +0.166 HD
DOCKED: ENDROOT
DOCKED: BRANCH   7  33
DOCKED: ATOM     33  C   UNL d   1       8.437   0.972  11.071 -0.09 -0.01    +0.141 C 
DOCKED: BRANCH  33  34
DOCKED: ATOM     34  C   UNL d   1       9.580   1.249  12.009 -0.00 -0.00    +0.306 C 
DOCKED: ATOM     35  O   UNL d   1      10.205   2.293  12.094 -0.02 -0.00    -0.251 OA
DOCKED: BRANCH  34  36
DOCKED: ATOM     36  O   UNL d   1       9.874   0.197  12.794 +0.01 +0.01    -0.481 OA
DOCKED: ATOM     37  H   UNL d   1       9.206  -0.481  12.557 +0.03 -0.01    +0.295 HD
DOCKED: ENDBRANCH  34  36
DOCKED: ENDBRANCH  33  34
DOCKED: ENDBRANCH   7  33
DOCKED: BRANCH  27  38
DOCKED: ATOM     38  C   UNL d   1       6.901   8.415  13.125 -0.20 -0.00    +0.017 C 
DOCKED: ATOM     39  C   UNL d   1       6.517   9.293  12.186 -0.28 -0.00    +0.092 C 
DOCKED: BRANCH  39  40
DOCKED: ATOM     40  C   UNL d   1       6.834  10.715  12.343 -0.14 -0.01    +0.330 C 
DOCKED: ATOM     41  O   UNL d   1       7.882  11.276  12.085 -0.08 -0.01    -0.246 OA
DOCKED: BRANCH  40  42
DOCKED: ATOM     42  O   UNL d   1       5.769  11.375  12.825 -0.13 +0.05    -0.477 OA
DOCKED: ATOM     43  H   UNL d   1       5.087  10.679  12.924 +0.06 -0.06    +0.295 HD
DOCKED: ENDBRANCH  40  42
DOCKED: ENDBRANCH  39  40
DOCKED: ENDBRANCH  27  38
DOCKED: BRANCH   8  44
DOCKED: ATOM     44  C   UNL d   1       5.520  -1.288  17.923 -0.05 -0.00    +0.141 C 
DOCKED: BRANCH  44  45
DOCKED: ATOM     45  C   UNL d   1       4.335  -1.346  16.996 -0.11 -0.02    +0.306 C 
DOCKED: ATOM     46  O   UNL d   1       3.247  -0.828  17.174 -0.20 +0.02    -0.251 OA
DOCKED: BRANCH  45  47
DOCKED: ATOM     47  O   UNL d   1       4.577  -2.084  15.897 -0.16 +0.03    -0.481 OA
DOCKED: ATOM     48  H   UNL d   1       3.789  -1.948  15.329 -0.50 -0.07    +0.295 HD
DOCKED: ENDBRANCH  45  47
DOCKED: ENDBRANCH  44  45
DOCKED: ENDBRANCH   8  44
DOCKED: BRANCH  22  49
DOCKED: ATOM     49  C   UNL d   1       2.844   7.918  16.944 -0.32 -0.02    +0.048 C 
DOCKED: BRANCH  49  50
DOCKED: ATOM     50  C   UNL d   1       3.865   9.039  16.747 -0.25 -0.03    +0.125 C 
DOCKED: BRANCH  50  51
DOCKED: ATOM     51  C   UNL d   1       3.725   9.658  15.385 -0.20 -0.08    +0.305 C 
DOCKED: ATOM     52  O   UNL d   1       4.334  10.614  14.938 -0.26 +0.05    -0.251 OA
DOCKED: BRANCH  51  53
DOCKED: ATOM     53  O   UNL d   1       2.793   9.032  14.640 -0.24 +0.15    -0.481 OA
DOCKED: ATOM     54  H   UNL d   1       1.954   9.475  14.886 -0.35 -0.17    +0.295 HD
DOCKED: ENDBRANCH  51  53
DOCKED: ENDBRANCH  50  51
DOCKED: ENDBRANCH  49  50
DOCKED: ENDBRANCH  22  49
DOCKED: TORSDOF 13
DOCKED: TER
DOCKED: ENDMDL
________________________________________________________________________________


	BEGINNING GENETIC ALGORITHM DOCKING 46 of 100
Run: 46 Seed: 1651878264 1294572524 [ Run 46 of 100 GA/GALS ]
Beginning LAMARCKIAN GENETIC ALGORITHM (LGA), with a maximum of 25000000 energy evaluations.

Final-Value: -12.799


	FINAL GENETIC ALGORITHM DOCKED STATE
	_______________________________________________


Detailed state:  trans -8.272 15.272 7.013 quatxyzw -0.396713 -0.488492 -0.618362 -0.470768 center 0.153 0.018 -0.028 ntor 13 -172.1930 56.8511 -101.8957 15.9544 -117.8996 17.6418 178.9945 -32.3039 5.5054 16.1866 55.7262 -101.9604 129.4173
State:	 -8.272  15.272   7.013  -0.450 -0.554 -0.701 -123.832   -172.19   56.85 -101.90   15.95 -117.90   17.64  178.99  -32.30    5.51   16.19   55.73 -101.96  129.42

DOCKED: MODEL       46
DOCKED: USER    Run = 46
DOCKED: USER    DPF = D:/Protein_go_brrr/autodock/final/AncB/heme/dock.dpf
DOCKED: USER  
DOCKED: USER    Estimated Free Energy of Binding    =   -6.32 kcal/mol  [=(1)+(2)+(3)-(4)]
DOCKED: USER    Estimated Inhibition Constant, Ki   =   23.26 uM (micromolar)  [Temperature = 298.15 K]
DOCKED: USER    
DOCKED: USER    (1) Final Intermolecular Energy     =  -10.20 kcal/mol
DOCKED: USER        vdW + Hbond + desolv Energy     =   -9.31 kcal/mol
DOCKED: USER        Electrostatic Energy            =   -0.89 kcal/mol
DOCKED: USER    (2) Final Total Internal Energy     =   -2.60 kcal/mol
DOCKED: USER    (3) Torsional Free Energy           =   +3.88 kcal/mol
DOCKED: USER    (4) Unbound System's Energy  [=(2)] =   -2.60 kcal/mol
DOCKED: USER    
DOCKED: USER    
DOCKED: USER    NEWDPF move heme_opt.pdbqt
DOCKED: USER    NEWDPF about 0.153000 0.018000 -0.028000
DOCKED: USER    NEWDPF tran0 -8.272090 15.272459 7.012916
DOCKED: USER    NEWDPF quaternion0 -0.396713 -0.488492 -0.618362 -0.470768
DOCKED: USER    NEWDPF axisangle0 -0.449657 -0.553684 -0.700887 -123.831671
DOCKED: USER    NEWDPF quat0 -0.449657 -0.553684 -0.700887 -123.831671
DOCKED: USER    NEWDPF dihe0 -172.19 56.85 -101.90 15.95 -117.90 17.64 178.99 -32.30 5.51 16.19 55.73 -101.96 129.42 
DOCKED: USER  keepresnum = 1 
DOCKED: USER  
DOCKED: REMARK  13 active torsions:
DOCKED: REMARK  status: ('A' for Active; 'I' for Inactive)
DOCKED: REMARK    1  A    between atoms: O_3  and  C_38 
DOCKED: REMARK    2  A    between atoms: O_4  and  C_40 
DOCKED: REMARK    3  A    between atoms: O_7  and  C_46 
DOCKED: REMARK    4  A    between atoms: O_9  and  C_48 
DOCKED: REMARK    5  A    between atoms: C_15  and  C_20 
DOCKED: REMARK    6  A    between atoms: C_16  and  C_23 
DOCKED: REMARK    7  A    between atoms: C_20  and  C_38 
DOCKED: REMARK    8  A    between atoms: C_23  and  C_40 
DOCKED: REMARK    9  A    between atoms: C_32  and  C_41 
DOCKED: REMARK   10  A    between atoms: C_37  and  C_45 
DOCKED: REMARK   11  A    between atoms: C_41  and  C_44 
DOCKED: REMARK   12  A    between atoms: C_44  and  C_46 
DOCKED: REMARK   13  A    between atoms: C_47  and  C_48 
DOCKED: USER                              x       y       z     vdW  Elec       q    Type
DOCKED: USER                           _______ _______ _______ _____ _____    ______ ____
DOCKED: ROOT
DOCKED: ATOM      1  O   UNL d   1      -5.256  16.864   2.204 +0.03 +0.27    -0.289 OA
DOCKED: ATOM      2  O   UNL d   1     -12.377  14.631   3.041 -0.04 +0.04    -0.289 OA
DOCKED: ATOM      3  N   UNL d   1      -6.563  15.889   5.243 -0.11 +0.11    -0.247 NA
DOCKED: ATOM      4  N   UNL d   1      -9.447  15.490   4.650 -0.15 +0.07    -0.247 NA
DOCKED: ATOM      5  N   UNL d   1      -9.926  15.423   7.484 -0.14 +0.02    -0.354 N 
DOCKED: ATOM      6  N   UNL d   1      -6.935  15.856   8.090 -0.11 +0.06    -0.354 N 
DOCKED: ATOM      7  C   UNL d   1      -4.433  16.852   4.505 -0.15 -0.05    +0.084 A 
DOCKED: ATOM      8  C   UNL d   1     -10.048  14.929   2.349 -0.15 -0.02    +0.084 A 
DOCKED: ATOM      9  C   UNL d   1      -8.976  15.335   3.365 -0.24 -0.02    +0.058 A 
DOCKED: ATOM     10  C   UNL d   1      -5.316  16.336   5.646 -0.17 -0.02    +0.058 A 
DOCKED: ATOM     11  C   UNL d   1      -5.396  16.600   3.384 -0.11 -0.12    +0.193 A 
DOCKED: ATOM     12  C   UNL d   1      -6.639  15.991   3.956 -0.22 -0.05    +0.109 A 
DOCKED: ATOM     13  C   UNL d   1     -11.222  14.919   3.287 -0.08 -0.04    +0.193 A 
DOCKED: ATOM     14  C   UNL d   1      -4.179  18.357   4.611 -0.07 -0.01    +0.026 C 
DOCKED: ATOM     15  C   UNL d   1      -7.701  15.569   3.021 -0.27 -0.02    +0.055 C 
DOCKED: ATOM     16  C   UNL d   1      -9.825  13.508   1.824 -0.13 -0.01    +0.026 C 
DOCKED: ATOM     17  C   UNL d   1     -10.725  15.283   4.648 -0.17 -0.02    +0.109 A 
DOCKED: ATOM     18  C   UNL d   1      -4.856  16.252   6.908 -0.19 -0.01    +0.050 C 
DOCKED: ATOM     19  C   UNL d   1      -5.568  15.712   8.009 -0.22 -0.01    +0.045 A 
DOCKED: ATOM     20  C   UNL d   1     -11.217  15.476   7.029 -0.19 -0.00    +0.045 A 
DOCKED: ATOM     21  C   UNL d   1     -11.667  15.395   5.772 -0.17 -0.01    +0.057 C 
DOCKED: ATOM     22  C   UNL d   1     -11.228  15.679   9.304 -0.16 -0.00    -0.019 A 
DOCKED: ATOM     23  C   UNL d   1      -9.832  15.537   8.846 -0.16 +0.00    +0.045 A 
DOCKED: ATOM     24  C   UNL d   1     -12.044  15.641   8.224 -0.14 -0.00    -0.022 A 
DOCKED: ATOM     25  C   UNL d   1      -7.405  15.341   9.276 -0.23 +0.00    +0.049 A 
DOCKED: ATOM     26  C   UNL d   1      -5.145  15.053   9.153 -0.32 +0.00    -0.018 A 
DOCKED: ATOM     27  C   UNL d   1      -6.311  14.804   9.940 -0.30 +0.00    +0.003 A 
DOCKED: ATOM     28  C   UNL d   1      -8.764  15.513   9.657 -0.17 +0.01    +0.052 C 
DOCKED: ATOM     29  C   UNL d   1     -13.531  15.732   8.174 -0.07 +0.00    +0.046 C 
DOCKED: ATOM     30  C   UNL d   1      -3.743  14.676   9.495 -0.43 -0.01    +0.046 C 
DOCKED: ATOM     31  H   UNL d   1      -9.153  15.235   6.854 -0.18 -0.04    +0.166 HD
DOCKED: ATOM     32  H   UNL d   1      -7.493  16.319   7.383 -0.00 -0.04    +0.166 HD
DOCKED: ENDROOT
DOCKED: BRANCH   7  33
DOCKED: ATOM     33  C   UNL d   1      -3.131  16.076   4.280 -0.23 -0.14    +0.141 C 
DOCKED: BRANCH  33  34
DOCKED: ATOM     34  C   UNL d   1      -3.358  14.598   4.113 -0.28 -0.20    +0.306 C 
DOCKED: ATOM     35  O   UNL d   1      -3.812  13.839   4.952 -0.86 +0.07    -0.251 OA
DOCKED: BRANCH  34  36
DOCKED: ATOM     36  O   UNL d   1      -3.004  14.154   2.894 -0.56 +0.47    -0.481 OA
DOCKED: ATOM     37  H   UNL d   1      -2.599  14.933   2.455 -0.38 -0.70    +0.295 HD
DOCKED: ENDBRANCH  34  36
DOCKED: ENDBRANCH  33  34
DOCKED: ENDBRANCH   7  33
DOCKED: BRANCH  27  38
DOCKED: ATOM     38  C   UNL d   1      -6.322  14.154  11.216 +0.09 +0.00    +0.017 C 
DOCKED: ATOM     39  C   UNL d   1      -6.668  14.733  12.376 -0.27 +0.02    +0.092 C 
DOCKED: BRANCH  39  40
DOCKED: ATOM     40  C   UNL d   1      -6.654  13.950  13.615 +0.03 +0.10    +0.330 C 
DOCKED: ATOM     41  O   UNL d   1      -6.119  12.875  13.809 -0.37 -0.01    -0.246 OA
DOCKED: BRANCH  40  42
DOCKED: ATOM     42  O   UNL d   1      -7.333  14.595  14.576 -0.56 -0.05    -0.477 OA
DOCKED: ATOM     43  H   UNL d   1      -6.681  14.687  15.302 -0.40 -0.48    +0.295 HD
DOCKED: ENDBRANCH  40  42
DOCKED: ENDBRANCH  39  40
DOCKED: ENDBRANCH  27  38
DOCKED: BRANCH   8  44
DOCKED: ATOM     44  C   UNL d   1     -10.274  15.916   1.198 -0.05 -0.03    +0.141 C 
DOCKED: BRANCH  44  45
DOCKED: ATOM     45  C   UNL d   1     -10.078  17.353   1.600 -0.00 -0.06    +0.306 C 
DOCKED: ATOM     46  O   UNL d   1      -9.461  18.203   0.981 -0.01 +0.06    -0.251 OA
DOCKED: BRANCH  45  47
DOCKED: ATOM     47  O   UNL d   1     -10.649  17.639   2.784 +0.01 +0.06    -0.481 OA
DOCKED: ATOM     48  H   UNL d   1     -10.036  17.265   3.452 +0.04 -0.05    +0.295 HD
DOCKED: ENDBRANCH  45  47
DOCKED: ENDBRANCH  44  45
DOCKED: ENDBRANCH   8  44
DOCKED: BRANCH  22  49
DOCKED: ATOM     49  C   UNL d   1     -11.631  15.851  10.739 -0.12 +0.01    +0.048 C 
DOCKED: BRANCH  49  50
DOCKED: ATOM     50  C   UNL d   1     -10.766  16.891  11.451 -0.07 +0.02    +0.125 C 
DOCKED: BRANCH  50  51
DOCKED: ATOM     51  C   UNL d   1     -10.108  16.301  12.666 -0.07 +0.11    +0.305 C 
DOCKED: ATOM     52  O   UNL d   1     -10.586  15.508  13.458 -0.09 -0.17    -0.251 OA
DOCKED: BRANCH  51  53
DOCKED: ATOM     53  O   UNL d   1      -8.851  16.760  12.832 -0.02 -0.11    -0.481 OA
DOCKED: ATOM     54  H   UNL d   1      -8.452  16.135  13.473 +0.05 +0.10    +0.295 HD
DOCKED: ENDBRANCH  51  53
DOCKED: ENDBRANCH  50  51
DOCKED: ENDBRANCH  49  50
DOCKED: ENDBRANCH  22  49
DOCKED: TORSDOF 13
DOCKED: TER
DOCKED: ENDMDL
________________________________________________________________________________


	BEGINNING GENETIC ALGORITHM DOCKING 47 of 100
Run: 47 Seed: 1237503497 1635584621 [ Run 47 of 100 GA/GALS ]
Beginning LAMARCKIAN GENETIC ALGORITHM (LGA), with a maximum of 25000000 energy evaluations.

Final-Value: -11.814


	FINAL GENETIC ALGORITHM DOCKED STATE
	_______________________________________________


Detailed state:  trans 16.295 -4.911 0.571 quatxyzw 0.357329 0.205618 0.192552 -0.890484 center 0.153 0.018 -0.028 ntor 13 102.8755 180.0000 -138.1670 -18.2421 12.5997 -70.4893 125.4066 -27.6119 -169.9859 -46.7814 -60.1142 -0.9866 18.1209
State:	 16.295  -4.911   0.571   0.785  0.452  0.423 -54.132    102.88  180.00 -138.17  -18.24   12.60  -70.49  125.41  -27.61 -169.99  -46.78  -60.11   -0.99   18.12

DOCKED: MODEL       47
DOCKED: USER    Run = 47
DOCKED: USER    DPF = D:/Protein_go_brrr/autodock/final/AncB/heme/dock.dpf
DOCKED: USER  
DOCKED: USER    Estimated Free Energy of Binding    =   -4.15 kcal/mol  [=(1)+(2)+(3)-(4)]
DOCKED: USER    Estimated Inhibition Constant, Ki   =  908.82 uM (micromolar)  [Temperature = 298.15 K]
DOCKED: USER    
DOCKED: USER    (1) Final Intermolecular Energy     =   -8.03 kcal/mol
DOCKED: USER        vdW + Hbond + desolv Energy     =   -7.76 kcal/mol
DOCKED: USER        Electrostatic Energy            =   -0.27 kcal/mol
DOCKED: USER    (2) Final Total Internal Energy     =   -3.79 kcal/mol
DOCKED: USER    (3) Torsional Free Energy           =   +3.88 kcal/mol
DOCKED: USER    (4) Unbound System's Energy  [=(2)] =   -3.79 kcal/mol
DOCKED: USER    
DOCKED: USER    
DOCKED: USER    NEWDPF move heme_opt.pdbqt
DOCKED: USER    NEWDPF about 0.153000 0.018000 -0.028000
DOCKED: USER    NEWDPF tran0 16.294574 -4.910595 0.571444
DOCKED: USER    NEWDPF quaternion0 0.357329 0.205618 0.192552 -0.890484
DOCKED: USER    NEWDPF axisangle0 0.785312 0.451891 0.423177 -54.131867
DOCKED: USER    NEWDPF quat0 0.785312 0.451891 0.423177 -54.131867
DOCKED: USER    NEWDPF dihe0 102.88 180.00 -138.17 -18.24 12.60 -70.49 125.41 -27.61 -169.99 -46.78 -60.11 -0.99 18.12 
DOCKED: USER  keepresnum = 1 
DOCKED: USER  
DOCKED: REMARK  13 active torsions:
DOCKED: REMARK  status: ('A' for Active; 'I' for Inactive)
DOCKED: REMARK    1  A    between atoms: O_3  and  C_38 
DOCKED: REMARK    2  A    between atoms: O_4  and  C_40 
DOCKED: REMARK    3  A    between atoms: O_7  and  C_46 
DOCKED: REMARK    4  A    between atoms: O_9  and  C_48 
DOCKED: REMARK    5  A    between atoms: C_15  and  C_20 
DOCKED: REMARK    6  A    between atoms: C_16  and  C_23 
DOCKED: REMARK    7  A    between atoms: C_20  and  C_38 
DOCKED: REMARK    8  A    between atoms: C_23  and  C_40 
DOCKED: REMARK    9  A    between atoms: C_32  and  C_41 
DOCKED: REMARK   10  A    between atoms: C_37  and  C_45 
DOCKED: REMARK   11  A    between atoms: C_41  and  C_44 
DOCKED: REMARK   12  A    between atoms: C_44  and  C_46 
DOCKED: REMARK   13  A    between atoms: C_47  and  C_48 
DOCKED: USER                              x       y       z     vdW  Elec       q    Type
DOCKED: USER                           _______ _______ _______ _____ _____    ______ ____
DOCKED: ROOT
DOCKED: ATOM      1  O   UNL d   1      11.570  -6.888   3.490 -0.37 +0.12    -0.289 OA
DOCKED: ATOM      2  O   UNL d   1      14.213  -8.582  -3.331 -0.10 +0.09    -0.289 OA
DOCKED: ATOM      3  N   UNL d   1      14.340  -5.352   2.126 -0.17 -0.00    -0.247 NA
DOCKED: ATOM      4  N   UNL d   1      14.783  -6.858  -0.396 -0.15 +0.01    -0.247 NA
DOCKED: ATOM      5  N   UNL d   1      17.377  -5.628  -0.566 -0.09 -0.03    -0.354 N 
DOCKED: ATOM      6  N   UNL d   1      16.916  -4.084   2.062 -0.02 -0.02    -0.354 N 
DOCKED: ATOM      7  C   UNL d   1      13.232  -5.295   4.312 -0.19 +0.00    +0.084 A 
DOCKED: ATOM      8  C   UNL d   1      12.840  -7.939  -1.409 -0.29 -0.03    +0.084 A 
DOCKED: ATOM      9  C   UNL d   1      13.448  -7.156  -0.241 -0.28 -0.01    +0.058 A 
DOCKED: ATOM     10  C   UNL d   1      14.368  -4.816   3.403 -0.22 +0.00    +0.058 A 
DOCKED: ATOM     11  C   UNL d   1      12.545  -6.181   3.316 -0.15 -0.02    +0.193 A 
DOCKED: ATOM     12  C   UNL d   1      13.298  -6.110   2.023 -0.25 -0.01    +0.109 A 
DOCKED: ATOM     13  C   UNL d   1      14.087  -8.063  -2.239 -0.15 -0.05    +0.193 A 
DOCKED: ATOM     14  C   UNL d   1      13.745  -6.155   5.469 -0.09 +0.00    +0.026 C 
DOCKED: ATOM     15  C   UNL d   1      12.750  -6.836   0.859 -0.36 -0.01    +0.055 C 
DOCKED: ATOM     16  C   UNL d   1      11.815  -7.103  -2.181 -0.56 -0.01    +0.026 C 
DOCKED: ATOM     17  C   UNL d   1      15.194  -7.373  -1.511 -0.20 -0.01    +0.109 A 
DOCKED: ATOM     18  C   UNL d   1      15.250  -3.885   3.812 -0.22 +0.00    +0.050 C 
DOCKED: ATOM     19  C   UNL d   1      16.279  -3.322   3.015 -0.21 +0.00    +0.045 A 
DOCKED: ATOM     20  C   UNL d   1      17.492  -6.560  -1.565 -0.18 +0.00    +0.045 A 
DOCKED: ATOM     21  C   UNL d   1      16.554  -7.369  -2.068 -0.19 +0.00    +0.057 C 
DOCKED: ATOM     22  C   UNL d   1      19.521  -5.558  -1.252 -0.10 -0.00    -0.019 A 
DOCKED: ATOM     23  C   UNL d   1      18.550  -4.972  -0.306 -0.13 +0.00    +0.045 A 
DOCKED: ATOM     24  C   UNL d   1      18.888  -6.496  -1.995 -0.10 -0.00    -0.022 A 
DOCKED: ATOM     25  C   UNL d   1      17.935  -3.371   1.474 +0.01 +0.00    +0.049 A 
DOCKED: ATOM     26  C   UNL d   1      16.875  -2.070   3.022 -0.23 -0.00    -0.018 A 
DOCKED: ATOM     27  C   UNL d   1      17.907  -2.100   2.033 -0.20 +0.00    +0.003 A 
DOCKED: ATOM     28  C   UNL d   1      18.836  -3.996   0.570 -0.12 +0.00    +0.052 C 
DOCKED: ATOM     29  C   UNL d   1      19.439  -7.350  -3.086 -0.05 +0.00    +0.046 C 
DOCKED: ATOM     30  C   UNL d   1      16.510  -0.914   3.890 -0.25 +0.00    +0.046 C 
DOCKED: ATOM     31  H   UNL d   1      16.479  -5.418  -0.144 +0.04 +0.01    +0.166 HD
DOCKED: ATOM     32  H   UNL d   1      16.678  -5.049   1.865 +0.04 +0.01    +0.166 HD
DOCKED: ENDROOT
DOCKED: BRANCH   7  33
DOCKED: ATOM     33  C   UNL d   1      12.279  -4.200   4.804 -0.11 +0.02    +0.141 C 
DOCKED: BRANCH  33  34
DOCKED: ATOM     34  C   UNL d   1      12.209  -4.126   6.305 -0.13 +0.04    +0.306 C 
DOCKED: ATOM     35  O   UNL d   1      13.112  -3.789   7.053 -0.06 -0.02    -0.251 OA
DOCKED: BRANCH  34  36
DOCKED: ATOM     36  O   UNL d   1      11.003  -4.477   6.786 -0.60 -0.17    -0.481 OA
DOCKED: ATOM     37  H   UNL d   1      10.445  -3.681   6.658 +0.00 -0.04    +0.295 HD
DOCKED: ENDBRANCH  34  36
DOCKED: ENDBRANCH  33  34
DOCKED: ENDBRANCH   7  33
DOCKED: BRANCH  27  38
DOCKED: ATOM     38  C   UNL d   1      18.784  -1.012   1.722 -0.19 +0.00    +0.017 C 
DOCKED: ATOM     39  C   UNL d   1      19.245  -0.715   0.497 -0.20 +0.01    +0.092 C 
DOCKED: BRANCH  39  40
DOCKED: ATOM     40  C   UNL d   1      20.126   0.441   0.309 -0.06 +0.03    +0.330 C 
DOCKED: ATOM     41  O   UNL d   1      19.826   1.619   0.351 -0.09 -0.02    -0.246 OA
DOCKED: BRANCH  40  42
DOCKED: ATOM     42  O   UNL d   1      21.383   0.030   0.080 +0.00 -0.05    -0.477 OA
DOCKED: ATOM     43  H   UNL d   1      21.321  -0.946   0.112 +0.03 +0.03    +0.295 HD
DOCKED: ENDBRANCH  40  42
DOCKED: ENDBRANCH  39  40
DOCKED: ENDBRANCH  27  38
DOCKED: BRANCH   8  44
DOCKED: ATOM     44  C   UNL d   1      12.277  -9.320  -1.057 -0.16 -0.08    +0.141 C 
DOCKED: BRANCH  44  45
DOCKED: ATOM     45  C   UNL d   1      13.243 -10.443  -1.326 -0.07 -0.15    +0.306 C 
DOCKED: ATOM     46  O   UNL d   1      14.160 -10.800  -0.607 -0.02 +0.06    -0.251 OA
DOCKED: BRANCH  45  47
DOCKED: ATOM     47  O   UNL d   1      13.018 -11.042  -2.509 -0.03 +0.41    -0.481 OA
DOCKED: ATOM     48  H   UNL d   1      12.817 -10.307  -3.126 -0.39 -0.43    +0.295 HD
DOCKED: ENDBRANCH  45  47
DOCKED: ENDBRANCH  44  45
DOCKED: ENDBRANCH   8  44
DOCKED: BRANCH  22  49
DOCKED: ATOM     49  C   UNL d   1      20.966  -5.161  -1.330 -0.05 +0.00    +0.048 C 
DOCKED: BRANCH  49  50
DOCKED: ATOM     50  C   UNL d   1      21.134  -3.713  -1.789 -0.06 +0.01    +0.125 C 
DOCKED: BRANCH  50  51
DOCKED: ATOM     51  C   UNL d   1      21.866  -2.904  -0.757 -0.02 +0.03    +0.305 C 
DOCKED: ATOM     52  O   UNL d   1      21.815  -3.024   0.455 -0.01 -0.02    -0.251 OA
DOCKED: BRANCH  51  53
DOCKED: ATOM     53  O   UNL d   1      22.637  -1.950  -1.316 +0.00 -0.05    -0.481 OA
DOCKED: ATOM     54  H   UNL d   1      22.805  -1.320  -0.585 +0.01 +0.03    +0.295 HD
DOCKED: ENDBRANCH  51  53
DOCKED: ENDBRANCH  50  51
DOCKED: ENDBRANCH  49  50
DOCKED: ENDBRANCH  22  49
DOCKED: TORSDOF 13
DOCKED: TER
DOCKED: ENDMDL
________________________________________________________________________________


	BEGINNING GENETIC ALGORITHM DOCKING 48 of 100
Run: 48 Seed: 1215975037 1794147579 [ Run 48 of 100 GA/GALS ]
Beginning LAMARCKIAN GENETIC ALGORITHM (LGA), with a maximum of 25000000 energy evaluations.

Final-Value: -11.212


	FINAL GENETIC ALGORITHM DOCKED STATE
	_______________________________________________


Detailed state:  trans -8.591 15.519 6.926 quatxyzw 0.309641 -0.605993 -0.693877 0.235435 center 0.153 0.018 -0.028 ntor 13 -32.3443 19.6723 -115.6326 11.4272 20.4617 -114.9746 129.2103 78.9524 112.5449 -16.2275 -175.5434 -12.9436 -9.8591
State:	 -8.591  15.519   6.926   0.319 -0.624 -0.714 152.765    -32.34   19.67 -115.63   11.43   20.46 -114.97  129.21   78.95  112.54  -16.23 -175.54  -12.94   -9.86

DOCKED: MODEL       48
DOCKED: USER    Run = 48
DOCKED: USER    DPF = D:/Protein_go_brrr/autodock/final/AncB/heme/dock.dpf
DOCKED: USER  
DOCKED: USER    Estimated Free Energy of Binding    =   -5.21 kcal/mol  [=(1)+(2)+(3)-(4)]
DOCKED: USER    Estimated Inhibition Constant, Ki   =  150.78 uM (micromolar)  [Temperature = 298.15 K]
DOCKED: USER    
DOCKED: USER    (1) Final Intermolecular Energy     =   -9.09 kcal/mol
DOCKED: USER        vdW + Hbond + desolv Energy     =   -8.81 kcal/mol
DOCKED: USER        Electrostatic Energy            =   -0.28 kcal/mol
DOCKED: USER    (2) Final Total Internal Energy     =   -2.12 kcal/mol
DOCKED: USER    (3) Torsional Free Energy           =   +3.88 kcal/mol
DOCKED: USER    (4) Unbound System's Energy  [=(2)] =   -2.12 kcal/mol
DOCKED: USER    
DOCKED: USER    
DOCKED: USER    NEWDPF move heme_opt.pdbqt
DOCKED: USER    NEWDPF about 0.153000 0.018000 -0.028000
DOCKED: USER    NEWDPF tran0 -8.590603 15.519152 6.925972
DOCKED: USER    NEWDPF quaternion0 0.309641 -0.605993 -0.693877 0.235435
DOCKED: USER    NEWDPF axisangle0 0.318596 -0.623520 -0.713946 152.765466
DOCKED: USER    NEWDPF quat0 0.318596 -0.623520 -0.713946 152.765466
DOCKED: USER    NEWDPF dihe0 -32.34 19.67 -115.63 11.43 20.46 -114.97 129.21 78.95 112.54 -16.23 -175.54 -12.94 -9.86 
DOCKED: USER  keepresnum = 1 
DOCKED: USER  
DOCKED: REMARK  13 active torsions:
DOCKED: REMARK  status: ('A' for Active; 'I' for Inactive)
DOCKED: REMARK    1  A    between atoms: O_3  and  C_38 
DOCKED: REMARK    2  A    between atoms: O_4  and  C_40 
DOCKED: REMARK    3  A    between atoms: O_7  and  C_46 
DOCKED: REMARK    4  A    between atoms: O_9  and  C_48 
DOCKED: REMARK    5  A    between atoms: C_15  and  C_20 
DOCKED: REMARK    6  A    between atoms: C_16  and  C_23 
DOCKED: REMARK    7  A    between atoms: C_20  and  C_38 
DOCKED: REMARK    8  A    between atoms: C_23  and  C_40 
DOCKED: REMARK    9  A    between atoms: C_32  and  C_41 
DOCKED: REMARK   10  A    between atoms: C_37  and  C_45 
DOCKED: REMARK   11  A    between atoms: C_41  and  C_44 
DOCKED: REMARK   12  A    between atoms: C_44  and  C_46 
DOCKED: REMARK   13  A    between atoms: C_47  and  C_48 
DOCKED: USER                              x       y       z     vdW  Elec       q    Type
DOCKED: USER                           _______ _______ _______ _____ _____    ______ ____
DOCKED: ROOT
DOCKED: ATOM      1  O   UNL d   1      -5.957  16.170  12.160 -0.07 +0.03    -0.289 OA
DOCKED: ATOM      2  O   UNL d   1      -3.108  14.840   5.341 -0.44 +0.12    -0.289 OA
DOCKED: ATOM      3  N   UNL d   1      -7.929  15.724   9.366 -0.16 -0.01    -0.247 NA
DOCKED: ATOM      4  N   UNL d   1      -5.953  15.569   7.153 -0.07 +0.09    -0.247 NA
DOCKED: ATOM      5  N   UNL d   1      -8.132  15.904   5.307 -0.05 +0.13    -0.354 N 
DOCKED: ATOM      6  N   UNL d   1     -10.173  16.084   7.610 -0.10 +0.01    -0.354 N 
DOCKED: ATOM      7  C   UNL d   1      -8.350  16.353  11.697 -0.12 +0.02    +0.084 A 
DOCKED: ATOM      8  C   UNL d   1      -3.703  14.797   7.714 -0.36 -0.02    +0.084 A 
DOCKED: ATOM      9  C   UNL d   1      -5.106  15.207   8.176 -0.28 -0.01    +0.058 A 
DOCKED: ATOM     10  C   UNL d   1      -8.895  16.080  10.292 -0.15 +0.01    +0.058 A 
DOCKED: ATOM     11  C   UNL d   1      -6.907  16.070  11.406 -0.11 +0.02    +0.193 A 
DOCKED: ATOM     12  C   UNL d   1      -6.785  15.675   9.967 -0.20 +0.00    +0.109 A 
DOCKED: ATOM     13  C   UNL d   1      -3.900  15.029   6.243 -0.25 -0.06    +0.193 A 
DOCKED: ATOM     14  C   UNL d   1      -8.496  17.824  12.095 -0.04 +0.00    +0.026 C 
DOCKED: ATOM     15  C   UNL d   1      -5.458  15.257   9.470 -0.30 -0.01    +0.055 C 
DOCKED: ATOM     16  C   UNL d   1      -3.442  13.306   7.947 -0.47 -0.00    +0.026 C 
DOCKED: ATOM     17  C   UNL d   1      -5.302  15.502   6.036 -0.15 -0.04    +0.109 A 
DOCKED: ATOM     18  C   UNL d   1     -10.216  16.104  10.034 -0.16 +0.01    +0.050 C 
DOCKED: ATOM     19  C   UNL d   1     -10.816  15.784   8.789 -0.17 +0.00    +0.045 A 
DOCKED: ATOM     20  C   UNL d   1      -7.073  16.040   4.448 -0.21 -0.02    +0.045 A 
DOCKED: ATOM     21  C   UNL d   1      -5.770  15.854   4.687 -0.29 -0.03    +0.057 C 
DOCKED: ATOM     22  C   UNL d   1      -9.002  16.522   3.323 -0.12 +0.01    -0.019 A 
DOCKED: ATOM     23  C   UNL d   1      -9.338  16.175   4.719 -0.15 -0.01    +0.045 A 
DOCKED: ATOM     24  C   UNL d   1      -7.659  16.439   3.169 -0.19 +0.01    -0.022 A 
DOCKED: ATOM     25  C   UNL d   1     -10.969  15.772   6.532 -0.17 -0.01    +0.049 A 
DOCKED: ATOM     26  C   UNL d   1     -12.046  15.230   8.470 -0.17 -0.00    -0.018 A 
DOCKED: ATOM     27  C   UNL d   1     -12.129  15.207   7.043 -0.17 -0.00    +0.003 A 
DOCKED: ATOM     28  C   UNL d   1     -10.585  16.136   5.213 -0.14 -0.01    +0.052 C 
DOCKED: ATOM     29  C   UNL d   1      -6.844  16.683   1.945 -0.04 -0.03    +0.046 C 
DOCKED: ATOM     30  C   UNL d   1     -13.082  14.748   9.429 -0.14 +0.00    +0.046 C 
DOCKED: ATOM     31  H   UNL d   1      -8.002  15.557   6.251 -0.41 -0.08    +0.166 HD
DOCKED: ATOM     32  H   UNL d   1      -9.256  16.513   7.565 +0.03 -0.01    +0.166 HD
DOCKED: ENDROOT
DOCKED: BRANCH   7  33
DOCKED: ATOM     33  C   UNL d   1      -8.870  15.419  12.796 -0.07 +0.11    +0.141 C 
DOCKED: BRANCH  33  34
DOCKED: ATOM     34  C   UNL d   1      -7.984  15.407  14.012 -0.08 +0.13    +0.306 C 
DOCKED: ATOM     35  O   UNL d   1      -7.900  16.288  14.852 -0.07 +0.01    -0.251 OA
DOCKED: BRANCH  34  36
DOCKED: ATOM     36  O   UNL d   1      -7.251  14.284  14.109 -0.65 -0.28    -0.481 OA
DOCKED: ATOM     37  H   UNL d   1      -6.400  14.577  14.498 -0.47 -0.29    +0.295 HD
DOCKED: ENDBRANCH  34  36
DOCKED: ENDBRANCH  33  34
DOCKED: ENDBRANCH   7  33
DOCKED: BRANCH  27  38
DOCKED: ATOM     38  C   UNL d   1     -13.247  14.724   6.289 -0.12 -0.00    +0.017 C 
DOCKED: ATOM     39  C   UNL d   1     -13.193  14.278   5.025 -0.07 -0.02    +0.092 C 
DOCKED: BRANCH  39  40
DOCKED: ATOM     40  C   UNL d   1     -14.411  13.794   4.370 -0.04 -0.03    +0.330 C 
DOCKED: ATOM     41  O   UNL d   1     -14.639  12.671   3.961 -0.06 +0.02    -0.246 OA
DOCKED: BRANCH  40  42
DOCKED: ATOM     42  O   UNL d   1     -15.309  14.786   4.272 -0.00 +0.01    -0.477 OA
DOCKED: ATOM     43  H   UNL d   1     -16.160  14.321   4.136 +0.01 +0.00    +0.295 HD
DOCKED: ENDBRANCH  40  42
DOCKED: ENDBRANCH  39  40
DOCKED: ENDBRANCH  27  38
DOCKED: BRANCH   8  44
DOCKED: ATOM     44  C   UNL d   1      -2.553  15.652   8.256 -0.26 -0.04    +0.141 C 
DOCKED: BRANCH  44  45
DOCKED: ATOM     45  C   UNL d   1      -2.581  17.072   7.755 -0.10 -0.09    +0.306 C 
DOCKED: ATOM     46  O   UNL d   1      -3.214  17.998   8.230 -0.03 +0.06    -0.251 OA
DOCKED: BRANCH  45  47
DOCKED: ATOM     47  O   UNL d   1      -1.825  17.244   6.656 -0.17 +0.19    -0.481 OA
DOCKED: ATOM     48  H   UNL d   1      -2.247  16.680   5.973 +0.10 -0.14    +0.295 HD
DOCKED: ENDBRANCH  45  47
DOCKED: ENDBRANCH  44  45
DOCKED: ENDBRANCH   8  44
DOCKED: BRANCH  22  49
DOCKED: ATOM     49  C   UNL d   1     -10.012  16.913   2.285 -0.05 -0.01    +0.048 C 
DOCKED: BRANCH  49  50
DOCKED: ATOM     50  C   UNL d   1     -10.477  15.711   1.463 -0.06 -0.03    +0.125 C 
DOCKED: BRANCH  50  51
DOCKED: ATOM     51  C   UNL d   1      -9.893  14.435   2.000 -0.13 -0.10    +0.305 C 
DOCKED: ATOM     52  O   UNL d   1     -10.195  13.854   3.027 -0.22 +0.09    -0.251 OA
DOCKED: BRANCH  51  53
DOCKED: ATOM     53  O   UNL d   1      -8.921  13.950   1.201 -0.13 +0.21    -0.481 OA
DOCKED: ATOM     54  H   UNL d   1      -8.753  13.050   1.550 -0.36 -0.22    +0.295 HD
DOCKED: ENDBRANCH  51  53
DOCKED: ENDBRANCH  50  51
DOCKED: ENDBRANCH  49  50
DOCKED: ENDBRANCH  22  49
DOCKED: TORSDOF 13
DOCKED: TER
DOCKED: ENDMDL
________________________________________________________________________________


	BEGINNING GENETIC ALGORITHM DOCKING 49 of 100
Run: 49 Seed: 828126616 81010912 [ Run 49 of 100 GA/GALS ]
Beginning LAMARCKIAN GENETIC ALGORITHM (LGA), with a maximum of 25000000 energy evaluations.

Final-Value: -12.144


	FINAL GENETIC ALGORITHM DOCKED STATE
	_______________________________________________


Detailed state:  trans -17.154 2.947 9.825 quatxyzw 0.686499 0.028143 0.701849 -0.187978 center 0.153 0.018 -0.028 ntor 13 -27.4341 108.2339 -141.8405 -24.4487 -110.8191 115.6475 130.4190 -84.2241 -179.9811 -9.7252 -122.5161 -107.2572 -7.1288
State:	-17.154   2.947   9.825   0.699  0.029  0.715 -158.330    -27.43  108.23 -141.84  -24.45 -110.82  115.65  130.42  -84.22 -179.98   -9.73 -122.52 -107.26   -7.13

DOCKED: MODEL       49
DOCKED: USER    Run = 49
DOCKED: USER    DPF = D:/Protein_go_brrr/autodock/final/AncB/heme/dock.dpf
DOCKED: USER  
DOCKED: USER    Estimated Free Energy of Binding    =   -4.95 kcal/mol  [=(1)+(2)+(3)-(4)]
DOCKED: USER    Estimated Inhibition Constant, Ki   =  233.40 uM (micromolar)  [Temperature = 298.15 K]
DOCKED: USER    
DOCKED: USER    (1) Final Intermolecular Energy     =   -8.83 kcal/mol
DOCKED: USER        vdW + Hbond + desolv Energy     =   -8.49 kcal/mol
DOCKED: USER        Electrostatic Energy            =   -0.34 kcal/mol
DOCKED: USER    (2) Final Total Internal Energy     =   -3.31 kcal/mol
DOCKED: USER    (3) Torsional Free Energy           =   +3.88 kcal/mol
DOCKED: USER    (4) Unbound System's Energy  [=(2)] =   -3.31 kcal/mol
DOCKED: USER    
DOCKED: USER    
DOCKED: USER    NEWDPF move heme_opt.pdbqt
DOCKED: USER    NEWDPF about 0.153000 0.018000 -0.028000
DOCKED: USER    NEWDPF tran0 -17.153618 2.947284 9.825172
DOCKED: USER    NEWDPF quaternion0 0.686499 0.028143 0.701849 -0.187978
DOCKED: USER    NEWDPF axisangle0 0.698959 0.028654 0.714588 -158.330396
DOCKED: USER    NEWDPF quat0 0.698959 0.028654 0.714588 -158.330396
DOCKED: USER    NEWDPF dihe0 -27.43 108.23 -141.84 -24.45 -110.82 115.65 130.42 -84.22 -179.98 -9.73 -122.52 -107.26 -7.13 
DOCKED: USER  keepresnum = 1 
DOCKED: USER  
DOCKED: REMARK  13 active torsions:
DOCKED: REMARK  status: ('A' for Active; 'I' for Inactive)
DOCKED: REMARK    1  A    between atoms: O_3  and  C_38 
DOCKED: REMARK    2  A    between atoms: O_4  and  C_40 
DOCKED: REMARK    3  A    between atoms: O_7  and  C_46 
DOCKED: REMARK    4  A    between atoms: O_9  and  C_48 
DOCKED: REMARK    5  A    between atoms: C_15  and  C_20 
DOCKED: REMARK    6  A    between atoms: C_16  and  C_23 
DOCKED: REMARK    7  A    between atoms: C_20  and  C_38 
DOCKED: REMARK    8  A    between atoms: C_23  and  C_40 
DOCKED: REMARK    9  A    between atoms: C_32  and  C_41 
DOCKED: REMARK   10  A    between atoms: C_37  and  C_45 
DOCKED: REMARK   11  A    between atoms: C_41  and  C_44 
DOCKED: REMARK   12  A    between atoms: C_44  and  C_46 
DOCKED: REMARK   13  A    between atoms: C_47  and  C_48 
DOCKED: USER                              x       y       z     vdW  Elec       q    Type
DOCKED: USER                           _______ _______ _______ _____ _____    ______ ____
DOCKED: ROOT
DOCKED: ATOM      1  O   UNL d   1     -16.977  -0.459   5.016 -0.21 +0.03    -0.289 OA
DOCKED: ATOM      2  O   UNL d   1     -17.636   6.985   5.763 -0.01 -0.03    -0.289 OA
DOCKED: ATOM      3  N   UNL d   1     -17.174   1.101   8.086 -0.08 -0.02    -0.247 NA
DOCKED: ATOM      4  N   UNL d   1     -17.104   3.989   7.391 -0.07 -0.02    -0.247 NA
DOCKED: ATOM      5  N   UNL d   1     -16.614   4.551  10.168 -0.05 +0.02    -0.354 N 
DOCKED: ATOM      6  N   UNL d   1     -16.669   1.551  10.877 -0.15 +0.00    -0.354 N 
DOCKED: ATOM      7  C   UNL d   1     -16.771  -1.198   7.337 -0.24 +0.01    +0.084 A 
DOCKED: ATOM      8  C   UNL d   1     -17.907   4.624   5.172 -0.05 +0.01    +0.084 A 
DOCKED: ATOM      9  C   UNL d   1     -17.553   3.522   6.176 -0.09 +0.01    +0.058 A 
DOCKED: ATOM     10  C   UNL d   1     -16.914  -0.199   8.489 -0.19 +0.01    +0.058 A 
DOCKED: ATOM     11  C   UNL d   1     -17.013  -0.236   6.213 -0.19 +0.00    +0.193 A 
DOCKED: ATOM     12  C   UNL d   1     -17.270   1.118   6.797 -0.14 +0.01    +0.109 A 
DOCKED: ATOM     13  C   UNL d   1     -17.538   5.803   6.029 -0.02 +0.02    +0.193 A 
DOCKED: ATOM     14  C   UNL d   1     -15.345  -1.743   7.224 -0.30 +0.00    +0.026 C 
DOCKED: ATOM     15  C   UNL d   1     -17.628   2.216   5.876 -0.15 +0.00    +0.055 C 
DOCKED: ATOM     16  C   UNL d   1     -19.411   4.673   4.888 -0.03 +0.00    +0.026 C 
DOCKED: ATOM     17  C   UNL d   1     -17.059   5.282   7.345 -0.09 +0.01    +0.109 A 
DOCKED: ATOM     18  C   UNL d   1     -16.877  -0.597   9.774 -0.27 +0.01    +0.050 C 
DOCKED: ATOM     19  C   UNL d   1     -17.084   0.239  10.901 -0.24 +0.01    +0.045 A 
DOCKED: ATOM     20  C   UNL d   1     -16.389   5.793   9.633 -0.16 +0.00    +0.045 A 
DOCKED: ATOM     21  C   UNL d   1     -16.586   6.213   8.380 -0.16 +0.00    +0.057 C 
DOCKED: ATOM     22  C   UNL d   1     -15.820   5.827  11.845 -0.29 -0.00    -0.019 A 
DOCKED: ATOM     23  C   UNL d   1     -16.299   4.474  11.499 +0.04 -0.00    +0.045 A 
DOCKED: ATOM     24  C   UNL d   1     -15.876   6.603  10.737 -0.24 -0.00    -0.022 A 
DOCKED: ATOM     25  C   UNL d   1     -16.884   2.148  12.098 -0.28 -0.00    +0.049 A 
DOCKED: ATOM     26  C   UNL d   1     -17.616  -0.013  12.156 -0.21 -0.00    -0.018 A 
DOCKED: ATOM     27  C   UNL d   1     -17.505   1.202  12.901 -0.23 +0.00    +0.003 A 
DOCKED: ATOM     28  C   UNL d   1     -16.395   3.455  12.367 -0.32 -0.00    +0.052 C 
DOCKED: ATOM     29  C   UNL d   1     -15.511   8.041  10.585 -0.22 +0.00    +0.046 C 
DOCKED: ATOM     30  C   UNL d   1     -18.194  -1.301  12.636 -0.20 +0.01    +0.046 C 
DOCKED: ATOM     31  H   UNL d   1     -17.047   3.813   9.622 +0.01 -0.00    +0.166 HD
DOCKED: ATOM     32  H   UNL d   1     -16.230   1.986  10.074 -0.02 -0.01    +0.166 HD
DOCKED: ENDROOT
DOCKED: BRANCH   7  33
DOCKED: ATOM     33  C   UNL d   1     -17.808  -2.326   7.313 -0.17 +0.02    +0.141 C 
DOCKED: BRANCH  33  34
DOCKED: ATOM     34  C   UNL d   1     -17.185  -3.681   7.113 -0.24 +0.06    +0.306 C 
DOCKED: ATOM     35  O   UNL d   1     -16.471  -4.015   6.183 -0.43 -0.02    -0.251 OA
DOCKED: BRANCH  34  36
DOCKED: ATOM     36  O   UNL d   1     -17.493  -4.543   8.098 -0.65 -0.32    -0.481 OA
DOCKED: ATOM     37  H   UNL d   1     -17.484  -5.424   7.666 -0.37 -0.17    +0.295 HD
DOCKED: ENDBRANCH  34  36
DOCKED: ENDBRANCH  33  34
DOCKED: ENDBRANCH   7  33
DOCKED: BRANCH  27  38
DOCKED: ATOM     38  C   UNL d   1     -17.923   1.378  14.259 -0.21 +0.00    +0.017 C 
DOCKED: ATOM     39  C   UNL d   1     -17.102   1.535  15.308 -0.30 -0.01    +0.092 C 
DOCKED: BRANCH  39  40
DOCKED: ATOM     40  C   UNL d   1     -17.659   1.724  16.650 -0.14 -0.04    +0.330 C 
DOCKED: ATOM     41  O   UNL d   1     -17.579   0.970  17.602 -0.16 +0.04    -0.246 OA
DOCKED: BRANCH  40  42
DOCKED: ATOM     42  O   UNL d   1     -18.301   2.900  16.722 -0.05 +0.03    -0.477 OA
DOCKED: ATOM     43  H   UNL d   1     -17.580   3.562  16.712 +0.06 -0.03    +0.295 HD
DOCKED: ENDBRANCH  40  42
DOCKED: ENDBRANCH  39  40
DOCKED: ENDBRANCH  27  38
DOCKED: BRANCH   8  44
DOCKED: ATOM     44  C   UNL d   1     -17.097   4.617   3.872 -0.10 +0.02    +0.141 C 
DOCKED: BRANCH  44  45
DOCKED: ATOM     45  C   UNL d   1     -15.615   4.766   4.094 -0.14 +0.05    +0.306 C 
DOCKED: ATOM     46  O   UNL d   1     -14.821   3.871   4.323 -0.27 -0.04    -0.251 OA
DOCKED: BRANCH  45  47
DOCKED: ATOM     47  O   UNL d   1     -15.213   6.049   4.041 -0.03 -0.07    -0.481 OA
DOCKED: ATOM     48  H   UNL d   1     -15.939   6.554   4.464 +0.09 +0.04    +0.295 HD
DOCKED: ENDBRANCH  45  47
DOCKED: ENDBRANCH  44  45
DOCKED: ENDBRANCH   8  44
DOCKED: BRANCH  22  49
DOCKED: ATOM     49  C   UNL d   1     -15.341   6.227  13.210 -0.28 +0.00    +0.048 C 
DOCKED: BRANCH  49  50
DOCKED: ATOM     50  C   UNL d   1     -16.478   6.772  14.074 -0.14 +0.02    +0.125 C 
DOCKED: BRANCH  50  51
DOCKED: ATOM     51  C   UNL d   1     -17.572   5.753  14.224 -0.08 +0.02    +0.305 C 
DOCKED: ATOM     52  O   UNL d   1     -18.551   5.604  13.514 -0.03 -0.01    -0.251 OA
DOCKED: BRANCH  51  53
DOCKED: ATOM     53  O   UNL d   1     -17.381   4.961  15.298 -0.03 -0.02    -0.481 OA
DOCKED: ATOM     54  H   UNL d   1     -18.281   4.652  15.530 +0.04 +0.00    +0.295 HD
DOCKED: ENDBRANCH  51  53
DOCKED: ENDBRANCH  50  51
DOCKED: ENDBRANCH  49  50
DOCKED: ENDBRANCH  22  49
DOCKED: TORSDOF 13
DOCKED: TER
DOCKED: ENDMDL
________________________________________________________________________________


	BEGINNING GENETIC ALGORITHM DOCKING 50 of 100
Run: 50 Seed: 2113535000 672979205 [ Run 50 of 100 GA/GALS ]
Beginning LAMARCKIAN GENETIC ALGORITHM (LGA), with a maximum of 25000000 energy evaluations.

Final-Value: -11.601


	FINAL GENETIC ALGORITHM DOCKED STATE
	_______________________________________________


Detailed state:  trans -12.173 13.269 4.342 quatxyzw -0.152672 -0.490486 0.336736 0.789129 center 0.153 0.018 -0.028 ntor 13 74.6308 -170.0978 -82.1660 133.0550 -175.3527 -7.5495 161.5032 -23.3153 101.8576 -96.7390 63.4322 -73.0094 127.3623
State:	-12.173  13.269   4.342  -0.249 -0.799  0.548 75.792     74.63 -170.10  -82.17  133.05 -175.35   -7.55  161.50  -23.32  101.86  -96.74   63.43  -73.01  127.36

DOCKED: MODEL       50
DOCKED: USER    Run = 50
DOCKED: USER    DPF = D:/Protein_go_brrr/autodock/final/AncB/heme/dock.dpf
DOCKED: USER  
DOCKED: USER    Estimated Free Energy of Binding    =   -4.18 kcal/mol  [=(1)+(2)+(3)-(4)]
DOCKED: USER    Estimated Inhibition Constant, Ki   =  863.99 uM (micromolar)  [Temperature = 298.15 K]
DOCKED: USER    
DOCKED: USER    (1) Final Intermolecular Energy     =   -8.06 kcal/mol
DOCKED: USER        vdW + Hbond + desolv Energy     =   -7.91 kcal/mol
DOCKED: USER        Electrostatic Energy            =   -0.15 kcal/mol
DOCKED: USER    (2) Final Total Internal Energy     =   -3.54 kcal/mol
DOCKED: USER    (3) Torsional Free Energy           =   +3.88 kcal/mol
DOCKED: USER    (4) Unbound System's Energy  [=(2)] =   -3.54 kcal/mol
DOCKED: USER    
DOCKED: USER    
DOCKED: USER    NEWDPF move heme_opt.pdbqt
DOCKED: USER    NEWDPF about 0.153000 0.018000 -0.028000
DOCKED: USER    NEWDPF tran0 -12.172799 13.269131 4.341889
DOCKED: USER    NEWDPF quaternion0 -0.152672 -0.490486 0.336736 0.789129
DOCKED: USER    NEWDPF axisangle0 -0.248559 -0.798540 0.548226 75.791682
DOCKED: USER    NEWDPF quat0 -0.248559 -0.798540 0.548226 75.791682
DOCKED: USER    NEWDPF dihe0 74.63 -170.10 -82.17 133.05 -175.35 -7.55 161.50 -23.32 101.86 -96.74 63.43 -73.01 127.36 
DOCKED: USER  keepresnum = 1 
DOCKED: USER  
DOCKED: REMARK  13 active torsions:
DOCKED: REMARK  status: ('A' for Active; 'I' for Inactive)
DOCKED: REMARK    1  A    between atoms: O_3  and  C_38 
DOCKED: REMARK    2  A    between atoms: O_4  and  C_40 
DOCKED: REMARK    3  A    between atoms: O_7  and  C_46 
DOCKED: REMARK    4  A    between atoms: O_9  and  C_48 
DOCKED: REMARK    5  A    between atoms: C_15  and  C_20 
DOCKED: REMARK    6  A    between atoms: C_16  and  C_23 
DOCKED: REMARK    7  A    between atoms: C_20  and  C_38 
DOCKED: REMARK    8  A    between atoms: C_23  and  C_40 
DOCKED: REMARK    9  A    between atoms: C_32  and  C_41 
DOCKED: REMARK   10  A    between atoms: C_37  and  C_45 
DOCKED: REMARK   11  A    between atoms: C_41  and  C_44 
DOCKED: REMARK   12  A    between atoms: C_44  and  C_46 
DOCKED: REMARK   13  A    between atoms: C_47  and  C_48 
DOCKED: USER                              x       y       z     vdW  Elec       q    Type
DOCKED: USER                           _______ _______ _______ _____ _____    ______ ____
DOCKED: ROOT
DOCKED: ATOM      1  O   UNL d   1     -12.226  16.268   9.417 -0.04 -0.02    -0.289 OA
DOCKED: ATOM      2  O   UNL d   1     -17.310  11.664   6.359 -0.01 -0.01    -0.289 OA
DOCKED: ATOM      3  N   UNL d   1     -11.810  14.823   6.313 -0.11 +0.05    -0.247 NA
DOCKED: ATOM      4  N   UNL d   1     -14.129  12.977   6.103 +0.01 +0.05    -0.247 NA
DOCKED: ATOM      5  N   UNL d   1     -12.830  11.751   3.850 +0.00 +0.08    -0.354 N 
DOCKED: ATOM      6  N   UNL d   1     -10.419  13.657   4.088 -0.20 +0.13    -0.354 N 
DOCKED: ATOM      7  C   UNL d   1     -10.408  16.193   7.785 -0.15 -0.00    +0.084 A 
DOCKED: ATOM      8  C   UNL d   1     -16.123  13.535   7.400 -0.03 +0.00    +0.084 A 
DOCKED: ATOM      9  C   UNL d   1     -14.663  13.832   7.041 -0.08 -0.00    +0.058 A 
DOCKED: ATOM     10  C   UNL d   1     -10.573  15.426   6.469 -0.22 -0.01    +0.058 A 
DOCKED: ATOM     11  C   UNL d   1     -11.777  15.932   8.337 -0.09 +0.01    +0.193 A 
DOCKED: ATOM     12  C   UNL d   1     -12.539  15.113   7.341 -0.13 -0.01    +0.109 A 
DOCKED: ATOM     13  C   UNL d   1     -16.307  12.331   6.519 -0.03 +0.00    +0.193 A 
DOCKED: ATOM     14  C   UNL d   1      -9.371  15.542   8.703 -0.20 +0.00    +0.026 C 
DOCKED: ATOM     15  C   UNL d   1     -13.955  14.808   7.630 -0.10 -0.00    +0.055 C 
DOCKED: ATOM     16  C   UNL d   1     -17.063  14.645   6.919 -0.01 +0.00    +0.026 C 
DOCKED: ATOM     17  C   UNL d   1     -15.023  12.094   5.792 -0.09 -0.01    +0.109 A 
DOCKED: ATOM     18  C   UNL d   1      -9.613  15.434   5.526 -0.23 -0.01    +0.050 C 
DOCKED: ATOM     19  C   UNL d   1      -9.710  14.826   4.249 -0.27 -0.01    +0.045 A 
DOCKED: ATOM     20  C   UNL d   1     -13.851  10.858   4.048 -0.11 -0.00    +0.045 A 
DOCKED: ATOM     21  C   UNL d   1     -14.891  10.946   4.883 -0.13 -0.00    +0.057 C 
DOCKED: ATOM     22  C   UNL d   1     -12.440  10.025   2.456 -0.28 +0.00    -0.019 A 
DOCKED: ATOM     23  C   UNL d   1     -11.928  11.334   2.907 -0.27 -0.01    +0.045 A 
DOCKED: ATOM     24  C   UNL d   1     -13.580   9.749   3.134 -0.21 -0.00    -0.022 A 
DOCKED: ATOM     25  C   UNL d   1     -10.307  13.197   2.796 -0.22 -0.02    +0.049 A 
DOCKED: ATOM     26  C   UNL d   1      -9.154  15.154   3.022 -0.25 +0.01    -0.018 A 
DOCKED: ATOM     27  C   UNL d   1      -9.550  14.132   2.104 -0.20 -0.00    +0.003 A 
DOCKED: ATOM     28  C   UNL d   1     -10.823  11.925   2.428 -0.32 -0.02    +0.052 C 
DOCKED: ATOM     29  C   UNL d   1     -14.467   8.556   3.021 -0.19 +0.00    +0.046 C 
DOCKED: ATOM     30  C   UNL d   1      -8.307  16.343   2.718 -0.19 -0.02    +0.046 C 
DOCKED: ATOM     31  H   UNL d   1     -12.822  12.653   4.314 -0.36 -0.06    +0.166 HD
DOCKED: ATOM     32  H   UNL d   1     -10.914  13.193   4.841 -0.35 -0.10    +0.166 HD
DOCKED: ENDROOT
DOCKED: BRANCH   7  33
DOCKED: ATOM     33  C   UNL d   1     -10.165  17.699   7.641 -0.04 -0.01    +0.141 C 
DOCKED: BRANCH  33  34
DOCKED: ATOM     34  C   UNL d   1     -10.715  18.488   8.799 -0.01 +0.00    +0.306 C 
DOCKED: ATOM     35  O   UNL d   1     -11.548  19.376   8.734 -0.00 -0.00    -0.251 OA
DOCKED: BRANCH  34  36
DOCKED: ATOM     36  O   UNL d   1     -10.188  18.113   9.978 +0.00 -0.02    -0.481 OA
DOCKED: ATOM     37  H   UNL d   1     -10.915  17.635  10.432 +0.03 +0.02    +0.295 HD
DOCKED: ENDBRANCH  34  36
DOCKED: ENDBRANCH  33  34
DOCKED: ENDBRANCH   7  33
DOCKED: BRANCH  27  38
DOCKED: ATOM     38  C   UNL d   1      -9.178  14.075   0.723 -0.27 -0.01    +0.017 C 
DOCKED: ATOM     39  C   UNL d   1      -8.911  12.952   0.039 -0.27 -0.03    +0.092 C 
DOCKED: BRANCH  39  40
DOCKED: ATOM     40  C   UNL d   1      -8.557  13.029  -1.381 -0.20 -0.10    +0.330 C 
DOCKED: ATOM     41  O   UNL d   1      -8.619  13.999  -2.112 -0.16 +0.10    -0.246 OA
DOCKED: BRANCH  40  42
DOCKED: ATOM     42  O   UNL d   1      -8.121  11.835  -1.814 -0.35 +0.03    -0.477 OA
DOCKED: ATOM     43  H   UNL d   1      -8.325  11.228  -1.073 +0.16 +0.04    +0.295 HD
DOCKED: ENDBRANCH  40  42
DOCKED: ENDBRANCH  39  40
DOCKED: ENDBRANCH  27  38
DOCKED: BRANCH   8  44
DOCKED: ATOM     44  C   UNL d   1     -16.384  13.186   8.869 -0.02 +0.01    +0.141 C 
DOCKED: BRANCH  44  45
DOCKED: ATOM     45  C   UNL d   1     -17.496  12.188   9.053 -0.00 +0.02    +0.306 C 
DOCKED: ATOM     46  O   UNL d   1     -17.399  11.073   9.536 -0.00 -0.01    -0.251 OA
DOCKED: BRANCH  45  47
DOCKED: ATOM     47  O   UNL d   1     -18.676  12.640   8.592 +0.00 -0.02    -0.481 OA
DOCKED: ATOM     48  H   UNL d   1     -18.754  12.257   7.692 +0.00 +0.01    +0.295 HD
DOCKED: ENDBRANCH  45  47
DOCKED: ENDBRANCH  44  45
DOCKED: ENDBRANCH   8  44
DOCKED: BRANCH  22  49
DOCKED: ATOM     49  C   UNL d   1     -11.768   9.167   1.425 -0.32 -0.00    +0.048 C 
DOCKED: BRANCH  49  50
DOCKED: ATOM     50  C   UNL d   1     -10.257   9.095   1.643 -0.46 -0.02    +0.125 C 
DOCKED: BRANCH  50  51
DOCKED: ATOM     51  C   UNL d   1      -9.518   9.718   0.493 -0.28 -0.02    +0.305 C 
DOCKED: ATOM     52  O   UNL d   1      -9.872   9.780  -0.671 -0.18 -0.01    -0.251 OA
DOCKED: BRANCH  51  53
DOCKED: ATOM     53  O   UNL d   1      -8.333  10.235   0.875 -0.22 +0.09    -0.481 OA
DOCKED: ATOM     54  H   UNL d   1      -8.547  10.751   1.681 -0.26 -0.24    +0.295 HD
DOCKED: ENDBRANCH  51  53
DOCKED: ENDBRANCH  50  51
DOCKED: ENDBRANCH  49  50
DOCKED: ENDBRANCH  22  49
DOCKED: TORSDOF 13
DOCKED: TER
DOCKED: ENDMDL
________________________________________________________________________________


	BEGINNING GENETIC ALGORITHM DOCKING 51 of 100
Run: 51 Seed: 1389029291 34850176 [ Run 51 of 100 GA/GALS ]
Beginning LAMARCKIAN GENETIC ALGORITHM (LGA), with a maximum of 25000000 energy evaluations.

Final-Value: -12.272


	FINAL GENETIC ALGORITHM DOCKED STATE
	_______________________________________________


Detailed state:  trans 3.126 -14.930 -0.024 quatxyzw -0.122180 0.456811 -0.809066 -0.349011 center 0.153 0.018 -0.028 ntor 13 175.2113 99.8408 111.2551 -173.4992 48.4761 -166.8164 32.6268 30.6894 150.7267 8.5670 80.3384 -19.0331 20.8009
State:	  3.126 -14.930  -0.024  -0.130  0.487 -0.863 -139.146    175.21   99.84  111.26 -173.50   48.48 -166.82   32.63   30.69  150.73    8.57   80.34  -19.03   20.80

DOCKED: MODEL       51
DOCKED: USER    Run = 51
DOCKED: USER    DPF = D:/Protein_go_brrr/autodock/final/AncB/heme/dock.dpf
DOCKED: USER  
DOCKED: USER    Estimated Free Energy of Binding    =   -6.61 kcal/mol  [=(1)+(2)+(3)-(4)]
DOCKED: USER    Estimated Inhibition Constant, Ki   =   14.24 uM (micromolar)  [Temperature = 298.15 K]
DOCKED: USER    
DOCKED: USER    (1) Final Intermolecular Energy     =  -10.49 kcal/mol
DOCKED: USER        vdW + Hbond + desolv Energy     =   -9.51 kcal/mol
DOCKED: USER        Electrostatic Energy            =   -0.98 kcal/mol
DOCKED: USER    (2) Final Total Internal Energy     =   -1.78 kcal/mol
DOCKED: USER    (3) Torsional Free Energy           =   +3.88 kcal/mol
DOCKED: USER    (4) Unbound System's Energy  [=(2)] =   -1.78 kcal/mol
DOCKED: USER    
DOCKED: USER    
DOCKED: USER    NEWDPF move heme_opt.pdbqt
DOCKED: USER    NEWDPF about 0.153000 0.018000 -0.028000
DOCKED: USER    NEWDPF tran0 3.126394 -14.929674 -0.023738
DOCKED: USER    NEWDPF quaternion0 -0.122180 0.456811 -0.809066 -0.349011
DOCKED: USER    NEWDPF axisangle0 -0.130379 0.487463 -0.863355 -139.146344
DOCKED: USER    NEWDPF quat0 -0.130379 0.487463 -0.863355 -139.146344
DOCKED: USER    NEWDPF dihe0 175.21 99.84 111.26 -173.50 48.48 -166.82 32.63 30.69 150.73 8.57 80.34 -19.03 20.80 
DOCKED: USER  keepresnum = 1 
DOCKED: USER  
DOCKED: REMARK  13 active torsions:
DOCKED: REMARK  status: ('A' for Active; 'I' for Inactive)
DOCKED: REMARK    1  A    between atoms: O_3  and  C_38 
DOCKED: REMARK    2  A    between atoms: O_4  and  C_40 
DOCKED: REMARK    3  A    between atoms: O_7  and  C_46 
DOCKED: REMARK    4  A    between atoms: O_9  and  C_48 
DOCKED: REMARK    5  A    between atoms: C_15  and  C_20 
DOCKED: REMARK    6  A    between atoms: C_16  and  C_23 
DOCKED: REMARK    7  A    between atoms: C_20  and  C_38 
DOCKED: REMARK    8  A    between atoms: C_23  and  C_40 
DOCKED: REMARK    9  A    between atoms: C_32  and  C_41 
DOCKED: REMARK   10  A    between atoms: C_37  and  C_45 
DOCKED: REMARK   11  A    between atoms: C_41  and  C_44 
DOCKED: REMARK   12  A    between atoms: C_44  and  C_46 
DOCKED: REMARK   13  A    between atoms: C_47  and  C_48 
DOCKED: USER                              x       y       z     vdW  Elec       q    Type
DOCKED: USER                           _______ _______ _______ _____ _____    ______ ____
DOCKED: ROOT
DOCKED: ATOM      1  O   UNL d   1       8.303 -12.131  -0.378 -0.23 +0.20    -0.289 OA
DOCKED: ATOM      2  O   UNL d   1       2.045 -10.457   3.421 -0.24 -0.03    -0.289 OA
DOCKED: ATOM      3  N   UNL d   1       5.428 -14.025  -0.586 -0.11 +0.02    -0.247 NA
DOCKED: ATOM      4  N   UNL d   1       3.648 -12.791   1.448 -0.19 -0.02    -0.247 NA
DOCKED: ATOM      5  N   UNL d   1       1.949 -15.100   1.227 -0.04 -0.06    -0.354 N 
DOCKED: ATOM      6  N   UNL d   1       3.811 -16.382  -0.869 -0.02 +0.01    -0.354 N 
DOCKED: ATOM      7  C   UNL d   1       7.713 -14.250  -1.444 -0.14 -0.02    +0.084 A 
DOCKED: ATOM      8  C   UNL d   1       4.029 -10.438   1.986 -0.37 -0.01    +0.084 A 
DOCKED: ATOM      9  C   UNL d   1       4.466 -11.703   1.240 -0.31 -0.01    +0.058 A 
DOCKED: ATOM     10  C   UNL d   1       6.296 -14.816  -1.321 -0.11 -0.01    +0.058 A 
DOCKED: ATOM     11  C   UNL d   1       7.489 -12.990  -0.664 -0.21 -0.08    +0.193 A 
DOCKED: ATOM     12  C   UNL d   1       6.059 -12.957  -0.220 -0.22 -0.03    +0.109 A 
DOCKED: ATOM     13  C   UNL d   1       2.832 -11.020   2.685 -0.21 +0.01    +0.193 A 
DOCKED: ATOM     14  C   UNL d   1       8.742 -15.112  -0.707 -0.07 -0.01    +0.026 C 
DOCKED: ATOM     15  C   UNL d   1       5.579 -11.756   0.492 -0.40 -0.02    +0.055 C 
DOCKED: ATOM     16  C   UNL d   1       3.553  -9.347   1.022 -0.56 -0.00    +0.026 C 
DOCKED: ATOM     17  C   UNL d   1       2.716 -12.454   2.281 -0.19 +0.01    +0.109 A 
DOCKED: ATOM     18  C   UNL d   1       5.931 -15.943  -1.960 -0.14 -0.01    +0.050 C 
DOCKED: ATOM     19  C   UNL d   1       4.624 -16.496  -1.973 -0.14 -0.00    +0.045 A 
DOCKED: ATOM     20  C   UNL d   1       1.384 -14.496   2.320 -0.16 +0.01    +0.045 A 
DOCKED: ATOM     21  C   UNL d   1       1.653 -13.297   2.847 -0.23 +0.01    +0.057 C 
DOCKED: ATOM     22  C   UNL d   1       0.412 -16.541   2.023 -0.08 -0.00    -0.019 A 
DOCKED: ATOM     23  C   UNL d   1       1.426 -16.339   0.969 -0.10 +0.01    +0.045 A 
DOCKED: ATOM     24  C   UNL d   1       0.391 -15.446   2.819 -0.12 -0.01    -0.022 A 
DOCKED: ATOM     25  C   UNL d   1       2.632 -17.063  -1.064 -0.13 -0.00    +0.049 A 
DOCKED: ATOM     26  C   UNL d   1       3.942 -17.238  -2.925 -0.23 +0.00    -0.018 A 
DOCKED: ATOM     27  C   UNL d   1       2.677 -17.576  -2.353 -0.23 -0.00    +0.003 A 
DOCKED: ATOM     28  C   UNL d   1       1.697 -17.221  -0.005 -0.11 +0.00    +0.052 C 
DOCKED: ATOM     29  C   UNL d   1      -0.468 -15.172   4.006 +0.02 +0.02    +0.046 C 
DOCKED: ATOM     30  C   UNL d   1       4.432 -17.609  -4.283 -0.30 -0.02    +0.046 C 
DOCKED: ATOM     31  H   UNL d   1       2.623 -14.613   0.646 +0.06 +0.02    +0.166 HD
DOCKED: ATOM     32  H   UNL d   1       4.080 -15.894  -0.022 +0.04 +0.00    +0.166 HD
DOCKED: ENDROOT
DOCKED: BRANCH   7  33
DOCKED: ATOM     33  C   UNL d   1       8.170 -13.926  -2.871 -0.03 -0.06    +0.141 C 
DOCKED: BRANCH  33  34
DOCKED: ATOM     34  C   UNL d   1       9.665 -13.803  -2.987 -0.13 -0.19    +0.306 C 
DOCKED: ATOM     35  O   UNL d   1      10.423 -14.640  -3.446 -0.06 +0.10    -0.251 OA
DOCKED: BRANCH  34  36
DOCKED: ATOM     36  O   UNL d   1      10.126 -12.629  -2.519 -0.11 +0.56    -0.481 OA
DOCKED: ATOM     37  H   UNL d   1       9.319 -12.105  -2.328 -0.33 -0.48    +0.295 HD
DOCKED: ENDBRANCH  34  36
DOCKED: ENDBRANCH  33  34
DOCKED: ENDBRANCH   7  33
DOCKED: BRANCH  27  38
DOCKED: ATOM     38  C   UNL d   1       1.663 -18.356  -2.996 -0.24 -0.00    +0.017 C 
DOCKED: ATOM     39  C   UNL d   1       0.373 -18.403  -2.629 -0.28 -0.01    +0.092 C 
DOCKED: BRANCH  39  40
DOCKED: ATOM     40  C   UNL d   1      -0.572 -19.230  -3.385 -0.15 -0.05    +0.330 C 
DOCKED: ATOM     41  O   UNL d   1      -1.785 -19.237  -3.303 -0.15 +0.01    -0.246 OA
DOCKED: BRANCH  40  42
DOCKED: ATOM     42  O   UNL d   1       0.092 -20.024  -4.240 -0.05 +0.15    -0.477 OA
DOCKED: ATOM     43  H   UNL d   1       0.293 -19.437  -4.997 -0.43 -0.25    +0.295 HD
DOCKED: ENDBRANCH  40  42
DOCKED: ENDBRANCH  39  40
DOCKED: ENDBRANCH  27  38
DOCKED: BRANCH   8  44
DOCKED: ATOM     44  C   UNL d   1       5.039  -9.884   2.996 -0.31 -0.06    +0.141 C 
DOCKED: BRANCH  44  45
DOCKED: ATOM     45  C   UNL d   1       5.718 -10.956   3.806 -0.11 -0.16    +0.306 C 
DOCKED: ATOM     46  O   UNL d   1       5.403 -12.132   3.865 -0.07 +0.07    -0.251 OA
DOCKED: BRANCH  45  47
DOCKED: ATOM     47  O   UNL d   1       6.750 -10.481   4.527 -0.09 +0.36    -0.481 OA
DOCKED: ATOM     48  H   UNL d   1       7.434 -10.255   3.861 -0.47 -0.67    +0.295 HD
DOCKED: ENDBRANCH  45  47
DOCKED: ENDBRANCH  44  45
DOCKED: ENDBRANCH   8  44
DOCKED: BRANCH  22  49
DOCKED: ATOM     49  C   UNL d   1      -0.423 -17.780   2.162 -0.05 +0.01    +0.048 C 
DOCKED: BRANCH  49  50
DOCKED: ATOM     50  C   UNL d   1      -1.324 -17.997   0.946 -0.09 +0.05    +0.125 C 
DOCKED: BRANCH  50  51
DOCKED: ATOM     51  C   UNL d   1      -2.719 -17.510   1.218 -0.11 +0.24    +0.305 C 
DOCKED: ATOM     52  O   UNL d   1      -3.067 -16.664   2.023 -0.22 -0.22    -0.251 OA
DOCKED: BRANCH  51  53
DOCKED: ATOM     53  O   UNL d   1      -3.631 -18.138   0.450 -0.67 -0.61    -0.481 OA
DOCKED: ATOM     54  H   UNL d   1      -3.115 -18.828  -0.017 +0.07 +0.23    +0.295 HD
DOCKED: ENDBRANCH  51  53
DOCKED: ENDBRANCH  50  51
DOCKED: ENDBRANCH  49  50
DOCKED: ENDBRANCH  22  49
DOCKED: TORSDOF 13
DOCKED: TER
DOCKED: ENDMDL
________________________________________________________________________________


	BEGINNING GENETIC ALGORITHM DOCKING 52 of 100
Run: 52 Seed: 2010517485 1014560427 [ Run 52 of 100 GA/GALS ]
Beginning LAMARCKIAN GENETIC ALGORITHM (LGA), with a maximum of 25000000 energy evaluations.

Final-Value: -11.118


	FINAL GENETIC ALGORITHM DOCKED STATE
	_______________________________________________


Detailed state:  trans 1.712 2.732 -17.380 quatxyzw -0.113961 0.472559 -0.041003 -0.872937 center 0.153 0.018 -0.028 ntor 13 151.2084 -179.0699 -65.0798 54.9715 -148.2605 56.1968 131.9446 45.5179 50.5601 -54.1000 -77.8507 -105.5457 11.9326
State:	  1.712   2.732 -17.380  -0.234  0.969 -0.084 -58.396    151.21 -179.07  -65.08   54.97 -148.26   56.20  131.94   45.52   50.56  -54.10  -77.85 -105.55   11.93

DOCKED: MODEL       52
DOCKED: USER    Run = 52
DOCKED: USER    DPF = D:/Protein_go_brrr/autodock/final/AncB/heme/dock.dpf
DOCKED: USER  
DOCKED: USER    Estimated Free Energy of Binding    =   -2.59 kcal/mol  [=(1)+(2)+(3)-(4)]
DOCKED: USER    Estimated Inhibition Constant, Ki   =   12.71 mM (millimolar)  [Temperature = 298.15 K]
DOCKED: USER    
DOCKED: USER    (1) Final Intermolecular Energy     =   -6.46 kcal/mol
DOCKED: USER        vdW + Hbond + desolv Energy     =   -6.21 kcal/mol
DOCKED: USER        Electrostatic Energy            =   -0.25 kcal/mol
DOCKED: USER    (2) Final Total Internal Energy     =   -4.65 kcal/mol
DOCKED: USER    (3) Torsional Free Energy           =   +3.88 kcal/mol
DOCKED: USER    (4) Unbound System's Energy  [=(2)] =   -4.65 kcal/mol
DOCKED: USER    
DOCKED: USER    
DOCKED: USER    NEWDPF move heme_opt.pdbqt
DOCKED: USER    NEWDPF about 0.153000 0.018000 -0.028000
DOCKED: USER    NEWDPF tran0 1.711533 2.732409 -17.380005
DOCKED: USER    NEWDPF quaternion0 -0.113961 0.472559 -0.041003 -0.872937
DOCKED: USER    NEWDPF axisangle0 -0.233606 0.968692 -0.084051 -58.396442
DOCKED: USER    NEWDPF quat0 -0.233606 0.968692 -0.084051 -58.396442
DOCKED: USER    NEWDPF dihe0 151.21 -179.07 -65.08 54.97 -148.26 56.20 131.94 45.52 50.56 -54.10 -77.85 -105.55 11.93 
DOCKED: USER  keepresnum = 1 
DOCKED: USER  
DOCKED: REMARK  13 active torsions:
DOCKED: REMARK  status: ('A' for Active; 'I' for Inactive)
DOCKED: REMARK    1  A    between atoms: O_3  and  C_38 
DOCKED: REMARK    2  A    between atoms: O_4  and  C_40 
DOCKED: REMARK    3  A    between atoms: O_7  and  C_46 
DOCKED: REMARK    4  A    between atoms: O_9  and  C_48 
DOCKED: REMARK    5  A    between atoms: C_15  and  C_20 
DOCKED: REMARK    6  A    between atoms: C_16  and  C_23 
DOCKED: REMARK    7  A    between atoms: C_20  and  C_38 
DOCKED: REMARK    8  A    between atoms: C_23  and  C_40 
DOCKED: REMARK    9  A    between atoms: C_32  and  C_41 
DOCKED: REMARK   10  A    between atoms: C_37  and  C_45 
DOCKED: REMARK   11  A    between atoms: C_41  and  C_44 
DOCKED: REMARK   12  A    between atoms: C_44  and  C_46 
DOCKED: REMARK   13  A    between atoms: C_47  and  C_48 
DOCKED: USER                              x       y       z     vdW  Elec       q    Type
DOCKED: USER                           _______ _______ _______ _____ _____    ______ ____
DOCKED: ROOT
DOCKED: ATOM      1  O   UNL d   1      -0.895   5.482 -12.863 -0.85 -0.44    -0.289 OA
DOCKED: ATOM      2  O   UNL d   1      -0.892  -1.748 -14.894 -0.29 -0.48    -0.289 OA
DOCKED: ATOM      3  N   UNL d   1       0.689   4.340 -15.706 -0.09 -0.20    -0.247 NA
DOCKED: ATOM      4  N   UNL d   1       0.408   1.389 -15.507 -0.03 -0.18    -0.247 NA
DOCKED: ATOM      5  N   UNL d   1       2.378   1.154 -17.587 -0.01 -0.16    -0.354 N 
DOCKED: ATOM      6  N   UNL d   1       2.678   4.216 -17.774 -0.09 -0.20    -0.354 N 
DOCKED: ATOM      7  C   UNL d   1       0.563   6.495 -14.544 -0.35 +0.07    +0.084 A 
DOCKED: ATOM      8  C   UNL d   1      -1.489   0.531 -14.227 -0.14 +0.11    +0.084 A 
DOCKED: ATOM      9  C   UNL d   1      -0.653   1.726 -14.697 -0.14 +0.06    +0.058 A 
DOCKED: ATOM     10  C   UNL d   1       1.106   5.661 -15.708 -0.23 +0.04    +0.058 A 
DOCKED: ATOM     11  C   UNL d   1      -0.251   5.416 -13.894 -0.26 +0.25    +0.193 A 
DOCKED: ATOM     12  C   UNL d   1      -0.113   4.166 -14.707 -0.21 +0.13    +0.109 A 
DOCKED: ATOM     13  C   UNL d   1      -0.683  -0.551 -14.891 -0.09 +0.23    +0.193 A 
DOCKED: ATOM     14  C   UNL d   1       1.671   6.927 -13.580 -0.42 +0.01    +0.026 C 
DOCKED: ATOM     15  C   UNL d   1      -0.906   2.986 -14.308 -0.22 +0.08    +0.055 C 
DOCKED: ATOM     16  C   UNL d   1      -2.893   0.544 -14.839 -0.13 +0.04    +0.026 C 
DOCKED: ATOM     17  C   UNL d   1       0.442   0.101 -15.628 -0.06 +0.08    +0.109 A 
DOCKED: ATOM     18  C   UNL d   1       1.850   6.216 -16.683 -0.28 +0.04    +0.050 C 
DOCKED: ATOM     19  C   UNL d   1       2.324   5.545 -17.839 -0.21 +0.03    +0.045 A 
DOCKED: ATOM     20  C   UNL d   1       2.287  -0.158 -17.200 -0.05 +0.02    +0.045 A 
DOCKED: ATOM     21  C   UNL d   1       1.429  -0.721 -16.343 -0.09 +0.03    +0.057 C 
DOCKED: ATOM     22  C   UNL d   1       3.998   0.052 -18.699 -0.07 -0.01    -0.019 A 
DOCKED: ATOM     23  C   UNL d   1       3.383   1.378 -18.491 -0.08 +0.02    +0.045 A 
DOCKED: ATOM     24  C   UNL d   1       3.344  -0.853 -17.933 -0.05 -0.01    -0.022 A 
DOCKED: ATOM     25  C   UNL d   1       3.194   3.794 -18.978 -0.12 +0.03    +0.049 A 
DOCKED: ATOM     26  C   UNL d   1       2.582   5.988 -19.127 -0.16 -0.02    -0.018 A 
DOCKED: ATOM     27  C   UNL d   1       3.113   4.873 -19.847 -0.14 +0.00    +0.003 A 
DOCKED: ATOM     28  C   UNL d   1       3.772   2.503 -19.110 -0.03 +0.03    +0.052 C 
DOCKED: ATOM     29  C   UNL d   1       3.587  -2.319 -17.809 -0.08 +0.01    +0.046 C 
DOCKED: ATOM     30  C   UNL d   1       2.350   7.361 -19.659 -0.07 +0.05    +0.046 C 
DOCKED: ATOM     31  H   UNL d   1       1.701   1.842 -17.277 +0.04 +0.08    +0.166 HD
DOCKED: ATOM     32  H   UNL d   1       2.599   3.656 -16.934 +0.05 +0.09    +0.166 HD
DOCKED: ENDROOT
DOCKED: BRANCH   7  33
DOCKED: ATOM     33  C   UNL d   1      -0.330   7.675 -14.941 -0.25 +0.11    +0.141 C 
DOCKED: BRANCH  33  34
DOCKED: ATOM     34  C   UNL d   1      -1.796   7.355 -14.834 -0.11 +0.39    +0.306 C 
DOCKED: ATOM     35  O   UNL d   1      -2.513   6.953 -15.734 -0.14 -0.38    -0.251 OA
DOCKED: BRANCH  34  36
DOCKED: ATOM     36  O   UNL d   1      -2.281   7.556 -13.596 -0.12 -0.63    -0.481 OA
DOCKED: ATOM     37  H   UNL d   1      -1.525   7.364 -13.001 +0.16 +0.32    +0.295 HD
DOCKED: ENDBRANCH  34  36
DOCKED: ENDBRANCH  33  34
DOCKED: ENDBRANCH   7  33
DOCKED: BRANCH  27  38
DOCKED: ATOM     38  C   UNL d   1       3.530   4.899 -21.216 -0.08 +0.01    +0.017 C 
DOCKED: ATOM     39  C   UNL d   1       4.798   4.791 -21.642 -0.09 +0.05    +0.092 C 
DOCKED: BRANCH  39  40
DOCKED: ATOM     40  C   UNL d   1       5.091   4.814 -23.077 -0.00 +0.13    +0.330 C 
DOCKED: ATOM     41  O   UNL d   1       4.766   5.659 -23.889 -0.00 -0.09    -0.246 OA
DOCKED: BRANCH  40  42
DOCKED: ATOM     42  O   UNL d   1       5.812   3.735 -23.419 +0.01 -0.16    -0.477 OA
DOCKED: ATOM     43  H   UNL d   1       5.911   3.243 -22.578 +0.03 +0.11    +0.295 HD
DOCKED: ENDBRANCH  40  42
DOCKED: ENDBRANCH  39  40
DOCKED: ENDBRANCH  27  38
DOCKED: BRANCH   8  44
DOCKED: ATOM     44  C   UNL d   1      -1.546   0.320 -12.711 -0.20 +0.17    +0.141 C 
DOCKED: BRANCH  44  45
DOCKED: ATOM     45  C   UNL d   1      -0.674  -0.811 -12.234 -0.16 +0.31    +0.306 C 
DOCKED: ATOM     46  O   UNL d   1       0.503  -0.740 -11.925 -0.16 -0.16    -0.251 OA
DOCKED: BRANCH  45  47
DOCKED: ATOM     47  O   UNL d   1      -1.328  -1.986 -12.199 -0.11 -0.74    -0.481 OA
DOCKED: ATOM     48  H   UNL d   1      -0.887  -2.536 -12.881 +0.13 +0.46    +0.295 HD
DOCKED: ENDBRANCH  45  47
DOCKED: ENDBRANCH  44  45
DOCKED: ENDBRANCH   8  44
DOCKED: BRANCH  22  49
DOCKED: ATOM     49  C   UNL d   1       5.166  -0.202 -19.606 -0.08 +0.02    +0.048 C 
DOCKED: BRANCH  49  50
DOCKED: ATOM     50  C   UNL d   1       4.775  -0.094 -21.080 -0.02 +0.04    +0.125 C 
DOCKED: BRANCH  50  51
DOCKED: ATOM     51  C   UNL d   1       5.238   1.210 -21.664 -0.02 +0.10    +0.305 C 
DOCKED: ATOM     52  O   UNL d   1       6.290   1.788 -21.451 -0.06 -0.09    -0.251 OA
DOCKED: BRANCH  51  53
DOCKED: ATOM     53  O   UNL d   1       4.323   1.742 -22.498 +0.00 -0.15    -0.481 OA
DOCKED: ATOM     54  H   UNL d   1       4.816   1.885 -23.333 +0.01 +0.08    +0.295 HD
DOCKED: ENDBRANCH  51  53
DOCKED: ENDBRANCH  50  51
DOCKED: ENDBRANCH  49  50
DOCKED: ENDBRANCH  22  49
DOCKED: TORSDOF 13
DOCKED: TER
DOCKED: ENDMDL
________________________________________________________________________________


	BEGINNING GENETIC ALGORITHM DOCKING 53 of 100
Run: 53 Seed: 1261626275 960359246 [ Run 53 of 100 GA/GALS ]
Beginning LAMARCKIAN GENETIC ALGORITHM (LGA), with a maximum of 25000000 energy evaluations.

Final-Value: -10.817


	FINAL GENETIC ALGORITHM DOCKED STATE
	_______________________________________________


Detailed state:  trans 8.748 -14.647 -5.507 quatxyzw -0.672826 -0.233060 0.015878 -0.701951 center 0.153 0.018 -0.028 ntor 13 -50.4724 -168.5778 -111.5650 -29.0243 -122.6869 72.3034 126.1548 166.2235 -179.3537 -42.0236 -68.2136 -78.4157 -21.0330
State:	  8.748 -14.647  -5.507  -0.945 -0.327  0.022 -90.832    -50.47 -168.58 -111.57  -29.02 -122.69   72.30  126.15  166.22 -179.35  -42.02  -68.21  -78.42  -21.03

DOCKED: MODEL       53
DOCKED: USER    Run = 53
DOCKED: USER    DPF = D:/Protein_go_brrr/autodock/final/AncB/heme/dock.dpf
DOCKED: USER  
DOCKED: USER    Estimated Free Energy of Binding    =   -3.69 kcal/mol  [=(1)+(2)+(3)-(4)]
DOCKED: USER    Estimated Inhibition Constant, Ki   =    1.97 mM (millimolar)  [Temperature = 298.15 K]
DOCKED: USER    
DOCKED: USER    (1) Final Intermolecular Energy     =   -7.57 kcal/mol
DOCKED: USER        vdW + Hbond + desolv Energy     =   -7.33 kcal/mol
DOCKED: USER        Electrostatic Energy            =   -0.24 kcal/mol
DOCKED: USER    (2) Final Total Internal Energy     =   -3.25 kcal/mol
DOCKED: USER    (3) Torsional Free Energy           =   +3.88 kcal/mol
DOCKED: USER    (4) Unbound System's Energy  [=(2)] =   -3.25 kcal/mol
DOCKED: USER    
DOCKED: USER    
DOCKED: USER    NEWDPF move heme_opt.pdbqt
DOCKED: USER    NEWDPF about 0.153000 0.018000 -0.028000
DOCKED: USER    NEWDPF tran0 8.747580 -14.647177 -5.507181
DOCKED: USER    NEWDPF quaternion0 -0.672826 -0.233060 0.015878 -0.701951
DOCKED: USER    NEWDPF axisangle0 -0.944682 -0.327229 0.022294 -90.832458
DOCKED: USER    NEWDPF quat0 -0.944682 -0.327229 0.022294 -90.832458
DOCKED: USER    NEWDPF dihe0 -50.47 -168.58 -111.57 -29.02 -122.69 72.30 126.15 166.22 -179.35 -42.02 -68.21 -78.42 -21.03 
DOCKED: USER  keepresnum = 1 
DOCKED: USER  
DOCKED: REMARK  13 active torsions:
DOCKED: REMARK  status: ('A' for Active; 'I' for Inactive)
DOCKED: REMARK    1  A    between atoms: O_3  and  C_38 
DOCKED: REMARK    2  A    between atoms: O_4  and  C_40 
DOCKED: REMARK    3  A    between atoms: O_7  and  C_46 
DOCKED: REMARK    4  A    between atoms: O_9  and  C_48 
DOCKED: REMARK    5  A    between atoms: C_15  and  C_20 
DOCKED: REMARK    6  A    between atoms: C_16  and  C_23 
DOCKED: REMARK    7  A    between atoms: C_20  and  C_38 
DOCKED: REMARK    8  A    between atoms: C_23  and  C_40 
DOCKED: REMARK    9  A    between atoms: C_32  and  C_41 
DOCKED: REMARK   10  A    between atoms: C_37  and  C_45 
DOCKED: REMARK   11  A    between atoms: C_41  and  C_44 
DOCKED: REMARK   12  A    between atoms: C_44  and  C_46 
DOCKED: REMARK   13  A    between atoms: C_47  and  C_48 
DOCKED: USER                              x       y       z     vdW  Elec       q    Type
DOCKED: USER                           _______ _______ _______ _____ _____    ______ ____
DOCKED: ROOT
DOCKED: ATOM      1  O   UNL d   1       4.015 -15.766  -8.840 -0.94 +0.09    -0.289 OA
DOCKED: ATOM      2  O   UNL d   1       5.519 -17.476  -1.684 -0.02 +0.04    -0.289 OA
DOCKED: ATOM      3  N   UNL d   1       7.023 -15.010  -7.331 -0.14 +0.09    -0.247 NA
DOCKED: ATOM      4  N   UNL d   1       6.576 -15.776  -4.495 -0.13 +0.07    -0.247 NA
DOCKED: ATOM      5  N   UNL d   1       8.971 -14.332  -3.825 -0.08 +0.15    -0.354 N 
DOCKED: ATOM      6  N   UNL d   1       9.416 -13.525  -6.766 -0.08 +0.10    -0.354 N 
DOCKED: ATOM      7  C   UNL d   1       6.005 -14.511  -9.504 -0.28 -0.02    +0.084 A 
DOCKED: ATOM      8  C   UNL d   1       4.907 -17.505  -4.054 -0.24 -0.03    +0.084 A 
DOCKED: ATOM      9  C   UNL d   1       5.605 -16.576  -5.053 -0.29 -0.03    +0.058 A 
DOCKED: ATOM     10  C   UNL d   1       7.192 -14.369  -8.547 -0.19 -0.01    +0.058 A 
DOCKED: ATOM     11  C   UNL d   1       5.142 -15.361  -8.621 -0.17 -0.09    +0.193 A 
DOCKED: ATOM     12  C   UNL d   1       5.881 -15.616  -7.344 -0.26 -0.06    +0.109 A 
DOCKED: ATOM     13  C   UNL d   1       5.636 -17.056  -2.819 -0.07 -0.04    +0.193 A 
DOCKED: ATOM     14  C   UNL d   1       5.299 -13.174  -9.747 -0.51 -0.00    +0.026 C 
DOCKED: ATOM     15  C   UNL d   1       5.261 -16.515  -6.349 -0.09 -0.04    +0.055 C 
DOCKED: ATOM     16  C   UNL d   1       5.242 -18.976  -4.317 -0.21 -0.02    +0.026 C 
DOCKED: ATOM     17  C   UNL d   1       6.614 -16.001  -3.221 -0.12 -0.02    +0.109 A 
DOCKED: ATOM     18  C   UNL d   1       8.325 -13.745  -8.920 -0.18 -0.01    +0.050 C 
DOCKED: ATOM     19  C   UNL d   1       9.502 -13.638  -8.136 -0.11 -0.01    +0.045 A 
DOCKED: ATOM     20  C   UNL d   1       8.486 -14.581  -2.567 -0.15 -0.02    +0.045 A 
DOCKED: ATOM     21  C   UNL d   1       7.446 -15.340  -2.205 -0.13 -0.01    +0.057 C 
DOCKED: ATOM     22  C   UNL d   1      10.291 -13.191  -2.400 -0.19 +0.02    -0.019 A 
DOCKED: ATOM     23  C   UNL d   1      10.060 -13.502  -3.825 -0.18 -0.04    +0.045 A 
DOCKED: ATOM     24  C   UNL d   1       9.356 -13.834  -1.661 -0.17 +0.01    -0.022 A 
DOCKED: ATOM     25  C   UNL d   1      10.664 -13.343  -6.217 -0.13 -0.02    +0.049 A 
DOCKED: ATOM     26  C   UNL d   1      10.842 -13.564  -8.482 -0.05 +0.00    -0.018 A 
DOCKED: ATOM     27  C   UNL d   1      11.573 -13.398  -7.265 -0.08 -0.00    +0.003 A 
DOCKED: ATOM     28  C   UNL d   1      10.816 -13.046  -4.836 -0.04 -0.05    +0.052 C 
DOCKED: ATOM     29  C   UNL d   1       9.182 -13.841  -0.180 -0.13 -0.02    +0.046 C 
DOCKED: ATOM     30  C   UNL d   1      11.412 -13.644  -9.857 -0.02 +0.00    +0.046 C 
DOCKED: ATOM     31  H   UNL d   1       8.585 -14.798  -4.639 +0.05 -0.05    +0.166 HD
DOCKED: ATOM     32  H   UNL d   1       8.540 -13.536  -6.257 +0.06 -0.05    +0.166 HD
DOCKED: ENDROOT
DOCKED: BRANCH   7  33
DOCKED: ATOM     33  C   UNL d   1       6.306 -15.235 -10.821 -0.20 -0.04    +0.141 C 
DOCKED: BRANCH  33  34
DOCKED: ATOM     34  C   UNL d   1       5.788 -14.491 -12.022 -0.18 -0.05    +0.306 C 
DOCKED: ATOM     35  O   UNL d   1       4.617 -14.324 -12.317 -0.79 +0.05    -0.251 OA
DOCKED: BRANCH  34  36
DOCKED: ATOM     36  O   UNL d   1       6.775 -13.994 -12.789 -0.12 +0.04    -0.481 OA
DOCKED: ATOM     37  H   UNL d   1       6.580 -14.327 -13.690 +0.10 -0.04    +0.295 HD
DOCKED: ENDBRANCH  34  36
DOCKED: ENDBRANCH  33  34
DOCKED: ENDBRANCH   7  33
DOCKED: BRANCH  27  38
DOCKED: ATOM     38  C   UNL d   1      12.995 -13.262  -7.168 -0.04 -0.00    +0.017 C 
DOCKED: ATOM     39  C   UNL d   1      13.638 -12.403  -6.363 -0.05 -0.02    +0.092 C 
DOCKED: BRANCH  39  40
DOCKED: ATOM     40  C   UNL d   1      15.103 -12.375  -6.346 +0.01 -0.00    +0.330 C 
DOCKED: ATOM     41  O   UNL d   1      15.849 -11.977  -7.219 -0.00 -0.03    -0.246 OA
DOCKED: BRANCH  40  42
DOCKED: ATOM     42  O   UNL d   1      15.560 -12.861  -5.181 +0.01 +0.03    -0.477 OA
DOCKED: ATOM     43  H   UNL d   1      14.768 -13.260  -4.766 +0.02 -0.04    +0.295 HD
DOCKED: ENDBRANCH  40  42
DOCKED: ENDBRANCH  39  40
DOCKED: ENDBRANCH  27  38
DOCKED: BRANCH   8  44
DOCKED: ATOM     44  C   UNL d   1       3.396 -17.299  -3.905 -0.04 -0.04    +0.141 C 
DOCKED: BRANCH  44  45
DOCKED: ATOM     45  C   UNL d   1       3.034 -16.331  -2.810 -0.20 -0.04    +0.306 C 
DOCKED: ATOM     46  O   UNL d   1       3.028 -15.115  -2.887 -0.36 +0.01    -0.251 OA
DOCKED: BRANCH  45  47
DOCKED: ATOM     47  O   UNL d   1       2.722 -16.951  -1.657 -0.04 +0.03    -0.481 OA
DOCKED: ATOM     48  H   UNL d   1       3.566 -17.350  -1.355 +0.08 -0.02    +0.295 HD
DOCKED: ENDBRANCH  45  47
DOCKED: ENDBRANCH  44  45
DOCKED: ENDBRANCH   8  44
DOCKED: BRANCH  22  49
DOCKED: ATOM     49  C   UNL d   1      11.383 -12.292  -1.901 -0.18 -0.04    +0.048 C 
DOCKED: BRANCH  49  50
DOCKED: ATOM     50  C   UNL d   1      12.532 -13.085  -1.278 -0.05 -0.05    +0.125 C 
DOCKED: BRANCH  50  51
DOCKED: ATOM     51  C   UNL d   1      13.778 -12.967  -2.109 -0.01 -0.09    +0.305 C 
DOCKED: ATOM     52  O   UNL d   1      14.927 -13.173  -1.759 -0.00 +0.04    -0.251 OA
DOCKED: BRANCH  51  53
DOCKED: ATOM     53  O   UNL d   1      13.508 -12.573  -3.369 -0.02 +0.23    -0.481 OA
DOCKED: ATOM     54  H   UNL d   1      14.312 -12.084  -3.643 +0.03 -0.10    +0.295 HD
DOCKED: ENDBRANCH  51  53
DOCKED: ENDBRANCH  50  51
DOCKED: ENDBRANCH  49  50
DOCKED: ENDBRANCH  22  49
DOCKED: TORSDOF 13
DOCKED: TER
DOCKED: ENDMDL
________________________________________________________________________________


	BEGINNING GENETIC ALGORITHM DOCKING 54 of 100
Run: 54 Seed: 1433494323 1820486699 [ Run 54 of 100 GA/GALS ]
Beginning LAMARCKIAN GENETIC ALGORITHM (LGA), with a maximum of 25000000 energy evaluations.

Final-Value: -11.998


	FINAL GENETIC ALGORITHM DOCKED STATE
	_______________________________________________


Detailed state:  trans -1.357 16.908 10.028 quatxyzw 0.082200 0.752752 -0.631111 -0.168247 center 0.153 0.018 -0.028 ntor 13 115.4660 -129.7437 -89.3086 21.8533 -132.1143 -53.9661 133.1506 130.6722 29.0365 -68.8528 -50.9498 -27.3219 16.5178
State:	 -1.357  16.908  10.028   0.083  0.764 -0.640 -160.628    115.47 -129.74  -89.31   21.85 -132.11  -53.97  133.15  130.67   29.04  -68.85  -50.95  -27.32   16.52

DOCKED: MODEL       54
DOCKED: USER    Run = 54
DOCKED: USER    DPF = D:/Protein_go_brrr/autodock/final/AncB/heme/dock.dpf
DOCKED: USER  
DOCKED: USER    Estimated Free Energy of Binding    =   -3.72 kcal/mol  [=(1)+(2)+(3)-(4)]
DOCKED: USER    Estimated Inhibition Constant, Ki   =    1.87 mM (millimolar)  [Temperature = 298.15 K]
DOCKED: USER    
DOCKED: USER    (1) Final Intermolecular Energy     =   -7.60 kcal/mol
DOCKED: USER        vdW + Hbond + desolv Energy     =   -7.41 kcal/mol
DOCKED: USER        Electrostatic Energy            =   -0.19 kcal/mol
DOCKED: USER    (2) Final Total Internal Energy     =   -4.40 kcal/mol
DOCKED: USER    (3) Torsional Free Energy           =   +3.88 kcal/mol
DOCKED: USER    (4) Unbound System's Energy  [=(2)] =   -4.40 kcal/mol
DOCKED: USER    
DOCKED: USER    
DOCKED: USER    NEWDPF move heme_opt.pdbqt
DOCKED: USER    NEWDPF about 0.153000 0.018000 -0.028000
DOCKED: USER    NEWDPF tran0 -1.356571 16.908051 10.028342
DOCKED: USER    NEWDPF quaternion0 0.082200 0.752752 -0.631111 -0.168247
DOCKED: USER    NEWDPF axisangle0 0.083389 0.763637 -0.640238 -160.628151
DOCKED: USER    NEWDPF quat0 0.083389 0.763637 -0.640238 -160.628151
DOCKED: USER    NEWDPF dihe0 115.47 -129.74 -89.31 21.85 -132.11 -53.97 133.15 130.67 29.04 -68.85 -50.95 -27.32 16.52 
DOCKED: USER  keepresnum = 1 
DOCKED: USER  
DOCKED: REMARK  13 active torsions:
DOCKED: REMARK  status: ('A' for Active; 'I' for Inactive)
DOCKED: REMARK    1  A    between atoms: O_3  and  C_38 
DOCKED: REMARK    2  A    between atoms: O_4  and  C_40 
DOCKED: REMARK    3  A    between atoms: O_7  and  C_46 
DOCKED: REMARK    4  A    between atoms: O_9  and  C_48 
DOCKED: REMARK    5  A    between atoms: C_15  and  C_20 
DOCKED: REMARK    6  A    between atoms: C_16  and  C_23 
DOCKED: REMARK    7  A    between atoms: C_20  and  C_38 
DOCKED: REMARK    8  A    between atoms: C_23  and  C_40 
DOCKED: REMARK    9  A    between atoms: C_32  and  C_41 
DOCKED: REMARK   10  A    between atoms: C_37  and  C_45 
DOCKED: REMARK   11  A    between atoms: C_41  and  C_44 
DOCKED: REMARK   12  A    between atoms: C_44  and  C_46 
DOCKED: REMARK   13  A    between atoms: C_47  and  C_48 
DOCKED: USER                              x       y       z     vdW  Elec       q    Type
DOCKED: USER                           _______ _______ _______ _____ _____    ______ ____
DOCKED: ROOT
DOCKED: ATOM      1  O   UNL d   1       4.526  17.092  10.379 -0.06 +0.06    -0.289 OA
DOCKED: ATOM      2  O   UNL d   1      -0.751  17.767  15.679 -0.03 +0.06    -0.289 OA
DOCKED: ATOM      3  N   UNL d   1       1.150  17.052   9.670 -0.15 +0.09    -0.247 NA
DOCKED: ATOM      4  N   UNL d   1      -0.112  17.070  12.360 -0.11 +0.09    -0.247 NA
DOCKED: ATOM      5  N   UNL d   1      -2.596  16.360  11.098 -0.01 +0.15    -0.354 N 
DOCKED: ATOM      6  N   UNL d   1      -1.274  16.323   8.313 -0.14 +0.13    -0.354 N 
DOCKED: ATOM      7  C   UNL d   1       3.195  16.687   8.369 -0.17 -0.03    +0.084 A 
DOCKED: ATOM      8  C   UNL d   1       1.170  18.061  14.190 -0.04 -0.01    +0.084 A 
DOCKED: ATOM      9  C   UNL d   1       1.099  17.614  12.726 -0.10 -0.01    +0.058 A 
DOCKED: ATOM     10  C   UNL d   1       1.665  16.746   8.422 -0.25 -0.02    +0.058 A 
DOCKED: ATOM     11  C   UNL d   1       3.454  17.032   9.804 -0.09 -0.06    +0.193 A 
DOCKED: ATOM     12  C   UNL d   1       2.137  17.255  10.482 -0.14 -0.04    +0.109 A 
DOCKED: ATOM     13  C   UNL d   1      -0.213  17.636  14.597 -0.05 -0.04    +0.193 A 
DOCKED: ATOM     14  C   UNL d   1       3.706  15.270   8.099 -0.16 -0.01    +0.026 C 
DOCKED: ATOM     15  C   UNL d   1       2.145  17.699  11.890 -0.11 -0.01    +0.055 C 
DOCKED: ATOM     16  C   UNL d   1       1.273  19.584  14.315 -0.01 -0.00    +0.026 C 
DOCKED: ATOM     17  C   UNL d   1      -0.883  17.044  13.400 -0.15 -0.03    +0.109 A 
DOCKED: ATOM     18  C   UNL d   1       0.917  16.599   7.312 -0.23 -0.03    +0.050 C 
DOCKED: ATOM     19  C   UNL d   1      -0.495  16.721   7.250 -0.11 -0.02    +0.045 A 
DOCKED: ATOM     20  C   UNL d   1      -2.944  16.193  12.413 -0.22 -0.02    +0.045 A 
DOCKED: ATOM     21  C   UNL d   1      -2.244  16.497  13.510 -0.23 -0.02    +0.057 C 
DOCKED: ATOM     22  C   UNL d   1      -4.653  15.443  11.096 -0.26 +0.00    -0.019 A 
DOCKED: ATOM     23  C   UNL d   1      -3.564  15.935  10.228 -0.22 -0.01    +0.045 A 
DOCKED: ATOM     24  C   UNL d   1      -4.280  15.599  12.388 -0.26 +0.01    -0.022 A 
DOCKED: ATOM     25  C   UNL d   1      -2.609  16.443   8.005 -0.21 -0.01    +0.049 A 
DOCKED: ATOM     26  C   UNL d   1      -1.344  17.144   6.240 -0.13 +0.01    -0.018 A 
DOCKED: ATOM     27  C   UNL d   1      -2.677  16.986   6.729 -0.16 -0.00    +0.003 A 
DOCKED: ATOM     28  C   UNL d   1      -3.608  15.948   8.887 -0.26 -0.01    +0.052 C 
DOCKED: ATOM     29  C   UNL d   1      -5.041  15.264  13.626 -0.15 -0.03    +0.046 C 
DOCKED: ATOM     30  C   UNL d   1      -0.944  17.667   4.902 -0.18 -0.05    +0.046 C 
DOCKED: ATOM     31  H   UNL d   1      -1.735  16.828  10.837 -0.23 -0.08    +0.166 HD
DOCKED: ATOM     32  H   UNL d   1      -0.896  15.957   9.179 -0.50 -0.10    +0.166 HD
DOCKED: ENDROOT
DOCKED: BRANCH   7  33
DOCKED: ATOM     33  C   UNL d   1       3.860  17.711   7.442 -0.05 -0.04    +0.141 C 
DOCKED: BRANCH  33  34
DOCKED: ATOM     34  C   UNL d   1       3.893  19.093   8.034 +0.00 -0.06    +0.306 C 
DOCKED: ATOM     35  O   UNL d   1       2.961  19.877   8.087 -0.00 +0.05    -0.251 OA
DOCKED: BRANCH  34  36
DOCKED: ATOM     36  O   UNL d   1       5.100  19.415   8.533 +0.00 +0.06    -0.481 OA
DOCKED: ATOM     37  H   UNL d   1       5.218  18.815   9.300 +0.02 -0.04    +0.295 HD
DOCKED: ENDBRANCH  34  36
DOCKED: ENDBRANCH  33  34
DOCKED: ENDBRANCH   7  33
DOCKED: BRANCH  27  38
DOCKED: ATOM     38  C   UNL d   1      -3.868  17.292   5.996 -0.13 -0.01    +0.017 C 
DOCKED: ATOM     39  C   UNL d   1      -5.108  17.314   6.506 -0.08 -0.03    +0.092 C 
DOCKED: BRANCH  39  40
DOCKED: ATOM     40  C   UNL d   1      -6.245  17.661   5.649 -0.02 -0.09    +0.330 C 
DOCKED: ATOM     41  O   UNL d   1      -6.396  18.670   4.987 -0.01 +0.06    -0.246 OA
DOCKED: BRANCH  40  42
DOCKED: ATOM     42  O   UNL d   1      -7.156  16.676   5.669 -0.04 +0.15    -0.477 OA
DOCKED: ATOM     43  H   UNL d   1      -7.295  16.504   6.623 +0.03 -0.08    +0.295 HD
DOCKED: ENDBRANCH  40  42
DOCKED: ENDBRANCH  39  40
DOCKED: ENDBRANCH  27  38
DOCKED: BRANCH   8  44
DOCKED: ATOM     44  C   UNL d   1       2.232  17.361  15.043 -0.07 -0.01    +0.141 C 
DOCKED: BRANCH  44  45
DOCKED: ATOM     45  C   UNL d   1       1.653  16.588  16.198 -0.10 -0.01    +0.306 C 
DOCKED: ATOM     46  O   UNL d   1       1.289  15.425  16.185 -0.67 -0.03    -0.251 OA
DOCKED: BRANCH  45  47
DOCKED: ATOM     47  O   UNL d   1       1.536  17.336  17.311 -0.01 +0.03    -0.481 OA
DOCKED: ATOM     48  H   UNL d   1       0.642  17.734  17.249 +0.05 -0.03    +0.295 HD
DOCKED: ENDBRANCH  45  47
DOCKED: ENDBRANCH  44  45
DOCKED: ENDBRANCH   8  44
DOCKED: BRANCH  22  49
DOCKED: ATOM     49  C   UNL d   1      -5.937  14.858  10.587 -0.27 +0.00    +0.048 C 
DOCKED: BRANCH  49  50
DOCKED: ATOM     50  C   UNL d   1      -6.792  15.901   9.868 -0.20 +0.00    +0.125 C 
DOCKED: BRANCH  50  51
DOCKED: ATOM     51  C   UNL d   1      -7.239  15.396   8.525 -0.14 -0.03    +0.305 C 
DOCKED: ATOM     52  O   UNL d   1      -8.380  15.309   8.106 -0.19 +0.02    -0.251 OA
DOCKED: BRANCH  51  53
DOCKED: ATOM     53  O   UNL d   1      -6.199  15.005   7.762 +0.02 +0.16    -0.481 OA
DOCKED: ATOM     54  H   UNL d   1      -6.549  15.040   6.847 -0.41 -0.20    +0.295 HD
DOCKED: ENDBRANCH  51  53
DOCKED: ENDBRANCH  50  51
DOCKED: ENDBRANCH  49  50
DOCKED: ENDBRANCH  22  49
DOCKED: TORSDOF 13
DOCKED: TER
DOCKED: ENDMDL
________________________________________________________________________________


	BEGINNING GENETIC ALGORITHM DOCKING 55 of 100
Run: 55 Seed: 1879134908 1848638033 [ Run 55 of 100 GA/GALS ]
Beginning LAMARCKIAN GENETIC ALGORITHM (LGA), with a maximum of 25000000 energy evaluations.

Final-Value: -11.541


	FINAL GENETIC ALGORITHM DOCKED STATE
	_______________________________________________


Detailed state:  trans -7.439 16.052 5.599 quatxyzw -0.466544 -0.601457 0.392423 0.516324 center 0.153 0.018 -0.028 ntor 13 140.6411 123.0217 100.1892 -22.2387 -135.8857 -88.8588 -46.5634 156.9026 20.8720 -124.2005 57.4258 26.2246 -157.0732
State:	 -7.439  16.052   5.599  -0.545 -0.702  0.458 117.828    140.64  123.02  100.19  -22.24 -135.89  -88.86  -46.56  156.90   20.87 -124.20   57.43   26.22 -157.07

DOCKED: MODEL       55
DOCKED: USER    Run = 55
DOCKED: USER    DPF = D:/Protein_go_brrr/autodock/final/AncB/heme/dock.dpf
DOCKED: USER  
DOCKED: USER    Estimated Free Energy of Binding    =   -5.25 kcal/mol  [=(1)+(2)+(3)-(4)]
DOCKED: USER    Estimated Inhibition Constant, Ki   =  141.50 uM (micromolar)  [Temperature = 298.15 K]
DOCKED: USER    
DOCKED: USER    (1) Final Intermolecular Energy     =   -9.13 kcal/mol
DOCKED: USER        vdW + Hbond + desolv Energy     =   -8.54 kcal/mol
DOCKED: USER        Electrostatic Energy            =   -0.59 kcal/mol
DOCKED: USER    (2) Final Total Internal Energy     =   -2.41 kcal/mol
DOCKED: USER    (3) Torsional Free Energy           =   +3.88 kcal/mol
DOCKED: USER    (4) Unbound System's Energy  [=(2)] =   -2.41 kcal/mol
DOCKED: USER    
DOCKED: USER    
DOCKED: USER    NEWDPF move heme_opt.pdbqt
DOCKED: USER    NEWDPF about 0.153000 0.018000 -0.028000
DOCKED: USER    NEWDPF tran0 -7.439019 16.052377 5.599493
DOCKED: USER    NEWDPF quaternion0 -0.466544 -0.601457 0.392423 0.516324
DOCKED: USER    NEWDPF axisangle0 -0.544778 -0.702314 0.458227 117.828053
DOCKED: USER    NEWDPF quat0 -0.544778 -0.702314 0.458227 117.828053
DOCKED: USER    NEWDPF dihe0 140.64 123.02 100.19 -22.24 -135.89 -88.86 -46.56 156.90 20.87 -124.20 57.43 26.22 -157.07 
DOCKED: USER  keepresnum = 1 
DOCKED: USER  
DOCKED: REMARK  13 active torsions:
DOCKED: REMARK  status: ('A' for Active; 'I' for Inactive)
DOCKED: REMARK    1  A    between atoms: O_3  and  C_38 
DOCKED: REMARK    2  A    between atoms: O_4  and  C_40 
DOCKED: REMARK    3  A    between atoms: O_7  and  C_46 
DOCKED: REMARK    4  A    between atoms: O_9  and  C_48 
DOCKED: REMARK    5  A    between atoms: C_15  and  C_20 
DOCKED: REMARK    6  A    between atoms: C_16  and  C_23 
DOCKED: REMARK    7  A    between atoms: C_20  and  C_38 
DOCKED: REMARK    8  A    between atoms: C_23  and  C_40 
DOCKED: REMARK    9  A    between atoms: C_32  and  C_41 
DOCKED: REMARK   10  A    between atoms: C_37  and  C_45 
DOCKED: REMARK   11  A    between atoms: C_41  and  C_44 
DOCKED: REMARK   12  A    between atoms: C_44  and  C_46 
DOCKED: REMARK   13  A    between atoms: C_47  and  C_48 
DOCKED: USER                              x       y       z     vdW  Elec       q    Type
DOCKED: USER                           _______ _______ _______ _____ _____    ______ ____
DOCKED: ROOT
DOCKED: ATOM      1  O   UNL d   1      -5.465  14.993  11.053 -0.18 +0.01    -0.289 OA
DOCKED: ATOM      2  O   UNL d   1     -12.441  15.900   8.426 -0.05 -0.01    -0.289 OA
DOCKED: ATOM      3  N   UNL d   1      -6.136  15.741   7.753 -0.13 +0.06    -0.247 NA
DOCKED: ATOM      4  N   UNL d   1      -9.101  15.603   7.611 -0.16 +0.02    -0.247 NA
DOCKED: ATOM      5  N   UNL d   1      -8.872  15.608   4.745 -0.12 +0.12    -0.354 N 
DOCKED: ATOM      6  N   UNL d   1      -5.796  15.731   4.902 -0.13 +0.16    -0.354 N 
DOCKED: ATOM      7  C   UNL d   1      -4.117  15.175   9.022 -0.30 -0.02    +0.084 A 
DOCKED: ATOM      8  C   UNL d   1     -10.340  16.024   9.675 -0.14 +0.01    +0.084 A 
DOCKED: ATOM      9  C   UNL d   1      -8.996  15.830   8.966 -0.19 +0.00    +0.058 A 
DOCKED: ATOM     10  C   UNL d   1      -4.769  15.532   7.683 -0.24 -0.01    +0.058 A 
DOCKED: ATOM     11  C   UNL d   1      -5.354  15.238   9.865 -0.20 -0.02    +0.193 A 
DOCKED: ATOM     12  C   UNL d   1      -6.506  15.615   8.986 -0.21 -0.01    +0.109 A 
DOCKED: ATOM     13  C   UNL d   1     -11.229  15.829   8.480 -0.12 +0.01    +0.193 A 
DOCKED: ATOM     14  C   UNL d   1      -3.580  13.742   9.035 -0.35 -0.00    +0.026 C 
DOCKED: ATOM     15  C   UNL d   1      -7.824  15.829   9.619 -0.23 +0.00    +0.055 C 
DOCKED: ATOM     16  C   UNL d   1     -10.509  17.458  10.187 -0.06 +0.00    +0.026 C 
DOCKED: ATOM     17  C   UNL d   1     -10.356  15.575   7.294 -0.19 -0.01    +0.109 A 
DOCKED: ATOM     18  C   UNL d   1      -4.035  15.709   6.568 -0.28 -0.02    +0.050 C 
DOCKED: ATOM     19  C   UNL d   1      -4.540  16.121   5.308 -0.22 -0.02    +0.045 A 
DOCKED: ATOM     20  C   UNL d   1     -10.205  15.316   4.875 -0.22 -0.01    +0.045 A 
DOCKED: ATOM     21  C   UNL d   1     -10.956  15.303   5.980 -0.22 -0.01    +0.057 C 
DOCKED: ATOM     22  C   UNL d   1      -9.619  15.136   2.674 -0.20 +0.01    -0.019 A 
DOCKED: ATOM     23  C   UNL d   1      -8.427  15.525   3.453 -0.25 -0.02    +0.045 A 
DOCKED: ATOM     24  C   UNL d   1     -10.669  15.015   3.521 -0.17 +0.00    -0.022 A 
DOCKED: ATOM     25  C   UNL d   1      -6.044  16.163   3.620 -0.19 -0.02    +0.049 A 
DOCKED: ATOM     26  C   UNL d   1      -3.972  16.856   4.279 -0.20 +0.01    -0.018 A 
DOCKED: ATOM     27  C   UNL d   1      -4.934  16.896   3.223 -0.18 -0.00    +0.003 A 
DOCKED: ATOM     28  C   UNL d   1      -7.214  15.751   2.925 -0.18 -0.02    +0.052 C 
DOCKED: ATOM     29  C   UNL d   1     -12.082  14.655   3.210 -0.10 -0.01    +0.046 C 
DOCKED: ATOM     30  C   UNL d   1      -2.620  17.485   4.274 -0.15 -0.05    +0.046 C 
DOCKED: ATOM     31  H   UNL d   1      -8.324  15.928   5.537 -0.07 -0.06    +0.166 HD
DOCKED: ATOM     32  H   UNL d   1      -6.419  15.168   5.469 -0.46 -0.11    +0.166 HD
DOCKED: ENDROOT
DOCKED: BRANCH   7  33
DOCKED: ATOM     33  C   UNL d   1      -3.070  16.173   9.529 -0.19 -0.04    +0.141 C 
DOCKED: BRANCH  33  34
DOCKED: ATOM     34  C   UNL d   1      -3.673  17.491   9.933 -0.04 -0.06    +0.306 C 
DOCKED: ATOM     35  O   UNL d   1      -3.970  18.407   9.185 -0.02 +0.04    -0.251 OA
DOCKED: BRANCH  34  36
DOCKED: ATOM     36  O   UNL d   1      -3.873  17.584  11.259 +0.01 +0.10    -0.481 OA
DOCKED: ATOM     37  H   UNL d   1      -4.228  16.706  11.518 +0.09 -0.06    +0.295 HD
DOCKED: ENDBRANCH  34  36
DOCKED: ENDBRANCH  33  34
DOCKED: ENDBRANCH   7  33
DOCKED: BRANCH  27  38
DOCKED: ATOM     38  C   UNL d   1      -4.747  17.545   1.960 -0.16 -0.02    +0.017 C 
DOCKED: ATOM     39  C   UNL d   1      -5.473  18.577   1.504 -0.10 -0.07    +0.092 C 
DOCKED: BRANCH  39  40
DOCKED: ATOM     40  C   UNL d   1      -5.168  19.164   0.197 -0.04 -0.26    +0.330 C 
DOCKED: ATOM     41  O   UNL d   1      -4.412  20.085  -0.046 -0.03 +0.13    -0.246 OA
DOCKED: BRANCH  40  42
DOCKED: ATOM     42  O   UNL d   1      -5.850  18.525  -0.766 +0.02 +0.55    -0.477 OA
DOCKED: ATOM     43  H   UNL d   1      -5.575  17.590  -0.668 -0.47 -0.83    +0.295 HD
DOCKED: ENDBRANCH  40  42
DOCKED: ENDBRANCH  39  40
DOCKED: ENDBRANCH  27  38
DOCKED: BRANCH   8  44
DOCKED: ATOM     44  C   UNL d   1     -10.662  15.003  10.771 +0.18 +0.07    +0.141 C 
DOCKED: BRANCH  44  45
DOCKED: ATOM     45  C   UNL d   1     -12.051  15.151  11.332 -0.07 +0.11    +0.306 C 
DOCKED: ATOM     46  O   UNL d   1     -12.381  15.833  12.287 -0.05 -0.07    -0.251 OA
DOCKED: BRANCH  45  47
DOCKED: ATOM     47  O   UNL d   1     -12.955  14.405  10.671 -0.05 -0.12    -0.481 OA
DOCKED: ATOM     48  H   UNL d   1     -13.171  14.929   9.870 +0.05 +0.04    +0.295 HD
DOCKED: ENDBRANCH  45  47
DOCKED: ENDBRANCH  44  45
DOCKED: ENDBRANCH   8  44
DOCKED: BRANCH  22  49
DOCKED: ATOM     49  C   UNL d   1      -9.619  14.906   1.191 -0.19 -0.02    +0.048 C 
DOCKED: BRANCH  49  50
DOCKED: ATOM     50  C   UNL d   1     -10.031  13.477   0.837 -0.18 -0.03    +0.125 C 
DOCKED: BRANCH  50  51
DOCKED: ATOM     51  C   UNL d   1      -8.954  12.788   0.049 -0.17 -0.08    +0.305 C 
DOCKED: ATOM     52  O   UNL d   1      -8.700  11.596   0.021 -0.87 +0.01    -0.251 OA
DOCKED: BRANCH  51  53
DOCKED: ATOM     53  O   UNL d   1      -8.222  13.659  -0.675 -0.25 +0.26    -0.481 OA
DOCKED: ATOM     54  H   UNL d   1      -7.376  13.190  -0.827 +0.08 -0.23    +0.295 HD
DOCKED: ENDBRANCH  51  53
DOCKED: ENDBRANCH  50  51
DOCKED: ENDBRANCH  49  50
DOCKED: ENDBRANCH  22  49
DOCKED: TORSDOF 13
DOCKED: TER
DOCKED: ENDMDL
________________________________________________________________________________


	BEGINNING GENETIC ALGORITHM DOCKING 56 of 100
Run: 56 Seed: 1375441516 424205195 [ Run 56 of 100 GA/GALS ]
Beginning LAMARCKIAN GENETIC ALGORITHM (LGA), with a maximum of 25000000 energy evaluations.

Final-Value: -12.034


	FINAL GENETIC ALGORITHM DOCKED STATE
	_______________________________________________


Detailed state:  trans -4.400 -10.416 12.261 quatxyzw -0.009105 0.609505 -0.683395 -0.401736 center 0.153 0.018 -0.028 ntor 13 84.8694 -165.5932 -170.8672 -104.0871 -157.3323 -5.0359 139.7620 91.0177 85.0704 -10.3408 50.3106 -84.7119 145.8151
State:	 -4.400 -10.416  12.261  -0.010  0.666 -0.746 -132.626     84.87 -165.59 -170.87 -104.09 -157.33   -5.04  139.76   91.02   85.07  -10.34   50.31  -84.71  145.82

DOCKED: MODEL       56
DOCKED: USER    Run = 56
DOCKED: USER    DPF = D:/Protein_go_brrr/autodock/final/AncB/heme/dock.dpf
DOCKED: USER  
DOCKED: USER    Estimated Free Energy of Binding    =   -4.95 kcal/mol  [=(1)+(2)+(3)-(4)]
DOCKED: USER    Estimated Inhibition Constant, Ki   =  234.11 uM (micromolar)  [Temperature = 298.15 K]
DOCKED: USER    
DOCKED: USER    (1) Final Intermolecular Energy     =   -8.83 kcal/mol
DOCKED: USER        vdW + Hbond + desolv Energy     =   -8.39 kcal/mol
DOCKED: USER        Electrostatic Energy            =   -0.44 kcal/mol
DOCKED: USER    (2) Final Total Internal Energy     =   -3.20 kcal/mol
DOCKED: USER    (3) Torsional Free Energy           =   +3.88 kcal/mol
DOCKED: USER    (4) Unbound System's Energy  [=(2)] =   -3.20 kcal/mol
DOCKED: USER    
DOCKED: USER    
DOCKED: USER    NEWDPF move heme_opt.pdbqt
DOCKED: USER    NEWDPF about 0.153000 0.018000 -0.028000
DOCKED: USER    NEWDPF tran0 -4.399537 -10.416312 12.260510
DOCKED: USER    NEWDPF quaternion0 -0.009105 0.609505 -0.683395 -0.401736
DOCKED: USER    NEWDPF axisangle0 -0.009943 0.665576 -0.746264 -132.626486
DOCKED: USER    NEWDPF quat0 -0.009943 0.665576 -0.746264 -132.626486
DOCKED: USER    NEWDPF dihe0 84.87 -165.59 -170.87 -104.09 -157.33 -5.04 139.76 91.02 85.07 -10.34 50.31 -84.71 145.82 
DOCKED: USER  keepresnum = 1 
DOCKED: USER  
DOCKED: REMARK  13 active torsions:
DOCKED: REMARK  status: ('A' for Active; 'I' for Inactive)
DOCKED: REMARK    1  A    between atoms: O_3  and  C_38 
DOCKED: REMARK    2  A    between atoms: O_4  and  C_40 
DOCKED: REMARK    3  A    between atoms: O_7  and  C_46 
DOCKED: REMARK    4  A    between atoms: O_9  and  C_48 
DOCKED: REMARK    5  A    between atoms: C_15  and  C_20 
DOCKED: REMARK    6  A    between atoms: C_16  and  C_23 
DOCKED: REMARK    7  A    between atoms: C_20  and  C_38 
DOCKED: REMARK    8  A    between atoms: C_23  and  C_40 
DOCKED: REMARK    9  A    between atoms: C_32  and  C_41 
DOCKED: REMARK   10  A    between atoms: C_37  and  C_45 
DOCKED: REMARK   11  A    between atoms: C_41  and  C_44 
DOCKED: REMARK   12  A    between atoms: C_44  and  C_46 
DOCKED: REMARK   13  A    between atoms: C_47  and  C_48 
DOCKED: USER                              x       y       z     vdW  Elec       q    Type
DOCKED: USER                           _______ _______ _______ _____ _____    ______ ____
DOCKED: ROOT
DOCKED: ATOM      1  O   UNL d   1       0.633  -7.697  13.686 -0.04 -0.01    -0.289 OA
DOCKED: ATOM      2  O   UNL d   1      -6.001  -7.943  17.196 -0.35 +0.01    -0.289 OA
DOCKED: ATOM      3  N   UNL d   1      -2.109  -9.333  12.383 -0.12 -0.06    -0.247 NA
DOCKED: ATOM      4  N   UNL d   1      -4.117  -9.146  14.566 -0.09 -0.11    -0.247 NA
DOCKED: ATOM      5  N   UNL d   1      -5.667 -11.134  13.186 -0.09 -0.22    -0.354 N 
DOCKED: ATOM      6  N   UNL d   1      -3.571 -11.337  10.935 -0.05 -0.11    -0.354 N 
DOCKED: ATOM      7  C   UNL d   1       0.248  -9.131  11.744 -0.10 +0.01    +0.084 A 
DOCKED: ATOM      8  C   UNL d   1      -3.908  -7.270  16.119 -0.18 +0.00    +0.084 A 
DOCKED: ATOM      9  C   UNL d   1      -3.343  -8.070  14.940 -0.15 +0.01    +0.058 A 
DOCKED: ATOM     10  C   UNL d   1      -1.143  -9.708  11.465 -0.15 +0.01    +0.058 A 
DOCKED: ATOM     11  C   UNL d   1      -0.107  -8.349  12.972 -0.08 +0.02    +0.193 A 
DOCKED: ATOM     12  C   UNL d   1      -1.569  -8.531  13.242 -0.15 +0.02    +0.109 A 
DOCKED: ATOM     13  C   UNL d   1      -5.126  -8.114  16.369 -0.12 +0.04    +0.193 A 
DOCKED: ATOM     14  C   UNL d   1       1.256 -10.219  12.124 -0.04 +0.00    +0.026 C 
DOCKED: ATOM     15  C   UNL d   1      -2.170  -7.774  14.359 -0.21 +0.01    +0.055 C 
DOCKED: ATOM     16  C   UNL d   1      -4.358  -5.870  15.692 -0.28 -0.01    +0.026 C 
DOCKED: ATOM     17  C   UNL d   1      -5.132  -9.221  15.366 -0.06 +0.07    +0.109 A 
DOCKED: ATOM     18  C   UNL d   1      -1.393 -10.439  10.363 -0.17 +0.01    +0.050 C 
DOCKED: ATOM     19  C   UNL d   1      -2.663 -10.942   9.979 -0.19 +0.01    +0.045 A 
DOCKED: ATOM     20  C   UNL d   1      -6.353 -11.083  14.372 -0.19 +0.03    +0.045 A 
DOCKED: ATOM     21  C   UNL d   1      -6.193 -10.238  15.396 -0.08 +0.04    +0.057 C 
DOCKED: ATOM     22  C   UNL d   1      -7.187 -12.795  13.111 -0.30 -0.01    -0.019 A 
DOCKED: ATOM     23  C   UNL d   1      -6.100 -12.137  12.359 -0.25 +0.02    +0.045 A 
DOCKED: ATOM     24  C   UNL d   1      -7.333 -12.166  14.301 -0.26 -0.01    -0.022 A 
DOCKED: ATOM     25  C   UNL d   1      -4.692 -11.873  10.345 -0.21 +0.02    +0.049 A 
DOCKED: ATOM     26  C   UNL d   1      -3.222 -11.193   8.736 -0.26 -0.01    -0.018 A 
DOCKED: ATOM     27  C   UNL d   1      -4.512 -11.762   8.973 -0.25 +0.00    +0.003 A 
DOCKED: ATOM     28  C   UNL d   1      -5.702 -12.493  11.128 -0.25 +0.03    +0.052 C 
DOCKED: ATOM     29  C   UNL d   1      -8.302 -12.455  15.397 -0.22 +0.02    +0.046 C 
DOCKED: ATOM     30  C   UNL d   1      -2.601 -10.919   7.408 -0.38 +0.01    +0.046 C 
DOCKED: ATOM     31  H   UNL d   1      -4.973 -10.434  12.948 +0.06 +0.10    +0.166 HD
DOCKED: ATOM     32  H   UNL d   1      -3.400 -11.272  11.932 +0.05 +0.05    +0.166 HD
DOCKED: ENDROOT
DOCKED: BRANCH   7  33
DOCKED: ATOM     33  C   UNL d   1       0.805  -8.204  10.658 -0.12 +0.01    +0.141 C 
DOCKED: BRANCH  33  34
DOCKED: ATOM     34  C   UNL d   1       1.375  -6.930  11.221 -0.15 +0.01    +0.306 C 
DOCKED: ATOM     35  O   UNL d   1       0.843  -5.833  11.202 -0.28 -0.01    -0.251 OA
DOCKED: BRANCH  34  36
DOCKED: ATOM     36  O   UNL d   1       2.585  -7.106  11.780 -0.00 -0.01    -0.481 OA
DOCKED: ATOM     37  H   UNL d   1       2.402  -7.198  12.739 +0.06 +0.01    +0.295 HD
DOCKED: ENDBRANCH  34  36
DOCKED: ENDBRANCH  33  34
DOCKED: ENDBRANCH   7  33
DOCKED: BRANCH  27  38
DOCKED: ATOM     38  C   UNL d   1      -5.426 -12.187   7.956 -0.35 +0.01    +0.017 C 
DOCKED: ATOM     39  C   UNL d   1      -6.067 -13.365   7.934 -0.30 +0.08    +0.092 C 
DOCKED: BRANCH  39  40
DOCKED: ATOM     40  C   UNL d   1      -6.994 -13.671   6.841 -0.22 +0.46    +0.330 C 
DOCKED: ATOM     41  O   UNL d   1      -7.373 -12.927   5.957 -0.30 -0.33    -0.246 OA
DOCKED: BRANCH  40  42
DOCKED: ATOM     42  O   UNL d   1      -7.397 -14.949   6.922 -0.33 -1.08    -0.477 OA
DOCKED: ATOM     43  H   UNL d   1      -7.130 -15.222   7.823 +0.08 +0.57    +0.295 HD
DOCKED: ENDBRANCH  40  42
DOCKED: ENDBRANCH  39  40
DOCKED: ENDBRANCH  27  38
DOCKED: BRANCH   8  44
DOCKED: ATOM     44  C   UNL d   1      -3.017  -7.210  17.364 -0.06 -0.00    +0.141 C 
DOCKED: BRANCH  44  45
DOCKED: ATOM     45  C   UNL d   1      -2.719  -8.566  17.947 -0.00 +0.01    +0.306 C 
DOCKED: ATOM     46  O   UNL d   1      -1.732  -9.248  17.735 -0.00 -0.01    -0.251 OA
DOCKED: BRANCH  45  47
DOCKED: ATOM     47  O   UNL d   1      -3.702  -9.007  18.753 +0.01 -0.01    -0.481 OA
DOCKED: ATOM     48  H   UNL d   1      -4.430  -8.359  18.633 +0.03 -0.00    +0.295 HD
DOCKED: ENDBRANCH  45  47
DOCKED: ENDBRANCH  44  45
DOCKED: ENDBRANCH   8  44
DOCKED: BRANCH  22  49
DOCKED: ATOM     49  C   UNL d   1      -7.965 -13.976  12.608 -0.33 +0.02    +0.048 C 
DOCKED: BRANCH  49  50
DOCKED: ATOM     50  C   UNL d   1      -7.070 -15.195  12.390 -0.15 +0.06    +0.125 C 
DOCKED: BRANCH  50  51
DOCKED: ATOM     51  C   UNL d   1      -7.271 -15.770  11.016 +0.00 +0.22    +0.305 C 
DOCKED: ATOM     52  O   UNL d   1      -6.734 -15.421   9.979 -0.20 -0.23    -0.251 OA
DOCKED: BRANCH  51  53
DOCKED: ATOM     53  O   UNL d   1      -8.170 -16.774  11.016 -0.13 -0.53    -0.481 OA
DOCKED: ATOM     54  H   UNL d   1      -9.034 -16.319  11.097 -0.49 +0.32    +0.295 HD
DOCKED: ENDBRANCH  51  53
DOCKED: ENDBRANCH  50  51
DOCKED: ENDBRANCH  49  50
DOCKED: ENDBRANCH  22  49
DOCKED: TORSDOF 13
DOCKED: TER
DOCKED: ENDMDL
________________________________________________________________________________


	BEGINNING GENETIC ALGORITHM DOCKING 57 of 100
Run: 57 Seed: 97795943 1167146675 [ Run 57 of 100 GA/GALS ]
Beginning LAMARCKIAN GENETIC ALGORITHM (LGA), with a maximum of 25000000 energy evaluations.

Final-Value: -11.384


	FINAL GENETIC ALGORITHM DOCKED STATE
	_______________________________________________


Detailed state:  trans -11.965 13.025 5.029 quatxyzw 0.882427 -0.222452 -0.379301 0.167240 center 0.153 0.018 -0.028 ntor 13 148.9645 -171.3651 -110.6415 11.5270 -140.2335 -84.1179 120.6110 -27.8278 14.5471 -28.5927 54.7089 -37.9795 120.9715
State:	-11.965  13.025   5.029   0.895 -0.226 -0.385 160.745    148.96 -171.37 -110.64   11.53 -140.23  -84.12  120.61  -27.83   14.55  -28.59   54.71  -37.98  120.97

DOCKED: MODEL       57
DOCKED: USER    Run = 57
DOCKED: USER    DPF = D:/Protein_go_brrr/autodock/final/AncB/heme/dock.dpf
DOCKED: USER  
DOCKED: USER    Estimated Free Energy of Binding    =   -3.76 kcal/mol  [=(1)+(2)+(3)-(4)]
DOCKED: USER    Estimated Inhibition Constant, Ki   =    1.76 mM (millimolar)  [Temperature = 298.15 K]
DOCKED: USER    
DOCKED: USER    (1) Final Intermolecular Energy     =   -7.64 kcal/mol
DOCKED: USER        vdW + Hbond + desolv Energy     =   -7.61 kcal/mol
DOCKED: USER        Electrostatic Energy            =   -0.03 kcal/mol
DOCKED: USER    (2) Final Total Internal Energy     =   -3.75 kcal/mol
DOCKED: USER    (3) Torsional Free Energy           =   +3.88 kcal/mol
DOCKED: USER    (4) Unbound System's Energy  [=(2)] =   -3.75 kcal/mol
DOCKED: USER    
DOCKED: USER    
DOCKED: USER    NEWDPF move heme_opt.pdbqt
DOCKED: USER    NEWDPF about 0.153000 0.018000 -0.028000
DOCKED: USER    NEWDPF tran0 -11.964667 13.024569 5.028563
DOCKED: USER    NEWDPF quaternion0 0.882427 -0.222452 -0.379301 0.167240
DOCKED: USER    NEWDPF axisangle0 0.895032 -0.225630 -0.384719 160.745199
DOCKED: USER    NEWDPF quat0 0.895032 -0.225630 -0.384719 160.745199
DOCKED: USER    NEWDPF dihe0 148.96 -171.37 -110.64 11.53 -140.23 -84.12 120.61 -27.83 14.55 -28.59 54.71 -37.98 120.97 
DOCKED: USER  keepresnum = 1 
DOCKED: USER  
DOCKED: REMARK  13 active torsions:
DOCKED: REMARK  status: ('A' for Active; 'I' for Inactive)
DOCKED: REMARK    1  A    between atoms: O_3  and  C_38 
DOCKED: REMARK    2  A    between atoms: O_4  and  C_40 
DOCKED: REMARK    3  A    between atoms: O_7  and  C_46 
DOCKED: REMARK    4  A    between atoms: O_9  and  C_48 
DOCKED: REMARK    5  A    between atoms: C_15  and  C_20 
DOCKED: REMARK    6  A    between atoms: C_16  and  C_23 
DOCKED: REMARK    7  A    between atoms: C_20  and  C_38 
DOCKED: REMARK    8  A    between atoms: C_23  and  C_40 
DOCKED: REMARK    9  A    between atoms: C_32  and  C_41 
DOCKED: REMARK   10  A    between atoms: C_37  and  C_45 
DOCKED: REMARK   11  A    between atoms: C_41  and  C_44 
DOCKED: REMARK   12  A    between atoms: C_44  and  C_46 
DOCKED: REMARK   13  A    between atoms: C_47  and  C_48 
DOCKED: USER                              x       y       z     vdW  Elec       q    Type
DOCKED: USER                           _______ _______ _______ _____ _____    ______ ____
DOCKED: ROOT
DOCKED: ATOM      1  O   UNL d   1     -16.669  13.389   8.563 -0.00 -0.01    -0.289 OA
DOCKED: ATOM      2  O   UNL d   1     -10.137  17.093   8.654 -0.04 -0.00    -0.289 OA
DOCKED: ATOM      3  N   UNL d   1     -14.118  12.732   6.337 +0.07 +0.05    -0.247 NA
DOCKED: ATOM      4  N   UNL d   1     -12.122  14.849   6.941 -0.12 +0.04    -0.247 NA
DOCKED: ATOM      5  N   UNL d   1     -10.795  14.170   4.483 -0.15 +0.11    -0.354 N 
DOCKED: ATOM      6  N   UNL d   1     -12.881  11.990   3.854 +0.01 +0.09    -0.354 N 
DOCKED: ATOM      7  C   UNL d   1     -16.431  11.964   6.591 -0.03 +0.00    +0.084 A 
DOCKED: ATOM      8  C   UNL d   1     -12.131  15.782   9.200 -0.10 +0.01    +0.084 A 
DOCKED: ATOM      9  C   UNL d   1     -12.772  14.862   8.155 -0.15 -0.00    +0.058 A 
DOCKED: ATOM     10  C   UNL d   1     -15.112  11.923   5.814 -0.09 -0.00    +0.058 A 
DOCKED: ATOM     11  C   UNL d   1     -16.001  12.927   7.657 -0.03 +0.00    +0.193 A 
DOCKED: ATOM     12  C   UNL d   1     -14.572  13.299   7.407 -0.10 -0.01    +0.109 A 
DOCKED: ATOM     13  C   UNL d   1     -11.018  16.316   8.342 -0.09 +0.00    +0.193 A 
DOCKED: ATOM     14  C   UNL d   1     -17.559  12.601   5.775 -0.01 +0.00    +0.026 C 
DOCKED: ATOM     15  C   UNL d   1     -13.899  14.172   8.390 -0.13 +0.00    +0.055 C 
DOCKED: ATOM     16  C   UNL d   1     -11.521  14.986  10.358 -0.14 +0.01    +0.026 C 
DOCKED: ATOM     17  C   UNL d   1     -11.129  15.678   6.996 -0.16 -0.01    +0.109 A 
DOCKED: ATOM     18  C   UNL d   1     -14.937  11.091   4.770 -0.12 -0.00    +0.050 C 
DOCKED: ATOM     19  C   UNL d   1     -13.729  10.923   4.046 -0.10 -0.00    +0.045 A 
DOCKED: ATOM     20  C   UNL d   1     -10.119  15.318   4.806 -0.22 -0.01    +0.045 A 
DOCKED: ATOM     21  C   UNL d   1     -10.191  16.046   5.925 -0.18 -0.01    +0.057 C 
DOCKED: ATOM     22  C   UNL d   1      -9.473  14.644   2.721 -0.25 +0.01    -0.019 A 
DOCKED: ATOM     23  C   UNL d   1     -10.471  13.689   3.242 -0.28 -0.01    +0.045 A 
DOCKED: ATOM     24  C   UNL d   1      -9.268  15.605   3.652 -0.21 +0.01    -0.022 A 
DOCKED: ATOM     25  C   UNL d   1     -11.823  11.627   3.053 -0.25 -0.01    +0.049 A 
DOCKED: ATOM     26  C   UNL d   1     -13.191   9.831   3.384 -0.24 +0.00    -0.018 A 
DOCKED: ATOM     27  C   UNL d   1     -11.977  10.276   2.775 -0.33 -0.00    +0.003 A 
DOCKED: ATOM     28  C   UNL d   1     -10.896  12.598   2.585 -0.29 -0.02    +0.052 C 
DOCKED: ATOM     29  C   UNL d   1      -8.348  16.777   3.596 -0.14 -0.01    +0.046 C 
DOCKED: ATOM     30  C   UNL d   1     -13.765   8.456   3.321 -0.28 +0.00    +0.046 C 
DOCKED: ATOM     31  H   UNL d   1     -11.403  13.711   5.152 -0.49 -0.09    +0.166 HD
DOCKED: ATOM     32  H   UNL d   1     -13.052  12.916   4.226 -0.19 -0.05    +0.166 HD
DOCKED: ENDROOT
DOCKED: BRANCH   7  33
DOCKED: ATOM     33  C   UNL d   1     -16.869  10.634   7.214 -0.03 +0.01    +0.141 C 
DOCKED: BRANCH  33  34
DOCKED: ATOM     34  C   UNL d   1     -15.891  10.123   8.237 -0.04 +0.02    +0.306 C 
DOCKED: ATOM     35  O   UNL d   1     -14.902   9.446   8.014 -0.14 -0.02    -0.251 OA
DOCKED: BRANCH  34  36
DOCKED: ATOM     36  O   UNL d   1     -16.210  10.496   9.490 +0.01 -0.03    -0.481 OA
DOCKED: ATOM     37  H   UNL d   1     -16.617  11.383   9.387 +0.03 +0.02    +0.295 HD
DOCKED: ENDBRANCH  34  36
DOCKED: ENDBRANCH  33  34
DOCKED: ENDBRANCH   7  33
DOCKED: BRANCH  27  38
DOCKED: ATOM     38  C   UNL d   1     -11.108   9.465   1.978 -0.44 -0.00    +0.017 C 
DOCKED: ATOM     39  C   UNL d   1      -9.981   9.888   1.385 -0.47 -0.02    +0.092 C 
DOCKED: BRANCH  39  40
DOCKED: ATOM     40  C   UNL d   1      -9.168   8.949   0.607 -0.20 -0.01    +0.330 C 
DOCKED: ATOM     41  O   UNL d   1      -8.299   8.203   1.015 -0.36 -0.00    -0.246 OA
DOCKED: BRANCH  40  42
DOCKED: ATOM     42  O   UNL d   1      -9.517   9.000  -0.688 -0.04 -0.04    -0.477 OA
DOCKED: ATOM     43  H   UNL d   1     -10.127   9.764  -0.737 +0.14 +0.01    +0.295 HD
DOCKED: ENDBRANCH  40  42
DOCKED: ENDBRANCH  39  40
DOCKED: ENDBRANCH  27  38
DOCKED: BRANCH   8  44
DOCKED: ATOM     44  C   UNL d   1     -13.020  16.918   9.715 -0.03 +0.01    +0.141 C 
DOCKED: BRANCH  44  45
DOCKED: ATOM     45  C   UNL d   1     -13.118  18.076   8.759 -0.00 +0.01    +0.306 C 
DOCKED: ATOM     46  O   UNL d   1     -13.783  18.122   7.739 -0.00 -0.00    -0.251 OA
DOCKED: BRANCH  45  47
DOCKED: ATOM     47  O   UNL d   1     -12.346  19.114   9.127 +0.00 -0.01    -0.481 OA
DOCKED: ATOM     48  H   UNL d   1     -11.427  18.796   9.003 +0.01 +0.00    +0.295 HD
DOCKED: ENDBRANCH  45  47
DOCKED: ENDBRANCH  44  45
DOCKED: ENDBRANCH   8  44
DOCKED: BRANCH  22  49
DOCKED: ATOM     49  C   UNL d   1      -8.830  14.537   1.370 -0.24 -0.02    +0.048 C 
DOCKED: BRANCH  49  50
DOCKED: ATOM     50  C   UNL d   1      -9.813  14.040   0.310 -0.16 -0.03    +0.125 C 
DOCKED: BRANCH  50  51
DOCKED: ATOM     51  C   UNL d   1      -9.283  12.815  -0.381 -0.18 -0.07    +0.305 C 
DOCKED: ATOM     52  O   UNL d   1      -8.121  12.552  -0.639 -0.71 +0.04    -0.251 OA
DOCKED: BRANCH  51  53
DOCKED: ATOM     53  O   UNL d   1     -10.270  11.967  -0.732 -0.03 +0.03    -0.481 OA
DOCKED: ATOM     54  H   UNL d   1      -9.798  11.150  -0.997 +0.12 -0.00    +0.295 HD
DOCKED: ENDBRANCH  51  53
DOCKED: ENDBRANCH  50  51
DOCKED: ENDBRANCH  49  50
DOCKED: ENDBRANCH  22  49
DOCKED: TORSDOF 13
DOCKED: TER
DOCKED: ENDMDL
________________________________________________________________________________


	BEGINNING GENETIC ALGORITHM DOCKING 58 of 100
Run: 58 Seed: 1416724451 610313849 [ Run 58 of 100 GA/GALS ]
Beginning LAMARCKIAN GENETIC ALGORITHM (LGA), with a maximum of 25000000 energy evaluations.

Final-Value: -12.089


	FINAL GENETIC ALGORITHM DOCKED STATE
	_______________________________________________


Detailed state:  trans -12.201 13.239 4.316 quatxyzw -0.142922 -0.509630 0.334462 0.779734 center 0.153 0.018 -0.028 ntor 13 142.8290 -174.0846 -138.6154 18.8901 -136.5099 41.2846 125.5676 161.0157 20.4309 -19.2403 70.0007 -97.0250 129.1024
State:	-12.201  13.239   4.316  -0.228 -0.814  0.534 77.527    142.83 -174.08 -138.62   18.89 -136.51   41.28  125.57  161.02   20.43  -19.24   70.00  -97.03  129.10

DOCKED: MODEL       58
DOCKED: USER    Run = 58
DOCKED: USER    DPF = D:/Protein_go_brrr/autodock/final/AncB/heme/dock.dpf
DOCKED: USER  
DOCKED: USER    Estimated Free Energy of Binding    =   -3.71 kcal/mol  [=(1)+(2)+(3)-(4)]
DOCKED: USER    Estimated Inhibition Constant, Ki   =    1.90 mM (millimolar)  [Temperature = 298.15 K]
DOCKED: USER    
DOCKED: USER    (1) Final Intermolecular Energy     =   -7.59 kcal/mol
DOCKED: USER        vdW + Hbond + desolv Energy     =   -7.62 kcal/mol
DOCKED: USER        Electrostatic Energy            =   +0.03 kcal/mol
DOCKED: USER    (2) Final Total Internal Energy     =   -4.50 kcal/mol
DOCKED: USER    (3) Torsional Free Energy           =   +3.88 kcal/mol
DOCKED: USER    (4) Unbound System's Energy  [=(2)] =   -4.50 kcal/mol
DOCKED: USER    
DOCKED: USER    
DOCKED: USER    NEWDPF move heme_opt.pdbqt
DOCKED: USER    NEWDPF about 0.153000 0.018000 -0.028000
DOCKED: USER    NEWDPF tran0 -12.200851 13.239187 4.316029
DOCKED: USER    NEWDPF quaternion0 -0.142922 -0.509630 0.334462 0.779734
DOCKED: USER    NEWDPF axisangle0 -0.228269 -0.813962 0.534190 77.527474
DOCKED: USER    NEWDPF quat0 -0.228269 -0.813962 0.534190 77.527474
DOCKED: USER    NEWDPF dihe0 142.83 -174.08 -138.62 18.89 -136.51 41.28 125.57 161.02 20.43 -19.24 70.00 -97.03 129.10 
DOCKED: USER  keepresnum = 1 
DOCKED: USER  
DOCKED: REMARK  13 active torsions:
DOCKED: REMARK  status: ('A' for Active; 'I' for Inactive)
DOCKED: REMARK    1  A    between atoms: O_3  and  C_38 
DOCKED: REMARK    2  A    between atoms: O_4  and  C_40 
DOCKED: REMARK    3  A    between atoms: O_7  and  C_46 
DOCKED: REMARK    4  A    between atoms: O_9  and  C_48 
DOCKED: REMARK    5  A    between atoms: C_15  and  C_20 
DOCKED: REMARK    6  A    between atoms: C_16  and  C_23 
DOCKED: REMARK    7  A    between atoms: C_20  and  C_38 
DOCKED: REMARK    8  A    between atoms: C_23  and  C_40 
DOCKED: REMARK    9  A    between atoms: C_32  and  C_41 
DOCKED: REMARK   10  A    between atoms: C_37  and  C_45 
DOCKED: REMARK   11  A    between atoms: C_41  and  C_44 
DOCKED: REMARK   12  A    between atoms: C_44  and  C_46 
DOCKED: REMARK   13  A    between atoms: C_47  and  C_48 
DOCKED: USER                              x       y       z     vdW  Elec       q    Type
DOCKED: USER                           _______ _______ _______ _____ _____    ______ ____
DOCKED: ROOT
DOCKED: ATOM      1  O   UNL d   1     -12.062  16.225   9.397 -0.05 -0.03    -0.289 OA
DOCKED: ATOM      2  O   UNL d   1     -17.221  11.564   6.559 -0.01 -0.01    -0.289 OA
DOCKED: ATOM      3  N   UNL d   1     -11.769  14.793   6.274 -0.11 +0.05    -0.247 NA
DOCKED: ATOM      4  N   UNL d   1     -14.071  12.918   6.163 +0.03 +0.05    -0.247 NA
DOCKED: ATOM      5  N   UNL d   1     -12.860  11.714   3.850 -0.01 +0.08    -0.354 N 
DOCKED: ATOM      6  N   UNL d   1     -10.465  13.650   3.984 -0.20 +0.13    -0.354 N 
DOCKED: ATOM      7  C   UNL d   1     -10.319  16.177   7.684 -0.15 -0.00    +0.084 A 
DOCKED: ATOM      8  C   UNL d   1     -16.012  13.448   7.550 -0.03 +0.00    +0.084 A 
DOCKED: ATOM      9  C   UNL d   1     -14.574  13.764   7.127 -0.09 -0.00    +0.058 A 
DOCKED: ATOM     10  C   UNL d   1     -10.534  15.412   6.375 -0.22 -0.01    +0.058 A 
DOCKED: ATOM     11  C   UNL d   1     -11.658  15.897   8.297 -0.10 +0.01    +0.193 A 
DOCKED: ATOM     12  C   UNL d   1     -12.454  15.071   7.334 -0.14 -0.01    +0.109 A 
DOCKED: ATOM     13  C   UNL d   1     -16.220  12.244   6.676 -0.03 +0.00    +0.193 A 
DOCKED: ATOM     14  C   UNL d   1      -9.233  15.537   8.553 -0.21 +0.00    +0.026 C 
DOCKED: ATOM     15  C   UNL d   1     -13.852  14.747   7.686 -0.10 -0.00    +0.055 C 
DOCKED: ATOM     16  C   UNL d   1     -16.986  14.547   7.115 -0.01 +0.00    +0.026 C 
DOCKED: ATOM     17  C   UNL d   1     -14.967  12.025   5.891 -0.09 -0.01    +0.109 A 
DOCKED: ATOM     18  C   UNL d   1      -9.617  15.434   5.389 -0.23 -0.01    +0.050 C 
DOCKED: ATOM     19  C   UNL d   1      -9.765  14.827   4.116 -0.27 -0.01    +0.045 A 
DOCKED: ATOM     20  C   UNL d   1     -13.860  10.808   4.091 -0.10 -0.00    +0.045 A 
DOCKED: ATOM     21  C   UNL d   1     -14.862  10.881   4.973 -0.13 +0.00    +0.057 C 
DOCKED: ATOM     22  C   UNL d   1     -12.513   9.996   2.435 -0.27 +0.00    -0.019 A 
DOCKED: ATOM     23  C   UNL d   1     -11.997  11.311   2.866 -0.26 -0.01    +0.045 A 
DOCKED: ATOM     24  C   UNL d   1     -13.616   9.704   3.163 -0.21 -0.00    -0.022 A 
DOCKED: ATOM     25  C   UNL d   1     -10.406  13.194   2.687 -0.22 -0.02    +0.049 A 
DOCKED: ATOM     26  C   UNL d   1      -9.268  15.165   2.866 -0.23 +0.01    -0.018 A 
DOCKED: ATOM     27  C   UNL d   1      -9.693  14.141   1.964 -0.22 -0.00    +0.003 A 
DOCKED: ATOM     28  C   UNL d   1     -10.922  11.917   2.339 -0.31 -0.02    +0.052 C 
DOCKED: ATOM     29  C   UNL d   1     -14.493   8.500   3.087 -0.19 +0.00    +0.046 C 
DOCKED: ATOM     30  C   UNL d   1      -8.452  16.366   2.527 -0.18 -0.02    +0.046 C 
DOCKED: ATOM     31  H   UNL d   1     -12.843  12.615   4.316 -0.36 -0.06    +0.166 HD
DOCKED: ATOM     32  H   UNL d   1     -10.920  13.178   4.757 -0.34 -0.10    +0.166 HD
DOCKED: ENDROOT
DOCKED: BRANCH   7  33
DOCKED: ATOM     33  C   UNL d   1     -10.102  17.687   7.534 -0.04 -0.01    +0.141 C 
DOCKED: BRANCH  33  34
DOCKED: ATOM     34  C   UNL d   1     -11.335  18.406   7.059 -0.01 -0.01    +0.306 C 
DOCKED: ATOM     35  O   UNL d   1     -11.712  18.503   5.904 -0.01 +0.01    -0.251 OA
DOCKED: BRANCH  34  36
DOCKED: ATOM     36  O   UNL d   1     -12.032  18.962   8.066 +0.00 +0.00    -0.481 OA
DOCKED: ATOM     37  H   UNL d   1     -11.989  18.301   8.790 +0.02 +0.01    +0.295 HD
DOCKED: ENDBRANCH  34  36
DOCKED: ENDBRANCH  33  34
DOCKED: ENDBRANCH   7  33
DOCKED: BRANCH  27  38
DOCKED: ATOM     38  C   UNL d   1      -9.383  14.091   0.567 -0.25 -0.01    +0.017 C 
DOCKED: ATOM     39  C   UNL d   1      -8.706  13.106  -0.041 -0.23 -0.03    +0.092 C 
DOCKED: BRANCH  39  40
DOCKED: ATOM     40  C   UNL d   1      -8.470  13.167  -1.486 -0.20 -0.12    +0.330 C 
DOCKED: ATOM     41  O   UNL d   1      -8.193  14.145  -2.154 -0.20 +0.15    -0.246 OA
DOCKED: BRANCH  40  42
DOCKED: ATOM     42  O   UNL d   1      -8.592  11.944  -2.026 -0.23 +0.03    -0.477 OA
DOCKED: ATOM     43  H   UNL d   1      -8.901  11.388  -1.281 +0.13 +0.01    +0.295 HD
DOCKED: ENDBRANCH  40  42
DOCKED: ENDBRANCH  39  40
DOCKED: ENDBRANCH  27  38
DOCKED: BRANCH   8  44
DOCKED: ATOM     44  C   UNL d   1     -16.202  13.092   9.029 -0.02 +0.01    +0.141 C 
DOCKED: BRANCH  44  45
DOCKED: ATOM     45  C   UNL d   1     -15.594  11.766   9.403 -0.03 +0.02    +0.306 C 
DOCKED: ATOM     46  O   UNL d   1     -14.422  11.551   9.660 -0.10 -0.03    -0.251 OA
DOCKED: BRANCH  45  47
DOCKED: ATOM     47  O   UNL d   1     -16.497  10.769   9.408 +0.01 -0.03    -0.481 OA
DOCKED: ATOM     48  H   UNL d   1     -17.058  10.939   8.621 +0.03 +0.02    +0.295 HD
DOCKED: ENDBRANCH  45  47
DOCKED: ENDBRANCH  44  45
DOCKED: ENDBRANCH   8  44
DOCKED: BRANCH  22  49
DOCKED: ATOM     49  C   UNL d   1     -11.877   9.149   1.372 -0.31 -0.00    +0.048 C 
DOCKED: BRANCH  49  50
DOCKED: ATOM     50  C   UNL d   1     -10.361   9.061   1.546 -0.45 -0.02    +0.125 C 
DOCKED: BRANCH  50  51
DOCKED: ATOM     51  C   UNL d   1      -9.651   9.833   0.471 -0.27 -0.02    +0.305 C 
DOCKED: ATOM     52  O   UNL d   1      -8.538  10.326   0.521 -0.54 +0.02    -0.251 OA
DOCKED: BRANCH  51  53
DOCKED: ATOM     53  O   UNL d   1     -10.404   9.959  -0.640 -0.03 -0.02    -0.481 OA
DOCKED: ATOM     54  H   UNL d   1      -9.759  10.191  -1.340 +0.13 +0.02    +0.295 HD
DOCKED: ENDBRANCH  51  53
DOCKED: ENDBRANCH  50  51
DOCKED: ENDBRANCH  49  50
DOCKED: ENDBRANCH  22  49
DOCKED: TORSDOF 13
DOCKED: TER
DOCKED: ENDMDL
________________________________________________________________________________


	BEGINNING GENETIC ALGORITHM DOCKING 59 of 100
Run: 59 Seed: 831998109 1425276824 [ Run 59 of 100 GA/GALS ]
Beginning LAMARCKIAN GENETIC ALGORITHM (LGA), with a maximum of 25000000 energy evaluations.

Final-Value: -12.274


	FINAL GENETIC ALGORITHM DOCKED STATE
	_______________________________________________


Detailed state:  trans 6.078 -14.362 -2.647 quatxyzw -0.119505 -0.607325 0.633702 0.464001 center 0.153 0.018 -0.028 ntor 13 167.8346 110.8950 103.2295 125.7524 -6.2080 145.6114 -40.5039 -82.7957 106.5081 -122.3901 -44.2770 -166.4844 149.7509
State:	  6.078 -14.362  -2.647  -0.135 -0.686  0.715 124.709    167.83  110.90  103.23  125.75   -6.21  145.61  -40.50  -82.80  106.51 -122.39  -44.28 -166.48  149.75

DOCKED: MODEL       59
DOCKED: USER    Run = 59
DOCKED: USER    DPF = D:/Protein_go_brrr/autodock/final/AncB/heme/dock.dpf
DOCKED: USER  
DOCKED: USER    Estimated Free Energy of Binding    =   -6.97 kcal/mol  [=(1)+(2)+(3)-(4)]
DOCKED: USER    Estimated Inhibition Constant, Ki   =    7.77 uM (micromolar)  [Temperature = 298.15 K]
DOCKED: USER    
DOCKED: USER    (1) Final Intermolecular Energy     =  -10.85 kcal/mol
DOCKED: USER        vdW + Hbond + desolv Energy     =   -9.54 kcal/mol
DOCKED: USER        Electrostatic Energy            =   -1.31 kcal/mol
DOCKED: USER    (2) Final Total Internal Energy     =   -1.42 kcal/mol
DOCKED: USER    (3) Torsional Free Energy           =   +3.88 kcal/mol
DOCKED: USER    (4) Unbound System's Energy  [=(2)] =   -1.42 kcal/mol
DOCKED: USER    
DOCKED: USER    
DOCKED: USER    NEWDPF move heme_opt.pdbqt
DOCKED: USER    NEWDPF about 0.153000 0.018000 -0.028000
DOCKED: USER    NEWDPF tran0 6.078126 -14.361604 -2.646833
DOCKED: USER    NEWDPF quaternion0 -0.119505 -0.607325 0.633702 0.464001
DOCKED: USER    NEWDPF axisangle0 -0.134907 -0.685596 0.715373 124.708784
DOCKED: USER    NEWDPF quat0 -0.134907 -0.685596 0.715373 124.708784
DOCKED: USER    NEWDPF dihe0 167.83 110.90 103.23 125.75 -6.21 145.61 -40.50 -82.80 106.51 -122.39 -44.28 -166.48 149.75 
DOCKED: USER  keepresnum = 1 
DOCKED: USER  
DOCKED: REMARK  13 active torsions:
DOCKED: REMARK  status: ('A' for Active; 'I' for Inactive)
DOCKED: REMARK    1  A    between atoms: O_3  and  C_38 
DOCKED: REMARK    2  A    between atoms: O_4  and  C_40 
DOCKED: REMARK    3  A    between atoms: O_7  and  C_46 
DOCKED: REMARK    4  A    between atoms: O_9  and  C_48 
DOCKED: REMARK    5  A    between atoms: C_15  and  C_20 
DOCKED: REMARK    6  A    between atoms: C_16  and  C_23 
DOCKED: REMARK    7  A    between atoms: C_20  and  C_38 
DOCKED: REMARK    8  A    between atoms: C_23  and  C_40 
DOCKED: REMARK    9  A    between atoms: C_32  and  C_41 
DOCKED: REMARK   10  A    between atoms: C_37  and  C_45 
DOCKED: REMARK   11  A    between atoms: C_41  and  C_44 
DOCKED: REMARK   12  A    between atoms: C_44  and  C_46 
DOCKED: REMARK   13  A    between atoms: C_47  and  C_48 
DOCKED: USER                              x       y       z     vdW  Elec       q    Type
DOCKED: USER                           _______ _______ _______ _____ _____    ______ ____
DOCKED: ROOT
DOCKED: ATOM      1  O   UNL d   1      10.618 -12.163   0.404 -0.13 +0.16    -0.289 OA
DOCKED: ATOM      2  O   UNL d   1       3.311 -12.610   2.077 -0.12 -0.02    -0.289 OA
DOCKED: ATOM      3  N   UNL d   1       8.275 -13.431  -1.786 -0.18 +0.12    -0.247 NA
DOCKED: ATOM      4  N   UNL d   1       5.784 -13.483  -0.166 -0.14 +0.04    -0.247 NA
DOCKED: ATOM      5  N   UNL d   1       4.610 -15.149  -2.194 -0.10 +0.02    -0.354 N 
DOCKED: ATOM      6  N   UNL d   1       7.204 -15.106  -3.859 -0.04 +0.08    -0.354 N 
DOCKED: ATOM      7  C   UNL d   1      10.719 -13.254  -1.781 -0.13 -0.05    +0.084 A 
DOCKED: ATOM      8  C   UNL d   1       5.615 -11.886   1.676 -0.24 -0.04    +0.084 A 
DOCKED: ATOM      9  C   UNL d   1       6.450 -12.520   0.559 -0.28 -0.03    +0.058 A 
DOCKED: ATOM     10  C   UNL d   1       9.437 -13.707  -2.486 -0.19 -0.03    +0.058 A 
DOCKED: ATOM     11  C   UNL d   1      10.074 -12.656  -0.567 -0.15 -0.12    +0.193 A 
DOCKED: ATOM     12  C   UNL d   1       8.590 -12.802  -0.701 -0.25 -0.06    +0.109 A 
DOCKED: ATOM     13  C   UNL d   1       4.364 -12.694   1.475 -0.13 -0.01    +0.193 A 
DOCKED: ATOM     14  C   UNL d   1      11.587 -14.439  -1.348 -0.04 -0.01    +0.026 C 
DOCKED: ATOM     15  C   UNL d   1       7.735 -12.199   0.342 -0.27 -0.04    +0.055 C 
DOCKED: ATOM     16  C   UNL d   1       5.303 -10.415   1.387 -0.46 -0.02    +0.026 C 
DOCKED: ATOM     17  C   UNL d   1       4.599 -13.630   0.334 -0.18 -0.00    +0.109 A 
DOCKED: ATOM     18  C   UNL d   1       9.466 -14.243  -3.720 -0.19 -0.02    +0.050 C 
DOCKED: ATOM     19  C   UNL d   1       8.328 -14.613  -4.482 -0.16 -0.02    +0.045 A 
DOCKED: ATOM     20  C   UNL d   1       3.649 -15.248  -1.222 -0.24 +0.00    +0.045 A 
DOCKED: ATOM     21  C   UNL d   1       3.554 -14.583  -0.066 -0.21 +0.00    +0.057 C 
DOCKED: ATOM     22  C   UNL d   1       3.140 -16.697  -2.914 -0.30 +0.00    -0.019 A 
DOCKED: ATOM     23  C   UNL d   1       4.389 -15.986  -3.255 -0.26 -0.01    +0.045 A 
DOCKED: ATOM     24  C   UNL d   1       2.706 -16.254  -1.710 -0.25 +0.00    -0.022 A 
DOCKED: ATOM     25  C   UNL d   1       6.263 -15.484  -4.788 -0.23 -0.01    +0.049 A 
DOCKED: ATOM     26  C   UNL d   1       8.098 -14.638  -5.849 -0.19 +0.01    -0.018 A 
DOCKED: ATOM     27  C   UNL d   1       6.784 -15.170  -6.035 -0.28 -0.00    +0.003 A 
DOCKED: ATOM     28  C   UNL d   1       5.080 -16.166  -4.391 -0.26 -0.01    +0.052 C 
DOCKED: ATOM     29  C   UNL d   1       1.489 -16.660  -0.951 -0.24 +0.00    +0.046 C 
DOCKED: ATOM     30  C   UNL d   1       9.036 -14.193  -6.919 -0.17 -0.01    +0.046 C 
DOCKED: ATOM     31  H   UNL d   1       5.349 -14.457  -2.135 +0.08 -0.01    +0.166 HD
DOCKED: ATOM     32  H   UNL d   1       7.119 -15.206  -2.854 +0.05 -0.03    +0.166 HD
DOCKED: ENDROOT
DOCKED: BRANCH   7  33
DOCKED: ATOM     33  C   UNL d   1      11.542 -12.199  -2.528 -0.05 -0.16    +0.141 C 
DOCKED: BRANCH  33  34
DOCKED: ATOM     34  C   UNL d   1      12.384 -11.360  -1.605 -0.09 -0.22    +0.306 C 
DOCKED: ATOM     35  O   UNL d   1      13.108 -11.774  -0.715 -0.04 +0.09    -0.251 OA
DOCKED: BRANCH  34  36
DOCKED: ATOM     36  O   UNL d   1      12.272 -10.043  -1.854 -0.08 +0.46    -0.481 OA
DOCKED: ATOM     37  H   UNL d   1      11.846  -9.994  -2.736 -0.40 -0.64    +0.295 HD
DOCKED: ENDBRANCH  34  36
DOCKED: ENDBRANCH  33  34
DOCKED: ENDBRANCH   7  33
DOCKED: BRANCH  27  38
DOCKED: ATOM     38  C   UNL d   1       6.152 -15.382  -7.302 -0.32 -0.01    +0.017 C 
DOCKED: ATOM     39  C   UNL d   1       6.699 -16.029  -8.342 -0.21 -0.07    +0.092 C 
DOCKED: BRANCH  39  40
DOCKED: ATOM     40  C   UNL d   1       5.937 -16.194  -9.583 -0.12 -0.26    +0.330 C 
DOCKED: ATOM     41  O   UNL d   1       6.357 -16.164 -10.724 -0.14 +0.11    -0.246 OA
DOCKED: BRANCH  40  42
DOCKED: ATOM     42  O   UNL d   1       4.641 -16.404  -9.303 -0.81 +0.41    -0.477 OA
DOCKED: ATOM     43  H   UNL d   1       4.630 -17.295  -8.899 -0.48 -0.66    +0.295 HD
DOCKED: ENDBRANCH  40  42
DOCKED: ENDBRANCH  39  40
DOCKED: ENDBRANCH  27  38
DOCKED: BRANCH   8  44
DOCKED: ATOM     44  C   UNL d   1       6.164 -12.068   3.095 -0.11 -0.08    +0.141 C 
DOCKED: BRANCH  44  45
DOCKED: ATOM     45  C   UNL d   1       5.215 -11.596   4.164 -0.07 -0.07    +0.306 C 
DOCKED: ATOM     46  O   UNL d   1       5.094 -10.455   4.576 -0.15 +0.04    -0.251 OA
DOCKED: BRANCH  45  47
DOCKED: ATOM     47  O   UNL d   1       4.482 -12.599   4.682 +0.02 +0.02    -0.481 OA
DOCKED: ATOM     48  H   UNL d   1       3.788 -12.770   4.010 +0.08 +0.00    +0.295 HD
DOCKED: ENDBRANCH  45  47
DOCKED: ENDBRANCH  44  45
DOCKED: ENDBRANCH   8  44
DOCKED: BRANCH  22  49
DOCKED: ATOM     49  C   UNL d   1       2.502 -17.742  -3.781 +0.28 -0.02    +0.048 C 
DOCKED: BRANCH  49  50
DOCKED: ATOM     50  C   UNL d   1       3.368 -18.997  -3.889 -0.21 -0.06    +0.125 C 
DOCKED: BRANCH  50  51
DOCKED: ATOM     51  C   UNL d   1       2.532 -20.238  -3.759 -0.12 -0.12    +0.305 C 
DOCKED: ATOM     52  O   UNL d   1       2.239 -20.833  -2.737 -0.04 +0.04    -0.251 OA
DOCKED: BRANCH  51  53
DOCKED: ATOM     53  O   UNL d   1       2.105 -20.687  -4.957 -0.12 +0.27    -0.481 OA
DOCKED: ATOM     54  H   UNL d   1       1.651 -19.914  -5.352 -0.48 -0.27    +0.295 HD
DOCKED: ENDBRANCH  51  53
DOCKED: ENDBRANCH  50  51
DOCKED: ENDBRANCH  49  50
DOCKED: ENDBRANCH  22  49
DOCKED: TORSDOF 13
DOCKED: TER
DOCKED: ENDMDL
________________________________________________________________________________


	BEGINNING GENETIC ALGORITHM DOCKING 60 of 100
Run: 60 Seed: 1686901640 346977973 [ Run 60 of 100 GA/GALS ]
Beginning LAMARCKIAN GENETIC ALGORITHM (LGA), with a maximum of 25000000 energy evaluations.

Final-Value: -10.307


	FINAL GENETIC ALGORITHM DOCKED STATE
	_______________________________________________


Detailed state:  trans -7.564 16.678 0.784 quatxyzw -0.618742 0.352481 -0.674691 0.194186 center 0.153 0.018 -0.028 ntor 13 -146.6238 -77.5923 114.1743 60.5739 40.6757 109.0983 -47.6501 -47.7255 143.4674 -131.5482 129.8152 8.2724 -151.5918
State:	 -7.564  16.678   0.784  -0.631  0.359 -0.688 157.606   -146.62  -77.59  114.17   60.57   40.68  109.10  -47.65  -47.73  143.47 -131.55  129.82    8.27 -151.59

DOCKED: MODEL       60
DOCKED: USER    Run = 60
DOCKED: USER    DPF = D:/Protein_go_brrr/autodock/final/AncB/heme/dock.dpf
DOCKED: USER  
DOCKED: USER    Estimated Free Energy of Binding    =   -4.03 kcal/mol  [=(1)+(2)+(3)-(4)]
DOCKED: USER    Estimated Inhibition Constant, Ki   =    1.12 mM (millimolar)  [Temperature = 298.15 K]
DOCKED: USER    
DOCKED: USER    (1) Final Intermolecular Energy     =   -7.90 kcal/mol
DOCKED: USER        vdW + Hbond + desolv Energy     =   -7.31 kcal/mol
DOCKED: USER        Electrostatic Energy            =   -0.59 kcal/mol
DOCKED: USER    (2) Final Total Internal Energy     =   -2.40 kcal/mol
DOCKED: USER    (3) Torsional Free Energy           =   +3.88 kcal/mol
DOCKED: USER    (4) Unbound System's Energy  [=(2)] =   -2.40 kcal/mol
DOCKED: USER    
DOCKED: USER    
DOCKED: USER    NEWDPF move heme_opt.pdbqt
DOCKED: USER    NEWDPF about 0.153000 0.018000 -0.028000
DOCKED: USER    NEWDPF tran0 -7.564145 16.678356 0.784056
DOCKED: USER    NEWDPF quaternion0 -0.618742 0.352481 -0.674691 0.194186
DOCKED: USER    NEWDPF axisangle0 -0.630748 0.359321 -0.687783 157.605694
DOCKED: USER    NEWDPF quat0 -0.630748 0.359321 -0.687783 157.605694
DOCKED: USER    NEWDPF dihe0 -146.62 -77.59 114.17 60.57 40.68 109.10 -47.65 -47.73 143.47 -131.55 129.82 8.27 -151.59 
DOCKED: USER  keepresnum = 1 
DOCKED: USER  
DOCKED: REMARK  13 active torsions:
DOCKED: REMARK  status: ('A' for Active; 'I' for Inactive)
DOCKED: REMARK    1  A    between atoms: O_3  and  C_38 
DOCKED: REMARK    2  A    between atoms: O_4  and  C_40 
DOCKED: REMARK    3  A    between atoms: O_7  and  C_46 
DOCKED: REMARK    4  A    between atoms: O_9  and  C_48 
DOCKED: REMARK    5  A    between atoms: C_15  and  C_20 
DOCKED: REMARK    6  A    between atoms: C_16  and  C_23 
DOCKED: REMARK    7  A    between atoms: C_20  and  C_38 
DOCKED: REMARK    8  A    between atoms: C_23  and  C_40 
DOCKED: REMARK    9  A    between atoms: C_32  and  C_41 
DOCKED: REMARK   10  A    between atoms: C_37  and  C_45 
DOCKED: REMARK   11  A    between atoms: C_41  and  C_44 
DOCKED: REMARK   12  A    between atoms: C_44  and  C_46 
DOCKED: REMARK   13  A    between atoms: C_47  and  C_48 
DOCKED: USER                              x       y       z     vdW  Elec       q    Type
DOCKED: USER                           _______ _______ _______ _____ _____    ______ ____
DOCKED: ROOT
DOCKED: ATOM      1  O   UNL d   1      -7.400  16.050  -5.075 -0.09 +0.07    -0.289 OA
DOCKED: ATOM      2  O   UNL d   1      -4.861  21.548  -0.635 +0.00 +0.07    -0.289 OA
DOCKED: ATOM      3  N   UNL d   1      -7.850  16.048  -1.656 -0.02 +0.27    -0.247 NA
DOCKED: ATOM      4  N   UNL d   1      -6.277  18.404  -0.758 +0.01 +0.27    -0.247 NA
DOCKED: ATOM      5  N   UNL d   1      -6.507  17.416   1.932 -0.06 +0.25    -0.354 N 
DOCKED: ATOM      6  N   UNL d   1      -8.121  14.964   0.990 -0.09 +0.20    -0.354 N 
DOCKED: ATOM      7  C   UNL d   1      -8.301  14.452  -3.461 -0.16 -0.03    +0.084 A 
DOCKED: ATOM      8  C   UNL d   1      -5.953  20.211  -2.371 -0.01 -0.03    +0.084 A 
DOCKED: ATOM      9  C   UNL d   1      -6.473  18.803  -2.062 -0.04 -0.04    +0.058 A 
DOCKED: ATOM     10  C   UNL d   1      -8.343  14.792  -1.968 -0.16 -0.04    +0.058 A 
DOCKED: ATOM     11  C   UNL d   1      -7.714  15.745  -3.939 -0.10 -0.08    +0.193 A 
DOCKED: ATOM     12  C   UNL d   1      -7.510  16.638  -2.755 -0.03 -0.09    +0.109 A 
DOCKED: ATOM     13  C   UNL d   1      -5.393  20.522  -1.011 -0.00 -0.07    +0.193 A 
DOCKED: ATOM     14  C   UNL d   1      -7.318  13.318  -3.764 -0.41 -0.01    +0.026 C 
DOCKED: ATOM     15  C   UNL d   1      -7.023  18.012  -2.995 -0.06 -0.03    +0.055 C 
DOCKED: ATOM     16  C   UNL d   1      -7.097  21.186  -2.667 -0.00 -0.00    +0.026 C 
DOCKED: ATOM     17  C   UNL d   1      -5.648  19.343  -0.129 -0.05 -0.08    +0.109 A 
DOCKED: ATOM     18  C   UNL d   1      -8.902  13.957  -1.072 -0.25 -0.02    +0.050 C 
DOCKED: ATOM     19  C   UNL d   1      -9.061  14.222   0.312 -0.23 -0.02    +0.045 A 
DOCKED: ATOM     20  C   UNL d   1      -5.592  18.418   2.126 -0.10 -0.03    +0.045 A 
DOCKED: ATOM     21  C   UNL d   1      -5.167  19.344   1.261 -0.08 -0.04    +0.057 C 
DOCKED: ATOM     22  C   UNL d   1      -5.809  17.231   4.066 -0.13 +0.01    -0.019 A 
DOCKED: ATOM     23  C   UNL d   1      -6.704  16.646   3.047 -0.18 -0.02    +0.045 A 
DOCKED: ATOM     24  C   UNL d   1      -5.155  18.280   3.515 -0.08 +0.01    -0.022 A 
DOCKED: ATOM     25  C   UNL d   1      -8.424  15.021   2.330 -0.22 -0.02    +0.049 A 
DOCKED: ATOM     26  C   UNL d   1     -10.020  13.818   1.228 -0.18 +0.01    -0.018 A 
DOCKED: ATOM     27  C   UNL d   1      -9.623  14.342   2.497 -0.23 -0.00    +0.003 A 
DOCKED: ATOM     28  C   UNL d   1      -7.517  15.600   3.259 -0.26 -0.02    +0.052 C 
DOCKED: ATOM     29  C   UNL d   1      -4.159  19.193   4.145 -0.04 -0.02    +0.046 C 
DOCKED: ATOM     30  C   UNL d   1     -11.233  12.998   0.945 -0.12 -0.01    +0.046 C 
DOCKED: ATOM     31  H   UNL d   1      -7.023  17.336   1.062 -0.02 -0.14    +0.166 HD
DOCKED: ATOM     32  H   UNL d   1      -7.302  15.368   0.550 +0.06 -0.16    +0.166 HD
DOCKED: ENDROOT
DOCKED: BRANCH   7  33
DOCKED: ATOM     33  C   UNL d   1      -9.664  14.204  -4.117 -0.06 +0.01    +0.141 C 
DOCKED: BRANCH  33  34
DOCKED: ATOM     34  C   UNL d   1      -9.544  13.619  -5.498 -0.04 +0.20    +0.306 C 
DOCKED: ATOM     35  O   UNL d   1      -9.590  12.435  -5.785 -0.24 -0.23    -0.251 OA
DOCKED: BRANCH  34  36
DOCKED: ATOM     36  O   UNL d   1      -9.376  14.559  -6.446 -0.54 -0.40    -0.481 OA
DOCKED: ATOM     37  H   UNL d   1      -8.890  15.281  -5.994 +0.04 +0.12    +0.295 HD
DOCKED: ENDBRANCH  34  36
DOCKED: ENDBRANCH  33  34
DOCKED: ENDBRANCH   7  33
DOCKED: BRANCH  27  38
DOCKED: ATOM     38  C   UNL d   1     -10.329  14.147   3.728 -0.33 -0.01    +0.017 C 
DOCKED: ATOM     39  C   UNL d   1     -10.590  15.104   4.631 -0.22 -0.02    +0.092 C 
DOCKED: BRANCH  39  40
DOCKED: ATOM     40  C   UNL d   1     -11.339  14.776   5.847 -0.04 -0.08    +0.330 C 
DOCKED: ATOM     41  O   UNL d   1     -10.912  14.685   6.982 -0.23 +0.03    -0.246 OA
DOCKED: BRANCH  40  42
DOCKED: ATOM     42  O   UNL d   1     -12.634  14.583   5.553 -0.06 +0.11    -0.477 OA
DOCKED: ATOM     43  H   UNL d   1     -12.733  13.609   5.556 -0.47 -0.15    +0.295 HD
DOCKED: ENDBRANCH  40  42
DOCKED: ENDBRANCH  39  40
DOCKED: ENDBRANCH  27  38
DOCKED: BRANCH   8  44
DOCKED: ATOM     44  C   UNL d   1      -4.863  20.292  -3.445 -0.00 -0.03    +0.141 C 
DOCKED: BRANCH  44  45
DOCKED: ATOM     45  C   UNL d   1      -4.411  21.700  -3.727 +0.01 -0.02    +0.306 C 
DOCKED: ATOM     46  O   UNL d   1      -4.860  22.451  -4.576 +0.00 +0.00    -0.251 OA
DOCKED: BRANCH  45  47
DOCKED: ATOM     47  O   UNL d   1      -3.390  22.081  -2.938 +0.01 +0.04    -0.481 OA
DOCKED: ATOM     48  H   UNL d   1      -3.774  22.116  -2.036 +0.01 -0.04    +0.295 HD
DOCKED: ENDBRANCH  45  47
DOCKED: ENDBRANCH  44  45
DOCKED: ENDBRANCH   8  44
DOCKED: BRANCH  22  49
DOCKED: ATOM     49  C   UNL d   1      -5.668  16.706   5.464 -0.17 -0.02    +0.048 C 
DOCKED: BRANCH  49  50
DOCKED: ATOM     50  C   UNL d   1      -4.213  16.386   5.807 -0.18 -0.05    +0.125 C 
DOCKED: BRANCH  50  51
DOCKED: ATOM     51  C   UNL d   1      -3.580  15.549   4.732 -0.22 -0.19    +0.305 C 
DOCKED: ATOM     52  O   UNL d   1      -3.984  14.492   4.278 -0.82 +0.10    -0.251 OA
DOCKED: BRANCH  51  53
DOCKED: ATOM     53  O   UNL d   1      -2.433  16.093   4.279 -0.10 +0.62    -0.481 OA
DOCKED: ATOM     54  H   UNL d   1      -2.600  16.243   3.325 -0.34 -0.74    +0.295 HD
DOCKED: ENDBRANCH  51  53
DOCKED: ENDBRANCH  50  51
DOCKED: ENDBRANCH  49  50
DOCKED: ENDBRANCH  22  49
DOCKED: TORSDOF 13
DOCKED: TER
DOCKED: ENDMDL
________________________________________________________________________________


	BEGINNING GENETIC ALGORITHM DOCKING 61 of 100
Run: 61 Seed: 1248917679 1226508251 [ Run 61 of 100 GA/GALS ]
Beginning LAMARCKIAN GENETIC ALGORITHM (LGA), with a maximum of 25000000 energy evaluations.

Final-Value: -13.027


	FINAL GENETIC ALGORITHM DOCKED STATE
	_______________________________________________


Detailed state:  trans -17.072 1.960 8.993 quatxyzw -0.248890 -0.686884 0.032134 -0.682064 center 0.153 0.018 -0.028 ntor 13 108.0182 -180.0000 -64.5693 -38.6795 177.1094 74.1505 175.5706 -85.5476 -17.6385 -107.9430 -85.8147 -111.8142 3.4103
State:	-17.072   1.960   8.993  -0.340 -0.939  0.044 -93.990    108.02 -180.00  -64.57  -38.68  177.11   74.15  175.57  -85.55  -17.64 -107.94  -85.81 -111.81    3.41

DOCKED: MODEL       61
DOCKED: USER    Run = 61
DOCKED: USER    DPF = D:/Protein_go_brrr/autodock/final/AncB/heme/dock.dpf
DOCKED: USER  
DOCKED: USER    Estimated Free Energy of Binding    =   -4.91 kcal/mol  [=(1)+(2)+(3)-(4)]
DOCKED: USER    Estimated Inhibition Constant, Ki   =  253.67 uM (micromolar)  [Temperature = 298.15 K]
DOCKED: USER    
DOCKED: USER    (1) Final Intermolecular Energy     =   -8.78 kcal/mol
DOCKED: USER        vdW + Hbond + desolv Energy     =   -8.40 kcal/mol
DOCKED: USER        Electrostatic Energy            =   -0.38 kcal/mol
DOCKED: USER    (2) Final Total Internal Energy     =   -4.24 kcal/mol
DOCKED: USER    (3) Torsional Free Energy           =   +3.88 kcal/mol
DOCKED: USER    (4) Unbound System's Energy  [=(2)] =   -4.24 kcal/mol
DOCKED: USER    
DOCKED: USER    
DOCKED: USER    NEWDPF move heme_opt.pdbqt
DOCKED: USER    NEWDPF about 0.153000 0.018000 -0.028000
DOCKED: USER    NEWDPF tran0 -17.072362 1.960449 8.992749
DOCKED: USER    NEWDPF quaternion0 -0.248890 -0.686884 0.032134 -0.682064
DOCKED: USER    NEWDPF axisangle0 -0.340343 -0.939274 0.043941 -93.989737
DOCKED: USER    NEWDPF quat0 -0.340343 -0.939274 0.043941 -93.989737
DOCKED: USER    NEWDPF dihe0 108.02 -180.00 -64.57 -38.68 177.11 74.15 175.57 -85.55 -17.64 -107.94 -85.81 -111.81 3.41 
DOCKED: USER  keepresnum = 1 
DOCKED: USER  
DOCKED: REMARK  13 active torsions:
DOCKED: REMARK  status: ('A' for Active; 'I' for Inactive)
DOCKED: REMARK    1  A    between atoms: O_3  and  C_38 
DOCKED: REMARK    2  A    between atoms: O_4  and  C_40 
DOCKED: REMARK    3  A    between atoms: O_7  and  C_46 
DOCKED: REMARK    4  A    between atoms: O_9  and  C_48 
DOCKED: REMARK    5  A    between atoms: C_15  and  C_20 
DOCKED: REMARK    6  A    between atoms: C_16  and  C_23 
DOCKED: REMARK    7  A    between atoms: C_20  and  C_38 
DOCKED: REMARK    8  A    between atoms: C_23  and  C_40 
DOCKED: REMARK    9  A    between atoms: C_32  and  C_41 
DOCKED: REMARK   10  A    between atoms: C_37  and  C_45 
DOCKED: REMARK   11  A    between atoms: C_41  and  C_44 
DOCKED: REMARK   12  A    between atoms: C_44  and  C_46 
DOCKED: REMARK   13  A    between atoms: C_47  and  C_48 
DOCKED: USER                              x       y       z     vdW  Elec       q    Type
DOCKED: USER                           _______ _______ _______ _____ _____    ______ ____
DOCKED: ROOT
DOCKED: ATOM      1  O   UNL d   1     -17.491   1.464   3.133 -0.15 -0.05    -0.289 OA
DOCKED: ATOM      2  O   UNL d   1     -17.156  -3.766   8.511 -0.68 -0.27    -0.289 OA
DOCKED: ATOM      3  N   UNL d   1     -17.109   2.239   6.472 -0.09 -0.02    -0.247 NA
DOCKED: ATOM      4  N   UNL d   1     -17.388  -0.393   7.821 -0.07 -0.03    -0.247 NA
DOCKED: ATOM      5  N   UNL d   1     -17.662   1.017  10.312 -0.05 -0.03    -0.354 N 
DOCKED: ATOM      6  N   UNL d   1     -17.390   3.744   8.902 -0.06 -0.01    -0.354 N 
DOCKED: ATOM      7  C   UNL d   1     -17.455   3.539   4.423 -0.11 +0.01    +0.084 A 
DOCKED: ATOM      8  C   UNL d   1     -16.816  -2.382   6.522 -0.33 +0.01    +0.084 A 
DOCKED: ATOM      9  C   UNL d   1     -17.023  -0.865   6.580 -0.25 +0.00    +0.058 A 
DOCKED: ATOM     10  C   UNL d   1     -17.264   3.509   5.943 -0.11 +0.01    +0.058 A 
DOCKED: ATOM     11  C   UNL d   1     -17.362   2.062   4.185 -0.17 +0.02    +0.193 A 
DOCKED: ATOM     12  C   UNL d   1     -17.126   1.386   5.500 -0.21 +0.01    +0.109 A 
DOCKED: ATOM     13  C   UNL d   1     -17.169  -2.689   7.950 -0.19 +0.07    +0.193 A 
DOCKED: ATOM     14  C   UNL d   1     -18.856   4.017   4.030 -0.06 +0.00    +0.026 C 
DOCKED: ATOM     15  C   UNL d   1     -16.907  -0.074   5.502 -0.32 -0.00    +0.055 C 
DOCKED: ATOM     16  C   UNL d   1     -15.347  -2.746   6.288 -0.13 +0.00    +0.026 C 
DOCKED: ATOM     17  C   UNL d   1     -17.503  -1.399   8.627 -0.15 +0.03    +0.109 A 
DOCKED: ATOM     18  C   UNL d   1     -17.168   4.644   6.662 -0.12 +0.00    +0.050 C 
DOCKED: ATOM     19  C   UNL d   1     -16.908   4.715   8.054 -0.12 +0.00    +0.045 A 
DOCKED: ATOM     20  C   UNL d   1     -17.997  -0.249  10.720 -0.14 +0.01    +0.045 A 
DOCKED: ATOM     21  C   UNL d   1     -17.932  -1.394  10.034 -0.17 +0.02    +0.057 C 
DOCKED: ATOM     22  C   UNL d   1     -18.372   1.205  12.441 -0.10 -0.00    -0.019 A 
DOCKED: ATOM     23  C   UNL d   1     -17.855   1.962  11.284 -0.13 +0.00    +0.045 A 
DOCKED: ATOM     24  C   UNL d   1     -18.453  -0.103  12.101 -0.12 -0.00    -0.022 A 
DOCKED: ATOM     25  C   UNL d   1     -17.101   4.057  10.210 -0.14 -0.00    +0.049 A 
DOCKED: ATOM     26  C   UNL d   1     -16.256   5.664   8.827 -0.15 -0.00    -0.018 A 
DOCKED: ATOM     27  C   UNL d   1     -16.364   5.233  10.185 -0.06 +0.00    +0.003 A 
DOCKED: ATOM     28  C   UNL d   1     -17.632   3.285  11.279 -0.16 +0.00    +0.052 C 
DOCKED: ATOM     29  C   UNL d   1     -18.904  -1.257  12.931 -0.13 +0.01    +0.046 C 
DOCKED: ATOM     30  C   UNL d   1     -15.572   6.895   8.336 -0.25 +0.00    +0.046 C 
DOCKED: ATOM     31  H   UNL d   1     -17.241   1.183   9.404 +0.05 +0.01    +0.166 HD
DOCKED: ATOM     32  H   UNL d   1     -17.920   2.939   8.588 +0.03 +0.01    +0.166 HD
DOCKED: ENDROOT
DOCKED: BRANCH   7  33
DOCKED: ATOM     33  C   UNL d   1     -16.368   4.280   3.639 -0.18 +0.03    +0.141 C 
DOCKED: BRANCH  33  34
DOCKED: ATOM     34  C   UNL d   1     -15.024   4.219   4.313 -0.22 +0.05    +0.306 C 
DOCKED: ATOM     35  O   UNL d   1     -14.299   5.167   4.562 -0.24 -0.03    -0.251 OA
DOCKED: BRANCH  34  36
DOCKED: ATOM     36  O   UNL d   1     -14.664   2.965   4.639 -0.11 -0.06    -0.481 OA
DOCKED: ATOM     37  H   UNL d   1     -15.220   2.744   5.417 +0.16 +0.03    +0.295 HD
DOCKED: ENDBRANCH  34  36
DOCKED: ENDBRANCH  33  34
DOCKED: ENDBRANCH   7  33
DOCKED: BRANCH  27  38
DOCKED: ATOM     38  C   UNL d   1     -15.839   5.934  11.318 -0.29 +0.00    +0.017 C 
DOCKED: ATOM     39  C   UNL d   1     -16.565   6.642  12.195 -0.16 +0.01    +0.092 C 
DOCKED: BRANCH  39  40
DOCKED: ATOM     40  C   UNL d   1     -15.906   7.301  13.326 -0.12 +0.02    +0.330 C 
DOCKED: ATOM     41  O   UNL d   1     -15.191   8.284  13.300 -0.13 -0.00    -0.246 OA
DOCKED: BRANCH  40  42
DOCKED: ATOM     42  O   UNL d   1     -16.204   6.664  14.469 -0.42 -0.10    -0.477 OA
DOCKED: ATOM     43  H   UNL d   1     -16.790   5.933  14.185 +0.07 +0.04    +0.295 HD
DOCKED: ENDBRANCH  40  42
DOCKED: ENDBRANCH  39  40
DOCKED: ENDBRANCH  27  38
DOCKED: BRANCH   8  44
DOCKED: ATOM     44  C   UNL d   1     -17.735  -3.137   5.555 -0.24 -0.01    +0.141 C 
DOCKED: BRANCH  44  45
DOCKED: ATOM     45  C   UNL d   1     -17.888  -4.595   5.898 -0.20 -0.02    +0.306 C 
DOCKED: ATOM     46  O   UNL d   1     -18.933  -5.217   5.979 -0.10 +0.02    -0.251 OA
DOCKED: BRANCH  45  47
DOCKED: ATOM     47  O   UNL d   1     -16.708  -5.191   6.148 -0.63 +0.08    -0.481 OA
DOCKED: ATOM     48  H   UNL d   1     -16.752  -5.438   7.096 -0.22 -0.22    +0.295 HD
DOCKED: ENDBRANCH  45  47
DOCKED: ENDBRANCH  44  45
DOCKED: ENDBRANCH   8  44
DOCKED: BRANCH  22  49
DOCKED: ATOM     49  C   UNL d   1     -18.750   1.826  13.754 -0.09 +0.00    +0.048 C 
DOCKED: BRANCH  49  50
DOCKED: ATOM     50  C   UNL d   1     -17.526   2.098  14.628 -0.22 +0.00    +0.125 C 
DOCKED: BRANCH  50  51
DOCKED: ATOM     51  C   UNL d   1     -17.047   3.511  14.455 -0.08 +0.02    +0.305 C 
DOCKED: ATOM     52  O   UNL d   1     -16.211   3.922  13.670 -0.14 -0.04    -0.251 OA
DOCKED: BRANCH  51  53
DOCKED: ATOM     53  O   UNL d   1     -17.652   4.357  15.312 -0.07 -0.01    -0.481 OA
DOCKED: ATOM     54  H   UNL d   1     -16.938   4.970  15.586 +0.08 +0.01    +0.295 HD
DOCKED: ENDBRANCH  51  53
DOCKED: ENDBRANCH  50  51
DOCKED: ENDBRANCH  49  50
DOCKED: ENDBRANCH  22  49
DOCKED: TORSDOF 13
DOCKED: TER
DOCKED: ENDMDL
________________________________________________________________________________


	BEGINNING GENETIC ALGORITHM DOCKING 62 of 100
Run: 62 Seed: 682777269 1967495675 [ Run 62 of 100 GA/GALS ]
Beginning LAMARCKIAN GENETIC ALGORITHM (LGA), with a maximum of 25000000 energy evaluations.

Final-Value: -13.051


	FINAL GENETIC ALGORITHM DOCKED STATE
	_______________________________________________


Detailed state:  trans -1.051 16.766 11.330 quatxyzw -0.597271 0.405578 -0.403845 0.561856 center 0.153 0.018 -0.028 ntor 13 -83.6451 167.6462 -72.9826 53.8463 58.7979 65.2789 -25.3706 75.8201 139.9543 146.7760 -72.6515 -103.6488 5.3811
State:	 -1.051  16.766  11.330  -0.722  0.490 -0.488 111.631    -83.65  167.65  -72.98   53.85   58.80   65.28  -25.37   75.82  139.95  146.78  -72.65 -103.65    5.38

DOCKED: MODEL       62
DOCKED: USER    Run = 62
DOCKED: USER    DPF = D:/Protein_go_brrr/autodock/final/AncB/heme/dock.dpf
DOCKED: USER  
DOCKED: USER    Estimated Free Energy of Binding    =   -5.40 kcal/mol  [=(1)+(2)+(3)-(4)]
DOCKED: USER    Estimated Inhibition Constant, Ki   =  110.59 uM (micromolar)  [Temperature = 298.15 K]
DOCKED: USER    
DOCKED: USER    (1) Final Intermolecular Energy     =   -9.28 kcal/mol
DOCKED: USER        vdW + Hbond + desolv Energy     =   -8.75 kcal/mol
DOCKED: USER        Electrostatic Energy            =   -0.52 kcal/mol
DOCKED: USER    (2) Final Total Internal Energy     =   -3.78 kcal/mol
DOCKED: USER    (3) Torsional Free Energy           =   +3.88 kcal/mol
DOCKED: USER    (4) Unbound System's Energy  [=(2)] =   -3.78 kcal/mol
DOCKED: USER    
DOCKED: USER    
DOCKED: USER    NEWDPF move heme_opt.pdbqt
DOCKED: USER    NEWDPF about 0.153000 0.018000 -0.028000
DOCKED: USER    NEWDPF tran0 -1.050662 16.766191 11.329661
DOCKED: USER    NEWDPF quaternion0 -0.597271 0.405578 -0.403845 0.561856
DOCKED: USER    NEWDPF axisangle0 -0.722009 0.490282 -0.488187 111.631464
DOCKED: USER    NEWDPF quat0 -0.722009 0.490282 -0.488187 111.631464
DOCKED: USER    NEWDPF dihe0 -83.65 167.65 -72.98 53.85 58.80 65.28 -25.37 75.82 139.95 146.78 -72.65 -103.65 5.38 
DOCKED: USER  keepresnum = 1 
DOCKED: USER  
DOCKED: REMARK  13 active torsions:
DOCKED: REMARK  status: ('A' for Active; 'I' for Inactive)
DOCKED: REMARK    1  A    between atoms: O_3  and  C_38 
DOCKED: REMARK    2  A    between atoms: O_4  and  C_40 
DOCKED: REMARK    3  A    between atoms: O_7  and  C_46 
DOCKED: REMARK    4  A    between atoms: O_9  and  C_48 
DOCKED: REMARK    5  A    between atoms: C_15  and  C_20 
DOCKED: REMARK    6  A    between atoms: C_16  and  C_23 
DOCKED: REMARK    7  A    between atoms: C_20  and  C_38 
DOCKED: REMARK    8  A    between atoms: C_23  and  C_40 
DOCKED: REMARK    9  A    between atoms: C_32  and  C_41 
DOCKED: REMARK   10  A    between atoms: C_37  and  C_45 
DOCKED: REMARK   11  A    between atoms: C_41  and  C_44 
DOCKED: REMARK   12  A    between atoms: C_44  and  C_46 
DOCKED: REMARK   13  A    between atoms: C_47  and  C_48 
DOCKED: USER                              x       y       z     vdW  Elec       q    Type
DOCKED: USER                           _______ _______ _______ _____ _____    ______ ____
DOCKED: ROOT
DOCKED: ATOM      1  O   UNL d   1      -4.553  16.224   6.618 -0.10 +0.09    -0.289 OA
DOCKED: ATOM      2  O   UNL d   1       2.538  18.617   7.239 -0.01 +0.09    -0.289 OA
DOCKED: ATOM      3  N   UNL d   1      -2.933  16.500   9.651 -0.11 +0.08    -0.247 NA
DOCKED: ATOM      4  N   UNL d   1      -0.153  17.210   8.878 -0.14 +0.09    -0.247 NA
DOCKED: ATOM      5  N   UNL d   1       0.651  16.607  11.572 -0.04 +0.16    -0.354 N 
DOCKED: ATOM      6  N   UNL d   1      -2.232  15.854  12.360 -0.07 +0.18    -0.354 N 
DOCKED: ATOM      7  C   UNL d   1      -5.101  15.619   8.922 -0.21 -0.01    +0.084 A 
DOCKED: ATOM      8  C   UNL d   1       0.155  18.355   6.742 -0.08 -0.04    +0.084 A 
DOCKED: ATOM      9  C   UNL d   1      -0.776  17.646   7.730 -0.14 -0.02    +0.058 A 
DOCKED: ATOM     10  C   UNL d   1      -4.109  15.892  10.057 -0.22 -0.01    +0.058 A 
DOCKED: ATOM     11  C   UNL d   1      -4.285  16.198   7.806 -0.11 -0.04    +0.193 A 
DOCKED: ATOM     12  C   UNL d   1      -3.005  16.722   8.379 -0.15 -0.03    +0.109 A 
DOCKED: ATOM     13  C   UNL d   1       1.430  18.207   7.524 -0.05 -0.07    +0.193 A 
DOCKED: ATOM     14  C   UNL d   1      -5.290  14.121   8.672 -0.30 -0.00    +0.026 C 
DOCKED: ATOM     15  C   UNL d   1      -2.075  17.426   7.474 -0.15 -0.02    +0.055 C 
DOCKED: ATOM     16  C   UNL d   1      -0.176  19.845   6.618 -0.02 -0.01    +0.026 C 
DOCKED: ATOM     17  C   UNL d   1       1.108  17.489   8.795 -0.15 -0.04    +0.109 A 
DOCKED: ATOM     18  C   UNL d   1      -4.421  15.633  11.341 -0.27 -0.01    +0.050 C 
DOCKED: ATOM     19  C   UNL d   1      -3.603  15.929  12.461 -0.24 -0.02    +0.045 A 
DOCKED: ATOM     20  C   UNL d   1       1.882  16.747  10.985 -0.19 -0.02    +0.045 A 
DOCKED: ATOM     21  C   UNL d   1       2.178  17.162   9.749 -0.20 -0.02    +0.057 C 
DOCKED: ATOM     22  C   UNL d   1       2.165  15.992  13.122 -0.26 +0.00    -0.019 A 
DOCKED: ATOM     23  C   UNL d   1       0.721  16.156  12.863 -0.27 -0.02    +0.045 A 
DOCKED: ATOM     24  C   UNL d   1       2.847  16.345  12.007 -0.15 +0.01    -0.022 A 
DOCKED: ATOM     25  C   UNL d   1      -1.644  16.090  13.581 -0.25 -0.02    +0.049 A 
DOCKED: ATOM     26  C   UNL d   1      -3.912  16.259  13.772 -0.19 +0.01    -0.018 A 
DOCKED: ATOM     27  C   UNL d   1      -2.670  16.378  14.469 -0.22 -0.00    +0.003 A 
DOCKED: ATOM     28  C   UNL d   1      -0.245  15.913  13.762 -0.27 -0.02    +0.052 C 
DOCKED: ATOM     29  C   UNL d   1       4.321  16.361  11.780 -0.13 -0.01    +0.046 C 
DOCKED: ATOM     30  C   UNL d   1      -5.276  16.453  14.343 -0.08 -0.03    +0.046 C 
DOCKED: ATOM     31  H   UNL d   1      -0.196  16.896  11.094 -0.22 -0.08    +0.166 HD
DOCKED: ATOM     32  H   UNL d   1      -1.746  15.615  11.504 -0.47 -0.16    +0.166 HD
DOCKED: ENDROOT
DOCKED: BRANCH   7  33
DOCKED: ATOM     33  C   UNL d   1      -6.446  16.344   9.038 -0.15 -0.01    +0.141 C 
DOCKED: BRANCH  33  34
DOCKED: ATOM     34  C   UNL d   1      -7.437  15.895   7.998 -0.11 -0.05    +0.306 C 
DOCKED: ATOM     35  O   UNL d   1      -8.470  15.282   8.205 -0.19 +0.01    -0.251 OA
DOCKED: BRANCH  34  36
DOCKED: ATOM     36  O   UNL d   1      -7.075  16.246   6.751 -0.05 +0.15    -0.481 OA
DOCKED: ATOM     37  H   UNL d   1      -6.592  15.466   6.406 -0.41 -0.17    +0.295 HD
DOCKED: ENDBRANCH  34  36
DOCKED: ENDBRANCH  33  34
DOCKED: ENDBRANCH   7  33
DOCKED: BRANCH  27  38
DOCKED: ATOM     38  C   UNL d   1      -2.532  16.693  15.859 -0.19 -0.01    +0.017 C 
DOCKED: ATOM     39  C   UNL d   1      -2.063  15.859  16.800 -0.30 -0.07    +0.092 C 
DOCKED: BRANCH  39  40
DOCKED: ATOM     40  C   UNL d   1      -1.955  16.311  18.189 -0.13 -0.17    +0.330 C 
DOCKED: ATOM     41  O   UNL d   1      -2.855  16.652  18.933 -0.09 +0.14    -0.246 OA
DOCKED: BRANCH  40  42
DOCKED: ATOM     42  O   UNL d   1      -0.671  16.300  18.579 -0.07 +0.11    -0.477 OA
DOCKED: ATOM     43  H   UNL d   1      -0.215  15.797  17.874 +0.07 -0.04    +0.295 HD
DOCKED: ENDBRANCH  40  42
DOCKED: ENDBRANCH  39  40
DOCKED: ENDBRANCH  27  38
DOCKED: BRANCH   8  44
DOCKED: ATOM     44  C   UNL d   1       0.278  17.698   5.363 -0.15 -0.12    +0.141 C 
DOCKED: BRANCH  44  45
DOCKED: ATOM     45  C   UNL d   1      -0.619  18.320   4.326 -0.09 -0.36    +0.306 C 
DOCKED: ATOM     46  O   UNL d   1      -1.835  18.251   4.282 -0.12 +0.27    -0.251 OA
DOCKED: BRANCH  45  47
DOCKED: ATOM     47  O   UNL d   1       0.071  18.978   3.377 -0.04 +0.69    -0.481 OA
DOCKED: ATOM     48  H   UNL d   1       0.016  18.401   2.586 -0.49 -0.88    +0.295 HD
DOCKED: ENDBRANCH  45  47
DOCKED: ENDBRANCH  44  45
DOCKED: ENDBRANCH   8  44
DOCKED: BRANCH  22  49
DOCKED: ATOM     49  C   UNL d   1       2.738  15.497  14.417 +0.02 -0.00    +0.048 C 
DOCKED: BRANCH  49  50
DOCKED: ATOM     50  C   UNL d   1       2.749  16.587  15.488 -0.10 -0.01    +0.125 C 
DOCKED: BRANCH  50  51
DOCKED: ATOM     51  C   UNL d   1       1.715  16.313  16.543 -0.11 -0.00    +0.305 C 
DOCKED: ATOM     52  O   UNL d   1       1.722  15.425  17.377 -0.62 -0.04    -0.251 OA
DOCKED: BRANCH  51  53
DOCKED: ATOM     53  O   UNL d   1       0.692  17.188  16.485 -0.03 +0.06    -0.481 OA
DOCKED: ATOM     54  H   UNL d   1       0.633  17.546  17.395 +0.05 -0.03    +0.295 HD
DOCKED: ENDBRANCH  51  53
DOCKED: ENDBRANCH  50  51
DOCKED: ENDBRANCH  49  50
DOCKED: ENDBRANCH  22  49
DOCKED: TORSDOF 13
DOCKED: TER
DOCKED: ENDMDL
________________________________________________________________________________


	BEGINNING GENETIC ALGORITHM DOCKING 63 of 100
Run: 63 Seed: 1732579116 456671930 [ Run 63 of 100 GA/GALS ]
Beginning LAMARCKIAN GENETIC ALGORITHM (LGA), with a maximum of 25000000 energy evaluations.

Final-Value: -11.080


	FINAL GENETIC ALGORITHM DOCKED STATE
	_______________________________________________


Detailed state:  trans 16.461 1.943 -11.259 quatxyzw 0.863490 -0.033185 0.496463 -0.082516 center 0.153 0.018 -0.028 ntor 13 -32.9193 71.2994 -123.5449 -151.5995 28.6257 8.0943 125.4563 17.5209 -133.1978 -38.1348 -97.3740 -81.7396 -76.0746
State:	 16.461   1.943 -11.259   0.866 -0.033  0.498 -170.534    -32.92   71.30 -123.54 -151.60   28.63    8.09  125.46   17.52 -133.20  -38.13  -97.37  -81.74  -76.07

DOCKED: MODEL       63
DOCKED: USER    Run = 63
DOCKED: USER    DPF = D:/Protein_go_brrr/autodock/final/AncB/heme/dock.dpf
DOCKED: USER  
DOCKED: USER    Estimated Free Energy of Binding    =   -5.64 kcal/mol  [=(1)+(2)+(3)-(4)]
DOCKED: USER    Estimated Inhibition Constant, Ki   =   73.53 uM (micromolar)  [Temperature = 298.15 K]
DOCKED: USER    
DOCKED: USER    (1) Final Intermolecular Energy     =   -9.52 kcal/mol
DOCKED: USER        vdW + Hbond + desolv Energy     =   -9.20 kcal/mol
DOCKED: USER        Electrostatic Energy            =   -0.31 kcal/mol
DOCKED: USER    (2) Final Total Internal Energy     =   -1.56 kcal/mol
DOCKED: USER    (3) Torsional Free Energy           =   +3.88 kcal/mol
DOCKED: USER    (4) Unbound System's Energy  [=(2)] =   -1.56 kcal/mol
DOCKED: USER    
DOCKED: USER    
DOCKED: USER    NEWDPF move heme_opt.pdbqt
DOCKED: USER    NEWDPF about 0.153000 0.018000 -0.028000
DOCKED: USER    NEWDPF tran0 16.461388 1.942520 -11.258748
DOCKED: USER    NEWDPF quaternion0 0.863490 -0.033185 0.496463 -0.082516
DOCKED: USER    NEWDPF axisangle0 0.866444 -0.033299 0.498162 -170.533638
DOCKED: USER    NEWDPF quat0 0.866444 -0.033299 0.498162 -170.533638
DOCKED: USER    NEWDPF dihe0 -32.92 71.30 -123.54 -151.60 28.63 8.09 125.46 17.52 -133.20 -38.13 -97.37 -81.74 -76.07 
DOCKED: USER  keepresnum = 1 
DOCKED: USER  
DOCKED: REMARK  13 active torsions:
DOCKED: REMARK  status: ('A' for Active; 'I' for Inactive)
DOCKED: REMARK    1  A    between atoms: O_3  and  C_38 
DOCKED: REMARK    2  A    between atoms: O_4  and  C_40 
DOCKED: REMARK    3  A    between atoms: O_7  and  C_46 
DOCKED: REMARK    4  A    between atoms: O_9  and  C_48 
DOCKED: REMARK    5  A    between atoms: C_15  and  C_20 
DOCKED: REMARK    6  A    between atoms: C_16  and  C_23 
DOCKED: REMARK    7  A    between atoms: C_20  and  C_38 
DOCKED: REMARK    8  A    between atoms: C_23  and  C_40 
DOCKED: REMARK    9  A    between atoms: C_32  and  C_41 
DOCKED: REMARK   10  A    between atoms: C_37  and  C_45 
DOCKED: REMARK   11  A    between atoms: C_41  and  C_44 
DOCKED: REMARK   12  A    between atoms: C_44  and  C_46 
DOCKED: REMARK   13  A    between atoms: C_47  and  C_48 
DOCKED: USER                              x       y       z     vdW  Elec       q    Type
DOCKED: USER                           _______ _______ _______ _____ _____    ______ ____
DOCKED: ROOT
DOCKED: ATOM      1  O   UNL d   1      13.946   0.028 -16.235 -0.05 -0.10    -0.289 OA
DOCKED: ATOM      2  O   UNL d   1      14.450   6.923 -13.303 -0.55 -0.11    -0.289 OA
DOCKED: ATOM      3  N   UNL d   1      15.420   0.657 -13.181 -0.12 -0.07    -0.247 NA
DOCKED: ATOM      4  N   UNL d   1      15.418   3.624 -13.019 -0.08 -0.10    -0.247 NA
DOCKED: ATOM      5  N   UNL d   1      17.250   3.412 -10.813 -0.07 -0.28    -0.354 N 
DOCKED: ATOM      6  N   UNL d   1      17.261   0.335 -11.001 -0.04 -0.13    -0.354 N 
DOCKED: ATOM      7  C   UNL d   1      15.185  -1.318 -14.614 -0.14 +0.02    +0.084 A 
DOCKED: ATOM      8  C   UNL d   1      13.701   4.811 -14.288 -0.33 +0.02    +0.084 A 
DOCKED: ATOM      9  C   UNL d   1      14.391   3.492 -13.927 -0.23 +0.02    +0.058 A 
DOCKED: ATOM     10  C   UNL d   1      15.717  -0.689 -13.323 -0.16 +0.02    +0.058 A 
DOCKED: ATOM     11  C   UNL d   1      14.518  -0.094 -15.168 -0.14 +0.05    +0.193 A 
DOCKED: ATOM     12  C   UNL d   1      14.709   1.028 -14.196 -0.20 +0.03    +0.109 A 
DOCKED: ATOM     13  C   UNL d   1      14.551   5.721 -13.446 -0.26 +0.06    +0.193 A 
DOCKED: ATOM     14  C   UNL d   1      16.315  -1.736 -15.558 -0.05 +0.01    +0.026 C 
DOCKED: ATOM     15  C   UNL d   1      14.055   2.320 -14.487 -0.29 +0.02    +0.055 C 
DOCKED: ATOM     16  C   UNL d   1      12.262   4.861 -13.767 -0.56 +0.00    +0.026 C 
DOCKED: ATOM     17  C   UNL d   1      15.558   4.878 -12.733 -0.22 +0.05    +0.109 A 
DOCKED: ATOM     18  C   UNL d   1      16.337  -1.428 -12.384 -0.17 +0.02    +0.050 C 
DOCKED: ATOM     19  C   UNL d   1      16.787  -0.951 -11.127 -0.19 +0.01    +0.045 A 
DOCKED: ATOM     20  C   UNL d   1      17.304   4.763 -11.035 -0.23 +0.04    +0.045 A 
DOCKED: ATOM     21  C   UNL d   1      16.562   5.507 -11.862 -0.33 +0.04    +0.057 C 
DOCKED: ATOM     22  C   UNL d   1      18.879   4.208  -9.477 -0.10 -0.02    -0.019 A 
DOCKED: ATOM     23  C   UNL d   1      18.164   2.983  -9.888 -0.14 +0.04    +0.045 A 
DOCKED: ATOM     24  C   UNL d   1      18.364   5.259 -10.158 -0.19 -0.02    -0.022 A 
DOCKED: ATOM     25  C   UNL d   1      17.726   0.556  -9.725 -0.19 +0.02    +0.049 A 
DOCKED: ATOM     26  C   UNL d   1      16.913  -1.570  -9.893 -0.28 -0.01    -0.018 A 
DOCKED: ATOM     27  C   UNL d   1      17.488  -0.608  -9.006 -0.29 +0.00    +0.003 A 
DOCKED: ATOM     28  C   UNL d   1      18.407   1.759  -9.395 -0.18 +0.03    +0.052 C 
DOCKED: ATOM     29  C   UNL d   1      18.745   6.698 -10.080 -0.11 +0.04    +0.046 C 
DOCKED: ATOM     30  C   UNL d   1      16.522  -2.969  -9.554 -0.33 +0.02    +0.046 C 
DOCKED: ATOM     31  H   UNL d   1      16.538   2.835 -11.248 +0.06 +0.10    +0.166 HD
DOCKED: ATOM     32  H   UNL d   1      17.293   0.998 -11.766 +0.05 +0.06    +0.166 HD
DOCKED: ENDROOT
DOCKED: BRANCH   7  33
DOCKED: ATOM     33  C   UNL d   1      14.165  -2.446 -14.423 -0.12 +0.04    +0.141 C 
DOCKED: BRANCH  33  34
DOCKED: ATOM     34  C   UNL d   1      14.816  -3.787 -14.217 -0.08 +0.10    +0.306 C 
DOCKED: ATOM     35  O   UNL d   1      15.249  -4.222 -13.164 -0.13 -0.10    -0.251 OA
DOCKED: BRANCH  34  36
DOCKED: ATOM     36  O   UNL d   1      14.885  -4.509 -15.349 -0.01 -0.12    -0.481 OA
DOCKED: ATOM     37  H   UNL d   1      15.735  -4.993 -15.281 +0.03 +0.07    +0.295 HD
DOCKED: ENDBRANCH  34  36
DOCKED: ENDBRANCH  33  34
DOCKED: ENDBRANCH   7  33
DOCKED: BRANCH  27  38
DOCKED: ATOM     38  C   UNL d   1      17.804  -0.840  -7.629 -0.30 +0.01    +0.017 C 
DOCKED: ATOM     39  C   UNL d   1      18.946  -0.477  -7.025 -0.26 +0.03    +0.092 C 
DOCKED: BRANCH  39  40
DOCKED: ATOM     40  C   UNL d   1      19.139  -0.759  -5.600 -0.18 +0.11    +0.330 C 
DOCKED: ATOM     41  O   UNL d   1      18.411  -1.395  -4.862 -0.35 -0.09    -0.246 OA
DOCKED: BRANCH  40  42
DOCKED: ATOM     42  O   UNL d   1      20.285  -0.208  -5.172 -0.05 -0.13    -0.477 OA
DOCKED: ATOM     43  H   UNL d   1      20.874  -0.977  -5.025 +0.06 +0.06    +0.295 HD
DOCKED: ENDBRANCH  40  42
DOCKED: ENDBRANCH  39  40
DOCKED: ENDBRANCH  27  38
DOCKED: BRANCH   8  44
DOCKED: ATOM     44  C   UNL d   1      13.770   5.209 -15.766 -0.27 +0.02    +0.141 C 
DOCKED: BRANCH  44  45
DOCKED: ATOM     45  C   UNL d   1      15.003   6.001 -16.112 -0.09 +0.05    +0.306 C 
DOCKED: ATOM     46  O   UNL d   1      16.114   5.554 -16.338 -0.03 -0.05    -0.251 OA
DOCKED: BRANCH  45  47
DOCKED: ATOM     47  O   UNL d   1      14.775   7.327 -16.129 -0.09 -0.07    -0.481 OA
DOCKED: ATOM     48  H   UNL d   1      14.407   7.526 -15.242 -0.17 +0.01    +0.295 HD
DOCKED: ENDBRANCH  45  47
DOCKED: ENDBRANCH  44  45
DOCKED: ENDBRANCH   8  44
DOCKED: BRANCH  22  49
DOCKED: ATOM     49  C   UNL d   1      19.998   4.235  -8.477 -0.11 +0.04    +0.048 C 
DOCKED: BRANCH  49  50
DOCKED: ATOM     50  C   UNL d   1      20.199   5.630  -7.887 -0.12 +0.08    +0.125 C 
DOCKED: BRANCH  50  51
DOCKED: ATOM     51  C   UNL d   1      19.247   5.875  -6.751 -0.10 +0.31    +0.305 C 
DOCKED: ATOM     52  O   UNL d   1      18.540   5.059  -6.185 -0.29 -0.36    -0.251 OA
DOCKED: BRANCH  51  53
DOCKED: ATOM     53  O   UNL d   1      19.224   7.171  -6.382 -0.06 -0.26    -0.481 OA
DOCKED: ATOM     54  H   UNL d   1      19.460   7.656  -7.201 -0.37 +0.08    +0.295 HD
DOCKED: ENDBRANCH  51  53
DOCKED: ENDBRANCH  50  51
DOCKED: ENDBRANCH  49  50
DOCKED: ENDBRANCH  22  49
DOCKED: TORSDOF 13
DOCKED: TER
DOCKED: ENDMDL
________________________________________________________________________________


	BEGINNING GENETIC ALGORITHM DOCKING 64 of 100
Run: 64 Seed: 1569038672 1795961092 [ Run 64 of 100 GA/GALS ]
Beginning LAMARCKIAN GENETIC ALGORITHM (LGA), with a maximum of 25000000 energy evaluations.

Final-Value: -11.163


	FINAL GENETIC ALGORITHM DOCKED STATE
	_______________________________________________


Detailed state:  trans 16.350 1.221 -11.122 quatxyzw -0.879094 0.045087 -0.471281 0.055268 center 0.153 0.018 -0.028 ntor 13 -178.2645 -49.2203 -177.0290 -70.1830 44.3289 168.3883 140.0922 -67.9856 126.9490 -29.0236 143.2054 -25.9848 179.7150
State:	 16.350   1.221 -11.122  -0.880  0.045 -0.472 173.663   -178.26  -49.22 -177.03  -70.18   44.33  168.39  140.09  -67.99  126.95  -29.02  143.21  -25.98  179.72

DOCKED: MODEL       64
DOCKED: USER    Run = 64
DOCKED: USER    DPF = D:/Protein_go_brrr/autodock/final/AncB/heme/dock.dpf
DOCKED: USER  
DOCKED: USER    Estimated Free Energy of Binding    =   -4.91 kcal/mol  [=(1)+(2)+(3)-(4)]
DOCKED: USER    Estimated Inhibition Constant, Ki   =  250.40 uM (micromolar)  [Temperature = 298.15 K]
DOCKED: USER    
DOCKED: USER    (1) Final Intermolecular Energy     =   -8.79 kcal/mol
DOCKED: USER        vdW + Hbond + desolv Energy     =   -8.60 kcal/mol
DOCKED: USER        Electrostatic Energy            =   -0.19 kcal/mol
DOCKED: USER    (2) Final Total Internal Energy     =   -2.37 kcal/mol
DOCKED: USER    (3) Torsional Free Energy           =   +3.88 kcal/mol
DOCKED: USER    (4) Unbound System's Energy  [=(2)] =   -2.37 kcal/mol
DOCKED: USER    
DOCKED: USER    
DOCKED: USER    NEWDPF move heme_opt.pdbqt
DOCKED: USER    NEWDPF about 0.153000 0.018000 -0.028000
DOCKED: USER    NEWDPF tran0 16.350264 1.221332 -11.121593
DOCKED: USER    NEWDPF quaternion0 -0.879094 0.045087 -0.471281 0.055268
DOCKED: USER    NEWDPF axisangle0 -0.880440 0.045156 -0.472002 173.663477
DOCKED: USER    NEWDPF quat0 -0.880440 0.045156 -0.472002 173.663477
DOCKED: USER    NEWDPF dihe0 -178.26 -49.22 -177.03 -70.18 44.33 168.39 140.09 -67.99 126.95 -29.02 143.21 -25.98 179.72 
DOCKED: USER  keepresnum = 1 
DOCKED: USER  
DOCKED: REMARK  13 active torsions:
DOCKED: REMARK  status: ('A' for Active; 'I' for Inactive)
DOCKED: REMARK    1  A    between atoms: O_3  and  C_38 
DOCKED: REMARK    2  A    between atoms: O_4  and  C_40 
DOCKED: REMARK    3  A    between atoms: O_7  and  C_46 
DOCKED: REMARK    4  A    between atoms: O_9  and  C_48 
DOCKED: REMARK    5  A    between atoms: C_15  and  C_20 
DOCKED: REMARK    6  A    between atoms: C_16  and  C_23 
DOCKED: REMARK    7  A    between atoms: C_20  and  C_38 
DOCKED: REMARK    8  A    between atoms: C_23  and  C_40 
DOCKED: REMARK    9  A    between atoms: C_32  and  C_41 
DOCKED: REMARK   10  A    between atoms: C_37  and  C_45 
DOCKED: REMARK   11  A    between atoms: C_41  and  C_44 
DOCKED: REMARK   12  A    between atoms: C_44  and  C_46 
DOCKED: REMARK   13  A    between atoms: C_47  and  C_48 
DOCKED: USER                              x       y       z     vdW  Elec       q    Type
DOCKED: USER                           _______ _______ _______ _____ _____    ______ ____
DOCKED: ROOT
DOCKED: ATOM      1  O   UNL d   1      13.566  -0.388 -16.063 -0.07 -0.10    -0.289 OA
DOCKED: ATOM      2  O   UNL d   1      14.220   6.311 -12.733 -0.32 -0.12    -0.289 OA
DOCKED: ATOM      3  N   UNL d   1      15.206   0.054 -13.061 -0.16 -0.08    -0.247 NA
DOCKED: ATOM      4  N   UNL d   1      15.209   3.004 -12.712 -0.12 -0.10    -0.247 NA
DOCKED: ATOM      5  N   UNL d   1      17.160   2.664 -10.628 -0.08 -0.25    -0.354 N 
DOCKED: ATOM      6  N   UNL d   1      17.166  -0.395 -11.010 -0.04 -0.12    -0.354 N 
DOCKED: ATOM      7  C   UNL d   1      14.895  -1.828 -14.601 -0.15 +0.02    +0.084 A 
DOCKED: ATOM      8  C   UNL d   1      13.422   4.261 -13.807 -0.38 +0.02    +0.084 A 
DOCKED: ATOM      9  C   UNL d   1      14.133   2.925 -13.568 -0.30 +0.02    +0.058 A 
DOCKED: ATOM     10  C   UNL d   1      15.497  -1.278 -13.304 -0.15 +0.02    +0.058 A 
DOCKED: ATOM     11  C   UNL d   1      14.198  -0.575 -15.039 -0.17 +0.05    +0.193 A 
DOCKED: ATOM     12  C   UNL d   1      14.440   0.485 -14.009 -0.26 +0.03    +0.109 A 
DOCKED: ATOM     13  C   UNL d   1      14.316   5.120 -12.958 -0.27 +0.07    +0.193 A 
DOCKED: ATOM     14  C   UNL d   1      15.972  -2.180 -15.630 -0.06 +0.01    +0.026 C 
DOCKED: ATOM     15  C   UNL d   1      13.769   1.789 -14.182 -0.34 +0.02    +0.055 C 
DOCKED: ATOM     16  C   UNL d   1      12.013   4.270 -13.206 -0.24 +0.00    +0.026 C 
DOCKED: ATOM     17  C   UNL d   1      15.362   4.239 -12.356 -0.24 +0.05    +0.109 A 
DOCKED: ATOM     18  C   UNL d   1      16.170  -2.072 -12.449 -0.16 +0.02    +0.050 C 
DOCKED: ATOM     19  C   UNL d   1      16.687  -1.673 -11.191 -0.19 +0.01    +0.045 A 
DOCKED: ATOM     20  C   UNL d   1      17.199   4.027 -10.767 -0.16 +0.04    +0.045 A 
DOCKED: ATOM     21  C   UNL d   1      16.412   4.817 -11.503 -0.32 +0.04    +0.057 C 
DOCKED: ATOM     22  C   UNL d   1      18.859   3.382  -9.336 -0.13 -0.02    -0.019 A 
DOCKED: ATOM     23  C   UNL d   1      18.125   2.182  -9.784 -0.16 +0.03    +0.045 A 
DOCKED: ATOM     24  C   UNL d   1      18.306   4.471  -9.920 -0.09 -0.03    -0.022 A 
DOCKED: ATOM     25  C   UNL d   1      17.700  -0.253  -9.750 -0.19 +0.02    +0.049 A 
DOCKED: ATOM     26  C   UNL d   1      16.882  -2.368 -10.007 -0.26 -0.01    -0.018 A 
DOCKED: ATOM     27  C   UNL d   1      17.504  -1.461  -9.095 -0.26 +0.00    +0.003 A 
DOCKED: ATOM     28  C   UNL d   1      18.396   0.931  -9.383 -0.18 +0.02    +0.052 C 
DOCKED: ATOM     29  C   UNL d   1      18.687   5.905  -9.772 -0.26 +0.05    +0.046 C 
DOCKED: ATOM     30  C   UNL d   1      16.513  -3.787  -9.737 -0.29 +0.02    +0.046 C 
DOCKED: ATOM     31  H   UNL d   1      16.426   2.112 -11.058 +0.07 +0.09    +0.166 HD
DOCKED: ATOM     32  H   UNL d   1      17.154   0.315 -11.732 +0.05 +0.05    +0.166 HD
DOCKED: ENDROOT
DOCKED: BRANCH   7  33
DOCKED: ATOM     33  C   UNL d   1      13.890  -2.971 -14.426 -0.09 +0.04    +0.141 C 
DOCKED: BRANCH  33  34
DOCKED: ATOM     34  C   UNL d   1      13.242  -3.376 -15.722 -0.11 +0.06    +0.306 C 
DOCKED: ATOM     35  O   UNL d   1      13.564  -4.319 -16.424 -0.04 -0.05    -0.251 OA
DOCKED: BRANCH  34  36
DOCKED: ATOM     36  O   UNL d   1      12.220  -2.572 -16.064 -0.09 -0.06    -0.481 OA
DOCKED: ATOM     37  H   UNL d   1      12.165  -1.918 -15.335 -0.45 -0.02    +0.295 HD
DOCKED: ENDBRANCH  34  36
DOCKED: ENDBRANCH  33  34
DOCKED: ENDBRANCH   7  33
DOCKED: BRANCH  27  38
DOCKED: ATOM     38  C   UNL d   1      17.896  -1.777  -7.755 -0.23 +0.01    +0.017 C 
DOCKED: ATOM     39  C   UNL d   1      18.291  -0.886  -6.832 -0.30 +0.03    +0.092 C 
DOCKED: BRANCH  39  40
DOCKED: ATOM     40  C   UNL d   1      18.650  -1.339  -5.486 -0.24 +0.11    +0.330 C 
DOCKED: ATOM     41  O   UNL d   1      19.233  -0.713  -4.622 -0.21 -0.08    -0.246 OA
DOCKED: BRANCH  40  42
DOCKED: ATOM     42  O   UNL d   1      18.230  -2.599  -5.296 -0.16 -0.16    -0.477 OA
DOCKED: ATOM     43  H   UNL d   1      19.018  -3.058  -4.939 +0.09 +0.07    +0.295 HD
DOCKED: ENDBRANCH  40  42
DOCKED: ENDBRANCH  39  40
DOCKED: ENDBRANCH  27  38
DOCKED: BRANCH   8  44
DOCKED: ATOM     44  C   UNL d   1      13.408   4.752 -15.259 -0.32 +0.02    +0.141 C 
DOCKED: BRANCH  44  45
DOCKED: ATOM     45  C   UNL d   1      14.708   5.380 -15.686 -0.11 +0.05    +0.306 C 
DOCKED: ATOM     46  O   UNL d   1      15.619   4.831 -16.282 -0.04 -0.05    -0.251 OA
DOCKED: BRANCH  45  47
DOCKED: ATOM     47  O   UNL d   1      14.804   6.669 -15.314 -0.09 -0.07    -0.481 OA
DOCKED: ATOM     48  H   UNL d   1      13.978   6.845 -14.815 -0.27 -0.03    +0.295 HD
DOCKED: ENDBRANCH  45  47
DOCKED: ENDBRANCH  44  45
DOCKED: ENDBRANCH   8  44
DOCKED: BRANCH  22  49
DOCKED: ATOM     49  C   UNL d   1      20.031   3.352  -8.400 -0.10 +0.03    +0.048 C 
DOCKED: BRANCH  49  50
DOCKED: ATOM     50  C   UNL d   1      21.361   3.369  -9.153 -0.02 +0.04    +0.125 C 
DOCKED: BRANCH  50  51
DOCKED: ATOM     51  C   UNL d   1      21.266   2.581 -10.428 +0.00 +0.09    +0.305 C 
DOCKED: ATOM     52  O   UNL d   1      21.234   1.369 -10.552 -0.00 -0.06    -0.251 OA
DOCKED: BRANCH  51  53
DOCKED: ATOM     53  O   UNL d   1      21.226   3.380 -11.513 +0.01 -0.13    -0.481 OA
DOCKED: ATOM     54  H   UNL d   1      22.096   3.241 -11.942 +0.00 +0.06    +0.295 HD
DOCKED: ENDBRANCH  51  53
DOCKED: ENDBRANCH  50  51
DOCKED: ENDBRANCH  49  50
DOCKED: ENDBRANCH  22  49
DOCKED: TORSDOF 13
DOCKED: TER
DOCKED: ENDMDL
________________________________________________________________________________


	BEGINNING GENETIC ALGORITHM DOCKING 65 of 100
Run: 65 Seed: 557031446 2907951 [ Run 65 of 100 GA/GALS ]
Beginning LAMARCKIAN GENETIC ALGORITHM (LGA), with a maximum of 25000000 energy evaluations.

Final-Value: -11.171


	FINAL GENETIC ALGORITHM DOCKED STATE
	_______________________________________________


Detailed state:  trans -15.634 7.879 7.975 quatxyzw -0.648183 0.198042 -0.726634 0.112428 center 0.153 0.018 -0.028 ntor 13 95.9502 -133.6966 145.3818 -28.3368 -139.0157 33.9092 -46.1373 -94.3215 42.9647 -108.8299 -79.9610 -78.9763 -8.2807
State:	-15.634   7.879   7.975  -0.652  0.199 -0.731 167.089     95.95 -133.70  145.38  -28.34 -139.02   33.91  -46.14  -94.32   42.96 -108.83  -79.96  -78.98   -8.28

DOCKED: MODEL       65
DOCKED: USER    Run = 65
DOCKED: USER    DPF = D:/Protein_go_brrr/autodock/final/AncB/heme/dock.dpf
DOCKED: USER  
DOCKED: USER    Estimated Free Energy of Binding    =   -2.78 kcal/mol  [=(1)+(2)+(3)-(4)]
DOCKED: USER    Estimated Inhibition Constant, Ki   =    9.20 mM (millimolar)  [Temperature = 298.15 K]
DOCKED: USER    
DOCKED: USER    (1) Final Intermolecular Energy     =   -6.66 kcal/mol
DOCKED: USER        vdW + Hbond + desolv Energy     =   -6.57 kcal/mol
DOCKED: USER        Electrostatic Energy            =   -0.09 kcal/mol
DOCKED: USER    (2) Final Total Internal Energy     =   -4.51 kcal/mol
DOCKED: USER    (3) Torsional Free Energy           =   +3.88 kcal/mol
DOCKED: USER    (4) Unbound System's Energy  [=(2)] =   -4.51 kcal/mol
DOCKED: USER    
DOCKED: USER    
DOCKED: USER    NEWDPF move heme_opt.pdbqt
DOCKED: USER    NEWDPF about 0.153000 0.018000 -0.028000
DOCKED: USER    NEWDPF tran0 -15.633590 7.879178 7.974543
DOCKED: USER    NEWDPF quaternion0 -0.648183 0.198042 -0.726634 0.112428
DOCKED: USER    NEWDPF axisangle0 -0.652319 0.199306 -0.731271 167.089402
DOCKED: USER    NEWDPF quat0 -0.652319 0.199306 -0.731271 167.089402
DOCKED: USER    NEWDPF dihe0 95.95 -133.70 145.38 -28.34 -139.02 33.91 -46.14 -94.32 42.96 -108.83 -79.96 -78.98 -8.28 
DOCKED: USER  keepresnum = 1 
DOCKED: USER  
DOCKED: REMARK  13 active torsions:
DOCKED: REMARK  status: ('A' for Active; 'I' for Inactive)
DOCKED: REMARK    1  A    between atoms: O_3  and  C_38 
DOCKED: REMARK    2  A    between atoms: O_4  and  C_40 
DOCKED: REMARK    3  A    between atoms: O_7  and  C_46 
DOCKED: REMARK    4  A    between atoms: O_9  and  C_48 
DOCKED: REMARK    5  A    between atoms: C_15  and  C_20 
DOCKED: REMARK    6  A    between atoms: C_16  and  C_23 
DOCKED: REMARK    7  A    between atoms: C_20  and  C_38 
DOCKED: REMARK    8  A    between atoms: C_23  and  C_40 
DOCKED: REMARK    9  A    between atoms: C_32  and  C_41 
DOCKED: REMARK   10  A    between atoms: C_37  and  C_45 
DOCKED: REMARK   11  A    between atoms: C_41  and  C_44 
DOCKED: REMARK   12  A    between atoms: C_44  and  C_46 
DOCKED: REMARK   13  A    between atoms: C_47  and  C_48 
DOCKED: USER                              x       y       z     vdW  Elec       q    Type
DOCKED: USER                           _______ _______ _______ _____ _____    ______ ____
DOCKED: ROOT
DOCKED: ATOM      1  O   UNL d   1     -15.007   6.608   2.252 -0.13 -0.07    -0.289 OA
DOCKED: ATOM      2  O   UNL d   1     -14.658  13.155   5.913 -0.08 +0.03    -0.289 OA
DOCKED: ATOM      3  N   UNL d   1     -15.582   6.886   5.641 -0.08 -0.02    -0.247 NA
DOCKED: ATOM      4  N   UNL d   1     -14.932   9.728   6.214 -0.08 -0.02    -0.247 NA
DOCKED: ATOM      5  N   UNL d   1     -14.936   9.069   9.012 -0.09 -0.02    -0.354 N 
DOCKED: ATOM      6  N   UNL d   1     -15.592   6.118   8.409 -0.10 -0.03    -0.354 N 
DOCKED: ATOM      7  C   UNL d   1     -15.392   5.017   4.067 -0.20 +0.01    +0.084 A 
DOCKED: ATOM      8  C   UNL d   1     -15.161  11.320   4.374 -0.08 -0.00    +0.084 A 
DOCKED: ATOM      9  C   UNL d   1     -15.192   9.870   4.869 -0.11 +0.00    +0.058 A 
DOCKED: ATOM     10  C   UNL d   1     -15.612   5.509   5.501 -0.19 +0.01    +0.058 A 
DOCKED: ATOM     11  C   UNL d   1     -15.251   6.361   3.419 -0.11 +0.03    +0.193 A 
DOCKED: ATOM     12  C   UNL d   1     -15.411   7.413   4.473 -0.11 +0.01    +0.109 A 
DOCKED: ATOM     13  C   UNL d   1     -14.798  11.971   5.679 -0.05 -0.01    +0.193 A 
DOCKED: ATOM     14  C   UNL d   1     -14.074   4.254   3.917 -0.36 +0.00    +0.026 C 
DOCKED: ATOM     15  C   UNL d   1     -15.403   8.828   4.050 -0.11 +0.00    +0.055 C 
DOCKED: ATOM     16  C   UNL d   1     -16.550  11.805   3.951 -0.02 +0.00    +0.026 C 
DOCKED: ATOM     17  C   UNL d   1     -14.682  10.897   6.711 +0.01 +0.00    +0.109 A 
DOCKED: ATOM     18  C   UNL d   1     -15.898   4.654   6.501 -0.21 +0.01    +0.050 C 
DOCKED: ATOM     19  C   UNL d   1     -16.199   5.023   7.837 -0.06 +0.00    +0.045 A 
DOCKED: ATOM     20  C   UNL d   1     -14.420  10.338   9.070 -0.21 +0.00    +0.045 A 
DOCKED: ATOM     21  C   UNL d   1     -14.292  11.236   8.088 -0.17 +0.00    +0.057 C 
DOCKED: ATOM     22  C   UNL d   1     -14.313   9.402  11.151 -0.22 -0.00    -0.019 A 
DOCKED: ATOM     23  C   UNL d   1     -14.914   8.425  10.221 -0.25 +0.00    +0.045 A 
DOCKED: ATOM     24  C   UNL d   1     -14.024  10.533  10.464 -0.23 -0.00    -0.022 A 
DOCKED: ATOM     25  C   UNL d   1     -15.957   6.238   9.730 -0.20 +0.00    +0.049 A 
DOCKED: ATOM     26  C   UNL d   1     -17.006   4.438   8.800 -0.12 -0.00    -0.018 A 
DOCKED: ATOM     27  C   UNL d   1     -16.865   5.221   9.987 -0.15 +0.00    +0.003 A 
DOCKED: ATOM     28  C   UNL d   1     -15.338   7.202  10.572 -0.31 +0.00    +0.052 C 
DOCKED: ATOM     29  C   UNL d   1     -13.421  11.800  10.965 -0.22 +0.01    +0.046 C 
DOCKED: ATOM     30  C   UNL d   1     -17.860   3.227   8.630 -0.11 +0.00    +0.046 C 
DOCKED: ATOM     31  H   UNL d   1     -15.357   8.711   8.162 +0.06 +0.01    +0.166 HD
DOCKED: ATOM     32  H   UNL d   1     -14.938   6.716   7.918 +0.03 +0.01    +0.166 HD
DOCKED: ENDROOT
DOCKED: BRANCH   7  33
DOCKED: ATOM     33  C   UNL d   1     -16.563   4.243   3.451 -0.17 +0.03    +0.141 C 
DOCKED: BRANCH  33  34
DOCKED: ATOM     34  C   UNL d   1     -17.526   5.136   2.717 -0.06 +0.07    +0.306 C 
DOCKED: ATOM     35  O   UNL d   1     -18.452   5.757   3.211 -0.02 -0.04    -0.251 OA
DOCKED: BRANCH  34  36
DOCKED: ATOM     36  O   UNL d   1     -17.269   5.203   1.399 -0.05 -0.20    -0.481 OA
DOCKED: ATOM     37  H   UNL d   1     -16.605   5.919   1.312 +0.06 +0.12    +0.295 HD
DOCKED: ENDBRANCH  34  36
DOCKED: ENDBRANCH  33  34
DOCKED: ENDBRANCH   7  33
DOCKED: BRANCH  27  38
DOCKED: ATOM     38  C   UNL d   1     -17.518   4.956  11.233 -0.14 +0.00    +0.017 C 
DOCKED: ATOM     39  C   UNL d   1     -16.943   5.042  12.443 -0.20 +0.00    +0.092 C 
DOCKED: BRANCH  39  40
DOCKED: ATOM     40  C   UNL d   1     -17.730   4.760  13.646 -0.08 +0.02    +0.330 C 
DOCKED: ATOM     41  O   UNL d   1     -18.652   3.977  13.765 -0.04 -0.01    -0.246 OA
DOCKED: BRANCH  40  42
DOCKED: ATOM     42  O   UNL d   1     -17.286   5.503  14.672 -0.07 -0.04    -0.477 OA
DOCKED: ATOM     43  H   UNL d   1     -17.192   6.400  14.289 +0.06 +0.03    +0.295 HD
DOCKED: ENDBRANCH  40  42
DOCKED: ENDBRANCH  39  40
DOCKED: ENDBRANCH  27  38
DOCKED: BRANCH   8  44
DOCKED: ATOM     44  C   UNL d   1     -14.114  11.628   3.298 -0.10 -0.01    +0.141 C 
DOCKED: BRANCH  44  45
DOCKED: ATOM     45  C   UNL d   1     -13.762  13.089   3.212 -0.05 -0.03    +0.306 C 
DOCKED: ATOM     46  O   UNL d   1     -14.303  13.927   2.512 -0.01 +0.01    -0.251 OA
DOCKED: BRANCH  45  47
DOCKED: ATOM     47  O   UNL d   1     -12.721  13.415   4.000 -0.04 +0.12    -0.481 OA
DOCKED: ATOM     48  H   UNL d   1     -12.824  12.848   4.794 -0.45 -0.16    +0.295 HD
DOCKED: ENDBRANCH  45  47
DOCKED: ENDBRANCH  44  45
DOCKED: ENDBRANCH   8  44
DOCKED: BRANCH  22  49
DOCKED: ATOM     49  C   UNL d   1     -14.066   9.137  12.607 -0.12 +0.00    +0.048 C 
DOCKED: BRANCH  49  50
DOCKED: ATOM     50  C   UNL d   1     -15.247   9.575  13.473 -0.08 +0.01    +0.125 C 
DOCKED: BRANCH  50  51
DOCKED: ATOM     51  C   UNL d   1     -16.094   8.397  13.862 -0.06 +0.02    +0.305 C 
DOCKED: ATOM     52  O   UNL d   1     -17.148   8.044  13.363 -0.03 -0.02    -0.251 OA
DOCKED: BRANCH  51  53
DOCKED: ATOM     53  O   UNL d   1     -15.562   7.712  14.894 -0.66 -0.10    -0.481 OA
DOCKED: ATOM     54  H   UNL d   1     -16.339   7.320  15.345 +0.04 +0.09    +0.295 HD
DOCKED: ENDBRANCH  51  53
DOCKED: ENDBRANCH  50  51
DOCKED: ENDBRANCH  49  50
DOCKED: ENDBRANCH  22  49
DOCKED: TORSDOF 13
DOCKED: TER
DOCKED: ENDMDL
________________________________________________________________________________


	BEGINNING GENETIC ALGORITHM DOCKING 66 of 100
Run: 66 Seed: 1464017217 28180991 [ Run 66 of 100 GA/GALS ]
Beginning LAMARCKIAN GENETIC ALGORITHM (LGA), with a maximum of 25000000 energy evaluations.

Final-Value: -12.174


	FINAL GENETIC ALGORITHM DOCKED STATE
	_______________________________________________


Detailed state:  trans 8.586 -14.717 -4.533 quatxyzw -0.677306 -0.300195 -0.030595 -0.670972 center 0.153 0.018 -0.028 ntor 13 84.5182 175.7842 -66.8452 -53.8853 -138.6750 21.8232 -69.2564 -6.7862 34.4745 -45.3659 -57.6362 -80.9171 15.2518
State:	  8.586 -14.717  -4.533  -0.913 -0.405 -0.041 -95.716     84.52  175.78  -66.85  -53.89 -138.68   21.82  -69.26   -6.79   34.47  -45.37  -57.64  -80.92   15.25

DOCKED: MODEL       66
DOCKED: USER    Run = 66
DOCKED: USER    DPF = D:/Protein_go_brrr/autodock/final/AncB/heme/dock.dpf
DOCKED: USER  
DOCKED: USER    Estimated Free Energy of Binding    =   -4.31 kcal/mol  [=(1)+(2)+(3)-(4)]
DOCKED: USER    Estimated Inhibition Constant, Ki   =  697.78 uM (micromolar)  [Temperature = 298.15 K]
DOCKED: USER    
DOCKED: USER    (1) Final Intermolecular Energy     =   -8.18 kcal/mol
DOCKED: USER        vdW + Hbond + desolv Energy     =   -7.77 kcal/mol
DOCKED: USER        Electrostatic Energy            =   -0.42 kcal/mol
DOCKED: USER    (2) Final Total Internal Energy     =   -3.99 kcal/mol
DOCKED: USER    (3) Torsional Free Energy           =   +3.88 kcal/mol
DOCKED: USER    (4) Unbound System's Energy  [=(2)] =   -3.99 kcal/mol
DOCKED: USER    
DOCKED: USER    
DOCKED: USER    NEWDPF move heme_opt.pdbqt
DOCKED: USER    NEWDPF about 0.153000 0.018000 -0.028000
DOCKED: USER    NEWDPF tran0 8.586125 -14.716841 -4.533142
DOCKED: USER    NEWDPF quaternion0 -0.677306 -0.300195 -0.030595 -0.670972
DOCKED: USER    NEWDPF axisangle0 -0.913448 -0.404858 -0.041262 -95.715785
DOCKED: USER    NEWDPF quat0 -0.913448 -0.404858 -0.041262 -95.715785
DOCKED: USER    NEWDPF dihe0 84.52 175.78 -66.85 -53.89 -138.68 21.82 -69.26 -6.79 34.47 -45.37 -57.64 -80.92 15.25 
DOCKED: USER  keepresnum = 1 
DOCKED: USER  
DOCKED: REMARK  13 active torsions:
DOCKED: REMARK  status: ('A' for Active; 'I' for Inactive)
DOCKED: REMARK    1  A    between atoms: O_3  and  C_38 
DOCKED: REMARK    2  A    between atoms: O_4  and  C_40 
DOCKED: REMARK    3  A    between atoms: O_7  and  C_46 
DOCKED: REMARK    4  A    between atoms: O_9  and  C_48 
DOCKED: REMARK    5  A    between atoms: C_15  and  C_20 
DOCKED: REMARK    6  A    between atoms: C_16  and  C_23 
DOCKED: REMARK    7  A    between atoms: C_20  and  C_38 
DOCKED: REMARK    8  A    between atoms: C_23  and  C_40 
DOCKED: REMARK    9  A    between atoms: C_32  and  C_41 
DOCKED: REMARK   10  A    between atoms: C_37  and  C_45 
DOCKED: REMARK   11  A    between atoms: C_41  and  C_44 
DOCKED: REMARK   12  A    between atoms: C_44  and  C_46 
DOCKED: REMARK   13  A    between atoms: C_47  and  C_48 
DOCKED: USER                              x       y       z     vdW  Elec       q    Type
DOCKED: USER                           _______ _______ _______ _____ _____    ______ ____
DOCKED: ROOT
DOCKED: ATOM      1  O   UNL d   1       4.519 -16.031  -8.593 -0.88 +0.17    -0.289 OA
DOCKED: ATOM      2  O   UNL d   1       4.814 -17.543  -1.244 -0.02 +0.03    -0.289 OA
DOCKED: ATOM      3  N   UNL d   1       7.207 -15.164  -6.614 -0.13 +0.09    -0.247 NA
DOCKED: ATOM      4  N   UNL d   1       6.299 -15.879  -3.877 -0.12 +0.06    -0.247 NA
DOCKED: ATOM      5  N   UNL d   1       8.511 -14.359  -2.846 -0.08 +0.14    -0.354 N 
DOCKED: ATOM      6  N   UNL d   1       9.435 -13.606  -5.689 -0.11 +0.16    -0.354 N 
DOCKED: ATOM      7  C   UNL d   1       6.565 -14.740  -8.941 -0.21 -0.03    +0.084 A 
DOCKED: ATOM      8  C   UNL d   1       4.617 -17.641  -3.682 -0.22 -0.03    +0.084 A 
DOCKED: ATOM      9  C   UNL d   1       5.455 -16.717  -4.571 -0.28 -0.02    +0.058 A 
DOCKED: ATOM     10  C   UNL d   1       7.568 -14.546  -7.800 -0.18 -0.02    +0.058 A 
DOCKED: ATOM     11  C   UNL d   1       5.583 -15.593  -8.196 -0.23 -0.11    +0.193 A 
DOCKED: ATOM     12  C   UNL d   1       6.097 -15.800  -6.805 -0.26 -0.06    +0.109 A 
DOCKED: ATOM     13  C   UNL d   1       5.114 -17.146  -2.353 -0.07 -0.03    +0.193 A 
DOCKED: ATOM     14  C   UNL d   1       5.882 -13.428  -9.336 -0.45 -0.00    +0.026 C 
DOCKED: ATOM     15  C   UNL d   1       5.336 -16.692  -5.908 -0.23 -0.04    +0.055 C 
DOCKED: ATOM     16  C   UNL d   1       5.024 -19.108  -3.845 -0.20 -0.01    +0.026 C 
DOCKED: ATOM     17  C   UNL d   1       6.123 -16.075  -2.610 -0.11 -0.02    +0.109 A 
DOCKED: ATOM     18  C   UNL d   1       8.734 -13.901  -7.991 -0.17 -0.01    +0.050 C 
DOCKED: ATOM     19  C   UNL d   1       9.756 -13.746  -7.020 -0.14 -0.01    +0.045 A 
DOCKED: ATOM     20  C   UNL d   1       7.824 -14.593  -1.683 -0.14 -0.01    +0.045 A 
DOCKED: ATOM     21  C   UNL d   1       6.755 -15.370  -1.484 -0.13 -0.01    +0.057 C 
DOCKED: ATOM     22  C   UNL d   1       9.543 -13.153  -1.248 -0.22 +0.01    -0.019 A 
DOCKED: ATOM     23  C   UNL d   1       9.566 -13.501  -2.683 -0.21 -0.03    +0.045 A 
DOCKED: ATOM     24  C   UNL d   1       8.510 -13.803  -0.662 -0.17 +0.01    -0.022 A 
DOCKED: ATOM     25  C   UNL d   1      10.567 -13.380  -4.940 -0.12 -0.03    +0.049 A 
DOCKED: ATOM     26  C   UNL d   1      11.134 -13.645  -7.135 -0.08 +0.00    -0.018 A 
DOCKED: ATOM     27  C   UNL d   1      11.642 -13.433  -5.816 -0.10 -0.00    +0.003 A 
DOCKED: ATOM     28  C   UNL d   1      10.474 -13.048  -3.561 -0.11 -0.05    +0.052 C 
DOCKED: ATOM     29  C   UNL d   1       8.086 -13.783   0.767 -0.13 -0.02    +0.046 C 
DOCKED: ATOM     30  C   UNL d   1      11.933 -13.741  -8.390 -0.03 -0.00    +0.046 C 
DOCKED: ATOM     31  H   UNL d   1       8.281 -14.853  -3.702 +0.05 -0.05    +0.166 HD
DOCKED: ATOM     32  H   UNL d   1       8.486 -13.628  -5.336 +0.06 -0.07    +0.166 HD
DOCKED: ENDROOT
DOCKED: BRANCH   7  33
DOCKED: ATOM     33  C   UNL d   1       7.102 -15.485 -10.168 -0.12 -0.05    +0.141 C 
DOCKED: BRANCH  33  34
DOCKED: ATOM     34  C   UNL d   1       7.077 -16.979  -9.995 -0.07 -0.23    +0.306 C 
DOCKED: ATOM     35  O   UNL d   1       7.931 -17.655  -9.448 -0.08 +0.19    -0.251 OA
DOCKED: BRANCH  34  36
DOCKED: ATOM     36  O   UNL d   1       5.975 -17.543 -10.519 -0.10 +0.48    -0.481 OA
DOCKED: ATOM     37  H   UNL d   1       5.372 -17.663  -9.755 -0.39 -0.59    +0.295 HD
DOCKED: ENDBRANCH  34  36
DOCKED: ENDBRANCH  33  34
DOCKED: ENDBRANCH   7  33
DOCKED: BRANCH  27  38
DOCKED: ATOM     38  C   UNL d   1      13.024 -13.259  -5.482 -0.06 -0.01    +0.017 C 
DOCKED: ATOM     39  C   UNL d   1      13.505 -12.334  -4.637 -0.05 -0.05    +0.092 C 
DOCKED: BRANCH  39  40
DOCKED: ATOM     40  C   UNL d   1      14.944 -12.271  -4.366 -0.00 -0.06    +0.330 C 
DOCKED: ATOM     41  O   UNL d   1      15.848 -12.730  -5.039 +0.00 +0.01    -0.246 OA
DOCKED: BRANCH  40  42
DOCKED: ATOM     42  O   UNL d   1      15.170 -11.602  -3.226 +0.01 +0.09    -0.477 OA
DOCKED: ATOM     43  H   UNL d   1      14.281 -11.293  -2.954 +0.04 -0.12    +0.295 HD
DOCKED: ENDBRANCH  40  42
DOCKED: ENDBRANCH  39  40
DOCKED: ENDBRANCH  27  38
DOCKED: BRANCH   8  44
DOCKED: ATOM     44  C   UNL d   1       3.099 -17.470  -3.797 -0.10 -0.05    +0.141 C 
DOCKED: BRANCH  44  45
DOCKED: ATOM     45  C   UNL d   1       2.523 -16.550  -2.755 -0.21 -0.05    +0.306 C 
DOCKED: ATOM     46  O   UNL d   1       1.769 -16.860  -1.848 -0.20 +0.02    -0.251 OA
DOCKED: BRANCH  45  47
DOCKED: ATOM     47  O   UNL d   1       2.908 -15.272  -2.927 -0.20 +0.04    -0.481 OA
DOCKED: ATOM     48  H   UNL d   1       2.088 -14.798  -3.181 -0.39 -0.07    +0.295 HD
DOCKED: ENDBRANCH  45  47
DOCKED: ENDBRANCH  44  45
DOCKED: ENDBRANCH   8  44
DOCKED: BRANCH  22  49
DOCKED: ATOM     49  C   UNL d   1      10.514 -12.215  -0.593 -0.20 -0.03    +0.048 C 
DOCKED: BRANCH  49  50
DOCKED: ATOM     50  C   UNL d   1      11.926 -12.798  -0.548 -0.08 -0.05    +0.125 C 
DOCKED: BRANCH  50  51
DOCKED: ATOM     51  C   UNL d   1      12.907 -11.882  -1.223 -0.05 -0.14    +0.305 C 
DOCKED: ATOM     52  O   UNL d   1      12.660 -10.926  -1.937 -0.12 +0.20    -0.251 OA
DOCKED: BRANCH  51  53
DOCKED: ATOM     53  O   UNL d   1      14.183 -12.232  -0.967 +0.01 +0.11    -0.481 OA
DOCKED: ATOM     54  H   UNL d   1      14.586 -12.328  -1.855 +0.02 -0.06    +0.295 HD
DOCKED: ENDBRANCH  51  53
DOCKED: ENDBRANCH  50  51
DOCKED: ENDBRANCH  49  50
DOCKED: ENDBRANCH  22  49
DOCKED: TORSDOF 13
DOCKED: TER
DOCKED: ENDMDL
________________________________________________________________________________


	BEGINNING GENETIC ALGORITHM DOCKING 67 of 100
Run: 67 Seed: 2005115850 850236468 [ Run 67 of 100 GA/GALS ]
Beginning LAMARCKIAN GENETIC ALGORITHM (LGA), with a maximum of 25000000 energy evaluations.

Final-Value: -10.478


	FINAL GENETIC ALGORITHM DOCKED STATE
	_______________________________________________


Detailed state:  trans -7.126 -13.750 12.807 quatxyzw -0.495124 0.021862 -0.740990 0.453109 center 0.153 0.018 -0.028 ntor 13 105.9426 -7.0359 -143.7183 -88.2447 179.1890 -166.0562 4.9480 -102.0048 -29.1166 135.2832 14.2698 9.3896 30.1687
State:	 -7.126 -13.750  12.807  -0.555  0.025 -0.831 126.113    105.94   -7.04 -143.72  -88.24  179.19 -166.06    4.95 -102.00  -29.12  135.28   14.27    9.39   30.17

DOCKED: MODEL       67
DOCKED: USER    Run = 67
DOCKED: USER    DPF = D:/Protein_go_brrr/autodock/final/AncB/heme/dock.dpf
DOCKED: USER  
DOCKED: USER    Estimated Free Energy of Binding    =   -5.11 kcal/mol  [=(1)+(2)+(3)-(4)]
DOCKED: USER    Estimated Inhibition Constant, Ki   =  178.40 uM (micromolar)  [Temperature = 298.15 K]
DOCKED: USER    
DOCKED: USER    (1) Final Intermolecular Energy     =   -8.99 kcal/mol
DOCKED: USER        vdW + Hbond + desolv Energy     =   -8.26 kcal/mol
DOCKED: USER        Electrostatic Energy            =   -0.73 kcal/mol
DOCKED: USER    (2) Final Total Internal Energy     =   -1.49 kcal/mol
DOCKED: USER    (3) Torsional Free Energy           =   +3.88 kcal/mol
DOCKED: USER    (4) Unbound System's Energy  [=(2)] =   -1.49 kcal/mol
DOCKED: USER    
DOCKED: USER    
DOCKED: USER    NEWDPF move heme_opt.pdbqt
DOCKED: USER    NEWDPF about 0.153000 0.018000 -0.028000
DOCKED: USER    NEWDPF tran0 -7.125599 -13.750275 12.806643
DOCKED: USER    NEWDPF quaternion0 -0.495124 0.021862 -0.740990 0.453109
DOCKED: USER    NEWDPF axisangle0 -0.555412 0.024524 -0.831214 126.113284
DOCKED: USER    NEWDPF quat0 -0.555412 0.024524 -0.831214 126.113284
DOCKED: USER    NEWDPF dihe0 105.94 -7.04 -143.72 -88.24 179.19 -166.06 4.95 -102.00 -29.12 135.28 14.27 9.39 30.17 
DOCKED: USER  keepresnum = 1 
DOCKED: USER  
DOCKED: REMARK  13 active torsions:
DOCKED: REMARK  status: ('A' for Active; 'I' for Inactive)
DOCKED: REMARK    1  A    between atoms: O_3  and  C_38 
DOCKED: REMARK    2  A    between atoms: O_4  and  C_40 
DOCKED: REMARK    3  A    between atoms: O_7  and  C_46 
DOCKED: REMARK    4  A    between atoms: O_9  and  C_48 
DOCKED: REMARK    5  A    between atoms: C_15  and  C_20 
DOCKED: REMARK    6  A    between atoms: C_16  and  C_23 
DOCKED: REMARK    7  A    between atoms: C_20  and  C_38 
DOCKED: REMARK    8  A    between atoms: C_23  and  C_40 
DOCKED: REMARK    9  A    between atoms: C_32  and  C_41 
DOCKED: REMARK   10  A    between atoms: C_37  and  C_45 
DOCKED: REMARK   11  A    between atoms: C_41  and  C_44 
DOCKED: REMARK   12  A    between atoms: C_44  and  C_46 
DOCKED: REMARK   13  A    between atoms: C_47  and  C_48 
DOCKED: USER                              x       y       z     vdW  Elec       q    Type
DOCKED: USER                           _______ _______ _______ _____ _____    ______ ____
DOCKED: ROOT
DOCKED: ATOM      1  O   UNL d   1      -7.278 -18.702   9.611 -0.05 -0.32    -0.289 OA
DOCKED: ATOM      2  O   UNL d   1      -4.631 -11.866   7.984 -0.19 -0.14    -0.289 OA
DOCKED: ATOM      3  N   UNL d   1      -7.533 -16.035  11.782 -0.11 -0.15    -0.247 NA
DOCKED: ATOM      4  N   UNL d   1      -5.972 -13.900  10.428 -0.13 -0.14    -0.247 NA
DOCKED: ATOM      5  N   UNL d   1      -6.024 -12.425  12.895 -0.07 -0.17    -0.354 N 
DOCKED: ATOM      6  N   UNL d   1      -7.626 -14.653  14.298 -0.04 -0.11    -0.354 N 
DOCKED: ATOM      7  C   UNL d   1      -8.046 -18.428  11.915 -0.06 +0.05    +0.084 A 
DOCKED: ATOM      8  C   UNL d   1      -5.786 -14.024   7.994 -0.21 +0.08    +0.084 A 
DOCKED: ATOM      9  C   UNL d   1      -6.251 -14.655   9.311 -0.21 +0.05    +0.058 A 
DOCKED: ATOM     10  C   UNL d   1      -8.011 -17.053  12.590 -0.12 +0.03    +0.058 A 
DOCKED: ATOM     11  C   UNL d   1      -7.519 -18.003  10.578 -0.07 +0.20    +0.193 A 
DOCKED: ATOM     12  C   UNL d   1      -7.271 -16.526  10.615 -0.11 +0.11    +0.109 A 
DOCKED: ATOM     13  C   UNL d   1      -5.158 -12.788   8.574 -0.16 +0.11    +0.193 A 
DOCKED: ATOM     14  C   UNL d   1      -7.053 -19.404  12.551 -0.01 +0.01    +0.026 C 
DOCKED: ATOM     15  C   UNL d   1      -6.833 -15.863   9.371 -0.16 +0.07    +0.055 C 
DOCKED: ATOM     16  C   UNL d   1      -6.968 -13.608   7.114 -0.35 +0.03    +0.026 C 
DOCKED: ATOM     17  C   UNL d   1      -5.332 -12.837  10.058 -0.18 +0.06    +0.109 A 
DOCKED: ATOM     18  C   UNL d   1      -8.497 -16.866  13.831 -0.11 +0.02    +0.050 C 
DOCKED: ATOM     19  C   UNL d   1      -8.585 -15.620  14.502 -0.11 +0.01    +0.045 A 
DOCKED: ATOM     20  C   UNL d   1      -5.125 -11.669  12.188 -0.19 +0.02    +0.045 A 
DOCKED: ATOM     21  C   UNL d   1      -4.774 -11.771  10.902 -0.24 +0.02    +0.057 C 
DOCKED: ATOM     22  C   UNL d   1      -5.202 -10.903  14.339 -0.15 -0.01    -0.019 A 
DOCKED: ATOM     23  C   UNL d   1      -6.138 -12.037  14.204 -0.14 +0.02    +0.045 A 
DOCKED: ATOM     24  C   UNL d   1      -4.607 -10.689  13.141 -0.16 -0.01    -0.022 A 
DOCKED: ATOM     25  C   UNL d   1      -7.855 -13.567  15.111 -0.13 +0.02    +0.049 A 
DOCKED: ATOM     26  C   UNL d   1      -9.479 -15.135  15.443 -0.07 -0.00    -0.018 A 
DOCKED: ATOM     27  C   UNL d   1      -9.025 -13.831  15.810 -0.14 +0.00    +0.003 A 
DOCKED: ATOM     28  C   UNL d   1      -6.911 -12.507  15.195 -0.12 +0.02    +0.052 C 
DOCKED: ATOM     29  C   UNL d   1      -3.600  -9.654  12.772 -0.15 +0.02    +0.046 C 
DOCKED: ATOM     30  C   UNL d   1     -10.685 -15.837  15.970 -0.10 +0.01    +0.046 C 
DOCKED: ATOM     31  H   UNL d   1      -6.586 -13.136  12.440 +0.06 +0.08    +0.166 HD
DOCKED: ATOM     32  H   UNL d   1      -6.844 -14.764  13.663 +0.04 +0.06    +0.166 HD
DOCKED: ENDROOT
DOCKED: BRANCH   7  33
DOCKED: ATOM     33  C   UNL d   1      -9.437 -19.054  11.771 -0.08 +0.10    +0.141 C 
DOCKED: BRANCH  33  34
DOCKED: ATOM     34  C   UNL d   1     -10.544 -18.044  11.906 -0.10 +0.26    +0.306 C 
DOCKED: ATOM     35  O   UNL d   1     -11.494 -18.113  12.667 -0.59 -0.17    -0.251 OA
DOCKED: BRANCH  34  36
DOCKED: ATOM     36  O   UNL d   1     -10.394 -16.998  11.074 -0.81 -0.75    -0.481 OA
DOCKED: ATOM     37  H   UNL d   1      -9.696 -16.449  11.491 -0.40 +0.29    +0.295 HD
DOCKED: ENDBRANCH  34  36
DOCKED: ENDBRANCH  33  34
DOCKED: ENDBRANCH   7  33
DOCKED: BRANCH  27  38
DOCKED: ATOM     38  C   UNL d   1      -9.654 -12.978  16.773 -0.14 +0.00    +0.017 C 
DOCKED: ATOM     39  C   UNL d   1      -9.907 -11.671  16.601 -0.19 +0.02    +0.092 C 
DOCKED: BRANCH  39  40
DOCKED: ATOM     40  C   UNL d   1     -10.575 -10.912  17.661 -0.07 +0.04    +0.330 C 
DOCKED: ATOM     41  O   UNL d   1     -11.049  -9.794  17.590 -0.16 -0.02    -0.246 OA
DOCKED: BRANCH  40  42
DOCKED: ATOM     42  O   UNL d   1     -10.618 -11.636  18.791 +0.01 -0.04    -0.477 OA
DOCKED: ATOM     43  H   UNL d   1     -10.968 -11.010  19.457 +0.05 +0.01    +0.295 HD
DOCKED: ENDBRANCH  40  42
DOCKED: ENDBRANCH  39  40
DOCKED: ENDBRANCH  27  38
DOCKED: BRANCH   8  44
DOCKED: ATOM     44  C   UNL d   1      -4.761 -14.838   7.198 -0.11 +0.13    +0.141 C 
DOCKED: BRANCH  44  45
DOCKED: ATOM     45  C   UNL d   1      -5.390 -15.865   6.295 +0.09 +0.51    +0.306 C 
DOCKED: ATOM     46  O   UNL d   1      -6.358 -16.561   6.550 -0.54 -0.55    -0.251 OA
DOCKED: BRANCH  45  47
DOCKED: ATOM     47  O   UNL d   1      -4.745 -15.982   5.120 -0.36 -0.78    -0.481 OA
DOCKED: ATOM     48  H   UNL d   1      -3.799 -15.849   5.342 +0.07 +0.27    +0.295 HD
DOCKED: ENDBRANCH  45  47
DOCKED: ENDBRANCH  44  45
DOCKED: ENDBRANCH   8  44
DOCKED: BRANCH  22  49
DOCKED: ATOM     49  C   UNL d   1      -4.968 -10.151  15.616 -0.14 +0.02    +0.048 C 
DOCKED: BRANCH  49  50
DOCKED: ATOM     50  C   UNL d   1      -6.275  -9.642  16.224 -0.10 +0.08    +0.125 C 
DOCKED: BRANCH  50  51
DOCKED: ATOM     51  C   UNL d   1      -6.008  -8.602  17.274 -0.10 +0.05    +0.305 C 
DOCKED: ATOM     52  O   UNL d   1      -6.132  -8.715  18.481 -0.04 -0.00    -0.251 OA
DOCKED: BRANCH  51  53
DOCKED: ATOM     53  O   UNL d   1      -5.601  -7.435  16.736 -0.29 +0.09    -0.481 OA
DOCKED: ATOM     54  H   UNL d   1      -6.431  -6.931  16.604 -0.33 -0.35    +0.295 HD
DOCKED: ENDBRANCH  51  53
DOCKED: ENDBRANCH  50  51
DOCKED: ENDBRANCH  49  50
DOCKED: ENDBRANCH  22  49
DOCKED: TORSDOF 13
DOCKED: TER
DOCKED: ENDMDL
________________________________________________________________________________


	BEGINNING GENETIC ALGORITHM DOCKING 68 of 100
Run: 68 Seed: 814939826 1747006001 [ Run 68 of 100 GA/GALS ]
Beginning LAMARCKIAN GENETIC ALGORITHM (LGA), with a maximum of 25000000 energy evaluations.

Final-Value: -10.538


	FINAL GENETIC ALGORITHM DOCKED STATE
	_______________________________________________


Detailed state:  trans 6.251 10.850 13.095 quatxyzw -0.061758 0.499011 0.114106 -0.856828 center 0.153 0.018 -0.028 ntor 13 -5.1846 177.7710 95.7899 1.6021 -136.0607 79.2583 -49.1053 -26.9523 158.2868 -128.3991 -64.5913 -119.0407 24.2537
State:	  6.251  10.850  13.095  -0.120  0.968  0.221 -62.076     -5.18  177.77   95.79    1.60 -136.06   79.26  -49.11  -26.95  158.29 -128.40  -64.59 -119.04   24.25

DOCKED: MODEL       68
DOCKED: USER    Run = 68
DOCKED: USER    DPF = D:/Protein_go_brrr/autodock/final/AncB/heme/dock.dpf
DOCKED: USER  
DOCKED: USER    Estimated Free Energy of Binding    =   -2.92 kcal/mol  [=(1)+(2)+(3)-(4)]
DOCKED: USER    Estimated Inhibition Constant, Ki   =    7.30 mM (millimolar)  [Temperature = 298.15 K]
DOCKED: USER    
DOCKED: USER    (1) Final Intermolecular Energy     =   -6.79 kcal/mol
DOCKED: USER        vdW + Hbond + desolv Energy     =   -6.70 kcal/mol
DOCKED: USER        Electrostatic Energy            =   -0.10 kcal/mol
DOCKED: USER    (2) Final Total Internal Energy     =   -3.74 kcal/mol
DOCKED: USER    (3) Torsional Free Energy           =   +3.88 kcal/mol
DOCKED: USER    (4) Unbound System's Energy  [=(2)] =   -3.74 kcal/mol
DOCKED: USER    
DOCKED: USER    
DOCKED: USER    NEWDPF move heme_opt.pdbqt
DOCKED: USER    NEWDPF about 0.153000 0.018000 -0.028000
DOCKED: USER    NEWDPF tran0 6.250972 10.850021 13.095443
DOCKED: USER    NEWDPF quaternion0 -0.061758 0.499011 0.114106 -0.856828
DOCKED: USER    NEWDPF axisangle0 -0.119778 0.967821 0.221305 -62.075518
DOCKED: USER    NEWDPF quat0 -0.119778 0.967821 0.221305 -62.075518
DOCKED: USER    NEWDPF dihe0 -5.18 177.77 95.79 1.60 -136.06 79.26 -49.11 -26.95 158.29 -128.40 -64.59 -119.04 24.25 
DOCKED: USER  keepresnum = 1 
DOCKED: USER  
DOCKED: REMARK  13 active torsions:
DOCKED: REMARK  status: ('A' for Active; 'I' for Inactive)
DOCKED: REMARK    1  A    between atoms: O_3  and  C_38 
DOCKED: REMARK    2  A    between atoms: O_4  and  C_40 
DOCKED: REMARK    3  A    between atoms: O_7  and  C_46 
DOCKED: REMARK    4  A    between atoms: O_9  and  C_48 
DOCKED: REMARK    5  A    between atoms: C_15  and  C_20 
DOCKED: REMARK    6  A    between atoms: C_16  and  C_23 
DOCKED: REMARK    7  A    between atoms: C_20  and  C_38 
DOCKED: REMARK    8  A    between atoms: C_23  and  C_40 
DOCKED: REMARK    9  A    between atoms: C_32  and  C_41 
DOCKED: REMARK   10  A    between atoms: C_37  and  C_45 
DOCKED: REMARK   11  A    between atoms: C_41  and  C_44 
DOCKED: REMARK   12  A    between atoms: C_44  and  C_46 
DOCKED: REMARK   13  A    between atoms: C_47  and  C_48 
DOCKED: USER                              x       y       z     vdW  Elec       q    Type
DOCKED: USER                           _______ _______ _______ _____ _____    ______ ____
DOCKED: ROOT
DOCKED: ATOM      1  O   UNL d   1       3.691  11.873  18.307 -0.17 +0.02    -0.289 OA
DOCKED: ATOM      2  O   UNL d   1       4.905   5.464  14.585 -0.15 +0.08    -0.289 OA
DOCKED: ATOM      3  N   UNL d   1       5.129  11.776  15.173 -0.13 +0.02    -0.247 NA
DOCKED: ATOM      4  N   UNL d   1       5.470   8.868  14.668 -0.11 +0.02    -0.247 NA
DOCKED: ATOM      5  N   UNL d   1       7.191   9.546  12.467 -0.08 -0.00    -0.354 N 
DOCKED: ATOM      6  N   UNL d   1       6.848  12.561  13.011 -0.05 +0.01    -0.354 N 
DOCKED: ATOM      7  C   UNL d   1       4.710  13.533  16.830 -0.13 -0.00    +0.084 A 
DOCKED: ATOM      8  C   UNL d   1       3.946   7.346  15.823 -0.27 -0.02    +0.084 A 
DOCKED: ATOM      9  C   UNL d   1       4.465   8.771  15.604 -0.24 -0.01    +0.058 A 
DOCKED: ATOM     10  C   UNL d   1       5.271  13.122  15.465 -0.13 -0.00    +0.058 A 
DOCKED: ATOM     11  C   UNL d   1       4.211  12.184  17.250 -0.10 -0.01    +0.193 A 
DOCKED: ATOM     12  C   UNL d   1       4.500  11.209  16.151 -0.16 -0.01    +0.109 A 
DOCKED: ATOM     13  C   UNL d   1       4.869   6.647  14.865 -0.14 -0.03    +0.193 A 
DOCKED: ATOM     14  C   UNL d   1       5.814  13.975  17.794 -0.05 -0.00    +0.026 C 
DOCKED: ATOM     15  C   UNL d   1       4.012   9.824  16.303 -0.27 -0.01    +0.055 C 
DOCKED: ATOM     16  C   UNL d   1       2.506   7.184  15.327 -0.21 -0.01    +0.026 C 
DOCKED: ATOM     17  C   UNL d   1       5.747   7.679  14.236 -0.08 -0.01    +0.109 A 
DOCKED: ATOM     18  C   UNL d   1       5.769  14.032  14.607 -0.11 -0.00    +0.050 C 
DOCKED: ATOM     19  C   UNL d   1       6.231  13.758  13.294 -0.13 -0.00    +0.045 A 
DOCKED: ATOM     20  C   UNL d   1       7.410   8.194  12.530 -0.17 +0.00    +0.045 A 
DOCKED: ATOM     21  C   UNL d   1       6.788   7.279  13.279 -0.17 -0.00    +0.057 C 
DOCKED: ATOM     22  C   UNL d   1       8.859   9.108  11.017 -0.13 -0.00    -0.019 A 
DOCKED: ATOM     23  C   UNL d   1       8.019  10.183  11.582 -0.15 +0.00    +0.045 A 
DOCKED: ATOM     24  C   UNL d   1       8.493   7.932  11.582 -0.16 -0.00    -0.022 A 
DOCKED: ATOM     25  C   UNL d   1       7.294  12.543  11.709 -0.13 +0.00    +0.049 A 
DOCKED: ATOM     26  C   UNL d   1       6.243  14.523  12.138 -0.14 +0.00    -0.018 A 
DOCKED: ATOM     27  C   UNL d   1       6.898  13.744  11.136 -0.14 -0.00    +0.003 A 
DOCKED: ATOM     28  C   UNL d   1       8.100  11.476  11.229 -0.13 +0.00    +0.052 C 
DOCKED: ATOM     29  C   UNL d   1       9.037   6.567  11.330 -0.15 +0.01    +0.046 C 
DOCKED: ATOM     30  C   UNL d   1       5.679  15.894  11.972 -0.11 -0.01    +0.046 C 
DOCKED: ATOM     31  H   UNL d   1       6.431   9.980  12.979 +0.06 -0.01    +0.166 HD
DOCKED: ATOM     32  H   UNL d   1       6.982  11.824  13.693 +0.04 -0.01    +0.166 HD
DOCKED: ENDROOT
DOCKED: BRANCH   7  33
DOCKED: ATOM     33  C   UNL d   1       3.560  14.545  16.791 -0.08 +0.01    +0.141 C 
DOCKED: BRANCH  33  34
DOCKED: ATOM     34  C   UNL d   1       3.465  15.363  18.050 -0.10 +0.00    +0.306 C 
DOCKED: ATOM     35  O   UNL d   1       2.931  15.022  19.092 -0.11 -0.00    -0.251 OA
DOCKED: BRANCH  34  36
DOCKED: ATOM     36  O   UNL d   1       4.050  16.568  17.930 -0.00 +0.01    -0.481 OA
DOCKED: ATOM     37  H   UNL d   1       3.811  17.041  18.756 +0.03 -0.01    +0.295 HD
DOCKED: ENDBRANCH  34  36
DOCKED: ENDBRANCH  33  34
DOCKED: ENDBRANCH   7  33
DOCKED: BRANCH  27  38
DOCKED: ATOM     38  C   UNL d   1       7.139  14.166   9.789 -0.12 -0.00    +0.017 C 
DOCKED: ATOM     39  C   UNL d   1       8.291  14.683   9.334 -0.05 +0.00    +0.092 C 
DOCKED: BRANCH  39  40
DOCKED: ATOM     40  C   UNL d   1       8.415  15.060   7.924 -0.00 +0.01    +0.330 C 
DOCKED: ATOM     41  O   UNL d   1       7.971  16.052   7.378 -0.01 +0.01    -0.246 OA
DOCKED: BRANCH  40  42
DOCKED: ATOM     42  O   UNL d   1       9.126  14.136   7.259 +0.01 -0.06    -0.477 OA
DOCKED: ATOM     43  H   UNL d   1       9.381  13.493   7.952 +0.04 +0.06    +0.295 HD
DOCKED: ENDBRANCH  40  42
DOCKED: ENDBRANCH  39  40
DOCKED: ENDBRANCH  27  38
DOCKED: BRANCH   8  44
DOCKED: ATOM     44  C   UNL d   1       4.109   6.795  17.243 -0.18 -0.03    +0.141 C 
DOCKED: BRANCH  44  45
DOCKED: ATOM     45  C   UNL d   1       3.626   5.377  17.389 -0.20 -0.09    +0.306 C 
DOCKED: ATOM     46  O   UNL d   1       2.515   5.020  17.743 -0.40 +0.09    -0.251 OA
DOCKED: BRANCH  45  47
DOCKED: ATOM     47  O   UNL d   1       4.583   4.475  17.107 -0.06 +0.14    -0.481 OA
DOCKED: ATOM     48  H   UNL d   1       4.543   4.368  16.133 -0.45 -0.16    +0.295 HD
DOCKED: ENDBRANCH  45  47
DOCKED: ENDBRANCH  44  45
DOCKED: ENDBRANCH   8  44
DOCKED: BRANCH  22  49
DOCKED: ATOM     49  C   UNL d   1       9.940   9.328  10.001 -0.13 +0.01    +0.048 C 
DOCKED: BRANCH  49  50
DOCKED: ATOM     50  C   UNL d   1       9.395   9.961   8.720 -0.15 +0.08    +0.125 C 
DOCKED: BRANCH  50  51
DOCKED: ATOM     51  C   UNL d   1       9.988  11.324   8.501 -0.07 +0.15    +0.305 C 
DOCKED: ATOM     52  O   UNL d   1      10.315  12.137   9.348 -0.02 -0.06    -0.251 OA
DOCKED: BRANCH  51  53
DOCKED: ATOM     53  O   UNL d   1      10.131  11.607   7.191 -0.50 -0.41    -0.481 OA
DOCKED: ATOM     54  H   UNL d   1      10.538  12.499   7.183 +0.03 +0.13    +0.295 HD
DOCKED: ENDBRANCH  51  53
DOCKED: ENDBRANCH  50  51
DOCKED: ENDBRANCH  49  50
DOCKED: ENDBRANCH  22  49
DOCKED: TORSDOF 13
DOCKED: TER
DOCKED: ENDMDL
________________________________________________________________________________


	BEGINNING GENETIC ALGORITHM DOCKING 69 of 100
Run: 69 Seed: 321751078 2019011070 [ Run 69 of 100 GA/GALS ]
Beginning LAMARCKIAN GENETIC ALGORITHM (LGA), with a maximum of 25000000 energy evaluations.

Final-Value: -10.272


	FINAL GENETIC ALGORITHM DOCKED STATE
	_______________________________________________


Detailed state:  trans 8.713 -13.060 -13.183 quatxyzw -0.431371 -0.612271 -0.193646 -0.633675 center 0.153 0.018 -0.028 ntor 13 175.1549 78.3657 -116.3459 9.1992 -153.4966 90.9612 122.2058 -59.3960 7.3878 -33.1198 105.3764 40.5887 6.1477
State:	  8.713 -13.060 -13.183  -0.558 -0.791 -0.250 -101.356    175.15   78.37 -116.35    9.20 -153.50   90.96  122.21  -59.40    7.39  -33.12  105.38   40.59    6.15

DOCKED: MODEL       69
DOCKED: USER    Run = 69
DOCKED: USER    DPF = D:/Protein_go_brrr/autodock/final/AncB/heme/dock.dpf
DOCKED: USER  
DOCKED: USER    Estimated Free Energy of Binding    =   -3.68 kcal/mol  [=(1)+(2)+(3)-(4)]
DOCKED: USER    Estimated Inhibition Constant, Ki   =    2.01 mM (millimolar)  [Temperature = 298.15 K]
DOCKED: USER    
DOCKED: USER    (1) Final Intermolecular Energy     =   -7.56 kcal/mol
DOCKED: USER        vdW + Hbond + desolv Energy     =   -7.47 kcal/mol
DOCKED: USER        Electrostatic Energy            =   -0.09 kcal/mol
DOCKED: USER    (2) Final Total Internal Energy     =   -2.72 kcal/mol
DOCKED: USER    (3) Torsional Free Energy           =   +3.88 kcal/mol
DOCKED: USER    (4) Unbound System's Energy  [=(2)] =   -2.72 kcal/mol
DOCKED: USER    
DOCKED: USER    
DOCKED: USER    NEWDPF move heme_opt.pdbqt
DOCKED: USER    NEWDPF about 0.153000 0.018000 -0.028000
DOCKED: USER    NEWDPF tran0 8.713439 -13.059632 -13.182781
DOCKED: USER    NEWDPF quaternion0 -0.431371 -0.612271 -0.193646 -0.633675
DOCKED: USER    NEWDPF axisangle0 -0.557616 -0.791458 -0.250318 -101.356460
DOCKED: USER    NEWDPF quat0 -0.557616 -0.791458 -0.250318 -101.356460
DOCKED: USER    NEWDPF dihe0 175.15 78.37 -116.35 9.20 -153.50 90.96 122.21 -59.40 7.39 -33.12 105.38 40.59 6.15 
DOCKED: USER  keepresnum = 1 
DOCKED: USER  
DOCKED: REMARK  13 active torsions:
DOCKED: REMARK  status: ('A' for Active; 'I' for Inactive)
DOCKED: REMARK    1  A    between atoms: O_3  and  C_38 
DOCKED: REMARK    2  A    between atoms: O_4  and  C_40 
DOCKED: REMARK    3  A    between atoms: O_7  and  C_46 
DOCKED: REMARK    4  A    between atoms: O_9  and  C_48 
DOCKED: REMARK    5  A    between atoms: C_15  and  C_20 
DOCKED: REMARK    6  A    between atoms: C_16  and  C_23 
DOCKED: REMARK    7  A    between atoms: C_20  and  C_38 
DOCKED: REMARK    8  A    between atoms: C_23  and  C_40 
DOCKED: REMARK    9  A    between atoms: C_32  and  C_41 
DOCKED: REMARK   10  A    between atoms: C_37  and  C_45 
DOCKED: REMARK   11  A    between atoms: C_41  and  C_44 
DOCKED: REMARK   12  A    between atoms: C_44  and  C_46 
DOCKED: REMARK   13  A    between atoms: C_47  and  C_48 
DOCKED: USER                              x       y       z     vdW  Elec       q    Type
DOCKED: USER                           _______ _______ _______ _____ _____    ______ ____
DOCKED: ROOT
DOCKED: ATOM      1  O   UNL d   1       8.642 -13.205 -19.076 -0.03 -0.01    -0.289 OA
DOCKED: ATOM      2  O   UNL d   1       5.460 -17.728 -13.996 -0.51 -0.00    -0.289 OA
DOCKED: ATOM      3  N   UNL d   1       9.079 -12.798 -15.679 -0.12 +0.00    -0.247 NA
DOCKED: ATOM      4  N   UNL d   1       7.237 -14.814 -14.507 -0.10 +0.03    -0.247 NA
DOCKED: ATOM      5  N   UNL d   1       7.573 -13.509 -11.968 -0.10 +0.02    -0.354 N 
DOCKED: ATOM      6  N   UNL d   1       9.467 -11.410 -13.195 +0.06 -0.04    -0.354 N 
DOCKED: ATOM      7  C   UNL d   1       9.721 -11.521 -17.670 -0.08 +0.01    +0.084 A 
DOCKED: ATOM      8  C   UNL d   1       6.708 -16.771 -15.872 -0.04 -0.00    +0.084 A 
DOCKED: ATOM      9  C   UNL d   1       7.388 -15.404 -15.742 -0.10 -0.00    +0.058 A 
DOCKED: ATOM     10  C   UNL d   1       9.718 -11.661 -16.145 -0.13 +0.00    +0.058 A 
DOCKED: ATOM     11  C   UNL d   1       8.986 -12.789 -17.985 -0.07 +0.01    +0.193 A 
DOCKED: ATOM     12  C   UNL d   1       8.675 -13.487 -16.696 -0.11 -0.00    +0.109 A 
DOCKED: ATOM     13  C   UNL d   1       6.111 -16.830 -14.494 -0.07 -0.02    +0.193 A 
DOCKED: ATOM     14  C   UNL d   1       8.878 -10.332 -18.140 -0.12 +0.00    +0.026 C 
DOCKED: ATOM     15  C   UNL d   1       8.031 -14.814 -16.762 -0.10 -0.00    +0.055 C 
DOCKED: ATOM     16  C   UNL d   1       7.730 -17.903 -16.015 -0.02 -0.00    +0.026 C 
DOCKED: ATOM     17  C   UNL d   1       6.499 -15.582 -13.771 -0.13 -0.01    +0.109 A 
DOCKED: ATOM     18  C   UNL d   1      10.368 -10.784 -15.357 -0.12 +0.01    +0.050 C 
DOCKED: ATOM     19  C   UNL d   1      10.491 -10.879 -13.947 -0.12 +0.01    +0.045 A 
DOCKED: ATOM     20  C   UNL d   1       6.546 -14.363 -11.659 -0.24 -0.01    +0.045 A 
DOCKED: ATOM     21  C   UNL d   1       6.018 -15.341 -12.403 -0.25 -0.01    +0.057 C 
DOCKED: ATOM     22  C   UNL d   1       6.896 -12.961  -9.891 -0.38 +0.00    -0.019 A 
DOCKED: ATOM     23  C   UNL d   1       7.856 -12.625 -10.961 -0.25 -0.00    +0.045 A 
DOCKED: ATOM     24  C   UNL d   1       6.124 -13.992 -10.310 -0.34 +0.00    -0.022 A 
DOCKED: ATOM     25  C   UNL d   1       9.758 -11.322 -11.853 -0.18 +0.01    +0.049 A 
DOCKED: ATOM     26  C   UNL d   1      11.487 -10.471 -13.075 -0.10 -0.00    -0.018 A 
DOCKED: ATOM     27  C   UNL d   1      11.028 -10.771 -11.755 -0.18 +0.00    +0.003 A 
DOCKED: ATOM     28  C   UNL d   1       8.786 -11.662 -10.873 -0.12 -0.00    +0.052 C 
DOCKED: ATOM     29  C   UNL d   1       5.025 -14.690  -9.583 -0.46 -0.01    +0.046 C 
DOCKED: ATOM     30  C   UNL d   1      12.789  -9.842 -13.442 -0.07 +0.01    +0.046 C 
DOCKED: ATOM     31  H   UNL d   1       8.098 -13.607 -12.830 +0.04 -0.01    +0.166 HD
DOCKED: ATOM     32  H   UNL d   1       8.608 -11.771 -13.593 +0.06 +0.02    +0.166 HD
DOCKED: ENDROOT
DOCKED: BRANCH   7  33
DOCKED: ATOM     33  C   UNL d   1      11.105 -11.524 -18.327 -0.01 +0.01    +0.141 C 
DOCKED: BRANCH  33  34
DOCKED: ATOM     34  C   UNL d   1      11.916 -12.738 -17.965 +0.00 +0.02    +0.306 C 
DOCKED: ATOM     35  O   UNL d   1      12.788 -12.795 -17.115 -0.00 -0.02    -0.251 OA
DOCKED: BRANCH  34  36
DOCKED: ATOM     36  O   UNL d   1      11.582 -13.820 -18.691 +0.00 -0.03    -0.481 OA
DOCKED: ATOM     37  H   UNL d   1      10.790 -13.541 -19.199 +0.01 +0.02    +0.295 HD
DOCKED: ENDBRANCH  34  36
DOCKED: ENDBRANCH  33  34
DOCKED: ENDBRANCH   7  33
DOCKED: BRANCH  27  38
DOCKED: ATOM     38  C   UNL d   1      11.747 -10.496 -10.548 -0.19 +0.01    +0.017 C 
DOCKED: ATOM     39  C   UNL d   1      12.419 -11.404  -9.823 -0.12 +0.04    +0.092 C 
DOCKED: BRANCH  39  40
DOCKED: ATOM     40  C   UNL d   1      13.131 -10.988  -8.612 +0.01 +0.22    +0.330 C 
DOCKED: ATOM     41  O   UNL d   1      12.697 -10.928  -7.478 -0.75 -0.08    -0.246 OA
DOCKED: BRANCH  40  42
DOCKED: ATOM     42  O   UNL d   1      14.401 -10.670  -8.910 -0.57 -0.37    -0.477 OA
DOCKED: ATOM     43  H   UNL d   1      14.913 -11.454  -8.625 +0.03 +0.11    +0.295 HD
DOCKED: ENDBRANCH  40  42
DOCKED: ENDBRANCH  39  40
DOCKED: ENDBRANCH  27  38
DOCKED: BRANCH   8  44
DOCKED: ATOM     44  C   UNL d   1       5.619 -16.868 -16.946 -0.04 -0.01    +0.141 C 
DOCKED: BRANCH  44  45
DOCKED: ATOM     45  C   UNL d   1       4.281 -16.356 -16.484 -0.06 -0.03    +0.306 C 
DOCKED: ATOM     46  O   UNL d   1       3.942 -15.189 -16.389 -0.16 +0.04    -0.251 OA
DOCKED: BRANCH  45  47
DOCKED: ATOM     47  O   UNL d   1       3.443 -17.349 -16.135 -0.02 +0.05    -0.481 OA
DOCKED: ATOM     48  H   UNL d   1       3.881 -17.789 -15.376 +0.06 -0.02    +0.295 HD
DOCKED: ENDBRANCH  45  47
DOCKED: ENDBRANCH  44  45
DOCKED: ENDBRANCH   8  44
DOCKED: BRANCH  22  49
DOCKED: ATOM     49  C   UNL d   1       6.812 -12.241  -8.577 -0.53 -0.01    +0.048 C 
DOCKED: BRANCH  49  50
DOCKED: ATOM     50  C   UNL d   1       7.928 -12.666  -7.623 -0.35 -0.02    +0.125 C 
DOCKED: BRANCH  50  51
DOCKED: ATOM     51  C   UNL d   1       7.669 -14.041  -7.074 -0.15 -0.07    +0.305 C 
DOCKED: ATOM     52  O   UNL d   1       6.762 -14.388  -6.338 -0.25 +0.06    -0.251 OA
DOCKED: BRANCH  51  53
DOCKED: ATOM     53  O   UNL d   1       8.598 -14.929  -7.479 +0.01 +0.13    -0.481 OA
DOCKED: ATOM     54  H   UNL d   1       8.246 -15.794  -7.183 +0.09 -0.11    +0.295 HD
DOCKED: ENDBRANCH  51  53
DOCKED: ENDBRANCH  50  51
DOCKED: ENDBRANCH  49  50
DOCKED: ENDBRANCH  22  49
DOCKED: TORSDOF 13
DOCKED: TER
DOCKED: ENDMDL
________________________________________________________________________________


	BEGINNING GENETIC ALGORITHM DOCKING 70 of 100
Run: 70 Seed: 217486957 580136207 [ Run 70 of 100 GA/GALS ]
Beginning LAMARCKIAN GENETIC ALGORITHM (LGA), with a maximum of 25000000 energy evaluations.

Final-Value: -12.491


	FINAL GENETIC ALGORITHM DOCKED STATE
	_______________________________________________


Detailed state:  trans 3.279 -3.849 -16.512 quatxyzw 0.778255 -0.502342 0.052396 0.373131 center 0.153 0.018 -0.028 ntor 13 -179.8887 -167.9777 -144.4835 33.2148 -152.6394 -98.4451 140.2477 57.9182 15.1316 13.7274 -78.3727 75.7586 16.0470
State:	  3.279  -3.849 -16.512   0.839 -0.541  0.056 136.182   -179.89 -167.98 -144.48   33.21 -152.64  -98.45  140.25   57.92   15.13   13.73  -78.37   75.76   16.05

DOCKED: MODEL       70
DOCKED: USER    Run = 70
DOCKED: USER    DPF = D:/Protein_go_brrr/autodock/final/AncB/heme/dock.dpf
DOCKED: USER  
DOCKED: USER    Estimated Free Energy of Binding    =   -4.98 kcal/mol  [=(1)+(2)+(3)-(4)]
DOCKED: USER    Estimated Inhibition Constant, Ki   =  225.09 uM (micromolar)  [Temperature = 298.15 K]
DOCKED: USER    
DOCKED: USER    (1) Final Intermolecular Energy     =   -8.85 kcal/mol
DOCKED: USER        vdW + Hbond + desolv Energy     =   -8.33 kcal/mol
DOCKED: USER        Electrostatic Energy            =   -0.52 kcal/mol
DOCKED: USER    (2) Final Total Internal Energy     =   -3.64 kcal/mol
DOCKED: USER    (3) Torsional Free Energy           =   +3.88 kcal/mol
DOCKED: USER    (4) Unbound System's Energy  [=(2)] =   -3.64 kcal/mol
DOCKED: USER    
DOCKED: USER    
DOCKED: USER    NEWDPF move heme_opt.pdbqt
DOCKED: USER    NEWDPF about 0.153000 0.018000 -0.028000
DOCKED: USER    NEWDPF tran0 3.278516 -3.848943 -16.511734
DOCKED: USER    NEWDPF quaternion0 0.778255 -0.502342 0.052396 0.373131
DOCKED: USER    NEWDPF axisangle0 0.838837 -0.541446 0.056475 136.182273
DOCKED: USER    NEWDPF quat0 0.838837 -0.541446 0.056475 136.182273
DOCKED: USER    NEWDPF dihe0 -179.89 -167.98 -144.48 33.21 -152.64 -98.45 140.25 57.92 15.13 13.73 -78.37 75.76 16.05 
DOCKED: USER  keepresnum = 1 
DOCKED: USER  
DOCKED: REMARK  13 active torsions:
DOCKED: REMARK  status: ('A' for Active; 'I' for Inactive)
DOCKED: REMARK    1  A    between atoms: O_3  and  C_38 
DOCKED: REMARK    2  A    between atoms: O_4  and  C_40 
DOCKED: REMARK    3  A    between atoms: O_7  and  C_46 
DOCKED: REMARK    4  A    between atoms: O_9  and  C_48 
DOCKED: REMARK    5  A    between atoms: C_15  and  C_20 
DOCKED: REMARK    6  A    between atoms: C_16  and  C_23 
DOCKED: REMARK    7  A    between atoms: C_20  and  C_38 
DOCKED: REMARK    8  A    between atoms: C_23  and  C_40 
DOCKED: REMARK    9  A    between atoms: C_32  and  C_41 
DOCKED: REMARK   10  A    between atoms: C_37  and  C_45 
DOCKED: REMARK   11  A    between atoms: C_41  and  C_44 
DOCKED: REMARK   12  A    between atoms: C_44  and  C_46 
DOCKED: REMARK   13  A    between atoms: C_47  and  C_48 
DOCKED: USER                              x       y       z     vdW  Elec       q    Type
DOCKED: USER                           _______ _______ _______ _____ _____    ______ ____
DOCKED: ROOT
DOCKED: ATOM      1  O   UNL d   1      -0.429   0.734 -16.400 -0.01 -0.23    -0.289 OA
DOCKED: ATOM      2  O   UNL d   1       4.856  -1.451 -11.532 -0.36 -0.06    -0.289 OA
DOCKED: ATOM      3  N   UNL d   1       1.433  -2.138 -16.827 -0.05 -0.12    -0.247 NA
DOCKED: ATOM      4  N   UNL d   1       3.417  -2.001 -14.620 -0.03 -0.07    -0.247 NA
DOCKED: ATOM      5  N   UNL d   1       4.888  -4.092 -15.936 -0.11 -0.06    -0.354 N 
DOCKED: ATOM      6  N   UNL d   1       2.834  -4.214 -18.232 -0.06 -0.09    -0.354 N 
DOCKED: ATOM      7  C   UNL d   1      -0.217  -0.930 -18.179 -0.02 +0.05    +0.084 A 
DOCKED: ATOM      8  C   UNL d   1       2.788  -0.734 -12.628 -0.34 +0.03    +0.084 A 
DOCKED: ATOM      9  C   UNL d   1       2.465  -1.180 -14.058 -0.19 +0.02    +0.058 A 
DOCKED: ATOM     10  C   UNL d   1       0.744  -2.113 -18.028 -0.06 +0.03    +0.058 A 
DOCKED: ATOM     11  C   UNL d   1       0.037  -0.301 -16.842 -0.02 +0.13    +0.193 A 
DOCKED: ATOM     12  C   UNL d   1       1.036  -1.140 -16.107 -0.08 +0.07    +0.109 A 
DOCKED: ATOM     13  C   UNL d   1       4.117  -1.423 -12.497 -0.33 +0.04    +0.193 A 
DOCKED: ATOM     14  C   UNL d   1       0.232   0.040 -19.275 +0.00 +0.01    +0.026 C 
DOCKED: ATOM     15  C   UNL d   1       1.375  -0.764 -14.720 -0.18 +0.03    +0.055 C 
DOCKED: ATOM     16  C   UNL d   1       1.816  -1.341 -11.611 -0.31 +0.01    +0.026 C 
DOCKED: ATOM     17  C   UNL d   1       4.386  -2.149 -13.774 -0.25 +0.02    +0.109 A 
DOCKED: ATOM     18  C   UNL d   1       0.821  -3.078 -18.963 -0.07 +0.02    +0.050 C 
DOCKED: ATOM     19  C   UNL d   1       1.616  -4.250 -18.872 -0.10 +0.02    +0.045 A 
DOCKED: ATOM     20  C   UNL d   1       5.798  -3.732 -14.976 -0.36 +0.01    +0.045 A 
DOCKED: ATOM     21  C   UNL d   1       5.646  -2.885 -13.954 -0.27 +0.01    +0.057 C 
DOCKED: ATOM     22  C   UNL d   1       6.775  -5.232 -16.396 -0.21 -0.00    -0.019 A 
DOCKED: ATOM     23  C   UNL d   1       5.387  -4.993 -16.838 -0.23 +0.00    +0.045 A 
DOCKED: ATOM     24  C   UNL d   1       7.012  -4.483 -15.292 -0.32 -0.00    -0.022 A 
DOCKED: ATOM     25  C   UNL d   1       3.472  -5.428 -18.341 -0.17 +0.01    +0.049 A 
DOCKED: ATOM     26  C   UNL d   1       1.442  -5.528 -19.378 -0.14 -0.01    -0.018 A 
DOCKED: ATOM     27  C   UNL d   1       2.608  -6.274 -19.022 -0.18 +0.00    +0.003 A 
DOCKED: ATOM     28  C   UNL d   1       4.812  -5.590 -17.894 -0.19 +0.00    +0.052 C 
DOCKED: ATOM     29  C   UNL d   1       8.257  -4.391 -14.477 -0.42 +0.01    +0.046 C 
DOCKED: ATOM     30  C   UNL d   1       0.264  -6.031 -20.143 -0.12 +0.02    +0.046 C 
DOCKED: ATOM     31  H   UNL d   1       3.928  -3.765 -15.900 +0.07 +0.04    +0.166 HD
DOCKED: ATOM     32  H   UNL d   1       3.208  -3.386 -17.785 +0.03 +0.05    +0.166 HD
DOCKED: ENDROOT
DOCKED: BRANCH   7  33
DOCKED: ATOM     33  C   UNL d   1      -1.697  -1.299 -18.326 -0.03 +0.10    +0.141 C 
DOCKED: BRANCH  33  34
DOCKED: ATOM     34  C   UNL d   1      -2.240  -2.008 -17.115 -0.05 +0.38    +0.306 C 
DOCKED: ATOM     35  O   UNL d   1      -2.377  -3.213 -16.987 -0.11 -0.33    -0.251 OA
DOCKED: BRANCH  34  36
DOCKED: ATOM     36  O   UNL d   1      -2.580  -1.160 -16.128 -0.46 -0.96    -0.481 OA
DOCKED: ATOM     37  H   UNL d   1      -2.335  -0.274 -16.468 +0.03 +0.37    +0.295 HD
DOCKED: ENDBRANCH  34  36
DOCKED: ENDBRANCH  33  34
DOCKED: ENDBRANCH   7  33
DOCKED: BRANCH  27  38
DOCKED: ATOM     38  C   UNL d   1       2.848  -7.644 -19.363 -0.19 +0.00    +0.017 C 
DOCKED: ATOM     39  C   UNL d   1       2.160  -8.692 -18.885 -0.05 +0.01    +0.092 C 
DOCKED: BRANCH  39  40
DOCKED: ATOM     40  C   UNL d   1       2.495 -10.048 -19.329 -0.19 +0.03    +0.330 C 
DOCKED: ATOM     41  O   UNL d   1       1.921 -10.720 -20.164 -0.10 -0.03    -0.246 OA
DOCKED: BRANCH  40  42
DOCKED: ATOM     42  O   UNL d   1       3.581 -10.492 -18.677 -0.39 -0.01    -0.477 OA
DOCKED: ATOM     43  H   UNL d   1       3.705  -9.841 -17.957 -0.08 -0.03    +0.295 HD
DOCKED: ENDBRANCH  40  42
DOCKED: ENDBRANCH  39  40
DOCKED: ENDBRANCH  27  38
DOCKED: BRANCH   8  44
DOCKED: ATOM     44  C   UNL d   1       2.931   0.778 -12.424 -0.19 +0.04    +0.141 C 
DOCKED: BRANCH  44  45
DOCKED: ATOM     45  C   UNL d   1       3.568   1.477 -13.595 -0.22 +0.09    +0.306 C 
DOCKED: ATOM     46  O   UNL d   1       2.990   2.043 -14.507 -0.19 -0.10    -0.251 OA
DOCKED: BRANCH  45  47
DOCKED: ATOM     47  O   UNL d   1       4.911   1.404 -13.570 -0.21 -0.08    -0.481 OA
DOCKED: ATOM     48  H   UNL d   1       5.104   0.522 -13.186 -0.29 -0.03    +0.295 HD
DOCKED: ENDBRANCH  45  47
DOCKED: ENDBRANCH  44  45
DOCKED: ENDBRANCH   8  44
DOCKED: BRANCH  22  49
DOCKED: ATOM     49  C   UNL d   1       7.737  -6.148 -17.094 -0.14 +0.00    +0.048 C 
DOCKED: BRANCH  49  50
DOCKED: ATOM     50  C   UNL d   1       7.311  -7.611 -16.983 -0.19 +0.01    +0.125 C 
DOCKED: BRANCH  50  51
DOCKED: ATOM     51  C   UNL d   1       6.680  -8.086 -18.261 -0.11 +0.01    +0.305 C 
DOCKED: ATOM     52  O   UNL d   1       7.131  -7.996 -19.390 -0.04 -0.02    -0.251 OA
DOCKED: BRANCH  51  53
DOCKED: ATOM     53  O   UNL d   1       5.476  -8.654 -18.049 -0.11 +0.03    -0.481 OA
DOCKED: ATOM     54  H   UNL d   1       5.416  -9.349 -18.738 +0.07 +0.02    +0.295 HD
DOCKED: ENDBRANCH  51  53
DOCKED: ENDBRANCH  50  51
DOCKED: ENDBRANCH  49  50
DOCKED: ENDBRANCH  22  49
DOCKED: TORSDOF 13
DOCKED: TER
DOCKED: ENDMDL
________________________________________________________________________________


	BEGINNING GENETIC ALGORITHM DOCKING 71 of 100
Run: 71 Seed: 185254094 1198199634 [ Run 71 of 100 GA/GALS ]
Beginning LAMARCKIAN GENETIC ALGORITHM (LGA), with a maximum of 25000000 energy evaluations.

Final-Value: -11.366


	FINAL GENETIC ALGORITHM DOCKED STATE
	_______________________________________________


Detailed state:  trans -8.865 -2.949 -11.720 quatxyzw 0.345599 -0.696884 0.625162 0.063930 center 0.153 0.018 -0.028 ntor 13 147.5309 -122.6763 -142.7646 -21.3513 -136.8122 -36.5830 130.3605 -129.4779 24.3941 -9.5379 -73.8551 -34.2247 -10.5570
State:	 -8.865  -2.949 -11.720   0.346 -0.698  0.626 172.669    147.53 -122.68 -142.76  -21.35 -136.81  -36.58  130.36 -129.48   24.39   -9.54  -73.86  -34.22  -10.56

DOCKED: MODEL       71
DOCKED: USER    Run = 71
DOCKED: USER    DPF = D:/Protein_go_brrr/autodock/final/AncB/heme/dock.dpf
DOCKED: USER  
DOCKED: USER    Estimated Free Energy of Binding    =   -2.79 kcal/mol  [=(1)+(2)+(3)-(4)]
DOCKED: USER    Estimated Inhibition Constant, Ki   =    9.01 mM (millimolar)  [Temperature = 298.15 K]
DOCKED: USER    
DOCKED: USER    (1) Final Intermolecular Energy     =   -6.67 kcal/mol
DOCKED: USER        vdW + Hbond + desolv Energy     =   -6.41 kcal/mol
DOCKED: USER        Electrostatic Energy            =   -0.25 kcal/mol
DOCKED: USER    (2) Final Total Internal Energy     =   -4.70 kcal/mol
DOCKED: USER    (3) Torsional Free Energy           =   +3.88 kcal/mol
DOCKED: USER    (4) Unbound System's Energy  [=(2)] =   -4.70 kcal/mol
DOCKED: USER    
DOCKED: USER    
DOCKED: USER    NEWDPF move heme_opt.pdbqt
DOCKED: USER    NEWDPF about 0.153000 0.018000 -0.028000
DOCKED: USER    NEWDPF tran0 -8.864877 -2.949412 -11.720005
DOCKED: USER    NEWDPF quaternion0 0.345599 -0.696884 0.625162 0.063930
DOCKED: USER    NEWDPF axisangle0 0.346307 -0.698312 0.626444 172.669153
DOCKED: USER    NEWDPF quat0 0.346307 -0.698312 0.626444 172.669153
DOCKED: USER    NEWDPF dihe0 147.53 -122.68 -142.76 -21.35 -136.81 -36.58 130.36 -129.48 24.39 -9.54 -73.86 -34.22 -10.56 
DOCKED: USER  keepresnum = 1 
DOCKED: USER  
DOCKED: REMARK  13 active torsions:
DOCKED: REMARK  status: ('A' for Active; 'I' for Inactive)
DOCKED: REMARK    1  A    between atoms: O_3  and  C_38 
DOCKED: REMARK    2  A    between atoms: O_4  and  C_40 
DOCKED: REMARK    3  A    between atoms: O_7  and  C_46 
DOCKED: REMARK    4  A    between atoms: O_9  and  C_48 
DOCKED: REMARK    5  A    between atoms: C_15  and  C_20 
DOCKED: REMARK    6  A    between atoms: C_16  and  C_23 
DOCKED: REMARK    7  A    between atoms: C_20  and  C_38 
DOCKED: REMARK    8  A    between atoms: C_23  and  C_40 
DOCKED: REMARK    9  A    between atoms: C_32  and  C_41 
DOCKED: REMARK   10  A    between atoms: C_37  and  C_45 
DOCKED: REMARK   11  A    between atoms: C_41  and  C_44 
DOCKED: REMARK   12  A    between atoms: C_44  and  C_46 
DOCKED: REMARK   13  A    between atoms: C_47  and  C_48 
DOCKED: USER                              x       y       z     vdW  Elec       q    Type
DOCKED: USER                           _______ _______ _______ _____ _____    ______ ____
DOCKED: ROOT
DOCKED: ATOM      1  O   UNL d   1      -4.981  -0.369 -15.327 -0.06 -0.46    -0.289 OA
DOCKED: ATOM      2  O   UNL d   1      -5.740  -0.052  -7.863 -0.23 -0.08    -0.289 OA
DOCKED: ATOM      3  N   UNL d   1      -7.529  -1.967 -13.639 -0.04 -0.22    -0.247 NA
DOCKED: ATOM      4  N   UNL d   1      -6.836  -1.528 -10.783 -0.07 -0.16    -0.247 NA
DOCKED: ATOM      5  N   UNL d   1      -8.775  -3.539 -10.100 -0.05 -0.15    -0.354 N 
DOCKED: ATOM      6  N   UNL d   1      -9.473  -4.001 -13.067 -0.00 -0.20    -0.354 N 
DOCKED: ATOM      7  C   UNL d   1      -6.758  -1.921 -15.965 -0.04 +0.08    +0.084 A 
DOCKED: ATOM      8  C   UNL d   1      -5.496   0.443 -10.248 -0.19 +0.05    +0.084 A 
DOCKED: ATOM      9  C   UNL d   1      -6.134  -0.465 -11.304 -0.11 +0.05    +0.058 A 
DOCKED: ATOM     10  C   UNL d   1      -7.742  -2.452 -14.919 -0.04 +0.05    +0.058 A 
DOCKED: ATOM     11  C   UNL d   1      -5.962  -1.036 -15.054 -0.01 +0.28    +0.193 A 
DOCKED: ATOM     12  C   UNL d   1      -6.543  -1.131 -13.677 -0.07 +0.13    +0.109 A 
DOCKED: ATOM     13  C   UNL d   1      -5.935  -0.322  -9.032 -0.17 +0.09    +0.193 A 
DOCKED: ATOM     14  C   UNL d   1      -5.844  -3.024 -16.506 -0.09 +0.03    +0.026 C 
DOCKED: ATOM     15  C   UNL d   1      -5.976  -0.267 -12.622 -0.12 +0.06    +0.055 C 
DOCKED: ATOM     16  C   UNL d   1      -6.150   1.828 -10.220 -0.24 +0.02    +0.026 C 
DOCKED: ATOM     17  C   UNL d   1      -6.733  -1.499  -9.493 -0.15 +0.05    +0.109 A 
DOCKED: ATOM     18  C   UNL d   1      -8.771  -3.249 -15.262 -0.02 +0.03    +0.050 C 
DOCKED: ATOM     19  C   UNL d   1      -9.777  -3.719 -14.379 -0.02 +0.02    +0.045 A 
DOCKED: ATOM     20  C   UNL d   1      -8.172  -3.370  -8.881 -0.23 +0.02    +0.045 A 
DOCKED: ATOM     21  C   UNL d   1      -7.262  -2.461  -8.515 -0.21 +0.02    +0.057 C 
DOCKED: ATOM     22  C   UNL d   1      -9.623  -5.129  -8.749 -0.33 -0.01    -0.019 A 
DOCKED: ATOM     23  C   UNL d   1      -9.667  -4.578 -10.118 -0.18 +0.02    +0.045 A 
DOCKED: ATOM     24  C   UNL d   1      -8.737  -4.408  -8.021 -0.36 -0.01    -0.022 A 
DOCKED: ATOM     25  C   UNL d   1     -10.568  -4.527 -12.420 -0.08 +0.03    +0.049 A 
DOCKED: ATOM     26  C   UNL d   1     -11.112  -4.034 -14.581 -0.02 -0.01    -0.018 A 
DOCKED: ATOM     27  C   UNL d   1     -11.611  -4.525 -13.335 -0.06 +0.00    +0.003 A 
DOCKED: ATOM     28  C   UNL d   1     -10.456  -5.041 -11.099 -0.16 +0.03    +0.052 C 
DOCKED: ATOM     29  C   UNL d   1      -8.355  -4.571  -6.589 -0.53 +0.01    +0.046 C 
DOCKED: ATOM     30  C   UNL d   1     -11.880  -3.887 -15.850 -0.00 +0.02    +0.046 C 
DOCKED: ATOM     31  H   UNL d   1      -8.611  -2.890 -10.863 +0.04 +0.08    +0.166 HD
DOCKED: ATOM     32  H   UNL d   1      -8.553  -3.872 -12.664 +0.04 +0.10    +0.166 HD
DOCKED: ENDROOT
DOCKED: BRANCH   7  33
DOCKED: ATOM     33  C   UNL d   1      -7.383  -1.102 -17.100 +0.00 +0.09    +0.141 C 
DOCKED: BRANCH  33  34
DOCKED: ATOM     34  C   UNL d   1      -7.848   0.255 -16.646 +0.01 +0.17    +0.306 C 
DOCKED: ATOM     35  O   UNL d   1      -8.907   0.508 -16.097 +0.00 -0.12    -0.251 OA
DOCKED: BRANCH  34  36
DOCKED: ATOM     36  O   UNL d   1      -6.952   1.223 -16.906 +0.01 -0.31    -0.481 OA
DOCKED: ATOM     37  H   UNL d   1      -6.079   0.791 -16.785 +0.02 +0.23    +0.295 HD
DOCKED: ENDBRANCH  34  36
DOCKED: ENDBRANCH  33  34
DOCKED: ENDBRANCH   7  33
DOCKED: BRANCH  27  38
DOCKED: ATOM     38  C   UNL d   1     -12.949  -4.979 -13.103 -0.09 +0.01    +0.017 C 
DOCKED: ATOM     39  C   UNL d   1     -13.432  -5.397 -11.923 -0.10 +0.09    +0.092 C 
DOCKED: BRANCH  39  40
DOCKED: ATOM     40  C   UNL d   1     -14.830  -5.822 -11.815 -0.04 +0.37    +0.330 C 
DOCKED: ATOM     41  O   UNL d   1     -15.801  -5.330 -12.358 -0.04 -0.17    -0.246 OA
DOCKED: BRANCH  40  42
DOCKED: ATOM     42  O   UNL d   1     -14.928  -6.888 -11.006 -0.58 -0.75    -0.477 OA
DOCKED: ATOM     43  H   UNL d   1     -14.535  -6.580 -10.164 +0.03 +0.29    +0.295 HD
DOCKED: ENDBRANCH  40  42
DOCKED: ENDBRANCH  39  40
DOCKED: ENDBRANCH  27  38
DOCKED: BRANCH   8  44
DOCKED: ATOM     44  C   UNL d   1      -3.969   0.553 -10.305 -0.26 +0.11    +0.141 C 
DOCKED: BRANCH  44  45
DOCKED: ATOM     45  C   UNL d   1      -3.272  -0.772 -10.143 -0.18 +0.25    +0.306 C 
DOCKED: ATOM     46  O   UNL d   1      -3.020  -1.574 -11.026 -0.76 -0.36    -0.251 OA
DOCKED: BRANCH  45  47
DOCKED: ATOM     47  O   UNL d   1      -2.952  -1.031  -8.862 -0.10 -0.25    -0.481 OA
DOCKED: ATOM     48  H   UNL d   1      -3.698  -0.665  -8.341 +0.18 +0.13    +0.295 HD
DOCKED: ENDBRANCH  45  47
DOCKED: ENDBRANCH  44  45
DOCKED: ENDBRANCH   8  44
DOCKED: BRANCH  22  49
DOCKED: ATOM     49  C   UNL d   1     -10.432  -6.306  -8.288 -0.39 +0.01    +0.048 C 
DOCKED: BRANCH  49  50
DOCKED: ATOM     50  C   UNL d   1     -11.746  -5.873  -7.637 -0.19 +0.02    +0.125 C 
DOCKED: BRANCH  50  51
DOCKED: ATOM     51  C   UNL d   1     -12.912  -6.165  -8.539 -0.10 +0.13    +0.305 C 
DOCKED: ATOM     52  O   UNL d   1     -13.857  -5.437  -8.790 -0.04 -0.10    -0.251 OA
DOCKED: BRANCH  51  53
DOCKED: ATOM     53  O   UNL d   1     -12.833  -7.395  -9.083 -0.09 -0.36    -0.481 OA
DOCKED: ATOM     54  H   UNL d   1     -13.757  -7.605  -9.333 +0.06 +0.26    +0.295 HD
DOCKED: ENDBRANCH  51  53
DOCKED: ENDBRANCH  50  51
DOCKED: ENDBRANCH  49  50
DOCKED: ENDBRANCH  22  49
DOCKED: TORSDOF 13
DOCKED: TER
DOCKED: ENDMDL
________________________________________________________________________________


	BEGINNING GENETIC ALGORITHM DOCKING 72 of 100
Run: 72 Seed: 1269891976 1686175156 [ Run 72 of 100 GA/GALS ]
Beginning LAMARCKIAN GENETIC ALGORITHM (LGA), with a maximum of 25000000 energy evaluations.

Final-Value: -12.888


	FINAL GENETIC ALGORITHM DOCKED STATE
	_______________________________________________


Detailed state:  trans -1.763 16.654 9.915 quatxyzw 0.087599 0.778697 -0.589327 -0.196599 center 0.153 0.018 -0.028 ntor 13 122.1445 -127.2090 89.4305 71.5693 -132.4044 -41.3538 -38.6780 -81.3087 29.4982 -105.7162 -92.1185 -13.8561 -15.6517
State:	 -1.763  16.654   9.915   0.089  0.794 -0.601 -157.324    122.14 -127.21   89.43   71.57 -132.40  -41.35  -38.68  -81.31   29.50 -105.72  -92.12  -13.86  -15.65

DOCKED: MODEL       72
DOCKED: USER    Run = 72
DOCKED: USER    DPF = D:/Protein_go_brrr/autodock/final/AncB/heme/dock.dpf
DOCKED: USER  
DOCKED: USER    Estimated Free Energy of Binding    =   -4.42 kcal/mol  [=(1)+(2)+(3)-(4)]
DOCKED: USER    Estimated Inhibition Constant, Ki   =  579.73 uM (micromolar)  [Temperature = 298.15 K]
DOCKED: USER    
DOCKED: USER    (1) Final Intermolecular Energy     =   -8.29 kcal/mol
DOCKED: USER        vdW + Hbond + desolv Energy     =   -8.10 kcal/mol
DOCKED: USER        Electrostatic Energy            =   -0.20 kcal/mol
DOCKED: USER    (2) Final Total Internal Energy     =   -4.59 kcal/mol
DOCKED: USER    (3) Torsional Free Energy           =   +3.88 kcal/mol
DOCKED: USER    (4) Unbound System's Energy  [=(2)] =   -4.59 kcal/mol
DOCKED: USER    
DOCKED: USER    
DOCKED: USER    NEWDPF move heme_opt.pdbqt
DOCKED: USER    NEWDPF about 0.153000 0.018000 -0.028000
DOCKED: USER    NEWDPF tran0 -1.763136 16.654153 9.915206
DOCKED: USER    NEWDPF quaternion0 0.087599 0.778697 -0.589327 -0.196599
DOCKED: USER    NEWDPF axisangle0 0.089343 0.794196 -0.601058 -157.323722
DOCKED: USER    NEWDPF quat0 0.089343 0.794196 -0.601058 -157.323722
DOCKED: USER    NEWDPF dihe0 122.14 -127.21 89.43 71.57 -132.40 -41.35 -38.68 -81.31 29.50 -105.72 -92.12 -13.86 -15.65 
DOCKED: USER  keepresnum = 1 
DOCKED: USER  
DOCKED: REMARK  13 active torsions:
DOCKED: REMARK  status: ('A' for Active; 'I' for Inactive)
DOCKED: REMARK    1  A    between atoms: O_3  and  C_38 
DOCKED: REMARK    2  A    between atoms: O_4  and  C_40 
DOCKED: REMARK    3  A    between atoms: O_7  and  C_46 
DOCKED: REMARK    4  A    between atoms: O_9  and  C_48 
DOCKED: REMARK    5  A    between atoms: C_15  and  C_20 
DOCKED: REMARK    6  A    between atoms: C_16  and  C_23 
DOCKED: REMARK    7  A    between atoms: C_20  and  C_38 
DOCKED: REMARK    8  A    between atoms: C_23  and  C_40 
DOCKED: REMARK    9  A    between atoms: C_32  and  C_41 
DOCKED: REMARK   10  A    between atoms: C_37  and  C_45 
DOCKED: REMARK   11  A    between atoms: C_41  and  C_44 
DOCKED: REMARK   12  A    between atoms: C_44  and  C_46 
DOCKED: REMARK   13  A    between atoms: C_47  and  C_48 
DOCKED: USER                              x       y       z     vdW  Elec       q    Type
DOCKED: USER                           _______ _______ _______ _____ _____    ______ ____
DOCKED: ROOT
DOCKED: ATOM      1  O   UNL d   1       4.081  17.062  10.573 -0.07 +0.07    -0.289 OA
DOCKED: ATOM      2  O   UNL d   1      -1.457  17.005  15.644 -0.08 +0.10    -0.289 OA
DOCKED: ATOM      3  N   UNL d   1       0.748  16.940   9.697 -0.15 +0.10    -0.247 NA
DOCKED: ATOM      4  N   UNL d   1      -0.635  16.651  12.311 -0.09 +0.11    -0.247 NA
DOCKED: ATOM      5  N   UNL d   1      -3.022  15.954  10.867 -0.07 +0.14    -0.354 N 
DOCKED: ATOM      6  N   UNL d   1      -1.574  16.237   8.160 -0.14 +0.11    -0.354 N 
DOCKED: ATOM      7  C   UNL d   1       2.864  16.789   8.470 -0.17 -0.03    +0.084 A 
DOCKED: ATOM      8  C   UNL d   1       0.513  17.521  14.285 -0.08 -0.02    +0.084 A 
DOCKED: ATOM      9  C   UNL d   1       0.530  17.211  12.785 -0.15 -0.02    +0.058 A 
DOCKED: ATOM     10  C   UNL d   1       1.333  16.776   8.453 -0.25 -0.02    +0.058 A 
DOCKED: ATOM     11  C   UNL d   1       3.041  17.009   9.943 -0.10 -0.06    +0.193 A 
DOCKED: ATOM     12  C   UNL d   1       1.685  17.109  10.571 -0.16 -0.04    +0.109 A 
DOCKED: ATOM     13  C   UNL d   1      -0.865  16.999  14.582 -0.10 -0.06    +0.193 A 
DOCKED: ATOM     14  C   UNL d   1       3.455  15.427   8.098 -0.23 -0.01    +0.026 C 
DOCKED: ATOM     15  C   UNL d   1       1.608  17.419  12.013 -0.15 -0.01    +0.055 C 
DOCKED: ATOM     16  C   UNL d   1       0.538  19.028  14.554 -0.02 -0.00    +0.026 C 
DOCKED: ATOM     17  C   UNL d   1      -1.450  16.494  13.304 -0.19 -0.04    +0.109 A 
DOCKED: ATOM     18  C   UNL d   1       0.644  16.701   7.299 -0.24 -0.02    +0.050 C 
DOCKED: ATOM     19  C   UNL d   1      -0.768  16.766   7.178 -0.07 -0.02    +0.045 A 
DOCKED: ATOM     20  C   UNL d   1      -3.421  15.650  12.142 -0.28 -0.02    +0.045 A 
DOCKED: ATOM     21  C   UNL d   1      -2.787  15.880  13.296 -0.30 -0.03    +0.057 C 
DOCKED: ATOM     22  C   UNL d   1      -5.030  14.953  10.679 -0.27 +0.00    -0.019 A 
DOCKED: ATOM     23  C   UNL d   1      -3.928  15.571   9.915 -0.27 -0.01    +0.045 A 
DOCKED: ATOM     24  C   UNL d   1      -4.725  15.004  11.997 -0.30 +0.00    -0.022 A 
DOCKED: ATOM     25  C   UNL d   1      -2.898  16.327   7.798 -0.21 -0.01    +0.049 A 
DOCKED: ATOM     26  C   UNL d   1      -1.590  17.245   6.170 -0.14 +0.01    -0.018 A 
DOCKED: ATOM     27  C   UNL d   1      -2.935  16.983   6.576 -0.15 -0.00    +0.003 A 
DOCKED: ATOM     28  C   UNL d   1      -3.911  15.708   8.580 -0.29 -0.01    +0.052 C 
DOCKED: ATOM     29  C   UNL d   1      -5.523  14.520  13.159 -0.31 -0.02    +0.046 C 
DOCKED: ATOM     30  C   UNL d   1      -1.156  17.908   4.906 -0.17 -0.04    +0.046 C 
DOCKED: ATOM     31  H   UNL d   1      -2.173  16.482  10.693 -0.28 -0.08    +0.166 HD
DOCKED: ATOM     32  H   UNL d   1      -1.219  15.808   9.006 -0.48 -0.09    +0.166 HD
DOCKED: ENDROOT
DOCKED: BRANCH   7  33
DOCKED: ATOM     33  C   UNL d   1       3.521  17.923   7.675 -0.05 -0.04    +0.141 C 
DOCKED: BRANCH  33  34
DOCKED: ATOM     34  C   UNL d   1       3.470  19.242   8.398 -0.00 -0.06    +0.306 C 
DOCKED: ATOM     35  O   UNL d   1       2.505  19.982   8.479 -0.00 +0.04    -0.251 OA
DOCKED: BRANCH  34  36
DOCKED: ATOM     36  O   UNL d   1       4.640  19.558   8.982 +0.00 +0.06    -0.481 OA
DOCKED: ATOM     37  H   UNL d   1       4.802  18.829   9.619 +0.02 -0.04    +0.295 HD
DOCKED: ENDBRANCH  34  36
DOCKED: ENDBRANCH  33  34
DOCKED: ENDBRANCH   7  33
DOCKED: BRANCH  27  38
DOCKED: ATOM     38  C   UNL d   1      -4.104  17.304   5.815 -0.12 -0.01    +0.017 C 
DOCKED: ATOM     39  C   UNL d   1      -5.335  17.472   6.321 -0.07 -0.03    +0.092 C 
DOCKED: BRANCH  39  40
DOCKED: ATOM     40  C   UNL d   1      -6.449  17.818   5.433 -0.02 -0.09    +0.330 C 
DOCKED: ATOM     41  O   UNL d   1      -6.453  18.630   4.527 -0.01 +0.07    -0.246 OA
DOCKED: BRANCH  40  42
DOCKED: ATOM     42  O   UNL d   1      -7.531  17.087   5.743 -0.02 +0.12    -0.477 OA
DOCKED: ATOM     43  H   UNL d   1      -7.646  17.234   6.704 +0.05 -0.06    +0.295 HD
DOCKED: ENDBRANCH  40  42
DOCKED: ENDBRANCH  39  40
DOCKED: ENDBRANCH  27  38
DOCKED: BRANCH   8  44
DOCKED: ATOM     44  C   UNL d   1       1.568  16.791  15.123 -0.13 -0.02    +0.141 C 
DOCKED: BRANCH  44  45
DOCKED: ATOM     45  C   UNL d   1       1.179  16.641  16.569 -0.10 -0.02    +0.306 C 
DOCKED: ATOM     46  O   UNL d   1       1.312  17.475  17.448 -0.04 +0.02    -0.251 OA
DOCKED: BRANCH  45  47
DOCKED: ATOM     47  O   UNL d   1       0.665  15.428  16.841 -0.69 -0.07    -0.481 OA
DOCKED: ATOM     48  H   UNL d   1      -0.302  15.535  16.713 +0.08 -0.05    +0.295 HD
DOCKED: ENDBRANCH  45  47
DOCKED: ENDBRANCH  44  45
DOCKED: ENDBRANCH   8  44
DOCKED: BRANCH  22  49
DOCKED: ATOM     49  C   UNL d   1      -6.261  14.362  10.055 -0.02 +0.00    +0.048 C 
DOCKED: BRANCH  49  50
DOCKED: ATOM     50  C   UNL d   1      -7.444  15.328  10.107 -0.23 +0.02    +0.125 C 
DOCKED: BRANCH  50  51
DOCKED: ATOM     51  C   UNL d   1      -7.465  16.217   8.896 -0.13 -0.01    +0.305 C 
DOCKED: ATOM     52  O   UNL d   1      -6.895  17.283   8.748 -0.04 +0.02    -0.251 OA
DOCKED: BRANCH  51  53
DOCKED: ATOM     53  O   UNL d   1      -8.234  15.710   7.912 -0.11 +0.06    -0.481 OA
DOCKED: ATOM     54  H   UNL d   1      -7.591  15.428   7.229 -0.48 -0.12    +0.295 HD
DOCKED: ENDBRANCH  51  53
DOCKED: ENDBRANCH  50  51
DOCKED: ENDBRANCH  49  50
DOCKED: ENDBRANCH  22  49
DOCKED: TORSDOF 13
DOCKED: TER
DOCKED: ENDMDL
________________________________________________________________________________


	BEGINNING GENETIC ALGORITHM DOCKING 73 of 100
Run: 73 Seed: 675471059 1392633959 [ Run 73 of 100 GA/GALS ]
Beginning LAMARCKIAN GENETIC ALGORITHM (LGA), with a maximum of 25000000 energy evaluations.

Final-Value: -12.312


	FINAL GENETIC ALGORITHM DOCKED STATE
	_______________________________________________


Detailed state:  trans -10.245 0.956 -7.437 quatxyzw 0.373472 0.920320 0.021478 0.114313 center 0.153 0.018 -0.028 ntor 13 -99.0228 120.7045 -117.9466 -54.0415 33.1577 112.6317 126.0264 14.6486 121.1053 -46.7896 -80.9154 -114.6834 6.7420
State:	-10.245   0.956  -7.437   0.376  0.926  0.022 166.872    -99.02  120.70 -117.95  -54.04   33.16  112.63  126.03   14.65  121.11  -46.79  -80.92 -114.68    6.74

DOCKED: MODEL       73
DOCKED: USER    Run = 73
DOCKED: USER    DPF = D:/Protein_go_brrr/autodock/final/AncB/heme/dock.dpf
DOCKED: USER  
DOCKED: USER    Estimated Free Energy of Binding    =   -3.80 kcal/mol  [=(1)+(2)+(3)-(4)]
DOCKED: USER    Estimated Inhibition Constant, Ki   =    1.64 mM (millimolar)  [Temperature = 298.15 K]
DOCKED: USER    
DOCKED: USER    (1) Final Intermolecular Energy     =   -7.68 kcal/mol
DOCKED: USER        vdW + Hbond + desolv Energy     =   -7.37 kcal/mol
DOCKED: USER        Electrostatic Energy            =   -0.30 kcal/mol
DOCKED: USER    (2) Final Total Internal Energy     =   -4.63 kcal/mol
DOCKED: USER    (3) Torsional Free Energy           =   +3.88 kcal/mol
DOCKED: USER    (4) Unbound System's Energy  [=(2)] =   -4.63 kcal/mol
DOCKED: USER    
DOCKED: USER    
DOCKED: USER    NEWDPF move heme_opt.pdbqt
DOCKED: USER    NEWDPF about 0.153000 0.018000 -0.028000
DOCKED: USER    NEWDPF tran0 -10.245494 0.956251 -7.436896
DOCKED: USER    NEWDPF quaternion0 0.373472 0.920320 0.021478 0.114313
DOCKED: USER    NEWDPF axisangle0 0.375937 0.926393 0.021620 166.871991
DOCKED: USER    NEWDPF quat0 0.375937 0.926393 0.021620 166.871991
DOCKED: USER    NEWDPF dihe0 -99.02 120.70 -117.95 -54.04 33.16 112.63 126.03 14.65 121.11 -46.79 -80.92 -114.68 6.74 
DOCKED: USER  keepresnum = 1 
DOCKED: USER  
DOCKED: REMARK  13 active torsions:
DOCKED: REMARK  status: ('A' for Active; 'I' for Inactive)
DOCKED: REMARK    1  A    between atoms: O_3  and  C_38 
DOCKED: REMARK    2  A    between atoms: O_4  and  C_40 
DOCKED: REMARK    3  A    between atoms: O_7  and  C_46 
DOCKED: REMARK    4  A    between atoms: O_9  and  C_48 
DOCKED: REMARK    5  A    between atoms: C_15  and  C_20 
DOCKED: REMARK    6  A    between atoms: C_16  and  C_23 
DOCKED: REMARK    7  A    between atoms: C_20  and  C_38 
DOCKED: REMARK    8  A    between atoms: C_23  and  C_40 
DOCKED: REMARK    9  A    between atoms: C_32  and  C_41 
DOCKED: REMARK   10  A    between atoms: C_37  and  C_45 
DOCKED: REMARK   11  A    between atoms: C_41  and  C_44 
DOCKED: REMARK   12  A    between atoms: C_44  and  C_46 
DOCKED: REMARK   13  A    between atoms: C_47  and  C_48 
DOCKED: USER                              x       y       z     vdW  Elec       q    Type
DOCKED: USER                           _______ _______ _______ _____ _____    ______ ____
DOCKED: ROOT
DOCKED: ATOM      1  O   UNL d   1      -5.303  -1.576  -9.415 -0.05 -0.17    -0.289 OA
DOCKED: ATOM      2  O   UNL d   1     -11.447  -4.544  -6.280 -0.17 -0.00    -0.289 OA
DOCKED: ATOM      3  N   UNL d   1      -7.931   0.344  -8.273 -0.14 -0.07    -0.247 NA
DOCKED: ATOM      4  N   UNL d   1      -9.970  -1.676  -7.506 -0.10 -0.05    -0.247 NA
DOCKED: ATOM      5  N   UNL d   1     -11.896   0.454  -7.371 -0.04 +0.00    -0.354 N 
DOCKED: ATOM      6  N   UNL d   1      -9.778   2.541  -8.186 -0.06 -0.07    -0.354 N 
DOCKED: ATOM      7  C   UNL d   1      -5.861   0.802  -9.504 -0.23 +0.04    +0.084 A 
DOCKED: ATOM      8  C   UNL d   1      -9.164  -3.896  -6.878 -0.34 +0.02    +0.084 A 
DOCKED: ATOM      9  C   UNL d   1      -8.865  -2.493  -7.417 -0.24 +0.01    +0.058 A 
DOCKED: ATOM     10  C   UNL d   1      -7.158   1.322  -8.876 -0.25 +0.02    +0.058 A 
DOCKED: ATOM     11  C   UNL d   1      -6.029  -0.641  -9.133 -0.16 +0.09    +0.193 A 
DOCKED: ATOM     12  C   UNL d   1      -7.308  -0.786  -8.368 -0.19 +0.04    +0.109 A 
DOCKED: ATOM     13  C   UNL d   1     -10.649  -3.737  -6.714 -0.17 +0.02    +0.193 A 
DOCKED: ATOM     14  C   UNL d   1      -5.872   0.925 -11.030 -0.19 +0.02    +0.026 C 
DOCKED: ATOM     15  C   UNL d   1      -7.640  -2.114  -7.814 -0.28 +0.02    +0.055 C 
DOCKED: ATOM     16  C   UNL d   1      -8.537  -4.120  -5.499 -0.60 +0.00    +0.026 C 
DOCKED: ATOM     17  C   UNL d   1     -11.012  -2.350  -7.136 -0.15 +0.01    +0.109 A 
DOCKED: ATOM     18  C   UNL d   1      -7.449   2.636  -8.850 -0.31 +0.02    +0.050 C 
DOCKED: ATOM     19  C   UNL d   1      -8.579   3.216  -8.220 -0.26 +0.01    +0.045 A 
DOCKED: ATOM     20  C   UNL d   1     -12.732  -0.626  -7.259 -0.03 -0.00    +0.045 A 
DOCKED: ATOM     21  C   UNL d   1     -12.417  -1.918  -7.123 -0.15 +0.00    +0.057 C 
DOCKED: ATOM     22  C   UNL d   1     -13.995   1.267  -7.453 -0.10 +0.00    -0.019 A 
DOCKED: ATOM     23  C   UNL d   1     -12.567   1.642  -7.494 -0.11 -0.00    +0.045 A 
DOCKED: ATOM     24  C   UNL d   1     -14.086  -0.076  -7.312 -0.08 +0.01    -0.022 A 
DOCKED: ATOM     25  C   UNL d   1     -10.755   3.320  -7.611 -0.13 +0.01    +0.049 A 
DOCKED: ATOM     26  C   UNL d   1      -8.773   4.450  -7.619 -0.26 -0.00    -0.018 A 
DOCKED: ATOM     27  C   UNL d   1     -10.144   4.502  -7.219 -0.16 +0.00    +0.003 A 
DOCKED: ATOM     28  C   UNL d   1     -12.113   2.900  -7.606 -0.12 +0.00    +0.052 C 
DOCKED: ATOM     29  C   UNL d   1     -15.309  -0.923  -7.210 -0.11 -0.01    +0.046 C 
DOCKED: ATOM     30  C   UNL d   1      -7.748   5.516  -7.424 -0.37 +0.01    +0.046 C 
DOCKED: ATOM     31  H   UNL d   1     -10.890   0.352  -7.286 +0.05 +0.01    +0.166 HD
DOCKED: ATOM     32  H   UNL d   1      -9.911   1.615  -8.575 +0.05 +0.03    +0.166 HD
DOCKED: ENDROOT
DOCKED: BRANCH   7  33
DOCKED: ATOM     33  C   UNL d   1      -4.569   1.365  -8.904 +0.25 +0.06    +0.141 C 
DOCKED: BRANCH  33  34
DOCKED: ATOM     34  C   UNL d   1      -3.344   0.626  -9.370 -0.24 +0.17    +0.306 C 
DOCKED: ATOM     35  O   UNL d   1      -2.699   0.862 -10.378 -0.25 -0.19    -0.251 OA
DOCKED: BRANCH  34  36
DOCKED: ATOM     36  O   UNL d   1      -2.993  -0.372  -8.539 -0.12 -0.22    -0.481 OA
DOCKED: ATOM     37  H   UNL d   1      -3.613  -1.101  -8.753 +0.16 +0.15    +0.295 HD
DOCKED: ENDBRANCH  34  36
DOCKED: ENDBRANCH  33  34
DOCKED: ENDBRANCH   7  33
DOCKED: BRANCH  27  38
DOCKED: ATOM     38  C   UNL d   1     -10.773   5.613  -6.570 -0.15 +0.00    +0.017 C 
DOCKED: ATOM     39  C   UNL d   1     -11.572   6.509  -7.170 -0.03 +0.02    +0.092 C 
DOCKED: BRANCH  39  40
DOCKED: ATOM     40  C   UNL d   1     -12.169   7.594  -6.386 +0.01 +0.08    +0.330 C 
DOCKED: ATOM     41  O   UNL d   1     -11.912   8.781  -6.443 -0.01 -0.07    -0.246 OA
DOCKED: BRANCH  40  42
DOCKED: ATOM     42  O   UNL d   1     -13.099   7.103  -5.552 +0.02 -0.13    -0.477 OA
DOCKED: ATOM     43  H   UNL d   1     -13.745   6.672  -6.147 +0.03 +0.08    +0.295 HD
DOCKED: ENDBRANCH  40  42
DOCKED: ENDBRANCH  39  40
DOCKED: ENDBRANCH  27  38
DOCKED: BRANCH   8  44
DOCKED: ATOM     44  C   UNL d   1      -8.838  -5.052  -7.830 -0.41 +0.04    +0.141 C 
DOCKED: BRANCH  44  45
DOCKED: ATOM     45  C   UNL d   1     -10.031  -5.531  -8.613 -0.23 +0.10    +0.306 C 
DOCKED: ATOM     46  O   UNL d   1     -10.480  -5.033  -9.631 -0.13 -0.11    -0.251 OA
DOCKED: BRANCH  45  47
DOCKED: ATOM     47  O   UNL d   1     -10.616  -6.606  -8.054 -0.19 -0.13    -0.481 OA
DOCKED: ATOM     48  H   UNL d   1     -10.907  -6.297  -7.170 -0.36 -0.03    +0.295 HD
DOCKED: ENDBRANCH  45  47
DOCKED: ENDBRANCH  44  45
DOCKED: ENDBRANCH   8  44
DOCKED: BRANCH  22  49
DOCKED: ATOM     49  C   UNL d   1     -15.126   2.246  -7.569 -0.09 -0.00    +0.048 C 
DOCKED: BRANCH  49  50
DOCKED: ATOM     50  C   UNL d   1     -15.344   3.020  -6.269 -0.08 -0.02    +0.125 C 
DOCKED: BRANCH  50  51
DOCKED: ATOM     51  C   UNL d   1     -14.718   4.384  -6.345 -0.06 +0.05    +0.305 C 
DOCKED: ATOM     52  O   UNL d   1     -14.232   4.925  -7.323 -0.01 -0.04    -0.251 OA
DOCKED: BRANCH  51  53
DOCKED: ATOM     53  O   UNL d   1     -14.726   5.010  -5.152 -0.10 -0.27    -0.481 OA
DOCKED: ATOM     54  H   UNL d   1     -13.788   5.251  -5.003 +0.06 +0.12    +0.295 HD
DOCKED: ENDBRANCH  51  53
DOCKED: ENDBRANCH  50  51
DOCKED: ENDBRANCH  49  50
DOCKED: ENDBRANCH  22  49
DOCKED: TORSDOF 13
DOCKED: TER
DOCKED: ENDMDL
________________________________________________________________________________


	BEGINNING GENETIC ALGORITHM DOCKING 74 of 100
Run: 74 Seed: 1218253572 1957831324 [ Run 74 of 100 GA/GALS ]
Beginning LAMARCKIAN GENETIC ALGORITHM (LGA), with a maximum of 25000000 energy evaluations.

Final-Value: -12.985


	FINAL GENETIC ALGORITHM DOCKED STATE
	_______________________________________________


Detailed state:  trans -8.386 16.060 6.132 quatxyzw -0.236071 -0.764080 0.576363 0.168101 center 0.153 0.018 -0.028 ntor 13 170.4803 140.3869 -49.5044 46.3138 -4.0089 103.7706 -15.6371 60.4844 -13.8624 -119.9549 -82.7151 -105.8442 2.0273
State:	 -8.386  16.060   6.132  -0.239 -0.775  0.585 160.645    170.48  140.39  -49.50   46.31   -4.01  103.77  -15.64   60.48  -13.86 -119.95  -82.72 -105.84    2.03

DOCKED: MODEL       74
DOCKED: USER    Run = 74
DOCKED: USER    DPF = D:/Protein_go_brrr/autodock/final/AncB/heme/dock.dpf
DOCKED: USER  
DOCKED: USER    Estimated Free Energy of Binding    =   -5.67 kcal/mol  [=(1)+(2)+(3)-(4)]
DOCKED: USER    Estimated Inhibition Constant, Ki   =   69.57 uM (micromolar)  [Temperature = 298.15 K]
DOCKED: USER    
DOCKED: USER    (1) Final Intermolecular Energy     =   -9.55 kcal/mol
DOCKED: USER        vdW + Hbond + desolv Energy     =   -8.60 kcal/mol
DOCKED: USER        Electrostatic Energy            =   -0.95 kcal/mol
DOCKED: USER    (2) Final Total Internal Energy     =   -3.44 kcal/mol
DOCKED: USER    (3) Torsional Free Energy           =   +3.88 kcal/mol
DOCKED: USER    (4) Unbound System's Energy  [=(2)] =   -3.44 kcal/mol
DOCKED: USER    
DOCKED: USER    
DOCKED: USER    NEWDPF move heme_opt.pdbqt
DOCKED: USER    NEWDPF about 0.153000 0.018000 -0.028000
DOCKED: USER    NEWDPF tran0 -8.385609 16.060118 6.131677
DOCKED: USER    NEWDPF quaternion0 -0.236071 -0.764080 0.576363 0.168101
DOCKED: USER    NEWDPF axisangle0 -0.239479 -0.775110 0.584683 160.645108
DOCKED: USER    NEWDPF quat0 -0.239479 -0.775110 0.584683 160.645108
DOCKED: USER    NEWDPF dihe0 170.48 140.39 -49.50 46.31 -4.01 103.77 -15.64 60.48 -13.86 -119.95 -82.72 -105.84 2.03 
DOCKED: USER  keepresnum = 1 
DOCKED: USER  
DOCKED: REMARK  13 active torsions:
DOCKED: REMARK  status: ('A' for Active; 'I' for Inactive)
DOCKED: REMARK    1  A    between atoms: O_3  and  C_38 
DOCKED: REMARK    2  A    between atoms: O_4  and  C_40 
DOCKED: REMARK    3  A    between atoms: O_7  and  C_46 
DOCKED: REMARK    4  A    between atoms: O_9  and  C_48 
DOCKED: REMARK    5  A    between atoms: C_15  and  C_20 
DOCKED: REMARK    6  A    between atoms: C_16  and  C_23 
DOCKED: REMARK    7  A    between atoms: C_20  and  C_38 
DOCKED: REMARK    8  A    between atoms: C_23  and  C_40 
DOCKED: REMARK    9  A    between atoms: C_32  and  C_41 
DOCKED: REMARK   10  A    between atoms: C_37  and  C_45 
DOCKED: REMARK   11  A    between atoms: C_41  and  C_44 
DOCKED: REMARK   12  A    between atoms: C_44  and  C_46 
DOCKED: REMARK   13  A    between atoms: C_47  and  C_48 
DOCKED: USER                              x       y       z     vdW  Elec       q    Type
DOCKED: USER                           _______ _______ _______ _____ _____    ______ ____
DOCKED: ROOT
DOCKED: ATOM      1  O   UNL d   1      -2.790  14.880   7.566 -0.61 +0.04    -0.289 OA
DOCKED: ATOM      2  O   UNL d   1      -8.838  16.046  11.862 -0.11 -0.10    -0.289 OA
DOCKED: ATOM      3  N   UNL d   1      -5.881  15.684   6.262 -0.03 +0.11    -0.247 NA
DOCKED: ATOM      4  N   UNL d   1      -7.657  15.646   8.644 -0.17 +0.01    -0.247 NA
DOCKED: ATOM      5  N   UNL d   1      -9.906  15.673   6.852 -0.13 +0.04    -0.354 N 
DOCKED: ATOM      6  N   UNL d   1      -8.056  15.691   4.387 -0.13 +0.14    -0.354 N 
DOCKED: ATOM      7  C   UNL d   1      -3.717  15.038   5.309 -0.32 -0.04    +0.084 A 
DOCKED: ATOM      8  C   UNL d   1      -6.626  16.087  10.815 -0.14 +0.00    +0.084 A 
DOCKED: ATOM      9  C   UNL d   1      -6.469  15.855   9.308 -0.20 -0.00    +0.058 A 
DOCKED: ATOM     10  C   UNL d   1      -5.182  15.430   5.094 -0.28 -0.03    +0.058 A 
DOCKED: ATOM     11  C   UNL d   1      -3.707  15.133   6.805 -0.21 -0.05    +0.193 A 
DOCKED: ATOM     12  C   UNL d   1      -5.069  15.557   7.261 -0.20 -0.03    +0.109 A 
DOCKED: ATOM     13  C   UNL d   1      -8.119  15.935  10.888 -0.13 +0.04    +0.193 A 
DOCKED: ATOM     14  C   UNL d   1      -3.445  13.587   4.903 -0.57 -0.01    +0.026 C 
DOCKED: ATOM     15  C   UNL d   1      -5.273  15.808   8.701 -0.23 -0.01    +0.055 C 
DOCKED: ATOM     16  C   UNL d   1      -6.258  17.521  11.210 -0.06 -0.00    +0.026 C 
DOCKED: ATOM     17  C   UNL d   1      -8.621  15.663   9.507 -0.16 +0.01    +0.109 A 
DOCKED: ATOM     18  C   UNL d   1      -5.692  15.594   3.859 -0.18 -0.02    +0.050 C 
DOCKED: ATOM     19  C   UNL d   1      -7.007  16.035   3.564 -0.23 -0.02    +0.045 A 
DOCKED: ATOM     20  C   UNL d   1     -10.551  15.424   8.036 -0.22 +0.00    +0.045 A 
DOCKED: ATOM     21  C   UNL d   1     -10.054  15.424   9.277 -0.13 +0.01    +0.057 C 
DOCKED: ATOM     22  C   UNL d   1     -12.054  15.247   6.325 -0.15 +0.00    -0.019 A 
DOCKED: ATOM     23  C   UNL d   1     -10.731  15.588   5.763 -0.19 -0.01    +0.045 A 
DOCKED: ATOM     24  C   UNL d   1     -11.940  15.153   7.671 -0.19 +0.00    -0.022 A 
DOCKED: ATOM     25  C   UNL d   1      -9.246  16.145   3.867 -0.15 -0.01    +0.049 A 
DOCKED: ATOM     26  C   UNL d   1      -7.524  16.761   2.502 -0.16 +0.01    -0.018 A 
DOCKED: ATOM     27  C   UNL d   1      -8.935  16.844   2.709 -0.09 -0.00    +0.003 A 
DOCKED: ATOM     28  C   UNL d   1     -10.486  15.778   4.457 -0.16 -0.01    +0.052 C 
DOCKED: ATOM     29  C   UNL d   1     -12.997  14.843   8.676 -0.15 +0.00    +0.046 C 
DOCKED: ATOM     30  C   UNL d   1      -6.756  17.345   1.365 -0.09 -0.04    +0.046 C 
DOCKED: ATOM     31  H   UNL d   1      -8.935  15.966   6.833 -0.01 -0.03    +0.166 HD
DOCKED: ATOM     32  H   UNL d   1      -7.948  15.144   5.232 -0.28 -0.11    +0.166 HD
DOCKED: ENDROOT
DOCKED: BRANCH   7  33
DOCKED: ATOM     33  C   UNL d   1      -2.685  15.995   4.702 -0.14 -0.13    +0.141 C 
DOCKED: BRANCH  33  34
DOCKED: ATOM     34  C   UNL d   1      -3.136  17.430   4.735 -0.09 -0.23    +0.306 C 
DOCKED: ATOM     35  O   UNL d   1      -3.570  18.026   5.706 -0.04 +0.11    -0.251 OA
DOCKED: BRANCH  34  36
DOCKED: ATOM     36  O   UNL d   1      -3.014  18.039   3.542 -0.04 +0.58    -0.481 OA
DOCKED: ATOM     37  H   UNL d   1      -2.471  17.423   3.005 -0.48 -0.75    +0.295 HD
DOCKED: ENDBRANCH  34  36
DOCKED: ENDBRANCH  33  34
DOCKED: ENDBRANCH   7  33
DOCKED: BRANCH  27  38
DOCKED: ATOM     38  C   UNL d   1      -9.860  17.498   1.834 -0.04 -0.00    +0.017 C 
DOCKED: ATOM     39  C   UNL d   1     -10.782  16.881   1.078 -0.02 -0.01    +0.092 C 
DOCKED: BRANCH  39  40
DOCKED: ATOM     40  C   UNL d   1     -11.683  17.670   0.236 +0.00 -0.03    +0.330 C 
DOCKED: ATOM     41  O   UNL d   1     -11.609  17.853  -0.965 -0.00 +0.02    -0.246 OA
DOCKED: BRANCH  40  42
DOCKED: ATOM     42  O   UNL d   1     -12.669  18.196   0.979 +0.00 +0.02    -0.477 OA
DOCKED: ATOM     43  H   UNL d   1     -12.898  17.479   1.606 +0.00 -0.01    +0.295 HD
DOCKED: ENDBRANCH  40  42
DOCKED: ENDBRANCH  39  40
DOCKED: ENDBRANCH  27  38
DOCKED: BRANCH   8  44
DOCKED: ATOM     44  C   UNL d   1      -5.925  15.066  11.717 -0.24 +0.00    +0.141 C 
DOCKED: BRANCH  44  45
DOCKED: ATOM     45  C   UNL d   1      -6.310  15.191  13.167 -0.16 -0.03    +0.306 C 
DOCKED: ATOM     46  O   UNL d   1      -6.160  16.170  13.877 -0.09 +0.10    -0.251 OA
DOCKED: BRANCH  45  47
DOCKED: ATOM     47  O   UNL d   1      -6.843  14.057  13.657 -0.64 -0.21    -0.481 OA
DOCKED: ATOM     48  H   UNL d   1      -6.344  13.885  14.483 -0.44 -0.27    +0.295 HD
DOCKED: ENDBRANCH  45  47
DOCKED: ENDBRANCH  44  45
DOCKED: ENDBRANCH   8  44
DOCKED: BRANCH  22  49
DOCKED: ATOM     49  C   UNL d   1     -13.289  15.032   5.501 -0.10 -0.01    +0.048 C 
DOCKED: BRANCH  49  50
DOCKED: ATOM     50  C   UNL d   1     -13.955  16.354   5.119 -0.02 -0.00    +0.125 C 
DOCKED: BRANCH  50  51
DOCKED: ATOM     51  C   UNL d   1     -13.566  16.768   3.728 -0.00 -0.01    +0.305 C 
DOCKED: ATOM     52  O   UNL d   1     -13.668  16.118   2.703 -0.00 +0.01    -0.251 OA
DOCKED: BRANCH  51  53
DOCKED: ATOM     53  O   UNL d   1     -13.042  18.010   3.700 +0.00 +0.02    -0.481 OA
DOCKED: ATOM     54  H   UNL d   1     -13.491  18.441   2.943 +0.00 -0.01    +0.295 HD
DOCKED: ENDBRANCH  51  53
DOCKED: ENDBRANCH  50  51
DOCKED: ENDBRANCH  49  50
DOCKED: ENDBRANCH  22  49
DOCKED: TORSDOF 13
DOCKED: TER
DOCKED: ENDMDL
________________________________________________________________________________


	BEGINNING GENETIC ALGORITHM DOCKING 75 of 100
Run: 75 Seed: 932860218 107527957 [ Run 75 of 100 GA/GALS ]
Beginning LAMARCKIAN GENETIC ALGORITHM (LGA), with a maximum of 25000000 energy evaluations.

Final-Value: -11.517


	FINAL GENETIC ALGORITHM DOCKED STATE
	_______________________________________________


Detailed state:  trans -0.188 -12.626 5.592 quatxyzw -0.379239 0.273724 -0.838854 0.278527 center 0.153 0.018 -0.028 ntor 13 144.7873 127.3821 112.1502 45.0719 -141.4843 93.0909 126.1032 91.4001 9.6445 -2.0762 -74.6399 -93.7578 -5.6106
State:	 -0.188 -12.626   5.592  -0.395  0.285 -0.873 147.655    144.79  127.38  112.15   45.07 -141.48   93.09  126.10   91.40    9.64   -2.08  -74.64  -93.76   -5.61

DOCKED: MODEL       75
DOCKED: USER    Run = 75
DOCKED: USER    DPF = D:/Protein_go_brrr/autodock/final/AncB/heme/dock.dpf
DOCKED: USER  
DOCKED: USER    Estimated Free Energy of Binding    =   -3.40 kcal/mol  [=(1)+(2)+(3)-(4)]
DOCKED: USER    Estimated Inhibition Constant, Ki   =    3.20 mM (millimolar)  [Temperature = 298.15 K]
DOCKED: USER    
DOCKED: USER    (1) Final Intermolecular Energy     =   -7.28 kcal/mol
DOCKED: USER        vdW + Hbond + desolv Energy     =   -6.87 kcal/mol
DOCKED: USER        Electrostatic Energy            =   -0.41 kcal/mol
DOCKED: USER    (2) Final Total Internal Energy     =   -4.24 kcal/mol
DOCKED: USER    (3) Torsional Free Energy           =   +3.88 kcal/mol
DOCKED: USER    (4) Unbound System's Energy  [=(2)] =   -4.24 kcal/mol
DOCKED: USER    
DOCKED: USER    
DOCKED: USER    NEWDPF move heme_opt.pdbqt
DOCKED: USER    NEWDPF about 0.153000 0.018000 -0.028000
DOCKED: USER    NEWDPF tran0 -0.187709 -12.625727 5.592047
DOCKED: USER    NEWDPF quaternion0 -0.379239 0.273724 -0.838854 0.278527
DOCKED: USER    NEWDPF axisangle0 -0.394865 0.285002 -0.873416 147.655436
DOCKED: USER    NEWDPF quat0 -0.394865 0.285002 -0.873416 147.655436
DOCKED: USER    NEWDPF dihe0 144.79 127.38 112.15 45.07 -141.48 93.09 126.10 91.40 9.64 -2.08 -74.64 -93.76 -5.61 
DOCKED: USER  keepresnum = 1 
DOCKED: USER  
DOCKED: REMARK  13 active torsions:
DOCKED: REMARK  status: ('A' for Active; 'I' for Inactive)
DOCKED: REMARK    1  A    between atoms: O_3  and  C_38 
DOCKED: REMARK    2  A    between atoms: O_4  and  C_40 
DOCKED: REMARK    3  A    between atoms: O_7  and  C_46 
DOCKED: REMARK    4  A    between atoms: O_9  and  C_48 
DOCKED: REMARK    5  A    between atoms: C_15  and  C_20 
DOCKED: REMARK    6  A    between atoms: C_16  and  C_23 
DOCKED: REMARK    7  A    between atoms: C_20  and  C_38 
DOCKED: REMARK    8  A    between atoms: C_23  and  C_40 
DOCKED: REMARK    9  A    between atoms: C_32  and  C_41 
DOCKED: REMARK   10  A    between atoms: C_37  and  C_45 
DOCKED: REMARK   11  A    between atoms: C_41  and  C_44 
DOCKED: REMARK   12  A    between atoms: C_44  and  C_46 
DOCKED: REMARK   13  A    between atoms: C_47  and  C_48 
DOCKED: USER                              x       y       z     vdW  Elec       q    Type
DOCKED: USER                           _______ _______ _______ _____ _____    ______ ____
DOCKED: ROOT
DOCKED: ATOM      1  O   UNL d   1       2.112 -15.691   1.112 -0.05 -0.04    -0.289 OA
DOCKED: ATOM      2  O   UNL d   1       3.799  -8.889   3.810 -0.08 -0.03    -0.289 OA
DOCKED: ATOM      3  N   UNL d   1       0.376 -14.228   3.708 -0.44 -0.11    -0.247 NA
DOCKED: ATOM      4  N   UNL d   1       1.925 -11.752   4.256 -0.11 -0.03    -0.247 NA
DOCKED: ATOM      5  N   UNL d   1       0.467 -11.496   6.721 -0.09 -0.06    -0.354 N 
DOCKED: ATOM      6  N   UNL d   1      -1.122 -14.076   6.154 -0.04 -0.11    -0.354 N 
DOCKED: ATOM      7  C   UNL d   1       0.343 -16.428   2.629 -0.06 +0.02    +0.084 A 
DOCKED: ATOM      8  C   UNL d   1       3.218 -10.810   2.409 -0.30 +0.00    +0.084 A 
DOCKED: ATOM      9  C   UNL d   1       2.340 -11.940   2.957 -0.24 +0.01    +0.058 A 
DOCKED: ATOM     10  C   UNL d   1      -0.205 -15.485   3.704 -0.06 +0.02    +0.058 A 
DOCKED: ATOM     11  C   UNL d   1       1.325 -15.476   2.015 -0.07 +0.04    +0.193 A 
DOCKED: ATOM     12  C   UNL d   1       1.231 -14.169   2.740 -0.15 +0.03    +0.109 A 
DOCKED: ATOM     13  C   UNL d   1       3.255  -9.964   3.650 -0.19 +0.01    +0.193 A 
DOCKED: ATOM     14  C   UNL d   1       1.110 -17.606   3.237 -0.02 +0.01    +0.026 C 
DOCKED: ATOM     15  C   UNL d   1       2.046 -13.040   2.247 -0.26 +0.01    +0.055 C 
DOCKED: ATOM     16  C   UNL d   1       2.509 -10.027   1.300 -0.48 +0.00    +0.026 C 
DOCKED: ATOM     17  C   UNL d   1       2.440 -10.649   4.698 -0.20 +0.01    +0.109 A 
DOCKED: ATOM     18  C   UNL d   1      -1.229 -15.845   4.500 -0.07 +0.02    +0.050 C 
DOCKED: ATOM     19  C   UNL d   1      -1.856 -15.013   5.462 +0.01 +0.02    +0.045 A 
DOCKED: ATOM     20  C   UNL d   1       1.419 -10.528   6.909 -0.17 +0.01    +0.045 A 
DOCKED: ATOM     21  C   UNL d   1       2.330 -10.069   6.044 -0.24 +0.01    +0.057 C 
DOCKED: ATOM     22  C   UNL d   1       0.223 -10.772   8.840 -0.11 -0.00    -0.019 A 
DOCKED: ATOM     23  C   UNL d   1      -0.304 -11.714   7.832 -0.15 +0.01    +0.045 A 
DOCKED: ATOM     24  C   UNL d   1       1.242 -10.072   8.287 -0.03 -0.00    -0.022 A 
DOCKED: ATOM     25  C   UNL d   1      -1.905 -13.446   7.093 -0.11 +0.02    +0.049 A 
DOCKED: ATOM     26  C   UNL d   1      -3.157 -14.965   5.938 -0.10 -0.01    -0.018 A 
DOCKED: ATOM     27  C   UNL d   1      -3.187 -13.961   6.955 -0.12 +0.00    +0.003 A 
DOCKED: ATOM     28  C   UNL d   1      -1.333 -12.550   8.037 -0.12 +0.01    +0.052 C 
DOCKED: ATOM     29  C   UNL d   1       2.080  -9.003   8.901 -0.04 +0.01    +0.046 C 
DOCKED: ATOM     30  C   UNL d   1      -4.304 -15.799   5.478 -0.14 +0.05    +0.046 C 
DOCKED: ATOM     31  H   UNL d   1       0.326 -11.925   5.813 +0.05 +0.03    +0.166 HD
DOCKED: ATOM     32  H   UNL d   1      -0.133 -13.917   6.004 +0.03 +0.04    +0.166 HD
DOCKED: ENDROOT
DOCKED: BRANCH   7  33
DOCKED: ATOM     33  C   UNL d   1      -0.675 -16.898   1.585 -0.10 +0.05    +0.141 C 
DOCKED: BRANCH  33  34
DOCKED: ATOM     34  C   UNL d   1      -1.329 -15.755   0.859 -0.23 +0.12    +0.306 C 
DOCKED: ATOM     35  O   UNL d   1      -2.326 -15.150   1.215 -0.28 -0.12    -0.251 OA
DOCKED: BRANCH  34  36
DOCKED: ATOM     36  O   UNL d   1      -0.690 -15.430  -0.280 -0.21 -0.12    -0.481 OA
DOCKED: ATOM     37  H   UNL d   1       0.261 -15.537  -0.067 +0.14 +0.06    +0.295 HD
DOCKED: ENDBRANCH  34  36
DOCKED: ENDBRANCH  33  34
DOCKED: ENDBRANCH   7  33
DOCKED: BRANCH  27  38
DOCKED: ATOM     38  C   UNL d   1      -4.339 -13.597   7.722 -0.17 +0.01    +0.017 C 
DOCKED: ATOM     39  C   UNL d   1      -4.419 -13.627   9.061 -0.11 +0.05    +0.092 C 
DOCKED: BRANCH  39  40
DOCKED: ATOM     40  C   UNL d   1      -5.656 -13.212   9.728 -0.14 +0.19    +0.330 C 
DOCKED: ATOM     41  O   UNL d   1      -6.602 -13.909  10.042 -0.23 -0.17    -0.246 OA
DOCKED: BRANCH  40  42
DOCKED: ATOM     42  O   UNL d   1      -5.625 -11.893   9.978 -0.09 -0.25    -0.477 OA
DOCKED: ATOM     43  H   UNL d   1      -4.780 -11.765  10.455 +0.13 +0.13    +0.295 HD
DOCKED: ENDBRANCH  40  42
DOCKED: ENDBRANCH  39  40
DOCKED: ENDBRANCH  27  38
DOCKED: BRANCH   8  44
DOCKED: ATOM     44  C   UNL d   1       4.631 -11.220   1.981 -0.29 -0.04    +0.141 C 
DOCKED: BRANCH  44  45
DOCKED: ATOM     45  C   UNL d   1       5.376 -11.984   3.044 -0.07 -0.11    +0.306 C 
DOCKED: ATOM     46  O   UNL d   1       5.278 -13.175   3.286 -0.03 +0.04    -0.251 OA
DOCKED: BRANCH  45  47
DOCKED: ATOM     47  O   UNL d   1       6.189 -11.196   3.770 -0.06 +0.35    -0.481 OA
DOCKED: ATOM     48  H   UNL d   1       6.899 -10.931   3.147 -0.45 -0.59    +0.295 HD
DOCKED: ENDBRANCH  45  47
DOCKED: ENDBRANCH  44  45
DOCKED: ENDBRANCH   8  44
DOCKED: BRANCH  22  49
DOCKED: ATOM     49  C   UNL d   1      -0.303 -10.656  10.240 -0.11 +0.01    +0.048 C 
DOCKED: BRANCH  49  50
DOCKED: ATOM     50  C   UNL d   1      -1.446  -9.646  10.336 -0.22 +0.02    +0.125 C 
DOCKED: BRANCH  50  51
DOCKED: ATOM     51  C   UNL d   1      -2.766 -10.344  10.501 -0.16 +0.08    +0.305 C 
DOCKED: ATOM     52  O   UNL d   1      -3.277 -10.733  11.537 -0.11 -0.08    -0.251 OA
DOCKED: BRANCH  51  53
DOCKED: ATOM     53  O   UNL d   1      -3.388 -10.532   9.320 -0.10 -0.14    -0.481 OA
DOCKED: ATOM     54  H   UNL d   1      -4.318 -10.276   9.497 +0.17 +0.10    +0.295 HD
DOCKED: ENDBRANCH  51  53
DOCKED: ENDBRANCH  50  51
DOCKED: ENDBRANCH  49  50
DOCKED: ENDBRANCH  22  49
DOCKED: TORSDOF 13
DOCKED: TER
DOCKED: ENDMDL
________________________________________________________________________________


	BEGINNING GENETIC ALGORITHM DOCKING 76 of 100
Run: 76 Seed: 1686361896 2108778174 [ Run 76 of 100 GA/GALS ]
Beginning LAMARCKIAN GENETIC ALGORITHM (LGA), with a maximum of 25000000 energy evaluations.

Final-Value: -12.774


	FINAL GENETIC ALGORITHM DOCKED STATE
	_______________________________________________


Detailed state:  trans 16.311 1.563 -11.258 quatxyzw 0.872361 -0.030558 0.482438 -0.072842 center 0.153 0.018 -0.028 ntor 13 -175.1770 -179.9753 -155.8468 40.0744 44.6200 -31.3966 133.7857 92.9024 122.6700 -31.9312 -29.1226 -67.2433 20.4307
State:	 16.311   1.563 -11.258   0.875 -0.031  0.484 -171.646   -175.18 -179.98 -155.85   40.07   44.62  -31.40  133.79   92.90  122.67  -31.93  -29.12  -67.24   20.43

DOCKED: MODEL       76
DOCKED: USER    Run = 76
DOCKED: USER    DPF = D:/Protein_go_brrr/autodock/final/AncB/heme/dock.dpf
DOCKED: USER  
DOCKED: USER    Estimated Free Energy of Binding    =   -5.29 kcal/mol  [=(1)+(2)+(3)-(4)]
DOCKED: USER    Estimated Inhibition Constant, Ki   =  132.31 uM (micromolar)  [Temperature = 298.15 K]
DOCKED: USER    
DOCKED: USER    (1) Final Intermolecular Energy     =   -9.17 kcal/mol
DOCKED: USER        vdW + Hbond + desolv Energy     =   -9.09 kcal/mol
DOCKED: USER        Electrostatic Energy            =   -0.08 kcal/mol
DOCKED: USER    (2) Final Total Internal Energy     =   -3.61 kcal/mol
DOCKED: USER    (3) Torsional Free Energy           =   +3.88 kcal/mol
DOCKED: USER    (4) Unbound System's Energy  [=(2)] =   -3.61 kcal/mol
DOCKED: USER    
DOCKED: USER    
DOCKED: USER    NEWDPF move heme_opt.pdbqt
DOCKED: USER    NEWDPF about 0.153000 0.018000 -0.028000
DOCKED: USER    NEWDPF tran0 16.311346 1.562716 -11.257845
DOCKED: USER    NEWDPF quaternion0 0.872361 -0.030558 0.482438 -0.072842
DOCKED: USER    NEWDPF axisangle0 0.874684 -0.030639 0.483723 -171.645555
DOCKED: USER    NEWDPF quat0 0.874684 -0.030639 0.483723 -171.645555
DOCKED: USER    NEWDPF dihe0 -175.18 -179.98 -155.85 40.07 44.62 -31.40 133.79 92.90 122.67 -31.93 -29.12 -67.24 20.43 
DOCKED: USER  keepresnum = 1 
DOCKED: USER  
DOCKED: REMARK  13 active torsions:
DOCKED: REMARK  status: ('A' for Active; 'I' for Inactive)
DOCKED: REMARK    1  A    between atoms: O_3  and  C_38 
DOCKED: REMARK    2  A    between atoms: O_4  and  C_40 
DOCKED: REMARK    3  A    between atoms: O_7  and  C_46 
DOCKED: REMARK    4  A    between atoms: O_9  and  C_48 
DOCKED: REMARK    5  A    between atoms: C_15  and  C_20 
DOCKED: REMARK    6  A    between atoms: C_16  and  C_23 
DOCKED: REMARK    7  A    between atoms: C_20  and  C_38 
DOCKED: REMARK    8  A    between atoms: C_23  and  C_40 
DOCKED: REMARK    9  A    between atoms: C_32  and  C_41 
DOCKED: REMARK   10  A    between atoms: C_37  and  C_45 
DOCKED: REMARK   11  A    between atoms: C_41  and  C_44 
DOCKED: REMARK   12  A    between atoms: C_44  and  C_46 
DOCKED: REMARK   13  A    between atoms: C_47  and  C_48 
DOCKED: USER                              x       y       z     vdW  Elec       q    Type
DOCKED: USER                           _______ _______ _______ _____ _____    ______ ____
DOCKED: ROOT
DOCKED: ATOM      1  O   UNL d   1      13.657  -0.302 -16.180 -0.04 -0.10    -0.289 OA
DOCKED: ATOM      2  O   UNL d   1      14.173   6.550 -13.152 -0.45 -0.10    -0.289 OA
DOCKED: ATOM      3  N   UNL d   1      15.223   0.295 -13.166 -0.15 -0.07    -0.247 NA
DOCKED: ATOM      4  N   UNL d   1      15.191   3.259 -12.955 -0.10 -0.09    -0.247 NA
DOCKED: ATOM      5  N   UNL d   1      17.096   3.034 -10.814 -0.08 -0.26    -0.354 N 
DOCKED: ATOM      6  N   UNL d   1      17.139  -0.039 -11.053 -0.04 -0.12    -0.354 N 
DOCKED: ATOM      7  C   UNL d   1      14.965  -1.659 -14.624 -0.15 +0.02    +0.084 A 
DOCKED: ATOM      8  C   UNL d   1      13.418   4.445 -14.147 -0.37 +0.02    +0.084 A 
DOCKED: ATOM      9  C   UNL d   1      14.136   3.129 -13.830 -0.28 +0.02    +0.058 A 
DOCKED: ATOM     10  C   UNL d   1      15.531  -1.044 -13.340 -0.16 +0.02    +0.058 A 
DOCKED: ATOM     11  C   UNL d   1      14.266  -0.435 -15.135 -0.16 +0.05    +0.193 A 
DOCKED: ATOM     12  C   UNL d   1      14.475   0.674 -14.151 -0.24 +0.03    +0.109 A 
DOCKED: ATOM     13  C   UNL d   1      14.284   5.351 -13.318 -0.26 +0.06    +0.193 A 
DOCKED: ATOM     14  C   UNL d   1      16.068  -2.047 -15.611 -0.06 +0.01    +0.026 C 
DOCKED: ATOM     15  C   UNL d   1      13.796   1.962 -14.399 -0.30 +0.02    +0.055 C 
DOCKED: ATOM     16  C   UNL d   1      11.996   4.468 -13.579 -0.42 +0.00    +0.026 C 
DOCKED: ATOM     17  C   UNL d   1      15.324   4.510 -12.653 -0.22 +0.05    +0.109 A 
DOCKED: ATOM     18  C   UNL d   1      16.191  -1.790 -12.435 -0.17 +0.02    +0.050 C 
DOCKED: ATOM     19  C   UNL d   1      16.676  -1.328 -11.185 -0.19 +0.01    +0.045 A 
DOCKED: ATOM     20  C   UNL d   1      17.126   4.390 -11.014 -0.21 +0.04    +0.045 A 
DOCKED: ATOM     21  C   UNL d   1      16.349   5.137 -11.805 -0.33 +0.04    +0.057 C 
DOCKED: ATOM     22  C   UNL d   1      18.759   3.829  -9.518 -0.12 -0.02    -0.019 A 
DOCKED: ATOM     23  C   UNL d   1      18.046   2.602  -9.927 -0.15 +0.03    +0.045 A 
DOCKED: ATOM     24  C   UNL d   1      18.209   4.884 -10.165 -0.17 -0.02    -0.022 A 
DOCKED: ATOM     25  C   UNL d   1      17.643   0.167  -9.789 -0.19 +0.02    +0.049 A 
DOCKED: ATOM     26  C   UNL d   1      16.850  -1.966  -9.966 -0.28 -0.01    -0.018 A 
DOCKED: ATOM     27  C   UNL d   1      17.443  -1.011  -9.083 -0.28 +0.00    +0.003 A 
DOCKED: ATOM     28  C   UNL d   1      18.319   1.373  -9.462 -0.18 +0.03    +0.052 C 
DOCKED: ATOM     29  C   UNL d   1      18.574   6.327 -10.075 -0.25 +0.04    +0.046 C 
DOCKED: ATOM     30  C   UNL d   1      16.487  -3.375  -9.639 -0.31 +0.02    +0.046 C 
DOCKED: ATOM     31  H   UNL d   1      16.377   2.456 -11.234 +0.07 +0.10    +0.166 HD
DOCKED: ATOM     32  H   UNL d   1      17.137   0.637 -11.807 +0.05 +0.06    +0.166 HD
DOCKED: ENDROOT
DOCKED: BRANCH   7  33
DOCKED: ATOM     33  C   UNL d   1      13.965  -2.802 -14.418 -0.09 +0.04    +0.141 C 
DOCKED: BRANCH  33  34
DOCKED: ATOM     34  C   UNL d   1      13.275  -3.204 -15.694 -0.11 +0.06    +0.306 C 
DOCKED: ATOM     35  O   UNL d   1      13.571  -4.149 -16.406 -0.04 -0.05    -0.251 OA
DOCKED: BRANCH  34  36
DOCKED: ATOM     36  O   UNL d   1      12.246  -2.396 -16.003 -0.08 -0.06    -0.481 OA
DOCKED: ATOM     37  H   UNL d   1      12.249  -1.713 -15.300 -0.46 -0.01    +0.295 HD
DOCKED: ENDBRANCH  34  36
DOCKED: ENDBRANCH  33  34
DOCKED: ENDBRANCH   7  33
DOCKED: BRANCH  27  38
DOCKED: ATOM     38  C   UNL d   1      17.806  -1.261  -7.721 -0.27 +0.01    +0.017 C 
DOCKED: ATOM     39  C   UNL d   1      18.820  -0.671  -7.069 -0.27 +0.03    +0.092 C 
DOCKED: BRANCH  39  40
DOCKED: ATOM     40  C   UNL d   1      19.077  -1.003  -5.666 -0.20 +0.10    +0.330 C 
DOCKED: ATOM     41  O   UNL d   1      18.264  -1.294  -4.809 -0.37 -0.09    -0.246 OA
DOCKED: BRANCH  40  42
DOCKED: ATOM     42  O   UNL d   1      20.395  -0.958  -5.414 -0.03 -0.11    -0.477 OA
DOCKED: ATOM     43  H   UNL d   1      20.789  -0.709  -6.275 +0.05 +0.07    +0.295 HD
DOCKED: ENDBRANCH  40  42
DOCKED: ENDBRANCH  39  40
DOCKED: ENDBRANCH  27  38
DOCKED: BRANCH   8  44
DOCKED: ATOM     44  C   UNL d   1      13.433   4.868 -15.620 -0.28 +0.02    +0.141 C 
DOCKED: BRANCH  44  45
DOCKED: ATOM     45  C   UNL d   1      14.711   5.551 -16.029 -0.11 +0.05    +0.306 C 
DOCKED: ATOM     46  O   UNL d   1      15.714   5.015 -16.465 -0.04 -0.05    -0.251 OA
DOCKED: BRANCH  45  47
DOCKED: ATOM     47  O   UNL d   1      14.666   6.883 -15.839 -0.07 -0.06    -0.481 OA
DOCKED: ATOM     48  H   UNL d   1      13.980   7.012 -15.150 -0.21 -0.04    +0.295 HD
DOCKED: ENDBRANCH  45  47
DOCKED: ENDBRANCH  44  45
DOCKED: ENDBRANCH   8  44
DOCKED: BRANCH  22  49
DOCKED: ATOM     49  C   UNL d   1      19.909   3.854  -8.556 -0.11 +0.03    +0.048 C 
DOCKED: BRANCH  49  50
DOCKED: ATOM     50  C   UNL d   1      19.497   3.375  -7.164 -0.16 +0.10    +0.125 C 
DOCKED: BRANCH  50  51
DOCKED: ATOM     51  C   UNL d   1      20.662   2.761  -6.441 -0.06 +0.13    +0.305 C 
DOCKED: ATOM     52  O   UNL d   1      21.500   3.329  -5.763 -0.03 -0.08    -0.251 OA
DOCKED: BRANCH  51  53
DOCKED: ATOM     53  O   UNL d   1      20.721   1.426  -6.623 -0.02 -0.16    -0.481 OA
DOCKED: ATOM     54  H   UNL d   1      20.983   1.078  -5.746 +0.05 +0.08    +0.295 HD
DOCKED: ENDBRANCH  51  53
DOCKED: ENDBRANCH  50  51
DOCKED: ENDBRANCH  49  50
DOCKED: ENDBRANCH  22  49
DOCKED: TORSDOF 13
DOCKED: TER
DOCKED: ENDMDL
________________________________________________________________________________


	BEGINNING GENETIC ALGORITHM DOCKING 77 of 100
Run: 77 Seed: 1856900862 1464865696 [ Run 77 of 100 GA/GALS ]
Beginning LAMARCKIAN GENETIC ALGORITHM (LGA), with a maximum of 25000000 energy evaluations.

Final-Value: -12.807


	FINAL GENETIC ALGORITHM DOCKED STATE
	_______________________________________________


Detailed state:  trans 15.794 -0.698 -11.806 quatxyzw -0.817176 0.210537 -0.525904 -0.106406 center 0.153 0.018 -0.028 ntor 13 83.9248 -171.7022 -126.9924 21.6032 179.9952 8.6791 126.1049 179.3198 106.8448 -52.9696 -52.1009 -47.0635 -7.6567
State:	 15.794  -0.698 -11.806  -0.822  0.212 -0.529 -167.784     83.92 -171.70 -126.99   21.60  180.00    8.68  126.10  179.32  106.84  -52.97  -52.10  -47.06   -7.66

DOCKED: MODEL       77
DOCKED: USER    Run = 77
DOCKED: USER    DPF = D:/Protein_go_brrr/autodock/final/AncB/heme/dock.dpf
DOCKED: USER  
DOCKED: USER    Estimated Free Energy of Binding    =   -4.78 kcal/mol  [=(1)+(2)+(3)-(4)]
DOCKED: USER    Estimated Inhibition Constant, Ki   =  314.48 uM (micromolar)  [Temperature = 298.15 K]
DOCKED: USER    
DOCKED: USER    (1) Final Intermolecular Energy     =   -8.66 kcal/mol
DOCKED: USER        vdW + Hbond + desolv Energy     =   -8.58 kcal/mol
DOCKED: USER        Electrostatic Energy            =   -0.07 kcal/mol
DOCKED: USER    (2) Final Total Internal Energy     =   -4.15 kcal/mol
DOCKED: USER    (3) Torsional Free Energy           =   +3.88 kcal/mol
DOCKED: USER    (4) Unbound System's Energy  [=(2)] =   -4.15 kcal/mol
DOCKED: USER    
DOCKED: USER    
DOCKED: USER    NEWDPF move heme_opt.pdbqt
DOCKED: USER    NEWDPF about 0.153000 0.018000 -0.028000
DOCKED: USER    NEWDPF tran0 15.794103 -0.697553 -11.805968
DOCKED: USER    NEWDPF quaternion0 -0.817176 0.210537 -0.525904 -0.106406
DOCKED: USER    NEWDPF axisangle0 -0.821842 0.211739 -0.528907 -167.783596
DOCKED: USER    NEWDPF quat0 -0.821842 0.211739 -0.528907 -167.783596
DOCKED: USER    NEWDPF dihe0 83.92 -171.70 -126.99 21.60 180.00 8.68 126.10 179.32 106.84 -52.97 -52.10 -47.06 -7.66 
DOCKED: USER  keepresnum = 1 
DOCKED: USER  
DOCKED: REMARK  13 active torsions:
DOCKED: REMARK  status: ('A' for Active; 'I' for Inactive)
DOCKED: REMARK    1  A    between atoms: O_3  and  C_38 
DOCKED: REMARK    2  A    between atoms: O_4  and  C_40 
DOCKED: REMARK    3  A    between atoms: O_7  and  C_46 
DOCKED: REMARK    4  A    between atoms: O_9  and  C_48 
DOCKED: REMARK    5  A    between atoms: C_15  and  C_20 
DOCKED: REMARK    6  A    between atoms: C_16  and  C_23 
DOCKED: REMARK    7  A    between atoms: C_20  and  C_38 
DOCKED: REMARK    8  A    between atoms: C_23  and  C_40 
DOCKED: REMARK    9  A    between atoms: C_32  and  C_41 
DOCKED: REMARK   10  A    between atoms: C_37  and  C_45 
DOCKED: REMARK   11  A    between atoms: C_41  and  C_44 
DOCKED: REMARK   12  A    between atoms: C_44  and  C_46 
DOCKED: REMARK   13  A    between atoms: C_47  and  C_48 
DOCKED: USER                              x       y       z     vdW  Elec       q    Type
DOCKED: USER                           _______ _______ _______ _____ _____    ______ ____
DOCKED: ROOT
DOCKED: ATOM      1  O   UNL d   1      13.978   0.329 -17.320 -0.01 -0.10    -0.289 OA
DOCKED: ATOM      2  O   UNL d   1      14.540   4.896 -11.385 -0.34 -0.21    -0.289 OA
DOCKED: ATOM      3  N   UNL d   1      14.981  -0.767 -14.208 -0.13 -0.07    -0.247 NA
DOCKED: ATOM      4  N   UNL d   1      15.187   1.744 -12.632 -0.15 -0.09    -0.247 NA
DOCKED: ATOM      5  N   UNL d   1      16.613   0.259 -10.625 -0.11 -0.13    -0.354 N 
DOCKED: ATOM      6  N   UNL d   1      16.412  -2.337 -12.275 -0.06 -0.12    -0.354 N 
DOCKED: ATOM      7  C   UNL d   1      14.827  -1.784 -16.432 -0.07 +0.02    +0.084 A 
DOCKED: ATOM      8  C   UNL d   1      13.797   3.625 -13.341 -0.34 +0.03    +0.084 A 
DOCKED: ATOM      9  C   UNL d   1      14.314   2.204 -13.592 -0.28 +0.02    +0.058 A 
DOCKED: ATOM     10  C   UNL d   1      15.190  -1.917 -14.950 -0.12 +0.01    +0.058 A 
DOCKED: ATOM     11  C   UNL d   1      14.358  -0.361 -16.392 -0.07 +0.06    +0.193 A 
DOCKED: ATOM     12  C   UNL d   1      14.477   0.136 -14.984 -0.19 +0.03    +0.109 A 
DOCKED: ATOM     13  C   UNL d   1      14.568   3.899 -12.080 -0.26 +0.10    +0.193 A 
DOCKED: ATOM     14  C   UNL d   1      16.060  -1.874 -17.336 -0.02 +0.00    +0.026 C 
DOCKED: ATOM     15  C   UNL d   1      13.982   1.494 -14.681 -0.28 +0.02    +0.055 C 
DOCKED: ATOM     16  C   UNL d   1      12.301   3.636 -13.016 -0.55 +0.00    +0.026 C 
DOCKED: ATOM     17  C   UNL d   1      15.376   2.684 -11.762 -0.23 +0.06    +0.109 A 
DOCKED: ATOM     18  C   UNL d   1      15.590  -3.091 -14.427 -0.12 +0.01    +0.050 C 
DOCKED: ATOM     19  C   UNL d   1      15.865  -3.330 -13.056 -0.09 +0.02    +0.045 A 
DOCKED: ATOM     20  C   UNL d   1      16.808   1.533 -10.159 -0.26 +0.03    +0.045 A 
DOCKED: ATOM     21  C   UNL d   1      16.271   2.677 -10.596 -0.19 +0.04    +0.057 C 
DOCKED: ATOM     22  C   UNL d   1      18.061   0.089  -8.908 -0.23 -0.01    -0.019 A 
DOCKED: ATOM     23  C   UNL d   1      17.328  -0.681  -9.933 -0.22 +0.01    +0.045 A 
DOCKED: ATOM     24  C   UNL d   1      17.747   1.399  -9.046 -0.26 -0.01    -0.022 A 
DOCKED: ATOM     25  C   UNL d   1      16.680  -2.810 -11.011 -0.18 +0.02    +0.049 A 
DOCKED: ATOM     26  C   UNL d   1      15.740  -4.465 -12.270 -0.11 -0.01    -0.018 A 
DOCKED: ATOM     27  C   UNL d   1      16.237  -4.125 -10.974 -0.19 +0.00    +0.003 A 
DOCKED: ATOM     28  C   UNL d   1      17.390  -2.015 -10.071 -0.21 +0.02    +0.052 C 
DOCKED: ATOM     29  C   UNL d   1      18.222   2.561  -8.242 -0.21 +0.05    +0.046 C 
DOCKED: ATOM     30  C   UNL d   1      15.190  -5.784 -12.694 -0.16 +0.03    +0.046 C 
DOCKED: ATOM     31  H   UNL d   1      15.938   0.064 -11.357 +0.07 +0.06    +0.166 HD
DOCKED: ATOM     32  H   UNL d   1      16.620  -1.406 -12.616 +0.04 +0.05    +0.166 HD
DOCKED: ENDROOT
DOCKED: BRANCH   7  33
DOCKED: ATOM     33  C   UNL d   1      13.705  -2.707 -16.919 -0.09 +0.03    +0.141 C 
DOCKED: BRANCH  33  34
DOCKED: ATOM     34  C   UNL d   1      12.984  -2.157 -18.120 -0.05 +0.08    +0.306 C 
DOCKED: ATOM     35  O   UNL d   1      11.781  -1.984 -18.221 -0.62 -0.11    -0.251 OA
DOCKED: BRANCH  34  36
DOCKED: ATOM     36  O   UNL d   1      13.817  -1.854 -19.131 -0.01 -0.11    -0.481 OA
DOCKED: ATOM     37  H   UNL d   1      13.955  -0.885 -19.055 +0.03 +0.07    +0.295 HD
DOCKED: ENDBRANCH  34  36
DOCKED: ENDBRANCH  33  34
DOCKED: ENDBRANCH   7  33
DOCKED: BRANCH  27  38
DOCKED: ATOM     38  C   UNL d   1      16.306  -5.017  -9.857 -0.25 +0.01    +0.017 C 
DOCKED: ATOM     39  C   UNL d   1      16.947  -4.767  -8.705 -0.22 +0.04    +0.092 C 
DOCKED: BRANCH  39  40
DOCKED: ATOM     40  C   UNL d   1      16.926  -5.760  -7.628 -0.11 +0.15    +0.330 C 
DOCKED: ATOM     41  O   UNL d   1      16.473  -6.888  -7.665 -0.13 -0.13    -0.246 OA
DOCKED: BRANCH  40  42
DOCKED: ATOM     42  O   UNL d   1      17.508  -5.260  -6.527 -0.03 -0.17    -0.477 OA
DOCKED: ATOM     43  H   UNL d   1      17.653  -4.316  -6.746 +0.11 +0.11    +0.295 HD
DOCKED: ENDBRANCH  40  42
DOCKED: ENDBRANCH  39  40
DOCKED: ENDBRANCH  27  38
DOCKED: BRANCH   8  44
DOCKED: ATOM     44  C   UNL d   1      14.136   4.653 -14.426 -0.27 +0.03    +0.141 C 
DOCKED: BRANCH  44  45
DOCKED: ATOM     45  C   UNL d   1      15.270   5.567 -14.045 -0.14 +0.09    +0.306 C 
DOCKED: ATOM     46  O   UNL d   1      16.461   5.324 -14.131 -0.06 -0.08    -0.251 OA
DOCKED: BRANCH  45  47
DOCKED: ATOM     47  O   UNL d   1      14.839   6.740 -13.545 -0.48 -0.18    -0.481 OA
DOCKED: ATOM     48  H   UNL d   1      14.212   6.490 -12.833 +0.13 +0.12    +0.295 HD
DOCKED: ENDBRANCH  45  47
DOCKED: ENDBRANCH  44  45
DOCKED: ENDBRANCH   8  44
DOCKED: BRANCH  22  49
DOCKED: ATOM     49  C   UNL d   1      19.001  -0.519  -7.909 -0.21 +0.02    +0.048 C 
DOCKED: BRANCH  49  50
DOCKED: ATOM     50  C   UNL d   1      18.284  -0.902  -6.614 -0.28 +0.04    +0.125 C 
DOCKED: BRANCH  50  51
DOCKED: ATOM     51  C   UNL d   1      18.583  -2.326  -6.237 -0.17 +0.10    +0.305 C 
DOCKED: ATOM     52  O   UNL d   1      18.269  -2.905  -5.212 -0.25 -0.08    -0.251 OA
DOCKED: BRANCH  51  53
DOCKED: ATOM     53  O   UNL d   1      19.292  -2.962  -7.191 -0.03 -0.13    -0.481 OA
DOCKED: ATOM     54  H   UNL d   1      19.127  -3.912  -7.017 +0.07 +0.08    +0.295 HD
DOCKED: ENDBRANCH  51  53
DOCKED: ENDBRANCH  50  51
DOCKED: ENDBRANCH  49  50
DOCKED: ENDBRANCH  22  49
DOCKED: TORSDOF 13
DOCKED: TER
DOCKED: ENDMDL
________________________________________________________________________________


	BEGINNING GENETIC ALGORITHM DOCKING 78 of 100
Run: 78 Seed: 1795076138 1539307943 [ Run 78 of 100 GA/GALS ]
Beginning LAMARCKIAN GENETIC ALGORITHM (LGA), with a maximum of 25000000 energy evaluations.

Final-Value: -11.123


	FINAL GENETIC ALGORITHM DOCKED STATE
	_______________________________________________


Detailed state:  trans 16.618 -4.208 1.046 quatxyzw 0.273965 0.250530 0.222311 -0.901530 center 0.153 0.018 -0.028 ntor 13 44.3039 -153.7708 88.7298 -138.1120 -12.4931 -64.8681 -45.0281 -54.2622 119.3252 -120.5217 164.7885 34.9684 18.4242
State:	 16.618  -4.208   1.046   0.633  0.579  0.514 -51.280     44.30 -153.77   88.73 -138.11  -12.49  -64.87  -45.03  -54.26  119.33 -120.52  164.79   34.97   18.42

DOCKED: MODEL       78
DOCKED: USER    Run = 78
DOCKED: USER    DPF = D:/Protein_go_brrr/autodock/final/AncB/heme/dock.dpf
DOCKED: USER  
DOCKED: USER    Estimated Free Energy of Binding    =   -4.45 kcal/mol  [=(1)+(2)+(3)-(4)]
DOCKED: USER    Estimated Inhibition Constant, Ki   =  543.00 uM (micromolar)  [Temperature = 298.15 K]
DOCKED: USER    
DOCKED: USER    (1) Final Intermolecular Energy     =   -8.33 kcal/mol
DOCKED: USER        vdW + Hbond + desolv Energy     =   -8.22 kcal/mol
DOCKED: USER        Electrostatic Energy            =   -0.12 kcal/mol
DOCKED: USER    (2) Final Total Internal Energy     =   -2.79 kcal/mol
DOCKED: USER    (3) Torsional Free Energy           =   +3.88 kcal/mol
DOCKED: USER    (4) Unbound System's Energy  [=(2)] =   -2.79 kcal/mol
DOCKED: USER    
DOCKED: USER    
DOCKED: USER    NEWDPF move heme_opt.pdbqt
DOCKED: USER    NEWDPF about 0.153000 0.018000 -0.028000
DOCKED: USER    NEWDPF tran0 16.618132 -4.207622 1.046401
DOCKED: USER    NEWDPF quaternion0 0.273965 0.250530 0.222311 -0.901530
DOCKED: USER    NEWDPF axisangle0 0.633128 0.578969 0.513756 -51.280288
DOCKED: USER    NEWDPF quat0 0.633128 0.578969 0.513756 -51.280288
DOCKED: USER    NEWDPF dihe0 44.30 -153.77 88.73 -138.11 -12.49 -64.87 -45.03 -54.26 119.33 -120.52 164.79 34.97 18.42 
DOCKED: USER  keepresnum = 1 
DOCKED: USER  
DOCKED: REMARK  13 active torsions:
DOCKED: REMARK  status: ('A' for Active; 'I' for Inactive)
DOCKED: REMARK    1  A    between atoms: O_3  and  C_38 
DOCKED: REMARK    2  A    between atoms: O_4  and  C_40 
DOCKED: REMARK    3  A    between atoms: O_7  and  C_46 
DOCKED: REMARK    4  A    between atoms: O_9  and  C_48 
DOCKED: REMARK    5  A    between atoms: C_15  and  C_20 
DOCKED: REMARK    6  A    between atoms: C_16  and  C_23 
DOCKED: REMARK    7  A    between atoms: C_20  and  C_38 
DOCKED: REMARK    8  A    between atoms: C_23  and  C_40 
DOCKED: REMARK    9  A    between atoms: C_32  and  C_41 
DOCKED: REMARK   10  A    between atoms: C_37  and  C_45 
DOCKED: REMARK   11  A    between atoms: C_41  and  C_44 
DOCKED: REMARK   12  A    between atoms: C_44  and  C_46 
DOCKED: REMARK   13  A    between atoms: C_47  and  C_48 
DOCKED: USER                              x       y       z     vdW  Elec       q    Type
DOCKED: USER                           _______ _______ _______ _____ _____    ______ ____
DOCKED: ROOT
DOCKED: ATOM      1  O   UNL d   1      12.193  -6.206   4.389 -0.16 -0.01    -0.289 OA
DOCKED: ATOM      2  O   UNL d   1      14.929  -8.673  -2.154 -0.05 +0.05    -0.289 OA
DOCKED: ATOM      3  N   UNL d   1      14.748  -4.609   2.712 -0.18 -0.01    -0.247 NA
DOCKED: ATOM      4  N   UNL d   1      15.332  -6.444   0.449 -0.13 +0.00    -0.247 NA
DOCKED: ATOM      5  N   UNL d   1      17.762  -4.973   0.004 -0.02 -0.03    -0.354 N 
DOCKED: ATOM      6  N   UNL d   1      17.158  -3.086   2.366 -0.08 -0.02    -0.354 N 
DOCKED: ATOM      7  C   UNL d   1      13.668  -4.324   4.894 -0.17 +0.01    +0.084 A 
DOCKED: ATOM      8  C   UNL d   1      13.515  -7.887  -0.317 -0.21 -0.02    +0.084 A 
DOCKED: ATOM      9  C   UNL d   1      14.042  -6.862   0.692 -0.22 -0.01    +0.058 A 
DOCKED: ATOM     10  C   UNL d   1      14.730  -3.874   3.886 -0.21 +0.00    +0.058 A 
DOCKED: ATOM     11  C   UNL d   1      13.077  -5.432   4.075 -0.15 +0.00    +0.193 A 
DOCKED: ATOM     12  C   UNL d   1      13.800  -5.487   2.764 -0.23 -0.00    +0.109 A 
DOCKED: ATOM     13  C   UNL d   1      14.757  -8.002  -1.156 -0.12 -0.02    +0.193 A 
DOCKED: ATOM     14  C   UNL d   1      14.293  -4.922   6.157 -0.07 +0.00    +0.026 C 
DOCKED: ATOM     15  C   UNL d   1      13.325  -6.448   1.748 -0.31 -0.01    +0.055 C 
DOCKED: ATOM     16  C   UNL d   1      12.390  -7.308  -1.181 -0.47 -0.01    +0.026 C 
DOCKED: ATOM     17  C   UNL d   1      15.785  -7.082  -0.581 -0.18 -0.00    +0.109 A 
DOCKED: ATOM     18  C   UNL d   1      15.502  -2.795   4.113 -0.20 +0.00    +0.050 C 
DOCKED: ATOM     19  C   UNL d   1      16.449  -2.256   3.205 -0.23 +0.00    +0.045 A 
DOCKED: ATOM     20  C   UNL d   1      17.972  -6.035  -0.836 -0.17 +0.00    +0.045 A 
DOCKED: ATOM     21  C   UNL d   1      17.129  -7.015  -1.175 -0.17 +0.00    +0.057 C 
DOCKED: ATOM     22  C   UNL d   1      19.875  -4.774  -0.750 -0.10 -0.00    -0.019 A 
DOCKED: ATOM     23  C   UNL d   1      18.854  -4.156   0.120 -0.08 +0.00    +0.045 A 
DOCKED: ATOM     24  C   UNL d   1      19.346  -5.885  -1.315 -0.10 -0.00    -0.022 A 
DOCKED: ATOM     25  C   UNL d   1      18.079  -2.367   1.640 -0.13 +0.00    +0.049 A 
DOCKED: ATOM     26  C   UNL d   1      16.895  -0.961   2.993 -0.28 -0.00    -0.018 A 
DOCKED: ATOM     27  C   UNL d   1      17.911  -1.034   1.990 -0.25 +0.00    +0.003 A 
DOCKED: ATOM     28  C   UNL d   1      19.035  -3.025   0.820 -0.14 +0.00    +0.052 C 
DOCKED: ATOM     29  C   UNL d   1      19.979  -6.836  -2.272 -0.05 +0.00    +0.046 C 
DOCKED: ATOM     30  C   UNL d   1      16.409   0.272   3.677 -0.30 +0.00    +0.046 C 
DOCKED: ATOM     31  H   UNL d   1      16.851  -4.800   0.415 +0.08 +0.01    +0.166 HD
DOCKED: ATOM     32  H   UNL d   1      17.031  -4.090   2.333 +0.04 +0.01    +0.166 HD
DOCKED: ENDROOT
DOCKED: BRANCH   7  33
DOCKED: ATOM     33  C   UNL d   1      12.601  -3.279   5.235 -0.14 +0.02    +0.141 C 
DOCKED: BRANCH  33  34
DOCKED: ATOM     34  C   UNL d   1      11.429  -3.868   5.973 -0.12 +0.05    +0.306 C 
DOCKED: ATOM     35  O   UNL d   1      11.483  -4.693   6.869 -0.59 -0.07    -0.251 OA
DOCKED: BRANCH  34  36
DOCKED: ATOM     36  O   UNL d   1      10.250  -3.383   5.544 -0.48 +0.13    -0.481 OA
DOCKED: ATOM     37  H   UNL d   1       9.731  -3.236   6.363 -0.43 -0.29    +0.295 HD
DOCKED: ENDBRANCH  34  36
DOCKED: ENDBRANCH  33  34
DOCKED: ENDBRANCH   7  33
DOCKED: BRANCH  27  38
DOCKED: ATOM     38  C   UNL d   1      18.651   0.081   1.482 -0.24 +0.00    +0.017 C 
DOCKED: ATOM     39  C   UNL d   1      18.507   0.614   0.259 -0.29 +0.00    +0.092 C 
DOCKED: BRANCH  39  40
DOCKED: ATOM     40  C   UNL d   1      19.317   1.770  -0.133 -0.13 +0.02    +0.330 C 
DOCKED: ATOM     41  O   UNL d   1      19.269   2.899   0.317 -0.13 -0.01    -0.246 OA
DOCKED: BRANCH  40  42
DOCKED: ATOM     42  O   UNL d   1      20.180   1.422  -1.101 -0.04 -0.07    -0.477 OA
DOCKED: ATOM     43  H   UNL d   1      19.744   0.664  -1.542 +0.09 +0.05    +0.295 HD
DOCKED: ENDBRANCH  40  42
DOCKED: ENDBRANCH  39  40
DOCKED: ENDBRANCH  27  38
DOCKED: BRANCH   8  44
DOCKED: ATOM     44  C   UNL d   1      13.120  -9.247   0.268 -0.12 -0.04    +0.141 C 
DOCKED: BRANCH  44  45
DOCKED: ATOM     45  C   UNL d   1      12.835 -10.286  -0.783 -0.08 -0.14    +0.306 C 
DOCKED: ATOM     46  O   UNL d   1      11.759 -10.510  -1.311 -0.19 +0.21    -0.251 OA
DOCKED: BRANCH  45  47
DOCKED: ATOM     47  O   UNL d   1      13.922 -11.013  -1.097 +0.01 +0.15    -0.481 OA
DOCKED: ATOM     48  H   UNL d   1      14.326 -10.541  -1.856 +0.06 -0.09    +0.295 HD
DOCKED: ENDBRANCH  45  47
DOCKED: ENDBRANCH  44  45
DOCKED: ENDBRANCH   8  44
DOCKED: BRANCH  22  49
DOCKED: ATOM     49  C   UNL d   1      21.263  -4.234  -0.936 -0.05 +0.00    +0.048 C 
DOCKED: BRANCH  49  50
DOCKED: ATOM     50  C   UNL d   1      21.254  -2.867  -1.618 -0.06 +0.01    +0.125 C 
DOCKED: BRANCH  50  51
DOCKED: ATOM     51  C   UNL d   1      19.913  -2.581  -2.231 -0.11 +0.05    +0.305 C 
DOCKED: ATOM     52  O   UNL d   1      19.342  -3.217  -3.099 -0.15 -0.05    -0.251 OA
DOCKED: BRANCH  51  53
DOCKED: ATOM     53  O   UNL d   1      19.349  -1.471  -1.715 -0.09 -0.08    -0.481 OA
DOCKED: ATOM     54  H   UNL d   1      20.092  -0.836  -1.645 +0.08 +0.05    +0.295 HD
DOCKED: ENDBRANCH  51  53
DOCKED: ENDBRANCH  50  51
DOCKED: ENDBRANCH  49  50
DOCKED: ENDBRANCH  22  49
DOCKED: TORSDOF 13
DOCKED: TER
DOCKED: ENDMDL
________________________________________________________________________________


	BEGINNING GENETIC ALGORITHM DOCKING 79 of 100
Run: 79 Seed: 1320338160 1008981367 [ Run 79 of 100 GA/GALS ]
Beginning LAMARCKIAN GENETIC ALGORITHM (LGA), with a maximum of 25000000 energy evaluations.

Final-Value: -13.065


	FINAL GENETIC ALGORITHM DOCKED STATE
	_______________________________________________


Detailed state:  trans -16.692 4.116 9.496 quatxyzw -0.586740 -0.041352 -0.738852 0.328821 center 0.153 0.018 -0.028 ntor 13 177.5321 -132.6834 93.6998 -43.6227 56.6749 42.0563 -36.7432 -122.5136 153.1384 -122.7873 -81.0275 -86.8710 -2.1346
State:	-16.692   4.116   9.496  -0.621 -0.044 -0.782 141.606    177.53 -132.68   93.70  -43.62   56.67   42.06  -36.74 -122.51  153.14 -122.79  -81.03  -86.87   -2.13

DOCKED: MODEL       79
DOCKED: USER    Run = 79
DOCKED: USER    DPF = D:/Protein_go_brrr/autodock/final/AncB/heme/dock.dpf
DOCKED: USER  
DOCKED: USER    Estimated Free Energy of Binding    =   -4.68 kcal/mol  [=(1)+(2)+(3)-(4)]
DOCKED: USER    Estimated Inhibition Constant, Ki   =  370.19 uM (micromolar)  [Temperature = 298.15 K]
DOCKED: USER    
DOCKED: USER    (1) Final Intermolecular Energy     =   -8.56 kcal/mol
DOCKED: USER        vdW + Hbond + desolv Energy     =   -8.36 kcal/mol
DOCKED: USER        Electrostatic Energy            =   -0.20 kcal/mol
DOCKED: USER    (2) Final Total Internal Energy     =   -4.51 kcal/mol
DOCKED: USER    (3) Torsional Free Energy           =   +3.88 kcal/mol
DOCKED: USER    (4) Unbound System's Energy  [=(2)] =   -4.51 kcal/mol
DOCKED: USER    
DOCKED: USER    
DOCKED: USER    NEWDPF move heme_opt.pdbqt
DOCKED: USER    NEWDPF about 0.153000 0.018000 -0.028000
DOCKED: USER    NEWDPF tran0 -16.691948 4.116211 9.496040
DOCKED: USER    NEWDPF quaternion0 -0.586740 -0.041352 -0.738852 0.328821
DOCKED: USER    NEWDPF axisangle0 -0.621289 -0.043787 -0.782357 141.605562
DOCKED: USER    NEWDPF quat0 -0.621289 -0.043787 -0.782357 141.605562
DOCKED: USER    NEWDPF dihe0 177.53 -132.68 93.70 -43.62 56.67 42.06 -36.74 -122.51 153.14 -122.79 -81.03 -86.87 -2.13 
DOCKED: USER  keepresnum = 1 
DOCKED: USER  
DOCKED: REMARK  13 active torsions:
DOCKED: REMARK  status: ('A' for Active; 'I' for Inactive)
DOCKED: REMARK    1  A    between atoms: O_3  and  C_38 
DOCKED: REMARK    2  A    between atoms: O_4  and  C_40 
DOCKED: REMARK    3  A    between atoms: O_7  and  C_46 
DOCKED: REMARK    4  A    between atoms: O_9  and  C_48 
DOCKED: REMARK    5  A    between atoms: C_15  and  C_20 
DOCKED: REMARK    6  A    between atoms: C_16  and  C_23 
DOCKED: REMARK    7  A    between atoms: C_20  and  C_38 
DOCKED: REMARK    8  A    between atoms: C_23  and  C_40 
DOCKED: REMARK    9  A    between atoms: C_32  and  C_41 
DOCKED: REMARK   10  A    between atoms: C_37  and  C_45 
DOCKED: REMARK   11  A    between atoms: C_41  and  C_44 
DOCKED: REMARK   12  A    between atoms: C_44  and  C_46 
DOCKED: REMARK   13  A    between atoms: C_47  and  C_48 
DOCKED: USER                              x       y       z     vdW  Elec       q    Type
DOCKED: USER                           _______ _______ _______ _____ _____    ______ ____
DOCKED: ROOT
DOCKED: ATOM      1  O   UNL d   1     -16.317  -0.411   5.738 -0.26 +0.03    -0.289 OA
DOCKED: ATOM      2  O   UNL d   1     -15.731   6.991   4.612 -0.06 -0.03    -0.289 OA
DOCKED: ATOM      3  N   UNL d   1     -16.749   1.902   8.260 +0.10 -0.02    -0.247 NA
DOCKED: ATOM      4  N   UNL d   1     -16.038   4.476   6.955 -0.09 -0.03    -0.247 NA
DOCKED: ATOM      5  N   UNL d   1     -15.937   5.667   9.570 -0.04 -0.02    -0.354 N 
DOCKED: ATOM      6  N   UNL d   1     -16.656   2.989  10.917 -0.09 +0.04    -0.354 N 
DOCKED: ATOM      7  C   UNL d   1     -16.648  -0.544   8.156 -0.22 +0.01    +0.084 A 
DOCKED: ATOM      8  C   UNL d   1     -16.321   4.616   4.532 -0.13 +0.01    +0.084 A 
DOCKED: ATOM      9  C   UNL d   1     -16.351   3.774   5.812 -0.17 +0.01    +0.058 A 
DOCKED: ATOM     10  C   UNL d   1     -16.803   0.729   8.993 -0.16 +0.01    +0.058 A 
DOCKED: ATOM     11  C   UNL d   1     -16.516   0.116   6.817 -0.20 +0.00    +0.193 A 
DOCKED: ATOM     12  C   UNL d   1     -16.619   1.598   7.010 -0.08 +0.01    +0.109 A 
DOCKED: ATOM     13  C   UNL d   1     -15.897   5.916   5.156 -0.09 +0.02    +0.193 A 
DOCKED: ATOM     14  C   UNL d   1     -15.347  -1.286   8.473 -0.26 +0.01    +0.026 C 
DOCKED: ATOM     15  C   UNL d   1     -16.609   2.457   5.809 -0.24 +0.00    +0.055 C 
DOCKED: ATOM     16  C   UNL d   1     -17.721   4.790   3.934 -0.09 +0.00    +0.026 C 
DOCKED: ATOM     17  C   UNL d   1     -15.753   5.695   6.626 -0.17 +0.01    +0.109 A 
DOCKED: ATOM     18  C   UNL d   1     -17.059   0.676  10.314 -0.25 +0.00    +0.050 C 
DOCKED: ATOM     19  C   UNL d   1     -17.300   1.795  11.151 -0.20 +0.00    +0.045 A 
DOCKED: ATOM     20  C   UNL d   1     -15.402   6.686   8.826 -0.22 +0.00    +0.045 A 
DOCKED: ATOM     21  C   UNL d   1     -15.303   6.790   7.497 -0.26 +0.00    +0.057 C 
DOCKED: ATOM     22  C   UNL d   1     -15.223   7.216  11.041 -0.29 -0.00    -0.019 A 
DOCKED: ATOM     23  C   UNL d   1     -15.874   5.896  10.919 -0.18 +0.00    +0.045 A 
DOCKED: ATOM     24  C   UNL d   1     -14.948   7.679   9.799 -0.30 -0.00    -0.022 A 
DOCKED: ATOM     25  C   UNL d   1     -16.965   3.905  11.896 -0.20 -0.00    +0.049 A 
DOCKED: ATOM     26  C   UNL d   1     -18.075   1.950  12.289 -0.12 -0.00    -0.018 A 
DOCKED: ATOM     27  C   UNL d   1     -17.875   3.290  12.744 -0.14 +0.00    +0.003 A 
DOCKED: ATOM     28  C   UNL d   1     -16.300   5.159  11.956 -0.27 +0.00    +0.052 C 
DOCKED: ATOM     29  C   UNL d   1     -14.307   8.966   9.403 -0.34 +0.00    +0.046 C 
DOCKED: ATOM     30  C   UNL d   1     -18.951   0.919  12.917 -0.08 +0.00    +0.046 C 
DOCKED: ATOM     31  H   UNL d   1     -16.397   4.878   9.128 +0.01 +0.01    +0.166 HD
DOCKED: ATOM     32  H   UNL d   1     -16.014   3.138  10.147 -0.45 -0.05    +0.166 HD
DOCKED: ENDROOT
DOCKED: BRANCH   7  33
DOCKED: ATOM     33  C   UNL d   1     -17.853  -1.491   8.172 -0.13 +0.03    +0.141 C 
DOCKED: BRANCH  33  34
DOCKED: ATOM     34  C   UNL d   1     -17.490  -2.897   7.778 -0.16 +0.10    +0.306 C 
DOCKED: ATOM     35  O   UNL d   1     -17.479  -3.871   8.511 -0.74 -0.24    -0.251 OA
DOCKED: BRANCH  34  36
DOCKED: ATOM     36  O   UNL d   1     -17.162  -3.003   6.478 -0.10 -0.04    -0.481 OA
DOCKED: ATOM     37  H   UNL d   1     -17.332  -2.110   6.107 +0.14 +0.00    +0.295 HD
DOCKED: ENDBRANCH  34  36
DOCKED: ENDBRANCH  33  34
DOCKED: ENDBRANCH   7  33
DOCKED: BRANCH  27  38
DOCKED: ATOM     38  C   UNL d   1     -18.480   3.866  13.907 -0.11 +0.00    +0.017 C 
DOCKED: ATOM     39  C   UNL d   1     -17.826   4.527  14.874 -0.14 +0.00    +0.092 C 
DOCKED: BRANCH  39  40
DOCKED: ATOM     40  C   UNL d   1     -18.567   5.086  16.007 -0.06 +0.00    +0.330 C 
DOCKED: ATOM     41  O   UNL d   1     -19.497   4.582  16.609 -0.03 +0.00    -0.246 OA
DOCKED: BRANCH  40  42
DOCKED: ATOM     42  O   UNL d   1     -18.071   6.288  16.336 -0.04 -0.02    -0.477 OA
DOCKED: ATOM     43  H   UNL d   1     -17.995   6.754  15.478 +0.03 +0.02    +0.295 HD
DOCKED: ENDBRANCH  40  42
DOCKED: ENDBRANCH  39  40
DOCKED: ENDBRANCH  27  38
DOCKED: BRANCH   8  44
DOCKED: ATOM     44  C   UNL d   1     -15.316   4.164   3.468 -0.30 +0.03    +0.141 C 
DOCKED: BRANCH  44  45
DOCKED: ATOM     45  C   UNL d   1     -15.199   5.125   2.315 -0.17 +0.09    +0.306 C 
DOCKED: ATOM     46  O   UNL d   1     -15.952   5.209   1.360 -0.12 -0.13    -0.251 OA
DOCKED: BRANCH  45  47
DOCKED: ATOM     47  O   UNL d   1     -14.116   5.917   2.412 -0.13 -0.12    -0.481 OA
DOCKED: ATOM     48  H   UNL d   1     -14.415   6.681   2.950 +0.12 +0.05    +0.295 HD
DOCKED: ENDBRANCH  45  47
DOCKED: ENDBRANCH  44  45
DOCKED: ENDBRANCH   8  44
DOCKED: BRANCH  22  49
DOCKED: ATOM     49  C   UNL d   1     -14.920   7.888  12.348 -0.17 -0.00    +0.048 C 
DOCKED: BRANCH  49  50
DOCKED: ATOM     50  C   UNL d   1     -16.115   8.687  12.867 -0.08 +0.01    +0.125 C 
DOCKED: BRANCH  50  51
DOCKED: ATOM     51  C   UNL d   1     -16.859   7.916  13.920 -0.05 +0.03    +0.305 C 
DOCKED: ATOM     52  O   UNL d   1     -18.054   7.685  13.966 -0.02 -0.02    -0.251 OA
DOCKED: BRANCH  51  53
DOCKED: ATOM     53  O   UNL d   1     -16.039   7.473  14.894 -0.57 -0.11    -0.481 OA
DOCKED: ATOM     54  H   UNL d   1     -16.527   7.666  15.722 +0.03 +0.07    +0.295 HD
DOCKED: ENDBRANCH  51  53
DOCKED: ENDBRANCH  50  51
DOCKED: ENDBRANCH  49  50
DOCKED: ENDBRANCH  22  49
DOCKED: TORSDOF 13
DOCKED: TER
DOCKED: ENDMDL
________________________________________________________________________________


	BEGINNING GENETIC ALGORITHM DOCKING 80 of 100
Run: 80 Seed: 44278496 434111637 [ Run 80 of 100 GA/GALS ]
Beginning LAMARCKIAN GENETIC ALGORITHM (LGA), with a maximum of 25000000 energy evaluations.

Final-Value: -9.801


	FINAL GENETIC ALGORITHM DOCKED STATE
	_______________________________________________


Detailed state:  trans -9.260 -0.285 -10.529 quatxyzw -0.287423 -0.905381 -0.311018 -0.030675 center 0.153 0.018 -0.028 ntor 13 142.2805 89.7956 -167.2733 -107.2916 -138.7595 17.1894 146.6144 -47.8071 15.7424 2.7506 138.1928 66.3848 -167.9794
State:	 -9.260  -0.285 -10.529  -0.288 -0.906 -0.311 -176.484    142.28   89.80 -167.27 -107.29 -138.76   17.19  146.61  -47.81   15.74    2.75  138.19   66.38 -167.98

DOCKED: MODEL       80
DOCKED: USER    Run = 80
DOCKED: USER    DPF = D:/Protein_go_brrr/autodock/final/AncB/heme/dock.dpf
DOCKED: USER  
DOCKED: USER    Estimated Free Energy of Binding    =   -3.26 kcal/mol  [=(1)+(2)+(3)-(4)]
DOCKED: USER    Estimated Inhibition Constant, Ki   =    4.05 mM (millimolar)  [Temperature = 298.15 K]
DOCKED: USER    
DOCKED: USER    (1) Final Intermolecular Energy     =   -7.14 kcal/mol
DOCKED: USER        vdW + Hbond + desolv Energy     =   -6.51 kcal/mol
DOCKED: USER        Electrostatic Energy            =   -0.63 kcal/mol
DOCKED: USER    (2) Final Total Internal Energy     =   -2.66 kcal/mol
DOCKED: USER    (3) Torsional Free Energy           =   +3.88 kcal/mol
DOCKED: USER    (4) Unbound System's Energy  [=(2)] =   -2.66 kcal/mol
DOCKED: USER    
DOCKED: USER    
DOCKED: USER    NEWDPF move heme_opt.pdbqt
DOCKED: USER    NEWDPF about 0.153000 0.018000 -0.028000
DOCKED: USER    NEWDPF tran0 -9.260291 -0.284821 -10.529435
DOCKED: USER    NEWDPF quaternion0 -0.287423 -0.905381 -0.311018 -0.030675
DOCKED: USER    NEWDPF axisangle0 -0.287558 -0.905807 -0.311164 -176.484297
DOCKED: USER    NEWDPF quat0 -0.287558 -0.905807 -0.311164 -176.484297
DOCKED: USER    NEWDPF dihe0 142.28 89.80 -167.27 -107.29 -138.76 17.19 146.61 -47.81 15.74 2.75 138.19 66.38 -167.98 
DOCKED: USER  keepresnum = 1 
DOCKED: USER  
DOCKED: REMARK  13 active torsions:
DOCKED: REMARK  status: ('A' for Active; 'I' for Inactive)
DOCKED: REMARK    1  A    between atoms: O_3  and  C_38 
DOCKED: REMARK    2  A    between atoms: O_4  and  C_40 
DOCKED: REMARK    3  A    between atoms: O_7  and  C_46 
DOCKED: REMARK    4  A    between atoms: O_9  and  C_48 
DOCKED: REMARK    5  A    between atoms: C_15  and  C_20 
DOCKED: REMARK    6  A    between atoms: C_16  and  C_23 
DOCKED: REMARK    7  A    between atoms: C_20  and  C_38 
DOCKED: REMARK    8  A    between atoms: C_23  and  C_40 
DOCKED: REMARK    9  A    between atoms: C_32  and  C_41 
DOCKED: REMARK   10  A    between atoms: C_37  and  C_45 
DOCKED: REMARK   11  A    between atoms: C_41  and  C_44 
DOCKED: REMARK   12  A    between atoms: C_44  and  C_46 
DOCKED: REMARK   13  A    between atoms: C_47  and  C_48 
DOCKED: USER                              x       y       z     vdW  Elec       q    Type
DOCKED: USER                           _______ _______ _______ _____ _____    ______ ____
DOCKED: ROOT
DOCKED: ATOM      1  O   UNL d   1      -3.596  -1.638 -11.444 -0.72 -0.57    -0.289 OA
DOCKED: ATOM      2  O   UNL d   1      -9.856  -5.642 -12.525 -0.11 -0.19    -0.289 OA
DOCKED: ATOM      3  N   UNL d   1      -6.732  -0.460 -10.625 -0.05 -0.15    -0.247 NA
DOCKED: ATOM      4  N   UNL d   1      -8.548  -2.564 -11.674 -0.03 -0.13    -0.247 NA
DOCKED: ATOM      5  N   UNL d   1     -10.732  -0.728 -11.316 +0.00 -0.11    -0.354 N 
DOCKED: ATOM      6  N   UNL d   1      -8.837   1.456 -10.247 -0.00 -0.13    -0.354 N 
DOCKED: ATOM      7  C   UNL d   1      -4.476   0.498 -10.648 -0.21 +0.07    +0.084 A 
DOCKED: ATOM      8  C   UNL d   1      -7.644  -4.826 -11.869 -0.24 +0.05    +0.084 A 
DOCKED: ATOM      9  C   UNL d   1      -7.418  -3.342 -11.560 -0.16 +0.04    +0.058 A 
DOCKED: ATOM     10  C   UNL d   1      -5.974   0.675 -10.385 -0.18 +0.04    +0.058 A 
DOCKED: ATOM     11  C   UNL d   1      -4.518  -0.942 -11.062 -0.13 +0.23    +0.193 A 
DOCKED: ATOM     12  C   UNL d   1      -5.936  -1.415 -10.981 -0.14 +0.10    +0.109 A 
DOCKED: ATOM     13  C   UNL d   1      -9.104  -4.739 -12.216 -0.09 +0.11    +0.193 A 
DOCKED: ATOM     14  C   UNL d   1      -3.998   1.340 -11.834 -0.12 +0.03    +0.026 C 
DOCKED: ATOM     15  C   UNL d   1      -6.211  -2.840 -11.257 -0.08 +0.05    +0.055 C 
DOCKED: ATOM     16  C   UNL d   1      -7.485  -5.697 -10.619 -0.32 +0.01    +0.026 C 
DOCKED: ATOM     17  C   UNL d   1      -9.528  -3.314 -12.065 -0.04 +0.05    +0.109 A 
DOCKED: ATOM     18  C   UNL d   1      -6.469   1.819  -9.877 -0.25 +0.03    +0.050 C 
DOCKED: ATOM     19  C   UNL d   1      -7.824   2.044  -9.523 -0.18 +0.02    +0.045 A 
DOCKED: ATOM     20  C   UNL d   1     -11.367  -1.715 -12.024 -0.00 +0.02    +0.045 A 
DOCKED: ATOM     21  C   UNL d   1     -10.908  -2.918 -12.382 -0.02 +0.02    +0.057 C 
DOCKED: ATOM     22  C   UNL d   1     -12.787   0.060 -11.794 -0.00 -0.00    -0.019 A 
DOCKED: ATOM     23  C   UNL d   1     -11.509   0.383 -11.127 -0.00 +0.01    +0.045 A 
DOCKED: ATOM     24  C   UNL d   1     -12.697  -1.184 -12.321 +0.00 -0.01    -0.022 A 
DOCKED: ATOM     25  C   UNL d   1     -10.064   1.880  -9.791 -0.04 +0.01    +0.049 A 
DOCKED: ATOM     26  C   UNL d   1      -8.407   2.840  -8.550 -0.26 -0.00    -0.018 A 
DOCKED: ATOM     27  C   UNL d   1      -9.822   2.717  -8.711 -0.12 +0.00    +0.003 A 
DOCKED: ATOM     28  C   UNL d   1     -11.258   1.532 -10.481 -0.02 +0.01    +0.052 C 
DOCKED: ATOM     29  C   UNL d   1     -13.727  -1.953 -13.075 +0.00 +0.01    +0.046 C 
DOCKED: ATOM     30  C   UNL d   1      -7.697   3.663  -7.530 -0.25 +0.01    +0.046 C 
DOCKED: ATOM     31  H   UNL d   1      -9.810  -0.876 -10.919 +0.02 +0.06    +0.166 HD
DOCKED: ATOM     32  H   UNL d   1      -8.679   0.834 -11.030 +0.03 +0.07    +0.166 HD
DOCKED: ENDROOT
DOCKED: BRANCH   7  33
DOCKED: ATOM     33  C   UNL d   1      -3.568   0.681  -9.427 -0.31 +0.08    +0.141 C 
DOCKED: BRANCH  33  34
DOCKED: ATOM     34  C   UNL d   1      -3.822  -0.347  -8.358 -0.25 +0.13    +0.306 C 
DOCKED: ATOM     35  O   UNL d   1      -4.678  -0.290  -7.491 -0.31 -0.07    -0.251 OA
DOCKED: BRANCH  34  36
DOCKED: ATOM     36  O   UNL d   1      -2.985  -1.397  -8.439 -0.10 -0.23    -0.481 OA
DOCKED: ATOM     37  H   UNL d   1      -2.907  -1.576  -9.401 +0.16 +0.19    +0.295 HD
DOCKED: ENDBRANCH  34  36
DOCKED: ENDBRANCH  33  34
DOCKED: ENDBRANCH   7  33
DOCKED: BRANCH  27  38
DOCKED: ATOM     38  C   UNL d   1     -10.805   3.390  -7.916 -0.14 +0.00    +0.017 C 
DOCKED: ATOM     39  C   UNL d   1     -11.163   3.043  -6.670 -0.21 +0.00    +0.092 C 
DOCKED: BRANCH  39  40
DOCKED: ATOM     40  C   UNL d   1     -12.173   3.828  -5.956 -0.12 -0.02    +0.330 C 
DOCKED: ATOM     41  O   UNL d   1     -12.948   4.641  -6.421 -0.06 -0.02    -0.246 OA
DOCKED: BRANCH  40  42
DOCKED: ATOM     42  O   UNL d   1     -12.154   3.524  -4.649 -0.15 +0.15    -0.477 OA
DOCKED: ATOM     43  H   UNL d   1     -12.794   2.788  -4.569 -0.42 -0.40    +0.295 HD
DOCKED: ENDBRANCH  40  42
DOCKED: ENDBRANCH  39  40
DOCKED: ENDBRANCH  27  38
DOCKED: BRANCH   8  44
DOCKED: ATOM     44  C   UNL d   1      -6.834  -5.387 -13.043 -0.26 +0.11    +0.141 C 
DOCKED: BRANCH  44  45
DOCKED: ATOM     45  C   UNL d   1      -6.874  -4.510 -14.266 -0.10 +0.31    +0.306 C 
DOCKED: ATOM     46  O   UNL d   1      -5.996  -3.756 -14.649 -0.59 -0.44    -0.251 OA
DOCKED: BRANCH  45  47
DOCKED: ATOM     47  O   UNL d   1      -8.038  -4.609 -14.932 +0.01 -0.34    -0.481 OA
DOCKED: ATOM     48  H   UNL d   1      -8.632  -5.095 -14.322 +0.06 +0.19    +0.295 HD
DOCKED: ENDBRANCH  45  47
DOCKED: ENDBRANCH  44  45
DOCKED: ENDBRANCH   8  44
DOCKED: BRANCH  22  49
DOCKED: ATOM     49  C   UNL d   1     -13.959   0.994 -11.865 -0.00 +0.01    +0.048 C 
DOCKED: BRANCH  49  50
DOCKED: ATOM     50  C   UNL d   1     -14.163   1.544 -13.276 +0.00 +0.03    +0.125 C 
DOCKED: BRANCH  50  51
DOCKED: ATOM     51  C   UNL d   1     -12.847   1.890 -13.912 +0.00 +0.08    +0.305 C 
DOCKED: ATOM     52  O   UNL d   1     -11.974   2.616 -13.468 +0.00 -0.07    -0.251 OA
DOCKED: BRANCH  51  53
DOCKED: ATOM     53  O   UNL d   1     -12.696   1.297 -15.113 +0.00 -0.13    -0.481 OA
DOCKED: ATOM     54  H   UNL d   1     -13.312   1.785 -15.699 +0.00 +0.07    +0.295 HD
DOCKED: ENDBRANCH  51  53
DOCKED: ENDBRANCH  50  51
DOCKED: ENDBRANCH  49  50
DOCKED: ENDBRANCH  22  49
DOCKED: TORSDOF 13
DOCKED: TER
DOCKED: ENDMDL
________________________________________________________________________________


	BEGINNING GENETIC ALGORITHM DOCKING 81 of 100
Run: 81 Seed: 828160000 1624479408 [ Run 81 of 100 GA/GALS ]
Beginning LAMARCKIAN GENETIC ALGORITHM (LGA), with a maximum of 25000000 energy evaluations.

Final-Value: -12.245


	FINAL GENETIC ALGORITHM DOCKED STATE
	_______________________________________________


Detailed state:  trans 5.849 4.235 15.250 quatxyzw 0.578686 0.676687 -0.365563 0.271256 center 0.153 0.018 -0.028 ntor 13 160.7999 -123.1657 -143.9664 -21.4565 -144.9112 -15.5300 129.0917 180.0000 12.3512 -14.2600 -62.2899 -48.2508 -7.2096
State:	  5.849   4.235  15.250   0.601  0.703 -0.380 148.522    160.80 -123.17 -143.97  -21.46 -144.91  -15.53  129.09  180.00   12.35  -14.26  -62.29  -48.25   -7.21

DOCKED: MODEL       81
DOCKED: USER    Run = 81
DOCKED: USER    DPF = D:/Protein_go_brrr/autodock/final/AncB/heme/dock.dpf
DOCKED: USER  
DOCKED: USER    Estimated Free Energy of Binding    =   -3.68 kcal/mol  [=(1)+(2)+(3)-(4)]
DOCKED: USER    Estimated Inhibition Constant, Ki   =    2.01 mM (millimolar)  [Temperature = 298.15 K]
DOCKED: USER    
DOCKED: USER    (1) Final Intermolecular Energy     =   -7.56 kcal/mol
DOCKED: USER        vdW + Hbond + desolv Energy     =   -7.49 kcal/mol
DOCKED: USER        Electrostatic Energy            =   -0.06 kcal/mol
DOCKED: USER    (2) Final Total Internal Energy     =   -4.69 kcal/mol
DOCKED: USER    (3) Torsional Free Energy           =   +3.88 kcal/mol
DOCKED: USER    (4) Unbound System's Energy  [=(2)] =   -4.69 kcal/mol
DOCKED: USER    
DOCKED: USER    
DOCKED: USER    NEWDPF move heme_opt.pdbqt
DOCKED: USER    NEWDPF about 0.153000 0.018000 -0.028000
DOCKED: USER    NEWDPF tran0 5.849477 4.234833 15.249885
DOCKED: USER    NEWDPF quaternion0 0.578686 0.676687 -0.365563 0.271256
DOCKED: USER    NEWDPF axisangle0 0.601228 0.703047 -0.379803 148.521918
DOCKED: USER    NEWDPF quat0 0.601228 0.703047 -0.379803 148.521918
DOCKED: USER    NEWDPF dihe0 160.80 -123.17 -143.97 -21.46 -144.91 -15.53 129.09 180.00 12.35 -14.26 -62.29 -48.25 -7.21 
DOCKED: USER  keepresnum = 1 
DOCKED: USER  
DOCKED: REMARK  13 active torsions:
DOCKED: REMARK  status: ('A' for Active; 'I' for Inactive)
DOCKED: REMARK    1  A    between atoms: O_3  and  C_38 
DOCKED: REMARK    2  A    between atoms: O_4  and  C_40 
DOCKED: REMARK    3  A    between atoms: O_7  and  C_46 
DOCKED: REMARK    4  A    between atoms: O_9  and  C_48 
DOCKED: REMARK    5  A    between atoms: C_15  and  C_20 
DOCKED: REMARK    6  A    between atoms: C_16  and  C_23 
DOCKED: REMARK    7  A    between atoms: C_20  and  C_38 
DOCKED: REMARK    8  A    between atoms: C_23  and  C_40 
DOCKED: REMARK    9  A    between atoms: C_32  and  C_41 
DOCKED: REMARK   10  A    between atoms: C_37  and  C_45 
DOCKED: REMARK   11  A    between atoms: C_41  and  C_44 
DOCKED: REMARK   12  A    between atoms: C_44  and  C_46 
DOCKED: REMARK   13  A    between atoms: C_47  and  C_48 
DOCKED: USER                              x       y       z     vdW  Elec       q    Type
DOCKED: USER                           _______ _______ _______ _____ _____    ______ ____
DOCKED: ROOT
DOCKED: ATOM      1  O   UNL d   1       7.353  -1.283  13.819 -0.10 -0.01    -0.289 OA
DOCKED: ATOM      2  O   UNL d   1       4.749   1.607  20.242 -0.07 +0.02    -0.289 OA
DOCKED: ATOM      3  N   UNL d   1       6.730   2.084  14.235 -0.31 -0.00    -0.247 NA
DOCKED: ATOM      4  N   UNL d   1       5.470   2.218  16.923 -0.37 +0.01    -0.247 NA
DOCKED: ATOM      5  N   UNL d   1       4.665   4.909  16.309 +0.06 +0.13    -0.354 N 
DOCKED: ATOM      6  N   UNL d   1       5.958   4.754  13.515 -0.11 +0.04    -0.354 N 
DOCKED: ATOM      7  C   UNL d   1       7.377   0.666  12.344 -0.12 -0.00    +0.084 A 
DOCKED: ATOM      8  C   UNL d   1       6.024   0.442  18.508 -0.05 -0.00    +0.084 A 
DOCKED: ATOM      9  C   UNL d   1       6.129   1.021  17.093 -0.07 +0.00    +0.058 A 
DOCKED: ATOM     10  C   UNL d   1       7.031   2.056  12.884 -0.17 -0.00    +0.058 A 
DOCKED: ATOM     11  C   UNL d   1       7.237  -0.085  13.633 -0.09 +0.00    +0.193 A 
DOCKED: ATOM     12  C   UNL d   1       6.868   0.888  14.709 +0.06 +0.01    +0.109 A 
DOCKED: ATOM     13  C   UNL d   1       5.152   1.513  19.099 -0.07 -0.01    +0.193 A 
DOCKED: ATOM     14  C   UNL d   1       6.325   0.154  11.356 -0.27 -0.00    +0.026 C 
DOCKED: ATOM     15  C   UNL d   1       6.765   0.388  16.095 -0.08 +0.00    +0.055 C 
DOCKED: ATOM     16  C   UNL d   1       7.376   0.454  19.228 -0.01 -0.00    +0.026 C 
DOCKED: ATOM     17  C   UNL d   1       4.882   2.526  18.034 -0.15 -0.01    +0.109 A 
DOCKED: ATOM     18  C   UNL d   1       7.109   3.152  12.106 -0.23 -0.00    +0.050 C 
DOCKED: ATOM     19  C   UNL d   1       6.890   4.485  12.539 -0.21 -0.00    +0.045 A 
DOCKED: ATOM     20  C   UNL d   1       3.957   4.709  17.466 -0.24 -0.01    +0.045 A 
DOCKED: ATOM     21  C   UNL d   1       4.012   3.678  18.315 -0.28 -0.01    +0.057 C 
DOCKED: ATOM     22  C   UNL d   1       3.329   6.706  16.551 -0.33 +0.01    -0.019 A 
DOCKED: ATOM     23  C   UNL d   1       4.353   6.088  15.686 -0.25 -0.01    +0.045 A 
DOCKED: ATOM     24  C   UNL d   1       3.100   5.886  17.604 -0.34 +0.01    -0.022 A 
DOCKED: ATOM     25  C   UNL d   1       5.844   6.111  13.714 -0.17 -0.00    +0.049 A 
DOCKED: ATOM     26  C   UNL d   1       7.422   5.694  12.119 -0.21 -0.00    -0.018 A 
DOCKED: ATOM     27  C   UNL d   1       6.772   6.716  12.878 -0.20 -0.00    +0.003 A 
DOCKED: ATOM     28  C   UNL d   1       4.834   6.641  14.562 -0.19 -0.01    +0.052 C 
DOCKED: ATOM     29  C   UNL d   1       2.165   6.077  18.750 -0.34 -0.01    +0.046 C 
DOCKED: ATOM     30  C   UNL d   1       8.471   5.892  11.077 -0.09 +0.01    +0.046 C 
DOCKED: ATOM     31  H   UNL d   1       5.394   4.265  16.021 -0.18 -0.05    +0.166 HD
DOCKED: ATOM     32  H   UNL d   1       5.412   4.039  13.981 -0.18 -0.05    +0.166 HD
DOCKED: ENDROOT
DOCKED: BRANCH   7  33
DOCKED: ATOM     33  C   UNL d   1       8.795   0.513  11.783 -0.04 -0.01    +0.141 C 
DOCKED: BRANCH  33  34
DOCKED: ATOM     34  C   UNL d   1       9.858   0.796  12.811 +0.01 -0.00    +0.306 C 
DOCKED: ATOM     35  O   UNL d   1      10.374   1.877  13.034 -0.00 -0.00    -0.251 OA
DOCKED: BRANCH  34  36
DOCKED: ATOM     36  O   UNL d   1      10.211  -0.300  13.505 +0.01 +0.00    -0.481 OA
DOCKED: ATOM     37  H   UNL d   1       9.450  -0.910  13.408 +0.02 -0.01    +0.295 HD
DOCKED: ENDBRANCH  34  36
DOCKED: ENDBRANCH  33  34
DOCKED: ENDBRANCH   7  33
DOCKED: BRANCH  27  38
DOCKED: ATOM     38  C   UNL d   1       7.015   8.121  12.749 -0.22 +0.00    +0.017 C 
DOCKED: ATOM     39  C   UNL d   1       6.263   9.090  13.293 -0.21 -0.00    +0.092 C 
DOCKED: BRANCH  39  40
DOCKED: ATOM     40  C   UNL d   1       6.631  10.495  13.099 -0.13 -0.01    +0.330 C 
DOCKED: ATOM     41  O   UNL d   1       7.705  10.940  12.742 -0.07 -0.00    -0.246 OA
DOCKED: BRANCH  40  42
DOCKED: ATOM     42  O   UNL d   1       5.581  11.288  13.366 -0.13 +0.06    -0.477 OA
DOCKED: ATOM     43  H   UNL d   1       5.337  11.052  14.285 +0.11 -0.04    +0.295 HD
DOCKED: ENDBRANCH  40  42
DOCKED: ENDBRANCH  39  40
DOCKED: ENDBRANCH  27  38
DOCKED: BRANCH   8  44
DOCKED: ATOM     44  C   UNL d   1       5.353  -0.931  18.611 -0.04 -0.00    +0.141 C 
DOCKED: BRANCH  44  45
DOCKED: ATOM     45  C   UNL d   1       3.907  -0.919  18.192 -0.09 -0.02    +0.306 C 
DOCKED: ATOM     46  O   UNL d   1       3.479  -1.028  17.056 -0.19 +0.02    -0.251 OA
DOCKED: BRANCH  45  47
DOCKED: ATOM     47  O   UNL d   1       3.071  -0.742  19.231 -0.03 +0.04    -0.481 OA
DOCKED: ATOM     48  H   UNL d   1       3.549  -0.133  19.833 +0.07 -0.02    +0.295 HD
DOCKED: ENDBRANCH  45  47
DOCKED: ENDBRANCH  44  45
DOCKED: ENDBRANCH   8  44
DOCKED: BRANCH  22  49
DOCKED: ATOM     49  C   UNL d   1       2.665   8.021  16.264 -0.30 -0.02    +0.048 C 
DOCKED: BRANCH  49  50
DOCKED: ATOM     50  C   UNL d   1       3.422   9.190  16.894 -0.27 -0.04    +0.125 C 
DOCKED: BRANCH  50  51
DOCKED: ATOM     51  C   UNL d   1       3.909  10.144  15.841 -0.13 -0.07    +0.305 C 
DOCKED: ATOM     52  O   UNL d   1       4.450  11.222  16.008 -0.18 +0.03    -0.251 OA
DOCKED: BRANCH  51  53
DOCKED: ATOM     53  O   UNL d   1       3.673   9.684  14.596 -0.16 +0.13    -0.481 OA
DOCKED: ATOM     54  H   UNL d   1       3.686  10.490  14.038 -0.18 -0.14    +0.295 HD
DOCKED: ENDBRANCH  51  53
DOCKED: ENDBRANCH  50  51
DOCKED: ENDBRANCH  49  50
DOCKED: ENDBRANCH  22  49
DOCKED: TORSDOF 13
DOCKED: TER
DOCKED: ENDMDL
________________________________________________________________________________


	BEGINNING GENETIC ALGORITHM DOCKING 82 of 100
Run: 82 Seed: 1631932590 247146312 [ Run 82 of 100 GA/GALS ]
Beginning LAMARCKIAN GENETIC ALGORITHM (LGA), with a maximum of 25000000 energy evaluations.

Final-Value: -11.482


	FINAL GENETIC ALGORITHM DOCKED STATE
	_______________________________________________


Detailed state:  trans 4.758 -5.770 -18.023 quatxyzw 0.280982 0.205441 -0.833450 -0.429191 center 0.153 0.018 -0.028 ntor 13 94.2756 154.7115 134.9956 15.7480 -133.4765 -3.5125 -55.4522 49.5901 33.4987 -150.8448 -69.4081 -35.6429 -9.2814
State:	  4.758  -5.770 -18.023   0.311  0.227 -0.923 -129.168     94.28  154.71  135.00   15.75 -133.48   -3.51  -55.45   49.59   33.50 -150.84  -69.41  -35.64   -9.28

DOCKED: MODEL       82
DOCKED: USER    Run = 82
DOCKED: USER    DPF = D:/Protein_go_brrr/autodock/final/AncB/heme/dock.dpf
DOCKED: USER  
DOCKED: USER    Estimated Free Energy of Binding    =   -3.09 kcal/mol  [=(1)+(2)+(3)-(4)]
DOCKED: USER    Estimated Inhibition Constant, Ki   =    5.43 mM (millimolar)  [Temperature = 298.15 K]
DOCKED: USER    
DOCKED: USER    (1) Final Intermolecular Energy     =   -6.97 kcal/mol
DOCKED: USER        vdW + Hbond + desolv Energy     =   -6.92 kcal/mol
DOCKED: USER        Electrostatic Energy            =   -0.05 kcal/mol
DOCKED: USER    (2) Final Total Internal Energy     =   -4.51 kcal/mol
DOCKED: USER    (3) Torsional Free Energy           =   +3.88 kcal/mol
DOCKED: USER    (4) Unbound System's Energy  [=(2)] =   -4.51 kcal/mol
DOCKED: USER    
DOCKED: USER    
DOCKED: USER    NEWDPF move heme_opt.pdbqt
DOCKED: USER    NEWDPF about 0.153000 0.018000 -0.028000
DOCKED: USER    NEWDPF tran0 4.757636 -5.769655 -18.023467
DOCKED: USER    NEWDPF quaternion0 0.280982 0.205441 -0.833450 -0.429191
DOCKED: USER    NEWDPF axisangle0 0.311091 0.227456 -0.922760 -129.167512
DOCKED: USER    NEWDPF quat0 0.311091 0.227456 -0.922760 -129.167512
DOCKED: USER    NEWDPF dihe0 94.28 154.71 135.00 15.75 -133.48 -3.51 -55.45 49.59 33.50 -150.84 -69.41 -35.64 -9.28 
DOCKED: USER  keepresnum = 1 
DOCKED: USER  
DOCKED: REMARK  13 active torsions:
DOCKED: REMARK  status: ('A' for Active; 'I' for Inactive)
DOCKED: REMARK    1  A    between atoms: O_3  and  C_38 
DOCKED: REMARK    2  A    between atoms: O_4  and  C_40 
DOCKED: REMARK    3  A    between atoms: O_7  and  C_46 
DOCKED: REMARK    4  A    between atoms: O_9  and  C_48 
DOCKED: REMARK    5  A    between atoms: C_15  and  C_20 
DOCKED: REMARK    6  A    between atoms: C_16  and  C_23 
DOCKED: REMARK    7  A    between atoms: C_20  and  C_38 
DOCKED: REMARK    8  A    between atoms: C_23  and  C_40 
DOCKED: REMARK    9  A    between atoms: C_32  and  C_41 
DOCKED: REMARK   10  A    between atoms: C_37  and  C_45 
DOCKED: REMARK   11  A    between atoms: C_41  and  C_44 
DOCKED: REMARK   12  A    between atoms: C_44  and  C_46 
DOCKED: REMARK   13  A    between atoms: C_47  and  C_48 
DOCKED: USER                              x       y       z     vdW  Elec       q    Type
DOCKED: USER                           _______ _______ _______ _____ _____    ______ ____
DOCKED: ROOT
DOCKED: ATOM      1  O   UNL d   1       8.630  -3.706 -14.086 -0.11 -0.05    -0.289 OA
DOCKED: ATOM      2  O   UNL d   1       2.451  -0.602 -17.016 -0.03 -0.12    -0.289 OA
DOCKED: ATOM      3  N   UNL d   1       6.721  -5.264 -16.499 -0.11 -0.02    -0.247 NA
DOCKED: ATOM      4  N   UNL d   1       4.385  -3.452 -16.798 -0.09 -0.05    -0.247 NA
DOCKED: ATOM      5  N   UNL d   1       3.061  -5.550 -18.252 -0.10 -0.04    -0.354 N 
DOCKED: ATOM      6  N   UNL d   1       5.481  -7.430 -17.920 -0.09 +0.03    -0.354 N 
DOCKED: ATOM      7  C   UNL d   1       8.648  -5.915 -15.132 -0.23 +0.01    +0.084 A 
DOCKED: ATOM      8  C   UNL d   1       4.717  -1.098 -16.235 -0.16 +0.02    +0.084 A 
DOCKED: ATOM      9  C   UNL d   1       5.265  -2.528 -16.280 -0.17 +0.01    +0.058 A 
DOCKED: ATOM     10  C   UNL d   1       7.613  -6.280 -16.200 -0.22 +0.00    +0.058 A 
DOCKED: ATOM     11  C   UNL d   1       8.194  -4.506 -14.893 -0.25 +0.02    +0.193 A 
DOCKED: ATOM     12  C   UNL d   1       7.036  -4.223 -15.800 -0.21 +0.01    +0.109 A 
DOCKED: ATOM     13  C   UNL d   1       3.351  -1.387 -16.788 -0.05 +0.06    +0.193 A 
DOCKED: ATOM     14  C   UNL d   1       8.455  -6.722 -13.845 -0.36 +0.00    +0.026 C 
DOCKED: ATOM     15  C   UNL d   1       6.477  -2.857 -15.807 -0.27 +0.01    +0.055 C 
DOCKED: ATOM     16  C   UNL d   1       5.457  -0.176 -17.209 -0.22 +0.01    +0.026 C 
DOCKED: ATOM     17  C   UNL d   1       3.274  -2.851 -17.082 -0.06 +0.03    +0.109 A 
DOCKED: ATOM     18  C   UNL d   1       7.651  -7.464 -16.840 -0.23 +0.00    +0.050 C 
DOCKED: ATOM     19  C   UNL d   1       6.790  -7.855 -17.897 -0.17 +0.00    +0.045 A 
DOCKED: ATOM     20  C   UNL d   1       2.015  -4.678 -18.092 -0.18 +0.01    +0.045 A 
DOCKED: ATOM     21  C   UNL d   1       2.028  -3.436 -17.597 -0.09 +0.02    +0.057 C 
DOCKED: ATOM     22  C   UNL d   1       1.226  -6.618 -19.004 -0.22 -0.01    -0.019 A 
DOCKED: ATOM     23  C   UNL d   1       2.682  -6.748 -18.796 -0.06 +0.00    +0.045 A 
DOCKED: ATOM     24  C   UNL d   1       0.838  -5.389 -18.587 -0.21 -0.01    -0.022 A 
DOCKED: ATOM     25  C   UNL d   1       4.807  -7.998 -18.977 -0.15 -0.00    +0.049 A 
DOCKED: ATOM     26  C   UNL d   1       6.981  -8.692 -18.986 -0.12 -0.00    -0.018 A 
DOCKED: ATOM     27  C   UNL d   1       5.732  -8.762 -19.675 -0.13 +0.00    +0.003 A 
DOCKED: ATOM     28  C   UNL d   1       3.403  -7.833 -19.119 -0.12 +0.00    +0.052 C 
DOCKED: ATOM     29  C   UNL d   1      -0.526  -4.786 -18.604 -0.17 +0.03    +0.046 C 
DOCKED: ATOM     30  C   UNL d   1       8.247  -9.382 -19.366 -0.07 +0.00    +0.046 C 
DOCKED: ATOM     31  H   UNL d   1       4.015  -5.269 -18.052 +0.02 +0.01    +0.166 HD
DOCKED: ATOM     32  H   UNL d   1       5.079  -6.816 -17.222 -0.42 -0.04    +0.166 HD
DOCKED: ENDROOT
DOCKED: BRANCH   7  33
DOCKED: ATOM     33  C   UNL d   1      10.108  -5.938 -15.596 -0.12 +0.02    +0.141 C 
DOCKED: BRANCH  33  34
DOCKED: ATOM     34  C   UNL d   1      10.503  -4.684 -16.328 -0.07 +0.04    +0.306 C 
DOCKED: ATOM     35  O   UNL d   1      10.251  -4.419 -17.491 -0.03 -0.04    -0.251 OA
DOCKED: BRANCH  34  36
DOCKED: ATOM     36  O   UNL d   1      11.193  -3.828 -15.554 -0.05 -0.03    -0.481 OA
DOCKED: ATOM     37  H   UNL d   1      10.507  -3.277 -15.122 -0.30 -0.04    +0.295 HD
DOCKED: ENDBRANCH  34  36
DOCKED: ENDBRANCH  33  34
DOCKED: ENDBRANCH   7  33
DOCKED: BRANCH  27  38
DOCKED: ATOM     38  C   UNL d   1       5.482  -9.535 -20.854 -0.06 +0.00    +0.017 C 
DOCKED: ATOM     39  C   UNL d   1       4.315  -9.587 -21.514 -0.03 +0.01    +0.092 C 
DOCKED: BRANCH  39  40
DOCKED: ATOM     40  C   UNL d   1       4.195 -10.406 -22.723 +0.00 +0.04    +0.330 C 
DOCKED: ATOM     41  O   UNL d   1       5.077 -11.014 -23.300 -0.00 -0.03    -0.246 OA
DOCKED: BRANCH  40  42
DOCKED: ATOM     42  O   UNL d   1       2.922 -10.420 -23.146 +0.01 -0.06    -0.477 OA
DOCKED: ATOM     43  H   UNL d   1       2.402 -10.243 -22.335 +0.03 +0.04    +0.295 HD
DOCKED: ENDBRANCH  40  42
DOCKED: ENDBRANCH  39  40
DOCKED: ENDBRANCH  27  38
DOCKED: BRANCH   8  44
DOCKED: ATOM     44  C   UNL d   1       4.623  -0.470 -14.840 -0.15 +0.02    +0.141 C 
DOCKED: BRANCH  44  45
DOCKED: ATOM     45  C   UNL d   1       4.561   1.034 -14.869 -0.29 +0.08    +0.306 C 
DOCKED: ATOM     46  O   UNL d   1       5.486   1.803 -14.672 -0.50 -0.06    -0.251 OA
DOCKED: BRANCH  45  47
DOCKED: ATOM     47  O   UNL d   1       3.322   1.494 -15.117 -0.08 -0.19    -0.481 OA
DOCKED: ATOM     48  H   UNL d   1       3.002   0.950 -15.868 +0.12 +0.12    +0.295 HD
DOCKED: ENDBRANCH  45  47
DOCKED: ENDBRANCH  44  45
DOCKED: ENDBRANCH   8  44
DOCKED: BRANCH  22  49
DOCKED: ATOM     49  C   UNL d   1       0.356  -7.700 -19.573 -0.20 +0.02    +0.048 C 
DOCKED: BRANCH  49  50
DOCKED: ATOM     50  C   UNL d   1       0.203  -7.570 -21.088 -0.09 +0.05    +0.125 C 
DOCKED: BRANCH  50  51
DOCKED: ATOM     51  C   UNL d   1       0.902  -8.696 -21.796 -0.02 +0.08    +0.305 C 
DOCKED: ATOM     52  O   UNL d   1       0.891  -9.878 -21.503 -0.03 -0.06    -0.251 OA
DOCKED: BRANCH  51  53
DOCKED: ATOM     53  O   UNL d   1       1.607  -8.262 -22.860 +0.01 -0.10    -0.481 OA
DOCKED: ATOM     54  H   UNL d   1       1.796  -9.078 -23.369 +0.01 +0.05    +0.295 HD
DOCKED: ENDBRANCH  51  53
DOCKED: ENDBRANCH  50  51
DOCKED: ENDBRANCH  49  50
DOCKED: ENDBRANCH  22  49
DOCKED: TORSDOF 13
DOCKED: TER
DOCKED: ENDMDL
________________________________________________________________________________


	BEGINNING GENETIC ALGORITHM DOCKING 83 of 100
Run: 83 Seed: 222756301 204614272 [ Run 83 of 100 GA/GALS ]
Beginning LAMARCKIAN GENETIC ALGORITHM (LGA), with a maximum of 25000000 energy evaluations.

Final-Value: -12.032


	FINAL GENETIC ALGORITHM DOCKED STATE
	_______________________________________________


Detailed state:  trans -4.695 2.024 -12.551 quatxyzw -0.180350 0.756012 -0.373946 0.506047 center 0.153 0.018 -0.028 ntor 13 162.0006 150.5180 -138.9961 42.7751 -144.6048 48.4234 128.9042 -148.2858 13.0137 -11.2688 65.2334 -92.3908 126.6767
State:	 -4.695   2.024 -12.551  -0.209  0.877 -0.434 119.198    162.00  150.52 -139.00   42.78 -144.60   48.42  128.90 -148.29   13.01  -11.27   65.23  -92.39  126.68

DOCKED: MODEL       83
DOCKED: USER    Run = 83
DOCKED: USER    DPF = D:/Protein_go_brrr/autodock/final/AncB/heme/dock.dpf
DOCKED: USER  
DOCKED: USER    Estimated Free Energy of Binding    =   -3.63 kcal/mol  [=(1)+(2)+(3)-(4)]
DOCKED: USER    Estimated Inhibition Constant, Ki   =    2.17 mM (millimolar)  [Temperature = 298.15 K]
DOCKED: USER    
DOCKED: USER    (1) Final Intermolecular Energy     =   -7.51 kcal/mol
DOCKED: USER        vdW + Hbond + desolv Energy     =   -7.02 kcal/mol
DOCKED: USER        Electrostatic Energy            =   -0.49 kcal/mol
DOCKED: USER    (2) Final Total Internal Energy     =   -4.52 kcal/mol
DOCKED: USER    (3) Torsional Free Energy           =   +3.88 kcal/mol
DOCKED: USER    (4) Unbound System's Energy  [=(2)] =   -4.52 kcal/mol
DOCKED: USER    
DOCKED: USER    
DOCKED: USER    NEWDPF move heme_opt.pdbqt
DOCKED: USER    NEWDPF about 0.153000 0.018000 -0.028000
DOCKED: USER    NEWDPF tran0 -4.695104 2.024294 -12.550977
DOCKED: USER    NEWDPF quaternion0 -0.180350 0.756012 -0.373946 0.506047
DOCKED: USER    NEWDPF axisangle0 -0.209100 0.876530 -0.433558 119.198181
DOCKED: USER    NEWDPF quat0 -0.209100 0.876530 -0.433558 119.198181
DOCKED: USER    NEWDPF dihe0 162.00 150.52 -139.00 42.78 -144.60 48.42 128.90 -148.29 13.01 -11.27 65.23 -92.39 126.68 
DOCKED: USER  keepresnum = 1 
DOCKED: USER  
DOCKED: REMARK  13 active torsions:
DOCKED: REMARK  status: ('A' for Active; 'I' for Inactive)
DOCKED: REMARK    1  A    between atoms: O_3  and  C_38 
DOCKED: REMARK    2  A    between atoms: O_4  and  C_40 
DOCKED: REMARK    3  A    between atoms: O_7  and  C_46 
DOCKED: REMARK    4  A    between atoms: O_9  and  C_48 
DOCKED: REMARK    5  A    between atoms: C_15  and  C_20 
DOCKED: REMARK    6  A    between atoms: C_16  and  C_23 
DOCKED: REMARK    7  A    between atoms: C_20  and  C_38 
DOCKED: REMARK    8  A    between atoms: C_23  and  C_40 
DOCKED: REMARK    9  A    between atoms: C_32  and  C_41 
DOCKED: REMARK   10  A    between atoms: C_37  and  C_45 
DOCKED: REMARK   11  A    between atoms: C_41  and  C_44 
DOCKED: REMARK   12  A    between atoms: C_44  and  C_46 
DOCKED: REMARK   13  A    between atoms: C_47  and  C_48 
DOCKED: USER                              x       y       z     vdW  Elec       q    Type
DOCKED: USER                           _______ _______ _______ _____ _____    ______ ____
DOCKED: ROOT
DOCKED: ATOM      1  O   UNL d   1      -3.831   2.053 -18.383 +0.00 -0.20    -0.289 OA
DOCKED: ATOM      2  O   UNL d   1       0.579  -0.251 -12.758 -0.14 -0.20    -0.289 OA
DOCKED: ATOM      3  N   UNL d   1      -4.721   2.362 -15.065 -0.44 -0.48    -0.247 NA
DOCKED: ATOM      4  N   UNL d   1      -2.541   0.933 -13.637 -0.13 -0.38    -0.247 NA
DOCKED: ATOM      5  N   UNL d   1      -4.182   0.978 -11.277 -0.10 -0.35    -0.354 N 
DOCKED: ATOM      6  N   UNL d   1      -6.446   2.443 -12.771 -0.07 -0.35    -0.354 N 
DOCKED: ATOM      7  C   UNL d   1      -5.849   2.767 -17.202 -0.02 +0.07    +0.084 A 
DOCKED: ATOM      8  C   UNL d   1      -0.369   0.809 -14.750 -0.11 +0.08    +0.084 A 
DOCKED: ATOM      9  C   UNL d   1      -1.847   1.210 -14.794 -0.13 +0.08    +0.058 A 
DOCKED: ATOM     10  C   UNL d   1      -5.895   2.773 -15.672 -0.06 +0.07    +0.058 A 
DOCKED: ATOM     11  C   UNL d   1      -4.434   2.297 -17.353 -0.02 +0.18    +0.193 A 
DOCKED: ATOM     12  C   UNL d   1      -3.849   2.111 -15.987 -0.02 +0.17    +0.109 A 
DOCKED: ATOM     13  C   UNL d   1      -0.361   0.219 -13.368 -0.12 +0.18    +0.193 A 
DOCKED: ATOM     14  C   UNL d   1      -6.787   1.716 -17.801 +0.00 +0.01    +0.026 C 
DOCKED: ATOM     15  C   UNL d   1      -2.424   1.738 -15.885 -0.08 +0.07    +0.055 C 
DOCKED: ATOM     16  C   UNL d   1       0.552   2.033 -14.768 -0.20 +0.02    +0.026 C 
DOCKED: ATOM     17  C   UNL d   1      -1.739   0.349 -12.806 -0.19 +0.14    +0.109 A 
DOCKED: ATOM     18  C   UNL d   1      -6.970   3.232 -15.002 -0.08 +0.05    +0.050 C 
DOCKED: ATOM     19  C   UNL d   1      -7.071   3.354 -13.593 -0.08 +0.04    +0.045 A 
DOCKED: ATOM     20  C   UNL d   1      -3.188   0.133 -10.857 -0.26 +0.04    +0.045 A 
DOCKED: ATOM     21  C   UNL d   1      -2.045  -0.186 -11.471 -0.28 +0.06    +0.057 C 
DOCKED: ATOM     22  C   UNL d   1      -4.834   0.183  -9.273 -0.30 -0.01    -0.019 A 
DOCKED: ATOM     23  C   UNL d   1      -5.219   1.072 -10.388 -0.21 +0.03    +0.045 A 
DOCKED: ATOM     24  C   UNL d   1      -3.631  -0.369  -9.556 -0.30 -0.01    -0.022 A 
DOCKED: ATOM     25  C   UNL d   1      -6.749   2.696 -11.453 -0.12 +0.04    +0.049 A 
DOCKED: ATOM     26  C   UNL d   1      -7.767   4.242 -12.788 -0.10 -0.01    -0.018 A 
DOCKED: ATOM     27  C   UNL d   1      -7.544   3.833 -11.437 -0.14 +0.00    +0.003 A 
DOCKED: ATOM     28  C   UNL d   1      -6.348   1.797 -10.427 -0.22 +0.03    +0.052 C 
DOCKED: ATOM     29  C   UNL d   1      -2.825  -1.320  -8.738 -0.33 +0.02    +0.046 C 
DOCKED: ATOM     30  C   UNL d   1      -8.588   5.401 -13.243 -0.06 +0.02    +0.046 C 
DOCKED: ATOM     31  H   UNL d   1      -4.085   1.522 -12.128 +0.04 +0.21    +0.166 HD
DOCKED: ATOM     32  H   UNL d   1      -5.880   1.676 -13.112 +0.02 +0.18    +0.166 HD
DOCKED: ENDROOT
DOCKED: BRANCH   7  33
DOCKED: ATOM     33  C   UNL d   1      -6.036   4.133 -17.871 -0.02 +0.10    +0.141 C 
DOCKED: BRANCH  33  34
DOCKED: ATOM     34  C   UNL d   1      -4.972   5.122 -17.476 -0.03 +0.31    +0.306 C 
DOCKED: ATOM     35  O   UNL d   1      -5.020   5.894 -16.534 -0.59 -0.38    -0.251 OA
DOCKED: BRANCH  34  36
DOCKED: ATOM     36  O   UNL d   1      -3.901   5.082 -18.289 -0.01 -0.38    -0.481 OA
DOCKED: ATOM     37  H   UNL d   1      -3.950   4.202 -18.719 +0.01 +0.20    +0.295 HD
DOCKED: ENDBRANCH  34  36
DOCKED: ENDBRANCH  33  34
DOCKED: ENDBRANCH   7  33
DOCKED: BRANCH  27  38
DOCKED: ATOM     38  C   UNL d   1      -8.097   4.471 -10.280 -0.20 +0.01    +0.017 C 
DOCKED: ATOM     39  C   UNL d   1      -8.833   3.863  -9.337 -0.16 +0.03    +0.092 C 
DOCKED: BRANCH  39  40
DOCKED: ATOM     40  C   UNL d   1      -9.326   4.629  -8.189 -0.10 +0.09    +0.330 C 
DOCKED: ATOM     41  O   UNL d   1      -9.865   5.719  -8.199 -0.06 -0.07    -0.246 OA
DOCKED: BRANCH  40  42
DOCKED: ATOM     42  O   UNL d   1      -9.112   3.947  -7.053 +0.02 -0.13    -0.477 OA
DOCKED: ATOM     43  H   UNL d   1      -9.149   3.009  -7.332 +0.12 +0.06    +0.295 HD
DOCKED: ENDBRANCH  40  42
DOCKED: ENDBRANCH  39  40
DOCKED: ENDBRANCH  27  38
DOCKED: BRANCH   8  44
DOCKED: ATOM     44  C   UNL d   1       0.065  -0.227 -15.792 -0.08 +0.11    +0.141 C 
DOCKED: BRANCH  44  45
DOCKED: ATOM     45  C   UNL d   1      -0.658  -1.541 -15.661 -0.08 +0.37    +0.306 C 
DOCKED: ATOM     46  O   UNL d   1      -1.745  -1.822 -16.136 -0.41 -0.43    -0.251 OA
DOCKED: BRANCH  45  47
DOCKED: ATOM     47  O   UNL d   1       0.019  -2.428 -14.910 -0.05 -0.51    -0.481 OA
DOCKED: ATOM     48  H   UNL d   1       0.387  -1.898 -14.172 +0.11 +0.26    +0.295 HD
DOCKED: ENDBRANCH  45  47
DOCKED: ENDBRANCH  44  45
DOCKED: ENDBRANCH   8  44
DOCKED: BRANCH  22  49
DOCKED: ATOM     49  C   UNL d   1      -5.677  -0.054  -8.055 -0.35 +0.01    +0.048 C 
DOCKED: BRANCH  49  50
DOCKED: ATOM     50  C   UNL d   1      -7.151  -0.248  -8.412 -0.23 +0.04    +0.125 C 
DOCKED: BRANCH  50  51
DOCKED: ATOM     51  C   UNL d   1      -7.986   0.880  -7.873 -0.18 +0.07    +0.305 C 
DOCKED: ATOM     52  O   UNL d   1      -9.171   0.858  -7.591 -0.20 -0.05    -0.251 OA
DOCKED: BRANCH  51  53
DOCKED: ATOM     53  O   UNL d   1      -7.269   2.012  -7.725 -0.12 -0.05    -0.481 OA
DOCKED: ATOM     54  H   UNL d   1      -7.563   2.368  -6.860 -0.18 +0.01    +0.295 HD
DOCKED: ENDBRANCH  51  53
DOCKED: ENDBRANCH  50  51
DOCKED: ENDBRANCH  49  50
DOCKED: ENDBRANCH  22  49
DOCKED: TORSDOF 13
DOCKED: TER
DOCKED: ENDMDL
________________________________________________________________________________


	BEGINNING GENETIC ALGORITHM DOCKING 84 of 100
Run: 84 Seed: 1256149225 926195703 [ Run 84 of 100 GA/GALS ]
Beginning LAMARCKIAN GENETIC ALGORITHM (LGA), with a maximum of 25000000 energy evaluations.

Final-Value: -9.867


	FINAL GENETIC ALGORITHM DOCKED STATE
	_______________________________________________


Detailed state:  trans -12.091 -0.068 -7.375 quatxyzw -0.726206 -0.685167 0.052363 -0.020718 center 0.153 0.018 -0.028 ntor 13 131.2245 -80.7041 115.4381 115.1722 -138.8711 -157.2364 -45.5137 114.6904 12.3899 -133.8809 63.4775 -159.4586 144.1718
State:	-12.091  -0.068  -7.375  -0.726 -0.685  0.052 -177.626    131.22  -80.70  115.44  115.17 -138.87 -157.24  -45.51  114.69   12.39 -133.88   63.48 -159.46  144.17

DOCKED: MODEL       84
DOCKED: USER    Run = 84
DOCKED: USER    DPF = D:/Protein_go_brrr/autodock/final/AncB/heme/dock.dpf
DOCKED: USER  
DOCKED: USER    Estimated Free Energy of Binding    =   -3.38 kcal/mol  [=(1)+(2)+(3)-(4)]
DOCKED: USER    Estimated Inhibition Constant, Ki   =    3.35 mM (millimolar)  [Temperature = 298.15 K]
DOCKED: USER    
DOCKED: USER    (1) Final Intermolecular Energy     =   -7.25 kcal/mol
DOCKED: USER        vdW + Hbond + desolv Energy     =   -7.10 kcal/mol
DOCKED: USER        Electrostatic Energy            =   -0.15 kcal/mol
DOCKED: USER    (2) Final Total Internal Energy     =   -2.61 kcal/mol
DOCKED: USER    (3) Torsional Free Energy           =   +3.88 kcal/mol
DOCKED: USER    (4) Unbound System's Energy  [=(2)] =   -2.61 kcal/mol
DOCKED: USER    
DOCKED: USER    
DOCKED: USER    NEWDPF move heme_opt.pdbqt
DOCKED: USER    NEWDPF about 0.153000 0.018000 -0.028000
DOCKED: USER    NEWDPF tran0 -12.091306 -0.067552 -7.375488
DOCKED: USER    NEWDPF quaternion0 -0.726206 -0.685167 0.052363 -0.020718
DOCKED: USER    NEWDPF axisangle0 -0.726362 -0.685314 0.052374 -177.625666
DOCKED: USER    NEWDPF quat0 -0.726362 -0.685314 0.052374 -177.625666
DOCKED: USER    NEWDPF dihe0 131.22 -80.70 115.44 115.17 -138.87 -157.24 -45.51 114.69 12.39 -133.88 63.48 -159.46 144.17 
DOCKED: USER  keepresnum = 1 
DOCKED: USER  
DOCKED: REMARK  13 active torsions:
DOCKED: REMARK  status: ('A' for Active; 'I' for Inactive)
DOCKED: REMARK    1  A    between atoms: O_3  and  C_38 
DOCKED: REMARK    2  A    between atoms: O_4  and  C_40 
DOCKED: REMARK    3  A    between atoms: O_7  and  C_46 
DOCKED: REMARK    4  A    between atoms: O_9  and  C_48 
DOCKED: REMARK    5  A    between atoms: C_15  and  C_20 
DOCKED: REMARK    6  A    between atoms: C_16  and  C_23 
DOCKED: REMARK    7  A    between atoms: C_20  and  C_38 
DOCKED: REMARK    8  A    between atoms: C_23  and  C_40 
DOCKED: REMARK    9  A    between atoms: C_32  and  C_41 
DOCKED: REMARK   10  A    between atoms: C_37  and  C_45 
DOCKED: REMARK   11  A    between atoms: C_41  and  C_44 
DOCKED: REMARK   12  A    between atoms: C_44  and  C_46 
DOCKED: REMARK   13  A    between atoms: C_47  and  C_48 
DOCKED: USER                              x       y       z     vdW  Elec       q    Type
DOCKED: USER                           _______ _______ _______ _____ _____    ______ ____
DOCKED: ROOT
DOCKED: ATOM      1  O   UNL d   1     -10.794  -5.792  -7.924 -0.19 -0.06    -0.289 OA
DOCKED: ATOM      2  O   UNL d   1     -16.886  -2.360  -5.186 -0.12 +0.11    -0.289 OA
DOCKED: ATOM      3  N   UNL d   1     -11.053  -2.362  -7.677 -0.06 -0.04    -0.247 NA
DOCKED: ATOM      4  N   UNL d   1     -13.860  -1.951  -6.794 -0.10 +0.06    -0.247 NA
DOCKED: ATOM      5  N   UNL d   1     -13.562   0.832  -7.454 -0.06 +0.07    -0.354 N 
DOCKED: ATOM      6  N   UNL d   1     -10.658   0.393  -8.387 -0.03 -0.06    -0.354 N 
DOCKED: ATOM      7  C   UNL d   1      -9.414  -3.907  -8.643 -0.19 +0.03    +0.084 A 
DOCKED: ATOM      8  C   UNL d   1     -14.920  -3.770  -5.554 -0.17 -0.01    +0.084 A 
DOCKED: ATOM      9  C   UNL d   1     -13.718  -3.246  -6.348 -0.16 -0.01    +0.058 A 
DOCKED: ATOM     10  C   UNL d   1      -9.854  -2.467  -8.361 -0.12 +0.01    +0.058 A 
DOCKED: ATOM     11  C   UNL d   1     -10.568  -4.597  -7.981 -0.14 +0.04    +0.193 A 
DOCKED: ATOM     12  C   UNL d   1     -11.479  -3.554  -7.411 -0.13 +0.02    +0.109 A 
DOCKED: ATOM     13  C   UNL d   1     -15.784  -2.546  -5.665 -0.08 -0.09    +0.193 A 
DOCKED: ATOM     14  C   UNL d   1      -9.435  -4.232 -10.139 -0.20 +0.01    +0.026 C 
DOCKED: ATOM     15  C   UNL d   1     -12.646  -4.003  -6.626 -0.22 +0.00    +0.055 C 
DOCKED: ATOM     16  C   UNL d   1     -14.572  -3.996  -4.080 -0.38 -0.01    +0.026 C 
DOCKED: ATOM     17  C   UNL d   1     -15.030  -1.520  -6.445 -0.01 -0.06    +0.109 A 
DOCKED: ATOM     18  C   UNL d   1      -9.074  -1.418  -8.684 -0.14 +0.01    +0.050 C 
DOCKED: ATOM     19  C   UNL d   1      -9.358  -0.061  -8.388 -0.14 +0.01    +0.045 A 
DOCKED: ATOM     20  C   UNL d   1     -14.914   0.787  -7.227 -0.09 -0.02    +0.045 A 
DOCKED: ATOM     21  C   UNL d   1     -15.650  -0.222  -6.751 -0.08 -0.03    +0.057 C 
DOCKED: ATOM     22  C   UNL d   1     -14.371   2.849  -8.046 -0.05 -0.00    -0.019 A 
DOCKED: ATOM     23  C   UNL d   1     -13.141   2.037  -7.949 -0.08 -0.00    +0.045 A 
DOCKED: ATOM     24  C   UNL d   1     -15.416   2.104  -7.616 -0.07 +0.00    -0.022 A 
DOCKED: ATOM     25  C   UNL d   1     -10.696   1.750  -8.166 -0.12 +0.01    +0.049 A 
DOCKED: ATOM     26  C   UNL d   1      -8.533   1.022  -8.124 -0.24 -0.00    -0.018 A 
DOCKED: ATOM     27  C   UNL d   1      -9.384   2.159  -7.966 -0.22 +0.00    +0.003 A 
DOCKED: ATOM     28  C   UNL d   1     -11.915   2.473  -8.275 -0.08 +0.00    +0.052 C 
DOCKED: ATOM     29  C   UNL d   1     -16.854   2.485  -7.514 -0.04 +0.00    +0.046 C 
DOCKED: ATOM     30  C   UNL d   1      -7.045   1.004  -8.023 -0.32 +0.01    +0.046 C 
DOCKED: ATOM     31  H   UNL d   1     -12.959   0.060  -7.192 +0.03 -0.03    +0.166 HD
DOCKED: ATOM     32  H   UNL d   1     -11.458  -0.201  -8.568 +0.03 +0.02    +0.166 HD
DOCKED: ENDROOT
DOCKED: BRANCH   7  33
DOCKED: ATOM     33  C   UNL d   1      -8.091  -4.329  -7.995 -0.25 +0.05    +0.141 C 
DOCKED: BRANCH  33  34
DOCKED: ATOM     34  C   UNL d   1      -8.125  -4.231  -6.494 -0.32 +0.07    +0.306 C 
DOCKED: ATOM     35  O   UNL d   1      -7.906  -3.230  -5.832 -0.38 -0.06    -0.251 OA
DOCKED: BRANCH  34  36
DOCKED: ATOM     36  O   UNL d   1      -8.435  -5.400  -5.905 -0.12 -0.05    -0.481 OA
DOCKED: ATOM     37  H   UNL d   1      -9.253  -5.695  -6.357 -0.34 -0.06    +0.295 HD
DOCKED: ENDBRANCH  34  36
DOCKED: ENDBRANCH  33  34
DOCKED: ENDBRANCH   7  33
DOCKED: BRANCH  27  38
DOCKED: ATOM     38  C   UNL d   1      -8.938   3.492  -7.696 -0.30 +0.00    +0.017 C 
DOCKED: ATOM     39  C   UNL d   1      -8.082   4.191  -8.457 -0.31 +0.03    +0.092 C 
DOCKED: BRANCH  39  40
DOCKED: ATOM     40  C   UNL d   1      -7.718   5.559  -8.078 -0.24 +0.10    +0.330 C 
DOCKED: ATOM     41  O   UNL d   1      -7.260   6.431  -8.792 -0.30 -0.10    -0.246 OA
DOCKED: BRANCH  40  42
DOCKED: ATOM     42  O   UNL d   1      -7.970   5.760  -6.776 -0.12 -0.11    -0.477 OA
DOCKED: ATOM     43  H   UNL d   1      -7.097   5.649  -6.347 -0.32 -0.00    +0.295 HD
DOCKED: ENDBRANCH  40  42
DOCKED: ENDBRANCH  39  40
DOCKED: ENDBRANCH  27  38
DOCKED: BRANCH   8  44
DOCKED: ATOM     44  C   UNL d   1     -15.622  -4.994  -6.152 -0.07 +0.01    +0.141 C 
DOCKED: BRANCH  44  45
DOCKED: ATOM     45  C   UNL d   1     -16.740  -5.517  -5.290 -0.05 +0.02    +0.306 C 
DOCKED: ATOM     46  O   UNL d   1     -16.648  -6.353  -4.408 -0.09 -0.02    -0.251 OA
DOCKED: BRANCH  45  47
DOCKED: ATOM     47  O   UNL d   1     -17.930  -4.975  -5.605 +0.00 -0.04    -0.481 OA
DOCKED: ATOM     48  H   UNL d   1     -17.838  -4.025  -5.380 +0.05 +0.00    +0.295 HD
DOCKED: ENDBRANCH  45  47
DOCKED: ENDBRANCH  44  45
DOCKED: ENDBRANCH   8  44
DOCKED: BRANCH  22  49
DOCKED: ATOM     49  C   UNL d   1     -14.412   4.259  -8.559 -0.01 +0.01    +0.048 C 
DOCKED: BRANCH  49  50
DOCKED: ATOM     50  C   UNL d   1     -13.929   4.352 -10.006 +0.00 +0.02    +0.125 C 
DOCKED: BRANCH  50  51
DOCKED: ATOM     51  C   UNL d   1     -12.671   5.167 -10.101 +0.00 +0.06    +0.305 C 
DOCKED: ATOM     52  O   UNL d   1     -11.543   4.768 -10.332 -0.01 -0.06    -0.251 OA
DOCKED: BRANCH  51  53
DOCKED: ATOM     53  O   UNL d   1     -12.901   6.477  -9.882 +0.00 -0.10    -0.481 OA
DOCKED: ATOM     54  H   UNL d   1     -13.467   6.748 -10.634 +0.00 +0.06    +0.295 HD
DOCKED: ENDBRANCH  51  53
DOCKED: ENDBRANCH  50  51
DOCKED: ENDBRANCH  49  50
DOCKED: ENDBRANCH  22  49
DOCKED: TORSDOF 13
DOCKED: TER
DOCKED: ENDMDL
________________________________________________________________________________


	BEGINNING GENETIC ALGORITHM DOCKING 85 of 100
Run: 85 Seed: 815871636 1588103214 [ Run 85 of 100 GA/GALS ]
Beginning LAMARCKIAN GENETIC ALGORITHM (LGA), with a maximum of 25000000 energy evaluations.

Final-Value: -12.235


	FINAL GENETIC ALGORITHM DOCKED STATE
	_______________________________________________


Detailed state:  trans -0.013 -8.954 10.071 quatxyzw 0.025141 0.855111 0.409035 0.317559 center 0.153 0.018 -0.028 ntor 13 40.8769 -36.8264 -170.7733 3.7318 -155.6274 -119.9335 144.7446 -86.3427 130.5741 -0.8958 29.5497 -133.7297 -6.2461
State:	 -0.013  -8.954  10.071   0.027  0.902  0.431 142.969     40.88  -36.83 -170.77    3.73 -155.63 -119.93  144.74  -86.34  130.57   -0.90   29.55 -133.73   -6.25

DOCKED: MODEL       85
DOCKED: USER    Run = 85
DOCKED: USER    DPF = D:/Protein_go_brrr/autodock/final/AncB/heme/dock.dpf
DOCKED: USER  
DOCKED: USER    Estimated Free Energy of Binding    =   -6.69 kcal/mol  [=(1)+(2)+(3)-(4)]
DOCKED: USER    Estimated Inhibition Constant, Ki   =   12.47 uM (micromolar)  [Temperature = 298.15 K]
DOCKED: USER    
DOCKED: USER    (1) Final Intermolecular Energy     =  -10.57 kcal/mol
DOCKED: USER        vdW + Hbond + desolv Energy     =  -10.04 kcal/mol
DOCKED: USER        Electrostatic Energy            =   -0.53 kcal/mol
DOCKED: USER    (2) Final Total Internal Energy     =   -1.67 kcal/mol
DOCKED: USER    (3) Torsional Free Energy           =   +3.88 kcal/mol
DOCKED: USER    (4) Unbound System's Energy  [=(2)] =   -1.67 kcal/mol
DOCKED: USER    
DOCKED: USER    
DOCKED: USER    NEWDPF move heme_opt.pdbqt
DOCKED: USER    NEWDPF about 0.153000 0.018000 -0.028000
DOCKED: USER    NEWDPF tran0 -0.012841 -8.953599 10.071349
DOCKED: USER    NEWDPF quaternion0 0.025141 0.855111 0.409035 0.317559
DOCKED: USER    NEWDPF axisangle0 0.026514 0.901789 0.431363 142.969299
DOCKED: USER    NEWDPF quat0 0.026514 0.901789 0.431363 142.969299
DOCKED: USER    NEWDPF dihe0 40.88 -36.83 -170.77 3.73 -155.63 -119.93 144.74 -86.34 130.57 -0.90 29.55 -133.73 -6.25 
DOCKED: USER  keepresnum = 1 
DOCKED: USER  
DOCKED: REMARK  13 active torsions:
DOCKED: REMARK  status: ('A' for Active; 'I' for Inactive)
DOCKED: REMARK    1  A    between atoms: O_3  and  C_38 
DOCKED: REMARK    2  A    between atoms: O_4  and  C_40 
DOCKED: REMARK    3  A    between atoms: O_7  and  C_46 
DOCKED: REMARK    4  A    between atoms: O_9  and  C_48 
DOCKED: REMARK    5  A    between atoms: C_15  and  C_20 
DOCKED: REMARK    6  A    between atoms: C_16  and  C_23 
DOCKED: REMARK    7  A    between atoms: C_20  and  C_38 
DOCKED: REMARK    8  A    between atoms: C_23  and  C_40 
DOCKED: REMARK    9  A    between atoms: C_32  and  C_41 
DOCKED: REMARK   10  A    between atoms: C_37  and  C_45 
DOCKED: REMARK   11  A    between atoms: C_41  and  C_44 
DOCKED: REMARK   12  A    between atoms: C_44  and  C_46 
DOCKED: REMARK   13  A    between atoms: C_47  and  C_48 
DOCKED: USER                              x       y       z     vdW  Elec       q    Type
DOCKED: USER                           _______ _______ _______ _____ _____    ______ ____
DOCKED: ROOT
DOCKED: ATOM      1  O   UNL d   1       4.632  -6.152   7.763 -0.63 -0.03    -0.289 OA
DOCKED: ATOM      2  O   UNL d   1       1.463 -12.726   5.993 -0.05 -0.05    -0.289 OA
DOCKED: ATOM      3  N   UNL d   1       1.967  -7.471   9.509 +0.01 -0.02    -0.247 NA
DOCKED: ATOM      4  N   UNL d   1       1.234  -9.875   7.924 +0.07 -0.04    -0.247 NA
DOCKED: ATOM      5  N   UNL d   1      -1.223  -9.993   9.413 -0.04 -0.07    -0.354 N 
DOCKED: ATOM      6  N   UNL d   1      -0.464  -7.487  11.039 -0.17 -0.04    -0.354 N 
DOCKED: ATOM      7  C   UNL d   1       3.191  -5.348   9.566 -0.25 -0.01    +0.084 A 
DOCKED: ATOM      8  C   UNL d   1       2.997 -10.913   6.589 -0.09 +0.01    +0.084 A 
DOCKED: ATOM      9  C   UNL d   1       2.537  -9.766   7.494 -0.13 +0.01    +0.058 A 
DOCKED: ATOM     10  C   UNL d   1       2.063  -6.228  10.113 -0.24 -0.00    +0.058 A 
DOCKED: ATOM     11  C   UNL d   1       3.727  -6.321   8.559 -0.15 -0.00    +0.193 A 
DOCKED: ATOM     12  C   UNL d   1       2.918  -7.578   8.639 -0.13 +0.01    +0.109 A 
DOCKED: ATOM     13  C   UNL d   1       1.701 -11.674   6.554 -0.07 +0.03    +0.193 A 
DOCKED: ATOM     14  C   UNL d   1       2.654  -4.118   8.830 -0.47 -0.01    +0.026 C 
DOCKED: ATOM     15  C   UNL d   1       3.323  -8.722   7.798 -0.18 +0.01    +0.055 C 
DOCKED: ATOM     16  C   UNL d   1       4.060 -11.782   7.268 -0.05 +0.00    +0.026 C 
DOCKED: ATOM     17  C   UNL d   1       0.712 -10.936   7.397 -0.14 +0.02    +0.109 A 
DOCKED: ATOM     18  C   UNL d   1       1.306  -5.834  11.154 -0.29 +0.00    +0.050 C 
DOCKED: ATOM     19  C   UNL d   1       0.299  -6.612  11.780 -0.30 +0.00    +0.045 A 
DOCKED: ATOM     20  C   UNL d   1      -1.488 -10.928   8.446 -0.23 +0.01    +0.045 A 
DOCKED: ATOM     21  C   UNL d   1      -0.668 -11.427   7.516 -0.23 +0.01    +0.057 C 
DOCKED: ATOM     22  C   UNL d   1      -3.383 -10.578   9.674 -0.29 -0.01    -0.019 A 
DOCKED: ATOM     23  C   UNL d   1      -2.307  -9.716  10.203 -0.30 +0.01    +0.045 A 
DOCKED: ATOM     24  C   UNL d   1      -2.892 -11.294   8.635 -0.25 -0.01    -0.022 A 
DOCKED: ATOM     25  C   UNL d   1      -1.433  -8.067  11.824 -0.22 +0.01    +0.049 A 
DOCKED: ATOM     26  C   UNL d   1      -0.163  -6.652  13.086 -0.28 -0.00    -0.018 A 
DOCKED: ATOM     27  C   UNL d   1      -1.244  -7.587  13.113 -0.24 +0.00    +0.003 A 
DOCKED: ATOM     28  C   UNL d   1      -2.442  -8.888  11.250 -0.24 +0.01    +0.052 C 
DOCKED: ATOM     29  C   UNL d   1      -3.586 -12.304   7.787 -0.24 +0.02    +0.046 C 
DOCKED: ATOM     30  C   UNL d   1       0.367  -5.873  14.242 -0.27 -0.00    +0.046 C 
DOCKED: ATOM     31  H   UNL d   1      -0.287  -9.628   9.549 +0.06 +0.03    +0.166 HD
DOCKED: ATOM     32  H   UNL d   1      -0.338  -7.637  10.045 +0.13 +0.02    +0.166 HD
DOCKED: ENDROOT
DOCKED: BRANCH   7  33
DOCKED: ATOM     33  C   UNL d   1       4.277  -4.968  10.578 -0.18 -0.02    +0.141 C 
DOCKED: BRANCH  33  34
DOCKED: ATOM     34  C   UNL d   1       5.374  -4.140   9.966 -0.13 -0.15    +0.306 C 
DOCKED: ATOM     35  O   UNL d   1       6.475  -4.540   9.627 -0.17 +0.12    -0.251 OA
DOCKED: BRANCH  34  36
DOCKED: ATOM     36  O   UNL d   1       5.025  -2.850   9.811 -0.29 +0.35    -0.481 OA
DOCKED: ATOM     37  H   UNL d   1       5.422  -2.589   8.953 -0.19 -0.67    +0.295 HD
DOCKED: ENDBRANCH  34  36
DOCKED: ENDBRANCH  33  34
DOCKED: ENDBRANCH   7  33
DOCKED: BRANCH  27  38
DOCKED: ATOM     38  C   UNL d   1      -2.019  -7.920  14.270 -0.21 +0.00    +0.017 C 
DOCKED: ATOM     39  C   UNL d   1      -3.062  -7.214  14.732 -0.16 +0.01    +0.092 C 
DOCKED: BRANCH  39  40
DOCKED: ATOM     40  C   UNL d   1      -3.784  -7.674  15.921 -0.12 +0.03    +0.330 C 
DOCKED: ATOM     41  O   UNL d   1      -4.967  -7.941  16.016 -0.40 -0.06    -0.246 OA
DOCKED: BRANCH  40  42
DOCKED: ATOM     42  O   UNL d   1      -2.941  -7.785  16.960 +0.00 -0.01    -0.477 OA
DOCKED: ATOM     43  H   UNL d   1      -3.475  -7.493  17.727 +0.05 -0.01    +0.295 HD
DOCKED: ENDBRANCH  40  42
DOCKED: ENDBRANCH  39  40
DOCKED: ENDBRANCH  27  38
DOCKED: BRANCH   8  44
DOCKED: ATOM     44  C   UNL d   1       3.432 -10.507   5.177 -0.15 +0.01    +0.141 C 
DOCKED: BRANCH  44  45
DOCKED: ATOM     45  C   UNL d   1       2.426  -9.636   4.472 -0.22 +0.03    +0.306 C 
DOCKED: ATOM     46  O   UNL d   1       2.476  -8.425   4.345 -0.27 -0.04    -0.251 OA
DOCKED: BRANCH  45  47
DOCKED: ATOM     47  O   UNL d   1       1.389 -10.340   3.985 -0.16 -0.06    -0.481 OA
DOCKED: ATOM     48  H   UNL d   1       1.509 -11.243   4.348 +0.13 +0.04    +0.295 HD
DOCKED: ENDBRANCH  45  47
DOCKED: ENDBRANCH  44  45
DOCKED: ENDBRANCH   8  44
DOCKED: BRANCH  22  49
DOCKED: ATOM     49  C   UNL d   1      -4.781 -10.611  10.218 -0.34 +0.02    +0.048 C 
DOCKED: BRANCH  49  50
DOCKED: ATOM     50  C   UNL d   1      -4.933 -11.644  11.334 -0.21 +0.06    +0.125 C 
DOCKED: BRANCH  50  51
DOCKED: ATOM     51  C   UNL d   1      -6.329 -12.199  11.364 -0.16 +0.17    +0.305 C 
DOCKED: ATOM     52  O   UNL d   1      -7.273 -11.801  12.023 -0.74 -0.19    -0.251 OA
DOCKED: BRANCH  51  53
DOCKED: ATOM     53  O   UNL d   1      -6.465 -13.265  10.549 -0.13 -0.29    -0.481 OA
DOCKED: ATOM     54  H   UNL d   1      -7.415 -13.496  10.616 -0.08 +0.19    +0.295 HD
DOCKED: ENDBRANCH  51  53
DOCKED: ENDBRANCH  50  51
DOCKED: ENDBRANCH  49  50
DOCKED: ENDBRANCH  22  49
DOCKED: TORSDOF 13
DOCKED: TER
DOCKED: ENDMDL
________________________________________________________________________________


	BEGINNING GENETIC ALGORITHM DOCKING 86 of 100
Run: 86 Seed: 511946219 1257057389 [ Run 86 of 100 GA/GALS ]
Beginning LAMARCKIAN GENETIC ALGORITHM (LGA), with a maximum of 25000000 energy evaluations.

Final-Value: -10.906


	FINAL GENETIC ALGORITHM DOCKED STATE
	_______________________________________________


Detailed state:  trans -7.974 15.662 6.480 quatxyzw 0.488926 -0.526418 -0.624770 0.305774 center 0.153 0.018 -0.028 ntor 13 -80.2700 -159.8092 -136.8104 25.1464 35.8333 -84.1899 -52.4764 -52.9574 122.0161 119.9703 88.0422 33.2793 60.4831
State:	 -7.974  15.662   6.480   0.514 -0.553 -0.656 144.391    -80.27 -159.81 -136.81   25.15   35.83  -84.19  -52.48  -52.96  122.02  119.97   88.04   33.28   60.48

DOCKED: MODEL       86
DOCKED: USER    Run = 86
DOCKED: USER    DPF = D:/Protein_go_brrr/autodock/final/AncB/heme/dock.dpf
DOCKED: USER  
DOCKED: USER    Estimated Free Energy of Binding    =   -4.80 kcal/mol  [=(1)+(2)+(3)-(4)]
DOCKED: USER    Estimated Inhibition Constant, Ki   =  302.02 uM (micromolar)  [Temperature = 298.15 K]
DOCKED: USER    
DOCKED: USER    (1) Final Intermolecular Energy     =   -8.68 kcal/mol
DOCKED: USER        vdW + Hbond + desolv Energy     =   -8.27 kcal/mol
DOCKED: USER        Electrostatic Energy            =   -0.41 kcal/mol
DOCKED: USER    (2) Final Total Internal Energy     =   -2.23 kcal/mol
DOCKED: USER    (3) Torsional Free Energy           =   +3.88 kcal/mol
DOCKED: USER    (4) Unbound System's Energy  [=(2)] =   -2.23 kcal/mol
DOCKED: USER    
DOCKED: USER    
DOCKED: USER    NEWDPF move heme_opt.pdbqt
DOCKED: USER    NEWDPF about 0.153000 0.018000 -0.028000
DOCKED: USER    NEWDPF tran0 -7.974487 15.661882 6.480436
DOCKED: USER    NEWDPF quaternion0 0.488926 -0.526418 -0.624770 0.305774
DOCKED: USER    NEWDPF axisangle0 0.513521 -0.552899 -0.656200 144.390533
DOCKED: USER    NEWDPF quat0 0.513521 -0.552899 -0.656200 144.390533
DOCKED: USER    NEWDPF dihe0 -80.27 -159.81 -136.81 25.15 35.83 -84.19 -52.48 -52.96 122.02 119.97 88.04 33.28 60.48 
DOCKED: USER  keepresnum = 1 
DOCKED: USER  
DOCKED: REMARK  13 active torsions:
DOCKED: REMARK  status: ('A' for Active; 'I' for Inactive)
DOCKED: REMARK    1  A    between atoms: O_3  and  C_38 
DOCKED: REMARK    2  A    between atoms: O_4  and  C_40 
DOCKED: REMARK    3  A    between atoms: O_7  and  C_46 
DOCKED: REMARK    4  A    between atoms: O_9  and  C_48 
DOCKED: REMARK    5  A    between atoms: C_15  and  C_20 
DOCKED: REMARK    6  A    between atoms: C_16  and  C_23 
DOCKED: REMARK    7  A    between atoms: C_20  and  C_38 
DOCKED: REMARK    8  A    between atoms: C_23  and  C_40 
DOCKED: REMARK    9  A    between atoms: C_32  and  C_41 
DOCKED: REMARK   10  A    between atoms: C_37  and  C_45 
DOCKED: REMARK   11  A    between atoms: C_41  and  C_44 
DOCKED: REMARK   12  A    between atoms: C_44  and  C_46 
DOCKED: REMARK   13  A    between atoms: C_47  and  C_48 
DOCKED: USER                              x       y       z     vdW  Elec       q    Type
DOCKED: USER                           _______ _______ _______ _____ _____    ______ ____
DOCKED: ROOT
DOCKED: ATOM      1  O   UNL d   1      -7.797  16.589  12.300 -0.06 -0.04    -0.289 OA
DOCKED: ATOM      2  O   UNL d   1      -2.282  15.758   7.271 -0.61 +0.04    -0.289 OA
DOCKED: ATOM      3  N   UNL d   1      -8.391  15.920   8.969 -0.15 -0.01    -0.247 NA
DOCKED: ATOM      4  N   UNL d   1      -5.686  16.067   7.749 -0.10 +0.06    -0.247 NA
DOCKED: ATOM      5  N   UNL d   1      -6.953  16.129   5.169 -0.07 +0.15    -0.354 N 
DOCKED: ATOM      6  N   UNL d   1      -9.757  15.996   6.444 -0.10 +0.05    -0.354 N 
DOCKED: ATOM      7  C   UNL d   1      -9.799  16.452  10.904 -0.11 +0.02    +0.084 A 
DOCKED: ATOM      8  C   UNL d   1      -3.778  15.600   9.203 -0.26 -0.02    +0.084 A 
DOCKED: ATOM      9  C   UNL d   1      -5.287  15.809   9.042 -0.20 -0.01    +0.058 A 
DOCKED: ATOM     10  C   UNL d   1      -9.687  16.128   9.411 -0.16 +0.01    +0.058 A 
DOCKED: ATOM     11  C   UNL d   1      -8.338  16.372  11.231 -0.10 +0.04    +0.193 A 
DOCKED: ATOM     12  C   UNL d   1      -7.593  16.018   9.982 -0.16 +0.01    +0.109 A 
DOCKED: ATOM     13  C   UNL d   1      -3.389  15.825   7.769 -0.18 -0.05    +0.193 A 
DOCKED: ATOM     14  C   UNL d   1     -10.284  17.883  11.146 -0.04 +0.00    +0.026 C 
DOCKED: ATOM     15  C   UNL d   1      -6.137  15.792  10.080 -0.23 -0.00    +0.055 C 
DOCKED: ATOM     16  C   UNL d   1      -3.442  14.155   9.584 -0.38 -0.01    +0.026 C 
DOCKED: ATOM     17  C   UNL d   1      -4.636  16.106   6.994 -0.15 -0.03    +0.109 A 
DOCKED: ATOM     18  C   UNL d   1     -10.781  15.975   8.641 -0.18 +0.00    +0.050 C 
DOCKED: ATOM     19  C   UNL d   1     -10.778  15.594   7.275 -0.20 -0.00    +0.045 A 
DOCKED: ATOM     20  C   UNL d   1      -5.664  16.420   4.806 -0.19 -0.02    +0.045 A 
DOCKED: ATOM     21  C   UNL d   1      -4.559  16.410   5.557 -0.20 -0.02    +0.057 C 
DOCKED: ATOM     22  C   UNL d   1      -7.017  16.651   2.979 -0.19 +0.01    -0.019 A 
DOCKED: ATOM     23  C   UNL d   1      -7.842  16.241   4.134 -0.20 -0.02    +0.045 A 
DOCKED: ATOM     24  C   UNL d   1      -5.729  16.754   3.383 -0.19 +0.01    -0.022 A 
DOCKED: ATOM     25  C   UNL d   1     -10.000  15.595   5.151 -0.20 -0.01    +0.049 A 
DOCKED: ATOM     26  C   UNL d   1     -11.689  14.883   6.510 -0.13 +0.00    -0.018 A 
DOCKED: ATOM     27  C   UNL d   1     -11.183  14.869   5.174 -0.20 -0.00    +0.003 A 
DOCKED: ATOM     28  C   UNL d   1      -9.165  16.026   4.084 -0.19 -0.01    +0.052 C 
DOCKED: ATOM     29  C   UNL d   1      -4.527  17.125   2.583 -0.16 -0.05    +0.046 C 
DOCKED: ATOM     30  C   UNL d   1     -12.952  14.251   6.989 +0.02 -0.01    +0.046 C 
DOCKED: ATOM     31  H   UNL d   1      -7.174  15.790   6.100 -0.33 -0.08    +0.166 HD
DOCKED: ATOM     32  H   UNL d   1      -8.965  16.547   6.754 +0.03 -0.03    +0.166 HD
DOCKED: ENDROOT
DOCKED: BRANCH   7  33
DOCKED: ATOM     33  C   UNL d   1     -10.593  15.440  11.738 -0.06 +0.07    +0.141 C 
DOCKED: BRANCH  33  34
DOCKED: ATOM     34  C   UNL d   1     -10.459  15.678  13.218 -0.05 +0.18    +0.306 C 
DOCKED: ATOM     35  O   UNL d   1     -11.178  16.386  13.902 -0.03 -0.08    -0.251 OA
DOCKED: BRANCH  34  36
DOCKED: ATOM     36  O   UNL d   1      -9.426  15.008  13.759 -0.11 -0.58    -0.481 OA
DOCKED: ATOM     37  H   UNL d   1      -8.698  15.664  13.795 +0.04 +0.17    +0.295 HD
DOCKED: ENDBRANCH  34  36
DOCKED: ENDBRANCH  33  34
DOCKED: ENDBRANCH   7  33
DOCKED: BRANCH  27  38
DOCKED: ATOM     38  C   UNL d   1     -11.826  14.250   4.054 -0.17 -0.00    +0.017 C 
DOCKED: ATOM     39  C   UNL d   1     -11.392  13.148   3.424 -0.24 -0.03    +0.092 C 
DOCKED: BRANCH  39  40
DOCKED: ATOM     40  C   UNL d   1     -12.155  12.603   2.297 -0.08 -0.05    +0.330 C 
DOCKED: ATOM     41  O   UNL d   1     -13.091  11.828   2.338 -0.07 +0.02    -0.246 OA
DOCKED: BRANCH  40  42
DOCKED: ATOM     42  O   UNL d   1     -11.682  13.093   1.140 +0.01 +0.06    -0.477 OA
DOCKED: ATOM     43  H   UNL d   1     -10.781  13.401   1.366 +0.09 -0.07    +0.295 HD
DOCKED: ENDBRANCH  40  42
DOCKED: ENDBRANCH  39  40
DOCKED: ENDBRANCH  27  38
DOCKED: BRANCH   8  44
DOCKED: ATOM     44  C   UNL d   1      -3.068  16.596  10.126 -0.15 -0.04    +0.141 C 
DOCKED: BRANCH  44  45
DOCKED: ATOM     45  C   UNL d   1      -3.415  16.411  11.579 -0.12 -0.09    +0.306 C 
DOCKED: ATOM     46  O   UNL d   1      -4.257  17.027  12.210 -0.05 +0.06    -0.251 OA
DOCKED: BRANCH  45  47
DOCKED: ATOM     47  O   UNL d   1      -2.658  15.471  12.173 -0.11 +0.23    -0.481 OA
DOCKED: ATOM     48  H   UNL d   1      -1.751  15.634  11.838 -0.45 -0.23    +0.295 HD
DOCKED: ENDBRANCH  45  47
DOCKED: ENDBRANCH  44  45
DOCKED: ENDBRANCH   8  44
DOCKED: BRANCH  22  49
DOCKED: ATOM     49  C   UNL d   1      -7.561  16.916   1.606 -0.15 -0.03    +0.048 C 
DOCKED: BRANCH  49  50
DOCKED: ATOM     50  C   UNL d   1      -8.893  16.202   1.375 -0.14 -0.05    +0.125 C 
DOCKED: BRANCH  50  51
DOCKED: ATOM     51  C   UNL d   1      -8.675  14.840   0.780 -0.15 -0.14    +0.305 C 
DOCKED: ATOM     52  O   UNL d   1      -8.121  14.568  -0.271 -0.24 +0.18    -0.251 OA
DOCKED: BRANCH  51  53
DOCKED: ATOM     53  O   UNL d   1      -9.190  13.863   1.553 -0.09 +0.21    -0.481 OA
DOCKED: ATOM     54  H   UNL d   1      -8.667  13.070   1.315 -0.40 -0.19    +0.295 HD
DOCKED: ENDBRANCH  51  53
DOCKED: ENDBRANCH  50  51
DOCKED: ENDBRANCH  49  50
DOCKED: ENDBRANCH  22  49
DOCKED: TORSDOF 13
DOCKED: TER
DOCKED: ENDMDL
________________________________________________________________________________


	BEGINNING GENETIC ALGORITHM DOCKING 87 of 100
Run: 87 Seed: 1322368474 1473873076 [ Run 87 of 100 GA/GALS ]
Beginning LAMARCKIAN GENETIC ALGORITHM (LGA), with a maximum of 25000000 energy evaluations.

Final-Value: -12.641


	FINAL GENETIC ALGORITHM DOCKED STATE
	_______________________________________________


Detailed state:  trans -8.365 16.000 6.417 quatxyzw -0.213330 -0.760596 0.592341 0.158480 center 0.153 0.018 -0.028 ntor 13 96.3908 160.1019 -84.9117 52.3427 -136.9552 -85.0013 156.3952 49.2655 33.2243 -91.0121 -89.5005 37.9905 -0.3581
State:	 -8.365  16.000   6.417  -0.216 -0.770  0.600 161.763     96.39  160.10  -84.91   52.34 -136.96  -85.00  156.40   49.27   33.22  -91.01  -89.50   37.99   -0.36

DOCKED: MODEL       87
DOCKED: USER    Run = 87
DOCKED: USER    DPF = D:/Protein_go_brrr/autodock/final/AncB/heme/dock.dpf
DOCKED: USER  
DOCKED: USER    Estimated Free Energy of Binding    =   -4.10 kcal/mol  [=(1)+(2)+(3)-(4)]
DOCKED: USER    Estimated Inhibition Constant, Ki   =  986.93 uM (micromolar)  [Temperature = 298.15 K]
DOCKED: USER    
DOCKED: USER    (1) Final Intermolecular Energy     =   -7.98 kcal/mol
DOCKED: USER        vdW + Hbond + desolv Energy     =   -7.80 kcal/mol
DOCKED: USER        Electrostatic Energy            =   -0.18 kcal/mol
DOCKED: USER    (2) Final Total Internal Energy     =   -4.66 kcal/mol
DOCKED: USER    (3) Torsional Free Energy           =   +3.88 kcal/mol
DOCKED: USER    (4) Unbound System's Energy  [=(2)] =   -4.66 kcal/mol
DOCKED: USER    
DOCKED: USER    
DOCKED: USER    NEWDPF move heme_opt.pdbqt
DOCKED: USER    NEWDPF about 0.153000 0.018000 -0.028000
DOCKED: USER    NEWDPF tran0 -8.364739 16.000253 6.417337
DOCKED: USER    NEWDPF quaternion0 -0.213330 -0.760596 0.592341 0.158480
DOCKED: USER    NEWDPF axisangle0 -0.216060 -0.770331 0.599923 161.762604
DOCKED: USER    NEWDPF quat0 -0.216060 -0.770331 0.599923 161.762604
DOCKED: USER    NEWDPF dihe0 96.39 160.10 -84.91 52.34 -136.96 -85.00 156.40 49.27 33.22 -91.01 -89.50 37.99 -0.36 
DOCKED: USER  keepresnum = 1 
DOCKED: USER  
DOCKED: REMARK  13 active torsions:
DOCKED: REMARK  status: ('A' for Active; 'I' for Inactive)
DOCKED: REMARK    1  A    between atoms: O_3  and  C_38 
DOCKED: REMARK    2  A    between atoms: O_4  and  C_40 
DOCKED: REMARK    3  A    between atoms: O_7  and  C_46 
DOCKED: REMARK    4  A    between atoms: O_9  and  C_48 
DOCKED: REMARK    5  A    between atoms: C_15  and  C_20 
DOCKED: REMARK    6  A    between atoms: C_16  and  C_23 
DOCKED: REMARK    7  A    between atoms: C_20  and  C_38 
DOCKED: REMARK    8  A    between atoms: C_23  and  C_40 
DOCKED: REMARK    9  A    between atoms: C_32  and  C_41 
DOCKED: REMARK   10  A    between atoms: C_37  and  C_45 
DOCKED: REMARK   11  A    between atoms: C_41  and  C_44 
DOCKED: REMARK   12  A    between atoms: C_44  and  C_46 
DOCKED: REMARK   13  A    between atoms: C_47  and  C_48 
DOCKED: USER                              x       y       z     vdW  Elec       q    Type
DOCKED: USER                           _______ _______ _______ _____ _____    ______ ____
DOCKED: ROOT
DOCKED: ATOM      1  O   UNL d   1      -2.689  14.955   7.620 -0.63 +0.04    -0.289 OA
DOCKED: ATOM      2  O   UNL d   1      -8.547  16.162  12.160 -0.10 -0.09    -0.289 OA
DOCKED: ATOM      3  N   UNL d   1      -5.850  15.668   6.440 -0.03 +0.10    -0.247 NA
DOCKED: ATOM      4  N   UNL d   1      -7.512  15.679   8.904 -0.17 +0.01    -0.247 NA
DOCKED: ATOM      5  N   UNL d   1      -9.842  15.612   7.221 -0.13 +0.03    -0.354 N 
DOCKED: ATOM      6  N   UNL d   1      -8.111  15.581   4.671 -0.08 +0.15    -0.354 N 
DOCKED: ATOM      7  C   UNL d   1      -3.723  15.027   5.406 -0.32 -0.03    +0.084 A 
DOCKED: ATOM      8  C   UNL d   1      -6.387  16.205  11.008 -0.12 -0.00    +0.084 A 
DOCKED: ATOM      9  C   UNL d   1      -6.298  15.927   9.504 -0.19 -0.00    +0.058 A 
DOCKED: ATOM     10  C   UNL d   1      -5.203  15.388   5.249 -0.27 -0.03    +0.058 A 
DOCKED: ATOM     11  C   UNL d   1      -3.644  15.169   6.896 -0.21 -0.05    +0.193 A 
DOCKED: ATOM     12  C   UNL d   1      -4.990  15.587   7.402 -0.20 -0.03    +0.109 A 
DOCKED: ATOM     13  C   UNL d   1      -7.873  16.031  11.157 -0.12 +0.04    +0.193 A 
DOCKED: ATOM     14  C   UNL d   1      -3.445  13.568   5.033 -0.58 -0.01    +0.026 C 
DOCKED: ATOM     15  C   UNL d   1      -5.131  15.880   8.843 -0.22 -0.01    +0.055 C 
DOCKED: ATOM     16  C   UNL d   1      -6.026  17.656  11.340 -0.05 -0.00    +0.026 C 
DOCKED: ATOM     17  C   UNL d   1      -8.435  15.707   9.811 -0.16 +0.02    +0.109 A 
DOCKED: ATOM     18  C   UNL d   1      -5.773  15.505   4.035 -0.20 -0.02    +0.050 C 
DOCKED: ATOM     19  C   UNL d   1      -7.108  15.915   3.789 -0.25 -0.02    +0.045 A 
DOCKED: ATOM     20  C   UNL d   1     -10.427  15.391   8.441 -0.19 +0.00    +0.045 A 
DOCKED: ATOM     21  C   UNL d   1      -9.872  15.439   9.656 -0.10 +0.01    +0.057 C 
DOCKED: ATOM     22  C   UNL d   1     -12.005  15.135   6.810 -0.17 +0.00    -0.019 A 
DOCKED: ATOM     23  C   UNL d   1     -10.717  15.479   6.175 -0.21 -0.01    +0.045 A 
DOCKED: ATOM     24  C   UNL d   1     -11.827  15.086   8.151 -0.20 -0.00    -0.022 A 
DOCKED: ATOM     25  C   UNL d   1      -9.332  15.999   4.194 -0.16 -0.01    +0.049 A 
DOCKED: ATOM     26  C   UNL d   1      -7.687  16.598   2.731 -0.18 +0.01    -0.018 A 
DOCKED: ATOM     27  C   UNL d   1      -9.088  16.666   3.002 -0.10 -0.00    +0.003 A 
DOCKED: ATOM     28  C   UNL d   1     -10.536  15.632   4.854 -0.19 -0.01    +0.052 C 
DOCKED: ATOM     29  C   UNL d   1     -12.829  14.792   9.215 -0.15 +0.00    +0.046 C 
DOCKED: ATOM     30  C   UNL d   1      -6.983  17.158   1.541 -0.12 -0.03    +0.046 C 
DOCKED: ATOM     31  H   UNL d   1      -8.879  15.920   7.147 -0.01 -0.03    +0.166 HD
DOCKED: ATOM     32  H   UNL d   1      -7.954  15.063   5.527 -0.34 -0.12    +0.166 HD
DOCKED: ENDROOT
DOCKED: BRANCH   7  33
DOCKED: ATOM     33  C   UNL d   1      -2.737  15.980   4.721 -0.15 -0.12    +0.141 C 
DOCKED: BRANCH  33  34
DOCKED: ATOM     34  C   UNL d   1      -2.470  17.218   5.534 -0.09 -0.19    +0.306 C 
DOCKED: ATOM     35  O   UNL d   1      -3.163  18.221   5.568 -0.04 +0.12    -0.251 OA
DOCKED: BRANCH  34  36
DOCKED: ATOM     36  O   UNL d   1      -1.343  17.126   6.263 -0.19 +0.24    -0.481 OA
DOCKED: ATOM     37  H   UNL d   1      -1.623  16.685   7.094 +0.09 -0.10    +0.295 HD
DOCKED: ENDBRANCH  34  36
DOCKED: ENDBRANCH  33  34
DOCKED: ENDBRANCH   7  33
DOCKED: BRANCH  27  38
DOCKED: ATOM     38  C   UNL d   1     -10.065  17.277   2.152 -0.04 -0.00    +0.017 C 
DOCKED: ATOM     39  C   UNL d   1     -10.661  18.457   2.381 -0.01 -0.01    +0.092 C 
DOCKED: BRANCH  39  40
DOCKED: ATOM     40  C   UNL d   1     -11.634  18.982   1.419 +0.00 -0.02    +0.330 C 
DOCKED: ATOM     41  O   UNL d   1     -11.414  19.657   0.432 +0.00 +0.02    -0.246 OA
DOCKED: BRANCH  40  42
DOCKED: ATOM     42  O   UNL d   1     -12.875  18.605   1.766 -0.00 +0.02    -0.477 OA
DOCKED: ATOM     43  H   UNL d   1     -12.730  17.837   2.356 +0.00 -0.01    +0.295 HD
DOCKED: ENDBRANCH  40  42
DOCKED: ENDBRANCH  39  40
DOCKED: ENDBRANCH  27  38
DOCKED: BRANCH   8  44
DOCKED: ATOM     44  C   UNL d   1      -5.627  15.224  11.907 -0.23 -0.01    +0.141 C 
DOCKED: BRANCH  44  45
DOCKED: ATOM     45  C   UNL d   1      -6.369  14.879  13.171 -0.18 -0.01    +0.306 C 
DOCKED: ATOM     46  O   UNL d   1      -6.845  13.796  13.461 -0.68 -0.17    -0.251 OA
DOCKED: BRANCH  45  47
DOCKED: ATOM     47  O   UNL d   1      -6.497  15.933  13.997 -0.05 +0.17    -0.481 OA
DOCKED: ATOM     48  H   UNL d   1      -7.373  16.316  13.777 +0.05 -0.00    +0.295 HD
DOCKED: ENDBRANCH  45  47
DOCKED: ENDBRANCH  44  45
DOCKED: ENDBRANCH   8  44
DOCKED: BRANCH  22  49
DOCKED: ATOM     49  C   UNL d   1     -13.274  14.875   6.052 -0.11 -0.01    +0.048 C 
DOCKED: BRANCH  49  50
DOCKED: ATOM     50  C   UNL d   1     -14.010  16.171   5.712 -0.03 -0.00    +0.125 C 
DOCKED: BRANCH  50  51
DOCKED: ATOM     51  C   UNL d   1     -13.586  16.691   4.368 -0.01 -0.01    +0.305 C 
DOCKED: ATOM     52  O   UNL d   1     -13.418  16.053   3.344 -0.01 +0.01    -0.251 OA
DOCKED: BRANCH  51  53
DOCKED: ATOM     53  O   UNL d   1     -13.379  18.023   4.385 +0.00 +0.01    -0.481 OA
DOCKED: ATOM     54  H   UNL d   1     -13.917  18.357   3.637 +0.00 -0.01    +0.295 HD
DOCKED: ENDBRANCH  51  53
DOCKED: ENDBRANCH  50  51
DOCKED: ENDBRANCH  49  50
DOCKED: ENDBRANCH  22  49
DOCKED: TORSDOF 13
DOCKED: TER
DOCKED: ENDMDL
________________________________________________________________________________


	BEGINNING GENETIC ALGORITHM DOCKING 88 of 100
Run: 88 Seed: 598971334 1642894764 [ Run 88 of 100 GA/GALS ]
Beginning LAMARCKIAN GENETIC ALGORITHM (LGA), with a maximum of 25000000 energy evaluations.

Final-Value: -10.337


	FINAL GENETIC ALGORITHM DOCKED STATE
	_______________________________________________


Detailed state:  trans -12.147 13.250 4.272 quatxyzw -0.129412 -0.492253 0.334898 0.792958 center 0.153 0.018 -0.028 ntor 13 161.1524 -71.0028 -150.4831 -153.0837 -144.1931 -135.6064 130.5263 -64.1337 14.4449 -13.5818 16.2045 -94.7386 -39.7913
State:	-12.147  13.250   4.272  -0.212 -0.808  0.550 75.074    161.15  -71.00 -150.48 -153.08 -144.19 -135.61  130.53  -64.13   14.44  -13.58   16.20  -94.74  -39.79

DOCKED: MODEL       88
DOCKED: USER    Run = 88
DOCKED: USER    DPF = D:/Protein_go_brrr/autodock/final/AncB/heme/dock.dpf
DOCKED: USER  
DOCKED: USER    Estimated Free Energy of Binding    =   -3.91 kcal/mol  [=(1)+(2)+(3)-(4)]
DOCKED: USER    Estimated Inhibition Constant, Ki   =    1.36 mM (millimolar)  [Temperature = 298.15 K]
DOCKED: USER    
DOCKED: USER    (1) Final Intermolecular Energy     =   -7.79 kcal/mol
DOCKED: USER        vdW + Hbond + desolv Energy     =   -7.48 kcal/mol
DOCKED: USER        Electrostatic Energy            =   -0.30 kcal/mol
DOCKED: USER    (2) Final Total Internal Energy     =   -2.55 kcal/mol
DOCKED: USER    (3) Torsional Free Energy           =   +3.88 kcal/mol
DOCKED: USER    (4) Unbound System's Energy  [=(2)] =   -2.55 kcal/mol
DOCKED: USER    
DOCKED: USER    
DOCKED: USER    NEWDPF move heme_opt.pdbqt
DOCKED: USER    NEWDPF about 0.153000 0.018000 -0.028000
DOCKED: USER    NEWDPF tran0 -12.147093 13.249939 4.272251
DOCKED: USER    NEWDPF quaternion0 -0.129412 -0.492253 0.334898 0.792958
DOCKED: USER    NEWDPF axisangle0 -0.212403 -0.807931 0.549665 75.074297
DOCKED: USER    NEWDPF quat0 -0.212403 -0.807931 0.549665 75.074297
DOCKED: USER    NEWDPF dihe0 161.15 -71.00 -150.48 -153.08 -144.19 -135.61 130.53 -64.13 14.44 -13.58 16.20 -94.74 -39.79 
DOCKED: USER  keepresnum = 1 
DOCKED: USER  
DOCKED: REMARK  13 active torsions:
DOCKED: REMARK  status: ('A' for Active; 'I' for Inactive)
DOCKED: REMARK    1  A    between atoms: O_3  and  C_38 
DOCKED: REMARK    2  A    between atoms: O_4  and  C_40 
DOCKED: REMARK    3  A    between atoms: O_7  and  C_46 
DOCKED: REMARK    4  A    between atoms: O_9  and  C_48 
DOCKED: REMARK    5  A    between atoms: C_15  and  C_20 
DOCKED: REMARK    6  A    between atoms: C_16  and  C_23 
DOCKED: REMARK    7  A    between atoms: C_20  and  C_38 
DOCKED: REMARK    8  A    between atoms: C_23  and  C_40 
DOCKED: REMARK    9  A    between atoms: C_32  and  C_41 
DOCKED: REMARK   10  A    between atoms: C_37  and  C_45 
DOCKED: REMARK   11  A    between atoms: C_41  and  C_44 
DOCKED: REMARK   12  A    between atoms: C_44  and  C_46 
DOCKED: REMARK   13  A    between atoms: C_47  and  C_48 
DOCKED: USER                              x       y       z     vdW  Elec       q    Type
DOCKED: USER                           _______ _______ _______ _____ _____    ______ ____
DOCKED: ROOT
DOCKED: ATOM      1  O   UNL d   1     -12.218  16.422   9.241 -0.04 -0.02    -0.289 OA
DOCKED: ATOM      2  O   UNL d   1     -17.207  11.571   6.419 -0.01 -0.01    -0.289 OA
DOCKED: ATOM      3  N   UNL d   1     -11.803  14.882   6.183 -0.12 +0.05    -0.247 NA
DOCKED: ATOM      4  N   UNL d   1     -14.070  12.964   6.070 +0.02 +0.05    -0.247 NA
DOCKED: ATOM      5  N   UNL d   1     -12.766  11.697   3.843 +0.01 +0.08    -0.354 N 
DOCKED: ATOM      6  N   UNL d   1     -10.409  13.678   3.979 -0.20 +0.13    -0.354 N 
DOCKED: ATOM      7  C   UNL d   1     -10.421  16.342   7.586 -0.14 -0.00    +0.084 A 
DOCKED: ATOM      8  C   UNL d   1     -16.062  13.510   7.377 -0.03 +0.00    +0.084 A 
DOCKED: ATOM      9  C   UNL d   1     -14.616  13.836   6.986 -0.08 -0.00    +0.058 A 
DOCKED: ATOM     10  C   UNL d   1     -10.582  15.525   6.300 -0.21 -0.01    +0.058 A 
DOCKED: ATOM     11  C   UNL d   1     -11.775  16.061   8.166 -0.09 +0.00    +0.193 A 
DOCKED: ATOM     12  C   UNL d   1     -12.526  15.187   7.211 -0.13 -0.01    +0.109 A 
DOCKED: ATOM     13  C   UNL d   1     -16.222  12.271   6.541 -0.03 +0.00    +0.193 A 
DOCKED: ATOM     14  C   UNL d   1      -9.354  15.753   8.511 -0.23 +0.00    +0.026 C 
DOCKED: ATOM     15  C   UNL d   1     -13.929  14.851   7.530 -0.09 -0.00    +0.055 C 
DOCKED: ATOM     16  C   UNL d   1     -17.040  14.575   6.871 -0.01 +0.00    +0.026 C 
DOCKED: ATOM     17  C   UNL d   1     -14.942  12.046   5.804 -0.09 -0.01    +0.109 A 
DOCKED: ATOM     18  C   UNL d   1      -9.635  15.527   5.343 -0.23 -0.01    +0.050 C 
DOCKED: ATOM     19  C   UNL d   1      -9.732  14.872   4.089 -0.27 -0.01    +0.045 A 
DOCKED: ATOM     20  C   UNL d   1     -13.758  10.783   4.087 -0.09 -0.00    +0.045 A 
DOCKED: ATOM     21  C   UNL d   1     -14.789  10.871   4.934 -0.12 -0.00    +0.057 C 
DOCKED: ATOM     22  C   UNL d   1     -12.346   9.935   2.504 -0.30 +0.00    -0.019 A 
DOCKED: ATOM     23  C   UNL d   1     -11.866  11.274   2.902 -0.28 -0.01    +0.045 A 
DOCKED: ATOM     24  C   UNL d   1     -13.467   9.651   3.208 -0.23 -0.00    -0.022 A 
DOCKED: ATOM     25  C   UNL d   1     -10.301  13.177   2.703 -0.21 -0.02    +0.049 A 
DOCKED: ATOM     26  C   UNL d   1      -9.202  15.172   2.844 -0.24 +0.01    -0.018 A 
DOCKED: ATOM     27  C   UNL d   1      -9.581  14.109   1.968 -0.20 -0.00    +0.003 A 
DOCKED: ATOM     28  C   UNL d   1     -10.785  11.879   2.386 -0.32 -0.02    +0.052 C 
DOCKED: ATOM     29  C   UNL d   1     -14.321   8.430   3.150 -0.21 +0.00    +0.046 C 
DOCKED: ATOM     30  C   UNL d   1      -8.395  16.374   2.486 -0.18 -0.02    +0.046 C 
DOCKED: ATOM     31  H   UNL d   1     -12.779  12.615   4.275 -0.37 -0.06    +0.166 HD
DOCKED: ATOM     32  H   UNL d   1     -10.880  13.228   4.755 -0.35 -0.09    +0.166 HD
DOCKED: ENDROOT
DOCKED: BRANCH   7  33
DOCKED: ATOM     33  C   UNL d   1     -10.224  17.849   7.386 -0.04 -0.01    +0.141 C 
DOCKED: BRANCH  33  34
DOCKED: ATOM     34  C   UNL d   1     -11.401  18.503   6.714 -0.01 -0.01    +0.306 C 
DOCKED: ATOM     35  O   UNL d   1     -11.556  18.647   5.513 -0.00 +0.01    -0.251 OA
DOCKED: BRANCH  34  36
DOCKED: ATOM     36  O   UNL d   1     -12.322  18.940   7.591 +0.00 +0.00    -0.481 OA
DOCKED: ATOM     37  H   UNL d   1     -12.155  18.418   8.405 +0.02 +0.00    +0.295 HD
DOCKED: ENDBRANCH  34  36
DOCKED: ENDBRANCH  33  34
DOCKED: ENDBRANCH   7  33
DOCKED: BRANCH  27  38
DOCKED: ATOM     38  C   UNL d   1      -9.227  14.013   0.584 -0.26 -0.01    +0.017 C 
DOCKED: ATOM     39  C   UNL d   1      -8.552  12.997   0.025 -0.17 -0.03    +0.092 C 
DOCKED: BRANCH  39  40
DOCKED: ATOM     40  C   UNL d   1      -8.266  13.012  -1.412 -0.19 -0.13    +0.330 C 
DOCKED: ATOM     41  O   UNL d   1      -8.348  12.086  -2.196 -0.34 +0.03    -0.246 OA
DOCKED: BRANCH  40  42
DOCKED: ATOM     42  O   UNL d   1      -7.890  14.242  -1.795 -0.12 +0.42    -0.477 OA
DOCKED: ATOM     43  H   UNL d   1      -6.934  14.147  -1.983 -0.06 -0.56    +0.295 HD
DOCKED: ENDBRANCH  40  42
DOCKED: ENDBRANCH  39  40
DOCKED: ENDBRANCH  27  38
DOCKED: BRANCH   8  44
DOCKED: ATOM     44  C   UNL d   1     -16.292  13.205   8.860 -0.02 +0.01    +0.141 C 
DOCKED: BRANCH  44  45
DOCKED: ATOM     45  C   UNL d   1     -15.563  11.977   9.335 -0.03 +0.02    +0.306 C 
DOCKED: ATOM     46  O   UNL d   1     -14.415  11.924   9.740 -0.09 -0.03    -0.251 OA
DOCKED: BRANCH  45  47
DOCKED: ATOM     47  O   UNL d   1     -16.316  10.865   9.247 +0.01 -0.03    -0.481 OA
DOCKED: ATOM     48  H   UNL d   1     -16.930  11.040   8.502 +0.03 +0.02    +0.295 HD
DOCKED: ENDBRANCH  45  47
DOCKED: ENDBRANCH  44  45
DOCKED: ENDBRANCH   8  44
DOCKED: BRANCH  22  49
DOCKED: ATOM     49  C   UNL d   1     -11.663   9.061   1.494 -0.34 -0.00    +0.048 C 
DOCKED: BRANCH  49  50
DOCKED: ATOM     50  C   UNL d   1     -12.600   8.674   0.350 -0.17 +0.02    +0.125 C 
DOCKED: BRANCH  50  51
DOCKED: ATOM     51  C   UNL d   1     -12.058   7.499  -0.413 -0.10 +0.08    +0.305 C 
DOCKED: ATOM     52  O   UNL d   1     -11.088   7.474  -1.149 -0.18 -0.05    -0.251 OA
DOCKED: BRANCH  51  53
DOCKED: ATOM     53  O   UNL d   1     -12.794   6.387  -0.214 -0.50 -0.22    -0.481 OA
DOCKED: ATOM     54  H   UNL d   1     -13.686   6.727   0.006 +0.10 +0.13    +0.295 HD
DOCKED: ENDBRANCH  51  53
DOCKED: ENDBRANCH  50  51
DOCKED: ENDBRANCH  49  50
DOCKED: ENDBRANCH  22  49
DOCKED: TORSDOF 13
DOCKED: TER
DOCKED: ENDMDL
________________________________________________________________________________


	BEGINNING GENETIC ALGORITHM DOCKING 89 of 100
Run: 89 Seed: 162267251 870853959 [ Run 89 of 100 GA/GALS ]
Beginning LAMARCKIAN GENETIC ALGORITHM (LGA), with a maximum of 25000000 energy evaluations.

Final-Value: -11.713


	FINAL GENETIC ALGORITHM DOCKED STATE
	_______________________________________________


Detailed state:  trans -18.982 -1.779 2.699 quatxyzw 0.566107 -0.126050 -0.797295 -0.167197 center 0.153 0.018 -0.028 ntor 13 143.1851 -150.7181 143.2004 -23.5184 27.9580 39.7972 -45.8616 -115.5386 3.6922 -144.5701 -75.6420 -78.9467 -10.0814
State:	-18.982  -1.779   2.699   0.574 -0.128 -0.809 -160.750    143.19 -150.72  143.20  -23.52   27.96   39.80  -45.86 -115.54    3.69 -144.57  -75.64  -78.95  -10.08

DOCKED: MODEL       89
DOCKED: USER    Run = 89
DOCKED: USER    DPF = D:/Protein_go_brrr/autodock/final/AncB/heme/dock.dpf
DOCKED: USER  
DOCKED: USER    Estimated Free Energy of Binding    =   -3.83 kcal/mol  [=(1)+(2)+(3)-(4)]
DOCKED: USER    Estimated Inhibition Constant, Ki   =    1.57 mM (millimolar)  [Temperature = 298.15 K]
DOCKED: USER    
DOCKED: USER    (1) Final Intermolecular Energy     =   -7.70 kcal/mol
DOCKED: USER        vdW + Hbond + desolv Energy     =   -7.50 kcal/mol
DOCKED: USER        Electrostatic Energy            =   -0.20 kcal/mol
DOCKED: USER    (2) Final Total Internal Energy     =   -4.01 kcal/mol
DOCKED: USER    (3) Torsional Free Energy           =   +3.88 kcal/mol
DOCKED: USER    (4) Unbound System's Energy  [=(2)] =   -4.01 kcal/mol
DOCKED: USER    
DOCKED: USER    
DOCKED: USER    NEWDPF move heme_opt.pdbqt
DOCKED: USER    NEWDPF about 0.153000 0.018000 -0.028000
DOCKED: USER    NEWDPF tran0 -18.981742 -1.779250 2.698892
DOCKED: USER    NEWDPF quaternion0 0.566107 -0.126050 -0.797295 -0.167197
DOCKED: USER    NEWDPF axisangle0 0.574190 -0.127850 -0.808678 -160.750250
DOCKED: USER    NEWDPF quat0 0.574190 -0.127850 -0.808678 -160.750250
DOCKED: USER    NEWDPF dihe0 143.19 -150.72 143.20 -23.52 27.96 39.80 -45.86 -115.54 3.69 -144.57 -75.64 -78.95 -10.08 
DOCKED: USER  keepresnum = 1 
DOCKED: USER  
DOCKED: REMARK  13 active torsions:
DOCKED: REMARK  status: ('A' for Active; 'I' for Inactive)
DOCKED: REMARK    1  A    between atoms: O_3  and  C_38 
DOCKED: REMARK    2  A    between atoms: O_4  and  C_40 
DOCKED: REMARK    3  A    between atoms: O_7  and  C_46 
DOCKED: REMARK    4  A    between atoms: O_9  and  C_48 
DOCKED: REMARK    5  A    between atoms: C_15  and  C_20 
DOCKED: REMARK    6  A    between atoms: C_16  and  C_23 
DOCKED: REMARK    7  A    between atoms: C_20  and  C_38 
DOCKED: REMARK    8  A    between atoms: C_23  and  C_40 
DOCKED: REMARK    9  A    between atoms: C_32  and  C_41 
DOCKED: REMARK   10  A    between atoms: C_37  and  C_45 
DOCKED: REMARK   11  A    between atoms: C_41  and  C_44 
DOCKED: REMARK   12  A    between atoms: C_44  and  C_46 
DOCKED: REMARK   13  A    between atoms: C_47  and  C_48 
DOCKED: USER                              x       y       z     vdW  Elec       q    Type
DOCKED: USER                           _______ _______ _______ _____ _____    ______ ____
DOCKED: ROOT
DOCKED: ATOM      1  O   UNL d   1     -17.684  -1.016   8.399 -0.07 -0.05    -0.289 OA
DOCKED: ATOM      2  O   UNL d   1     -17.285   3.711   2.577 -0.13 -0.08    -0.289 OA
DOCKED: ATOM      3  N   UNL d   1     -18.432  -1.964   5.168 -0.09 +0.02    -0.247 NA
DOCKED: ATOM      4  N   UNL d   1     -18.287   0.590   3.656 -0.16 -0.01    -0.247 NA
DOCKED: ATOM      5  N   UNL d   1     -19.600  -0.737   1.469 -0.12 -0.01    -0.354 N 
DOCKED: ATOM      6  N   UNL d   1     -19.764  -3.377   3.052 -0.07 +0.02    -0.354 N 
DOCKED: ATOM      7  C   UNL d   1     -18.587  -3.038   7.366 -0.11 +0.02    +0.084 A 
DOCKED: ATOM      8  C   UNL d   1     -16.847   2.344   4.560 -0.23 +0.01    +0.084 A 
DOCKED: ATOM      9  C   UNL d   1     -17.489   0.962   4.714 -0.25 +0.00    +0.058 A 
DOCKED: ATOM     10  C   UNL d   1     -18.802  -3.111   5.851 -0.12 +0.00    +0.058 A 
DOCKED: ATOM     11  C   UNL d   1     -18.014  -1.654   7.416 -0.08 +0.03    +0.193 A 
DOCKED: ATOM     12  C   UNL d   1     -17.947  -1.119   6.019 -0.16 +0.00    +0.109 A 
DOCKED: ATOM     13  C   UNL d   1     -17.459   2.704   3.236 -0.09 +0.04    +0.193 A 
DOCKED: ATOM     14  C   UNL d   1     -19.911  -3.055   8.135 -0.05 +0.01    +0.026 C 
DOCKED: ATOM     15  C   UNL d   1     -17.326   0.204   5.810 -0.27 +0.00    +0.055 C 
DOCKED: ATOM     16  C   UNL d   1     -15.327   2.249   4.391 -0.41 +0.00    +0.026 C 
DOCKED: ATOM     17  C   UNL d   1     -18.316   1.561   2.800 -0.15 +0.02    +0.109 A 
DOCKED: ATOM     18  C   UNL d   1     -19.229  -4.239   5.254 -0.14 -0.00    +0.050 C 
DOCKED: ATOM     19  C   UNL d   1     -19.376  -4.426   3.856 -0.14 -0.00    +0.045 A 
DOCKED: ATOM     20  C   UNL d   1     -19.652   0.558   1.024 -0.16 +0.01    +0.045 A 
DOCKED: ATOM     21  C   UNL d   1     -19.082   1.648   1.548 -0.17 +0.01    +0.057 C 
DOCKED: ATOM     22  C   UNL d   1     -20.868  -0.759  -0.392 -0.09 -0.00    -0.019 A 
DOCKED: ATOM     23  C   UNL d   1     -20.306  -1.605   0.679 -0.16 +0.00    +0.045 A 
DOCKED: ATOM     24  C   UNL d   1     -20.476   0.520  -0.183 -0.09 -0.00    -0.022 A 
DOCKED: ATOM     25  C   UNL d   1     -19.931  -3.800   1.754 -0.16 -0.00    +0.049 A 
DOCKED: ATOM     26  C   UNL d   1     -19.252  -5.549   3.053 -0.17 -0.00    -0.018 A 
DOCKED: ATOM     27  C   UNL d   1     -19.584  -5.144   1.724 -0.14 +0.00    +0.003 A 
DOCKED: ATOM     28  C   UNL d   1     -20.479  -2.933   0.770 -0.16 +0.00    +0.052 C 
DOCKED: ATOM     29  C   UNL d   1     -20.778   1.733  -0.996 -0.06 +0.01    +0.046 C 
DOCKED: ATOM     30  C   UNL d   1     -18.847  -6.916   3.491 -0.20 +0.00    +0.046 C 
DOCKED: ATOM     31  H   UNL d   1     -19.021  -0.999   2.260 -0.15 -0.02    +0.166 HD
DOCKED: ATOM     32  H   UNL d   1     -19.937  -2.441   3.398 +0.01 -0.01    +0.166 HD
DOCKED: ENDROOT
DOCKED: BRANCH   7  33
DOCKED: ATOM     33  C   UNL d   1     -17.592  -4.054   7.937 -0.11 +0.07    +0.141 C 
DOCKED: BRANCH  33  34
DOCKED: ATOM     34  C   UNL d   1     -16.275  -4.047   7.209 -0.34 +0.06    +0.306 C 
DOCKED: ATOM     35  O   UNL d   1     -15.354  -3.271   7.395 -0.32 -0.07    -0.251 OA
DOCKED: BRANCH  34  36
DOCKED: ATOM     36  O   UNL d   1     -16.188  -5.022   6.287 -0.78 +0.02    -0.481 OA
DOCKED: ATOM     37  H   UNL d   1     -16.618  -5.798   6.706 -0.22 -0.27    +0.295 HD
DOCKED: ENDBRANCH  34  36
DOCKED: ENDBRANCH  33  34
DOCKED: ENDBRANCH   7  33
DOCKED: BRANCH  27  38
DOCKED: ATOM     38  C   UNL d   1     -19.600  -6.003   0.579 -0.04 +0.00    +0.017 C 
DOCKED: ATOM     39  C   UNL d   1     -20.542  -6.002  -0.378 -0.09 +0.01    +0.092 C 
DOCKED: BRANCH  39  40
DOCKED: ATOM     40  C   UNL d   1     -20.432  -6.923  -1.511 -0.03 +0.05    +0.330 C 
DOCKED: ATOM     41  O   UNL d   1     -20.032  -8.072  -1.500 -0.04 -0.04    -0.246 OA
DOCKED: BRANCH  40  42
DOCKED: ATOM     42  O   UNL d   1     -20.855  -6.325  -2.635 -0.01 -0.06    -0.477 OA
DOCKED: ATOM     43  H   UNL d   1     -20.661  -5.377  -2.484 +0.03 +0.04    +0.295 HD
DOCKED: ENDBRANCH  40  42
DOCKED: ENDBRANCH  39  40
DOCKED: ENDBRANCH  27  38
DOCKED: BRANCH   8  44
DOCKED: ATOM     44  C   UNL d   1     -17.222   3.370   5.635 -0.12 +0.02    +0.141 C 
DOCKED: BRANCH  44  45
DOCKED: ATOM     45  C   UNL d   1     -16.324   4.579   5.642 -0.09 +0.04    +0.306 C 
DOCKED: ATOM     46  O   UNL d   1     -15.294   4.716   6.279 -0.20 -0.04    -0.251 OA
DOCKED: BRANCH  45  47
DOCKED: ATOM     47  O   UNL d   1     -16.789   5.570   4.860 +0.01 -0.06    -0.481 OA
DOCKED: ATOM     48  H   UNL d   1     -17.172   5.112   4.081 +0.07 +0.05    +0.295 HD
DOCKED: ENDBRANCH  45  47
DOCKED: ENDBRANCH  44  45
DOCKED: ENDBRANCH   8  44
DOCKED: BRANCH  22  49
DOCKED: ATOM     49  C   UNL d   1     -21.740  -1.271  -1.500 -0.04 +0.01    +0.048 C 
DOCKED: BRANCH  49  50
DOCKED: ATOM     50  C   UNL d   1     -20.928  -1.623  -2.746 -0.06 +0.01    +0.125 C 
DOCKED: BRANCH  50  51
DOCKED: ATOM     51  C   UNL d   1     -20.793  -3.112  -2.896 -0.05 +0.05    +0.305 C 
DOCKED: ATOM     52  O   UNL d   1     -19.765  -3.764  -2.950 -0.56 -0.07    -0.251 OA
DOCKED: BRANCH  51  53
DOCKED: ATOM     53  O   UNL d   1     -21.993  -3.721  -2.985 -0.01 -0.06    -0.481 OA
DOCKED: ATOM     54  H   UNL d   1     -21.801  -4.559  -3.455 +0.02 +0.04    +0.295 HD
DOCKED: ENDBRANCH  51  53
DOCKED: ENDBRANCH  50  51
DOCKED: ENDBRANCH  49  50
DOCKED: ENDBRANCH  22  49
DOCKED: TORSDOF 13
DOCKED: TER
DOCKED: ENDMDL
________________________________________________________________________________


	BEGINNING GENETIC ALGORITHM DOCKING 90 of 100
Run: 90 Seed: 144867847 2101022217 [ Run 90 of 100 GA/GALS ]
Beginning LAMARCKIAN GENETIC ALGORITHM (LGA), with a maximum of 25000000 energy evaluations.

Final-Value: -11.478


	FINAL GENETIC ALGORITHM DOCKED STATE
	_______________________________________________


Detailed state:  trans 16.776 -6.602 -2.144 quatxyzw -0.581984 0.462262 0.618199 -0.255809 center 0.153 0.018 -0.028 ntor 13 46.1657 -167.5067 -176.4239 -47.2926 -10.9709 -11.3542 142.3719 -81.6556 -153.6038 -10.5595 -101.0323 -7.3877 -16.7467
State:	 16.776  -6.602  -2.144  -0.602  0.478  0.639 -150.357     46.17 -167.51 -176.42  -47.29  -10.97  -11.35  142.37  -81.66 -153.60  -10.56 -101.03   -7.39  -16.75

DOCKED: MODEL       90
DOCKED: USER    Run = 90
DOCKED: USER    DPF = D:/Protein_go_brrr/autodock/final/AncB/heme/dock.dpf
DOCKED: USER  
DOCKED: USER    Estimated Free Energy of Binding    =   -3.67 kcal/mol  [=(1)+(2)+(3)-(4)]
DOCKED: USER    Estimated Inhibition Constant, Ki   =    2.04 mM (millimolar)  [Temperature = 298.15 K]
DOCKED: USER    
DOCKED: USER    (1) Final Intermolecular Energy     =   -7.55 kcal/mol
DOCKED: USER        vdW + Hbond + desolv Energy     =   -7.18 kcal/mol
DOCKED: USER        Electrostatic Energy            =   -0.37 kcal/mol
DOCKED: USER    (2) Final Total Internal Energy     =   -3.93 kcal/mol
DOCKED: USER    (3) Torsional Free Energy           =   +3.88 kcal/mol
DOCKED: USER    (4) Unbound System's Energy  [=(2)] =   -3.93 kcal/mol
DOCKED: USER    
DOCKED: USER    
DOCKED: USER    NEWDPF move heme_opt.pdbqt
DOCKED: USER    NEWDPF about 0.153000 0.018000 -0.028000
DOCKED: USER    NEWDPF tran0 16.775809 -6.601619 -2.144375
DOCKED: USER    NEWDPF quaternion0 -0.581984 0.462262 0.618199 -0.255809
DOCKED: USER    NEWDPF axisangle0 -0.602014 0.478172 0.639477 -150.356908
DOCKED: USER    NEWDPF quat0 -0.602014 0.478172 0.639477 -150.356908
DOCKED: USER    NEWDPF dihe0 46.17 -167.51 -176.42 -47.29 -10.97 -11.35 142.37 -81.66 -153.60 -10.56 -101.03 -7.39 -16.75 
DOCKED: USER  keepresnum = 1 
DOCKED: USER  
DOCKED: REMARK  13 active torsions:
DOCKED: REMARK  status: ('A' for Active; 'I' for Inactive)
DOCKED: REMARK    1  A    between atoms: O_3  and  C_38 
DOCKED: REMARK    2  A    between atoms: O_4  and  C_40 
DOCKED: REMARK    3  A    between atoms: O_7  and  C_46 
DOCKED: REMARK    4  A    between atoms: O_9  and  C_48 
DOCKED: REMARK    5  A    between atoms: C_15  and  C_20 
DOCKED: REMARK    6  A    between atoms: C_16  and  C_23 
DOCKED: REMARK    7  A    between atoms: C_20  and  C_38 
DOCKED: REMARK    8  A    between atoms: C_23  and  C_40 
DOCKED: REMARK    9  A    between atoms: C_32  and  C_41 
DOCKED: REMARK   10  A    between atoms: C_37  and  C_45 
DOCKED: REMARK   11  A    between atoms: C_41  and  C_44 
DOCKED: REMARK   12  A    between atoms: C_44  and  C_46 
DOCKED: REMARK   13  A    between atoms: C_47  and  C_48 
DOCKED: USER                              x       y       z     vdW  Elec       q    Type
DOCKED: USER                           _______ _______ _______ _____ _____    ______ ____
DOCKED: ROOT
DOCKED: ATOM      1  O   UNL d   1      16.096  -5.540   3.615 -0.04 -0.01    -0.289 OA
DOCKED: ATOM      2  O   UNL d   1      22.188  -5.244  -0.765 -0.00 -0.02    -0.289 OA
DOCKED: ATOM      3  N   UNL d   1      16.037  -6.391   0.273 -0.13 -0.00    -0.247 NA
DOCKED: ATOM      4  N   UNL d   1      18.766  -5.679  -0.661 -0.09 -0.02    -0.247 NA
DOCKED: ATOM      5  N   UNL d   1      17.813  -5.949  -3.360 -0.13 -0.05    -0.354 N 
DOCKED: ATOM      6  N   UNL d   1      14.979  -6.667  -2.383 -0.13 +0.02    -0.354 N 
DOCKED: ATOM      7  C   UNL d   1      14.340  -6.141   2.024 -0.20 -0.00    +0.084 A 
DOCKED: ATOM      8  C   UNL d   1      20.555  -5.687   1.003 -0.02 +0.01    +0.084 A 
DOCKED: ATOM      9  C   UNL d   1      19.064  -5.817   0.676 -0.08 +0.00    +0.058 A 
DOCKED: ATOM     10  C   UNL d   1      14.685  -6.463   0.567 -0.12 -0.00    +0.058 A 
DOCKED: ATOM     11  C   UNL d   1      15.737  -5.892   2.506 -0.10 +0.00    +0.193 A 
DOCKED: ATOM     12  C   UNL d   1      16.677  -6.100   1.358 -0.12 +0.00    +0.109 A 
DOCKED: ATOM     13  C   UNL d   1      21.044  -5.412  -0.391 -0.02 +0.02    +0.193 A 
DOCKED: ATOM     14  C   UNL d   1      13.534  -4.846   2.150 -0.36 +0.00    +0.026 C 
DOCKED: ATOM     15  C   UNL d   1      18.127  -5.999   1.619 -0.09 +0.00    +0.055 C 
DOCKED: ATOM     16  C   UNL d   1      21.150  -7.015   1.481 -0.01 +0.00    +0.026 C 
DOCKED: ATOM     17  C   UNL d   1      19.861  -5.426  -1.304 -0.08 +0.01    +0.109 A 
DOCKED: ATOM     18  C   UNL d   1      13.744  -6.867  -0.306 -0.28 -0.01    +0.050 C 
DOCKED: ATOM     19  C   UNL d   1      13.982  -7.266  -1.646 -0.27 -0.01    +0.045 A 
DOCKED: ATOM     20  C   UNL d   1      19.041  -5.389  -3.599 -0.15 +0.01    +0.045 A 
DOCKED: ATOM     21  C   UNL d   1      20.031  -5.142  -2.736 -0.10 +0.01    +0.057 C 
DOCKED: ATOM     22  C   UNL d   1      17.884  -5.498  -5.566 -0.17 -0.00    -0.019 A 
DOCKED: ATOM     23  C   UNL d   1      17.043  -6.055  -4.488 -0.20 +0.01    +0.045 A 
DOCKED: ATOM     24  C   UNL d   1      19.066  -5.107  -5.034 -0.14 -0.00    -0.022 A 
DOCKED: ATOM     25  C   UNL d   1      14.974  -7.138  -3.675 -0.24 -0.00    +0.049 A 
DOCKED: ATOM     26  C   UNL d   1      13.337  -8.176  -2.470 -0.28 +0.01    -0.018 A 
DOCKED: ATOM     27  C   UNL d   1      13.981  -8.105  -3.744 -0.25 -0.00    +0.003 A 
DOCKED: ATOM     28  C   UNL d   1      15.811  -6.556  -4.666 -0.18 +0.01    +0.052 C 
DOCKED: ATOM     29  C   UNL d   1      20.242  -4.498  -5.719 -0.08 +0.01    +0.046 C 
DOCKED: ATOM     30  C   UNL d   1      12.195  -9.059  -2.099 -0.24 -0.04    +0.046 C 
DOCKED: ATOM     31  H   UNL d   1      17.568  -6.309  -2.444 +0.03 +0.02    +0.166 HD
DOCKED: ATOM     32  H   UNL d   1      15.593  -5.950  -2.015 +0.03 +0.00    +0.166 HD
DOCKED: ENDROOT
DOCKED: BRANCH   7  33
DOCKED: ATOM     33  C   UNL d   1      13.694  -7.285   2.814 -0.14 -0.02    +0.141 C 
DOCKED: BRANCH  33  34
DOCKED: ATOM     34  C   UNL d   1      12.222  -7.073   3.041 -0.16 -0.10    +0.306 C 
DOCKED: ATOM     35  O   UNL d   1      11.417  -6.672   2.218 -0.25 +0.12    -0.251 OA
DOCKED: BRANCH  34  36
DOCKED: ATOM     36  O   UNL d   1      11.841  -7.381   4.293 -0.22 +0.12    -0.481 OA
DOCKED: ATOM     37  H   UNL d   1      11.006  -7.883   4.181 -0.34 -0.27    +0.295 HD
DOCKED: ENDBRANCH  34  36
DOCKED: ENDBRANCH  33  34
DOCKED: ENDBRANCH   7  33
DOCKED: BRANCH  27  38
DOCKED: ATOM     38  C   UNL d   1      13.616  -8.872  -4.897 -0.18 -0.01    +0.017 C 
DOCKED: ATOM     39  C   UNL d   1      14.457  -9.255  -5.870 -0.16 +0.01    +0.092 C 
DOCKED: BRANCH  39  40
DOCKED: ATOM     40  C   UNL d   1      13.959 -10.056  -6.992 -0.03 +0.15    +0.330 C 
DOCKED: ATOM     41  O   UNL d   1      12.892 -10.635  -7.077 -0.68 -0.06    -0.246 OA
DOCKED: BRANCH  40  42
DOCKED: ATOM     42  O   UNL d   1      14.863 -10.074  -7.983 -0.55 -0.37    -0.477 OA
DOCKED: ATOM     43  H   UNL d   1      15.672  -9.708  -7.570 +0.04 +0.15    +0.295 HD
DOCKED: ENDBRANCH  40  42
DOCKED: ENDBRANCH  39  40
DOCKED: ENDBRANCH  27  38
DOCKED: BRANCH   8  44
DOCKED: ATOM     44  C   UNL d   1      20.925  -4.541   1.951 -0.02 +0.01    +0.141 C 
DOCKED: BRANCH  44  45
DOCKED: ATOM     45  C   UNL d   1      20.549  -3.184   1.418 -0.03 +0.02    +0.306 C 
DOCKED: ATOM     46  O   UNL d   1      19.553  -2.542   1.703 -0.06 -0.02    -0.251 OA
DOCKED: BRANCH  45  47
DOCKED: ATOM     47  O   UNL d   1      21.441  -2.716   0.526 -0.00 -0.04    -0.481 OA
DOCKED: ATOM     48  H   UNL d   1      22.099  -3.438   0.432 +0.01 +0.02    +0.295 HD
DOCKED: ENDBRANCH  45  47
DOCKED: ENDBRANCH  44  45
DOCKED: ENDBRANCH   8  44
DOCKED: BRANCH  22  49
DOCKED: ATOM     49  C   UNL d   1      17.453  -5.387  -6.999 -0.15 +0.02    +0.048 C 
DOCKED: BRANCH  49  50
DOCKED: ATOM     50  C   UNL d   1      18.029  -6.514  -7.855 -0.07 +0.04    +0.125 C 
DOCKED: BRANCH  50  51
DOCKED: ATOM     51  C   UNL d   1      17.236  -7.778  -7.682 -0.04 +0.12    +0.305 C 
DOCKED: ATOM     52  O   UNL d   1      17.396  -8.647  -6.844 -0.02 -0.06    -0.251 OA
DOCKED: BRANCH  51  53
DOCKED: ATOM     53  O   UNL d   1      16.261  -7.892  -8.607 +0.07 -0.37    -0.481 OA
DOCKED: ATOM     54  H   UNL d   1      16.356  -8.809  -8.941 +0.03 +0.21    +0.295 HD
DOCKED: ENDBRANCH  51  53
DOCKED: ENDBRANCH  50  51
DOCKED: ENDBRANCH  49  50
DOCKED: ENDBRANCH  22  49
DOCKED: TORSDOF 13
DOCKED: TER
DOCKED: ENDMDL
________________________________________________________________________________


	BEGINNING GENETIC ALGORITHM DOCKING 91 of 100
Run: 91 Seed: 466041637 2138196800 [ Run 91 of 100 GA/GALS ]
Beginning LAMARCKIAN GENETIC ALGORITHM (LGA), with a maximum of 25000000 energy evaluations.

Final-Value: -13.292


	FINAL GENETIC ALGORITHM DOCKED STATE
	_______________________________________________


Detailed state:  trans -1.057 16.899 10.406 quatxyzw -0.381044 -0.666555 0.426421 0.478200 center 0.153 0.018 -0.028 ntor 13 118.2554 124.2571 170.6799 8.1629 -132.1381 70.0285 122.1408 -2.7376 27.0158 108.6331 -56.1570 -91.7628 11.2161
State:	 -1.057  16.899  10.406  -0.434 -0.759  0.486 122.864    118.26  124.26  170.68    8.16 -132.14   70.03  122.14   -2.74   27.02  108.63  -56.16  -91.76   11.22

DOCKED: MODEL       91
DOCKED: USER    Run = 91
DOCKED: USER    DPF = D:/Protein_go_brrr/autodock/final/AncB/heme/dock.dpf
DOCKED: USER  
DOCKED: USER    Estimated Free Energy of Binding    =   -5.63 kcal/mol  [=(1)+(2)+(3)-(4)]
DOCKED: USER    Estimated Inhibition Constant, Ki   =   74.75 uM (micromolar)  [Temperature = 298.15 K]
DOCKED: USER    
DOCKED: USER    (1) Final Intermolecular Energy     =   -9.51 kcal/mol
DOCKED: USER        vdW + Hbond + desolv Energy     =   -8.92 kcal/mol
DOCKED: USER        Electrostatic Energy            =   -0.59 kcal/mol
DOCKED: USER    (2) Final Total Internal Energy     =   -3.78 kcal/mol
DOCKED: USER    (3) Torsional Free Energy           =   +3.88 kcal/mol
DOCKED: USER    (4) Unbound System's Energy  [=(2)] =   -3.78 kcal/mol
DOCKED: USER    
DOCKED: USER    
DOCKED: USER    NEWDPF move heme_opt.pdbqt
DOCKED: USER    NEWDPF about 0.153000 0.018000 -0.028000
DOCKED: USER    NEWDPF tran0 -1.057237 16.898978 10.406262
DOCKED: USER    NEWDPF quaternion0 -0.381044 -0.666555 0.426421 0.478200
DOCKED: USER    NEWDPF axisangle0 -0.433867 -0.758957 0.485535 122.864208
DOCKED: USER    NEWDPF quat0 -0.433867 -0.758957 0.485535 122.864208
DOCKED: USER    NEWDPF dihe0 118.26 124.26 170.68 8.16 -132.14 70.03 122.14 -2.74 27.02 108.63 -56.16 -91.76 11.22 
DOCKED: USER  keepresnum = 1 
DOCKED: USER  
DOCKED: REMARK  13 active torsions:
DOCKED: REMARK  status: ('A' for Active; 'I' for Inactive)
DOCKED: REMARK    1  A    between atoms: O_3  and  C_38 
DOCKED: REMARK    2  A    between atoms: O_4  and  C_40 
DOCKED: REMARK    3  A    between atoms: O_7  and  C_46 
DOCKED: REMARK    4  A    between atoms: O_9  and  C_48 
DOCKED: REMARK    5  A    between atoms: C_15  and  C_20 
DOCKED: REMARK    6  A    between atoms: C_16  and  C_23 
DOCKED: REMARK    7  A    between atoms: C_20  and  C_38 
DOCKED: REMARK    8  A    between atoms: C_23  and  C_40 
DOCKED: REMARK    9  A    between atoms: C_32  and  C_41 
DOCKED: REMARK   10  A    between atoms: C_37  and  C_45 
DOCKED: REMARK   11  A    between atoms: C_41  and  C_44 
DOCKED: REMARK   12  A    between atoms: C_44  and  C_46 
DOCKED: REMARK   13  A    between atoms: C_47  and  C_48 
DOCKED: USER                              x       y       z     vdW  Elec       q    Type
DOCKED: USER                           _______ _______ _______ _____ _____    ______ ____
DOCKED: ROOT
DOCKED: ATOM      1  O   UNL d   1       2.108  16.317  15.346 -0.12 +0.02    -0.289 OA
DOCKED: ATOM      2  O   UNL d   1      -5.318  16.430  14.235 -0.08 +0.18    -0.289 OA
DOCKED: ATOM      3  N   UNL d   1       0.690  16.824  12.243 -0.14 +0.09    -0.247 NA
DOCKED: ATOM      4  N   UNL d   1      -2.209  16.403  12.739 -0.15 +0.10    -0.247 NA
DOCKED: ATOM      5  N   UNL d   1      -2.583  16.279   9.891 -0.03 +0.14    -0.354 N 
DOCKED: ATOM      6  N   UNL d   1       0.429  16.696   9.386 -0.12 +0.15    -0.354 N 
DOCKED: ATOM      7  C   UNL d   1       2.977  16.517  13.070 -0.14 -0.02    +0.084 A 
DOCKED: ATOM      8  C   UNL d   1      -3.027  16.815  15.004 -0.13 -0.05    +0.084 A 
DOCKED: ATOM      9  C   UNL d   1      -1.847  16.709  14.032 -0.18 -0.02    +0.058 A 
DOCKED: ATOM     10  C   UNL d   1       2.027  16.741  11.890 -0.20 -0.02    +0.058 A 
DOCKED: ATOM     11  C   UNL d   1       1.942  16.508  14.155 -0.12 -0.03    +0.193 A 
DOCKED: ATOM     12  C   UNL d   1       0.600  16.730  13.529 -0.18 -0.03    +0.109 A 
DOCKED: ATOM     13  C   UNL d   1      -4.121  16.475  14.032 -0.09 -0.11    +0.193 A 
DOCKED: ATOM     14  C   UNL d   1       3.649  15.143  13.015 -0.22 -0.01    +0.026 C 
DOCKED: ATOM     15  C   UNL d   1      -0.571  16.852  14.421 -0.20 -0.02    +0.055 C 
DOCKED: ATOM     16  C   UNL d   1      -3.232  18.251  15.494 -0.05 -0.01    +0.026 C 
DOCKED: ATOM     17  C   UNL d   1      -3.492  16.241  12.697 -0.18 -0.04    +0.109 A 
DOCKED: ATOM     18  C   UNL d   1       2.491  16.927  10.640 -0.17 -0.02    +0.050 C 
DOCKED: ATOM     19  C   UNL d   1       1.695  17.223   9.503 -0.19 -0.02    +0.045 A 
DOCKED: ATOM     20  C   UNL d   1      -3.823  15.871  10.309 -0.23 -0.01    +0.045 A 
DOCKED: ATOM     21  C   UNL d   1      -4.322  15.845  11.549 -0.24 -0.01    +0.057 C 
DOCKED: ATOM     22  C   UNL d   1      -3.694  15.630   8.042 -0.28 +0.00    -0.019 A 
DOCKED: ATOM     23  C   UNL d   1      -2.411  16.169   8.537 -0.23 -0.01    +0.045 A 
DOCKED: ATOM     24  C   UNL d   1      -4.526  15.457   9.096 -0.28 +0.00    -0.022 A 
DOCKED: ATOM     25  C   UNL d   1      -0.125  17.035   8.173 -0.22 -0.02    +0.049 A 
DOCKED: ATOM     26  C   UNL d   1       1.958  17.952   8.354 -0.10 +0.01    -0.018 A 
DOCKED: ATOM     27  C   UNL d   1       0.797  17.847   7.526 -0.14 -0.00    +0.003 A 
DOCKED: ATOM     28  C   UNL d   1      -1.365  16.479   7.756 -0.17 -0.02    +0.052 C 
DOCKED: ATOM     29  C   UNL d   1      -5.928  14.950   9.104 -0.35 -0.00    +0.046 C 
DOCKED: ATOM     30  C   UNL d   1       3.207  18.704   8.043 -0.04 -0.01    +0.046 C 
DOCKED: ATOM     31  H   UNL d   1      -1.918  16.689  10.537 -0.25 -0.08    +0.166 HD
DOCKED: ATOM     32  H   UNL d   1      -0.001  16.109  10.090 -0.45 -0.13    +0.166 HD
DOCKED: ENDROOT
DOCKED: BRANCH   7  33
DOCKED: ATOM     33  C   UNL d   1       3.999  17.634  13.311 -0.03 -0.02    +0.141 C 
DOCKED: BRANCH  33  34
DOCKED: ATOM     34  C   UNL d   1       3.383  18.859  13.931 +0.00 -0.03    +0.306 C 
DOCKED: ATOM     35  O   UNL d   1       2.726  19.706  13.351 -0.00 +0.02    -0.251 OA
DOCKED: BRANCH  34  36
DOCKED: ATOM     36  O   UNL d   1       3.627  18.950  15.250 +0.01 +0.03    -0.481 OA
DOCKED: ATOM     37  H   UNL d   1       3.170  18.174  15.640 +0.03 -0.02    +0.295 HD
DOCKED: ENDBRANCH  34  36
DOCKED: ENDBRANCH  33  34
DOCKED: ENDBRANCH   7  33
DOCKED: BRANCH  27  38
DOCKED: ATOM     38  C   UNL d   1       0.650  18.442   6.232 -0.10 -0.01    +0.017 C 
DOCKED: ATOM     39  C   UNL d   1       0.331  17.783   5.108 -0.17 -0.08    +0.092 C 
DOCKED: BRANCH  39  40
DOCKED: ATOM     40  C   UNL d   1       0.194  18.515   3.846 +0.01 -0.46    +0.330 C 
DOCKED: ATOM     41  O   UNL d   1       1.070  19.065   3.207 -0.06 +0.33    -0.246 OA
DOCKED: BRANCH  40  42
DOCKED: ATOM     42  O   UNL d   1      -1.086  18.504   3.443 -0.04 +0.78    -0.477 OA
DOCKED: ATOM     43  H   UNL d   1      -1.312  17.552   3.404 -0.42 -0.75    +0.295 HD
DOCKED: ENDBRANCH  40  42
DOCKED: ENDBRANCH  39  40
DOCKED: ENDBRANCH  27  38
DOCKED: BRANCH   8  44
DOCKED: ATOM     44  C   UNL d   1      -3.007  15.827  16.175 +0.00 -0.16    +0.141 C 
DOCKED: BRANCH  44  45
DOCKED: ATOM     45  C   UNL d   1      -1.781  15.953  17.039 -0.22 -0.18    +0.306 C 
DOCKED: ATOM     46  O   UNL d   1      -1.573  16.805  17.885 -0.09 +0.09    -0.251 OA
DOCKED: BRANCH  45  47
DOCKED: ATOM     47  O   UNL d   1      -0.862  15.008  16.770 -0.45 +0.16    -0.481 OA
DOCKED: ATOM     48  H   UNL d   1      -1.322  14.377  16.177 -0.42 -0.20    +0.295 HD
DOCKED: ENDBRANCH  45  47
DOCKED: ENDBRANCH  44  45
DOCKED: ENDBRANCH   8  44
DOCKED: BRANCH  22  49
DOCKED: ATOM     49  C   UNL d   1      -3.979  15.323   6.601 -0.33 -0.01    +0.048 C 
DOCKED: BRANCH  49  50
DOCKED: ATOM     50  C   UNL d   1      -4.150  16.596   5.771 -0.16 -0.05    +0.125 C 
DOCKED: BRANCH  50  51
DOCKED: ATOM     51  C   UNL d   1      -3.206  16.606   4.603 -0.13 -0.26    +0.305 C 
DOCKED: ATOM     52  O   UNL d   1      -2.291  15.832   4.380 -0.20 +0.31    -0.251 OA
DOCKED: BRANCH  51  53
DOCKED: ATOM     53  O   UNL d   1      -3.460  17.625   3.758 -0.04 +0.50    -0.481 OA
DOCKED: ATOM     54  H   UNL d   1      -2.875  17.450   2.991 -0.45 -0.60    +0.295 HD
DOCKED: ENDBRANCH  51  53
DOCKED: ENDBRANCH  50  51
DOCKED: ENDBRANCH  49  50
DOCKED: ENDBRANCH  22  49
DOCKED: TORSDOF 13
DOCKED: TER
DOCKED: ENDMDL
________________________________________________________________________________


	BEGINNING GENETIC ALGORITHM DOCKING 92 of 100
Run: 92 Seed: 43567906 1456859882 [ Run 92 of 100 GA/GALS ]
Beginning LAMARCKIAN GENETIC ALGORITHM (LGA), with a maximum of 25000000 energy evaluations.

Final-Value: -11.231


	FINAL GENETIC ALGORITHM DOCKED STATE
	_______________________________________________


Detailed state:  trans -16.226 4.059 9.244 quatxyzw 0.358149 0.608341 -0.101973 0.700894 center 0.153 0.018 -0.028 ntor 13 -112.1928 130.2554 180.0000 -25.2109 67.6200 -59.2533 -61.0042 -47.7864 18.0559 -150.8700 -58.4376 -179.7938 -155.6870
State:	-16.226   4.059   9.244   0.502  0.853 -0.143 91.003   -112.19  130.26  180.00  -25.21   67.62  -59.25  -61.00  -47.79   18.06 -150.87  -58.44 -179.79 -155.69

DOCKED: MODEL       92
DOCKED: USER    Run = 92
DOCKED: USER    DPF = D:/Protein_go_brrr/autodock/final/AncB/heme/dock.dpf
DOCKED: USER  
DOCKED: USER    Estimated Free Energy of Binding    =   -5.32 kcal/mol  [=(1)+(2)+(3)-(4)]
DOCKED: USER    Estimated Inhibition Constant, Ki   =  126.48 uM (micromolar)  [Temperature = 298.15 K]
DOCKED: USER    
DOCKED: USER    (1) Final Intermolecular Energy     =   -9.20 kcal/mol
DOCKED: USER        vdW + Hbond + desolv Energy     =   -8.95 kcal/mol
DOCKED: USER        Electrostatic Energy            =   -0.24 kcal/mol
DOCKED: USER    (2) Final Total Internal Energy     =   -2.04 kcal/mol
DOCKED: USER    (3) Torsional Free Energy           =   +3.88 kcal/mol
DOCKED: USER    (4) Unbound System's Energy  [=(2)] =   -2.04 kcal/mol
DOCKED: USER    
DOCKED: USER    
DOCKED: USER    NEWDPF move heme_opt.pdbqt
DOCKED: USER    NEWDPF about 0.153000 0.018000 -0.028000
DOCKED: USER    NEWDPF tran0 -16.226401 4.059300 9.243546
DOCKED: USER    NEWDPF quaternion0 0.358149 0.608341 -0.101973 0.700894
DOCKED: USER    NEWDPF axisangle0 0.502126 0.852895 -0.142966 91.002506
DOCKED: USER    NEWDPF quat0 0.502126 0.852895 -0.142966 91.002506
DOCKED: USER    NEWDPF dihe0 -112.19 130.26 180.00 -25.21 67.62 -59.25 -61.00 -47.79 18.06 -150.87 -58.44 -179.79 -155.69 
DOCKED: USER  keepresnum = 1 
DOCKED: USER  
DOCKED: REMARK  13 active torsions:
DOCKED: REMARK  status: ('A' for Active; 'I' for Inactive)
DOCKED: REMARK    1  A    between atoms: O_3  and  C_38 
DOCKED: REMARK    2  A    between atoms: O_4  and  C_40 
DOCKED: REMARK    3  A    between atoms: O_7  and  C_46 
DOCKED: REMARK    4  A    between atoms: O_9  and  C_48 
DOCKED: REMARK    5  A    between atoms: C_15  and  C_20 
DOCKED: REMARK    6  A    between atoms: C_16  and  C_23 
DOCKED: REMARK    7  A    between atoms: C_20  and  C_38 
DOCKED: REMARK    8  A    between atoms: C_23  and  C_40 
DOCKED: REMARK    9  A    between atoms: C_32  and  C_41 
DOCKED: REMARK   10  A    between atoms: C_37  and  C_45 
DOCKED: REMARK   11  A    between atoms: C_41  and  C_44 
DOCKED: REMARK   12  A    between atoms: C_44  and  C_46 
DOCKED: REMARK   13  A    between atoms: C_47  and  C_48 
DOCKED: USER                              x       y       z     vdW  Elec       q    Type
DOCKED: USER                           _______ _______ _______ _____ _____    ______ ____
DOCKED: ROOT
DOCKED: ATOM      1  O   UNL d   1     -17.673   2.278   3.813 -0.14 -0.04    -0.289 OA
DOCKED: ATOM      2  O   UNL d   1     -16.819  -1.577  10.201 -0.04 -0.12    -0.289 OA
DOCKED: ATOM      3  N   UNL d   1     -16.670   3.753   6.765 -0.08 -0.03    -0.247 NA
DOCKED: ATOM      4  N   UNL d   1     -16.912   1.551   8.746 -0.04 -0.02    -0.247 NA
DOCKED: ATOM      5  N   UNL d   1     -16.651   3.518  10.826 -0.05 +0.04    -0.354 N 
DOCKED: ATOM      6  N   UNL d   1     -16.421   5.798   8.765 -0.08 -0.02    -0.354 N 
DOCKED: ATOM      7  C   UNL d   1     -17.263   4.577   4.534 -0.08 +0.01    +0.084 A 
DOCKED: ATOM      8  C   UNL d   1     -16.720  -0.736   7.904 -0.22 +0.01    +0.084 A 
DOCKED: ATOM      9  C   UNL d   1     -16.799   0.768   7.618 -0.15 +0.00    +0.058 A 
DOCKED: ATOM     10  C   UNL d   1     -16.818   4.876   5.969 -0.11 +0.01    +0.058 A 
DOCKED: ATOM     11  C   UNL d   1     -17.323   3.084   4.655 -0.11 +0.02    +0.193 A 
DOCKED: ATOM     12  C   UNL d   1     -16.917   2.706   6.046 -0.14 +0.01    +0.109 A 
DOCKED: ATOM     13  C   UNL d   1     -16.846  -0.663   9.400 -0.17 +0.04    +0.193 A 
DOCKED: ATOM     14  C   UNL d   1     -18.670   5.107   4.247 -0.04 +0.00    +0.026 C 
DOCKED: ATOM     15  C   UNL d   1     -16.810   1.270   6.374 -0.25 +0.00    +0.055 C 
DOCKED: ATOM     16  C   UNL d   1     -15.343  -1.308   7.553 -0.30 +0.00    +0.026 C 
DOCKED: ATOM     17  C   UNL d   1     -16.963   0.777   9.782 -0.19 +0.01    +0.109 A 
DOCKED: ATOM     18  C   UNL d   1     -16.517   6.127   6.366 -0.12 +0.00    +0.050 C 
DOCKED: ATOM     19  C   UNL d   1     -16.019   6.487   7.644 -0.17 +0.00    +0.045 A 
DOCKED: ATOM     20  C   UNL d   1     -17.006   2.426  11.577 -0.24 -0.00    +0.045 A 
DOCKED: ATOM     21  C   UNL d   1     -17.144   1.154  11.191 -0.27 +0.00    +0.057 C 
DOCKED: ATOM     22  C   UNL d   1     -16.973   4.270  12.925 -0.22 -0.00    -0.019 A 
DOCKED: ATOM     23  C   UNL d   1     -16.605   4.677  11.554 -0.19 -0.00    +0.045 A 
DOCKED: ATOM     24  C   UNL d   1     -17.207   2.937  12.932 -0.23 -0.00    -0.022 A 
DOCKED: ATOM     25  C   UNL d   1     -15.890   6.369   9.899 -0.21 +0.00    +0.049 A 
DOCKED: ATOM     26  C   UNL d   1     -15.176   7.508   8.055 -0.24 -0.00    -0.018 A 
DOCKED: ATOM     27  C   UNL d   1     -15.083   7.416   9.478 -0.29 +0.00    +0.003 A 
DOCKED: ATOM     28  C   UNL d   1     -16.288   5.929  11.191 -0.23 +0.00    +0.052 C 
DOCKED: ATOM     29  C   UNL d   1     -17.595   2.064  14.077 -0.23 +0.00    +0.046 C 
DOCKED: ATOM     30  C   UNL d   1     -14.496   8.507   7.182 -0.12 +0.00    +0.046 C 
DOCKED: ATOM     31  H   UNL d   1     -16.380   3.421   9.854 -0.25 -0.02    +0.166 HD
DOCKED: ATOM     32  H   UNL d   1     -17.055   5.008   8.741 +0.03 +0.01    +0.166 HD
DOCKED: ENDROOT
DOCKED: BRANCH   7  33
DOCKED: ATOM     33  C   UNL d   1     -16.273   4.989   3.440 -0.15 +0.03    +0.141 C 
DOCKED: BRANCH  33  34
DOCKED: ATOM     34  C   UNL d   1     -14.991   4.202   3.493 -0.24 +0.06    +0.306 C 
DOCKED: ATOM     35  O   UNL d   1     -14.529   3.518   2.595 -0.33 -0.06    -0.251 OA
DOCKED: BRANCH  34  36
DOCKED: ATOM     36  O   UNL d   1     -14.358   4.320   4.673 -0.13 -0.07    -0.481 OA
DOCKED: ATOM     37  H   UNL d   1     -14.963   3.898   5.321 +0.16 +0.04    +0.295 HD
DOCKED: ENDBRANCH  34  36
DOCKED: ENDBRANCH  33  34
DOCKED: ENDBRANCH   7  33
DOCKED: BRANCH  27  38
DOCKED: ATOM     38  C   UNL d   1     -14.321   8.295  10.314 -0.27 +0.00    +0.017 C 
DOCKED: ATOM     39  C   UNL d   1     -14.172   9.614  10.117 -0.29 +0.01    +0.092 C 
DOCKED: BRANCH  39  40
DOCKED: ATOM     40  C   UNL d   1     -13.378  10.407  11.060 -0.18 +0.08    +0.330 C 
DOCKED: ATOM     41  O   UNL d   1     -13.583  10.576  12.247 -0.16 -0.07    -0.246 OA
DOCKED: BRANCH  40  42
DOCKED: ATOM     42  O   UNL d   1     -12.327  10.956  10.430 -0.19 -0.13    -0.477 OA
DOCKED: ATOM     43  H   UNL d   1     -11.922  10.204   9.951 -0.44 -0.00    +0.295 HD
DOCKED: ENDBRANCH  40  42
DOCKED: ENDBRANCH  39  40
DOCKED: ENDBRANCH  27  38
DOCKED: BRANCH   8  44
DOCKED: ATOM     44  C   UNL d   1     -17.844  -1.583   7.299 -0.14 +0.02    +0.141 C 
DOCKED: BRANCH  44  45
DOCKED: ATOM     45  C   UNL d   1     -17.487  -3.041   7.175 -0.17 +0.06    +0.306 C 
DOCKED: ATOM     46  O   UNL d   1     -17.199  -3.634   6.150 -0.27 -0.01    -0.251 OA
DOCKED: BRANCH  45  47
DOCKED: ATOM     47  O   UNL d   1     -17.540  -3.686   8.354 -0.61 -0.34    -0.481 OA
DOCKED: ATOM     48  H   UNL d   1     -17.794  -2.996   9.003 +0.09 +0.19    +0.295 HD
DOCKED: ENDBRANCH  45  47
DOCKED: ENDBRANCH  44  45
DOCKED: ENDBRANCH   8  44
DOCKED: BRANCH  22  49
DOCKED: ATOM     49  C   UNL d   1     -17.074   5.216  14.085 -0.18 +0.00    +0.048 C 
DOCKED: BRANCH  49  50
DOCKED: ATOM     50  C   UNL d   1     -18.473   5.213  14.701 -0.09 +0.00    +0.125 C 
DOCKED: BRANCH  50  51
DOCKED: ATOM     51  C   UNL d   1     -18.417   4.854  16.159 -0.08 -0.00    +0.305 C 
DOCKED: ATOM     52  O   UNL d   1     -17.904   3.870  16.663 -0.13 +0.02    -0.251 OA
DOCKED: BRANCH  51  53
DOCKED: ATOM     53  O   UNL d   1     -19.037   5.771  16.928 -0.02 -0.00    -0.481 OA
DOCKED: ATOM     54  H   UNL d   1     -19.306   5.269  17.726 +0.02 -0.00    +0.295 HD
DOCKED: ENDBRANCH  51  53
DOCKED: ENDBRANCH  50  51
DOCKED: ENDBRANCH  49  50
DOCKED: ENDBRANCH  22  49
DOCKED: TORSDOF 13
DOCKED: TER
DOCKED: ENDMDL
________________________________________________________________________________


	BEGINNING GENETIC ALGORITHM DOCKING 93 of 100
Run: 93 Seed: 466587069 800390675 [ Run 93 of 100 GA/GALS ]
Beginning LAMARCKIAN GENETIC ALGORITHM (LGA), with a maximum of 25000000 energy evaluations.

Final-Value: -11.167


	FINAL GENETIC ALGORITHM DOCKED STATE
	_______________________________________________


Detailed state:  trans 16.360 -0.632 -11.996 quatxyzw 0.160005 -0.484609 -0.265669 -0.817907 center 0.153 0.018 -0.028 ntor 13 75.6446 -161.5859 -84.4566 -58.0255 -180.0000 -49.4833 161.2282 -103.8090 107.0804 -87.2084 -103.9893 15.5626 -11.1959
State:	 16.360  -0.632 -11.996   0.278 -0.842 -0.462 -70.248     75.64 -161.59  -84.46  -58.03 -180.00  -49.48  161.23 -103.81  107.08  -87.21 -103.99   15.56  -11.20

DOCKED: MODEL       93
DOCKED: USER    Run = 93
DOCKED: USER    DPF = D:/Protein_go_brrr/autodock/final/AncB/heme/dock.dpf
DOCKED: USER  
DOCKED: USER    Estimated Free Energy of Binding    =   -2.90 kcal/mol  [=(1)+(2)+(3)-(4)]
DOCKED: USER    Estimated Inhibition Constant, Ki   =    7.51 mM (millimolar)  [Temperature = 298.15 K]
DOCKED: USER    
DOCKED: USER    (1) Final Intermolecular Energy     =   -6.78 kcal/mol
DOCKED: USER        vdW + Hbond + desolv Energy     =   -6.90 kcal/mol
DOCKED: USER        Electrostatic Energy            =   +0.12 kcal/mol
DOCKED: USER    (2) Final Total Internal Energy     =   -4.39 kcal/mol
DOCKED: USER    (3) Torsional Free Energy           =   +3.88 kcal/mol
DOCKED: USER    (4) Unbound System's Energy  [=(2)] =   -4.39 kcal/mol
DOCKED: USER    
DOCKED: USER    
DOCKED: USER    NEWDPF move heme_opt.pdbqt
DOCKED: USER    NEWDPF about 0.153000 0.018000 -0.028000
DOCKED: USER    NEWDPF tran0 16.359946 -0.631647 -11.996277
DOCKED: USER    NEWDPF quaternion0 0.160005 -0.484609 -0.265669 -0.817907
DOCKED: USER    NEWDPF axisangle0 0.278100 -0.842286 -0.461752 -70.248342
DOCKED: USER    NEWDPF quat0 0.278100 -0.842286 -0.461752 -70.248342
DOCKED: USER    NEWDPF dihe0 75.64 -161.59 -84.46 -58.03 -180.00 -49.48 161.23 -103.81 107.08 -87.21 -103.99 15.56 -11.20 
DOCKED: USER  keepresnum = 1 
DOCKED: USER  
DOCKED: REMARK  13 active torsions:
DOCKED: REMARK  status: ('A' for Active; 'I' for Inactive)
DOCKED: REMARK    1  A    between atoms: O_3  and  C_38 
DOCKED: REMARK    2  A    between atoms: O_4  and  C_40 
DOCKED: REMARK    3  A    between atoms: O_7  and  C_46 
DOCKED: REMARK    4  A    between atoms: O_9  and  C_48 
DOCKED: REMARK    5  A    between atoms: C_15  and  C_20 
DOCKED: REMARK    6  A    between atoms: C_16  and  C_23 
DOCKED: REMARK    7  A    between atoms: C_20  and  C_38 
DOCKED: REMARK    8  A    between atoms: C_23  and  C_40 
DOCKED: REMARK    9  A    between atoms: C_32  and  C_41 
DOCKED: REMARK   10  A    between atoms: C_37  and  C_45 
DOCKED: REMARK   11  A    between atoms: C_41  and  C_44 
DOCKED: REMARK   12  A    between atoms: C_44  and  C_46 
DOCKED: REMARK   13  A    between atoms: C_47  and  C_48 
DOCKED: USER                              x       y       z     vdW  Elec       q    Type
DOCKED: USER                           _______ _______ _______ _____ _____    ______ ____
DOCKED: ROOT
DOCKED: ATOM      1  O   UNL d   1      14.080   4.038 -14.780 -0.16 -0.07    -0.289 OA
DOCKED: ATOM      2  O   UNL d   1      15.357  -2.972 -17.149 -0.01 -0.06    -0.289 OA
DOCKED: ATOM      3  N   UNL d   1      15.581   1.643 -12.804 -0.11 -0.08    -0.247 NA
DOCKED: ATOM      4  N   UNL d   1      15.381  -0.823 -14.449 -0.08 -0.07    -0.247 NA
DOCKED: ATOM      5  N   UNL d   1      16.087  -2.333 -12.106 -0.06 -0.13    -0.354 N 
DOCKED: ATOM      6  N   UNL d   1      16.274   0.229 -10.402 -0.17 -0.13    -0.354 N 
DOCKED: ATOM      7  C   UNL d   1      14.794   3.936 -12.444 -0.28 +0.04    +0.084 A 
DOCKED: ATOM      8  C   UNL d   1      15.247  -0.542 -16.873 -0.05 +0.02    +0.084 A 
DOCKED: ATOM      9  C   UNL d   1      15.276   0.088 -15.476 -0.10 +0.01    +0.058 A 
DOCKED: ATOM     10  C   UNL d   1      15.442   2.667 -11.883 -0.25 +0.03    +0.058 A 
DOCKED: ATOM     11  C   UNL d   1      14.609   3.454 -13.852 -0.14 +0.06    +0.193 A 
DOCKED: ATOM     12  C   UNL d   1      15.148   2.061 -13.949 -0.14 +0.03    +0.109 A 
DOCKED: ATOM     13  C   UNL d   1      15.317  -1.981 -16.446 -0.03 +0.04    +0.193 A 
DOCKED: ATOM     14  C   UNL d   1      13.419   4.202 -11.826 -0.35 +0.01    +0.026 C 
DOCKED: ATOM     15  C   UNL d   1      15.157   1.409 -15.274 -0.13 +0.02    +0.055 C 
DOCKED: ATOM     16  C   UNL d   1      16.508  -0.204 -17.675 -0.02 +0.00    +0.026 C 
DOCKED: ATOM     17  C   UNL d   1      15.387  -2.015 -14.954 -0.09 +0.03    +0.109 A 
DOCKED: ATOM     18  C   UNL d   1      15.909   2.616 -10.621 -0.14 +0.04    +0.050 C 
DOCKED: ATOM     19  C   UNL d   1      16.596   1.518 -10.042 -0.28 +0.03    +0.045 A 
DOCKED: ATOM     20  C   UNL d   1      15.727  -3.355 -12.945 -0.05 +0.02    +0.045 A 
DOCKED: ATOM     21  C   UNL d   1      15.421  -3.303 -14.246 -0.13 +0.02    +0.057 C 
DOCKED: ATOM     22  C   UNL d   1      16.105  -4.209 -10.861 -0.19 -0.01    -0.019 A 
DOCKED: ATOM     23  C   UNL d   1      16.335  -2.751 -10.826 -0.20 +0.02    +0.045 A 
DOCKED: ATOM     24  C   UNL d   1      15.747  -4.561 -12.118 -0.11 -0.01    -0.022 A 
DOCKED: ATOM     25  C   UNL d   1      16.994  -0.675  -9.657 -0.29 +0.02    +0.049 A 
DOCKED: ATOM     26  C   UNL d   1      17.577   1.451  -9.065 -0.27 -0.01    -0.018 A 
DOCKED: ATOM     27  C   UNL d   1      17.839   0.064  -8.840 -0.27 +0.00    +0.003 A 
DOCKED: ATOM     28  C   UNL d   1      16.722  -2.068  -9.738 -0.33 +0.02    +0.052 C 
DOCKED: ATOM     29  C   UNL d   1      15.425  -5.915 -12.652 -0.16 +0.02    +0.046 C 
DOCKED: ATOM     30  C   UNL d   1      18.235   2.602  -8.383 -0.20 +0.05    +0.046 C 
DOCKED: ATOM     31  H   UNL d   1      16.224  -1.390 -12.454 +0.05 +0.05    +0.166 HD
DOCKED: ATOM     32  H   UNL d   1      15.569  -0.000 -11.093 +0.07 +0.06    +0.166 HD
DOCKED: ENDROOT
DOCKED: BRANCH   7  33
DOCKED: ATOM     33  C   UNL d   1      15.675   5.191 -12.418 -0.29 +0.07    +0.141 C 
DOCKED: BRANCH  33  34
DOCKED: ATOM     34  C   UNL d   1      15.283   6.195 -13.467 -0.23 +0.12    +0.306 C 
DOCKED: ATOM     35  O   UNL d   1      16.020   6.684 -14.307 -0.18 -0.08    -0.251 OA
DOCKED: BRANCH  34  36
DOCKED: ATOM     36  O   UNL d   1      13.982   6.530 -13.405 -0.23 -0.11    -0.481 OA
DOCKED: ATOM     37  H   UNL d   1      13.576   6.086 -14.180 -0.20 +0.01    +0.295 HD
DOCKED: ENDBRANCH  34  36
DOCKED: ENDBRANCH  33  34
DOCKED: ENDBRANCH   7  33
DOCKED: BRANCH  27  38
DOCKED: ATOM     38  C   UNL d   1      18.780  -0.455  -7.894 -0.25 +0.01    +0.017 C 
DOCKED: ATOM     39  C   UNL d   1      19.747  -1.343  -8.171 -0.09 +0.02    +0.092 C 
DOCKED: BRANCH  39  40
DOCKED: ATOM     40  C   UNL d   1      20.659  -1.782  -7.112 -0.02 +0.07    +0.330 C 
DOCKED: ATOM     41  O   UNL d   1      21.307  -1.087  -6.353 -0.03 -0.05    -0.246 OA
DOCKED: BRANCH  40  42
DOCKED: ATOM     42  O   UNL d   1      20.697  -3.123  -7.062 +0.00 -0.09    -0.477 OA
DOCKED: ATOM     43  H   UNL d   1      20.340  -3.400  -7.931 +0.04 +0.06    +0.295 HD
DOCKED: ENDBRANCH  40  42
DOCKED: ENDBRANCH  39  40
DOCKED: ENDBRANCH  27  38
DOCKED: BRANCH   8  44
DOCKED: ATOM     44  C   UNL d   1      13.980  -0.274 -17.692 -0.03 +0.04    +0.141 C 
DOCKED: BRANCH  44  45
DOCKED: ATOM     45  C   UNL d   1      13.469  -1.494 -18.412 -0.05 +0.08    +0.306 C 
DOCKED: ATOM     46  O   UNL d   1      12.396  -2.045 -18.236 -0.31 -0.08    -0.251 OA
DOCKED: BRANCH  45  47
DOCKED: ATOM     47  O   UNL d   1      14.355  -1.975 -19.303 +0.00 -0.09    -0.481 OA
DOCKED: ATOM     48  H   UNL d   1      14.843  -2.672 -18.816 +0.02 +0.05    +0.295 HD
DOCKED: ENDBRANCH  45  47
DOCKED: ENDBRANCH  44  45
DOCKED: ENDBRANCH   8  44
DOCKED: BRANCH  22  49
DOCKED: ATOM     49  C   UNL d   1      16.241  -5.112  -9.670 -0.24 +0.03    +0.048 C 
DOCKED: BRANCH  49  50
DOCKED: ATOM     50  C   UNL d   1      17.627  -5.753  -9.597 -0.10 +0.05    +0.125 C 
DOCKED: BRANCH  50  51
DOCKED: ATOM     51  C   UNL d   1      18.645  -4.771  -9.091 -0.03 +0.09    +0.305 C 
DOCKED: ATOM     52  O   UNL d   1      19.552  -4.252  -9.718 -0.01 -0.06    -0.251 OA
DOCKED: BRANCH  51  53
DOCKED: ATOM     53  O   UNL d   1      18.474  -4.495  -7.783 -0.02 -0.14    -0.481 OA
DOCKED: ATOM     54  H   UNL d   1      19.326  -4.750  -7.372 +0.06 +0.07    +0.295 HD
DOCKED: ENDBRANCH  51  53
DOCKED: ENDBRANCH  50  51
DOCKED: ENDBRANCH  49  50
DOCKED: ENDBRANCH  22  49
DOCKED: TORSDOF 13
DOCKED: TER
DOCKED: ENDMDL
________________________________________________________________________________


	BEGINNING GENETIC ALGORITHM DOCKING 94 of 100
Run: 94 Seed: 485546026 284561651 [ Run 94 of 100 GA/GALS ]
Beginning LAMARCKIAN GENETIC ALGORITHM (LGA), with a maximum of 25000000 energy evaluations.

Final-Value: -11.471


	FINAL GENETIC ALGORITHM DOCKED STATE
	_______________________________________________


Detailed state:  trans 17.667 -3.648 -7.621 quatxyzw 0.613600 -0.003762 -0.787496 0.057715 center 0.153 0.018 -0.028 ntor 13 160.8707 122.3477 107.0923 53.6286 -143.9940 107.7600 -50.7179 69.2908 14.2311 -130.9431 -78.9565 -106.1163 2.6759
State:	 17.667  -3.648  -7.621   0.615 -0.004 -0.789 173.383    160.87  122.35  107.09   53.63 -143.99  107.76  -50.72   69.29   14.23 -130.94  -78.96 -106.12    2.68

DOCKED: MODEL       94
DOCKED: USER    Run = 94
DOCKED: USER    DPF = D:/Protein_go_brrr/autodock/final/AncB/heme/dock.dpf
DOCKED: USER  
DOCKED: USER    Estimated Free Energy of Binding    =   -2.88 kcal/mol  [=(1)+(2)+(3)-(4)]
DOCKED: USER    Estimated Inhibition Constant, Ki   =    7.68 mM (millimolar)  [Temperature = 298.15 K]
DOCKED: USER    
DOCKED: USER    (1) Final Intermolecular Energy     =   -6.76 kcal/mol
DOCKED: USER        vdW + Hbond + desolv Energy     =   -6.81 kcal/mol
DOCKED: USER        Electrostatic Energy            =   +0.04 kcal/mol
DOCKED: USER    (2) Final Total Internal Energy     =   -4.71 kcal/mol
DOCKED: USER    (3) Torsional Free Energy           =   +3.88 kcal/mol
DOCKED: USER    (4) Unbound System's Energy  [=(2)] =   -4.71 kcal/mol
DOCKED: USER    
DOCKED: USER    
DOCKED: USER    NEWDPF move heme_opt.pdbqt
DOCKED: USER    NEWDPF about 0.153000 0.018000 -0.028000
DOCKED: USER    NEWDPF tran0 17.667029 -3.648413 -7.621091
DOCKED: USER    NEWDPF quaternion0 0.613600 -0.003762 -0.787496 0.057715
DOCKED: USER    NEWDPF axisangle0 0.614625 -0.003768 -0.788811 173.382630
DOCKED: USER    NEWDPF quat0 0.614625 -0.003768 -0.788811 173.382630
DOCKED: USER    NEWDPF dihe0 160.87 122.35 107.09 53.63 -143.99 107.76 -50.72 69.29 14.23 -130.94 -78.96 -106.12 2.68 
DOCKED: USER  keepresnum = 1 
DOCKED: USER  
DOCKED: REMARK  13 active torsions:
DOCKED: REMARK  status: ('A' for Active; 'I' for Inactive)
DOCKED: REMARK    1  A    between atoms: O_3  and  C_38 
DOCKED: REMARK    2  A    between atoms: O_4  and  C_40 
DOCKED: REMARK    3  A    between atoms: O_7  and  C_46 
DOCKED: REMARK    4  A    between atoms: O_9  and  C_48 
DOCKED: REMARK    5  A    between atoms: C_15  and  C_20 
DOCKED: REMARK    6  A    between atoms: C_16  and  C_23 
DOCKED: REMARK    7  A    between atoms: C_20  and  C_38 
DOCKED: REMARK    8  A    between atoms: C_23  and  C_40 
DOCKED: REMARK    9  A    between atoms: C_32  and  C_41 
DOCKED: REMARK   10  A    between atoms: C_37  and  C_45 
DOCKED: REMARK   11  A    between atoms: C_41  and  C_44 
DOCKED: REMARK   12  A    between atoms: C_44  and  C_46 
DOCKED: REMARK   13  A    between atoms: C_47  and  C_48 
DOCKED: USER                              x       y       z     vdW  Elec       q    Type
DOCKED: USER                           _______ _______ _______ _____ _____    ______ ____
DOCKED: ROOT
DOCKED: ATOM      1  O   UNL d   1      18.228  -5.761  -2.146 -0.15 -0.03    -0.289 OA
DOCKED: ATOM      2  O   UNL d   1      20.294   0.815  -5.128 -0.10 -0.09    -0.289 OA
DOCKED: ATOM      3  N   UNL d   1      17.808  -5.010  -5.486 -0.11 -0.07    -0.247 NA
DOCKED: ATOM      4  N   UNL d   1      18.615  -2.155  -5.651 -0.22 -0.08    -0.247 NA
DOCKED: ATOM      5  N   UNL d   1      17.427  -2.066  -8.267 -0.07 -0.13    -0.354 N 
DOCKED: ATOM      6  N   UNL d   1      16.575  -5.023  -8.079 -0.11 -0.18    -0.354 N 
DOCKED: ATOM      7  C   UNL d   1      17.147  -6.872  -4.036 -0.16 +0.01    +0.084 A 
DOCKED: ATOM      8  C   UNL d   1      20.192  -1.340  -3.971 -0.16 +0.02    +0.084 A 
DOCKED: ATOM      9  C   UNL d   1      19.303  -2.470  -4.500 -0.25 +0.01    +0.058 A 
DOCKED: ATOM     10  C   UNL d   1      17.148  -6.226  -5.424 -0.17 +0.01    +0.058 A 
DOCKED: ATOM     11  C   UNL d   1      17.939  -5.815  -3.327 -0.17 +0.03    +0.193 A 
DOCKED: ATOM     12  C   UNL d   1      18.302  -4.753  -4.319 -0.19 +0.02    +0.109 A 
DOCKED: ATOM     13  C   UNL d   1      19.853  -0.312  -5.013 -0.11 +0.06    +0.193 A 
DOCKED: ATOM     14  C   UNL d   1      15.743  -6.929  -3.429 -0.28 +0.00    +0.026 C 
DOCKED: ATOM     15  C   UNL d   1      19.169  -3.646  -3.866 -0.22 +0.01    +0.055 C 
DOCKED: ATOM     16  C   UNL d   1      21.679  -1.686  -4.086 -0.06 +0.00    +0.026 C 
DOCKED: ATOM     17  C   UNL d   1      18.882  -0.929  -5.968 -0.27 +0.04    +0.109 A 
DOCKED: ATOM     18  C   UNL d   1      16.623  -6.854  -6.492 -0.19 +0.02    +0.050 C 
DOCKED: ATOM     19  C   UNL d   1      16.653  -6.373  -7.826 -0.18 +0.02    +0.045 A 
DOCKED: ATOM     20  C   UNL d   1      17.668  -0.731  -8.072 -0.25 +0.02    +0.045 A 
DOCKED: ATOM     21  C   UNL d   1      18.335  -0.136  -7.079 -0.30 +0.02    +0.057 C 
DOCKED: ATOM     22  C   UNL d   1      16.461  -0.990  -9.995 -0.36 -0.01    -0.019 A 
DOCKED: ATOM     23  C   UNL d   1      16.704  -2.321  -9.402 -0.29 +0.02    +0.045 A 
DOCKED: ATOM     24  C   UNL d   1      17.035  -0.053  -9.203 -0.32 -0.01    -0.022 A 
DOCKED: ATOM     25  C   UNL d   1      16.529  -4.787  -9.434 -0.24 +0.03    +0.049 A 
DOCKED: ATOM     26  C   UNL d   1      16.695  -7.030  -9.047 -0.07 -0.01    -0.018 A 
DOCKED: ATOM     27  C   UNL d   1      16.637  -6.022 -10.058 -0.15 +0.00    +0.003 A 
DOCKED: ATOM     28  C   UNL d   1      16.291  -3.479  -9.939 -0.31 +0.02    +0.052 C 
DOCKED: ATOM     29  C   UNL d   1      17.071   1.426  -9.386 -0.32 +0.03    +0.046 C 
DOCKED: ATOM     30  C   UNL d   1      16.787  -8.502  -9.263 -0.04 +0.03    +0.046 C 
DOCKED: ATOM     31  H   UNL d   1      17.829  -2.768  -7.655 +0.06 +0.06    +0.166 HD
DOCKED: ATOM     32  H   UNL d   1      16.519  -4.319  -7.353 +0.14 +0.09    +0.166 HD
DOCKED: ENDROOT
DOCKED: BRANCH   7  33
DOCKED: ATOM     33  C   UNL d   1      17.856  -8.228  -3.942 -0.04 +0.01    +0.141 C 
DOCKED: BRANCH  33  34
DOCKED: ATOM     34  C   UNL d   1      19.320  -8.141  -4.278 -0.01 +0.03    +0.306 C 
DOCKED: ATOM     35  O   UNL d   1      19.813  -8.270  -5.386 -0.01 -0.03    -0.251 OA
DOCKED: BRANCH  34  36
DOCKED: ATOM     36  O   UNL d   1      20.086  -7.894  -3.201 +0.00 -0.04    -0.481 OA
DOCKED: ATOM     37  H   UNL d   1      19.473  -7.491  -2.550 +0.03 +0.02    +0.295 HD
DOCKED: ENDBRANCH  34  36
DOCKED: ENDBRANCH  33  34
DOCKED: ENDBRANCH   7  33
DOCKED: BRANCH  27  38
DOCKED: ATOM     38  C   UNL d   1      16.640  -6.267 -11.469 -0.13 +0.01    +0.017 C 
DOCKED: ATOM     39  C   UNL d   1      15.597  -6.074 -12.291 -0.14 +0.05    +0.092 C 
DOCKED: BRANCH  39  40
DOCKED: ATOM     40  C   UNL d   1      15.736  -6.348 -13.723 -0.04 +0.11    +0.330 C 
DOCKED: ATOM     41  O   UNL d   1      15.285  -7.289 -14.347 -0.02 -0.07    -0.246 OA
DOCKED: BRANCH  40  42
DOCKED: ATOM     42  O   UNL d   1      16.454  -5.378 -14.311 +0.00 -0.13    -0.477 OA
DOCKED: ATOM     43  H   UNL d   1      15.953  -4.561 -14.111 +0.05 +0.09    +0.295 HD
DOCKED: ENDBRANCH  40  42
DOCKED: ENDBRANCH  39  40
DOCKED: ENDBRANCH  27  38
DOCKED: BRANCH   8  44
DOCKED: ATOM     44  C   UNL d   1      19.848  -0.832  -2.567 -0.19 +0.03    +0.141 C 
DOCKED: BRANCH  44  45
DOCKED: ATOM     45  C   UNL d   1      20.761   0.267  -2.092 -0.08 +0.05    +0.306 C 
DOCKED: ATOM     46  O   UNL d   1      21.758   0.137  -1.405 -0.03 -0.03    -0.251 OA
DOCKED: BRANCH  45  47
DOCKED: ATOM     47  O   UNL d   1      20.350   1.485  -2.489 -0.04 -0.10    -0.481 OA
DOCKED: ATOM     48  H   UNL d   1      20.560   1.518  -3.447 +0.07 +0.07    +0.295 HD
DOCKED: ENDBRANCH  45  47
DOCKED: ENDBRANCH  44  45
DOCKED: ENDBRANCH   8  44
DOCKED: BRANCH  22  49
DOCKED: ATOM     49  C   UNL d   1      15.685  -0.760 -11.258 -0.33 +0.02    +0.048 C 
DOCKED: BRANCH  49  50
DOCKED: ATOM     50  C   UNL d   1      16.537  -1.011 -12.502 -0.13 +0.04    +0.125 C 
DOCKED: BRANCH  50  51
DOCKED: ATOM     51  C   UNL d   1      16.220  -2.349 -13.108 -0.07 +0.09    +0.305 C 
DOCKED: ATOM     52  O   UNL d   1      15.160  -2.718 -13.582 -0.12 -0.09    -0.251 OA
DOCKED: BRANCH  51  53
DOCKED: ATOM     53  O   UNL d   1      17.279  -3.182 -13.073 -0.00 -0.13    -0.481 OA
DOCKED: ATOM     54  H   UNL d   1      17.380  -3.479 -14.001 +0.03 +0.07    +0.295 HD
DOCKED: ENDBRANCH  51  53
DOCKED: ENDBRANCH  50  51
DOCKED: ENDBRANCH  49  50
DOCKED: ENDBRANCH  22  49
DOCKED: TORSDOF 13
DOCKED: TER
DOCKED: ENDMDL
________________________________________________________________________________


	BEGINNING GENETIC ALGORITHM DOCKING 95 of 100
Run: 95 Seed: 1130538841 1969401795 [ Run 95 of 100 GA/GALS ]
Beginning LAMARCKIAN GENETIC ALGORITHM (LGA), with a maximum of 25000000 energy evaluations.

Final-Value: -13.004


	FINAL GENETIC ALGORITHM DOCKED STATE
	_______________________________________________


Detailed state:  trans 0.246 -8.959 10.023 quatxyzw 0.002006 -0.851325 -0.397653 -0.342220 center 0.153 0.018 -0.028 ntor 13 150.8810 156.9832 -102.7116 64.8161 -149.1668 97.2825 -178.7687 84.9910 61.9040 7.2210 -75.4125 -106.5489 2.9700
State:	  0.246  -8.959  10.023   0.002 -0.906 -0.423 -139.976    150.88  156.98 -102.71   64.82 -149.17   97.28 -178.77   84.99   61.90    7.22  -75.41 -106.55    2.97

DOCKED: MODEL       95
DOCKED: USER    Run = 95
DOCKED: USER    DPF = D:/Protein_go_brrr/autodock/final/AncB/heme/dock.dpf
DOCKED: USER  
DOCKED: USER    Estimated Free Energy of Binding    =   -4.94 kcal/mol  [=(1)+(2)+(3)-(4)]
DOCKED: USER    Estimated Inhibition Constant, Ki   =  237.69 uM (micromolar)  [Temperature = 298.15 K]
DOCKED: USER    
DOCKED: USER    (1) Final Intermolecular Energy     =   -8.82 kcal/mol
DOCKED: USER        vdW + Hbond + desolv Energy     =   -8.57 kcal/mol
DOCKED: USER        Electrostatic Energy            =   -0.25 kcal/mol
DOCKED: USER    (2) Final Total Internal Energy     =   -4.18 kcal/mol
DOCKED: USER    (3) Torsional Free Energy           =   +3.88 kcal/mol
DOCKED: USER    (4) Unbound System's Energy  [=(2)] =   -4.18 kcal/mol
DOCKED: USER    
DOCKED: USER    
DOCKED: USER    NEWDPF move heme_opt.pdbqt
DOCKED: USER    NEWDPF about 0.153000 0.018000 -0.028000
DOCKED: USER    NEWDPF tran0 0.245558 -8.958571 10.022563
DOCKED: USER    NEWDPF quaternion0 0.002006 -0.851325 -0.397653 -0.342220
DOCKED: USER    NEWDPF axisangle0 0.002135 -0.906031 -0.423206 -139.975589
DOCKED: USER    NEWDPF quat0 0.002135 -0.906031 -0.423206 -139.975589
DOCKED: USER    NEWDPF dihe0 150.88 156.98 -102.71 64.82 -149.17 97.28 -178.77 84.99 61.90 7.22 -75.41 -106.55 2.97 
DOCKED: USER  keepresnum = 1 
DOCKED: USER  
DOCKED: REMARK  13 active torsions:
DOCKED: REMARK  status: ('A' for Active; 'I' for Inactive)
DOCKED: REMARK    1  A    between atoms: O_3  and  C_38 
DOCKED: REMARK    2  A    between atoms: O_4  and  C_40 
DOCKED: REMARK    3  A    between atoms: O_7  and  C_46 
DOCKED: REMARK    4  A    between atoms: O_9  and  C_48 
DOCKED: REMARK    5  A    between atoms: C_15  and  C_20 
DOCKED: REMARK    6  A    between atoms: C_16  and  C_23 
DOCKED: REMARK    7  A    between atoms: C_20  and  C_38 
DOCKED: REMARK    8  A    between atoms: C_23  and  C_40 
DOCKED: REMARK    9  A    between atoms: C_32  and  C_41 
DOCKED: REMARK   10  A    between atoms: C_37  and  C_45 
DOCKED: REMARK   11  A    between atoms: C_41  and  C_44 
DOCKED: REMARK   12  A    between atoms: C_44  and  C_46 
DOCKED: REMARK   13  A    between atoms: C_47  and  C_48 
DOCKED: USER                              x       y       z     vdW  Elec       q    Type
DOCKED: USER                           _______ _______ _______ _____ _____    ______ ____
DOCKED: ROOT
DOCKED: ATOM      1  O   UNL d   1       4.618  -5.820   7.617 -0.71 -0.00    -0.289 OA
DOCKED: ATOM      2  O   UNL d   1       1.900 -12.607   5.901 -0.04 -0.04    -0.289 OA
DOCKED: ATOM      3  N   UNL d   1       2.097  -7.333   9.420 -0.06 -0.02    -0.247 NA
DOCKED: ATOM      4  N   UNL d   1       1.507  -9.783   7.845 +0.02 -0.04    -0.247 NA
DOCKED: ATOM      5  N   UNL d   1      -0.900 -10.084   9.389 -0.04 -0.07    -0.354 N 
DOCKED: ATOM      6  N   UNL d   1      -0.290  -7.531  11.005 -0.16 -0.03    -0.354 N 
DOCKED: ATOM      7  C   UNL d   1       3.163  -5.126   9.455 -0.27 -0.01    +0.084 A 
DOCKED: ATOM      8  C   UNL d   1       3.310 -10.687   6.466 -0.09 +0.01    +0.084 A 
DOCKED: ATOM      9  C   UNL d   1       2.789  -9.578   7.386 -0.14 +0.01    +0.058 A 
DOCKED: ATOM     10  C   UNL d   1       2.116  -6.088  10.025 -0.25 -0.00    +0.058 A 
DOCKED: ATOM     11  C   UNL d   1       3.746  -6.056   8.433 -0.17 -0.01    +0.193 A 
DOCKED: ATOM     12  C   UNL d   1       3.033  -7.369   8.528 -0.15 +0.01    +0.109 A 
DOCKED: ATOM     13  C   UNL d   1       2.074 -11.541   6.459 -0.06 +0.02    +0.193 A 
DOCKED: ATOM     14  C   UNL d   1       2.520  -3.938   8.734 -0.49 -0.01    +0.026 C 
DOCKED: ATOM     15  C   UNL d   1       3.502  -8.479   7.674 -0.17 +0.01    +0.055 C 
DOCKED: ATOM     16  C   UNL d   1       4.450 -11.476   7.118 -0.07 +0.00    +0.026 C 
DOCKED: ATOM     17  C   UNL d   1       1.053 -10.878   7.326 -0.13 +0.02    +0.109 A 
DOCKED: ATOM     18  C   UNL d   1       1.356  -5.752  11.084 -0.22 +0.00    +0.050 C 
DOCKED: ATOM     19  C   UNL d   1       0.423  -6.603  11.730 -0.30 +0.00    +0.045 A 
DOCKED: ATOM     20  C   UNL d   1      -1.118 -11.034   8.426 -0.20 +0.01    +0.045 A 
DOCKED: ATOM     21  C   UNL d   1      -0.285 -11.470   7.475 -0.21 +0.01    +0.057 C 
DOCKED: ATOM     22  C   UNL d   1      -3.004 -10.826   9.697 -0.24 -0.01    -0.019 A 
DOCKED: ATOM     23  C   UNL d   1      -1.983  -9.888  10.204 -0.25 +0.01    +0.045 A 
DOCKED: ATOM     24  C   UNL d   1      -2.486 -11.503   8.645 -0.21 -0.01    -0.022 A 
DOCKED: ATOM     25  C   UNL d   1      -1.196  -8.181  11.810 -0.25 +0.01    +0.049 A 
DOCKED: ATOM     26  C   UNL d   1      -0.004  -6.678  13.047 -0.27 -0.00    -0.018 A 
DOCKED: ATOM     27  C   UNL d   1      -1.012  -7.690  13.095 -0.23 +0.00    +0.003 A 
DOCKED: ATOM     28  C   UNL d   1      -2.154  -9.073  11.256 -0.30 +0.01    +0.052 C 
DOCKED: ATOM     29  C   UNL d   1      -3.123 -12.561   7.810 -0.20 +0.02    +0.046 C 
DOCKED: ATOM     30  C   UNL d   1       0.494  -5.863  14.192 -0.27 -0.00    +0.046 C 
DOCKED: ATOM     31  H   UNL d   1       0.010  -9.651   9.504 +0.05 +0.03    +0.166 HD
DOCKED: ATOM     32  H   UNL d   1      -0.176  -7.670  10.008 +0.14 +0.02    +0.166 HD
DOCKED: ENDROOT
DOCKED: BRANCH   7  33
DOCKED: ATOM     33  C   UNL d   1       4.241  -4.669  10.443 -0.21 -0.03    +0.141 C 
DOCKED: BRANCH  33  34
DOCKED: ATOM     34  C   UNL d   1       5.593  -5.256  10.138 -0.10 -0.06    +0.306 C 
DOCKED: ATOM     35  O   UNL d   1       6.070  -6.262  10.635 -0.04 +0.00    -0.251 OA
DOCKED: BRANCH  34  36
DOCKED: ATOM     36  O   UNL d   1       6.272  -4.546   9.219 -0.12 +0.30    -0.481 OA
DOCKED: ATOM     37  H   UNL d   1       5.578  -4.172   8.635 -0.41 -0.42    +0.295 HD
DOCKED: ENDBRANCH  34  36
DOCKED: ENDBRANCH  33  34
DOCKED: ENDBRANCH   7  33
DOCKED: BRANCH  27  38
DOCKED: ATOM     38  C   UNL d   1      -1.734  -8.081  14.269 -0.19 +0.00    +0.017 C 
DOCKED: ATOM     39  C   UNL d   1      -3.034  -7.839  14.494 -0.16 +0.02    +0.092 C 
DOCKED: BRANCH  39  40
DOCKED: ATOM     40  C   UNL d   1      -3.660  -8.309  15.733 -0.10 +0.06    +0.330 C 
DOCKED: ATOM     41  O   UNL d   1      -3.826  -7.687  16.765 -0.08 -0.00    -0.246 OA
DOCKED: BRANCH  40  42
DOCKED: ATOM     42  O   UNL d   1      -4.063  -9.582  15.593 -0.05 -0.14    -0.477 OA
DOCKED: ATOM     43  H   UNL d   1      -4.164  -9.690  14.625 +0.07 +0.12    +0.295 HD
DOCKED: ENDBRANCH  40  42
DOCKED: ENDBRANCH  39  40
DOCKED: ENDBRANCH  27  38
DOCKED: BRANCH   8  44
DOCKED: ATOM     44  C   UNL d   1       3.682 -10.248   5.046 -0.16 +0.01    +0.141 C 
DOCKED: BRANCH  44  45
DOCKED: ATOM     45  C   UNL d   1       2.688  -9.294   4.440 -0.20 +0.04    +0.306 C 
DOCKED: ATOM     46  O   UNL d   1       2.942  -8.290   3.797 -0.18 -0.04    -0.251 OA
DOCKED: BRANCH  45  47
DOCKED: ATOM     47  O   UNL d   1       1.415  -9.643   4.701 -0.18 -0.05    -0.481 OA
DOCKED: ATOM     48  H   UNL d   1       1.271  -9.375   5.633 +0.07 +0.04    +0.295 HD
DOCKED: ENDBRANCH  45  47
DOCKED: ENDBRANCH  44  45
DOCKED: ENDBRANCH   8  44
DOCKED: BRANCH  22  49
DOCKED: ATOM     49  C   UNL d   1      -4.383 -10.962  10.273 -0.30 +0.02    +0.048 C 
DOCKED: BRANCH  49  50
DOCKED: ATOM     50  C   UNL d   1      -4.391 -11.831  11.530 -0.15 +0.05    +0.125 C 
DOCKED: BRANCH  50  51
DOCKED: ATOM     51  C   UNL d   1      -4.554 -10.989  12.764 -0.11 +0.14    +0.305 C 
DOCKED: ATOM     52  O   UNL d   1      -5.582 -10.503  13.202 -0.07 -0.19    -0.251 OA
DOCKED: BRANCH  51  53
DOCKED: ATOM     53  O   UNL d   1      -3.379 -10.786  13.394 -0.03 -0.15    -0.481 OA
DOCKED: ATOM     54  H   UNL d   1      -3.492 -11.234  14.258 +0.05 +0.08    +0.295 HD
DOCKED: ENDBRANCH  51  53
DOCKED: ENDBRANCH  50  51
DOCKED: ENDBRANCH  49  50
DOCKED: ENDBRANCH  22  49
DOCKED: TORSDOF 13
DOCKED: TER
DOCKED: ENDMDL
________________________________________________________________________________


	BEGINNING GENETIC ALGORITHM DOCKING 96 of 100
Run: 96 Seed: 1680179261 959874522 [ Run 96 of 100 GA/GALS ]
Beginning LAMARCKIAN GENETIC ALGORITHM (LGA), with a maximum of 25000000 energy evaluations.

Final-Value: -11.543


	FINAL GENETIC ALGORITHM DOCKED STATE
	_______________________________________________


Detailed state:  trans 4.966 -14.995 -0.491 quatxyzw 0.690626 0.514884 0.264174 0.433754 center 0.153 0.018 -0.028 ntor 13 -179.8171 -180.0000 -105.6295 1.5053 -150.1183 -11.9658 -43.2481 62.0122 23.5432 -166.5957 119.5752 -64.2539 -167.6379
State:	  4.966 -14.995  -0.491   0.766  0.571  0.293 128.588   -179.82 -180.00 -105.63    1.51 -150.12  -11.97  -43.25   62.01   23.54 -166.60  119.58  -64.25 -167.64

DOCKED: MODEL       96
DOCKED: USER    Run = 96
DOCKED: USER    DPF = D:/Protein_go_brrr/autodock/final/AncB/heme/dock.dpf
DOCKED: USER  
DOCKED: USER    Estimated Free Energy of Binding    =   -5.88 kcal/mol  [=(1)+(2)+(3)-(4)]
DOCKED: USER    Estimated Inhibition Constant, Ki   =   49.35 uM (micromolar)  [Temperature = 298.15 K]
DOCKED: USER    
DOCKED: USER    (1) Final Intermolecular Energy     =   -9.75 kcal/mol
DOCKED: USER        vdW + Hbond + desolv Energy     =   -9.11 kcal/mol
DOCKED: USER        Electrostatic Energy            =   -0.64 kcal/mol
DOCKED: USER    (2) Final Total Internal Energy     =   -1.79 kcal/mol
DOCKED: USER    (3) Torsional Free Energy           =   +3.88 kcal/mol
DOCKED: USER    (4) Unbound System's Energy  [=(2)] =   -1.79 kcal/mol
DOCKED: USER    
DOCKED: USER    
DOCKED: USER    NEWDPF move heme_opt.pdbqt
DOCKED: USER    NEWDPF about 0.153000 0.018000 -0.028000
DOCKED: USER    NEWDPF tran0 4.965591 -14.994704 -0.490844
DOCKED: USER    NEWDPF quaternion0 0.690626 0.514884 0.264174 0.433754
DOCKED: USER    NEWDPF axisangle0 0.766484 0.571438 0.293191 128.587969
DOCKED: USER    NEWDPF quat0 0.766484 0.571438 0.293191 128.587969
DOCKED: USER    NEWDPF dihe0 -179.82 -180.00 -105.63 1.51 -150.12 -11.97 -43.25 62.01 23.54 -166.60 119.58 -64.25 -167.64 
DOCKED: USER  keepresnum = 1 
DOCKED: USER  
DOCKED: REMARK  13 active torsions:
DOCKED: REMARK  status: ('A' for Active; 'I' for Inactive)
DOCKED: REMARK    1  A    between atoms: O_3  and  C_38 
DOCKED: REMARK    2  A    between atoms: O_4  and  C_40 
DOCKED: REMARK    3  A    between atoms: O_7  and  C_46 
DOCKED: REMARK    4  A    between atoms: O_9  and  C_48 
DOCKED: REMARK    5  A    between atoms: C_15  and  C_20 
DOCKED: REMARK    6  A    between atoms: C_16  and  C_23 
DOCKED: REMARK    7  A    between atoms: C_20  and  C_38 
DOCKED: REMARK    8  A    between atoms: C_23  and  C_40 
DOCKED: REMARK    9  A    between atoms: C_32  and  C_41 
DOCKED: REMARK   10  A    between atoms: C_37  and  C_45 
DOCKED: REMARK   11  A    between atoms: C_41  and  C_44 
DOCKED: REMARK   12  A    between atoms: C_44  and  C_46 
DOCKED: REMARK   13  A    between atoms: C_47  and  C_48 
DOCKED: USER                              x       y       z     vdW  Elec       q    Type
DOCKED: USER                           _______ _______ _______ _____ _____    ______ ____
DOCKED: ROOT
DOCKED: ATOM      1  O   UNL d   1       4.648 -17.293  -5.911 -0.19 +0.28    -0.289 OA
DOCKED: ATOM      2  O   UNL d   1      -0.340 -17.198  -0.298 -0.13 -0.06    -0.289 OA
DOCKED: ATOM      3  N   UNL d   1       5.339 -15.925  -2.821 -0.12 +0.03    -0.247 NA
DOCKED: ATOM      4  N   UNL d   1       2.729 -16.076  -1.408 -0.14 +0.00    -0.247 NA
DOCKED: ATOM      5  N   UNL d   1       3.803 -14.290   0.573 -0.05 -0.02    -0.354 N 
DOCKED: ATOM      6  N   UNL d   1       6.501 -14.124  -0.910 -0.06 +0.06    -0.354 N 
DOCKED: ATOM      7  C   UNL d   1       6.516 -16.029  -4.968 -0.21 -0.03    +0.084 A 
DOCKED: ATOM      8  C   UNL d   1       1.171 -17.818  -2.121 -0.23 -0.01    +0.084 A 
DOCKED: ATOM      9  C   UNL d   1       2.494 -17.073  -2.328 -0.25 -0.01    +0.058 A 
DOCKED: ATOM     10  C   UNL d   1       6.483 -15.559  -3.511 -0.13 -0.01    +0.058 A 
DOCKED: ATOM     11  C   UNL d   1       5.197 -16.740  -4.975 -0.18 -0.09    +0.193 A 
DOCKED: ATOM     12  C   UNL d   1       4.593 -16.628  -3.609 -0.22 -0.02    +0.109 A 
DOCKED: ATOM     13  C   UNL d   1       0.682 -17.034  -0.936 -0.16 +0.01    +0.193 A 
DOCKED: ATOM     14  C   UNL d   1       6.451 -14.857  -5.951 -0.31 -0.01    +0.026 C 
DOCKED: ATOM     15  C   UNL d   1       3.324 -17.338  -3.349 -0.30 -0.01    +0.055 C 
DOCKED: ATOM     16  C   UNL d   1       1.398 -19.270  -1.691 -0.11 -0.00    +0.026 C 
DOCKED: ATOM     17  C   UNL d   1       1.714 -16.005  -0.608 -0.18 +0.01    +0.109 A 
DOCKED: ATOM     18  C   UNL d   1       7.531 -14.926  -2.952 -0.11 -0.01    +0.050 C 
DOCKED: ATOM     19  C   UNL d   1       7.624 -14.531  -1.593 -0.14 -0.01    +0.045 A 
DOCKED: ATOM     20  C   UNL d   1       2.486 -14.297   0.952 -0.15 +0.01    +0.045 A 
DOCKED: ATOM     21  C   UNL d   1       1.485 -15.054   0.490 -0.21 +0.01    +0.057 C 
DOCKED: ATOM     22  C   UNL d   1       3.601 -12.735   2.189 -0.16 -0.00    -0.019 A 
DOCKED: ATOM     23  C   UNL d   1       4.555 -13.378   1.264 -0.15 -0.00    +0.045 A 
DOCKED: ATOM     24  C   UNL d   1       2.378 -13.284   2.000 -0.20 -0.00    -0.022 A 
DOCKED: ATOM     25  C   UNL d   1       6.832 -13.701   0.357 -0.16 -0.01    +0.049 A 
DOCKED: ATOM     26  C   UNL d   1       8.707 -14.405  -0.737 -0.10 +0.01    -0.018 A 
DOCKED: ATOM     27  C   UNL d   1       8.199 -13.899   0.499 -0.12 -0.00    +0.003 A 
DOCKED: ATOM     28  C   UNL d   1       5.864 -13.088   1.198 -0.20 -0.01    +0.052 C 
DOCKED: ATOM     29  C   UNL d   1       1.099 -12.976   2.702 -0.22 +0.01    +0.046 C 
DOCKED: ATOM     30  C   UNL d   1      10.128 -14.735  -1.045 -0.06 -0.01    +0.046 C 
DOCKED: ATOM     31  H   UNL d   1       4.162 -14.962  -0.097 +0.06 +0.00    +0.166 HD
DOCKED: ATOM     32  H   UNL d   1       5.573 -14.106  -1.316 +0.07 -0.01    +0.166 HD
DOCKED: ENDROOT
DOCKED: BRANCH   7  33
DOCKED: ATOM     33  C   UNL d   1       7.651 -16.996  -5.321 -0.11 -0.07    +0.141 C 
DOCKED: BRANCH  33  34
DOCKED: ATOM     34  C   UNL d   1       7.454 -18.363  -4.722 -0.06 -0.16    +0.306 C 
DOCKED: ATOM     35  O   UNL d   1       7.935 -18.767  -3.677 -0.02 +0.08    -0.251 OA
DOCKED: BRANCH  34  36
DOCKED: ATOM     36  O   UNL d   1       6.659 -19.147  -5.470 -0.06 +0.57    -0.481 OA
DOCKED: ATOM     37  H   UNL d   1       6.382 -18.576  -6.218 -0.17 -0.55    +0.295 HD
DOCKED: ENDBRANCH  34  36
DOCKED: ENDBRANCH  33  34
DOCKED: ENDBRANCH   7  33
DOCKED: BRANCH  27  38
DOCKED: ATOM     38  C   UNL d   1       8.987 -13.606   1.658 -0.11 -0.01    +0.017 C 
DOCKED: ATOM     39  C   UNL d   1       8.681 -12.692   2.591 -0.05 -0.08    +0.092 C 
DOCKED: BRANCH  39  40
DOCKED: ATOM     40  C   UNL d   1       9.567 -12.500   3.743 -0.05 -0.20    +0.330 C 
DOCKED: ATOM     41  O   UNL d   1      10.467 -13.227   4.117 -0.03 +0.07    -0.246 OA
DOCKED: BRANCH  40  42
DOCKED: ATOM     42  O   UNL d   1       9.262 -11.356   4.374 -0.06 +0.47    -0.477 OA
DOCKED: ATOM     43  H   UNL d   1       8.519 -10.991   3.852 -0.33 -0.61    +0.295 HD
DOCKED: ENDBRANCH  40  42
DOCKED: ENDBRANCH  39  40
DOCKED: ENDBRANCH  27  38
DOCKED: BRANCH   8  44
DOCKED: ATOM     44  C   UNL d   1       0.176 -17.733  -3.284 -0.28 -0.04    +0.141 C 
DOCKED: BRANCH  44  45
DOCKED: ATOM     45  C   UNL d   1      -0.603 -19.004  -3.493 -0.16 -0.06    +0.306 C 
DOCKED: ATOM     46  O   UNL d   1      -0.269 -19.959  -4.172 -0.16 +0.06    -0.251 OA
DOCKED: BRANCH  45  47
DOCKED: ATOM     47  O   UNL d   1      -1.785 -18.994  -2.851 -0.08 -0.02    -0.481 OA
DOCKED: ATOM     48  H   UNL d   1      -2.346 -18.382  -3.373 -0.43 -0.07    +0.295 HD
DOCKED: ENDBRANCH  45  47
DOCKED: ENDBRANCH  44  45
DOCKED: ENDBRANCH   8  44
DOCKED: BRANCH  22  49
DOCKED: ATOM     49  C   UNL d   1       3.967 -11.643   3.152 -0.18 -0.00    +0.048 C 
DOCKED: BRANCH  49  50
DOCKED: ATOM     50  C   UNL d   1       3.386 -10.294   2.729 -0.34 -0.00    +0.125 C 
DOCKED: BRANCH  50  51
DOCKED: ATOM     51  C   UNL d   1       3.887  -9.896   1.370 -0.37 -0.05    +0.305 C 
DOCKED: ATOM     52  O   UNL d   1       3.806 -10.530   0.333 -0.60 +0.00    -0.251 OA
DOCKED: BRANCH  51  53
DOCKED: ATOM     53  O   UNL d   1       4.493  -8.692   1.389 -0.37 +0.13    -0.481 OA
DOCKED: ATOM     54  H   UNL d   1       4.755  -8.542   0.457 -0.29 -0.18    +0.295 HD
DOCKED: ENDBRANCH  51  53
DOCKED: ENDBRANCH  50  51
DOCKED: ENDBRANCH  49  50
DOCKED: ENDBRANCH  22  49
DOCKED: TORSDOF 13
DOCKED: TER
DOCKED: ENDMDL
________________________________________________________________________________


	BEGINNING GENETIC ALGORITHM DOCKING 97 of 100
Run: 97 Seed: 2086584757 1788586925 [ Run 97 of 100 GA/GALS ]
Beginning LAMARCKIAN GENETIC ALGORITHM (LGA), with a maximum of 25000000 energy evaluations.

Final-Value: -13.531


	FINAL GENETIC ALGORITHM DOCKED STATE
	_______________________________________________


Detailed state:  trans -6.055 -13.271 11.886 quatxyzw 0.545745 0.587640 -0.058329 0.594507 center 0.153 0.018 -0.028 ntor 13 63.6346 107.0498 123.4885 22.8323 -150.1576 3.6268 -64.7865 -139.9899 44.9582 -29.1393 -41.1649 -8.9181 20.6414
State:	 -6.055 -13.271  11.886   0.679  0.731 -0.073 107.045     63.63  107.05  123.49   22.83 -150.16    3.63  -64.79 -139.99   44.96  -29.14  -41.16   -8.92   20.64

DOCKED: MODEL       97
DOCKED: USER    Run = 97
DOCKED: USER    DPF = D:/Protein_go_brrr/autodock/final/AncB/heme/dock.dpf
DOCKED: USER  
DOCKED: USER    Estimated Free Energy of Binding    =   -6.77 kcal/mol  [=(1)+(2)+(3)-(4)]
DOCKED: USER    Estimated Inhibition Constant, Ki   =   10.85 uM (micromolar)  [Temperature = 298.15 K]
DOCKED: USER    
DOCKED: USER    (1) Final Intermolecular Energy     =  -10.65 kcal/mol
DOCKED: USER        vdW + Hbond + desolv Energy     =  -10.01 kcal/mol
DOCKED: USER        Electrostatic Energy            =   -0.64 kcal/mol
DOCKED: USER    (2) Final Total Internal Energy     =   -2.88 kcal/mol
DOCKED: USER    (3) Torsional Free Energy           =   +3.88 kcal/mol
DOCKED: USER    (4) Unbound System's Energy  [=(2)] =   -2.88 kcal/mol
DOCKED: USER    
DOCKED: USER    
DOCKED: USER    NEWDPF move heme_opt.pdbqt
DOCKED: USER    NEWDPF about 0.153000 0.018000 -0.028000
DOCKED: USER    NEWDPF tran0 -6.055163 -13.271348 11.885685
DOCKED: USER    NEWDPF quaternion0 0.545745 0.587640 -0.058329 0.594507
DOCKED: USER    NEWDPF axisangle0 0.678711 0.730814 -0.072540 107.044951
DOCKED: USER    NEWDPF quat0 0.678711 0.730814 -0.072540 107.044951
DOCKED: USER    NEWDPF dihe0 63.63 107.05 123.49 22.83 -150.16 3.63 -64.79 -139.99 44.96 -29.14 -41.16 -8.92 20.64 
DOCKED: USER  keepresnum = 1 
DOCKED: USER  
DOCKED: REMARK  13 active torsions:
DOCKED: REMARK  status: ('A' for Active; 'I' for Inactive)
DOCKED: REMARK    1  A    between atoms: O_3  and  C_38 
DOCKED: REMARK    2  A    between atoms: O_4  and  C_40 
DOCKED: REMARK    3  A    between atoms: O_7  and  C_46 
DOCKED: REMARK    4  A    between atoms: O_9  and  C_48 
DOCKED: REMARK    5  A    between atoms: C_15  and  C_20 
DOCKED: REMARK    6  A    between atoms: C_16  and  C_23 
DOCKED: REMARK    7  A    between atoms: C_20  and  C_38 
DOCKED: REMARK    8  A    between atoms: C_23  and  C_40 
DOCKED: REMARK    9  A    between atoms: C_32  and  C_41 
DOCKED: REMARK   10  A    between atoms: C_37  and  C_45 
DOCKED: REMARK   11  A    between atoms: C_41  and  C_44 
DOCKED: REMARK   12  A    between atoms: C_44  and  C_46 
DOCKED: REMARK   13  A    between atoms: C_47  and  C_48 
DOCKED: USER                              x       y       z     vdW  Elec       q    Type
DOCKED: USER                           _______ _______ _______ _____ _____    ______ ____
DOCKED: ROOT
DOCKED: ATOM      1  O   UNL d   1      -7.281 -16.212   6.925 -0.62 -0.79    -0.289 OA
DOCKED: ATOM      2  O   UNL d   1      -8.427 -18.003  14.127 -0.02 -0.09    -0.289 OA
DOCKED: ATOM      3  N   UNL d   1      -6.258 -14.203   9.535 -0.16 -0.19    -0.247 NA
DOCKED: ATOM      4  N   UNL d   1      -7.395 -15.555  11.924 -0.11 -0.13    -0.247 NA
DOCKED: ATOM      5  N   UNL d   1      -6.817 -13.176  13.431 -0.07 -0.15    -0.354 N 
DOCKED: ATOM      6  N   UNL d   1      -5.657 -11.773  10.944 -0.11 -0.18    -0.354 N 
DOCKED: ATOM      7  C   UNL d   1      -6.292 -13.983   7.094 -0.27 +0.10    +0.084 A 
DOCKED: ATOM      8  C   UNL d   1      -7.795 -17.960  11.763 -0.08 +0.06    +0.084 A 
DOCKED: ATOM      9  C   UNL d   1      -7.383 -16.648  11.087 -0.13 +0.05    +0.058 A 
DOCKED: ATOM     10  C   UNL d   1      -5.961 -13.379   8.462 -0.26 +0.04    +0.058 A 
DOCKED: ATOM     11  C   UNL d   1      -6.812 -15.301   7.583 -0.17 +0.35    +0.193 A 
DOCKED: ATOM     12  C   UNL d   1      -6.715 -15.322   9.077 -0.13 +0.13    +0.109 A 
DOCKED: ATOM     13  C   UNL d   1      -8.079 -17.403  13.129 -0.05 +0.08    +0.193 A 
DOCKED: ATOM     14  C   UNL d   1      -7.428 -13.231   6.395 -0.37 +0.04    +0.026 C 
DOCKED: ATOM     15  C   UNL d   1      -7.087 -16.567   9.781 -0.07 +0.08    +0.055 C 
DOCKED: ATOM     16  C   UNL d   1      -6.621 -18.939  11.865 -0.01 +0.01    +0.026 C 
DOCKED: ATOM     17  C   UNL d   1      -7.805 -15.934  13.092 -0.12 +0.04    +0.109 A 
DOCKED: ATOM     18  C   UNL d   1      -5.350 -12.185   8.575 -0.31 +0.03    +0.050 C 
DOCKED: ATOM     19  C   UNL d   1      -4.930 -11.587   9.790 -0.25 +0.02    +0.045 A 
DOCKED: ATOM     20  C   UNL d   1      -7.574 -13.858  14.349 -0.15 +0.02    +0.045 A 
DOCKED: ATOM     21  C   UNL d   1      -8.039 -15.110  14.287 -0.14 +0.02    +0.057 C 
DOCKED: ATOM     22  C   UNL d   1      -7.157 -11.759  15.150 -0.19 -0.01    -0.019 A 
DOCKED: ATOM     23  C   UNL d   1      -6.516 -11.900  13.827 -0.22 +0.02    +0.045 A 
DOCKED: ATOM     24  C   UNL d   1      -7.780 -12.922  15.454 -0.13 -0.01    -0.022 A 
DOCKED: ATOM     25  C   UNL d   1      -5.126 -11.034  11.975 -0.23 +0.03    +0.049 A 
DOCKED: ATOM     26  C   UNL d   1      -3.878 -10.735  10.088 -0.28 -0.01    -0.018 A 
DOCKED: ATOM     27  C   UNL d   1      -3.995 -10.405  11.473 -0.25 +0.00    +0.003 A 
DOCKED: ATOM     28  C   UNL d   1      -5.795 -10.941  13.226 -0.17 +0.04    +0.052 C 
DOCKED: ATOM     29  C   UNL d   1      -8.552 -13.274  16.680 -0.09 +0.01    +0.046 C 
DOCKED: ATOM     30  C   UNL d   1      -2.825 -10.256   9.146 -0.36 +0.01    +0.046 C 
DOCKED: ATOM     31  H   UNL d   1      -6.468 -13.631  12.595 +0.05 +0.07    +0.166 HD
DOCKED: ATOM     32  H   UNL d   1      -6.491 -12.347  10.994 +0.06 +0.10    +0.166 HD
DOCKED: ENDROOT
DOCKED: BRANCH   7  33
DOCKED: ATOM     33  C   UNL d   1      -5.095 -14.189   6.160 -0.19 +0.16    +0.141 C 
DOCKED: BRANCH  33  34
DOCKED: ATOM     34  C   UNL d   1      -4.498 -15.565   6.280 -0.05 +0.33    +0.306 C 
DOCKED: ATOM     35  O   UNL d   1      -3.540 -15.877   6.967 -0.02 -0.16    -0.251 OA
DOCKED: BRANCH  34  36
DOCKED: ATOM     36  O   UNL d   1      -5.141 -16.477   5.529 -0.46 -0.88    -0.481 OA
DOCKED: ATOM     37  H   UNL d   1      -5.478 -17.134   6.175 +0.05 +0.47    +0.295 HD
DOCKED: ENDBRANCH  34  36
DOCKED: ENDBRANCH  33  34
DOCKED: ENDBRANCH   7  33
DOCKED: BRANCH  27  38
DOCKED: ATOM     38  C   UNL d   1      -3.115  -9.532  12.191 -0.17 +0.01    +0.017 C 
DOCKED: ATOM     39  C   UNL d   1      -2.860  -9.601  13.507 -0.15 +0.03    +0.092 C 
DOCKED: BRANCH  39  40
DOCKED: ATOM     40  C   UNL d   1      -1.923  -8.656  14.119 -0.08 +0.05    +0.330 C 
DOCKED: ATOM     41  O   UNL d   1      -1.324  -7.746  13.577 -0.16 -0.03    -0.246 OA
DOCKED: BRANCH  40  42
DOCKED: ATOM     42  O   UNL d   1      -1.795  -8.915  15.429 -0.00 -0.05    -0.477 OA
DOCKED: ATOM     43  H   UNL d   1      -2.641  -8.604  15.814 +0.06 +0.04    +0.295 HD
DOCKED: ENDBRANCH  40  42
DOCKED: ENDBRANCH  39  40
DOCKED: ENDBRANCH  27  38
DOCKED: BRANCH   8  44
DOCKED: ATOM     44  C   UNL d   1      -9.037 -18.642  11.180 -0.11 +0.14    +0.141 C 
DOCKED: BRANCH  44  45
DOCKED: ATOM     45  C   UNL d   1     -10.328 -18.018  11.637 -0.14 +0.30    +0.306 C 
DOCKED: ATOM     46  O   UNL d   1     -11.137 -18.503  12.408 -0.43 -0.16    -0.251 OA
DOCKED: BRANCH  45  47
DOCKED: ATOM     47  O   UNL d   1     -10.546 -16.816  11.072 -0.72 -0.73    -0.481 OA
DOCKED: ATOM     48  H   UNL d   1      -9.761 -16.281  11.315 -0.47 +0.30    +0.295 HD
DOCKED: ENDBRANCH  45  47
DOCKED: ENDBRANCH  44  45
DOCKED: ENDBRANCH   8  44
DOCKED: BRANCH  22  49
DOCKED: ATOM     49  C   UNL d   1      -7.114 -10.509  15.979 -0.19 +0.03    +0.048 C 
DOCKED: BRANCH  49  50
DOCKED: ATOM     50  C   UNL d   1      -5.686 -10.149  16.390 -0.11 +0.05    +0.125 C 
DOCKED: BRANCH  50  51
DOCKED: ATOM     51  C   UNL d   1      -5.461  -8.667  16.302 -0.06 +0.13    +0.305 C 
DOCKED: ATOM     52  O   UNL d   1      -4.432  -8.088  15.998 -0.20 -0.05    -0.251 OA
DOCKED: BRANCH  51  53
DOCKED: ATOM     53  O   UNL d   1      -6.568  -7.968  16.620 -0.60 -0.11    -0.481 OA
DOCKED: ATOM     54  H   UNL d   1      -6.433  -7.098  16.189 -0.39 -0.30    +0.295 HD
DOCKED: ENDBRANCH  51  53
DOCKED: ENDBRANCH  50  51
DOCKED: ENDBRANCH  49  50
DOCKED: ENDBRANCH  22  49
DOCKED: TORSDOF 13
DOCKED: TER
DOCKED: ENDMDL
________________________________________________________________________________


	BEGINNING GENETIC ALGORITHM DOCKING 98 of 100
Run: 98 Seed: 1326816610 126546354 [ Run 98 of 100 GA/GALS ]
Beginning LAMARCKIAN GENETIC ALGORITHM (LGA), with a maximum of 25000000 energy evaluations.

Final-Value: -11.710


	FINAL GENETIC ALGORITHM DOCKED STATE
	_______________________________________________


Detailed state:  trans -3.488 -8.083 14.107 quatxyzw -0.398278 -0.150851 -0.576878 0.697015 center 0.153 0.018 -0.028 ntor 13 -179.4962 -35.2046 118.7910 -97.6426 -155.4621 178.8323 -47.9363 77.4067 9.2488 -135.1984 28.3514 80.5871 172.5673
State:	 -3.488  -8.083  14.107  -0.555 -0.210 -0.805 91.624   -179.50  -35.20  118.79  -97.64 -155.46  178.83  -47.94   77.41    9.25 -135.20   28.35   80.59  172.57

DOCKED: MODEL       98
DOCKED: USER    Run = 98
DOCKED: USER    DPF = D:/Protein_go_brrr/autodock/final/AncB/heme/dock.dpf
DOCKED: USER  
DOCKED: USER    Estimated Free Energy of Binding    =   -5.47 kcal/mol  [=(1)+(2)+(3)-(4)]
DOCKED: USER    Estimated Inhibition Constant, Ki   =   97.65 uM (micromolar)  [Temperature = 298.15 K]
DOCKED: USER    
DOCKED: USER    (1) Final Intermolecular Energy     =   -9.35 kcal/mol
DOCKED: USER        vdW + Hbond + desolv Energy     =   -8.95 kcal/mol
DOCKED: USER        Electrostatic Energy            =   -0.40 kcal/mol
DOCKED: USER    (2) Final Total Internal Energy     =   -2.36 kcal/mol
DOCKED: USER    (3) Torsional Free Energy           =   +3.88 kcal/mol
DOCKED: USER    (4) Unbound System's Energy  [=(2)] =   -2.36 kcal/mol
DOCKED: USER    
DOCKED: USER    
DOCKED: USER    NEWDPF move heme_opt.pdbqt
DOCKED: USER    NEWDPF about 0.153000 0.018000 -0.028000
DOCKED: USER    NEWDPF tran0 -3.488249 -8.082805 14.107427
DOCKED: USER    NEWDPF quaternion0 -0.398278 -0.150851 -0.576878 0.697015
DOCKED: USER    NEWDPF axisangle0 -0.555435 -0.210376 -0.804508 91.623993
DOCKED: USER    NEWDPF quat0 -0.555435 -0.210376 -0.804508 91.623993
DOCKED: USER    NEWDPF dihe0 -179.50 -35.20 118.79 -97.64 -155.46 178.83 -47.94 77.41 9.25 -135.20 28.35 80.59 172.57 
DOCKED: USER  keepresnum = 1 
DOCKED: USER  
DOCKED: REMARK  13 active torsions:
DOCKED: REMARK  status: ('A' for Active; 'I' for Inactive)
DOCKED: REMARK    1  A    between atoms: O_3  and  C_38 
DOCKED: REMARK    2  A    between atoms: O_4  and  C_40 
DOCKED: REMARK    3  A    between atoms: O_7  and  C_46 
DOCKED: REMARK    4  A    between atoms: O_9  and  C_48 
DOCKED: REMARK    5  A    between atoms: C_15  and  C_20 
DOCKED: REMARK    6  A    between atoms: C_16  and  C_23 
DOCKED: REMARK    7  A    between atoms: C_20  and  C_38 
DOCKED: REMARK    8  A    between atoms: C_23  and  C_40 
DOCKED: REMARK    9  A    between atoms: C_32  and  C_41 
DOCKED: REMARK   10  A    between atoms: C_37  and  C_45 
DOCKED: REMARK   11  A    between atoms: C_41  and  C_44 
DOCKED: REMARK   12  A    between atoms: C_44  and  C_46 
DOCKED: REMARK   13  A    between atoms: C_47  and  C_48 
DOCKED: USER                              x       y       z     vdW  Elec       q    Type
DOCKED: USER                           _______ _______ _______ _____ _____    ______ ____
DOCKED: ROOT
DOCKED: ATOM      1  O   UNL d   1      -5.831 -13.487  14.354 -0.02 -0.09    -0.289 OA
DOCKED: ATOM      2  O   UNL d   1      -1.999 -10.020   8.905 -0.22 -0.06    -0.289 OA
DOCKED: ATOM      3  N   UNL d   1      -4.757 -10.220  14.613 -0.09 -0.13    -0.247 NA
DOCKED: ATOM      4  N   UNL d   1      -3.114  -9.844  12.166 -0.13 -0.08    -0.247 NA
DOCKED: ATOM      5  N   UNL d   1      -2.091  -7.426  13.336 -0.03 -0.06    -0.354 N 
DOCKED: ATOM      6  N   UNL d   1      -3.784  -7.833  15.880 -0.09 -0.04    -0.354 N 
DOCKED: ATOM      7  C   UNL d   1      -5.836 -11.812  16.133 -0.04 +0.02    +0.084 A 
DOCKED: ATOM      8  C   UNL d   1      -3.641 -11.251  10.239 -0.18 +0.03    +0.084 A 
DOCKED: ATOM      9  C   UNL d   1      -3.880 -10.894  11.710 -0.18 +0.02    +0.058 A 
DOCKED: ATOM     10  C   UNL d   1      -5.251 -10.417  15.892 -0.10 +0.02    +0.058 A 
DOCKED: ATOM     11  C   UNL d   1      -5.601 -12.362  14.759 -0.04 +0.07    +0.193 A 
DOCKED: ATOM     12  C   UNL d   1      -4.966 -11.294  13.924 -0.12 +0.05    +0.109 A 
DOCKED: ATOM     13  C   UNL d   1      -2.571 -10.235   9.956 -0.20 +0.05    +0.193 A 
DOCKED: ATOM     14  C   UNL d   1      -5.006 -12.616  17.137 -0.01 +0.00    +0.026 C 
DOCKED: ATOM     15  C   UNL d   1      -4.725 -11.579  12.495 -0.18 +0.02    +0.055 C 
DOCKED: ATOM     16  C   UNL d   1      -4.863 -10.934   9.372 -0.16 +0.01    +0.026 C 
DOCKED: ATOM     17  C   UNL d   1      -2.339  -9.451  11.207 -0.22 +0.03    +0.109 A 
DOCKED: ATOM     18  C   UNL d   1      -5.310  -9.457  16.834 -0.12 +0.01    +0.050 C 
DOCKED: ATOM     19  C   UNL d   1      -4.873  -8.118  16.672 -0.16 +0.00    +0.045 A 
DOCKED: ATOM     20  C   UNL d   1      -1.252  -7.539  12.258 -0.20 +0.01    +0.045 A 
DOCKED: ATOM     21  C   UNL d   1      -1.306  -8.405  11.241 -0.32 +0.01    +0.057 C 
DOCKED: ATOM     22  C   UNL d   1      -0.529  -5.821  13.579 -0.36 +0.00    -0.019 A 
DOCKED: ATOM     23  C   UNL d   1      -1.734  -6.416  14.190 -0.27 +0.00    +0.045 A 
DOCKED: ATOM     24  C   UNL d   1      -0.249  -6.489  12.435 -0.30 -0.00    -0.022 A 
DOCKED: ATOM     25  C   UNL d   1      -3.482  -6.492  15.937 -0.24 -0.00    +0.049 A 
DOCKED: ATOM     26  C   UNL d   1      -5.312  -6.926  17.229 -0.08 +0.01    -0.018 A 
DOCKED: ATOM     27  C   UNL d   1      -4.442  -5.901  16.746 -0.22 -0.00    +0.003 A 
DOCKED: ATOM     28  C   UNL d   1      -2.303  -5.984  15.326 -0.31 -0.00    +0.052 C 
DOCKED: ATOM     29  C   UNL d   1       0.857  -6.254  11.464 -0.33 +0.00    +0.046 C 
DOCKED: ATOM     30  C   UNL d   1      -6.470  -6.749  18.152 -0.12 -0.02    +0.046 C 
DOCKED: ATOM     31  H   UNL d   1      -2.926  -7.996  13.415 +0.05 +0.05    +0.166 HD
DOCKED: ATOM     32  H   UNL d   1      -3.266  -8.536  15.366 +0.04 +0.03    +0.166 HD
DOCKED: ENDROOT
DOCKED: BRANCH   7  33
DOCKED: ATOM     33  C   UNL d   1      -7.328 -11.848  16.480 -0.07 +0.04    +0.141 C 
DOCKED: BRANCH  33  34
DOCKED: ATOM     34  C   UNL d   1      -8.183 -11.192  15.429 -0.18 +0.17    +0.306 C 
DOCKED: ATOM     35  O   UNL d   1      -8.663 -10.073  15.487 -0.33 -0.21    -0.251 OA
DOCKED: BRANCH  34  36
DOCKED: ATOM     36  O   UNL d   1      -8.385 -11.981  14.359 -0.27 -0.27    -0.481 OA
DOCKED: ATOM     37  H   UNL d   1      -7.870 -12.793  14.551 +0.10 +0.13    +0.295 HD
DOCKED: ENDBRANCH  34  36
DOCKED: ENDBRANCH  33  34
DOCKED: ENDBRANCH   7  33
DOCKED: BRANCH  27  38
DOCKED: ATOM     38  C   UNL d   1      -4.531  -4.514  17.089 -0.34 -0.01    +0.017 C 
DOCKED: ATOM     39  C   UNL d   1      -5.571  -3.712  16.810 -0.34 -0.05    +0.092 C 
DOCKED: BRANCH  39  40
DOCKED: ATOM     40  C   UNL d   1      -5.545  -2.310  17.233 -0.26 -0.10    +0.330 C 
DOCKED: ATOM     41  O   UNL d   1      -6.378  -1.451  17.012 -0.40 +0.07    -0.246 OA
DOCKED: BRANCH  40  42
DOCKED: ATOM     42  O   UNL d   1      -4.435  -2.062  17.946 -0.14 +0.11    -0.477 OA
DOCKED: ATOM     43  H   UNL d   1      -4.196  -1.146  17.697 -0.38 -0.11    +0.295 HD
DOCKED: ENDBRANCH  40  42
DOCKED: ENDBRANCH  39  40
DOCKED: ENDBRANCH  27  38
DOCKED: BRANCH   8  44
DOCKED: ATOM     44  C   UNL d   1      -3.131 -12.672   9.979 -0.07 +0.04    +0.141 C 
DOCKED: BRANCH  44  45
DOCKED: ATOM     45  C   UNL d   1      -3.024 -13.007   8.515 -0.04 +0.11    +0.306 C 
DOCKED: ATOM     46  O   UNL d   1      -3.881 -13.533   7.826 -0.06 -0.13    -0.251 OA
DOCKED: BRANCH  45  47
DOCKED: ATOM     47  O   UNL d   1      -1.825 -12.684   7.999 -0.01 -0.13    -0.481 OA
DOCKED: ATOM     48  H   UNL d   1      -1.762 -11.711   8.106 +0.10 +0.07    +0.295 HD
DOCKED: ENDBRANCH  45  47
DOCKED: ENDBRANCH  44  45
DOCKED: ENDBRANCH   8  44
DOCKED: BRANCH  22  49
DOCKED: ATOM     49  C   UNL d   1       0.238  -4.676  14.171 -0.39 -0.00    +0.048 C 
DOCKED: BRANCH  49  50
DOCKED: ATOM     50  C   UNL d   1       1.329  -5.156  15.128 -0.19 -0.01    +0.125 C 
DOCKED: BRANCH  50  51
DOCKED: ATOM     51  C   UNL d   1       1.592  -4.135  16.198 -0.12 -0.03    +0.305 C 
DOCKED: ATOM     52  O   UNL d   1       0.870  -3.833  17.132 -0.12 +0.02    -0.251 OA
DOCKED: BRANCH  51  53
DOCKED: ATOM     53  O   UNL d   1       2.779  -3.519  16.026 -0.05 +0.09    -0.481 OA
DOCKED: ATOM     54  H   UNL d   1       2.593  -2.825  15.360 -0.44 -0.16    +0.295 HD
DOCKED: ENDBRANCH  51  53
DOCKED: ENDBRANCH  50  51
DOCKED: ENDBRANCH  49  50
DOCKED: ENDBRANCH  22  49
DOCKED: TORSDOF 13
DOCKED: TER
DOCKED: ENDMDL
________________________________________________________________________________


	BEGINNING GENETIC ALGORITHM DOCKING 99 of 100
Run: 99 Seed: 707638437 555636670 [ Run 99 of 100 GA/GALS ]
Beginning LAMARCKIAN GENETIC ALGORITHM (LGA), with a maximum of 25000000 energy evaluations.

Final-Value: -10.738


	FINAL GENETIC ALGORITHM DOCKED STATE
	_______________________________________________


Detailed state:  trans 16.838 8.965 1.239 quatxyzw -0.397627 -0.234053 -0.852146 0.246898 center 0.153 0.018 -0.028 ntor 13 100.6722 -147.1190 88.5474 69.8514 -137.4134 26.4789 -60.7833 -63.5934 64.7924 -139.1771 -92.5441 -52.5630 -17.2173
State:	 16.838   8.965   1.239  -0.410 -0.242 -0.879 151.412    100.67 -147.12   88.55   69.85 -137.41   26.48  -60.78  -63.59   64.79 -139.18  -92.54  -52.56  -17.22

DOCKED: MODEL       99
DOCKED: USER    Run = 99
DOCKED: USER    DPF = D:/Protein_go_brrr/autodock/final/AncB/heme/dock.dpf
DOCKED: USER  
DOCKED: USER    Estimated Free Energy of Binding    =   -2.43 kcal/mol  [=(1)+(2)+(3)-(4)]
DOCKED: USER    Estimated Inhibition Constant, Ki   =   16.41 mM (millimolar)  [Temperature = 298.15 K]
DOCKED: USER    
DOCKED: USER    (1) Final Intermolecular Energy     =   -6.31 kcal/mol
DOCKED: USER        vdW + Hbond + desolv Energy     =   -6.16 kcal/mol
DOCKED: USER        Electrostatic Energy            =   -0.16 kcal/mol
DOCKED: USER    (2) Final Total Internal Energy     =   -4.43 kcal/mol
DOCKED: USER    (3) Torsional Free Energy           =   +3.88 kcal/mol
DOCKED: USER    (4) Unbound System's Energy  [=(2)] =   -4.43 kcal/mol
DOCKED: USER    
DOCKED: USER    
DOCKED: USER    NEWDPF move heme_opt.pdbqt
DOCKED: USER    NEWDPF about 0.153000 0.018000 -0.028000
DOCKED: USER    NEWDPF tran0 16.838214 8.965422 1.239288
DOCKED: USER    NEWDPF quaternion0 -0.397627 -0.234053 -0.852146 0.246898
DOCKED: USER    NEWDPF axisangle0 -0.410330 -0.241530 -0.879370 151.411982
DOCKED: USER    NEWDPF quat0 -0.410330 -0.241530 -0.879370 151.411982
DOCKED: USER    NEWDPF dihe0 100.67 -147.12 88.55 69.85 -137.41 26.48 -60.78 -63.59 64.79 -139.18 -92.54 -52.56 -17.22 
DOCKED: USER  keepresnum = 1 
DOCKED: USER  
DOCKED: REMARK  13 active torsions:
DOCKED: REMARK  status: ('A' for Active; 'I' for Inactive)
DOCKED: REMARK    1  A    between atoms: O_3  and  C_38 
DOCKED: REMARK    2  A    between atoms: O_4  and  C_40 
DOCKED: REMARK    3  A    between atoms: O_7  and  C_46 
DOCKED: REMARK    4  A    between atoms: O_9  and  C_48 
DOCKED: REMARK    5  A    between atoms: C_15  and  C_20 
DOCKED: REMARK    6  A    between atoms: C_16  and  C_23 
DOCKED: REMARK    7  A    between atoms: C_20  and  C_38 
DOCKED: REMARK    8  A    between atoms: C_23  and  C_40 
DOCKED: REMARK    9  A    between atoms: C_32  and  C_41 
DOCKED: REMARK   10  A    between atoms: C_37  and  C_45 
DOCKED: REMARK   11  A    between atoms: C_41  and  C_44 
DOCKED: REMARK   12  A    between atoms: C_44  and  C_46 
DOCKED: REMARK   13  A    between atoms: C_47  and  C_48 
DOCKED: USER                              x       y       z     vdW  Elec       q    Type
DOCKED: USER                           _______ _______ _______ _____ _____    ______ ____
DOCKED: ROOT
DOCKED: ATOM      1  O   UNL d   1      20.109   4.393  -0.537 -0.05 -0.03    -0.289 OA
DOCKED: ATOM      2  O   UNL d   1      18.216  10.757  -4.045 -0.56 -0.17    -0.289 OA
DOCKED: ATOM      3  N   UNL d   1      18.029   6.756   0.873 -0.12 -0.02    -0.247 NA
DOCKED: ATOM      4  N   UNL d   1      18.114   8.993  -1.081 -0.09 -0.05    -0.247 NA
DOCKED: ATOM      5  N   UNL d   1      16.886  10.660   0.914 -0.05 -0.07    -0.354 N 
DOCKED: ATOM      6  N   UNL d   1      16.820   8.339   2.942 -0.04 -0.06    -0.354 N 
DOCKED: ATOM      7  C   UNL d   1      19.068   4.679   1.656 -0.10 +0.00    +0.084 A 
DOCKED: ATOM      8  C   UNL d   1      18.622   8.430  -3.404 -0.16 +0.03    +0.084 A 
DOCKED: ATOM      9  C   UNL d   1      18.486   7.987  -1.944 -0.15 +0.01    +0.058 A 
DOCKED: ATOM     10  C   UNL d   1      18.179   5.892   1.945 -0.15 +0.00    +0.058 A 
DOCKED: ATOM     11  C   UNL d   1      19.380   5.001   0.226 -0.09 +0.01    +0.193 A 
DOCKED: ATOM     12  C   UNL d   1      18.672   6.269  -0.138 -0.15 +0.01    +0.109 A 
DOCKED: ATOM     13  C   UNL d   1      18.294   9.883  -3.205 -0.18 +0.07    +0.193 A 
DOCKED: ATOM     14  C   UNL d   1      20.367   4.713   2.466 -0.03 +0.00    +0.026 C 
DOCKED: ATOM     15  C   UNL d   1      18.757   6.737  -1.537 -0.18 +0.01    +0.055 C 
DOCKED: ATOM     16  C   UNL d   1      17.544   7.800  -4.292 -0.41 +0.01    +0.026 C 
DOCKED: ATOM     17  C   UNL d   1      18.013  10.095  -1.752 -0.16 +0.03    +0.109 A 
DOCKED: ATOM     18  C   UNL d   1      17.538   6.031   3.121 -0.15 +0.01    +0.050 C 
DOCKED: ATOM     19  C   UNL d   1      16.632   7.072   3.446 -0.13 +0.01    +0.045 A 
DOCKED: ATOM     20  C   UNL d   1      17.214  11.611  -0.017 -0.11 +0.01    +0.045 A 
DOCKED: ATOM     21  C   UNL d   1      17.703  11.442  -1.250 -0.14 +0.02    +0.057 C 
DOCKED: ATOM     22  C   UNL d   1      16.435  12.654   1.859 -0.05 -0.00    -0.019 A 
DOCKED: ATOM     23  C   UNL d   1      16.407  11.194   2.080 -0.07 +0.01    +0.045 A 
DOCKED: ATOM     24  C   UNL d   1      16.912  12.894   0.615 -0.07 -0.00    -0.022 A 
DOCKED: ATOM     25  C   UNL d   1      15.884   9.207   3.455 -0.08 +0.01    +0.049 A 
DOCKED: ATOM     26  C   UNL d   1      15.524   7.109   4.279 -0.13 -0.00    -0.018 A 
DOCKED: ATOM     27  C   UNL d   1      15.044   8.455   4.265 -0.11 +0.00    +0.003 A 
DOCKED: ATOM     28  C   UNL d   1      15.969  10.603   3.203 -0.06 +0.01    +0.052 C 
DOCKED: ATOM     29  C   UNL d   1      17.115  14.203  -0.070 -0.08 +0.01    +0.046 C 
DOCKED: ATOM     30  C   UNL d   1      14.944   5.966   5.040 -0.13 +0.01    +0.046 C 
DOCKED: ATOM     31  H   UNL d   1      16.930   9.671   0.694 +0.03 +0.03    +0.166 HD
DOCKED: ATOM     32  H   UNL d   1      17.575   8.586   2.313 +0.03 +0.02    +0.166 HD
DOCKED: ENDROOT
DOCKED: BRANCH   7  33
DOCKED: ATOM     33  C   UNL d   1      18.375   3.316   1.762 -0.21 +0.00    +0.141 C 
DOCKED: BRANCH  33  34
DOCKED: ATOM     34  C   UNL d   1      18.252   2.624   0.432 -0.19 -0.02    +0.306 C 
DOCKED: ATOM     35  O   UNL d   1      17.380   2.812  -0.400 -0.19 +0.05    -0.251 OA
DOCKED: BRANCH  34  36
DOCKED: ATOM     36  O   UNL d   1      19.236   1.733   0.218 -0.07 -0.02    -0.481 OA
DOCKED: ATOM     37  H   UNL d   1      19.992   2.272  -0.099 +0.07 +0.03    +0.295 HD
DOCKED: ENDBRANCH  34  36
DOCKED: ENDBRANCH  33  34
DOCKED: ENDBRANCH   7  33
DOCKED: BRANCH  27  38
DOCKED: ATOM     38  C   UNL d   1      13.918   8.937   5.006 -0.13 +0.01    +0.017 C 
DOCKED: ATOM     39  C   UNL d   1      13.641  10.229   5.240 -0.08 +0.04    +0.092 C 
DOCKED: BRANCH  39  40
DOCKED: ATOM     40  C   UNL d   1      12.442  10.592   6.002 -0.05 +0.23    +0.330 C 
DOCKED: ATOM     41  O   UNL d   1      11.841   9.912   6.811 -0.59 -0.28    -0.246 OA
DOCKED: BRANCH  40  42
DOCKED: ATOM     42  O   UNL d   1      12.061  11.841   5.694 -0.06 -0.23    -0.477 OA
DOCKED: ATOM     43  H   UNL d   1      12.311  11.938   4.752 +0.04 +0.12    +0.295 HD
DOCKED: ENDBRANCH  40  42
DOCKED: ENDBRANCH  39  40
DOCKED: ENDBRANCH  27  38
DOCKED: BRANCH   8  44
DOCKED: ATOM     44  C   UNL d   1      20.015   8.261  -4.019 -0.08 +0.04    +0.141 C 
DOCKED: BRANCH  44  45
DOCKED: ATOM     45  C   UNL d   1      20.044   8.511  -5.503 -0.06 +0.07    +0.306 C 
DOCKED: ATOM     46  O   UNL d   1      20.125   7.668  -6.380 -0.10 -0.07    -0.251 OA
DOCKED: BRANCH  45  47
DOCKED: ATOM     47  O   UNL d   1      19.997   9.821  -5.806 -0.04 -0.07    -0.481 OA
DOCKED: ATOM     48  H   UNL d   1      19.042  10.014  -5.924 -0.49 +0.04    +0.295 HD
DOCKED: ENDBRANCH  45  47
DOCKED: ENDBRANCH  44  45
DOCKED: ENDBRANCH   8  44
DOCKED: BRANCH  22  49
DOCKED: ATOM     49  C   UNL d   1      16.010  13.669   2.880 -0.02 +0.01    +0.048 C 
DOCKED: BRANCH  49  50
DOCKED: ATOM     50  C   UNL d   1      14.603  14.198   2.605 -0.02 +0.02    +0.125 C 
DOCKED: BRANCH  50  51
DOCKED: ATOM     51  C   UNL d   1      13.567  13.336   3.268 +0.00 +0.05    +0.305 C 
DOCKED: ATOM     52  O   UNL d   1      13.246  12.198   2.972 -0.02 -0.06    -0.251 OA
DOCKED: BRANCH  51  53
DOCKED: ATOM     53  O   UNL d   1      12.961  13.972   4.290 +0.01 -0.08    -0.481 OA
DOCKED: ATOM     54  H   UNL d   1      13.283  13.502   5.088 +0.01 +0.05    +0.295 HD
DOCKED: ENDBRANCH  51  53
DOCKED: ENDBRANCH  50  51
DOCKED: ENDBRANCH  49  50
DOCKED: ENDBRANCH  22  49
DOCKED: TORSDOF 13
DOCKED: TER
DOCKED: ENDMDL
________________________________________________________________________________


	BEGINNING GENETIC ALGORITHM DOCKING 100 of 100
Run: 100 Seed: 81878433 1964322589 [ Run 100 of 100 GA/GALS ]
Beginning LAMARCKIAN GENETIC ALGORITHM (LGA), with a maximum of 25000000 energy evaluations.

Final-Value: -11.873


	FINAL GENETIC ALGORITHM DOCKED STATE
	_______________________________________________


Detailed state:  trans 17.015 -5.342 -2.589 quatxyzw -0.501830 -0.495590 0.001044 0.708912 center 0.153 0.018 -0.028 ntor 13 129.9012 158.7855 170.8457 -80.0530 -132.9175 45.3242 150.1871 -34.5520 25.4830 -6.1649 -61.0715 -97.4167 28.9706
State:	 17.015  -5.342  -2.589  -0.712 -0.703  0.001 89.707    129.90  158.79  170.85  -80.05 -132.92   45.32  150.19  -34.55   25.48   -6.16  -61.07  -97.42   28.97

DOCKED: MODEL      100
DOCKED: USER    Run = 100
DOCKED: USER    DPF = D:/Protein_go_brrr/autodock/final/AncB/heme/dock.dpf
DOCKED: USER  
DOCKED: USER    Estimated Free Energy of Binding    =   -3.30 kcal/mol  [=(1)+(2)+(3)-(4)]
DOCKED: USER    Estimated Inhibition Constant, Ki   =    3.79 mM (millimolar)  [Temperature = 298.15 K]
DOCKED: USER    
DOCKED: USER    (1) Final Intermolecular Energy     =   -7.18 kcal/mol
DOCKED: USER        vdW + Hbond + desolv Energy     =   -6.89 kcal/mol
DOCKED: USER        Electrostatic Energy            =   -0.29 kcal/mol
DOCKED: USER    (2) Final Total Internal Energy     =   -4.69 kcal/mol
DOCKED: USER    (3) Torsional Free Energy           =   +3.88 kcal/mol
DOCKED: USER    (4) Unbound System's Energy  [=(2)] =   -4.69 kcal/mol
DOCKED: USER    
DOCKED: USER    
DOCKED: USER    NEWDPF move heme_opt.pdbqt
DOCKED: USER    NEWDPF about 0.153000 0.018000 -0.028000
DOCKED: USER    NEWDPF tran0 17.015139 -5.341717 -2.589037
DOCKED: USER    NEWDPF quaternion0 -0.501830 -0.495590 0.001044 0.708912
DOCKED: USER    NEWDPF axisangle0 -0.711515 -0.702669 0.001481 89.707094
DOCKED: USER    NEWDPF quat0 -0.711515 -0.702669 0.001481 89.707094
DOCKED: USER    NEWDPF dihe0 129.90 158.79 170.85 -80.05 -132.92 45.32 150.19 -34.55 25.48 -6.16 -61.07 -97.42 28.97 
DOCKED: USER  keepresnum = 1 
DOCKED: USER  
DOCKED: REMARK  13 active torsions:
DOCKED: REMARK  status: ('A' for Active; 'I' for Inactive)
DOCKED: REMARK    1  A    between atoms: O_3  and  C_38 
DOCKED: REMARK    2  A    between atoms: O_4  and  C_40 
DOCKED: REMARK    3  A    between atoms: O_7  and  C_46 
DOCKED: REMARK    4  A    between atoms: O_9  and  C_48 
DOCKED: REMARK    5  A    between atoms: C_15  and  C_20 
DOCKED: REMARK    6  A    between atoms: C_16  and  C_23 
DOCKED: REMARK    7  A    between atoms: C_20  and  C_38 
DOCKED: REMARK    8  A    between atoms: C_23  and  C_40 
DOCKED: REMARK    9  A    between atoms: C_32  and  C_41 
DOCKED: REMARK   10  A    between atoms: C_37  and  C_45 
DOCKED: REMARK   11  A    between atoms: C_41  and  C_44 
DOCKED: REMARK   12  A    between atoms: C_44  and  C_46 
DOCKED: REMARK   13  A    between atoms: C_47  and  C_48 
DOCKED: USER                              x       y       z     vdW  Elec       q    Type
DOCKED: USER                           _______ _______ _______ _____ _____    ______ ____
DOCKED: ROOT
DOCKED: ATOM      1  O   UNL d   1      15.458  -7.748   2.563 -0.02 +0.01    -0.289 OA
DOCKED: ATOM      2  O   UNL d   1      12.138  -7.940  -4.170 -0.50 +0.22    -0.289 OA
DOCKED: ATOM      3  N   UNL d   1      16.688  -6.050  -0.176 -0.13 -0.01    -0.247 NA
DOCKED: ATOM      4  N   UNL d   1      14.925  -6.956  -2.390 -0.19 +0.02    -0.247 NA
DOCKED: ATOM      5  N   UNL d   1      16.816  -5.822  -4.235 -0.12 -0.07    -0.354 N 
DOCKED: ATOM      6  N   UNL d   1      18.648  -4.902  -1.933 -0.10 -0.04    -0.354 N 
DOCKED: ATOM      7  C   UNL d   1      17.479  -6.451   2.109 -0.06 +0.00    +0.084 A 
DOCKED: ATOM      8  C   UNL d   1      12.675  -7.700  -1.794 -0.35 -0.03    +0.084 A 
DOCKED: ATOM      9  C   UNL d   1      14.064  -7.229  -1.350 -0.26 -0.01    +0.058 A 
DOCKED: ATOM     10  C   UNL d   1      17.709  -5.822   0.732 -0.13 +0.00    +0.058 A 
DOCKED: ATOM     11  C   UNL d   1      16.139  -7.059   1.826 -0.06 -0.00    +0.193 A 
DOCKED: ATOM     12  C   UNL d   1      15.757  -6.724   0.417 -0.16 -0.00    +0.109 A 
DOCKED: ATOM     13  C   UNL d   1      12.920  -7.680  -3.277 -0.26 -0.09    +0.193 A 
DOCKED: ATOM     14  C   UNL d   1      18.479  -7.572   2.403 -0.02 +0.00    +0.026 C 
DOCKED: ATOM     15  C   UNL d   1      14.423  -7.142  -0.060 -0.25 -0.00    +0.055 C 
DOCKED: ATOM     16  C   UNL d   1      11.593  -6.670  -1.459 -0.52 -0.01    +0.026 C 
DOCKED: ATOM     17  C   UNL d   1      14.323  -7.218  -3.505 -0.21 -0.01    +0.109 A 
DOCKED: ATOM     18  C   UNL d   1      18.779  -5.044   0.484 -0.14 +0.00    +0.050 C 
DOCKED: ATOM     19  C   UNL d   1      19.031  -4.354  -0.730 -0.10 +0.00    +0.045 A 
DOCKED: ATOM     20  C   UNL d   1      16.012  -6.504  -5.111 -0.16 +0.01    +0.045 A 
DOCKED: ATOM     21  C   UNL d   1      14.861  -7.140  -4.871 -0.28 +0.01    +0.057 C 
DOCKED: ATOM     22  C   UNL d   1      17.813  -5.681  -6.250 -0.15 -0.01    -0.019 A 
DOCKED: ATOM     23  C   UNL d   1      17.928  -5.289  -4.831 -0.19 +0.01    +0.045 A 
DOCKED: ATOM     24  C   UNL d   1      16.676  -6.399  -6.410 -0.18 -0.01    -0.022 A 
DOCKED: ATOM     25  C   UNL d   1      19.069  -4.114  -2.979 -0.16 +0.01    +0.049 A 
DOCKED: ATOM     26  C   UNL d   1      19.684  -3.161  -0.998 -0.13 -0.00    -0.018 A 
DOCKED: ATOM     27  C   UNL d   1      19.688  -3.005  -2.419 -0.17 +0.00    +0.003 A 
DOCKED: ATOM     28  C   UNL d   1      18.928  -4.551  -4.324 -0.21 +0.01    +0.052 C 
DOCKED: ATOM     29  C   UNL d   1      16.121  -7.001  -7.655 -0.18 +0.03    +0.046 C 
DOCKED: ATOM     30  C   UNL d   1      20.268  -2.221   0.001 -0.12 +0.00    +0.046 C 
DOCKED: ATOM     31  H   UNL d   1      16.540  -5.679  -3.270 +0.03 +0.02    +0.166 HD
DOCKED: ATOM     32  H   UNL d   1      18.161  -5.787  -2.016 +0.03 +0.02    +0.166 HD
DOCKED: ENDROOT
DOCKED: BRANCH   7  33
DOCKED: ATOM     33  C   UNL d   1      17.385  -5.461   3.276 -0.06 +0.01    +0.141 C 
DOCKED: BRANCH  33  34
DOCKED: ATOM     34  C   UNL d   1      16.091  -4.694   3.282 -0.10 +0.01    +0.306 C 
DOCKED: ATOM     35  O   UNL d   1      15.818  -3.737   2.578 -0.19 -0.02    -0.251 OA
DOCKED: BRANCH  34  36
DOCKED: ATOM     36  O   UNL d   1      15.207  -5.177   4.173 -0.01 -0.02    -0.481 OA
DOCKED: ATOM     37  H   UNL d   1      15.146  -6.134   3.967 +0.06 +0.00    +0.295 HD
DOCKED: ENDBRANCH  34  36
DOCKED: ENDBRANCH  33  34
DOCKED: ENDBRANCH   7  33
DOCKED: BRANCH  27  38
DOCKED: ATOM     38  C   UNL d   1      20.278  -1.909  -3.127 -0.19 +0.00    +0.017 C 
DOCKED: ATOM     39  C   UNL d   1      21.270  -2.012  -4.025 -0.07 +0.02    +0.092 C 
DOCKED: BRANCH  39  40
DOCKED: ATOM     40  C   UNL d   1      21.775  -0.811  -4.695 -0.02 +0.06    +0.330 C 
DOCKED: ATOM     41  O   UNL d   1      22.017   0.272  -4.198 -0.03 -0.04    -0.246 OA
DOCKED: BRANCH  40  42
DOCKED: ATOM     42  O   UNL d   1      21.962  -1.056  -6.002 +0.01 -0.09    -0.477 OA
DOCKED: ATOM     43  H   UNL d   1      22.038  -2.031  -6.050 +0.03 +0.05    +0.295 HD
DOCKED: ENDBRANCH  40  42
DOCKED: ENDBRANCH  39  40
DOCKED: ENDBRANCH  27  38
DOCKED: BRANCH   8  44
DOCKED: ATOM     44  C   UNL d   1      12.272  -9.102  -1.324 -0.21 -0.08    +0.141 C 
DOCKED: BRANCH  44  45
DOCKED: ATOM     45  C   UNL d   1      13.254 -10.169  -1.727 -0.07 -0.17    +0.306 C 
DOCKED: ATOM     46  O   UNL d   1      14.048 -10.739  -0.999 -0.03 +0.07    -0.251 OA
DOCKED: BRANCH  45  47
DOCKED: ATOM     47  O   UNL d   1      13.203 -10.446  -3.043 +0.05 +0.49    -0.481 OA
DOCKED: ATOM     48  H   UNL d   1      12.405  -9.975  -3.364 -0.42 -0.71    +0.295 HD
DOCKED: ENDBRANCH  45  47
DOCKED: ENDBRANCH  44  45
DOCKED: ENDBRANCH   8  44
DOCKED: BRANCH  22  49
DOCKED: ATOM     49  C   UNL d   1      18.823  -5.333  -7.304 -0.09 +0.01    +0.048 C 
DOCKED: BRANCH  49  50
DOCKED: ATOM     50  C   UNL d   1      19.088  -3.829  -7.364 -0.11 +0.03    +0.125 C 
DOCKED: BRANCH  50  51
DOCKED: ATOM     51  C   UNL d   1      20.533  -3.527  -7.086 -0.02 +0.06    +0.305 C 
DOCKED: ATOM     52  O   UNL d   1      21.252  -4.045  -6.250 -0.01 -0.04    -0.251 OA
DOCKED: BRANCH  51  53
DOCKED: ATOM     53  O   UNL d   1      21.008  -2.554  -7.888 +0.01 -0.09    -0.481 OA
DOCKED: ATOM     54  H   UNL d   1      20.977  -1.749  -7.329 +0.04 +0.06    +0.295 HD
DOCKED: ENDBRANCH  51  53
DOCKED: ENDBRANCH  50  51
DOCKED: ENDBRANCH  49  50
DOCKED: ENDBRANCH  22  49
DOCKED: TORSDOF 13
DOCKED: TER
DOCKED: ENDMDL
________________________________________________________________________________

DPF> analysis                             # perform a ranked cluster analysis


		CLUSTER ANALYSIS OF CONFORMATIONS
		_________________________________

Number of conformations = 100

RMSD cluster analysis will be performed using the ligand atoms only (54 / 54 total atoms).

Outputting structurally similar clusters, ranked in order of increasing energy.


________________________________________________________________________________

Number of distinct conformational clusters found = 63,  out of 100 runs,
Using an rmsd-tolerance of 2.0 A


	CLUSTERING HISTOGRAM
	____________________

________________________________________________________________________________
     |           |     |           |     |                                    
Clus | Lowest    | Run | Mean      | Num | Histogram                          
-ter | Binding   |     | Binding   | in  |                                    
Rank | Energy    |     | Energy    | Clus|    5    10   15   20   25   30   35
_____|___________|_____|___________|_____|____:____|____:____|____:____|____:___
   1 |     -8.04 |  27 |     -8.04 |   1 |#
   2 |     -6.97 |  59 |     -6.97 |   1 |#
   3 |     -6.83 |  11 |     -5.79 |   9 |#########
   4 |     -6.77 |  97 |     -6.77 |   1 |#
   5 |     -6.61 |  51 |     -6.61 |   1 |#
   6 |     -6.46 |  37 |     -5.02 |   2 |##
   7 |     -6.32 |  46 |     -6.32 |   1 |#
   8 |     -6.25 |  31 |     -5.66 |   4 |####
   9 |     -5.93 |  19 |     -5.83 |   2 |##
  10 |     -5.90 |  18 |     -5.90 |   1 |#
  11 |     -5.88 |  96 |     -5.86 |   2 |##
  12 |     -5.70 |   1 |     -5.70 |   1 |#
  13 |     -5.67 |  74 |     -4.91 |   3 |###
  14 |     -5.65 |  22 |     -5.56 |   2 |##
  15 |     -5.64 |  63 |     -5.30 |   4 |####
  16 |     -5.63 |  91 |     -5.63 |   1 |#
  17 |     -5.58 |   6 |     -5.58 |   1 |#
  18 |     -5.51 |  20 |     -5.51 |   1 |#
  19 |     -5.40 |  62 |     -5.40 |   1 |#
  20 |     -5.38 |   4 |     -5.17 |   2 |##
  21 |     -5.25 |  55 |     -5.25 |   1 |#
  22 |     -5.23 |  25 |     -5.23 |   1 |#
  23 |     -5.21 |  48 |     -5.01 |   2 |##
  24 |     -5.11 |  67 |     -5.11 |   1 |#
  25 |     -5.00 |  45 |     -4.34 |   2 |##
  26 |     -4.98 |  70 |     -4.98 |   1 |#
  27 |     -4.95 |  49 |     -4.85 |   4 |####
  28 |     -4.92 |  33 |     -4.92 |   1 |#
  29 |     -4.91 |  29 |     -4.91 |   1 |#
  30 |     -4.78 |  77 |     -3.84 |   2 |##
  31 |     -4.69 |  16 |     -4.69 |   1 |#
  32 |     -4.59 |  21 |     -4.59 |   1 |#
  33 |     -4.45 |  78 |     -4.30 |   2 |##
  34 |     -4.42 |  72 |     -4.07 |   2 |##
  35 |     -4.31 |  66 |     -4.00 |   2 |##
  36 |     -4.18 |  50 |     -3.77 |   5 |#####
  37 |     -4.16 |  14 |     -3.90 |   2 |##
  38 |     -4.05 |  44 |     -4.05 |   1 |#
  39 |     -4.03 |  60 |     -4.03 |   1 |#
  40 |     -4.00 |  28 |     -4.00 |   1 |#
  41 |     -3.96 |  10 |     -3.96 |   1 |#
  42 |     -3.83 |  89 |     -3.83 |   1 |#
  43 |     -3.80 |  73 |     -3.80 |   1 |#
  44 |     -3.68 |  69 |     -3.68 |   1 |#
  45 |     -3.67 |  13 |     -3.25 |   2 |##
  46 |     -3.67 |  90 |     -3.67 |   1 |#
  47 |     -3.46 |  32 |     -3.46 |   1 |#
  48 |     -3.40 |  75 |     -3.40 |   1 |#
  49 |     -3.39 |  38 |     -3.39 |   1 |#
  50 |     -3.38 |  84 |     -3.38 |   1 |#
  51 |     -3.31 |  40 |     -3.31 |   1 |#
  52 |     -3.30 | 100 |     -3.30 |   1 |#
  53 |     -3.26 |  80 |     -3.26 |   1 |#
  54 |     -3.09 |  82 |     -3.09 |   1 |#
  55 |     -3.06 |  35 |     -3.06 |   1 |#
  56 |     -3.02 |   7 |     -3.02 |   1 |#
  57 |     -2.92 |  68 |     -2.92 |   1 |#
  58 |     -2.88 |  94 |     -2.88 |   1 |#
  59 |     -2.79 |  71 |     -2.61 |   2 |##
  60 |     -2.78 |  65 |     -2.78 |   1 |#
  61 |     -2.59 |  52 |     -2.59 |   1 |#
  62 |     -2.43 |  99 |     -2.43 |   1 |#
  63 |     -2.11 |  42 |     -2.11 |   1 |#
_____|___________|_____|___________|_____|______________________________________


Number of multi-member conformational clusters found = 20, out of 100 runs.

	RMSD TABLE
	__________

_____________________________________________________________________
     |      |      |           |         |                 |
Rank | Sub- | Run  | Binding   | Cluster | Reference       | Grep
     | Rank |      | Energy    | RMSD    | RMSD            | Pattern
_____|______|______|___________|_________|_________________|___________
   1      1     27       -8.04      0.00     11.07           RANKING
   2      1     59       -6.97      0.00     12.96           RANKING
   3      1     11       -6.83      0.00     11.54           RANKING
   3      2     85       -6.69      0.66     11.52           RANKING
   3      3     23       -6.49      0.32     11.61           RANKING
   3      4     34       -6.09      1.06     11.50           RANKING
   3      5      9       -5.96      0.84     11.61           RANKING
   3      6     41       -5.24      0.98     11.43           RANKING
   3      7     43       -4.97      1.16     11.61           RANKING
   3      8     95       -4.94      1.28     11.47           RANKING
   3      9     39       -4.88      1.28     11.50           RANKING
   4      1     97       -6.77      0.00     16.13           RANKING
   5      1     51       -6.61      0.00     12.23           RANKING
   6      1     37       -6.46      0.00     16.46           RANKING
   6      2     24       -3.59      1.36     16.91           RANKING
   7      1     46       -6.32      0.00     15.35           RANKING
   8      1     31       -6.25      0.00     15.11           RANKING
   8      2     12       -5.69      1.58     15.48           RANKING
   8      3      2       -5.38      1.71     15.62           RANKING
   8      4     92       -5.32      1.94     15.58           RANKING
   9      1     19       -5.93      0.00     14.92           RANKING
   9      2     30       -5.72      1.54     15.13           RANKING
  10      1     18       -5.90      0.00     13.16           RANKING
  11      1     96       -5.88      0.00     12.67           RANKING
  11      2      3       -5.84      1.27     12.32           RANKING
  12      1      1       -5.70      0.00     17.45           RANKING
  13      1     74       -5.67      0.00     15.48           RANKING
  13      2     17       -4.95      1.88     15.85           RANKING
  13      3     87       -4.10      0.97     15.69           RANKING
  14      1     22       -5.65      0.00     15.64           RANKING
  14      2     98       -5.47      1.74     15.25           RANKING
  15      1     63       -5.64      0.00     16.78           RANKING
  15      2      8       -5.37      1.50     16.71           RANKING
  15      3     76       -5.29      1.21     16.68           RANKING
  15      4     64       -4.91      1.85     16.75           RANKING
  16      1     91       -5.63      0.00     17.32           RANKING
  17      1      6       -5.58      0.00     16.23           RANKING
  18      1     20       -5.51      0.00     17.54           RANKING
  19      1     62       -5.40      0.00     17.44           RANKING
  20      1      4       -5.38      0.00     16.13           RANKING
  20      2     56       -4.95      1.91     14.85           RANKING
  21      1     55       -5.25      0.00     14.94           RANKING
  22      1     25       -5.23      0.00     12.45           RANKING
  23      1     48       -5.21      0.00     15.46           RANKING
  23      2     86       -4.80      1.88     15.36           RANKING
  24      1     67       -5.11      0.00     17.26           RANKING
  25      1     45       -5.00      0.00     15.31           RANKING
  25      2     81       -3.68      1.02     15.72           RANKING
  26      1     70       -4.98      0.00     16.39           RANKING
  27      1     49       -4.95      0.00     16.08           RANKING
  27      2     61       -4.91      1.71     15.63           RANKING
  27      3     15       -4.86      1.79     15.96           RANKING
  27      4     79       -4.68      1.69     15.81           RANKING
  28      1     33       -4.92      0.00     16.55           RANKING
  29      1     29       -4.91      0.00     16.30           RANKING
  30      1     77       -4.78      0.00     16.60           RANKING
  30      2     93       -2.90      1.26     17.02           RANKING
  31      1     16       -4.69      0.00     14.82           RANKING
  32      1     21       -4.59      0.00     19.08           RANKING
  33      1     78       -4.45      0.00     12.30           RANKING
  33      2     47       -4.15      1.39     12.45           RANKING
  34      1     72       -4.42      0.00     16.96           RANKING
  34      2     54       -3.72      0.77     17.05           RANKING
  35      1     66       -4.31      0.00     14.04           RANKING
  35      2     53       -3.69      1.64     14.39           RANKING
  36      1     50       -4.18      0.00     14.72           RANKING
  36      2     88       -3.91      1.58     14.57           RANKING
  36      3     57       -3.76      1.48     14.71           RANKING
  36      4     58       -3.71      0.86     14.52           RANKING
  36      5     26       -3.31      1.14     14.35           RANKING
  37      1     14       -4.16      0.00     12.54           RANKING
  37      2     83       -3.63      1.06     12.56           RANKING
  38      1     44       -4.05      0.00     14.05           RANKING
  39      1     60       -4.03      0.00     14.40           RANKING
  40      1     28       -4.00      0.00     17.68           RANKING
  41      1     10       -3.96      0.00     14.24           RANKING
  42      1     89       -3.83      0.00     15.27           RANKING
  43      1     73       -3.80      0.00     10.18           RANKING
  44      1     69       -3.68      0.00     18.30           RANKING
  45      1     13       -3.67      0.00     15.06           RANKING
  45      2      5       -2.82      1.70     15.29           RANKING
  46      1     90       -3.67      0.00     13.49           RANKING
  47      1     32       -3.46      0.00     18.49           RANKING
  48      1     75       -3.40      0.00     11.28           RANKING
  49      1     38       -3.39      0.00     14.29           RANKING
  50      1     84       -3.38      0.00     11.21           RANKING
  51      1     40       -3.31      0.00     16.20           RANKING
  52      1    100       -3.30      0.00     13.58           RANKING
  53      1     80       -3.26      0.00     11.79           RANKING
  54      1     82       -3.09      0.00     18.31           RANKING
  55      1     35       -3.06      0.00     13.88           RANKING
  56      1      7       -3.02      0.00     15.12           RANKING
  57      1     68       -2.92      0.00     16.77           RANKING
  58      1     94       -2.88      0.00     15.67           RANKING
  59      1     71       -2.79      0.00     12.51           RANKING
  59      2     36       -2.44      0.65     12.67           RANKING
  60      1     65       -2.78      0.00     15.42           RANKING
  61      1     52       -2.59      0.00     16.77           RANKING
  62      1     99       -2.43      0.00     14.94           RANKING
  63      1     42       -2.11      0.00     18.33           RANKING
_______________________________________________________________________



	INFORMATION ENTROPY ANALYSIS FOR THIS CLUSTERING
	________________________________________________


Information entropy for this clustering = 0.85  (rmstol = 2.00 Angstrom)

_______________________________________________________________________


	STATISTICAL MECHANICAL ANALYSIS
	_______________________________


Partition function, Q =   100.78            at Temperature, T = 298.15 K
Free energy,        A ~ -2733.10 kcal/mol   at Temperature, T = 298.15 K
Internal energy,    U =    -4.62 kcal/mol   at Temperature, T = 298.15 K
Entropy,            S =     9.15 kcal/mol/K at Temperature, T = 298.15 K

_______________________________________________________________________


	LOWEST ENERGY DOCKED CONFORMATION from EACH CLUSTER
	___________________________________________________



Keeping original residue number (specified in the input PDBQ file) for outputting.

MODEL       27
USER    Run = 27
USER    Cluster Rank = 1
USER    Number of conformations in this cluster = 1
USER  
USER    RMSD from reference structure       = 11.072 A
USER  
USER    Estimated Free Energy of Binding    =   -8.04 kcal/mol  [=(1)+(2)+(3)-(4)]
USER    Estimated Inhibition Constant, Ki   =    1.27 uM (micromolar)  [Temperature = 298.15 K]
USER    
USER    (1) Final Intermolecular Energy     =  -11.92 kcal/mol
USER        vdW + Hbond + desolv Energy     =  -11.40 kcal/mol
USER        Electrostatic Energy            =   -0.52 kcal/mol
USER    (2) Final Total Internal Energy     =   -1.83 kcal/mol
USER    (3) Torsional Free Energy           =   +3.88 kcal/mol
USER    (4) Unbound System's Energy  [=(2)] =   -1.83 kcal/mol
USER    
USER    
USER  
USER    DPF = D:/Protein_go_brrr/autodock/final/AncB/heme/dock.dpf
USER    NEWDPF move	heme_opt.pdbqt
USER    NEWDPF about	0.153000 0.018000 -0.028000
USER    NEWDPF tran0	1.044798 -0.959567 -11.165865
USER    NEWDPF axisangle0	-0.924656 0.109216 -0.364805 -91.397187
USER    NEWDPF quaternion0	-0.661754 0.078163 -0.261082 -0.698433
USER    NEWDPF dihe0	111.52 33.80 -165.22 33.77 -179.99 -59.10 -73.38 -52.24 -21.68 -154.56 28.16 148.31 -51.36 
USER  
USER                              x       y       z    vdW   Elec        q     RMS 
ATOM      1  O   UNL d   1      -2.997   2.219 -14.050 -0.41 -0.66    -0.289    11.072
ATOM      2  O   UNL d   1      -3.202  -1.052  -7.293 -0.28 -0.10    -0.289    11.072
ATOM      3  N   UNL d   1      -0.398   0.317 -12.816 -0.01 -0.22    -0.247    11.072
ATOM      4  N   UNL d   1      -1.249  -0.279 -10.032 -0.05 -0.15    -0.247    11.072
ATOM      5  N   UNL d   1       1.437  -1.153  -9.496 -0.12 -0.19    -0.354    11.072
ATOM      6  N   UNL d   1       2.316  -0.514 -12.380 -0.16 -0.14    -0.354    11.072
ATOM      7  C   UNL d   1      -0.730   1.706 -14.808 -0.12 +0.09    +0.084    11.072
ATOM      8  C   UNL d   1      -3.650  -0.284  -9.574 -0.27 +0.05    +0.084    11.072
ATOM      9  C   UNL d   1      -2.499  -0.027 -10.553 -0.28 +0.05    +0.058    11.072
ATOM     10  C   UNL d   1       0.182   0.798 -13.977 -0.16 +0.05    +0.058    11.072
ATOM     11  C   UNL d   1      -1.936   1.637 -13.919 -0.14 +0.28    +0.193    11.072
ATOM     12  C   UNL d   1      -1.617   0.745 -12.759 -0.18 +0.13    +0.109    11.072
ATOM     13  C   UNL d   1      -2.820  -0.693  -8.390 -0.28 +0.09    +0.193    11.072
ATOM     14  C   UNL d   1      -0.224   3.150 -14.845 -0.23 +0.03    +0.026    11.072
ATOM     15  C   UNL d   1      -2.693   0.451 -11.791 -0.28 +0.06    +0.055    11.072
ATOM     16  C   UNL d   1      -4.509  -1.476 -10.008 +0.02 +0.02    +0.026    11.072
ATOM     17  C   UNL d   1      -1.383  -0.641  -8.796 -0.32 +0.05    +0.109    11.072
ATOM     18  C   UNL d   1       1.406   0.444 -14.413 -0.20 +0.03    +0.050    11.072
ATOM     19  C   UNL d   1       2.284  -0.455 -13.755 -0.25 +0.02    +0.045    11.072
ATOM     20  C   UNL d   1       0.932  -1.148  -8.222 +0.45 +0.03    +0.045    11.072
ATOM     21  C   UNL d   1      -0.328  -0.951  -7.820 -0.19 +0.03    +0.057    11.072
ATOM     22  C   UNL d   1       3.177  -1.556  -8.125 -0.44 -0.01    -0.019    11.072
ATOM     23  C   UNL d   1       2.785  -1.391  -9.538 -0.42 +0.02    +0.045    11.072
ATOM     24  C   UNL d   1       2.076  -1.412  -7.350 -0.37 -0.01    -0.022    11.072
ATOM     25  C   UNL d   1       3.297  -1.380 -11.957 -0.43 +0.01    +0.049    11.072
ATOM     26  C   UNL d   1       3.243  -1.332 -14.238 -0.24 -0.01    -0.018    11.072
ATOM     27  C   UNL d   1       3.866  -1.928 -13.098 -0.39 +0.00    +0.003    11.072
ATOM     28  C   UNL d   1       3.627  -1.491 -10.578 -0.50 +0.02    +0.052    11.072
ATOM     29  C   UNL d   1       1.961  -1.504  -5.867 -0.45 +0.01    +0.046    11.072
ATOM     30  C   UNL d   1       3.562  -1.603 -15.669 -0.18 +0.01    +0.046    11.072
ATOM     31  H   UNL d   1       0.828  -1.067 -10.303 +0.08 +0.09    +0.166    11.072
ATOM     32  H   UNL d   1       1.719   0.044 -11.781 +0.10 +0.07    +0.166    11.072
ATOM     33  C   UNL d   1      -1.068   1.191 -16.211 -0.04 +0.13    +0.141    11.072
ATOM     34  C   UNL d   1      -0.990  -0.308 -16.313 -0.04 +0.30    +0.306    11.072
ATOM     35  O   UNL d   1      -0.333  -0.943 -17.121 -0.04 -0.18    -0.251    11.072
ATOM     36  O   UNL d   1      -1.743  -0.930 -15.388 -0.53 -0.96    -0.481    11.072
ATOM     37  H   UNL d   1      -1.274  -0.772 -14.541 +0.07 +0.51    +0.295    11.072
ATOM     38  C   UNL d   1       4.928  -2.887 -13.146 -0.51 +0.00    +0.017    11.072
ATOM     39  C   UNL d   1       5.555  -3.294 -14.260 -0.43 +0.01    +0.092    11.072
ATOM     40  C   UNL d   1       6.642  -4.272 -14.171 -0.28 +0.03    +0.330    11.072
ATOM     41  O   UNL d   1       7.699  -4.157 -13.579 -0.27 -0.05    -0.246    11.072
ATOM     42  O   UNL d   1       6.320  -5.384 -14.849 -0.13 +0.01    -0.477    11.072
ATOM     43  H   UNL d   1       6.740  -6.104 -14.334 -0.22 -0.09    +0.295    11.072
ATOM     44  C   UNL d   1      -4.518   0.933  -9.241 -0.25 +0.07    +0.141    11.072
ATOM     45  C   UNL d   1      -5.906   0.567  -8.785 -0.19 +0.11    +0.306    11.072
ATOM     46  O   UNL d   1      -6.952   0.854  -9.339 -0.14 -0.10    -0.251    11.072
ATOM     47  O   UNL d   1      -5.902  -0.126  -7.632 -0.09 -0.13    -0.481    11.072
ATOM     48  H   UNL d   1      -4.995  -0.011  -7.277 +0.13 +0.07    +0.295    11.072
ATOM     49  C   UNL d   1       4.581  -1.822  -7.666 -0.46 +0.01    +0.048    11.072
ATOM     50  C   UNL d   1       4.635  -2.927  -6.611 -0.43 +0.03    +0.125    11.072
ATOM     51  C   UNL d   1       5.801  -2.729  -5.685 -0.38 +0.07    +0.305    11.072
ATOM     52  O   UNL d   1       6.982  -2.666  -5.980 -0.49 -0.08    -0.251    11.072
ATOM     53  O   UNL d   1       5.412  -2.628  -4.399 -0.21 -0.07    -0.481    11.072
ATOM     54  H   UNL d   1       6.055  -2.003  -4.003 +0.20 +0.02    +0.295    11.072
TER
ENDMDL
MODEL       59
USER    Run = 59
USER    Cluster Rank = 2
USER    Number of conformations in this cluster = 1
USER  
USER    RMSD from reference structure       = 12.960 A
USER  
USER    Estimated Free Energy of Binding    =   -6.97 kcal/mol  [=(1)+(2)+(3)-(4)]
USER    Estimated Inhibition Constant, Ki   =    7.77 uM (micromolar)  [Temperature = 298.15 K]
USER    
USER    (1) Final Intermolecular Energy     =  -10.85 kcal/mol
USER        vdW + Hbond + desolv Energy     =   -9.54 kcal/mol
USER        Electrostatic Energy            =   -1.31 kcal/mol
USER    (2) Final Total Internal Energy     =   -1.42 kcal/mol
USER    (3) Torsional Free Energy           =   +3.88 kcal/mol
USER    (4) Unbound System's Energy  [=(2)] =   -1.42 kcal/mol
USER    
USER    
USER  
USER    DPF = D:/Protein_go_brrr/autodock/final/AncB/heme/dock.dpf
USER    NEWDPF move	heme_opt.pdbqt
USER    NEWDPF about	0.153000 0.018000 -0.028000
USER    NEWDPF tran0	6.078126 -14.361604 -2.646833
USER    NEWDPF axisangle0	-0.134907 -0.685596 0.715373 124.708784
USER    NEWDPF quaternion0	-0.119505 -0.607325 0.633702 0.464001
USER    NEWDPF dihe0	167.83 110.90 103.23 125.75 -6.21 145.61 -40.50 -82.80 106.51 -122.39 -44.28 -166.48 149.75 
USER  
USER                              x       y       z    vdW   Elec        q     RMS 
ATOM      1  O   UNL d   1      10.618 -12.163   0.404 -0.13 +0.16    -0.289    12.960
ATOM      2  O   UNL d   1       3.311 -12.610   2.077 -0.12 -0.02    -0.289    12.960
ATOM      3  N   UNL d   1       8.275 -13.431  -1.786 -0.18 +0.12    -0.247    12.960
ATOM      4  N   UNL d   1       5.784 -13.483  -0.166 -0.14 +0.04    -0.247    12.960
ATOM      5  N   UNL d   1       4.610 -15.149  -2.194 -0.10 +0.02    -0.354    12.960
ATOM      6  N   UNL d   1       7.204 -15.106  -3.859 -0.04 +0.08    -0.354    12.960
ATOM      7  C   UNL d   1      10.719 -13.254  -1.781 -0.13 -0.05    +0.084    12.960
ATOM      8  C   UNL d   1       5.615 -11.886   1.676 -0.24 -0.04    +0.084    12.960
ATOM      9  C   UNL d   1       6.450 -12.520   0.559 -0.28 -0.03    +0.058    12.960
ATOM     10  C   UNL d   1       9.437 -13.707  -2.486 -0.19 -0.03    +0.058    12.960
ATOM     11  C   UNL d   1      10.074 -12.656  -0.567 -0.15 -0.12    +0.193    12.960
ATOM     12  C   UNL d   1       8.590 -12.802  -0.701 -0.25 -0.06    +0.109    12.960
ATOM     13  C   UNL d   1       4.364 -12.694   1.475 -0.13 -0.01    +0.193    12.960
ATOM     14  C   UNL d   1      11.587 -14.439  -1.348 -0.04 -0.01    +0.026    12.960
ATOM     15  C   UNL d   1       7.735 -12.199   0.342 -0.27 -0.04    +0.055    12.960
ATOM     16  C   UNL d   1       5.303 -10.415   1.387 -0.46 -0.02    +0.026    12.960
ATOM     17  C   UNL d   1       4.599 -13.630   0.334 -0.18 -0.00    +0.109    12.960
ATOM     18  C   UNL d   1       9.466 -14.243  -3.720 -0.19 -0.02    +0.050    12.960
ATOM     19  C   UNL d   1       8.328 -14.613  -4.482 -0.16 -0.02    +0.045    12.960
ATOM     20  C   UNL d   1       3.649 -15.248  -1.222 -0.24 +0.00    +0.045    12.960
ATOM     21  C   UNL d   1       3.554 -14.583  -0.066 -0.21 +0.00    +0.057    12.960
ATOM     22  C   UNL d   1       3.140 -16.697  -2.914 -0.30 +0.00    -0.019    12.960
ATOM     23  C   UNL d   1       4.389 -15.986  -3.255 -0.26 -0.01    +0.045    12.960
ATOM     24  C   UNL d   1       2.706 -16.254  -1.710 -0.25 +0.00    -0.022    12.960
ATOM     25  C   UNL d   1       6.263 -15.484  -4.788 -0.23 -0.01    +0.049    12.960
ATOM     26  C   UNL d   1       8.098 -14.638  -5.849 -0.19 +0.01    -0.018    12.960
ATOM     27  C   UNL d   1       6.784 -15.170  -6.035 -0.28 -0.00    +0.003    12.960
ATOM     28  C   UNL d   1       5.080 -16.166  -4.391 -0.26 -0.01    +0.052    12.960
ATOM     29  C   UNL d   1       1.489 -16.660  -0.951 -0.24 +0.00    +0.046    12.960
ATOM     30  C   UNL d   1       9.036 -14.193  -6.919 -0.17 -0.01    +0.046    12.960
ATOM     31  H   UNL d   1       5.349 -14.457  -2.135 +0.08 -0.01    +0.166    12.960
ATOM     32  H   UNL d   1       7.119 -15.206  -2.854 +0.05 -0.03    +0.166    12.960
ATOM     33  C   UNL d   1      11.542 -12.199  -2.528 -0.05 -0.16    +0.141    12.960
ATOM     34  C   UNL d   1      12.384 -11.360  -1.605 -0.09 -0.22    +0.306    12.960
ATOM     35  O   UNL d   1      13.108 -11.774  -0.715 -0.04 +0.09    -0.251    12.960
ATOM     36  O   UNL d   1      12.272 -10.043  -1.854 -0.08 +0.46    -0.481    12.960
ATOM     37  H   UNL d   1      11.846  -9.994  -2.736 -0.40 -0.64    +0.295    12.960
ATOM     38  C   UNL d   1       6.152 -15.382  -7.302 -0.32 -0.01    +0.017    12.960
ATOM     39  C   UNL d   1       6.699 -16.029  -8.342 -0.21 -0.07    +0.092    12.960
ATOM     40  C   UNL d   1       5.937 -16.194  -9.583 -0.12 -0.26    +0.330    12.960
ATOM     41  O   UNL d   1       6.357 -16.164 -10.724 -0.14 +0.11    -0.246    12.960
ATOM     42  O   UNL d   1       4.641 -16.404  -9.303 -0.81 +0.41    -0.477    12.960
ATOM     43  H   UNL d   1       4.630 -17.295  -8.899 -0.48 -0.66    +0.295    12.960
ATOM     44  C   UNL d   1       6.164 -12.068   3.095 -0.11 -0.08    +0.141    12.960
ATOM     45  C   UNL d   1       5.215 -11.596   4.164 -0.07 -0.07    +0.306    12.960
ATOM     46  O   UNL d   1       5.094 -10.455   4.576 -0.15 +0.04    -0.251    12.960
ATOM     47  O   UNL d   1       4.482 -12.599   4.682 +0.02 +0.02    -0.481    12.960
ATOM     48  H   UNL d   1       3.788 -12.770   4.010 +0.08 +0.00    +0.295    12.960
ATOM     49  C   UNL d   1       2.502 -17.742  -3.781 +0.28 -0.02    +0.048    12.960
ATOM     50  C   UNL d   1       3.368 -18.997  -3.889 -0.21 -0.06    +0.125    12.960
ATOM     51  C   UNL d   1       2.532 -20.238  -3.759 -0.12 -0.12    +0.305    12.960
ATOM     52  O   UNL d   1       2.239 -20.833  -2.737 -0.04 +0.04    -0.251    12.960
ATOM     53  O   UNL d   1       2.105 -20.687  -4.957 -0.12 +0.27    -0.481    12.960
ATOM     54  H   UNL d   1       1.651 -19.914  -5.352 -0.48 -0.27    +0.295    12.960
TER
ENDMDL
MODEL       11
USER    Run = 11
USER    Cluster Rank = 3
USER    Number of conformations in this cluster = 9
USER  
USER    RMSD from reference structure       = 11.538 A
USER  
USER    Estimated Free Energy of Binding    =   -6.83 kcal/mol  [=(1)+(2)+(3)-(4)]
USER    Estimated Inhibition Constant, Ki   =    9.90 uM (micromolar)  [Temperature = 298.15 K]
USER    
USER    (1) Final Intermolecular Energy     =  -10.71 kcal/mol
USER        vdW + Hbond + desolv Energy     =  -10.17 kcal/mol
USER        Electrostatic Energy            =   -0.53 kcal/mol
USER    (2) Final Total Internal Energy     =   -2.31 kcal/mol
USER    (3) Torsional Free Energy           =   +3.88 kcal/mol
USER    (4) Unbound System's Energy  [=(2)] =   -2.31 kcal/mol
USER    
USER    
USER  
USER    DPF = D:/Protein_go_brrr/autodock/final/AncB/heme/dock.dpf
USER    NEWDPF move	heme_opt.pdbqt
USER    NEWDPF about	0.153000 0.018000 -0.028000
USER    NEWDPF tran0	0.009706 -8.915916 10.150273
USER    NEWDPF axisangle0	-0.036856 -0.908643 -0.415944 -142.377167
USER    NEWDPF quaternion0	-0.034887 -0.860108 -0.393727 -0.322454
USER    NEWDPF dihe0	155.00 98.42 -140.34 2.91 -152.98 55.77 129.88 -84.49 64.17 -9.72 32.82 -132.26 -11.11 
USER  
USER                              x       y       z    vdW   Elec        q     RMS 
ATOM      1  O   UNL d   1       4.629  -6.213   7.677 -0.64 -0.04    -0.289    11.538
ATOM      2  O   UNL d   1       1.419 -12.837   6.191 -0.04 -0.05    -0.289    11.538
ATOM      3  N   UNL d   1       1.985  -7.460   9.508 +0.00 -0.02    -0.247    11.538
ATOM      4  N   UNL d   1       1.224  -9.918   8.021 +0.05 -0.04    -0.247    11.538
ATOM      5  N   UNL d   1      -1.212  -9.975   9.547 -0.05 -0.07    -0.354    11.538
ATOM      6  N   UNL d   1      -0.424  -7.414  11.071 -0.17 -0.03    -0.354    11.538
ATOM      7  C   UNL d   1       3.215  -5.341   9.470 -0.25 -0.01    +0.084    11.538
ATOM      8  C   UNL d   1       2.966 -11.009   6.699 -0.08 +0.01    +0.084    11.538
ATOM      9  C   UNL d   1       2.522  -9.829   7.569 -0.13 +0.01    +0.058    11.538
ATOM     10  C   UNL d   1       2.093  -6.197  10.064 -0.25 -0.00    +0.058    11.538
ATOM     11  C   UNL d   1       3.734  -6.351   8.492 -0.15 -0.00    +0.193    11.538
ATOM     12  C   UNL d   1       2.923  -7.602   8.629 -0.13 +0.01    +0.109    11.538
ATOM     13  C   UNL d   1       1.668 -11.767   6.710 -0.06 +0.03    +0.193    11.538
ATOM     14  C   UNL d   1       2.671  -4.136   8.697 -0.48 -0.01    +0.026    11.538
ATOM     15  C   UNL d   1       3.314  -8.776   7.824 -0.17 +0.01    +0.055    11.538
ATOM     16  C   UNL d   1       4.036 -11.856   7.395 -0.05 +0.00    +0.026    11.538
ATOM     17  C   UNL d   1       0.693 -10.996   7.539 -0.14 +0.02    +0.109    11.538
ATOM     18  C   UNL d   1       1.351  -5.763  11.101 -0.23 +0.00    +0.050    11.538
ATOM     19  C   UNL d   1       0.351  -6.515  11.768 -0.30 +0.00    +0.045    11.538
ATOM     20  C   UNL d   1      -1.493 -10.943   8.618 -0.22 +0.01    +0.045    11.538
ATOM     21  C   UNL d   1      -0.687 -11.478   7.695 -0.22 +0.01    +0.057    11.538
ATOM     22  C   UNL d   1      -3.369 -10.544   9.859 -0.29 -0.01    -0.019    11.538
ATOM     23  C   UNL d   1      -2.284  -9.666  10.341 -0.30 +0.01    +0.045    11.538
ATOM     24  C   UNL d   1      -2.895 -11.298   8.839 -0.23 -0.01    -0.022    11.538
ATOM     25  C   UNL d   1      -1.384  -7.962  11.889 -0.23 +0.01    +0.049    11.538
ATOM     26  C   UNL d   1      -0.092  -6.506  13.082 -0.29 -0.00    -0.018    11.538
ATOM     27  C   UNL d   1      -1.175  -7.436  13.157 -0.25 +0.00    +0.003    11.538
ATOM     28  C   UNL d   1      -2.402  -8.800  11.359 -0.22 +0.01    +0.052    11.538
ATOM     29  C   UNL d   1      -3.604 -12.337   8.038 -0.22 +0.02    +0.046    11.538
ATOM     30  C   UNL d   1       0.456  -5.687  14.201 -0.29 -0.00    +0.046    11.538
ATOM     31  H   UNL d   1      -0.273  -9.608   9.656 +0.06 +0.03    +0.166    11.538
ATOM     32  H   UNL d   1      -0.313  -7.600  10.081 +0.12 +0.02    +0.166    11.538
ATOM     33  C   UNL d   1       4.316  -4.927  10.452 -0.19 -0.02    +0.141    11.538
ATOM     34  C   UNL d   1       5.636  -5.586  10.153 -0.08 -0.04    +0.306    11.538
ATOM     35  O   UNL d   1       6.091  -6.572  10.707 -0.04 -0.00    -0.251    11.538
ATOM     36  O   UNL d   1       6.312  -4.967   9.169 -0.16 +0.17    -0.481    11.538
ATOM     37  H   UNL d   1       5.617  -4.550   8.616 -0.29 -0.27    +0.295    11.538
ATOM     38  C   UNL d   1      -1.935  -7.725  14.336 -0.22 +0.00    +0.017    11.538
ATOM     39  C   UNL d   1      -2.987  -7.016  14.772 -0.20 +0.01    +0.092    11.538
ATOM     40  C   UNL d   1      -3.691  -7.429  15.989 -0.12 +0.02    +0.330    11.538
ATOM     41  O   UNL d   1      -3.216  -7.634  17.089 -0.04 -0.00    -0.246    11.538
ATOM     42  O   UNL d   1      -5.004  -7.555  15.742 -0.32 -0.07    -0.477    11.538
ATOM     43  H   UNL d   1      -5.343  -6.638  15.798 -0.36 -0.20    +0.295    11.538
ATOM     44  C   UNL d   1       3.382 -10.655   5.268 -0.14 +0.01    +0.141    11.538
ATOM     45  C   UNL d   1       2.287  -9.992   4.477 -0.21 +0.03    +0.306    11.538
ATOM     46  O   UNL d   1       2.022  -8.802   4.459 -0.28 -0.03    -0.251    11.538
ATOM     47  O   UNL d   1       1.559 -10.872   3.767 -0.13 -0.07    -0.481    11.538
ATOM     48  H   UNL d   1       1.470 -11.652   4.355 +0.12 +0.05    +0.295    11.538
ATOM     49  C   UNL d   1      -4.760 -10.552  10.423 -0.34 +0.02    +0.048    11.538
ATOM     50  C   UNL d   1      -4.931 -11.627  11.496 -0.21 +0.06    +0.125    11.538
ATOM     51  C   UNL d   1      -6.323 -12.192  11.472 -0.18 +0.17    +0.305    11.538
ATOM     52  O   UNL d   1      -7.294 -11.805  12.099 -0.76 -0.19    -0.251    11.538
ATOM     53  O   UNL d   1      -6.422 -13.253  10.646 -0.13 -0.28    -0.481    11.538
ATOM     54  H   UNL d   1      -7.370 -13.499  10.687 -0.05 +0.18    +0.295    11.538
TER
ENDMDL
MODEL       97
USER    Run = 97
USER    Cluster Rank = 4
USER    Number of conformations in this cluster = 1
USER  
USER    RMSD from reference structure       = 16.134 A
USER  
USER    Estimated Free Energy of Binding    =   -6.77 kcal/mol  [=(1)+(2)+(3)-(4)]
USER    Estimated Inhibition Constant, Ki   =   10.85 uM (micromolar)  [Temperature = 298.15 K]
USER    
USER    (1) Final Intermolecular Energy     =  -10.65 kcal/mol
USER        vdW + Hbond + desolv Energy     =  -10.01 kcal/mol
USER        Electrostatic Energy            =   -0.64 kcal/mol
USER    (2) Final Total Internal Energy     =   -2.88 kcal/mol
USER    (3) Torsional Free Energy           =   +3.88 kcal/mol
USER    (4) Unbound System's Energy  [=(2)] =   -2.88 kcal/mol
USER    
USER    
USER  
USER    DPF = D:/Protein_go_brrr/autodock/final/AncB/heme/dock.dpf
USER    NEWDPF move	heme_opt.pdbqt
USER    NEWDPF about	0.153000 0.018000 -0.028000
USER    NEWDPF tran0	-6.055163 -13.271348 11.885685
USER    NEWDPF axisangle0	0.678711 0.730814 -0.072540 107.044951
USER    NEWDPF quaternion0	0.545745 0.587640 -0.058329 0.594507
USER    NEWDPF dihe0	63.63 107.05 123.49 22.83 -150.16 3.63 -64.79 -139.99 44.96 -29.14 -41.16 -8.92 20.64 
USER  
USER                              x       y       z    vdW   Elec        q     RMS 
ATOM      1  O   UNL d   1      -7.281 -16.212   6.925 -0.62 -0.79    -0.289    16.134
ATOM      2  O   UNL d   1      -8.427 -18.003  14.127 -0.02 -0.09    -0.289    16.134
ATOM      3  N   UNL d   1      -6.258 -14.203   9.535 -0.16 -0.19    -0.247    16.134
ATOM      4  N   UNL d   1      -7.395 -15.555  11.924 -0.11 -0.13    -0.247    16.134
ATOM      5  N   UNL d   1      -6.817 -13.176  13.431 -0.07 -0.15    -0.354    16.134
ATOM      6  N   UNL d   1      -5.657 -11.773  10.944 -0.11 -0.18    -0.354    16.134
ATOM      7  C   UNL d   1      -6.292 -13.983   7.094 -0.27 +0.10    +0.084    16.134
ATOM      8  C   UNL d   1      -7.795 -17.960  11.763 -0.08 +0.06    +0.084    16.134
ATOM      9  C   UNL d   1      -7.383 -16.648  11.087 -0.13 +0.05    +0.058    16.134
ATOM     10  C   UNL d   1      -5.961 -13.379   8.462 -0.26 +0.04    +0.058    16.134
ATOM     11  C   UNL d   1      -6.812 -15.301   7.583 -0.17 +0.35    +0.193    16.134
ATOM     12  C   UNL d   1      -6.715 -15.322   9.077 -0.13 +0.13    +0.109    16.134
ATOM     13  C   UNL d   1      -8.079 -17.403  13.129 -0.05 +0.08    +0.193    16.134
ATOM     14  C   UNL d   1      -7.428 -13.231   6.395 -0.37 +0.04    +0.026    16.134
ATOM     15  C   UNL d   1      -7.087 -16.567   9.781 -0.07 +0.08    +0.055    16.134
ATOM     16  C   UNL d   1      -6.621 -18.939  11.865 -0.01 +0.01    +0.026    16.134
ATOM     17  C   UNL d   1      -7.805 -15.934  13.092 -0.12 +0.04    +0.109    16.134
ATOM     18  C   UNL d   1      -5.350 -12.185   8.575 -0.31 +0.03    +0.050    16.134
ATOM     19  C   UNL d   1      -4.930 -11.587   9.790 -0.25 +0.02    +0.045    16.134
ATOM     20  C   UNL d   1      -7.574 -13.858  14.349 -0.15 +0.02    +0.045    16.134
ATOM     21  C   UNL d   1      -8.039 -15.110  14.287 -0.14 +0.02    +0.057    16.134
ATOM     22  C   UNL d   1      -7.157 -11.759  15.150 -0.19 -0.01    -0.019    16.134
ATOM     23  C   UNL d   1      -6.516 -11.900  13.827 -0.22 +0.02    +0.045    16.134
ATOM     24  C   UNL d   1      -7.780 -12.922  15.454 -0.13 -0.01    -0.022    16.134
ATOM     25  C   UNL d   1      -5.126 -11.034  11.975 -0.23 +0.03    +0.049    16.134
ATOM     26  C   UNL d   1      -3.878 -10.735  10.088 -0.28 -0.01    -0.018    16.134
ATOM     27  C   UNL d   1      -3.995 -10.405  11.473 -0.25 +0.00    +0.003    16.134
ATOM     28  C   UNL d   1      -5.795 -10.941  13.226 -0.17 +0.04    +0.052    16.134
ATOM     29  C   UNL d   1      -8.552 -13.274  16.680 -0.09 +0.01    +0.046    16.134
ATOM     30  C   UNL d   1      -2.825 -10.256   9.146 -0.36 +0.01    +0.046    16.134
ATOM     31  H   UNL d   1      -6.468 -13.631  12.595 +0.05 +0.07    +0.166    16.134
ATOM     32  H   UNL d   1      -6.491 -12.347  10.994 +0.06 +0.10    +0.166    16.134
ATOM     33  C   UNL d   1      -5.095 -14.189   6.160 -0.19 +0.16    +0.141    16.134
ATOM     34  C   UNL d   1      -4.498 -15.565   6.280 -0.05 +0.33    +0.306    16.134
ATOM     35  O   UNL d   1      -3.540 -15.877   6.967 -0.02 -0.16    -0.251    16.134
ATOM     36  O   UNL d   1      -5.141 -16.477   5.529 -0.46 -0.88    -0.481    16.134
ATOM     37  H   UNL d   1      -5.478 -17.134   6.175 +0.05 +0.47    +0.295    16.134
ATOM     38  C   UNL d   1      -3.115  -9.532  12.191 -0.17 +0.01    +0.017    16.134
ATOM     39  C   UNL d   1      -2.860  -9.601  13.507 -0.15 +0.03    +0.092    16.134
ATOM     40  C   UNL d   1      -1.923  -8.656  14.119 -0.08 +0.05    +0.330    16.134
ATOM     41  O   UNL d   1      -1.324  -7.746  13.577 -0.16 -0.03    -0.246    16.134
ATOM     42  O   UNL d   1      -1.795  -8.915  15.429 -0.00 -0.05    -0.477    16.134
ATOM     43  H   UNL d   1      -2.641  -8.604  15.814 +0.06 +0.04    +0.295    16.134
ATOM     44  C   UNL d   1      -9.037 -18.642  11.180 -0.11 +0.14    +0.141    16.134
ATOM     45  C   UNL d   1     -10.328 -18.018  11.637 -0.14 +0.30    +0.306    16.134
ATOM     46  O   UNL d   1     -11.137 -18.503  12.408 -0.43 -0.16    -0.251    16.134
ATOM     47  O   UNL d   1     -10.546 -16.816  11.072 -0.72 -0.73    -0.481    16.134
ATOM     48  H   UNL d   1      -9.761 -16.281  11.315 -0.47 +0.30    +0.295    16.134
ATOM     49  C   UNL d   1      -7.114 -10.509  15.979 -0.19 +0.03    +0.048    16.134
ATOM     50  C   UNL d   1      -5.686 -10.149  16.390 -0.11 +0.05    +0.125    16.134
ATOM     51  C   UNL d   1      -5.461  -8.667  16.302 -0.06 +0.13    +0.305    16.134
ATOM     52  O   UNL d   1      -4.432  -8.088  15.998 -0.20 -0.05    -0.251    16.134
ATOM     53  O   UNL d   1      -6.568  -7.968  16.620 -0.60 -0.11    -0.481    16.134
ATOM     54  H   UNL d   1      -6.433  -7.098  16.189 -0.39 -0.30    +0.295    16.134
TER
ENDMDL
MODEL       51
USER    Run = 51
USER    Cluster Rank = 5
USER    Number of conformations in this cluster = 1
USER  
USER    RMSD from reference structure       = 12.226 A
USER  
USER    Estimated Free Energy of Binding    =   -6.61 kcal/mol  [=(1)+(2)+(3)-(4)]
USER    Estimated Inhibition Constant, Ki   =   14.24 uM (micromolar)  [Temperature = 298.15 K]
USER    
USER    (1) Final Intermolecular Energy     =  -10.49 kcal/mol
USER        vdW + Hbond + desolv Energy     =   -9.51 kcal/mol
USER        Electrostatic Energy            =   -0.98 kcal/mol
USER    (2) Final Total Internal Energy     =   -1.78 kcal/mol
USER    (3) Torsional Free Energy           =   +3.88 kcal/mol
USER    (4) Unbound System's Energy  [=(2)] =   -1.78 kcal/mol
USER    
USER    
USER  
USER    DPF = D:/Protein_go_brrr/autodock/final/AncB/heme/dock.dpf
USER    NEWDPF move	heme_opt.pdbqt
USER    NEWDPF about	0.153000 0.018000 -0.028000
USER    NEWDPF tran0	3.126394 -14.929674 -0.023738
USER    NEWDPF axisangle0	-0.130379 0.487463 -0.863355 -139.146344
USER    NEWDPF quaternion0	-0.122180 0.456811 -0.809066 -0.349011
USER    NEWDPF dihe0	175.21 99.84 111.26 -173.50 48.48 -166.82 32.63 30.69 150.73 8.57 80.34 -19.03 20.80 
USER  
USER                              x       y       z    vdW   Elec        q     RMS 
ATOM      1  O   UNL d   1       8.303 -12.131  -0.378 -0.23 +0.20    -0.289    12.226
ATOM      2  O   UNL d   1       2.045 -10.457   3.421 -0.24 -0.03    -0.289    12.226
ATOM      3  N   UNL d   1       5.428 -14.025  -0.586 -0.11 +0.02    -0.247    12.226
ATOM      4  N   UNL d   1       3.648 -12.791   1.448 -0.19 -0.02    -0.247    12.226
ATOM      5  N   UNL d   1       1.949 -15.100   1.227 -0.04 -0.06    -0.354    12.226
ATOM      6  N   UNL d   1       3.811 -16.382  -0.869 -0.02 +0.01    -0.354    12.226
ATOM      7  C   UNL d   1       7.713 -14.250  -1.444 -0.14 -0.02    +0.084    12.226
ATOM      8  C   UNL d   1       4.029 -10.438   1.986 -0.37 -0.01    +0.084    12.226
ATOM      9  C   UNL d   1       4.466 -11.703   1.240 -0.31 -0.01    +0.058    12.226
ATOM     10  C   UNL d   1       6.296 -14.816  -1.321 -0.11 -0.01    +0.058    12.226
ATOM     11  C   UNL d   1       7.489 -12.990  -0.664 -0.21 -0.08    +0.193    12.226
ATOM     12  C   UNL d   1       6.059 -12.957  -0.220 -0.22 -0.03    +0.109    12.226
ATOM     13  C   UNL d   1       2.832 -11.020   2.685 -0.21 +0.01    +0.193    12.226
ATOM     14  C   UNL d   1       8.742 -15.112  -0.707 -0.07 -0.01    +0.026    12.226
ATOM     15  C   UNL d   1       5.579 -11.756   0.492 -0.40 -0.02    +0.055    12.226
ATOM     16  C   UNL d   1       3.553  -9.347   1.022 -0.56 -0.00    +0.026    12.226
ATOM     17  C   UNL d   1       2.716 -12.454   2.281 -0.19 +0.01    +0.109    12.226
ATOM     18  C   UNL d   1       5.931 -15.943  -1.960 -0.14 -0.01    +0.050    12.226
ATOM     19  C   UNL d   1       4.624 -16.496  -1.973 -0.14 -0.00    +0.045    12.226
ATOM     20  C   UNL d   1       1.384 -14.496   2.320 -0.16 +0.01    +0.045    12.226
ATOM     21  C   UNL d   1       1.653 -13.297   2.847 -0.23 +0.01    +0.057    12.226
ATOM     22  C   UNL d   1       0.412 -16.541   2.023 -0.08 -0.00    -0.019    12.226
ATOM     23  C   UNL d   1       1.426 -16.339   0.969 -0.10 +0.01    +0.045    12.226
ATOM     24  C   UNL d   1       0.391 -15.446   2.819 -0.12 -0.01    -0.022    12.226
ATOM     25  C   UNL d   1       2.632 -17.063  -1.064 -0.13 -0.00    +0.049    12.226
ATOM     26  C   UNL d   1       3.942 -17.238  -2.925 -0.23 +0.00    -0.018    12.226
ATOM     27  C   UNL d   1       2.677 -17.576  -2.353 -0.23 -0.00    +0.003    12.226
ATOM     28  C   UNL d   1       1.697 -17.221  -0.005 -0.11 +0.00    +0.052    12.226
ATOM     29  C   UNL d   1      -0.468 -15.172   4.006 +0.02 +0.02    +0.046    12.226
ATOM     30  C   UNL d   1       4.432 -17.609  -4.283 -0.30 -0.02    +0.046    12.226
ATOM     31  H   UNL d   1       2.623 -14.613   0.646 +0.06 +0.02    +0.166    12.226
ATOM     32  H   UNL d   1       4.080 -15.894  -0.022 +0.04 +0.00    +0.166    12.226
ATOM     33  C   UNL d   1       8.170 -13.926  -2.871 -0.03 -0.06    +0.141    12.226
ATOM     34  C   UNL d   1       9.665 -13.803  -2.987 -0.13 -0.19    +0.306    12.226
ATOM     35  O   UNL d   1      10.423 -14.640  -3.446 -0.06 +0.10    -0.251    12.226
ATOM     36  O   UNL d   1      10.126 -12.629  -2.519 -0.11 +0.56    -0.481    12.226
ATOM     37  H   UNL d   1       9.319 -12.105  -2.328 -0.33 -0.48    +0.295    12.226
ATOM     38  C   UNL d   1       1.663 -18.356  -2.996 -0.24 -0.00    +0.017    12.226
ATOM     39  C   UNL d   1       0.373 -18.403  -2.629 -0.28 -0.01    +0.092    12.226
ATOM     40  C   UNL d   1      -0.572 -19.230  -3.385 -0.15 -0.05    +0.330    12.226
ATOM     41  O   UNL d   1      -1.785 -19.237  -3.303 -0.15 +0.01    -0.246    12.226
ATOM     42  O   UNL d   1       0.092 -20.024  -4.240 -0.05 +0.15    -0.477    12.226
ATOM     43  H   UNL d   1       0.293 -19.437  -4.997 -0.43 -0.25    +0.295    12.226
ATOM     44  C   UNL d   1       5.039  -9.884   2.996 -0.31 -0.06    +0.141    12.226
ATOM     45  C   UNL d   1       5.718 -10.956   3.806 -0.11 -0.16    +0.306    12.226
ATOM     46  O   UNL d   1       5.403 -12.132   3.865 -0.07 +0.07    -0.251    12.226
ATOM     47  O   UNL d   1       6.750 -10.481   4.527 -0.09 +0.36    -0.481    12.226
ATOM     48  H   UNL d   1       7.434 -10.255   3.861 -0.47 -0.67    +0.295    12.226
ATOM     49  C   UNL d   1      -0.423 -17.780   2.162 -0.05 +0.01    +0.048    12.226
ATOM     50  C   UNL d   1      -1.324 -17.997   0.946 -0.09 +0.05    +0.125    12.226
ATOM     51  C   UNL d   1      -2.719 -17.510   1.218 -0.11 +0.24    +0.305    12.226
ATOM     52  O   UNL d   1      -3.067 -16.664   2.023 -0.22 -0.22    -0.251    12.226
ATOM     53  O   UNL d   1      -3.631 -18.138   0.450 -0.67 -0.61    -0.481    12.226
ATOM     54  H   UNL d   1      -3.115 -18.828  -0.017 +0.07 +0.23    +0.295    12.226
TER
ENDMDL
MODEL       37
USER    Run = 37
USER    Cluster Rank = 6
USER    Number of conformations in this cluster = 2
USER  
USER    RMSD from reference structure       = 16.458 A
USER  
USER    Estimated Free Energy of Binding    =   -6.46 kcal/mol  [=(1)+(2)+(3)-(4)]
USER    Estimated Inhibition Constant, Ki   =   18.38 uM (micromolar)  [Temperature = 298.15 K]
USER    
USER    (1) Final Intermolecular Energy     =  -10.34 kcal/mol
USER        vdW + Hbond + desolv Energy     =  -10.00 kcal/mol
USER        Electrostatic Energy            =   -0.34 kcal/mol
USER    (2) Final Total Internal Energy     =   -1.69 kcal/mol
USER    (3) Torsional Free Energy           =   +3.88 kcal/mol
USER    (4) Unbound System's Energy  [=(2)] =   -1.69 kcal/mol
USER    
USER    
USER  
USER    DPF = D:/Protein_go_brrr/autodock/final/AncB/heme/dock.dpf
USER    NEWDPF move	heme_opt.pdbqt
USER    NEWDPF about	0.153000 0.018000 -0.028000
USER    NEWDPF tran0	17.370352 1.684341 -10.440162
USER    NEWDPF axisangle0	-0.425295 0.011756 0.904978 170.204007
USER    NEWDPF quaternion0	-0.423742 0.011713 0.901674 0.085382
USER    NEWDPF dihe0	101.55 114.34 172.01 -61.90 0.98 -33.34 150.66 -10.04 -141.30 -4.06 59.51 -40.63 -26.75 
USER  
USER                              x       y       z    vdW   Elec        q     RMS 
ATOM      1  O   UNL d   1      20.631   0.907  -5.591 -0.08 -0.09    -0.289    16.458
ATOM      2  O   UNL d   1      19.546   6.975  -9.880 -0.16 -0.18    -0.289    16.458
ATOM      3  N   UNL d   1      18.711   0.851  -8.455 -0.12 -0.11    -0.247    16.458
ATOM      4  N   UNL d   1      18.622   3.706  -9.274 -0.29 -0.28    -0.247    16.458
ATOM      5  N   UNL d   1      16.492   3.025 -11.081 -0.10 -0.25    -0.354    16.458
ATOM      6  N   UNL d   1      16.578   0.069 -10.212 -0.15 -0.13    -0.354    16.458
ATOM      7  C   UNL d   1      19.199  -0.755  -6.669 -0.22 +0.03    +0.084    16.458
ATOM      8  C   UNL d   1      20.479   5.129  -8.570 -0.07 +0.05    +0.084    16.458
ATOM      9  C   UNL d   1      19.773   3.770  -8.522 -0.10 +0.04    +0.058    16.458
ATOM     10  C   UNL d   1      18.469  -0.425  -7.974 -0.23 +0.02    +0.058    16.458
ATOM     11  C   UNL d   1      19.911   0.554  -6.507 -0.11 +0.07    +0.193    16.458
ATOM     12  C   UNL d   1      19.554   1.433  -7.666 -0.13 +0.05    +0.109    16.458
ATOM     13  C   UNL d   1      19.494   5.836  -9.458 -0.13 +0.15    +0.193    16.458
ATOM     14  C   UNL d   1      18.229  -0.939  -5.499 -0.23 +0.01    +0.026    16.458
ATOM     15  C   UNL d   1      20.214   2.749  -7.770 -0.10 +0.03    +0.055    16.458
ATOM     16  C   UNL d   1      21.825   5.045  -9.296 -0.02 +0.01    +0.026    16.458
ATOM     17  C   UNL d   1      18.413   4.866  -9.808 -0.04 +0.14    +0.109    16.458
ATOM     18  C   UNL d   1      17.735  -1.349  -8.622 -0.28 +0.02    +0.050    16.458
ATOM     19  C   UNL d   1      17.095  -1.162  -9.873 -0.25 +0.01    +0.045    16.458
ATOM     20  C   UNL d   1      16.440   4.392 -11.161 -0.24 +0.04    +0.045    16.458
ATOM     21  C   UNL d   1      17.278   5.294 -10.639 -0.25 +0.07    +0.057    16.458
ATOM     22  C   UNL d   1      14.666   3.519 -12.305 -0.34 -0.01    -0.019    16.458
ATOM     23  C   UNL d   1      15.462   2.410 -11.741 -0.26 +0.02    +0.045    16.458
ATOM     24  C   UNL d   1      15.252   4.690 -11.959 -0.36 -0.01    -0.022    16.458
ATOM     25  C   UNL d   1      15.926   0.003 -11.421 -0.27 +0.02    +0.049    16.458
ATOM     26  C   UNL d   1      16.804  -2.040 -10.905 -0.20 -0.01    -0.018    16.458
ATOM     27  C   UNL d   1      16.083  -1.295 -11.889 -0.21 +0.00    +0.003    16.458
ATOM     28  C   UNL d   1      15.177   1.109 -11.907 -0.33 +0.02    +0.052    16.458
ATOM     29  C   UNL d   1      14.831   6.079 -12.299 -0.30 +0.03    +0.046    16.458
ATOM     30  C   UNL d   1      17.173  -3.483 -10.977 -0.15 +0.02    +0.046    16.458
ATOM     31  H   UNL d   1      17.273   2.553 -10.639 +0.06 +0.11    +0.166    16.458
ATOM     32  H   UNL d   1      16.644   0.887  -9.618 +0.05 +0.08    +0.166    16.458
ATOM     33  C   UNL d   1      20.205  -1.908  -6.752 -0.09 +0.03    +0.141    16.458
ATOM     34  C   UNL d   1      19.603  -3.231  -6.365 -0.08 +0.07    +0.306    16.458
ATOM     35  O   UNL d   1      18.610  -3.742  -6.855 -0.13 -0.07    -0.251    16.458
ATOM     36  O   UNL d   1      20.285  -3.844  -5.381 -0.00 -0.09    -0.481    16.458
ATOM     37  H   UNL d   1      21.041  -4.273  -5.835 +0.03 +0.05    +0.295    16.458
ATOM     38  C   UNL d   1      15.574  -1.826 -13.118 -0.14 +0.01    +0.017    16.458
ATOM     39  C   UNL d   1      14.833  -1.147 -14.007 -0.20 +0.03    +0.092    16.458
ATOM     40  C   UNL d   1      14.388  -1.804 -15.239 -0.11 +0.08    +0.330    16.458
ATOM     41  O   UNL d   1      14.989  -2.628 -15.901 -0.05 -0.05    -0.246    16.458
ATOM     42  O   UNL d   1      13.161  -1.375 -15.573 -0.13 -0.10    -0.477    16.458
ATOM     43  H   UNL d   1      12.591  -1.708 -14.849 -0.47 -0.01    +0.295    16.458
ATOM     44  C   UNL d   1      20.619   5.849  -7.224 -0.08 +0.07    +0.141    16.458
ATOM     45  C   UNL d   1      19.310   6.010  -6.498 -0.12 +0.27    +0.306    16.458
ATOM     46  O   UNL d   1      18.945   5.393  -5.512 -0.16 -0.21    -0.251    16.458
ATOM     47  O   UNL d   1      18.512   6.928  -7.072 -0.11 -0.51    -0.481    16.458
ATOM     48  H   UNL d   1      19.076   7.357  -7.750 -0.40 +0.16    +0.295    16.458
ATOM     49  C   UNL d   1      13.413   3.333 -13.109 -0.49 +0.01    +0.048    16.458
ATOM     50  C   UNL d   1      13.620   3.700 -14.578 -0.29 +0.03    +0.125    16.458
ATOM     51  C   UNL d   1      12.705   4.820 -14.985 -0.23 +0.03    +0.305    16.458
ATOM     52  O   UNL d   1      11.713   5.220 -14.400 -0.55 -0.00    -0.251    16.458
ATOM     53  O   UNL d   1      13.088   5.388 -16.146 -0.14 -0.01    -0.481    16.458
ATOM     54  H   UNL d   1      12.336   5.222 -16.752 -0.44 -0.07    +0.295    16.458
TER
ENDMDL
MODEL       46
USER    Run = 46
USER    Cluster Rank = 7
USER    Number of conformations in this cluster = 1
USER  
USER    RMSD from reference structure       = 15.349 A
USER  
USER    Estimated Free Energy of Binding    =   -6.32 kcal/mol  [=(1)+(2)+(3)-(4)]
USER    Estimated Inhibition Constant, Ki   =   23.26 uM (micromolar)  [Temperature = 298.15 K]
USER    
USER    (1) Final Intermolecular Energy     =  -10.20 kcal/mol
USER        vdW + Hbond + desolv Energy     =   -9.31 kcal/mol
USER        Electrostatic Energy            =   -0.89 kcal/mol
USER    (2) Final Total Internal Energy     =   -2.60 kcal/mol
USER    (3) Torsional Free Energy           =   +3.88 kcal/mol
USER    (4) Unbound System's Energy  [=(2)] =   -2.60 kcal/mol
USER    
USER    
USER  
USER    DPF = D:/Protein_go_brrr/autodock/final/AncB/heme/dock.dpf
USER    NEWDPF move	heme_opt.pdbqt
USER    NEWDPF about	0.153000 0.018000 -0.028000
USER    NEWDPF tran0	-8.272090 15.272459 7.012916
USER    NEWDPF axisangle0	-0.449657 -0.553684 -0.700887 -123.831671
USER    NEWDPF quaternion0	-0.396713 -0.488492 -0.618362 -0.470768
USER    NEWDPF dihe0	-172.19 56.85 -101.90 15.95 -117.90 17.64 178.99 -32.30 5.51 16.19 55.73 -101.96 129.42 
USER  
USER                              x       y       z    vdW   Elec        q     RMS 
ATOM      1  O   UNL d   1      -5.256  16.864   2.204 +0.03 +0.27    -0.289    15.349
ATOM      2  O   UNL d   1     -12.377  14.631   3.041 -0.04 +0.04    -0.289    15.349
ATOM      3  N   UNL d   1      -6.563  15.889   5.243 -0.11 +0.11    -0.247    15.349
ATOM      4  N   UNL d   1      -9.447  15.490   4.650 -0.15 +0.07    -0.247    15.349
ATOM      5  N   UNL d   1      -9.926  15.423   7.484 -0.14 +0.02    -0.354    15.349
ATOM      6  N   UNL d   1      -6.935  15.856   8.090 -0.11 +0.06    -0.354    15.349
ATOM      7  C   UNL d   1      -4.433  16.852   4.505 -0.15 -0.05    +0.084    15.349
ATOM      8  C   UNL d   1     -10.048  14.929   2.349 -0.15 -0.02    +0.084    15.349
ATOM      9  C   UNL d   1      -8.976  15.335   3.365 -0.24 -0.02    +0.058    15.349
ATOM     10  C   UNL d   1      -5.316  16.336   5.646 -0.17 -0.02    +0.058    15.349
ATOM     11  C   UNL d   1      -5.396  16.600   3.384 -0.11 -0.12    +0.193    15.349
ATOM     12  C   UNL d   1      -6.639  15.991   3.956 -0.22 -0.05    +0.109    15.349
ATOM     13  C   UNL d   1     -11.222  14.919   3.287 -0.08 -0.04    +0.193    15.349
ATOM     14  C   UNL d   1      -4.179  18.357   4.611 -0.07 -0.01    +0.026    15.349
ATOM     15  C   UNL d   1      -7.701  15.569   3.021 -0.27 -0.02    +0.055    15.349
ATOM     16  C   UNL d   1      -9.825  13.508   1.824 -0.13 -0.01    +0.026    15.349
ATOM     17  C   UNL d   1     -10.725  15.283   4.648 -0.17 -0.02    +0.109    15.349
ATOM     18  C   UNL d   1      -4.856  16.252   6.908 -0.19 -0.01    +0.050    15.349
ATOM     19  C   UNL d   1      -5.568  15.712   8.009 -0.22 -0.01    +0.045    15.349
ATOM     20  C   UNL d   1     -11.217  15.476   7.029 -0.19 -0.00    +0.045    15.349
ATOM     21  C   UNL d   1     -11.667  15.395   5.772 -0.17 -0.01    +0.057    15.349
ATOM     22  C   UNL d   1     -11.228  15.679   9.304 -0.16 -0.00    -0.019    15.349
ATOM     23  C   UNL d   1      -9.832  15.537   8.846 -0.16 +0.00    +0.045    15.349
ATOM     24  C   UNL d   1     -12.044  15.641   8.224 -0.14 -0.00    -0.022    15.349
ATOM     25  C   UNL d   1      -7.405  15.341   9.276 -0.23 +0.00    +0.049    15.349
ATOM     26  C   UNL d   1      -5.145  15.053   9.153 -0.32 +0.00    -0.018    15.349
ATOM     27  C   UNL d   1      -6.311  14.804   9.940 -0.30 +0.00    +0.003    15.349
ATOM     28  C   UNL d   1      -8.764  15.513   9.657 -0.17 +0.01    +0.052    15.349
ATOM     29  C   UNL d   1     -13.531  15.732   8.174 -0.07 +0.00    +0.046    15.349
ATOM     30  C   UNL d   1      -3.743  14.676   9.495 -0.43 -0.01    +0.046    15.349
ATOM     31  H   UNL d   1      -9.153  15.235   6.854 -0.18 -0.04    +0.166    15.349
ATOM     32  H   UNL d   1      -7.493  16.319   7.383 -0.00 -0.04    +0.166    15.349
ATOM     33  C   UNL d   1      -3.131  16.076   4.280 -0.23 -0.14    +0.141    15.349
ATOM     34  C   UNL d   1      -3.358  14.598   4.113 -0.28 -0.20    +0.306    15.349
ATOM     35  O   UNL d   1      -3.812  13.839   4.952 -0.86 +0.07    -0.251    15.349
ATOM     36  O   UNL d   1      -3.004  14.154   2.894 -0.56 +0.47    -0.481    15.349
ATOM     37  H   UNL d   1      -2.599  14.933   2.455 -0.38 -0.70    +0.295    15.349
ATOM     38  C   UNL d   1      -6.322  14.154  11.216 +0.09 +0.00    +0.017    15.349
ATOM     39  C   UNL d   1      -6.668  14.733  12.376 -0.27 +0.02    +0.092    15.349
ATOM     40  C   UNL d   1      -6.654  13.950  13.615 +0.03 +0.10    +0.330    15.349
ATOM     41  O   UNL d   1      -6.119  12.875  13.809 -0.37 -0.01    -0.246    15.349
ATOM     42  O   UNL d   1      -7.333  14.595  14.576 -0.56 -0.05    -0.477    15.349
ATOM     43  H   UNL d   1      -6.681  14.687  15.302 -0.40 -0.48    +0.295    15.349
ATOM     44  C   UNL d   1     -10.274  15.916   1.198 -0.05 -0.03    +0.141    15.349
ATOM     45  C   UNL d   1     -10.078  17.353   1.600 -0.00 -0.06    +0.306    15.349
ATOM     46  O   UNL d   1      -9.461  18.203   0.981 -0.01 +0.06    -0.251    15.349
ATOM     47  O   UNL d   1     -10.649  17.639   2.784 +0.01 +0.06    -0.481    15.349
ATOM     48  H   UNL d   1     -10.036  17.265   3.452 +0.04 -0.05    +0.295    15.349
ATOM     49  C   UNL d   1     -11.631  15.851  10.739 -0.12 +0.01    +0.048    15.349
ATOM     50  C   UNL d   1     -10.766  16.891  11.451 -0.07 +0.02    +0.125    15.349
ATOM     51  C   UNL d   1     -10.108  16.301  12.666 -0.07 +0.11    +0.305    15.349
ATOM     52  O   UNL d   1     -10.586  15.508  13.458 -0.09 -0.17    -0.251    15.349
ATOM     53  O   UNL d   1      -8.851  16.760  12.832 -0.02 -0.11    -0.481    15.349
ATOM     54  H   UNL d   1      -8.452  16.135  13.473 +0.05 +0.10    +0.295    15.349
TER
ENDMDL
MODEL       31
USER    Run = 31
USER    Cluster Rank = 8
USER    Number of conformations in this cluster = 4
USER  
USER    RMSD from reference structure       = 15.108 A
USER  
USER    Estimated Free Energy of Binding    =   -6.25 kcal/mol  [=(1)+(2)+(3)-(4)]
USER    Estimated Inhibition Constant, Ki   =   26.32 uM (micromolar)  [Temperature = 298.15 K]
USER    
USER    (1) Final Intermolecular Energy     =  -10.13 kcal/mol
USER        vdW + Hbond + desolv Energy     =   -9.77 kcal/mol
USER        Electrostatic Energy            =   -0.36 kcal/mol
USER    (2) Final Total Internal Energy     =   -2.29 kcal/mol
USER    (3) Torsional Free Energy           =   +3.88 kcal/mol
USER    (4) Unbound System's Energy  [=(2)] =   -2.29 kcal/mol
USER    
USER    
USER  
USER    DPF = D:/Protein_go_brrr/autodock/final/AncB/heme/dock.dpf
USER    NEWDPF move	heme_opt.pdbqt
USER    NEWDPF about	0.153000 0.018000 -0.028000
USER    NEWDPF tran0	-16.217181 4.189213 8.846550
USER    NEWDPF axisangle0	-0.594660 -0.768198 0.237173 -99.917905
USER    NEWDPF quaternion0	-0.455262 -0.588120 0.181576 -0.643336
USER    NEWDPF dihe0	70.40 129.39 -7.31 45.72 -37.92 31.23 -16.35 178.86 -1.48 166.81 -66.75 -48.97 -41.42 
USER  
USER                              x       y       z    vdW   Elec        q     RMS 
ATOM      1  O   UNL d   1     -17.664   0.992   4.109 -0.20 -0.02    -0.289    15.108
ATOM      2  O   UNL d   1     -16.868  -0.960  11.317 -0.07 -0.08    -0.289    15.108
ATOM      3  N   UNL d   1     -16.656   3.215   6.546 -0.09 -0.03    -0.247    15.108
ATOM      4  N   UNL d   1     -16.926   1.646   9.055 -0.05 -0.01    -0.247    15.108
ATOM      5  N   UNL d   1     -16.653   4.108  10.515 -0.04 +0.03    -0.354    15.108
ATOM      6  N   UNL d   1     -16.393   5.731   7.907 -0.07 -0.03    -0.354    15.108
ATOM      7  C   UNL d   1     -17.234   3.398   4.171 -0.14 +0.01    +0.084    15.108
ATOM      8  C   UNL d   1     -16.754  -0.785   8.878 -0.22 +0.02    +0.084    15.108
ATOM      9  C   UNL d   1     -16.818   0.582   8.188 -0.16 +0.01    +0.058    15.108
ATOM     10  C   UNL d   1     -16.791   4.077   5.471 -0.13 +0.01    +0.058    15.108
ATOM     11  C   UNL d   1     -17.308   1.996   4.699 -0.17 +0.02    +0.193    15.108
ATOM     12  C   UNL d   1     -16.911   2.013   6.142 -0.17 +0.01    +0.109    15.108
ATOM     13  C   UNL d   1     -16.884  -0.302  10.295 -0.17 +0.04    +0.193    15.108
ATOM     14  C   UNL d   1     -18.635   3.840   3.741 -0.08 +0.00    +0.026    15.108
ATOM     15  C   UNL d   1     -16.820   0.722   6.854 -0.24 +0.00    +0.055    15.108
ATOM     16  C   UNL d   1     -15.382  -1.444   8.706 -0.23 +0.01    +0.026    15.108
ATOM     17  C   UNL d   1     -16.988   1.189  10.265 -0.20 +0.01    +0.109    15.108
ATOM     18  C   UNL d   1     -16.478   5.386   5.509 -0.14 +0.01    +0.050    15.108
ATOM     19  C   UNL d   1     -15.981   6.080   6.641 -0.16 +0.00    +0.045    15.108
ATOM     20  C   UNL d   1     -17.020   3.270  11.535 -0.21 -0.00    +0.045    15.108
ATOM     21  C   UNL d   1     -17.170   1.941  11.514 -0.26 +0.00    +0.057    15.108
ATOM     22  C   UNL d   1     -16.973   5.413  12.323 -0.17 -0.00    -0.019    15.108
ATOM     23  C   UNL d   1     -16.597   5.423  10.895 -0.17 +0.00    +0.045    15.108
ATOM     24  C   UNL d   1     -17.221   4.135  12.696 -0.19 -0.00    -0.022    15.108
ATOM     25  C   UNL d   1     -15.860   6.587   8.842 -0.20 +0.00    +0.049    15.108
ATOM     26  C   UNL d   1     -15.129   7.167   6.760 -0.24 -0.00    -0.018    15.108
ATOM     27  C   UNL d   1     -15.041   7.471   8.153 -0.25 +0.00    +0.003    15.108
ATOM     28  C   UNL d   1     -16.266   6.524  10.203 -0.21 +0.00    +0.052    15.108
ATOM     29  C   UNL d   1     -17.621   3.615  14.035 -0.19 +0.00    +0.046    15.108
ATOM     30  C   UNL d   1     -14.436   7.881   5.649 -0.24 +0.00    +0.046    15.108
ATOM     31  H   UNL d   1     -16.379   3.746   9.608 -0.20 -0.01    +0.166    15.108
ATOM     32  H   UNL d   1     -17.035   4.970   8.097 +0.04 +0.01    +0.166    15.108
ATOM     33  C   UNL d   1     -16.236   3.484   3.012 -0.05 +0.04    +0.141    15.108
ATOM     34  C   UNL d   1     -14.829   3.158   3.433 -0.22 +0.05    +0.306    15.108
ATOM     35  O   UNL d   1     -14.497   2.593   4.462 -0.19 -0.03    -0.251    15.108
ATOM     36  O   UNL d   1     -13.912   3.558   2.534 -0.28 -0.09    -0.481    15.108
ATOM     37  H   UNL d   1     -13.542   2.726   2.171 -0.03 +0.03    +0.295    15.108
ATOM     38  C   UNL d   1     -14.274   8.539   8.719 -0.31 +0.00    +0.017    15.108
ATOM     39  C   UNL d   1     -14.367   8.975   9.984 -0.29 +0.01    +0.092    15.108
ATOM     40  C   UNL d   1     -13.509  10.069  10.445 -0.21 +0.05    +0.330    15.108
ATOM     41  O   UNL d   1     -13.050  10.982   9.786 -0.31 -0.04    -0.246    15.108
ATOM     42  O   UNL d   1     -13.277   9.952  11.762 -0.13 -0.12    -0.477    15.108
ATOM     43  H   UNL d   1     -14.170   9.840  12.148 +0.09 +0.05    +0.295    15.108
ATOM     44  C   UNL d   1     -17.884  -1.757   8.524 -0.14 +0.04    +0.141    15.108
ATOM     45  C   UNL d   1     -17.400  -3.006   7.837 -0.17 +0.11    +0.306    15.108
ATOM     46  O   UNL d   1     -16.802  -3.068   6.777 -0.27 -0.04    -0.251    15.108
ATOM     47  O   UNL d   1     -17.720  -4.123   8.515 -0.64 -0.47    -0.481    15.108
ATOM     48  H   UNL d   1     -17.476  -4.858   7.913 -0.20 +0.10    +0.295    15.108
ATOM     49  C   UNL d   1     -17.069   6.643  13.177 -0.13 +0.00    +0.048    15.108
ATOM     50  C   UNL d   1     -16.200   6.534  14.430 +0.08 +0.03    +0.125    15.108
ATOM     51  C   UNL d   1     -15.082   7.536  14.397 -0.03 +0.03    +0.305    15.108
ATOM     52  O   UNL d   1     -14.291   7.798  15.286 -0.57 -0.03    -0.251    15.108
ATOM     53  O   UNL d   1     -15.022   8.186  13.217 -0.06 +0.01    -0.481    15.108
ATOM     54  H   UNL d   1     -14.069   8.178  12.989 -0.47 -0.06    +0.295    15.108
TER
ENDMDL
MODEL       19
USER    Run = 19
USER    Cluster Rank = 9
USER    Number of conformations in this cluster = 2
USER  
USER    RMSD from reference structure       = 14.924 A
USER  
USER    Estimated Free Energy of Binding    =   -5.93 kcal/mol  [=(1)+(2)+(3)-(4)]
USER    Estimated Inhibition Constant, Ki   =   44.63 uM (micromolar)  [Temperature = 298.15 K]
USER    
USER    (1) Final Intermolecular Energy     =   -9.81 kcal/mol
USER        vdW + Hbond + desolv Energy     =   -9.71 kcal/mol
USER        Electrostatic Energy            =   -0.10 kcal/mol
USER    (2) Final Total Internal Energy     =   -2.29 kcal/mol
USER    (3) Torsional Free Energy           =   +3.88 kcal/mol
USER    (4) Unbound System's Energy  [=(2)] =   -2.29 kcal/mol
USER    
USER    
USER  
USER    DPF = D:/Protein_go_brrr/autodock/final/AncB/heme/dock.dpf
USER    NEWDPF move	heme_opt.pdbqt
USER    NEWDPF about	0.153000 0.018000 -0.028000
USER    NEWDPF tran0	-17.902305 -1.542356 3.922112
USER    NEWDPF axisangle0	0.452630 0.707850 -0.542285 64.654490
USER    NEWDPF quaternion0	0.242046 0.378526 -0.289989 0.845008
USER    NEWDPF dihe0	103.69 -49.97 -178.63 37.43 -134.77 119.90 -62.57 -86.94 55.05 -148.75 -5.90 9.91 178.74 
USER  
USER                              x       y       z    vdW   Elec        q     RMS 
ATOM      1  O   UNL d   1     -21.985  -3.991   0.445 -0.02 -0.03    -0.289    14.924
ATOM      2  O   UNL d   1     -16.632  -7.094   4.700 -0.36 -0.05    -0.289    14.924
ATOM      3  N   UNL d   1     -19.703  -2.122   2.232 -0.13 +0.02    -0.247    14.924
ATOM      4  N   UNL d   1     -18.227  -4.168   3.803 -0.10 +0.03    -0.247    14.924
ATOM      5  N   UNL d   1     -17.145  -2.031   5.394 +0.01 +0.05    -0.354    14.924
ATOM      6  N   UNL d   1     -18.694   0.083   3.771 -0.10 -0.00    -0.354    14.924
ATOM      7  C   UNL d   1     -21.692  -1.606   0.897 -0.04 +0.01    +0.084    14.924
ATOM      8  C   UNL d   1     -18.138  -6.431   2.887 -0.27 +0.01    +0.084    14.924
ATOM      9  C   UNL d   1     -18.676  -4.999   2.802 -0.22 +0.00    +0.058    14.924
ATOM     10  C   UNL d   1     -20.531  -1.115   1.766 -0.11 +0.00    +0.058    14.924
ATOM     11  C   UNL d   1     -21.363  -3.068   0.938 -0.05 +0.01    +0.193    14.924
ATOM     12  C   UNL d   1     -20.122  -3.250   1.757 -0.15 -0.00    +0.109    14.924
ATOM     13  C   UNL d   1     -17.329  -6.268   4.143 -0.33 +0.02    +0.193    14.924
ATOM     14  C   UNL d   1     -23.048  -1.385   1.570 -0.01 +0.00    +0.026    14.924
ATOM     15  C   UNL d   1     -19.551  -4.607   1.863 -0.15 +0.00    +0.055    14.924
ATOM     16  C   UNL d   1     -17.188  -6.751   1.728 -0.14 +0.01    +0.026    14.924
ATOM     17  C   UNL d   1     -17.473  -4.853   4.602 -0.33 -0.00    +0.109    14.924
ATOM     18  C   UNL d   1     -20.309   0.198   1.967 -0.12 +0.00    +0.050    14.924
ATOM     19  C   UNL d   1     -19.215   0.747   2.684 -0.17 +0.00    +0.045    14.924
ATOM     20  C   UNL d   1     -16.734  -3.108   6.136 -0.41 +0.00    +0.045    14.924
ATOM     21  C   UNL d   1     -16.821  -4.410   5.842 -0.49 +0.00    +0.057    14.924
ATOM     22  C   UNL d   1     -16.251  -1.194   7.285 -0.35 -0.00    -0.019    14.924
ATOM     23  C   UNL d   1     -16.896  -0.832   6.006 -0.30 -0.00    +0.045    14.924
ATOM     24  C   UNL d   1     -16.157  -2.543   7.355 -0.42 -0.00    -0.022    14.924
ATOM     25  C   UNL d   1     -17.707   0.832   4.368 -0.22 +0.00    +0.049    14.924
ATOM     26  C   UNL d   1     -18.525   1.941   2.548 -0.16 -0.00    -0.018    14.924
ATOM     27  C   UNL d   1     -17.561   1.981   3.603 -0.21 +0.00    +0.003    14.924
ATOM     28  C   UNL d   1     -17.128   0.426   5.601 -0.30 +0.00    +0.052    14.924
ATOM     29  C   UNL d   1     -15.574  -3.382   8.440 -0.02 +0.03    +0.046    14.924
ATOM     30  C   UNL d   1     -18.744   2.982   1.504 -0.14 +0.01    +0.046    14.924
ATOM     31  H   UNL d   1     -17.516  -2.148   4.457 -0.27 -0.09    +0.166    14.924
ATOM     32  H   UNL d   1     -19.034  -0.815   4.095 -0.02 -0.01    +0.166    14.924
ATOM     33  C   UNL d   1     -21.692  -1.096  -0.549 -0.04 +0.01    +0.141    14.924
ATOM     34  C   UNL d   1     -21.211  -2.132  -1.528 -0.05 +0.04    +0.306    14.924
ATOM     35  O   UNL d   1     -20.049  -2.416  -1.765 -0.44 -0.05    -0.251    14.924
ATOM     36  O   UNL d   1     -22.221  -2.758  -2.158 -0.00 -0.05    -0.481    14.924
ATOM     37  H   UNL d   1     -22.547  -3.417  -1.507 +0.02 +0.03    +0.295    14.924
ATOM     38  C   UNL d   1     -16.643   3.054   3.842 -0.28 +0.00    +0.017    14.924
ATOM     39  C   UNL d   1     -15.332   2.911   4.087 -0.39 +0.01    +0.092    14.924
ATOM     40  C   UNL d   1     -14.496   4.096   4.298 -0.24 +0.05    +0.330    14.924
ATOM     41  O   UNL d   1     -13.872   4.397   5.298 -0.34 -0.04    -0.246    14.924
ATOM     42  O   UNL d   1     -14.485   4.857   3.193 -0.12 -0.09    -0.477    14.924
ATOM     43  H   UNL d   1     -14.695   5.754   3.525 +0.14 +0.05    +0.295    14.924
ATOM     44  C   UNL d   1     -19.196  -7.526   3.055 -0.11 +0.02    +0.141    14.924
ATOM     45  C   UNL d   1     -18.692  -8.899   2.698 -0.10 +0.06    +0.306    14.924
ATOM     46  O   UNL d   1     -18.975  -9.541   1.701 -0.11 -0.05    -0.251    14.924
ATOM     47  O   UNL d   1     -17.873  -9.407   3.636 -0.13 -0.08    -0.481    14.924
ATOM     48  H   UNL d   1     -17.834  -8.716   4.331 +0.11 +0.03    +0.295    14.924
ATOM     49  C   UNL d   1     -15.805  -0.198   8.315 -0.31 +0.01    +0.048    14.924
ATOM     50  C   UNL d   1     -16.862   0.010   9.399 -0.23 +0.02    +0.125    14.924
ATOM     51  C   UNL d   1     -16.347   0.915  10.483 -0.21 +0.01    +0.305    14.924
ATOM     52  O   UNL d   1     -15.800   0.592  11.522 -0.28 -0.01    -0.251    14.924
ATOM     53  O   UNL d   1     -16.565   2.215  10.200 -0.07 +0.03    -0.481    14.924
ATOM     54  H   UNL d   1     -15.767   2.670  10.541 -0.44 -0.12    +0.295    14.924
TER
ENDMDL
MODEL       18
USER    Run = 18
USER    Cluster Rank = 10
USER    Number of conformations in this cluster = 1
USER  
USER    RMSD from reference structure       = 13.158 A
USER  
USER    Estimated Free Energy of Binding    =   -5.90 kcal/mol  [=(1)+(2)+(3)-(4)]
USER    Estimated Inhibition Constant, Ki   =   47.25 uM (micromolar)  [Temperature = 298.15 K]
USER    
USER    (1) Final Intermolecular Energy     =   -9.78 kcal/mol
USER        vdW + Hbond + desolv Energy     =   -8.65 kcal/mol
USER        Electrostatic Energy            =   -1.13 kcal/mol
USER    (2) Final Total Internal Energy     =   -1.82 kcal/mol
USER    (3) Torsional Free Energy           =   +3.88 kcal/mol
USER    (4) Unbound System's Energy  [=(2)] =   -1.82 kcal/mol
USER    
USER    
USER  
USER    DPF = D:/Protein_go_brrr/autodock/final/AncB/heme/dock.dpf
USER    NEWDPF move	heme_opt.pdbqt
USER    NEWDPF about	0.153000 0.018000 -0.028000
USER    NEWDPF tran0	6.817006 -14.100007 -2.428485
USER    NEWDPF axisangle0	0.601465 -0.138754 0.786757 -95.371115
USER    NEWDPF quaternion0	0.444760 -0.102603 0.581777 -0.673199
USER    NEWDPF dihe0	180.00 -136.78 129.28 -68.85 52.09 75.38 -4.42 112.00 159.40 18.71 91.77 -150.79 161.33 
USER  
USER                              x       y       z    vdW   Elec        q     RMS 
ATOM      1  O   UNL d   1       3.891 -18.571  -4.920 -0.17 +0.24    -0.289    13.158
ATOM      2  O   UNL d   1       9.654 -14.453  -7.415 -0.03 +0.06    -0.289    13.158
ATOM      3  N   UNL d   1       5.207 -15.927  -3.139 -0.14 +0.04    -0.247    13.158
ATOM      4  N   UNL d   1       7.581 -15.137  -4.742 -0.10 +0.07    -0.247    13.158
ATOM      5  N   UNL d   1       8.456 -13.563  -2.501 -0.13 +0.20    -0.354    13.158
ATOM      6  N   UNL d   1       6.000 -14.403  -0.837 -0.06 +0.04    -0.354    13.158
ATOM      7  C   UNL d   1       3.516 -17.643  -2.690 -0.18 -0.02    +0.084    13.158
ATOM      8  C   UNL d   1       7.535 -15.647  -7.132 -0.15 -0.04    +0.084    13.158
ATOM      9  C   UNL d   1       6.882 -15.763  -5.750 -0.22 -0.02    +0.058    13.158
ATOM     10  C   UNL d   1       4.309 -16.424  -2.209 -0.17 -0.01    +0.058    13.158
ATOM     11  C   UNL d   1       4.111 -17.735  -4.062 -0.19 -0.08    +0.193    13.158
ATOM     12  C   UNL d   1       5.103 -16.625  -4.222 -0.24 -0.03    +0.109    13.158
ATOM     13  C   UNL d   1       8.753 -14.872  -6.714 -0.07 -0.05    +0.193    13.158
ATOM     14  C   UNL d   1       3.877 -18.908  -1.908 -0.08 -0.00    +0.026    13.158
ATOM     15  C   UNL d   1       5.754 -16.458  -5.537 -0.34 -0.03    +0.055    13.158
ATOM     16  C   UNL d   1       6.703 -14.781  -8.083 -0.30 -0.01    +0.026    13.158
ATOM     17  C   UNL d   1       8.664 -14.634  -5.242 -0.14 -0.04    +0.109    13.158
ATOM     18  C   UNL d   1       4.066 -15.854  -1.014 -0.17 -0.00    +0.050    13.158
ATOM     19  C   UNL d   1       4.689 -14.678  -0.522 -0.17 -0.00    +0.045    13.158
ATOM     20  C   UNL d   1       9.576 -13.496  -3.288 -0.21 -0.03    +0.045    13.158
ATOM     21  C   UNL d   1       9.748 -13.930  -4.540 -0.20 -0.03    +0.057    13.158
ATOM     22  C   UNL d   1      10.038 -12.543  -1.264 -0.24 +0.01    -0.019    13.158
ATOM     23  C   UNL d   1       8.638 -13.013  -1.260 -0.28 -0.03    +0.045    13.158
ATOM     24  C   UNL d   1      10.587 -12.830  -2.467 -0.16 +0.02    -0.022    13.158
ATOM     25  C   UNL d   1       6.426 -13.269  -0.185 -0.23 -0.01    +0.049    13.158
ATOM     26  C   UNL d   1       4.240 -13.678   0.327 -0.22 -0.00    -0.018    13.158
ATOM     27  C   UNL d   1       5.335 -12.781   0.521 -0.30 -0.00    +0.003    13.158
ATOM     28  C   UNL d   1       7.790 -12.872  -0.229 -0.31 -0.03    +0.052    13.158
ATOM     29  C   UNL d   1      11.967 -12.544  -2.955 -0.07 -0.04    +0.046    13.158
ATOM     30  C   UNL d   1       2.878 -13.560   0.921 -0.17 +0.01    +0.046    13.158
ATOM     31  H   UNL d   1       7.578 -13.917  -2.865 +0.06 -0.06    +0.166    13.158
ATOM     32  H   UNL d   1       6.568 -14.991  -1.436 +0.05 -0.03    +0.166    13.158
ATOM     33  C   UNL d   1       1.998 -17.447  -2.773 -0.28 -0.03    +0.141    13.158
ATOM     34  C   UNL d   1       1.238 -18.735  -2.605 -0.13 -0.05    +0.306    13.158
ATOM     35  O   UNL d   1       0.603 -19.073  -1.620 -0.06 -0.00    -0.251    13.158
ATOM     36  O   UNL d   1       1.316 -19.529  -3.688 -0.01 +0.19    -0.481    13.158
ATOM     37  H   UNL d   1       1.838 -19.010  -4.337 -0.25 -0.25    +0.295    13.158
ATOM     38  C   UNL d   1       5.307 -11.611   1.345 -0.38 -0.01    +0.017    13.158
ATOM     39  C   UNL d   1       5.173 -11.607   2.680 -0.21 -0.03    +0.092    13.158
ATOM     40  C   UNL d   1       5.177 -10.337   3.411 -0.15 -0.13    +0.330    13.158
ATOM     41  O   UNL d   1       4.296  -9.500   3.452 -0.23 +0.02    -0.246    13.158
ATOM     42  O   UNL d   1       6.331 -10.194   4.081 -0.03 +0.38    -0.477    13.158
ATOM     43  H   UNL d   1       7.012 -10.486   3.440 -0.45 -0.68    +0.295    13.158
ATOM     44  C   UNL d   1       7.928 -16.973  -7.790 -0.09 -0.10    +0.141    13.158
ATOM     45  C   UNL d   1       8.306 -18.040  -6.797 -0.05 -0.22    +0.306    13.158
ATOM     46  O   UNL d   1       9.076 -17.921  -5.860 -0.02 +0.10    -0.251    13.158
ATOM     47  O   UNL d   1       7.710 -19.218  -7.056 -0.04 +0.63    -0.481    13.158
ATOM     48  H   UNL d   1       6.758 -19.001  -7.142 -0.40 -0.80    +0.295    13.158
ATOM     49  C   UNL d   1      10.705 -11.876  -0.097 -0.08 -0.03    +0.048    13.158
ATOM     50  C   UNL d   1      11.123 -12.885   0.972 -0.09 -0.05    +0.125    13.158
ATOM     51  C   UNL d   1      10.002 -13.138   1.939 -0.07 -0.14    +0.305    13.158
ATOM     52  O   UNL d   1       9.293 -14.126   2.013 -0.03 +0.08    -0.251    13.158
ATOM     53  O   UNL d   1       9.816 -12.100   2.779 -0.04 +0.44    -0.481    13.158
ATOM     54  H   UNL d   1       8.956 -11.721   2.503 -0.21 -0.54    +0.295    13.158
TER
ENDMDL
MODEL       96
USER    Run = 96
USER    Cluster Rank = 11
USER    Number of conformations in this cluster = 2
USER  
USER    RMSD from reference structure       = 12.666 A
USER  
USER    Estimated Free Energy of Binding    =   -5.88 kcal/mol  [=(1)+(2)+(3)-(4)]
USER    Estimated Inhibition Constant, Ki   =   49.35 uM (micromolar)  [Temperature = 298.15 K]
USER    
USER    (1) Final Intermolecular Energy     =   -9.75 kcal/mol
USER        vdW + Hbond + desolv Energy     =   -9.11 kcal/mol
USER        Electrostatic Energy            =   -0.64 kcal/mol
USER    (2) Final Total Internal Energy     =   -1.79 kcal/mol
USER    (3) Torsional Free Energy           =   +3.88 kcal/mol
USER    (4) Unbound System's Energy  [=(2)] =   -1.79 kcal/mol
USER    
USER    
USER  
USER    DPF = D:/Protein_go_brrr/autodock/final/AncB/heme/dock.dpf
USER    NEWDPF move	heme_opt.pdbqt
USER    NEWDPF about	0.153000 0.018000 -0.028000
USER    NEWDPF tran0	4.965591 -14.994704 -0.490844
USER    NEWDPF axisangle0	0.766484 0.571438 0.293191 128.587969
USER    NEWDPF quaternion0	0.690626 0.514884 0.264174 0.433754
USER    NEWDPF dihe0	-179.82 -180.00 -105.63 1.51 -150.12 -11.97 -43.25 62.01 23.54 -166.60 119.58 -64.25 -167.64 
USER  
USER                              x       y       z    vdW   Elec        q     RMS 
ATOM      1  O   UNL d   1       4.648 -17.293  -5.911 -0.19 +0.28    -0.289    12.666
ATOM      2  O   UNL d   1      -0.340 -17.198  -0.298 -0.13 -0.06    -0.289    12.666
ATOM      3  N   UNL d   1       5.339 -15.925  -2.821 -0.12 +0.03    -0.247    12.666
ATOM      4  N   UNL d   1       2.729 -16.076  -1.408 -0.14 +0.00    -0.247    12.666
ATOM      5  N   UNL d   1       3.803 -14.290   0.573 -0.05 -0.02    -0.354    12.666
ATOM      6  N   UNL d   1       6.501 -14.124  -0.910 -0.06 +0.06    -0.354    12.666
ATOM      7  C   UNL d   1       6.516 -16.029  -4.968 -0.21 -0.03    +0.084    12.666
ATOM      8  C   UNL d   1       1.171 -17.818  -2.121 -0.23 -0.01    +0.084    12.666
ATOM      9  C   UNL d   1       2.494 -17.073  -2.328 -0.25 -0.01    +0.058    12.666
ATOM     10  C   UNL d   1       6.483 -15.559  -3.511 -0.13 -0.01    +0.058    12.666
ATOM     11  C   UNL d   1       5.197 -16.740  -4.975 -0.18 -0.09    +0.193    12.666
ATOM     12  C   UNL d   1       4.593 -16.628  -3.609 -0.22 -0.02    +0.109    12.666
ATOM     13  C   UNL d   1       0.682 -17.034  -0.936 -0.16 +0.01    +0.193    12.666
ATOM     14  C   UNL d   1       6.451 -14.857  -5.951 -0.31 -0.01    +0.026    12.666
ATOM     15  C   UNL d   1       3.324 -17.338  -3.349 -0.30 -0.01    +0.055    12.666
ATOM     16  C   UNL d   1       1.398 -19.270  -1.691 -0.11 -0.00    +0.026    12.666
ATOM     17  C   UNL d   1       1.714 -16.005  -0.608 -0.18 +0.01    +0.109    12.666
ATOM     18  C   UNL d   1       7.531 -14.926  -2.952 -0.11 -0.01    +0.050    12.666
ATOM     19  C   UNL d   1       7.624 -14.531  -1.593 -0.14 -0.01    +0.045    12.666
ATOM     20  C   UNL d   1       2.486 -14.297   0.952 -0.15 +0.01    +0.045    12.666
ATOM     21  C   UNL d   1       1.485 -15.054   0.490 -0.21 +0.01    +0.057    12.666
ATOM     22  C   UNL d   1       3.601 -12.735   2.189 -0.16 -0.00    -0.019    12.666
ATOM     23  C   UNL d   1       4.555 -13.378   1.264 -0.15 -0.00    +0.045    12.666
ATOM     24  C   UNL d   1       2.378 -13.284   2.000 -0.20 -0.00    -0.022    12.666
ATOM     25  C   UNL d   1       6.832 -13.701   0.357 -0.16 -0.01    +0.049    12.666
ATOM     26  C   UNL d   1       8.707 -14.405  -0.737 -0.10 +0.01    -0.018    12.666
ATOM     27  C   UNL d   1       8.199 -13.899   0.499 -0.12 -0.00    +0.003    12.666
ATOM     28  C   UNL d   1       5.864 -13.088   1.198 -0.20 -0.01    +0.052    12.666
ATOM     29  C   UNL d   1       1.099 -12.976   2.702 -0.22 +0.01    +0.046    12.666
ATOM     30  C   UNL d   1      10.128 -14.735  -1.045 -0.06 -0.01    +0.046    12.666
ATOM     31  H   UNL d   1       4.162 -14.962  -0.097 +0.06 +0.00    +0.166    12.666
ATOM     32  H   UNL d   1       5.573 -14.106  -1.316 +0.07 -0.01    +0.166    12.666
ATOM     33  C   UNL d   1       7.651 -16.996  -5.321 -0.11 -0.07    +0.141    12.666
ATOM     34  C   UNL d   1       7.454 -18.363  -4.722 -0.06 -0.16    +0.306    12.666
ATOM     35  O   UNL d   1       7.935 -18.767  -3.677 -0.02 +0.08    -0.251    12.666
ATOM     36  O   UNL d   1       6.659 -19.147  -5.470 -0.06 +0.57    -0.481    12.666
ATOM     37  H   UNL d   1       6.382 -18.576  -6.218 -0.17 -0.55    +0.295    12.666
ATOM     38  C   UNL d   1       8.987 -13.606   1.658 -0.11 -0.01    +0.017    12.666
ATOM     39  C   UNL d   1       8.681 -12.692   2.591 -0.05 -0.08    +0.092    12.666
ATOM     40  C   UNL d   1       9.567 -12.500   3.743 -0.05 -0.20    +0.330    12.666
ATOM     41  O   UNL d   1      10.467 -13.227   4.117 -0.03 +0.07    -0.246    12.666
ATOM     42  O   UNL d   1       9.262 -11.356   4.374 -0.06 +0.47    -0.477    12.666
ATOM     43  H   UNL d   1       8.519 -10.991   3.852 -0.33 -0.61    +0.295    12.666
ATOM     44  C   UNL d   1       0.176 -17.733  -3.284 -0.28 -0.04    +0.141    12.666
ATOM     45  C   UNL d   1      -0.603 -19.004  -3.493 -0.16 -0.06    +0.306    12.666
ATOM     46  O   UNL d   1      -0.269 -19.959  -4.172 -0.16 +0.06    -0.251    12.666
ATOM     47  O   UNL d   1      -1.785 -18.994  -2.851 -0.08 -0.02    -0.481    12.666
ATOM     48  H   UNL d   1      -2.346 -18.382  -3.373 -0.43 -0.07    +0.295    12.666
ATOM     49  C   UNL d   1       3.967 -11.643   3.152 -0.18 -0.00    +0.048    12.666
ATOM     50  C   UNL d   1       3.386 -10.294   2.729 -0.34 -0.00    +0.125    12.666
ATOM     51  C   UNL d   1       3.887  -9.896   1.370 -0.37 -0.05    +0.305    12.666
ATOM     52  O   UNL d   1       3.806 -10.530   0.333 -0.60 +0.00    -0.251    12.666
ATOM     53  O   UNL d   1       4.493  -8.692   1.389 -0.37 +0.13    -0.481    12.666
ATOM     54  H   UNL d   1       4.755  -8.542   0.457 -0.29 -0.18    +0.295    12.666
TER
ENDMDL
MODEL        1
USER    Run = 1
USER    Cluster Rank = 12
USER    Number of conformations in this cluster = 1
USER  
USER    RMSD from reference structure       = 17.453 A
USER  
USER    Estimated Free Energy of Binding    =   -5.70 kcal/mol  [=(1)+(2)+(3)-(4)]
USER    Estimated Inhibition Constant, Ki   =   66.01 uM (micromolar)  [Temperature = 298.15 K]
USER    
USER    (1) Final Intermolecular Energy     =   -9.58 kcal/mol
USER        vdW + Hbond + desolv Energy     =   -9.16 kcal/mol
USER        Electrostatic Energy            =   -0.42 kcal/mol
USER    (2) Final Total Internal Energy     =   -1.66 kcal/mol
USER    (3) Torsional Free Energy           =   +3.88 kcal/mol
USER    (4) Unbound System's Energy  [=(2)] =   -1.66 kcal/mol
USER    
USER    
USER  
USER    DPF = D:/Protein_go_brrr/autodock/final/AncB/heme/dock.dpf
USER    NEWDPF move	heme_opt.pdbqt
USER    NEWDPF about	0.153000 0.018000 -0.028000
USER    NEWDPF tran0	3.829718 1.717511 -17.803874
USER    NEWDPF axisangle0	-0.673287 0.631300 0.384897 112.581833
USER    NEWDPF quaternion0	-0.560085 0.525157 0.320183 0.554976
USER    NEWDPF dihe0	117.45 121.29 62.26 -40.21 -23.79 172.49 144.52 -112.43 -142.89 173.67 -61.23 170.78 20.15 
USER  
USER                              x       y       z    vdW   Elec        q     RMS 
ATOM      1  O   UNL d   1       1.461   7.110 -17.560 -0.12 -0.24    -0.289    17.453
ATOM      2  O   UNL d   1       5.798   3.863 -22.759 -0.02 -0.11    -0.289    17.453
ATOM      3  N   UNL d   1       2.741   3.928 -17.203 -0.13 -0.13    -0.247    17.453
ATOM      4  N   UNL d   1       4.035   3.413 -19.827 -0.03 -0.13    -0.247    17.453
ATOM      5  N   UNL d   1       4.197   0.637 -19.099 -0.04 -0.15    -0.354    17.453
ATOM      6  N   UNL d   1       2.836   1.176 -16.386 -0.04 -0.16    -0.354    17.453
ATOM      7  C   UNL d   1       1.172   5.314 -15.928 -0.19 +0.06    +0.084    17.453
ATOM      8  C   UNL d   1       4.797   5.356 -21.098 -0.13 +0.07    +0.084    17.453
ATOM      9  C   UNL d   1       4.057   4.789 -19.882 -0.16 +0.04    +0.058    17.453
ATOM     10  C   UNL d   1       1.918   3.986 -16.090 -0.16 +0.03    +0.058    17.453
ATOM     11  C   UNL d   1       1.734   6.003 -17.135 -0.15 +0.15    +0.193    17.453
ATOM     12  C   UNL d   1       2.691   5.069 -17.809 -0.21 +0.08    +0.109    17.453
ATOM     13  C   UNL d   1       5.158   4.048 -21.743 -0.05 +0.10    +0.193    17.453
ATOM     14  C   UNL d   1      -0.339   5.150 -16.109 -0.15 +0.03    +0.026    17.453
ATOM     15  C   UNL d   1       3.442   5.568 -18.979 -0.26 +0.05    +0.055    17.453
ATOM     16  C   UNL d   1       6.086   6.078 -20.692 -0.17 +0.03    +0.026    17.453
ATOM     17  C   UNL d   1       4.632   2.949 -20.878 -0.05 +0.05    +0.109    17.453
ATOM     18  C   UNL d   1       1.830   3.013 -15.165 -0.19 +0.03    +0.050    17.453
ATOM     19  C   UNL d   1       2.546   1.789 -15.188 -0.22 +0.02    +0.045    17.453
ATOM     20  C   UNL d   1       4.560   0.556 -20.418 -0.05 +0.02    +0.045    17.453
ATOM     21  C   UNL d   1       4.800   1.546 -21.283 -0.05 +0.02    +0.057    17.453
ATOM     22  C   UNL d   1       4.330  -1.559 -19.584 -0.01 -0.01    -0.019    17.453
ATOM     23  C   UNL d   1       4.034  -0.589 -18.510 -0.05 +0.02    +0.045    17.453
ATOM     24  C   UNL d   1       4.641  -0.875 -20.711 -0.01 -0.01    -0.022    17.453
ATOM     25  C   UNL d   1       3.452  -0.035 -16.173 -0.14 +0.02    +0.049    17.453
ATOM     26  C   UNL d   1       3.018   0.972 -14.171 -0.32 -0.01    -0.018    17.453
ATOM     27  C   UNL d   1       3.606  -0.168 -14.800 -0.26 +0.00    +0.003    17.453
ATOM     28  C   UNL d   1       3.708  -0.923 -17.253 -0.10 +0.02    +0.052    17.453
ATOM     29  C   UNL d   1       5.022  -1.408 -22.050 -0.00 +0.01    +0.046    17.453
ATOM     30  C   UNL d   1       2.931   1.235 -12.706 -0.35 +0.01    +0.046    17.453
ATOM     31  H   UNL d   1       4.145   1.530 -18.621 +0.04 +0.09    +0.166    17.453
ATOM     32  H   UNL d   1       2.585   1.562 -17.288 +0.04 +0.08    +0.166    17.453
ATOM     33  C   UNL d   1       1.504   6.102 -14.656 -0.33 +0.10    +0.141    17.453
ATOM     34  C   UNL d   1       0.531   5.837 -13.540 -0.36 +0.26    +0.306    17.453
ATOM     35  O   UNL d   1      -0.078   4.799 -13.346 -0.97 -0.32    -0.251    17.453
ATOM     36  O   UNL d   1       0.378   6.895 -12.723 -0.30 -0.30    -0.481    17.453
ATOM     37  H   UNL d   1       1.256   7.009 -12.300 -0.37 +0.07    +0.295    17.453
ATOM     38  C   UNL d   1       4.203  -1.273 -14.112 -0.33 +0.00    +0.017    17.453
ATOM     39  C   UNL d   1       3.875  -1.685 -12.877 -0.42 +0.02    +0.092    17.453
ATOM     40  C   UNL d   1       4.553  -2.845 -12.291 -0.31 +0.08    +0.330    17.453
ATOM     41  O   UNL d   1       4.488  -3.242 -11.143 -0.40 -0.07    -0.246    17.453
ATOM     42  O   UNL d   1       5.293  -3.467 -13.222 -0.26 -0.08    -0.477    17.453
ATOM     43  H   UNL d   1       4.644  -3.713 -13.912 +0.17 +0.06    +0.295    17.453
ATOM     44  C   UNL d   1       3.953   6.219 -22.042 -0.05 +0.09    +0.141    17.453
ATOM     45  C   UNL d   1       4.521   7.596 -22.256 -0.04 +0.26    +0.306    17.453
ATOM     46  O   UNL d   1       5.167   7.975 -23.217 -0.02 -0.14    -0.251    17.453
ATOM     47  O   UNL d   1       4.266   8.424 -21.226 -0.59 -0.79    -0.481    17.453
ATOM     48  H   UNL d   1       3.730   9.147 -21.616 +0.02 +0.30    +0.295    17.453
ATOM     49  C   UNL d   1       4.266  -3.048 -19.415 -0.03 +0.01    +0.048    17.453
ATOM     50  C   UNL d   1       5.289  -3.550 -18.397 -0.05 +0.02    +0.125    17.453
ATOM     51  C   UNL d   1       4.609  -4.240 -17.248 -0.12 +0.05    +0.305    17.453
ATOM     52  O   UNL d   1       4.634  -3.925 -16.072 -0.18 -0.04    -0.251    17.453
ATOM     53  O   UNL d   1       3.922  -5.328 -17.649 -0.10 -0.03    -0.481    17.453
ATOM     54  H   UNL d   1       4.101  -5.993 -16.951 -0.36 -0.06    +0.295    17.453
TER
ENDMDL
MODEL       74
USER    Run = 74
USER    Cluster Rank = 13
USER    Number of conformations in this cluster = 3
USER  
USER    RMSD from reference structure       = 15.481 A
USER  
USER    Estimated Free Energy of Binding    =   -5.67 kcal/mol  [=(1)+(2)+(3)-(4)]
USER    Estimated Inhibition Constant, Ki   =   69.57 uM (micromolar)  [Temperature = 298.15 K]
USER    
USER    (1) Final Intermolecular Energy     =   -9.55 kcal/mol
USER        vdW + Hbond + desolv Energy     =   -8.60 kcal/mol
USER        Electrostatic Energy            =   -0.95 kcal/mol
USER    (2) Final Total Internal Energy     =   -3.44 kcal/mol
USER    (3) Torsional Free Energy           =   +3.88 kcal/mol
USER    (4) Unbound System's Energy  [=(2)] =   -3.44 kcal/mol
USER    
USER    
USER  
USER    DPF = D:/Protein_go_brrr/autodock/final/AncB/heme/dock.dpf
USER    NEWDPF move	heme_opt.pdbqt
USER    NEWDPF about	0.153000 0.018000 -0.028000
USER    NEWDPF tran0	-8.385609 16.060118 6.131677
USER    NEWDPF axisangle0	-0.239479 -0.775110 0.584683 160.645108
USER    NEWDPF quaternion0	-0.236071 -0.764080 0.576363 0.168101
USER    NEWDPF dihe0	170.48 140.39 -49.50 46.31 -4.01 103.77 -15.64 60.48 -13.86 -119.95 -82.72 -105.84 2.03 
USER  
USER                              x       y       z    vdW   Elec        q     RMS 
ATOM      1  O   UNL d   1      -2.790  14.880   7.566 -0.61 +0.04    -0.289    15.481
ATOM      2  O   UNL d   1      -8.838  16.046  11.862 -0.11 -0.10    -0.289    15.481
ATOM      3  N   UNL d   1      -5.881  15.684   6.262 -0.03 +0.11    -0.247    15.481
ATOM      4  N   UNL d   1      -7.657  15.646   8.644 -0.17 +0.01    -0.247    15.481
ATOM      5  N   UNL d   1      -9.906  15.673   6.852 -0.13 +0.04    -0.354    15.481
ATOM      6  N   UNL d   1      -8.056  15.691   4.387 -0.13 +0.14    -0.354    15.481
ATOM      7  C   UNL d   1      -3.717  15.038   5.309 -0.32 -0.04    +0.084    15.481
ATOM      8  C   UNL d   1      -6.626  16.087  10.815 -0.14 +0.00    +0.084    15.481
ATOM      9  C   UNL d   1      -6.469  15.855   9.308 -0.20 -0.00    +0.058    15.481
ATOM     10  C   UNL d   1      -5.182  15.430   5.094 -0.28 -0.03    +0.058    15.481
ATOM     11  C   UNL d   1      -3.707  15.133   6.805 -0.21 -0.05    +0.193    15.481
ATOM     12  C   UNL d   1      -5.069  15.557   7.261 -0.20 -0.03    +0.109    15.481
ATOM     13  C   UNL d   1      -8.119  15.935  10.888 -0.13 +0.04    +0.193    15.481
ATOM     14  C   UNL d   1      -3.445  13.587   4.903 -0.57 -0.01    +0.026    15.481
ATOM     15  C   UNL d   1      -5.273  15.808   8.701 -0.23 -0.01    +0.055    15.481
ATOM     16  C   UNL d   1      -6.258  17.521  11.210 -0.06 -0.00    +0.026    15.481
ATOM     17  C   UNL d   1      -8.621  15.663   9.507 -0.16 +0.01    +0.109    15.481
ATOM     18  C   UNL d   1      -5.692  15.594   3.859 -0.18 -0.02    +0.050    15.481
ATOM     19  C   UNL d   1      -7.007  16.035   3.564 -0.23 -0.02    +0.045    15.481
ATOM     20  C   UNL d   1     -10.551  15.424   8.036 -0.22 +0.00    +0.045    15.481
ATOM     21  C   UNL d   1     -10.054  15.424   9.277 -0.13 +0.01    +0.057    15.481
ATOM     22  C   UNL d   1     -12.054  15.247   6.325 -0.15 +0.00    -0.019    15.481
ATOM     23  C   UNL d   1     -10.731  15.588   5.763 -0.19 -0.01    +0.045    15.481
ATOM     24  C   UNL d   1     -11.940  15.153   7.671 -0.19 +0.00    -0.022    15.481
ATOM     25  C   UNL d   1      -9.246  16.145   3.867 -0.15 -0.01    +0.049    15.481
ATOM     26  C   UNL d   1      -7.524  16.761   2.502 -0.16 +0.01    -0.018    15.481
ATOM     27  C   UNL d   1      -8.935  16.844   2.709 -0.09 -0.00    +0.003    15.481
ATOM     28  C   UNL d   1     -10.486  15.778   4.457 -0.16 -0.01    +0.052    15.481
ATOM     29  C   UNL d   1     -12.997  14.843   8.676 -0.15 +0.00    +0.046    15.481
ATOM     30  C   UNL d   1      -6.756  17.345   1.365 -0.09 -0.04    +0.046    15.481
ATOM     31  H   UNL d   1      -8.935  15.966   6.833 -0.01 -0.03    +0.166    15.481
ATOM     32  H   UNL d   1      -7.948  15.144   5.232 -0.28 -0.11    +0.166    15.481
ATOM     33  C   UNL d   1      -2.685  15.995   4.702 -0.14 -0.13    +0.141    15.481
ATOM     34  C   UNL d   1      -3.136  17.430   4.735 -0.09 -0.23    +0.306    15.481
ATOM     35  O   UNL d   1      -3.570  18.026   5.706 -0.04 +0.11    -0.251    15.481
ATOM     36  O   UNL d   1      -3.014  18.039   3.542 -0.04 +0.58    -0.481    15.481
ATOM     37  H   UNL d   1      -2.471  17.423   3.005 -0.48 -0.75    +0.295    15.481
ATOM     38  C   UNL d   1      -9.860  17.498   1.834 -0.04 -0.00    +0.017    15.481
ATOM     39  C   UNL d   1     -10.782  16.881   1.078 -0.02 -0.01    +0.092    15.481
ATOM     40  C   UNL d   1     -11.683  17.670   0.236 +0.00 -0.03    +0.330    15.481
ATOM     41  O   UNL d   1     -11.609  17.853  -0.965 -0.00 +0.02    -0.246    15.481
ATOM     42  O   UNL d   1     -12.669  18.196   0.979 +0.00 +0.02    -0.477    15.481
ATOM     43  H   UNL d   1     -12.898  17.479   1.606 +0.00 -0.01    +0.295    15.481
ATOM     44  C   UNL d   1      -5.925  15.066  11.717 -0.24 +0.00    +0.141    15.481
ATOM     45  C   UNL d   1      -6.310  15.191  13.167 -0.16 -0.03    +0.306    15.481
ATOM     46  O   UNL d   1      -6.160  16.170  13.877 -0.09 +0.10    -0.251    15.481
ATOM     47  O   UNL d   1      -6.843  14.057  13.657 -0.64 -0.21    -0.481    15.481
ATOM     48  H   UNL d   1      -6.344  13.885  14.483 -0.44 -0.27    +0.295    15.481
ATOM     49  C   UNL d   1     -13.289  15.032   5.501 -0.10 -0.01    +0.048    15.481
ATOM     50  C   UNL d   1     -13.955  16.354   5.119 -0.02 -0.00    +0.125    15.481
ATOM     51  C   UNL d   1     -13.566  16.768   3.728 -0.00 -0.01    +0.305    15.481
ATOM     52  O   UNL d   1     -13.668  16.118   2.703 -0.00 +0.01    -0.251    15.481
ATOM     53  O   UNL d   1     -13.042  18.010   3.700 +0.00 +0.02    -0.481    15.481
ATOM     54  H   UNL d   1     -13.491  18.441   2.943 +0.00 -0.01    +0.295    15.481
TER
ENDMDL
MODEL       22
USER    Run = 22
USER    Cluster Rank = 14
USER    Number of conformations in this cluster = 2
USER  
USER    RMSD from reference structure       = 15.638 A
USER  
USER    Estimated Free Energy of Binding    =   -5.65 kcal/mol  [=(1)+(2)+(3)-(4)]
USER    Estimated Inhibition Constant, Ki   =   72.59 uM (micromolar)  [Temperature = 298.15 K]
USER    
USER    (1) Final Intermolecular Energy     =   -9.52 kcal/mol
USER        vdW + Hbond + desolv Energy     =   -9.20 kcal/mol
USER        Electrostatic Energy            =   -0.32 kcal/mol
USER    (2) Final Total Internal Energy     =   -2.42 kcal/mol
USER    (3) Torsional Free Energy           =   +3.88 kcal/mol
USER    (4) Unbound System's Energy  [=(2)] =   -2.42 kcal/mol
USER    
USER    
USER  
USER    DPF = D:/Protein_go_brrr/autodock/final/AncB/heme/dock.dpf
USER    NEWDPF move	heme_opt.pdbqt
USER    NEWDPF about	0.153000 0.018000 -0.028000
USER    NEWDPF tran0	-3.140863 -7.844257 15.271074
USER    NEWDPF axisangle0	0.731104 0.680388 0.050584 129.162739
USER    NEWDPF quaternion0	0.660330 0.614524 0.045688 0.429229
USER    NEWDPF dihe0	-179.96 -118.04 178.38 158.84 -153.24 -38.73 150.81 -17.89 11.54 -0.93 -66.19 -168.86 156.27 
USER  
USER                              x       y       z    vdW   Elec        q     RMS 
ATOM      1  O   UNL d   1      -3.356 -11.565  10.703 -0.07 -0.09    -0.289    15.638
ATOM      2  O   UNL d   1      -7.165 -11.480  17.175 -0.02 -0.07    -0.289    15.638
ATOM      3  N   UNL d   1      -2.787  -9.228  13.175 -0.12 -0.07    -0.247    15.638
ATOM      4  N   UNL d   1      -4.924  -9.799  15.160 -0.12 -0.13    -0.247    15.638
ATOM      5  N   UNL d   1      -4.317  -7.277  16.400 -0.10 +0.02    -0.354    15.638
ATOM      6  N   UNL d   1      -2.115  -6.685  14.326 -0.13 -0.02    -0.354    15.638
ATOM      7  C   UNL d   1      -1.976  -9.556  10.886 -0.23 +0.02    +0.084    15.638
ATOM      8  C   UNL d   1      -5.810 -12.075  15.225 -0.06 +0.03    +0.084    15.638
ATOM      9  C   UNL d   1      -4.902 -11.037  14.558 -0.12 +0.02    +0.058    15.638
ATOM     10  C   UNL d   1      -1.972  -8.728  12.174 -0.20 +0.01    +0.058    15.638
ATOM     11  C   UNL d   1      -2.924 -10.624  11.343 -0.12 +0.05    +0.193    15.638
ATOM     12  C   UNL d   1      -3.324 -10.327  12.755 -0.13 +0.04    +0.109    15.638
ATOM     13  C   UNL d   1      -6.380 -11.187  16.294 -0.06 +0.07    +0.193    15.638
ATOM     14  C   UNL d   1      -2.610  -8.798   9.717 -0.41 +0.00    +0.026    15.638
ATOM     15  C   UNL d   1      -4.188 -11.301  13.452 -0.13 +0.02    +0.055    15.638
ATOM     16  C   UNL d   1      -5.002 -13.192  15.892 -0.02 +0.01    +0.026    15.638
ATOM     17  C   UNL d   1      -5.768  -9.832  16.141 -0.11 +0.06    +0.109    15.638
ATOM     18  C   UNL d   1      -1.164  -7.661  12.321 -0.27 +0.01    +0.050    15.638
ATOM     19  C   UNL d   1      -1.031  -6.887  13.502 -0.25 +0.00    +0.045    15.638
ATOM     20  C   UNL d   1      -5.469  -7.598  17.071 -0.14 -0.01    +0.045    15.638
ATOM     21  C   UNL d   1      -6.172  -8.734  17.031 -0.17 +0.02    +0.057    15.638
ATOM     22  C   UNL d   1      -4.847  -5.476  17.645 -0.18 +0.01    -0.019    15.638
ATOM     23  C   UNL d   1      -3.865  -6.016  16.683 -0.22 -0.01    +0.045    15.638
ATOM     24  C   UNL d   1      -5.793  -6.418  17.871 -0.10 +0.01    -0.022    15.638
ATOM     25  C   UNL d   1      -1.786  -5.836  15.358 -0.25 -0.00    +0.049    15.638
ATOM     26  C   UNL d   1       0.039  -6.182  14.032 -0.25 -0.00    -0.018    15.638
ATOM     27  C   UNL d   1      -0.438  -5.536  15.214 -0.25 -0.00    +0.003    15.638
ATOM     28  C   UNL d   1      -2.782  -5.353  16.250 -0.26 -0.00    +0.052    15.638
ATOM     29  C   UNL d   1      -6.980  -6.351  18.770 -0.17 -0.02    +0.046    15.638
ATOM     30  C   UNL d   1       1.422  -6.113  13.477 -0.21 -0.00    +0.046    15.638
ATOM     31  H   UNL d   1      -3.834  -7.961  15.827 +0.04 +0.02    +0.166    15.638
ATOM     32  H   UNL d   1      -3.031  -7.082  14.155 +0.06 +0.03    +0.166    15.638
ATOM     33  C   UNL d   1      -0.626 -10.167  10.493 -0.12 +0.02    +0.141    15.638
ATOM     34  C   UNL d   1      -0.077 -11.086  11.551 -0.02 +0.04    +0.306    15.638
ATOM     35  O   UNL d   1       0.770 -10.804  12.382 -0.01 -0.03    -0.251    15.638
ATOM     36  O   UNL d   1      -0.626 -12.313  11.507 +0.01 -0.08    -0.481    15.638
ATOM     37  H   UNL d   1      -1.293 -12.260  10.790 +0.04 +0.06    +0.295    15.638
ATOM     38  C   UNL d   1       0.342  -4.689  16.064 -0.22 -0.00    +0.017    15.638
ATOM     39  C   UNL d   1       1.129  -3.686  15.646 -0.19 -0.01    +0.092    15.638
ATOM     40  C   UNL d   1       1.865  -2.879  16.623 -0.14 -0.05    +0.330    15.638
ATOM     41  O   UNL d   1       1.470  -2.471  17.699 -0.17 +0.03    -0.246    15.638
ATOM     42  O   UNL d   1       3.106  -2.631  16.176 -0.08 +0.10    -0.477    15.638
ATOM     43  H   UNL d   1       2.961  -2.120  15.353 -0.49 -0.17    +0.295    15.638
ATOM     44  C   UNL d   1      -6.921 -12.648  14.338 -0.15 +0.06    +0.141    15.638
ATOM     45  C   UNL d   1      -7.736 -11.588  13.647 -0.23 +0.22    +0.306    15.638
ATOM     46  O   UNL d   1      -7.694 -11.296  12.464 -0.89 -0.23    -0.251    15.638
ATOM     47  O   UNL d   1      -8.546 -10.928  14.494 -0.29 -0.37    -0.481    15.638
ATOM     48  H   UNL d   1      -8.406 -11.364  15.361 +0.10 +0.15    +0.295    15.638
ATOM     49  C   UNL d   1      -4.778  -4.099  18.236 -0.23 -0.01    +0.048    15.638
ATOM     50  C   UNL d   1      -5.145  -3.023  17.215 -0.39 -0.04    +0.125    15.638
ATOM     51  C   UNL d   1      -6.413  -2.319  17.609 -0.26 -0.09    +0.305    15.638
ATOM     52  O   UNL d   1      -7.308  -2.743  18.320 -0.23 +0.08    -0.251    15.638
ATOM     53  O   UNL d   1      -6.498  -1.089  17.065 -0.20 +0.13    -0.481    15.638
ATOM     54  H   UNL d   1      -5.569  -0.858  16.854 -0.28 -0.16    +0.295    15.638
TER
ENDMDL
MODEL       63
USER    Run = 63
USER    Cluster Rank = 15
USER    Number of conformations in this cluster = 4
USER  
USER    RMSD from reference structure       = 16.781 A
USER  
USER    Estimated Free Energy of Binding    =   -5.64 kcal/mol  [=(1)+(2)+(3)-(4)]
USER    Estimated Inhibition Constant, Ki   =   73.53 uM (micromolar)  [Temperature = 298.15 K]
USER    
USER    (1) Final Intermolecular Energy     =   -9.52 kcal/mol
USER        vdW + Hbond + desolv Energy     =   -9.20 kcal/mol
USER        Electrostatic Energy            =   -0.31 kcal/mol
USER    (2) Final Total Internal Energy     =   -1.56 kcal/mol
USER    (3) Torsional Free Energy           =   +3.88 kcal/mol
USER    (4) Unbound System's Energy  [=(2)] =   -1.56 kcal/mol
USER    
USER    
USER  
USER    DPF = D:/Protein_go_brrr/autodock/final/AncB/heme/dock.dpf
USER    NEWDPF move	heme_opt.pdbqt
USER    NEWDPF about	0.153000 0.018000 -0.028000
USER    NEWDPF tran0	16.461388 1.942520 -11.258748
USER    NEWDPF axisangle0	0.866444 -0.033299 0.498162 -170.533638
USER    NEWDPF quaternion0	0.863490 -0.033185 0.496463 -0.082516
USER    NEWDPF dihe0	-32.92 71.30 -123.54 -151.60 28.63 8.09 125.46 17.52 -133.20 -38.13 -97.37 -81.74 -76.07 
USER  
USER                              x       y       z    vdW   Elec        q     RMS 
ATOM      1  O   UNL d   1      13.946   0.028 -16.235 -0.05 -0.10    -0.289    16.781
ATOM      2  O   UNL d   1      14.450   6.923 -13.303 -0.55 -0.11    -0.289    16.781
ATOM      3  N   UNL d   1      15.420   0.657 -13.181 -0.12 -0.07    -0.247    16.781
ATOM      4  N   UNL d   1      15.418   3.624 -13.019 -0.08 -0.10    -0.247    16.781
ATOM      5  N   UNL d   1      17.250   3.412 -10.813 -0.07 -0.28    -0.354    16.781
ATOM      6  N   UNL d   1      17.261   0.335 -11.001 -0.04 -0.13    -0.354    16.781
ATOM      7  C   UNL d   1      15.185  -1.318 -14.614 -0.14 +0.02    +0.084    16.781
ATOM      8  C   UNL d   1      13.701   4.811 -14.288 -0.33 +0.02    +0.084    16.781
ATOM      9  C   UNL d   1      14.391   3.492 -13.927 -0.23 +0.02    +0.058    16.781
ATOM     10  C   UNL d   1      15.717  -0.689 -13.323 -0.16 +0.02    +0.058    16.781
ATOM     11  C   UNL d   1      14.518  -0.094 -15.168 -0.14 +0.05    +0.193    16.781
ATOM     12  C   UNL d   1      14.709   1.028 -14.196 -0.20 +0.03    +0.109    16.781
ATOM     13  C   UNL d   1      14.551   5.721 -13.446 -0.26 +0.06    +0.193    16.781
ATOM     14  C   UNL d   1      16.315  -1.736 -15.558 -0.05 +0.01    +0.026    16.781
ATOM     15  C   UNL d   1      14.055   2.320 -14.487 -0.29 +0.02    +0.055    16.781
ATOM     16  C   UNL d   1      12.262   4.861 -13.767 -0.56 +0.00    +0.026    16.781
ATOM     17  C   UNL d   1      15.558   4.878 -12.733 -0.22 +0.05    +0.109    16.781
ATOM     18  C   UNL d   1      16.337  -1.428 -12.384 -0.17 +0.02    +0.050    16.781
ATOM     19  C   UNL d   1      16.787  -0.951 -11.127 -0.19 +0.01    +0.045    16.781
ATOM     20  C   UNL d   1      17.304   4.763 -11.035 -0.23 +0.04    +0.045    16.781
ATOM     21  C   UNL d   1      16.562   5.507 -11.862 -0.33 +0.04    +0.057    16.781
ATOM     22  C   UNL d   1      18.879   4.208  -9.477 -0.10 -0.02    -0.019    16.781
ATOM     23  C   UNL d   1      18.164   2.983  -9.888 -0.14 +0.04    +0.045    16.781
ATOM     24  C   UNL d   1      18.364   5.259 -10.158 -0.19 -0.02    -0.022    16.781
ATOM     25  C   UNL d   1      17.726   0.556  -9.725 -0.19 +0.02    +0.049    16.781
ATOM     26  C   UNL d   1      16.913  -1.570  -9.893 -0.28 -0.01    -0.018    16.781
ATOM     27  C   UNL d   1      17.488  -0.608  -9.006 -0.29 +0.00    +0.003    16.781
ATOM     28  C   UNL d   1      18.407   1.759  -9.395 -0.18 +0.03    +0.052    16.781
ATOM     29  C   UNL d   1      18.745   6.698 -10.080 -0.11 +0.04    +0.046    16.781
ATOM     30  C   UNL d   1      16.522  -2.969  -9.554 -0.33 +0.02    +0.046    16.781
ATOM     31  H   UNL d   1      16.538   2.835 -11.248 +0.06 +0.10    +0.166    16.781
ATOM     32  H   UNL d   1      17.293   0.998 -11.766 +0.05 +0.06    +0.166    16.781
ATOM     33  C   UNL d   1      14.165  -2.446 -14.423 -0.12 +0.04    +0.141    16.781
ATOM     34  C   UNL d   1      14.816  -3.787 -14.217 -0.08 +0.10    +0.306    16.781
ATOM     35  O   UNL d   1      15.249  -4.222 -13.164 -0.13 -0.10    -0.251    16.781
ATOM     36  O   UNL d   1      14.885  -4.509 -15.349 -0.01 -0.12    -0.481    16.781
ATOM     37  H   UNL d   1      15.735  -4.993 -15.281 +0.03 +0.07    +0.295    16.781
ATOM     38  C   UNL d   1      17.804  -0.840  -7.629 -0.30 +0.01    +0.017    16.781
ATOM     39  C   UNL d   1      18.946  -0.477  -7.025 -0.26 +0.03    +0.092    16.781
ATOM     40  C   UNL d   1      19.139  -0.759  -5.600 -0.18 +0.11    +0.330    16.781
ATOM     41  O   UNL d   1      18.411  -1.395  -4.862 -0.35 -0.09    -0.246    16.781
ATOM     42  O   UNL d   1      20.285  -0.208  -5.172 -0.05 -0.13    -0.477    16.781
ATOM     43  H   UNL d   1      20.874  -0.977  -5.025 +0.06 +0.06    +0.295    16.781
ATOM     44  C   UNL d   1      13.770   5.209 -15.766 -0.27 +0.02    +0.141    16.781
ATOM     45  C   UNL d   1      15.003   6.001 -16.112 -0.09 +0.05    +0.306    16.781
ATOM     46  O   UNL d   1      16.114   5.554 -16.338 -0.03 -0.05    -0.251    16.781
ATOM     47  O   UNL d   1      14.775   7.327 -16.129 -0.09 -0.07    -0.481    16.781
ATOM     48  H   UNL d   1      14.407   7.526 -15.242 -0.17 +0.01    +0.295    16.781
ATOM     49  C   UNL d   1      19.998   4.235  -8.477 -0.11 +0.04    +0.048    16.781
ATOM     50  C   UNL d   1      20.199   5.630  -7.887 -0.12 +0.08    +0.125    16.781
ATOM     51  C   UNL d   1      19.247   5.875  -6.751 -0.10 +0.31    +0.305    16.781
ATOM     52  O   UNL d   1      18.540   5.059  -6.185 -0.29 -0.36    -0.251    16.781
ATOM     53  O   UNL d   1      19.224   7.171  -6.382 -0.06 -0.26    -0.481    16.781
ATOM     54  H   UNL d   1      19.460   7.656  -7.201 -0.37 +0.08    +0.295    16.781
TER
ENDMDL
MODEL       91
USER    Run = 91
USER    Cluster Rank = 16
USER    Number of conformations in this cluster = 1
USER  
USER    RMSD from reference structure       = 17.319 A
USER  
USER    Estimated Free Energy of Binding    =   -5.63 kcal/mol  [=(1)+(2)+(3)-(4)]
USER    Estimated Inhibition Constant, Ki   =   74.75 uM (micromolar)  [Temperature = 298.15 K]
USER    
USER    (1) Final Intermolecular Energy     =   -9.51 kcal/mol
USER        vdW + Hbond + desolv Energy     =   -8.92 kcal/mol
USER        Electrostatic Energy            =   -0.59 kcal/mol
USER    (2) Final Total Internal Energy     =   -3.78 kcal/mol
USER    (3) Torsional Free Energy           =   +3.88 kcal/mol
USER    (4) Unbound System's Energy  [=(2)] =   -3.78 kcal/mol
USER    
USER    
USER  
USER    DPF = D:/Protein_go_brrr/autodock/final/AncB/heme/dock.dpf
USER    NEWDPF move	heme_opt.pdbqt
USER    NEWDPF about	0.153000 0.018000 -0.028000
USER    NEWDPF tran0	-1.057237 16.898978 10.406262
USER    NEWDPF axisangle0	-0.433867 -0.758957 0.485535 122.864208
USER    NEWDPF quaternion0	-0.381044 -0.666555 0.426421 0.478200
USER    NEWDPF dihe0	118.26 124.26 170.68 8.16 -132.14 70.03 122.14 -2.74 27.02 108.63 -56.16 -91.76 11.22 
USER  
USER                              x       y       z    vdW   Elec        q     RMS 
ATOM      1  O   UNL d   1       2.108  16.317  15.346 -0.12 +0.02    -0.289    17.319
ATOM      2  O   UNL d   1      -5.318  16.430  14.235 -0.08 +0.18    -0.289    17.319
ATOM      3  N   UNL d   1       0.690  16.824  12.243 -0.14 +0.09    -0.247    17.319
ATOM      4  N   UNL d   1      -2.209  16.403  12.739 -0.15 +0.10    -0.247    17.319
ATOM      5  N   UNL d   1      -2.583  16.279   9.891 -0.03 +0.14    -0.354    17.319
ATOM      6  N   UNL d   1       0.429  16.696   9.386 -0.12 +0.15    -0.354    17.319
ATOM      7  C   UNL d   1       2.977  16.517  13.070 -0.14 -0.02    +0.084    17.319
ATOM      8  C   UNL d   1      -3.027  16.815  15.004 -0.13 -0.05    +0.084    17.319
ATOM      9  C   UNL d   1      -1.847  16.709  14.032 -0.18 -0.02    +0.058    17.319
ATOM     10  C   UNL d   1       2.027  16.741  11.890 -0.20 -0.02    +0.058    17.319
ATOM     11  C   UNL d   1       1.942  16.508  14.155 -0.12 -0.03    +0.193    17.319
ATOM     12  C   UNL d   1       0.600  16.730  13.529 -0.18 -0.03    +0.109    17.319
ATOM     13  C   UNL d   1      -4.121  16.475  14.032 -0.09 -0.11    +0.193    17.319
ATOM     14  C   UNL d   1       3.649  15.143  13.015 -0.22 -0.01    +0.026    17.319
ATOM     15  C   UNL d   1      -0.571  16.852  14.421 -0.20 -0.02    +0.055    17.319
ATOM     16  C   UNL d   1      -3.232  18.251  15.494 -0.05 -0.01    +0.026    17.319
ATOM     17  C   UNL d   1      -3.492  16.241  12.697 -0.18 -0.04    +0.109    17.319
ATOM     18  C   UNL d   1       2.491  16.927  10.640 -0.17 -0.02    +0.050    17.319
ATOM     19  C   UNL d   1       1.695  17.223   9.503 -0.19 -0.02    +0.045    17.319
ATOM     20  C   UNL d   1      -3.823  15.871  10.309 -0.23 -0.01    +0.045    17.319
ATOM     21  C   UNL d   1      -4.322  15.845  11.549 -0.24 -0.01    +0.057    17.319
ATOM     22  C   UNL d   1      -3.694  15.630   8.042 -0.28 +0.00    -0.019    17.319
ATOM     23  C   UNL d   1      -2.411  16.169   8.537 -0.23 -0.01    +0.045    17.319
ATOM     24  C   UNL d   1      -4.526  15.457   9.096 -0.28 +0.00    -0.022    17.319
ATOM     25  C   UNL d   1      -0.125  17.035   8.173 -0.22 -0.02    +0.049    17.319
ATOM     26  C   UNL d   1       1.958  17.952   8.354 -0.10 +0.01    -0.018    17.319
ATOM     27  C   UNL d   1       0.797  17.847   7.526 -0.14 -0.00    +0.003    17.319
ATOM     28  C   UNL d   1      -1.365  16.479   7.756 -0.17 -0.02    +0.052    17.319
ATOM     29  C   UNL d   1      -5.928  14.950   9.104 -0.35 -0.00    +0.046    17.319
ATOM     30  C   UNL d   1       3.207  18.704   8.043 -0.04 -0.01    +0.046    17.319
ATOM     31  H   UNL d   1      -1.918  16.689  10.537 -0.25 -0.08    +0.166    17.319
ATOM     32  H   UNL d   1      -0.001  16.109  10.090 -0.45 -0.13    +0.166    17.319
ATOM     33  C   UNL d   1       3.999  17.634  13.311 -0.03 -0.02    +0.141    17.319
ATOM     34  C   UNL d   1       3.383  18.859  13.931 +0.00 -0.03    +0.306    17.319
ATOM     35  O   UNL d   1       2.726  19.706  13.351 -0.00 +0.02    -0.251    17.319
ATOM     36  O   UNL d   1       3.627  18.950  15.250 +0.01 +0.03    -0.481    17.319
ATOM     37  H   UNL d   1       3.170  18.174  15.640 +0.03 -0.02    +0.295    17.319
ATOM     38  C   UNL d   1       0.650  18.442   6.232 -0.10 -0.01    +0.017    17.319
ATOM     39  C   UNL d   1       0.331  17.783   5.108 -0.17 -0.08    +0.092    17.319
ATOM     40  C   UNL d   1       0.194  18.515   3.846 +0.01 -0.46    +0.330    17.319
ATOM     41  O   UNL d   1       1.070  19.065   3.207 -0.06 +0.33    -0.246    17.319
ATOM     42  O   UNL d   1      -1.086  18.504   3.443 -0.04 +0.78    -0.477    17.319
ATOM     43  H   UNL d   1      -1.312  17.552   3.404 -0.42 -0.75    +0.295    17.319
ATOM     44  C   UNL d   1      -3.007  15.827  16.175 +0.00 -0.16    +0.141    17.319
ATOM     45  C   UNL d   1      -1.781  15.953  17.039 -0.22 -0.18    +0.306    17.319
ATOM     46  O   UNL d   1      -1.573  16.805  17.885 -0.09 +0.09    -0.251    17.319
ATOM     47  O   UNL d   1      -0.862  15.008  16.770 -0.45 +0.16    -0.481    17.319
ATOM     48  H   UNL d   1      -1.322  14.377  16.177 -0.42 -0.20    +0.295    17.319
ATOM     49  C   UNL d   1      -3.979  15.323   6.601 -0.33 -0.01    +0.048    17.319
ATOM     50  C   UNL d   1      -4.150  16.596   5.771 -0.16 -0.05    +0.125    17.319
ATOM     51  C   UNL d   1      -3.206  16.606   4.603 -0.13 -0.26    +0.305    17.319
ATOM     52  O   UNL d   1      -2.291  15.832   4.380 -0.20 +0.31    -0.251    17.319
ATOM     53  O   UNL d   1      -3.460  17.625   3.758 -0.04 +0.50    -0.481    17.319
ATOM     54  H   UNL d   1      -2.875  17.450   2.991 -0.45 -0.60    +0.295    17.319
TER
ENDMDL
MODEL        6
USER    Run = 6
USER    Cluster Rank = 17
USER    Number of conformations in this cluster = 1
USER  
USER    RMSD from reference structure       = 16.231 A
USER  
USER    Estimated Free Energy of Binding    =   -5.58 kcal/mol  [=(1)+(2)+(3)-(4)]
USER    Estimated Inhibition Constant, Ki   =   81.14 uM (micromolar)  [Temperature = 298.15 K]
USER    
USER    (1) Final Intermolecular Energy     =   -9.46 kcal/mol
USER        vdW + Hbond + desolv Energy     =   -8.40 kcal/mol
USER        Electrostatic Energy            =   -1.06 kcal/mol
USER    (2) Final Total Internal Energy     =   -2.62 kcal/mol
USER    (3) Torsional Free Energy           =   +3.88 kcal/mol
USER    (4) Unbound System's Energy  [=(2)] =   -2.62 kcal/mol
USER    
USER    
USER  
USER    DPF = D:/Protein_go_brrr/autodock/final/AncB/heme/dock.dpf
USER    NEWDPF move	heme_opt.pdbqt
USER    NEWDPF about	0.153000 0.018000 -0.028000
USER    NEWDPF tran0	2.228392 -2.758369 -17.457653
USER    NEWDPF axisangle0	0.864205 0.034686 -0.501943 -31.180695
USER    NEWDPF quaternion0	0.232262 0.009322 -0.134901 -0.963208
USER    NEWDPF dihe0	180.00 -108.19 -139.27 -129.05 57.34 -76.77 129.54 -36.59 145.64 -37.05 75.41 -93.15 142.89 
USER  
USER                              x       y       z    vdW   Elec        q     RMS 
ATOM      1  O   UNL d   1      -2.760  -0.171 -15.676 -0.51 -0.50    -0.289    16.231
ATOM      2  O   UNL d   1      -1.541  -5.516 -20.808 -0.03 -0.16    -0.289    16.231
ATOM      3  N   UNL d   1       0.398  -1.294 -16.489 -0.05 -0.17    -0.247    16.231
ATOM      4  N   UNL d   1      -0.138  -3.561 -18.334 -0.05 -0.14    -0.247    16.231
ATOM      5  N   UNL d   1       2.611  -4.345 -18.021 -0.07 -0.09    -0.354    16.231
ATOM      6  N   UNL d   1       3.153  -2.002 -16.092 -0.02 -0.12    -0.354    16.231
ATOM      7  C   UNL d   1      -0.513   0.237 -14.806 -0.11 +0.08    +0.084    16.231
ATOM      8  C   UNL d   1      -2.236  -3.512 -19.586 -0.03 +0.05    +0.084    16.231
ATOM      9  C   UNL d   1      -1.331  -2.898 -18.512 -0.06 +0.04    +0.058    16.231
ATOM     10  C   UNL d   1       0.702  -0.460 -15.426 -0.10 +0.04    +0.058    16.231
ATOM     11  C   UNL d   1      -1.555  -0.336 -15.718 -0.04 +0.26    +0.193    16.231
ATOM     12  C   UNL d   1      -0.875  -1.228 -16.710 -0.08 +0.10    +0.109    16.231
ATOM     13  C   UNL d   1      -1.351  -4.668 -19.958 -0.04 +0.11    +0.193    16.231
ATOM     14  C   UNL d   1      -0.785  -0.245 -13.378 -0.24 +0.03    +0.026    16.231
ATOM     15  C   UNL d   1      -1.696  -1.837 -17.776 -0.08 +0.05    +0.055    16.231
ATOM     16  C   UNL d   1      -2.380  -2.591 -20.802 -0.00 +0.01    +0.026    16.231
ATOM     17  C   UNL d   1      -0.115  -4.588 -19.122 -0.09 +0.05    +0.109    16.231
ATOM     18  C   UNL d   1       1.954  -0.194 -15.010 -0.17 +0.02    +0.050    16.231
ATOM     19  C   UNL d   1       3.140  -0.725 -15.579 -0.15 +0.02    +0.045    16.231
ATOM     20  C   UNL d   1       2.128  -5.440 -18.690 -0.19 +0.01    +0.045    16.231
ATOM     21  C   UNL d   1       0.923  -5.622 -19.239 -0.18 +0.02    +0.057    16.231
ATOM     22  C   UNL d   1       4.278  -5.859 -18.041 -0.08 +0.00    -0.019    16.231
ATOM     23  C   UNL d   1       3.901  -4.504 -17.591 -0.17 +0.01    +0.045    16.231
ATOM     24  C   UNL d   1       3.225  -6.407 -18.692 -0.08 -0.00    -0.022    16.231
ATOM     25  C   UNL d   1       4.419  -2.344 -16.506 -0.13 +0.01    +0.049    16.231
ATOM     26  C   UNL d   1       4.422  -0.210 -15.696 -0.24 -0.00    -0.018    16.231
ATOM     27  C   UNL d   1       5.221  -1.230 -16.300 -0.20 +0.00    +0.003    16.231
ATOM     28  C   UNL d   1       4.716  -3.668 -16.929 -0.18 +0.01    +0.052    16.231
ATOM     29  C   UNL d   1       3.122  -7.747 -19.337 -0.16 +0.00    +0.046    16.231
ATOM     30  C   UNL d   1       4.879   1.145 -15.275 -0.45 +0.01    +0.046    16.231
ATOM     31  H   UNL d   1       2.066  -3.492 -17.945 +0.03 +0.06    +0.166    16.231
ATOM     32  H   UNL d   1       2.339  -2.605 -16.115 +0.05 +0.07    +0.166    16.231
ATOM     33  C   UNL d   1      -0.506   1.767 -14.891 -0.12 +0.14    +0.141    16.231
ATOM     34  C   UNL d   1      -1.540   2.401 -14.001 -0.08 +0.48    +0.306    16.231
ATOM     35  O   UNL d   1      -1.321   3.068 -13.004 -0.47 -0.40    -0.251    16.231
ATOM     36  O   UNL d   1      -2.797   2.164 -14.416 -0.38 -1.02    -0.481    16.231
ATOM     37  H   UNL d   1      -2.691   1.653 -15.246 +0.05 +0.46    +0.295    16.231
ATOM     38  C   UNL d   1       6.619  -1.119 -16.589 -0.31 +0.00    +0.017    16.231
ATOM     39  C   UNL d   1       7.570  -1.956 -16.146 -0.31 +0.01    +0.092    16.231
ATOM     40  C   UNL d   1       8.967  -1.742 -16.530 -0.01 +0.04    +0.330    16.231
ATOM     41  O   UNL d   1       9.501  -2.029 -17.584 -0.13 -0.07    -0.246    16.231
ATOM     42  O   UNL d   1       9.635  -1.148 -15.529 -0.40 -0.01    -0.477    16.231
ATOM     43  H   UNL d   1       9.720  -1.852 -14.853 -0.44 -0.10    +0.295    16.231
ATOM     44  C   UNL d   1      -3.603  -4.002 -19.097 -0.05 +0.11    +0.141    16.231
ATOM     45  C   UNL d   1      -3.576  -5.414 -18.575 -0.10 +0.36    +0.306    16.231
ATOM     46  O   UNL d   1      -3.286  -5.765 -17.445 -0.19 -0.34    -0.251    16.231
ATOM     47  O   UNL d   1      -3.891  -6.318 -19.520 -0.37 -0.79    -0.481    16.231
ATOM     48  H   UNL d   1      -3.447  -5.993 -20.332 +0.03 +0.31    +0.295    16.231
ATOM     49  C   UNL d   1       5.614  -6.491 -17.783 -0.20 -0.00    +0.048    16.231
ATOM     50  C   UNL d   1       5.911  -6.602 -16.288 -0.28 -0.01    +0.125    16.231
ATOM     51  C   UNL d   1       6.897  -5.552 -15.857 -0.18 +0.02    +0.305    16.231
ATOM     52  O   UNL d   1       7.909  -5.201 -16.437 -0.08 -0.03    -0.251    16.231
ATOM     53  O   UNL d   1       6.554  -4.992 -14.680 -0.15 -0.01    -0.481    16.231
ATOM     54  H   UNL d   1       6.393  -5.758 -14.090 -0.32 -0.11    +0.295    16.231
TER
ENDMDL
MODEL       20
USER    Run = 20
USER    Cluster Rank = 18
USER    Number of conformations in this cluster = 1
USER  
USER    RMSD from reference structure       = 17.543 A
USER  
USER    Estimated Free Energy of Binding    =   -5.51 kcal/mol  [=(1)+(2)+(3)-(4)]
USER    Estimated Inhibition Constant, Ki   =   91.36 uM (micromolar)  [Temperature = 298.15 K]
USER    
USER    (1) Final Intermolecular Energy     =   -9.39 kcal/mol
USER        vdW + Hbond + desolv Energy     =   -8.93 kcal/mol
USER        Electrostatic Energy            =   -0.46 kcal/mol
USER    (2) Final Total Internal Energy     =   -3.50 kcal/mol
USER    (3) Torsional Free Energy           =   +3.88 kcal/mol
USER    (4) Unbound System's Energy  [=(2)] =   -3.50 kcal/mol
USER    
USER    
USER  
USER    DPF = D:/Protein_go_brrr/autodock/final/AncB/heme/dock.dpf
USER    NEWDPF move	heme_opt.pdbqt
USER    NEWDPF about	0.153000 0.018000 -0.028000
USER    NEWDPF tran0	-2.069853 16.638245 11.651497
USER    NEWDPF axisangle0	0.526544 -0.572896 0.628125 -129.029868
USER    NEWDPF quaternion0	0.475310 -0.517152 0.567007 -0.430276
USER    NEWDPF dihe0	137.54 171.85 180.00 -20.54 -138.68 133.59 142.48 42.28 13.80 -20.25 -52.65 179.99 25.30 
USER  
USER                              x       y       z    vdW   Elec        q     RMS 
ATOM      1  O   UNL d   1      -2.665  15.854   5.839 -0.59 +0.10    -0.289    17.543
ATOM      2  O   UNL d   1       3.001  18.679   9.876 -0.02 +0.06    -0.289    17.543
ATOM      3  N   UNL d   1      -2.824  16.247   9.262 -0.14 +0.08    -0.247    17.543
ATOM      4  N   UNL d   1      -0.076  17.121   9.977 -0.10 +0.10    -0.247    17.543
ATOM      5  N   UNL d   1      -0.721  16.585  12.727 -0.10 +0.14    -0.354    17.543
ATOM      6  N   UNL d   1      -3.564  15.662  11.974 -0.14 +0.12    -0.354    17.543
ATOM      7  C   UNL d   1      -4.276  15.230   7.569 -0.28 -0.02    +0.084    17.543
ATOM      8  C   UNL d   1       1.217  18.269   8.251 -0.07 -0.03    +0.084    17.543
ATOM      9  C   UNL d   1      -0.051  17.511   8.657 -0.17 -0.02    +0.058    17.543
ATOM     10  C   UNL d   1      -4.012  15.570   9.038 -0.26 -0.01    +0.058    17.543
ATOM     11  C   UNL d   1      -3.036  15.851   6.998 -0.10 -0.04    +0.193    17.543
ATOM     12  C   UNL d   1      -2.252  16.456   8.121 -0.20 -0.03    +0.109    17.543
ATOM     13  C   UNL d   1       1.924  18.204   9.576 -0.05 -0.05    +0.193    17.543
ATOM     14  C   UNL d   1      -4.238  13.722   7.312 -0.59 -0.01    +0.026    17.543
ATOM     15  C   UNL d   1      -1.027  17.211   7.786 -0.21 -0.02    +0.055    17.543
ATOM     16  C   UNL d   1       0.921  19.736   7.922 -0.02 -0.01    +0.026    17.543
ATOM     17  C   UNL d   1       1.038  17.476  10.534 -0.14 -0.04    +0.109    17.543
ATOM     18  C   UNL d   1      -4.919  15.302   9.996 -0.30 -0.01    +0.050    17.543
ATOM     19  C   UNL d   1      -4.798  15.654  11.365 -0.22 -0.01    +0.045    17.543
ATOM     20  C   UNL d   1       0.629  16.796  12.839 -0.21 -0.01    +0.045    17.543
ATOM     21  C   UNL d   1       1.490  17.221  11.909 -0.18 -0.02    +0.057    17.543
ATOM     22  C   UNL d   1      -0.174  16.073  14.852 -0.25 +0.01    -0.019    17.543
ATOM     23  C   UNL d   1      -1.294  16.147  13.891 -0.24 -0.02    +0.045    17.543
ATOM     24  C   UNL d   1       0.961  16.460  14.223 -0.21 +0.00    -0.022    17.543
ATOM     25  C   UNL d   1      -3.689  15.941  13.315 -0.24 -0.02    +0.049    17.543
ATOM     26  C   UNL d   1      -5.745  15.972  12.326 -0.16 +0.00    -0.018    17.543
ATOM     27  C   UNL d   1      -5.037  16.171  13.551 -0.15 -0.00    +0.003    17.543
ATOM     28  C   UNL d   1      -2.569  15.851  14.186 -0.31 -0.03    +0.052    17.543
ATOM     29  C   UNL d   1       2.342  16.565  14.773 -0.15 -0.00    +0.046    17.543
ATOM     30  C   UNL d   1      -7.218  16.086  12.121 -0.16 +0.01    +0.046    17.543
ATOM     31  H   UNL d   1      -1.222  16.819  11.877 -0.12 -0.08    +0.166    17.543
ATOM     32  H   UNL d   1      -2.699  15.448  11.492 -0.38 -0.09    +0.166    17.543
ATOM     33  C   UNL d   1      -5.528  15.873   6.961 -0.18 -0.04    +0.141    17.543
ATOM     34  C   UNL d   1      -5.469  17.376   6.968 -0.03 -0.07    +0.306    17.543
ATOM     35  O   UNL d   1      -5.779  18.104   7.896 -0.02 +0.04    -0.251    17.543
ATOM     36  O   UNL d   1      -5.020  17.883   5.806 +0.02 +0.15    -0.481    17.543
ATOM     37  H   UNL d   1      -4.244  17.329   5.579 +0.09 -0.12    +0.295    17.543
ATOM     38  C   UNL d   1      -5.639  16.503  14.807 +0.01 -0.01    +0.017    17.543
ATOM     39  C   UNL d   1      -6.819  16.039  15.248 +0.06 -0.06    +0.092    17.543
ATOM     40  C   UNL d   1      -7.317  16.444  16.565 -0.03 -0.17    +0.330    17.543
ATOM     41  O   UNL d   1      -8.425  16.857  16.846 -0.02 +0.04    -0.246    17.543
ATOM     42  O   UNL d   1      -6.356  16.289  17.489 -0.05 +0.46    -0.477    17.543
ATOM     43  H   UNL d   1      -5.643  15.819  17.010 -0.51 -0.59    +0.295    17.543
ATOM     44  C   UNL d   1       2.055  17.613   7.149 -0.12 -0.06    +0.141    17.543
ATOM     45  C   UNL d   1       2.744  16.352   7.598 -0.19 -0.14    +0.306    17.543
ATOM     46  O   UNL d   1       2.364  15.209   7.410 -0.31 +0.14    -0.251    17.543
ATOM     47  O   UNL d   1       3.870  16.599   8.291 -0.05 +0.16    -0.481    17.543
ATOM     48  H   UNL d   1       3.945  17.577   8.302 +0.06 -0.08    +0.295    17.543
ATOM     49  C   UNL d   1      -0.314  15.622  16.276 -0.26 -0.01    +0.048    17.543
ATOM     50  C   UNL d   1      -1.315  16.480  17.049 -0.20 -0.05    +0.125    17.543
ATOM     51  C   UNL d   1      -2.340  15.622  17.735 -0.14 -0.27    +0.305    17.543
ATOM     52  O   UNL d   1      -2.171  14.530  18.249 -0.22 +0.29    -0.251    17.543
ATOM     53  O   UNL d   1      -3.561  16.192  17.729 -0.06 +0.55    -0.481    17.543
ATOM     54  H   UNL d   1      -4.175  15.441  17.871 -0.33 -0.68    +0.295    17.543
TER
ENDMDL
MODEL       62
USER    Run = 62
USER    Cluster Rank = 19
USER    Number of conformations in this cluster = 1
USER  
USER    RMSD from reference structure       = 17.438 A
USER  
USER    Estimated Free Energy of Binding    =   -5.40 kcal/mol  [=(1)+(2)+(3)-(4)]
USER    Estimated Inhibition Constant, Ki   =  110.59 uM (micromolar)  [Temperature = 298.15 K]
USER    
USER    (1) Final Intermolecular Energy     =   -9.28 kcal/mol
USER        vdW + Hbond + desolv Energy     =   -8.75 kcal/mol
USER        Electrostatic Energy            =   -0.52 kcal/mol
USER    (2) Final Total Internal Energy     =   -3.78 kcal/mol
USER    (3) Torsional Free Energy           =   +3.88 kcal/mol
USER    (4) Unbound System's Energy  [=(2)] =   -3.78 kcal/mol
USER    
USER    
USER  
USER    DPF = D:/Protein_go_brrr/autodock/final/AncB/heme/dock.dpf
USER    NEWDPF move	heme_opt.pdbqt
USER    NEWDPF about	0.153000 0.018000 -0.028000
USER    NEWDPF tran0	-1.050662 16.766191 11.329661
USER    NEWDPF axisangle0	-0.722009 0.490282 -0.488187 111.631464
USER    NEWDPF quaternion0	-0.597271 0.405578 -0.403845 0.561856
USER    NEWDPF dihe0	-83.65 167.65 -72.98 53.85 58.80 65.28 -25.37 75.82 139.95 146.78 -72.65 -103.65 5.38 
USER  
USER                              x       y       z    vdW   Elec        q     RMS 
ATOM      1  O   UNL d   1      -4.553  16.224   6.618 -0.10 +0.09    -0.289    17.438
ATOM      2  O   UNL d   1       2.538  18.617   7.239 -0.01 +0.09    -0.289    17.438
ATOM      3  N   UNL d   1      -2.933  16.500   9.651 -0.11 +0.08    -0.247    17.438
ATOM      4  N   UNL d   1      -0.153  17.210   8.878 -0.14 +0.09    -0.247    17.438
ATOM      5  N   UNL d   1       0.651  16.607  11.572 -0.04 +0.16    -0.354    17.438
ATOM      6  N   UNL d   1      -2.232  15.854  12.360 -0.07 +0.18    -0.354    17.438
ATOM      7  C   UNL d   1      -5.101  15.619   8.922 -0.21 -0.01    +0.084    17.438
ATOM      8  C   UNL d   1       0.155  18.355   6.742 -0.08 -0.04    +0.084    17.438
ATOM      9  C   UNL d   1      -0.776  17.646   7.730 -0.14 -0.02    +0.058    17.438
ATOM     10  C   UNL d   1      -4.109  15.892  10.057 -0.22 -0.01    +0.058    17.438
ATOM     11  C   UNL d   1      -4.285  16.198   7.806 -0.11 -0.04    +0.193    17.438
ATOM     12  C   UNL d   1      -3.005  16.722   8.379 -0.15 -0.03    +0.109    17.438
ATOM     13  C   UNL d   1       1.430  18.207   7.524 -0.05 -0.07    +0.193    17.438
ATOM     14  C   UNL d   1      -5.290  14.121   8.672 -0.30 -0.00    +0.026    17.438
ATOM     15  C   UNL d   1      -2.075  17.426   7.474 -0.15 -0.02    +0.055    17.438
ATOM     16  C   UNL d   1      -0.176  19.845   6.618 -0.02 -0.01    +0.026    17.438
ATOM     17  C   UNL d   1       1.108  17.489   8.795 -0.15 -0.04    +0.109    17.438
ATOM     18  C   UNL d   1      -4.421  15.633  11.341 -0.27 -0.01    +0.050    17.438
ATOM     19  C   UNL d   1      -3.603  15.929  12.461 -0.24 -0.02    +0.045    17.438
ATOM     20  C   UNL d   1       1.882  16.747  10.985 -0.19 -0.02    +0.045    17.438
ATOM     21  C   UNL d   1       2.178  17.162   9.749 -0.20 -0.02    +0.057    17.438
ATOM     22  C   UNL d   1       2.165  15.992  13.122 -0.26 +0.00    -0.019    17.438
ATOM     23  C   UNL d   1       0.721  16.156  12.863 -0.27 -0.02    +0.045    17.438
ATOM     24  C   UNL d   1       2.847  16.345  12.007 -0.15 +0.01    -0.022    17.438
ATOM     25  C   UNL d   1      -1.644  16.090  13.581 -0.25 -0.02    +0.049    17.438
ATOM     26  C   UNL d   1      -3.912  16.259  13.772 -0.19 +0.01    -0.018    17.438
ATOM     27  C   UNL d   1      -2.670  16.378  14.469 -0.22 -0.00    +0.003    17.438
ATOM     28  C   UNL d   1      -0.245  15.913  13.762 -0.27 -0.02    +0.052    17.438
ATOM     29  C   UNL d   1       4.321  16.361  11.780 -0.13 -0.01    +0.046    17.438
ATOM     30  C   UNL d   1      -5.276  16.453  14.343 -0.08 -0.03    +0.046    17.438
ATOM     31  H   UNL d   1      -0.196  16.896  11.094 -0.22 -0.08    +0.166    17.438
ATOM     32  H   UNL d   1      -1.746  15.615  11.504 -0.47 -0.16    +0.166    17.438
ATOM     33  C   UNL d   1      -6.446  16.344   9.038 -0.15 -0.01    +0.141    17.438
ATOM     34  C   UNL d   1      -7.437  15.895   7.998 -0.11 -0.05    +0.306    17.438
ATOM     35  O   UNL d   1      -8.470  15.282   8.205 -0.19 +0.01    -0.251    17.438
ATOM     36  O   UNL d   1      -7.075  16.246   6.751 -0.05 +0.15    -0.481    17.438
ATOM     37  H   UNL d   1      -6.592  15.466   6.406 -0.41 -0.17    +0.295    17.438
ATOM     38  C   UNL d   1      -2.532  16.693  15.859 -0.19 -0.01    +0.017    17.438
ATOM     39  C   UNL d   1      -2.063  15.859  16.800 -0.30 -0.07    +0.092    17.438
ATOM     40  C   UNL d   1      -1.955  16.311  18.189 -0.13 -0.17    +0.330    17.438
ATOM     41  O   UNL d   1      -2.855  16.652  18.933 -0.09 +0.14    -0.246    17.438
ATOM     42  O   UNL d   1      -0.671  16.300  18.579 -0.07 +0.11    -0.477    17.438
ATOM     43  H   UNL d   1      -0.215  15.797  17.874 +0.07 -0.04    +0.295    17.438
ATOM     44  C   UNL d   1       0.278  17.698   5.363 -0.15 -0.12    +0.141    17.438
ATOM     45  C   UNL d   1      -0.619  18.320   4.326 -0.09 -0.36    +0.306    17.438
ATOM     46  O   UNL d   1      -1.835  18.251   4.282 -0.12 +0.27    -0.251    17.438
ATOM     47  O   UNL d   1       0.071  18.978   3.377 -0.04 +0.69    -0.481    17.438
ATOM     48  H   UNL d   1       0.016  18.401   2.586 -0.49 -0.88    +0.295    17.438
ATOM     49  C   UNL d   1       2.738  15.497  14.417 +0.02 -0.00    +0.048    17.438
ATOM     50  C   UNL d   1       2.749  16.587  15.488 -0.10 -0.01    +0.125    17.438
ATOM     51  C   UNL d   1       1.715  16.313  16.543 -0.11 -0.00    +0.305    17.438
ATOM     52  O   UNL d   1       1.722  15.425  17.377 -0.62 -0.04    -0.251    17.438
ATOM     53  O   UNL d   1       0.692  17.188  16.485 -0.03 +0.06    -0.481    17.438
ATOM     54  H   UNL d   1       0.633  17.546  17.395 +0.05 -0.03    +0.295    17.438
TER
ENDMDL
MODEL        4
USER    Run = 4
USER    Cluster Rank = 20
USER    Number of conformations in this cluster = 2
USER  
USER    RMSD from reference structure       = 16.134 A
USER  
USER    Estimated Free Energy of Binding    =   -5.38 kcal/mol  [=(1)+(2)+(3)-(4)]
USER    Estimated Inhibition Constant, Ki   =  113.11 uM (micromolar)  [Temperature = 298.15 K]
USER    
USER    (1) Final Intermolecular Energy     =   -9.26 kcal/mol
USER        vdW + Hbond + desolv Energy     =   -8.48 kcal/mol
USER        Electrostatic Energy            =   -0.78 kcal/mol
USER    (2) Final Total Internal Energy     =   -3.59 kcal/mol
USER    (3) Torsional Free Energy           =   +3.88 kcal/mol
USER    (4) Unbound System's Energy  [=(2)] =   -3.59 kcal/mol
USER    
USER    
USER  
USER    DPF = D:/Protein_go_brrr/autodock/final/AncB/heme/dock.dpf
USER    NEWDPF move	heme_opt.pdbqt
USER    NEWDPF about	0.153000 0.018000 -0.028000
USER    NEWDPF tran0	-5.490960 -11.159024 13.473633
USER    NEWDPF axisangle0	-0.617470 0.559397 0.552997 175.221053
USER    NEWDPF quaternion0	-0.616933 0.558911 0.552516 0.041692
USER    NEWDPF dihe0	177.09 178.33 87.39 151.80 -151.07 -62.03 -44.59 25.43 13.72 -115.80 1.24 -15.14 35.17 
USER  
USER                              x       y       z    vdW   Elec        q     RMS 
ATOM      1  O   UNL d   1      -5.730  -7.292  17.917 -0.10 +0.07    -0.289    16.134
ATOM      2  O   UNL d   1      -0.597  -8.297  12.528 -0.11 -0.03    -0.289    16.134
ATOM      3  N   UNL d   1      -5.951  -9.812  15.573 -0.23 -0.20    -0.247    16.134
ATOM      4  N   UNL d   1      -3.695  -9.230  13.729 -0.09 -0.10    -0.247    16.134
ATOM      5  N   UNL d   1      -4.855 -11.091  11.870 -0.10 -0.17    -0.354    16.134
ATOM      6  N   UNL d   1      -7.203 -11.675  13.781 -0.17 -0.23    -0.354    16.134
ATOM      7  C   UNL d   1      -7.412  -8.973  17.353 -0.17 +0.02    +0.084    16.134
ATOM      8  C   UNL d   1      -1.791  -8.002  14.645 -0.13 +0.01    +0.084    16.134
ATOM      9  C   UNL d   1      -3.205  -8.563  14.830 -0.15 +0.01    +0.058    16.134
ATOM     10  C   UNL d   1      -7.172  -9.962  16.209 -0.09 +0.04    +0.058    16.134
ATOM     11  C   UNL d   1      -6.103  -8.248  17.263 -0.11 +0.01    +0.193    16.134
ATOM     12  C   UNL d   1      -5.295  -8.867  16.164 -0.12 +0.05    +0.109    16.134
ATOM     13  C   UNL d   1      -1.584  -8.442  13.223 -0.13 +0.03    +0.193    16.134
ATOM     14  C   UNL d   1      -8.544  -7.992  17.035 -0.16 -0.00    +0.026    16.134
ATOM     15  C   UNL d   1      -3.920  -8.374  15.949 -0.17 +0.01    +0.055    16.134
ATOM     16  C   UNL d   1      -0.774  -8.722  15.536 -0.05 +0.00    +0.026    16.134
ATOM     17  C   UNL d   1      -2.813  -9.169  12.783 -0.10 +0.03    +0.109    16.134
ATOM     18  C   UNL d   1      -8.053 -10.942  15.930 -0.25 +0.03    +0.050    16.134
ATOM     19  C   UNL d   1      -7.877 -11.951  14.949 -0.24 +0.02    +0.045    16.134
ATOM     20  C   UNL d   1      -3.888 -10.535  11.074 -0.25 +0.02    +0.045    16.134
ATOM     21  C   UNL d   1      -2.916  -9.681  11.409 -0.27 +0.02    +0.057    16.134
ATOM     22  C   UNL d   1      -5.198 -11.905   9.798 -0.25 -0.01    -0.019    16.134
ATOM     23  C   UNL d   1      -5.694 -11.932  11.188 -0.24 +0.02    +0.045    16.134
ATOM     24  C   UNL d   1      -4.128 -11.077   9.737 -0.26 -0.01    -0.022    16.134
ATOM     25  C   UNL d   1      -7.229 -12.763  12.939 -0.31 +0.03    +0.049    16.134
ATOM     26  C   UNL d   1      -8.320 -13.263  14.880 -0.20 -0.01    -0.018    16.134
ATOM     27  C   UNL d   1      -7.891 -13.776  13.617 -0.26 +0.00    +0.003    16.134
ATOM     28  C   UNL d   1      -6.734 -12.668  11.610 -0.33 +0.03    +0.052    16.134
ATOM     29  C   UNL d   1      -3.281 -10.732   8.559 -0.26 +0.01    +0.046    16.134
ATOM     30  C   UNL d   1      -9.094 -13.997  15.923 -0.14 +0.01    +0.046    16.134
ATOM     31  H   UNL d   1      -4.865 -10.935  12.872 +0.06 +0.08    +0.166    16.134
ATOM     32  H   UNL d   1      -6.788 -10.774  13.573 +0.05 +0.16    +0.166    16.134
ATOM     33  C   UNL d   1      -7.585  -9.601  18.740 -0.05 +0.01    +0.141    16.134
ATOM     34  C   UNL d   1      -6.368 -10.366  19.185 +0.01 +0.02    +0.306    16.134
ATOM     35  O   UNL d   1      -6.198 -11.569  19.088 +0.00 -0.02    -0.251    16.134
ATOM     36  O   UNL d   1      -5.428  -9.573  19.728 +0.01 -0.01    -0.481    16.134
ATOM     37  H   UNL d   1      -5.770  -8.662  19.602 +0.03 -0.01    +0.295    16.134
ATOM     38  C   UNL d   1      -8.153 -15.098  13.132 -0.24 +0.01    +0.017    16.134
ATOM     39  C   UNL d   1      -7.448 -15.727  12.180 -0.17 +0.05    +0.092    16.134
ATOM     40  C   UNL d   1      -7.810 -17.090  11.784 -0.09 +0.23    +0.330    16.134
ATOM     41  O   UNL d   1      -7.775 -18.097  12.466 -0.03 -0.12    -0.246    16.134
ATOM     42  O   UNL d   1      -8.218 -17.107  10.506 -0.10 -0.75    -0.477    16.134
ATOM     43  H   UNL d   1      -8.173 -16.168  10.233 -0.30 +0.45    +0.295    16.134
ATOM     44  C   UNL d   1      -1.662  -6.481  14.773 -0.24 +0.00    +0.141    16.134
ATOM     45  C   UNL d   1      -0.354  -5.949  14.249 -0.20 -0.00    +0.306    16.134
ATOM     46  O   UNL d   1       0.682  -5.821  14.878 -0.11 +0.01    -0.251    16.134
ATOM     47  O   UNL d   1      -0.430  -5.578  12.958 -0.20 +0.00    -0.481    16.134
ATOM     48  H   UNL d   1      -0.139  -6.369  12.456 +0.13 +0.01    +0.295    16.134
ATOM     49  C   UNL d   1      -5.818 -12.670   8.666 -0.30 +0.03    +0.048    16.134
ATOM     50  C   UNL d   1      -6.067 -14.132   9.038 -0.23 +0.10    +0.125    16.134
ATOM     51  C   UNL d   1      -6.641 -14.891   7.875 -0.17 +0.44    +0.305    16.134
ATOM     52  O   UNL d   1      -6.606 -14.583   6.697 -0.40 -0.45    -0.251    16.134
ATOM     53  O   UNL d   1      -7.258 -16.023   8.267 -0.58 -1.17    -0.481    16.134
ATOM     54  H   UNL d   1      -6.786 -16.280   9.087 +0.06 +0.45    +0.295    16.134
TER
ENDMDL
MODEL       55
USER    Run = 55
USER    Cluster Rank = 21
USER    Number of conformations in this cluster = 1
USER  
USER    RMSD from reference structure       = 14.944 A
USER  
USER    Estimated Free Energy of Binding    =   -5.25 kcal/mol  [=(1)+(2)+(3)-(4)]
USER    Estimated Inhibition Constant, Ki   =  141.50 uM (micromolar)  [Temperature = 298.15 K]
USER    
USER    (1) Final Intermolecular Energy     =   -9.13 kcal/mol
USER        vdW + Hbond + desolv Energy     =   -8.54 kcal/mol
USER        Electrostatic Energy            =   -0.59 kcal/mol
USER    (2) Final Total Internal Energy     =   -2.41 kcal/mol
USER    (3) Torsional Free Energy           =   +3.88 kcal/mol
USER    (4) Unbound System's Energy  [=(2)] =   -2.41 kcal/mol
USER    
USER    
USER  
USER    DPF = D:/Protein_go_brrr/autodock/final/AncB/heme/dock.dpf
USER    NEWDPF move	heme_opt.pdbqt
USER    NEWDPF about	0.153000 0.018000 -0.028000
USER    NEWDPF tran0	-7.439019 16.052377 5.599493
USER    NEWDPF axisangle0	-0.544778 -0.702314 0.458227 117.828053
USER    NEWDPF quaternion0	-0.466544 -0.601457 0.392423 0.516324
USER    NEWDPF dihe0	140.64 123.02 100.19 -22.24 -135.89 -88.86 -46.56 156.90 20.87 -124.20 57.43 26.22 -157.07 
USER  
USER                              x       y       z    vdW   Elec        q     RMS 
ATOM      1  O   UNL d   1      -5.465  14.993  11.053 -0.18 +0.01    -0.289    14.944
ATOM      2  O   UNL d   1     -12.441  15.900   8.426 -0.05 -0.01    -0.289    14.944
ATOM      3  N   UNL d   1      -6.136  15.741   7.753 -0.13 +0.06    -0.247    14.944
ATOM      4  N   UNL d   1      -9.101  15.603   7.611 -0.16 +0.02    -0.247    14.944
ATOM      5  N   UNL d   1      -8.872  15.608   4.745 -0.12 +0.12    -0.354    14.944
ATOM      6  N   UNL d   1      -5.796  15.731   4.902 -0.13 +0.16    -0.354    14.944
ATOM      7  C   UNL d   1      -4.117  15.175   9.022 -0.30 -0.02    +0.084    14.944
ATOM      8  C   UNL d   1     -10.340  16.024   9.675 -0.14 +0.01    +0.084    14.944
ATOM      9  C   UNL d   1      -8.996  15.830   8.966 -0.19 +0.00    +0.058    14.944
ATOM     10  C   UNL d   1      -4.769  15.532   7.683 -0.24 -0.01    +0.058    14.944
ATOM     11  C   UNL d   1      -5.354  15.238   9.865 -0.20 -0.02    +0.193    14.944
ATOM     12  C   UNL d   1      -6.506  15.615   8.986 -0.21 -0.01    +0.109    14.944
ATOM     13  C   UNL d   1     -11.229  15.829   8.480 -0.12 +0.01    +0.193    14.944
ATOM     14  C   UNL d   1      -3.580  13.742   9.035 -0.35 -0.00    +0.026    14.944
ATOM     15  C   UNL d   1      -7.824  15.829   9.619 -0.23 +0.00    +0.055    14.944
ATOM     16  C   UNL d   1     -10.509  17.458  10.187 -0.06 +0.00    +0.026    14.944
ATOM     17  C   UNL d   1     -10.356  15.575   7.294 -0.19 -0.01    +0.109    14.944
ATOM     18  C   UNL d   1      -4.035  15.709   6.568 -0.28 -0.02    +0.050    14.944
ATOM     19  C   UNL d   1      -4.540  16.121   5.308 -0.22 -0.02    +0.045    14.944
ATOM     20  C   UNL d   1     -10.205  15.316   4.875 -0.22 -0.01    +0.045    14.944
ATOM     21  C   UNL d   1     -10.956  15.303   5.980 -0.22 -0.01    +0.057    14.944
ATOM     22  C   UNL d   1      -9.619  15.136   2.674 -0.20 +0.01    -0.019    14.944
ATOM     23  C   UNL d   1      -8.427  15.525   3.453 -0.25 -0.02    +0.045    14.944
ATOM     24  C   UNL d   1     -10.669  15.015   3.521 -0.17 +0.00    -0.022    14.944
ATOM     25  C   UNL d   1      -6.044  16.163   3.620 -0.19 -0.02    +0.049    14.944
ATOM     26  C   UNL d   1      -3.972  16.856   4.279 -0.20 +0.01    -0.018    14.944
ATOM     27  C   UNL d   1      -4.934  16.896   3.223 -0.18 -0.00    +0.003    14.944
ATOM     28  C   UNL d   1      -7.214  15.751   2.925 -0.18 -0.02    +0.052    14.944
ATOM     29  C   UNL d   1     -12.082  14.655   3.210 -0.10 -0.01    +0.046    14.944
ATOM     30  C   UNL d   1      -2.620  17.485   4.274 -0.15 -0.05    +0.046    14.944
ATOM     31  H   UNL d   1      -8.324  15.928   5.537 -0.07 -0.06    +0.166    14.944
ATOM     32  H   UNL d   1      -6.419  15.168   5.469 -0.46 -0.11    +0.166    14.944
ATOM     33  C   UNL d   1      -3.070  16.173   9.529 -0.19 -0.04    +0.141    14.944
ATOM     34  C   UNL d   1      -3.673  17.491   9.933 -0.04 -0.06    +0.306    14.944
ATOM     35  O   UNL d   1      -3.970  18.407   9.185 -0.02 +0.04    -0.251    14.944
ATOM     36  O   UNL d   1      -3.873  17.584  11.259 +0.01 +0.10    -0.481    14.944
ATOM     37  H   UNL d   1      -4.228  16.706  11.518 +0.09 -0.06    +0.295    14.944
ATOM     38  C   UNL d   1      -4.747  17.545   1.960 -0.16 -0.02    +0.017    14.944
ATOM     39  C   UNL d   1      -5.473  18.577   1.504 -0.10 -0.07    +0.092    14.944
ATOM     40  C   UNL d   1      -5.168  19.164   0.197 -0.04 -0.26    +0.330    14.944
ATOM     41  O   UNL d   1      -4.412  20.085  -0.046 -0.03 +0.13    -0.246    14.944
ATOM     42  O   UNL d   1      -5.850  18.525  -0.766 +0.02 +0.55    -0.477    14.944
ATOM     43  H   UNL d   1      -5.575  17.590  -0.668 -0.47 -0.83    +0.295    14.944
ATOM     44  C   UNL d   1     -10.662  15.003  10.771 +0.18 +0.07    +0.141    14.944
ATOM     45  C   UNL d   1     -12.051  15.151  11.332 -0.07 +0.11    +0.306    14.944
ATOM     46  O   UNL d   1     -12.381  15.833  12.287 -0.05 -0.07    -0.251    14.944
ATOM     47  O   UNL d   1     -12.955  14.405  10.671 -0.05 -0.12    -0.481    14.944
ATOM     48  H   UNL d   1     -13.171  14.929   9.870 +0.05 +0.04    +0.295    14.944
ATOM     49  C   UNL d   1      -9.619  14.906   1.191 -0.19 -0.02    +0.048    14.944
ATOM     50  C   UNL d   1     -10.031  13.477   0.837 -0.18 -0.03    +0.125    14.944
ATOM     51  C   UNL d   1      -8.954  12.788   0.049 -0.17 -0.08    +0.305    14.944
ATOM     52  O   UNL d   1      -8.700  11.596   0.021 -0.87 +0.01    -0.251    14.944
ATOM     53  O   UNL d   1      -8.222  13.659  -0.675 -0.25 +0.26    -0.481    14.944
ATOM     54  H   UNL d   1      -7.376  13.190  -0.827 +0.08 -0.23    +0.295    14.944
TER
ENDMDL
MODEL       25
USER    Run = 25
USER    Cluster Rank = 22
USER    Number of conformations in this cluster = 1
USER  
USER    RMSD from reference structure       = 12.452 A
USER  
USER    Estimated Free Energy of Binding    =   -5.23 kcal/mol  [=(1)+(2)+(3)-(4)]
USER    Estimated Inhibition Constant, Ki   =  147.87 uM (micromolar)  [Temperature = 298.15 K]
USER    
USER    (1) Final Intermolecular Energy     =   -9.10 kcal/mol
USER        vdW + Hbond + desolv Energy     =   -8.38 kcal/mol
USER        Electrostatic Energy            =   -0.72 kcal/mol
USER    (2) Final Total Internal Energy     =   -1.21 kcal/mol
USER    (3) Torsional Free Energy           =   +3.88 kcal/mol
USER    (4) Unbound System's Energy  [=(2)] =   -1.21 kcal/mol
USER    
USER    
USER  
USER    DPF = D:/Protein_go_brrr/autodock/final/AncB/heme/dock.dpf
USER    NEWDPF move	heme_opt.pdbqt
USER    NEWDPF about	0.153000 0.018000 -0.028000
USER    NEWDPF tran0	-0.735992 -14.097668 4.774652
USER    NEWDPF axisangle0	0.397624 -0.476215 0.784292 -157.865753
USER    NEWDPF quaternion0	0.390229 -0.467359 0.769707 -0.191959
USER    NEWDPF dihe0	96.20 91.44 -109.94 -111.15 10.64 -175.44 -33.83 -56.16 -126.74 158.70 114.93 -90.49 -180.00 
USER  
USER                              x       y       z    vdW   Elec        q     RMS 
ATOM      1  O   UNL d   1       1.910 -15.099  -0.397 -0.13 -0.04    -0.289    12.452
ATOM      2  O   UNL d   1       3.450 -10.169   5.054 -0.12 -0.02    -0.289    12.452
ATOM      3  N   UNL d   1      -0.030 -14.781   2.436 -0.65 -0.12    -0.247    12.452
ATOM      4  N   UNL d   1       1.501 -12.852   4.099 -0.10 -0.05    -0.247    12.452
ATOM      5  N   UNL d   1      -0.168 -13.585   6.322 -0.04 -0.09    -0.354    12.452
ATOM      6  N   UNL d   1      -1.738 -15.599   4.595 -0.02 -0.17    -0.354    12.452
ATOM      7  C   UNL d   1       0.002 -16.316   0.526 -0.19 +0.02    +0.084    12.452
ATOM      8  C   UNL d   1       2.968 -11.287   2.930 -0.22 +0.00    +0.084    12.452
ATOM      9  C   UNL d   1       2.028 -12.495   2.878 -0.23 +0.01    +0.058    12.452
ATOM     10  C   UNL d   1      -0.627 -15.887   1.855 -0.18 +0.02    +0.058    12.452
ATOM     11  C   UNL d   1       1.049 -15.245   0.450 -0.16 +0.04    +0.193    12.452
ATOM     12  C   UNL d   1       0.910 -14.363   1.652 -0.23 +0.03    +0.109    12.452
ATOM     13  C   UNL d   1       2.907 -11.047   4.412 -0.11 +0.01    +0.193    12.452
ATOM     14  C   UNL d   1       0.693 -17.678   0.630 -0.08 +0.00    +0.026    12.452
ATOM     15  C   UNL d   1       1.783 -13.176   1.748 -0.30 +0.01    +0.055    12.452
ATOM     16  C   UNL d   1       2.373 -10.073   2.210 -0.37 +0.00    +0.026    12.452
ATOM     17  C   UNL d   1       1.990 -12.067   5.005 -0.11 +0.01    +0.109    12.452
ATOM     18  C   UNL d   1      -1.723 -16.497   2.343 -0.17 +0.03    +0.050    12.452
ATOM     19  C   UNL d   1      -2.421 -16.117   3.518 -0.08 +0.03    +0.045    12.452
ATOM     20  C   UNL d   1       0.778 -12.838   6.975 -0.07 +0.01    +0.045    12.452
ATOM     21  C   UNL d   1       1.769 -12.105   6.458 -0.10 +0.01    +0.057    12.452
ATOM     22  C   UNL d   1      -0.590 -13.813   8.523 -0.02 -0.00    -0.019    12.452
ATOM     23  C   UNL d   1      -1.039 -14.212   7.174 -0.06 +0.01    +0.045    12.452
ATOM     24  C   UNL d   1       0.485 -12.999   8.398 -0.03 -0.00    -0.022    12.452
ATOM     25  C   UNL d   1      -2.593 -15.386   5.652 -0.07 +0.02    +0.049    12.452
ATOM     26  C   UNL d   1      -3.759 -16.208   3.870 -0.17 -0.02    -0.018    12.452
ATOM     27  C   UNL d   1      -3.865 -15.727   5.212 -0.14 +0.00    +0.003    12.452
ATOM     28  C   UNL d   1      -2.095 -15.002   6.926 -0.06 +0.02    +0.052    12.452
ATOM     29  C   UNL d   1       1.280 -12.333   9.469 -0.03 +0.01    +0.046    12.452
ATOM     30  C   UNL d   1      -4.873 -16.709   3.015 -0.12 +0.09    +0.046    12.452
ATOM     31  H   UNL d   1      -0.234 -13.584   5.310 +0.04 +0.05    +0.166    12.452
ATOM     32  H   UNL d   1      -0.737 -15.443   4.602 +0.03 +0.07    +0.166    12.452
ATOM     33  C   UNL d   1      -0.926 -16.248  -0.692 -0.20 +0.04    +0.141    12.452
ATOM     34  C   UNL d   1      -1.866 -17.420  -0.771 -0.12 +0.14    +0.306    12.452
ATOM     35  O   UNL d   1      -2.750 -17.689   0.025 -0.38 -0.20    -0.251    12.452
ATOM     36  O   UNL d   1      -1.644 -18.191  -1.850 -0.11 -0.11    -0.481    12.452
ATOM     37  H   UNL d   1      -2.169 -17.773  -2.564 -0.38 +0.03    +0.295    12.452
ATOM     38  C   UNL d   1      -5.076 -15.662   5.972 -0.08 +0.03    +0.017    12.452
ATOM     39  C   UNL d   1      -5.256 -16.198   7.189 -0.10 +0.11    +0.092    12.452
ATOM     40  C   UNL d   1      -6.544 -16.046   7.871 -0.07 +0.57    +0.330    12.452
ATOM     41  O   UNL d   1      -6.847 -16.433   8.983 -0.62 -0.40    -0.246    12.452
ATOM     42  O   UNL d   1      -7.406 -15.381   7.086 -0.44 -1.18    -0.477    12.452
ATOM     43  H   UNL d   1      -7.246 -14.440   7.306 +0.10 +0.50    +0.295    12.452
ATOM     44  C   UNL d   1       4.408 -11.550   2.476 -0.20 -0.02    +0.141    12.452
ATOM     45  C   UNL d   1       4.741 -10.911   1.154 -0.28 -0.09    +0.306    12.452
ATOM     46  O   UNL d   1       4.424 -11.318   0.050 -0.74 +0.00    -0.251    12.452
ATOM     47  O   UNL d   1       5.484  -9.798   1.293 -0.23 +0.34    -0.481    12.452
ATOM     48  H   UNL d   1       6.357 -10.121   1.603 -0.22 -0.47    +0.295    12.452
ATOM     49  C   UNL d   1      -1.238 -14.271   9.796 -0.01 +0.01    +0.048    12.452
ATOM     50  C   UNL d   1      -0.511 -15.471  10.405 +0.00 +0.02    +0.125    12.452
ATOM     51  C   UNL d   1      -0.597 -16.666   9.498 +0.00 +0.06    +0.305    12.452
ATOM     52  O   UNL d   1      -1.601 -17.259   9.144 +0.00 -0.07    -0.251    12.452
ATOM     53  O   UNL d   1       0.619 -17.072   9.083 +0.00 -0.08    -0.481    12.452
ATOM     54  H   UNL d   1       1.044 -17.422   9.894 +0.00 +0.04    +0.295    12.452
TER
ENDMDL
MODEL       48
USER    Run = 48
USER    Cluster Rank = 23
USER    Number of conformations in this cluster = 2
USER  
USER    RMSD from reference structure       = 15.459 A
USER  
USER    Estimated Free Energy of Binding    =   -5.21 kcal/mol  [=(1)+(2)+(3)-(4)]
USER    Estimated Inhibition Constant, Ki   =  150.78 uM (micromolar)  [Temperature = 298.15 K]
USER    
USER    (1) Final Intermolecular Energy     =   -9.09 kcal/mol
USER        vdW + Hbond + desolv Energy     =   -8.81 kcal/mol
USER        Electrostatic Energy            =   -0.28 kcal/mol
USER    (2) Final Total Internal Energy     =   -2.12 kcal/mol
USER    (3) Torsional Free Energy           =   +3.88 kcal/mol
USER    (4) Unbound System's Energy  [=(2)] =   -2.12 kcal/mol
USER    
USER    
USER  
USER    DPF = D:/Protein_go_brrr/autodock/final/AncB/heme/dock.dpf
USER    NEWDPF move	heme_opt.pdbqt
USER    NEWDPF about	0.153000 0.018000 -0.028000
USER    NEWDPF tran0	-8.590603 15.519152 6.925972
USER    NEWDPF axisangle0	0.318596 -0.623520 -0.713946 152.765466
USER    NEWDPF quaternion0	0.309641 -0.605993 -0.693877 0.235435
USER    NEWDPF dihe0	-32.34 19.67 -115.63 11.43 20.46 -114.97 129.21 78.95 112.54 -16.23 -175.54 -12.94 -9.86 
USER  
USER                              x       y       z    vdW   Elec        q     RMS 
ATOM      1  O   UNL d   1      -5.957  16.170  12.160 -0.07 +0.03    -0.289    15.459
ATOM      2  O   UNL d   1      -3.108  14.840   5.341 -0.44 +0.12    -0.289    15.459
ATOM      3  N   UNL d   1      -7.929  15.724   9.366 -0.16 -0.01    -0.247    15.459
ATOM      4  N   UNL d   1      -5.953  15.569   7.153 -0.07 +0.09    -0.247    15.459
ATOM      5  N   UNL d   1      -8.132  15.904   5.307 -0.05 +0.13    -0.354    15.459
ATOM      6  N   UNL d   1     -10.173  16.084   7.610 -0.10 +0.01    -0.354    15.459
ATOM      7  C   UNL d   1      -8.350  16.353  11.697 -0.12 +0.02    +0.084    15.459
ATOM      8  C   UNL d   1      -3.703  14.797   7.714 -0.36 -0.02    +0.084    15.459
ATOM      9  C   UNL d   1      -5.106  15.207   8.176 -0.28 -0.01    +0.058    15.459
ATOM     10  C   UNL d   1      -8.895  16.080  10.292 -0.15 +0.01    +0.058    15.459
ATOM     11  C   UNL d   1      -6.907  16.070  11.406 -0.11 +0.02    +0.193    15.459
ATOM     12  C   UNL d   1      -6.785  15.675   9.967 -0.20 +0.00    +0.109    15.459
ATOM     13  C   UNL d   1      -3.900  15.029   6.243 -0.25 -0.06    +0.193    15.459
ATOM     14  C   UNL d   1      -8.496  17.824  12.095 -0.04 +0.00    +0.026    15.459
ATOM     15  C   UNL d   1      -5.458  15.257   9.470 -0.30 -0.01    +0.055    15.459
ATOM     16  C   UNL d   1      -3.442  13.306   7.947 -0.47 -0.00    +0.026    15.459
ATOM     17  C   UNL d   1      -5.302  15.502   6.036 -0.15 -0.04    +0.109    15.459
ATOM     18  C   UNL d   1     -10.216  16.104  10.034 -0.16 +0.01    +0.050    15.459
ATOM     19  C   UNL d   1     -10.816  15.784   8.789 -0.17 +0.00    +0.045    15.459
ATOM     20  C   UNL d   1      -7.073  16.040   4.448 -0.21 -0.02    +0.045    15.459
ATOM     21  C   UNL d   1      -5.770  15.854   4.687 -0.29 -0.03    +0.057    15.459
ATOM     22  C   UNL d   1      -9.002  16.522   3.323 -0.12 +0.01    -0.019    15.459
ATOM     23  C   UNL d   1      -9.338  16.175   4.719 -0.15 -0.01    +0.045    15.459
ATOM     24  C   UNL d   1      -7.659  16.439   3.169 -0.19 +0.01    -0.022    15.459
ATOM     25  C   UNL d   1     -10.969  15.772   6.532 -0.17 -0.01    +0.049    15.459
ATOM     26  C   UNL d   1     -12.046  15.230   8.470 -0.17 -0.00    -0.018    15.459
ATOM     27  C   UNL d   1     -12.129  15.207   7.043 -0.17 -0.00    +0.003    15.459
ATOM     28  C   UNL d   1     -10.585  16.136   5.213 -0.14 -0.01    +0.052    15.459
ATOM     29  C   UNL d   1      -6.844  16.683   1.945 -0.04 -0.03    +0.046    15.459
ATOM     30  C   UNL d   1     -13.082  14.748   9.429 -0.14 +0.00    +0.046    15.459
ATOM     31  H   UNL d   1      -8.002  15.557   6.251 -0.41 -0.08    +0.166    15.459
ATOM     32  H   UNL d   1      -9.256  16.513   7.565 +0.03 -0.01    +0.166    15.459
ATOM     33  C   UNL d   1      -8.870  15.419  12.796 -0.07 +0.11    +0.141    15.459
ATOM     34  C   UNL d   1      -7.984  15.407  14.012 -0.08 +0.13    +0.306    15.459
ATOM     35  O   UNL d   1      -7.900  16.288  14.852 -0.07 +0.01    -0.251    15.459
ATOM     36  O   UNL d   1      -7.251  14.284  14.109 -0.65 -0.28    -0.481    15.459
ATOM     37  H   UNL d   1      -6.400  14.577  14.498 -0.47 -0.29    +0.295    15.459
ATOM     38  C   UNL d   1     -13.247  14.724   6.289 -0.12 -0.00    +0.017    15.459
ATOM     39  C   UNL d   1     -13.193  14.278   5.025 -0.07 -0.02    +0.092    15.459
ATOM     40  C   UNL d   1     -14.411  13.794   4.370 -0.04 -0.03    +0.330    15.459
ATOM     41  O   UNL d   1     -14.639  12.671   3.961 -0.06 +0.02    -0.246    15.459
ATOM     42  O   UNL d   1     -15.309  14.786   4.272 -0.00 +0.01    -0.477    15.459
ATOM     43  H   UNL d   1     -16.160  14.321   4.136 +0.01 +0.00    +0.295    15.459
ATOM     44  C   UNL d   1      -2.553  15.652   8.256 -0.26 -0.04    +0.141    15.459
ATOM     45  C   UNL d   1      -2.581  17.072   7.755 -0.10 -0.09    +0.306    15.459
ATOM     46  O   UNL d   1      -3.214  17.998   8.230 -0.03 +0.06    -0.251    15.459
ATOM     47  O   UNL d   1      -1.825  17.244   6.656 -0.17 +0.19    -0.481    15.459
ATOM     48  H   UNL d   1      -2.247  16.680   5.973 +0.10 -0.14    +0.295    15.459
ATOM     49  C   UNL d   1     -10.012  16.913   2.285 -0.05 -0.01    +0.048    15.459
ATOM     50  C   UNL d   1     -10.477  15.711   1.463 -0.06 -0.03    +0.125    15.459
ATOM     51  C   UNL d   1      -9.893  14.435   2.000 -0.13 -0.10    +0.305    15.459
ATOM     52  O   UNL d   1     -10.195  13.854   3.027 -0.22 +0.09    -0.251    15.459
ATOM     53  O   UNL d   1      -8.921  13.950   1.201 -0.13 +0.21    -0.481    15.459
ATOM     54  H   UNL d   1      -8.753  13.050   1.550 -0.36 -0.22    +0.295    15.459
TER
ENDMDL
MODEL       67
USER    Run = 67
USER    Cluster Rank = 24
USER    Number of conformations in this cluster = 1
USER  
USER    RMSD from reference structure       = 17.265 A
USER  
USER    Estimated Free Energy of Binding    =   -5.11 kcal/mol  [=(1)+(2)+(3)-(4)]
USER    Estimated Inhibition Constant, Ki   =  178.40 uM (micromolar)  [Temperature = 298.15 K]
USER    
USER    (1) Final Intermolecular Energy     =   -8.99 kcal/mol
USER        vdW + Hbond + desolv Energy     =   -8.26 kcal/mol
USER        Electrostatic Energy            =   -0.73 kcal/mol
USER    (2) Final Total Internal Energy     =   -1.49 kcal/mol
USER    (3) Torsional Free Energy           =   +3.88 kcal/mol
USER    (4) Unbound System's Energy  [=(2)] =   -1.49 kcal/mol
USER    
USER    
USER  
USER    DPF = D:/Protein_go_brrr/autodock/final/AncB/heme/dock.dpf
USER    NEWDPF move	heme_opt.pdbqt
USER    NEWDPF about	0.153000 0.018000 -0.028000
USER    NEWDPF tran0	-7.125599 -13.750275 12.806643
USER    NEWDPF axisangle0	-0.555412 0.024524 -0.831214 126.113284
USER    NEWDPF quaternion0	-0.495124 0.021862 -0.740990 0.453109
USER    NEWDPF dihe0	105.94 -7.04 -143.72 -88.24 179.19 -166.06 4.95 -102.00 -29.12 135.28 14.27 9.39 30.17 
USER  
USER                              x       y       z    vdW   Elec        q     RMS 
ATOM      1  O   UNL d   1      -7.278 -18.702   9.611 -0.05 -0.32    -0.289    17.265
ATOM      2  O   UNL d   1      -4.631 -11.866   7.984 -0.19 -0.14    -0.289    17.265
ATOM      3  N   UNL d   1      -7.533 -16.035  11.782 -0.11 -0.15    -0.247    17.265
ATOM      4  N   UNL d   1      -5.972 -13.900  10.428 -0.13 -0.14    -0.247    17.265
ATOM      5  N   UNL d   1      -6.024 -12.425  12.895 -0.07 -0.17    -0.354    17.265
ATOM      6  N   UNL d   1      -7.626 -14.653  14.298 -0.04 -0.11    -0.354    17.265
ATOM      7  C   UNL d   1      -8.046 -18.428  11.915 -0.06 +0.05    +0.084    17.265
ATOM      8  C   UNL d   1      -5.786 -14.024   7.994 -0.21 +0.08    +0.084    17.265
ATOM      9  C   UNL d   1      -6.251 -14.655   9.311 -0.21 +0.05    +0.058    17.265
ATOM     10  C   UNL d   1      -8.011 -17.053  12.590 -0.12 +0.03    +0.058    17.265
ATOM     11  C   UNL d   1      -7.519 -18.003  10.578 -0.07 +0.20    +0.193    17.265
ATOM     12  C   UNL d   1      -7.271 -16.526  10.615 -0.11 +0.11    +0.109    17.265
ATOM     13  C   UNL d   1      -5.158 -12.788   8.574 -0.16 +0.11    +0.193    17.265
ATOM     14  C   UNL d   1      -7.053 -19.404  12.551 -0.01 +0.01    +0.026    17.265
ATOM     15  C   UNL d   1      -6.833 -15.863   9.371 -0.16 +0.07    +0.055    17.265
ATOM     16  C   UNL d   1      -6.968 -13.608   7.114 -0.35 +0.03    +0.026    17.265
ATOM     17  C   UNL d   1      -5.332 -12.837  10.058 -0.18 +0.06    +0.109    17.265
ATOM     18  C   UNL d   1      -8.497 -16.866  13.831 -0.11 +0.02    +0.050    17.265
ATOM     19  C   UNL d   1      -8.585 -15.620  14.502 -0.11 +0.01    +0.045    17.265
ATOM     20  C   UNL d   1      -5.125 -11.669  12.188 -0.19 +0.02    +0.045    17.265
ATOM     21  C   UNL d   1      -4.774 -11.771  10.902 -0.24 +0.02    +0.057    17.265
ATOM     22  C   UNL d   1      -5.202 -10.903  14.339 -0.15 -0.01    -0.019    17.265
ATOM     23  C   UNL d   1      -6.138 -12.037  14.204 -0.14 +0.02    +0.045    17.265
ATOM     24  C   UNL d   1      -4.607 -10.689  13.141 -0.16 -0.01    -0.022    17.265
ATOM     25  C   UNL d   1      -7.855 -13.567  15.111 -0.13 +0.02    +0.049    17.265
ATOM     26  C   UNL d   1      -9.479 -15.135  15.443 -0.07 -0.00    -0.018    17.265
ATOM     27  C   UNL d   1      -9.025 -13.831  15.810 -0.14 +0.00    +0.003    17.265
ATOM     28  C   UNL d   1      -6.911 -12.507  15.195 -0.12 +0.02    +0.052    17.265
ATOM     29  C   UNL d   1      -3.600  -9.654  12.772 -0.15 +0.02    +0.046    17.265
ATOM     30  C   UNL d   1     -10.685 -15.837  15.970 -0.10 +0.01    +0.046    17.265
ATOM     31  H   UNL d   1      -6.586 -13.136  12.440 +0.06 +0.08    +0.166    17.265
ATOM     32  H   UNL d   1      -6.844 -14.764  13.663 +0.04 +0.06    +0.166    17.265
ATOM     33  C   UNL d   1      -9.437 -19.054  11.771 -0.08 +0.10    +0.141    17.265
ATOM     34  C   UNL d   1     -10.544 -18.044  11.906 -0.10 +0.26    +0.306    17.265
ATOM     35  O   UNL d   1     -11.494 -18.113  12.667 -0.59 -0.17    -0.251    17.265
ATOM     36  O   UNL d   1     -10.394 -16.998  11.074 -0.81 -0.75    -0.481    17.265
ATOM     37  H   UNL d   1      -9.696 -16.449  11.491 -0.40 +0.29    +0.295    17.265
ATOM     38  C   UNL d   1      -9.654 -12.978  16.773 -0.14 +0.00    +0.017    17.265
ATOM     39  C   UNL d   1      -9.907 -11.671  16.601 -0.19 +0.02    +0.092    17.265
ATOM     40  C   UNL d   1     -10.575 -10.912  17.661 -0.07 +0.04    +0.330    17.265
ATOM     41  O   UNL d   1     -11.049  -9.794  17.590 -0.16 -0.02    -0.246    17.265
ATOM     42  O   UNL d   1     -10.618 -11.636  18.791 +0.01 -0.04    -0.477    17.265
ATOM     43  H   UNL d   1     -10.968 -11.010  19.457 +0.05 +0.01    +0.295    17.265
ATOM     44  C   UNL d   1      -4.761 -14.838   7.198 -0.11 +0.13    +0.141    17.265
ATOM     45  C   UNL d   1      -5.390 -15.865   6.295 +0.09 +0.51    +0.306    17.265
ATOM     46  O   UNL d   1      -6.358 -16.561   6.550 -0.54 -0.55    -0.251    17.265
ATOM     47  O   UNL d   1      -4.745 -15.982   5.120 -0.36 -0.78    -0.481    17.265
ATOM     48  H   UNL d   1      -3.799 -15.849   5.342 +0.07 +0.27    +0.295    17.265
ATOM     49  C   UNL d   1      -4.968 -10.151  15.616 -0.14 +0.02    +0.048    17.265
ATOM     50  C   UNL d   1      -6.275  -9.642  16.224 -0.10 +0.08    +0.125    17.265
ATOM     51  C   UNL d   1      -6.008  -8.602  17.274 -0.10 +0.05    +0.305    17.265
ATOM     52  O   UNL d   1      -6.132  -8.715  18.481 -0.04 -0.00    -0.251    17.265
ATOM     53  O   UNL d   1      -5.601  -7.435  16.736 -0.29 +0.09    -0.481    17.265
ATOM     54  H   UNL d   1      -6.431  -6.931  16.604 -0.33 -0.35    +0.295    17.265
TER
ENDMDL
MODEL       45
USER    Run = 45
USER    Cluster Rank = 25
USER    Number of conformations in this cluster = 2
USER  
USER    RMSD from reference structure       = 15.309 A
USER  
USER    Estimated Free Energy of Binding    =   -5.00 kcal/mol  [=(1)+(2)+(3)-(4)]
USER    Estimated Inhibition Constant, Ki   =  217.27 uM (micromolar)  [Temperature = 298.15 K]
USER    
USER    (1) Final Intermolecular Energy     =   -8.88 kcal/mol
USER        vdW + Hbond + desolv Energy     =   -8.71 kcal/mol
USER        Electrostatic Energy            =   -0.17 kcal/mol
USER    (2) Final Total Internal Energy     =   -2.74 kcal/mol
USER    (3) Torsional Free Energy           =   +3.88 kcal/mol
USER    (4) Unbound System's Energy  [=(2)] =   -2.74 kcal/mol
USER    
USER    
USER  
USER    DPF = D:/Protein_go_brrr/autodock/final/AncB/heme/dock.dpf
USER    NEWDPF move	heme_opt.pdbqt
USER    NEWDPF about	0.153000 0.018000 -0.028000
USER    NEWDPF tran0	5.856559 4.256319 15.206327
USER    NEWDPF axisangle0	0.584849 0.724692 -0.364381 140.560946
USER    NEWDPF quaternion0	0.550551 0.682193 -0.343012 0.337416
USER    NEWDPF dihe0	-180.00 180.00 8.08 -92.91 -155.39 83.60 -28.93 -177.88 6.50 15.43 -69.39 -148.96 30.89 
USER  
USER                              x       y       z    vdW   Elec        q     RMS 
ATOM      1  O   UNL d   1       7.123  -1.052  12.977 -0.13 -0.00    -0.289    15.309
ATOM      2  O   UNL d   1       5.103   1.030  19.903 -0.04 +0.01    -0.289    15.309
ATOM      3  N   UNL d   1       6.608   2.241  13.862 -0.20 +0.01    -0.247    15.309
ATOM      4  N   UNL d   1       5.569   2.048  16.639 -0.36 -0.01    -0.247    15.309
ATOM      5  N   UNL d   1       4.775   4.804  16.435 +0.02 +0.12    -0.354    15.309
ATOM      6  N   UNL d   1       5.837   4.990  13.547 -0.11 +0.05    -0.354    15.309
ATOM      7  C   UNL d   1       7.071   1.068  11.760 -0.17 -0.00    +0.084    15.309
ATOM      8  C   UNL d   1       6.210   0.080  17.937 -0.05 -0.00    +0.084    15.309
ATOM      9  C   UNL d   1       6.214   0.832  16.602 +0.08 +0.00    +0.058    15.309
ATOM     10  C   UNL d   1       6.799   2.382  12.497 -0.21 -0.00    +0.058    15.309
ATOM     11  C   UNL d   1       7.019   0.161  12.953 -0.11 -0.00    +0.193    15.309
ATOM     12  C   UNL d   1       6.757   0.994  14.169 +0.00 +0.01    +0.109    15.309
ATOM     13  C   UNL d   1       5.411   1.077  18.728 -0.06 -0.01    +0.193    15.309
ATOM     14  C   UNL d   1       5.933   0.697  10.806 -0.37 -0.00    +0.026    15.309
ATOM     15  C   UNL d   1       6.755   0.323  15.485 -0.05 +0.00    +0.055    15.309
ATOM     16  C   UNL d   1       7.615  -0.014  18.540 -0.01 -0.00    +0.026    15.309
ATOM     17  C   UNL d   1       5.078   2.219  17.824 -0.13 -0.01    +0.109    15.309
ATOM     18  C   UNL d   1       6.838   3.567  11.859 -0.28 -0.00    +0.050    15.309
ATOM     19  C   UNL d   1       6.683   4.837  12.472 -0.24 -0.00    +0.045    15.309
ATOM     20  C   UNL d   1       4.157   4.467  17.612 -0.21 -0.01    +0.045    15.309
ATOM     21  C   UNL d   1       4.258   3.336  18.317 -0.25 -0.01    +0.057    15.309
ATOM     22  C   UNL d   1       3.501   6.570  17.009 -0.29 +0.01    -0.019    15.309
ATOM     23  C   UNL d   1       4.440   6.055  15.992 -0.22 -0.01    +0.045    15.309
ATOM     24  C   UNL d   1       3.339   5.626  17.966 -0.32 +0.01    -0.022    15.309
ATOM     25  C   UNL d   1       5.769   6.311  13.924 -0.15 -0.00    +0.049    15.309
ATOM     26  C   UNL d   1       7.205   6.083  12.165 -0.23 -0.00    -0.018    15.309
ATOM     27  C   UNL d   1       6.640   7.008  13.097 -0.17 -0.00    +0.003    15.309
ATOM     28  C   UNL d   1       4.841   6.741  14.911 -0.25 -0.01    +0.052    15.309
ATOM     29  C   UNL d   1       2.503   5.681  19.199 -0.25 -0.01    +0.046    15.309
ATOM     30  C   UNL d   1       8.172   6.400  11.074 -0.13 +0.01    +0.046    15.309
ATOM     31  H   UNL d   1       5.465   4.194  16.010 -0.16 -0.05    +0.166    15.309
ATOM     32  H   UNL d   1       5.315   4.228  13.963 -0.18 -0.05    +0.166    15.309
ATOM     33  C   UNL d   1       8.437   0.972  11.071 -0.09 -0.01    +0.141    15.309
ATOM     34  C   UNL d   1       9.580   1.249  12.009 -0.00 -0.00    +0.306    15.309
ATOM     35  O   UNL d   1      10.205   2.293  12.094 -0.02 -0.00    -0.251    15.309
ATOM     36  O   UNL d   1       9.874   0.197  12.794 +0.01 +0.01    -0.481    15.309
ATOM     37  H   UNL d   1       9.206  -0.481  12.557 +0.03 -0.01    +0.295    15.309
ATOM     38  C   UNL d   1       6.901   8.415  13.125 -0.20 -0.00    +0.017    15.309
ATOM     39  C   UNL d   1       6.517   9.293  12.186 -0.28 -0.00    +0.092    15.309
ATOM     40  C   UNL d   1       6.834  10.715  12.343 -0.14 -0.01    +0.330    15.309
ATOM     41  O   UNL d   1       7.882  11.276  12.085 -0.08 -0.01    -0.246    15.309
ATOM     42  O   UNL d   1       5.769  11.375  12.825 -0.13 +0.05    -0.477    15.309
ATOM     43  H   UNL d   1       5.087  10.679  12.924 +0.06 -0.06    +0.295    15.309
ATOM     44  C   UNL d   1       5.520  -1.288  17.923 -0.05 -0.00    +0.141    15.309
ATOM     45  C   UNL d   1       4.335  -1.346  16.996 -0.11 -0.02    +0.306    15.309
ATOM     46  O   UNL d   1       3.247  -0.828  17.174 -0.20 +0.02    -0.251    15.309
ATOM     47  O   UNL d   1       4.577  -2.084  15.897 -0.16 +0.03    -0.481    15.309
ATOM     48  H   UNL d   1       3.789  -1.948  15.329 -0.50 -0.07    +0.295    15.309
ATOM     49  C   UNL d   1       2.844   7.918  16.944 -0.32 -0.02    +0.048    15.309
ATOM     50  C   UNL d   1       3.865   9.039  16.747 -0.25 -0.03    +0.125    15.309
ATOM     51  C   UNL d   1       3.725   9.658  15.385 -0.20 -0.08    +0.305    15.309
ATOM     52  O   UNL d   1       4.334  10.614  14.938 -0.26 +0.05    -0.251    15.309
ATOM     53  O   UNL d   1       2.793   9.032  14.640 -0.24 +0.15    -0.481    15.309
ATOM     54  H   UNL d   1       1.954   9.475  14.886 -0.35 -0.17    +0.295    15.309
TER
ENDMDL
MODEL       70
USER    Run = 70
USER    Cluster Rank = 26
USER    Number of conformations in this cluster = 1
USER  
USER    RMSD from reference structure       = 16.389 A
USER  
USER    Estimated Free Energy of Binding    =   -4.98 kcal/mol  [=(1)+(2)+(3)-(4)]
USER    Estimated Inhibition Constant, Ki   =  225.09 uM (micromolar)  [Temperature = 298.15 K]
USER    
USER    (1) Final Intermolecular Energy     =   -8.85 kcal/mol
USER        vdW + Hbond + desolv Energy     =   -8.33 kcal/mol
USER        Electrostatic Energy            =   -0.52 kcal/mol
USER    (2) Final Total Internal Energy     =   -3.64 kcal/mol
USER    (3) Torsional Free Energy           =   +3.88 kcal/mol
USER    (4) Unbound System's Energy  [=(2)] =   -3.64 kcal/mol
USER    
USER    
USER  
USER    DPF = D:/Protein_go_brrr/autodock/final/AncB/heme/dock.dpf
USER    NEWDPF move	heme_opt.pdbqt
USER    NEWDPF about	0.153000 0.018000 -0.028000
USER    NEWDPF tran0	3.278516 -3.848943 -16.511734
USER    NEWDPF axisangle0	0.838837 -0.541446 0.056475 136.182273
USER    NEWDPF quaternion0	0.778255 -0.502342 0.052396 0.373131
USER    NEWDPF dihe0	-179.89 -167.98 -144.48 33.21 -152.64 -98.45 140.25 57.92 15.13 13.73 -78.37 75.76 16.05 
USER  
USER                              x       y       z    vdW   Elec        q     RMS 
ATOM      1  O   UNL d   1      -0.429   0.734 -16.400 -0.01 -0.23    -0.289    16.389
ATOM      2  O   UNL d   1       4.856  -1.451 -11.532 -0.36 -0.06    -0.289    16.389
ATOM      3  N   UNL d   1       1.433  -2.138 -16.827 -0.05 -0.12    -0.247    16.389
ATOM      4  N   UNL d   1       3.417  -2.001 -14.620 -0.03 -0.07    -0.247    16.389
ATOM      5  N   UNL d   1       4.888  -4.092 -15.936 -0.11 -0.06    -0.354    16.389
ATOM      6  N   UNL d   1       2.834  -4.214 -18.232 -0.06 -0.09    -0.354    16.389
ATOM      7  C   UNL d   1      -0.217  -0.930 -18.179 -0.02 +0.05    +0.084    16.389
ATOM      8  C   UNL d   1       2.788  -0.734 -12.628 -0.34 +0.03    +0.084    16.389
ATOM      9  C   UNL d   1       2.465  -1.180 -14.058 -0.19 +0.02    +0.058    16.389
ATOM     10  C   UNL d   1       0.744  -2.113 -18.028 -0.06 +0.03    +0.058    16.389
ATOM     11  C   UNL d   1       0.037  -0.301 -16.842 -0.02 +0.13    +0.193    16.389
ATOM     12  C   UNL d   1       1.036  -1.140 -16.107 -0.08 +0.07    +0.109    16.389
ATOM     13  C   UNL d   1       4.117  -1.423 -12.497 -0.33 +0.04    +0.193    16.389
ATOM     14  C   UNL d   1       0.232   0.040 -19.275 +0.00 +0.01    +0.026    16.389
ATOM     15  C   UNL d   1       1.375  -0.764 -14.720 -0.18 +0.03    +0.055    16.389
ATOM     16  C   UNL d   1       1.816  -1.341 -11.611 -0.31 +0.01    +0.026    16.389
ATOM     17  C   UNL d   1       4.386  -2.149 -13.774 -0.25 +0.02    +0.109    16.389
ATOM     18  C   UNL d   1       0.821  -3.078 -18.963 -0.07 +0.02    +0.050    16.389
ATOM     19  C   UNL d   1       1.616  -4.250 -18.872 -0.10 +0.02    +0.045    16.389
ATOM     20  C   UNL d   1       5.798  -3.732 -14.976 -0.36 +0.01    +0.045    16.389
ATOM     21  C   UNL d   1       5.646  -2.885 -13.954 -0.27 +0.01    +0.057    16.389
ATOM     22  C   UNL d   1       6.775  -5.232 -16.396 -0.21 -0.00    -0.019    16.389
ATOM     23  C   UNL d   1       5.387  -4.993 -16.838 -0.23 +0.00    +0.045    16.389
ATOM     24  C   UNL d   1       7.012  -4.483 -15.292 -0.32 -0.00    -0.022    16.389
ATOM     25  C   UNL d   1       3.472  -5.428 -18.341 -0.17 +0.01    +0.049    16.389
ATOM     26  C   UNL d   1       1.442  -5.528 -19.378 -0.14 -0.01    -0.018    16.389
ATOM     27  C   UNL d   1       2.608  -6.274 -19.022 -0.18 +0.00    +0.003    16.389
ATOM     28  C   UNL d   1       4.812  -5.590 -17.894 -0.19 +0.00    +0.052    16.389
ATOM     29  C   UNL d   1       8.257  -4.391 -14.477 -0.42 +0.01    +0.046    16.389
ATOM     30  C   UNL d   1       0.264  -6.031 -20.143 -0.12 +0.02    +0.046    16.389
ATOM     31  H   UNL d   1       3.928  -3.765 -15.900 +0.07 +0.04    +0.166    16.389
ATOM     32  H   UNL d   1       3.208  -3.386 -17.785 +0.03 +0.05    +0.166    16.389
ATOM     33  C   UNL d   1      -1.697  -1.299 -18.326 -0.03 +0.10    +0.141    16.389
ATOM     34  C   UNL d   1      -2.240  -2.008 -17.115 -0.05 +0.38    +0.306    16.389
ATOM     35  O   UNL d   1      -2.377  -3.213 -16.987 -0.11 -0.33    -0.251    16.389
ATOM     36  O   UNL d   1      -2.580  -1.160 -16.128 -0.46 -0.96    -0.481    16.389
ATOM     37  H   UNL d   1      -2.335  -0.274 -16.468 +0.03 +0.37    +0.295    16.389
ATOM     38  C   UNL d   1       2.848  -7.644 -19.363 -0.19 +0.00    +0.017    16.389
ATOM     39  C   UNL d   1       2.160  -8.692 -18.885 -0.05 +0.01    +0.092    16.389
ATOM     40  C   UNL d   1       2.495 -10.048 -19.329 -0.19 +0.03    +0.330    16.389
ATOM     41  O   UNL d   1       1.921 -10.720 -20.164 -0.10 -0.03    -0.246    16.389
ATOM     42  O   UNL d   1       3.581 -10.492 -18.677 -0.39 -0.01    -0.477    16.389
ATOM     43  H   UNL d   1       3.705  -9.841 -17.957 -0.08 -0.03    +0.295    16.389
ATOM     44  C   UNL d   1       2.931   0.778 -12.424 -0.19 +0.04    +0.141    16.389
ATOM     45  C   UNL d   1       3.568   1.477 -13.595 -0.22 +0.09    +0.306    16.389
ATOM     46  O   UNL d   1       2.990   2.043 -14.507 -0.19 -0.10    -0.251    16.389
ATOM     47  O   UNL d   1       4.911   1.404 -13.570 -0.21 -0.08    -0.481    16.389
ATOM     48  H   UNL d   1       5.104   0.522 -13.186 -0.29 -0.03    +0.295    16.389
ATOM     49  C   UNL d   1       7.737  -6.148 -17.094 -0.14 +0.00    +0.048    16.389
ATOM     50  C   UNL d   1       7.311  -7.611 -16.983 -0.19 +0.01    +0.125    16.389
ATOM     51  C   UNL d   1       6.680  -8.086 -18.261 -0.11 +0.01    +0.305    16.389
ATOM     52  O   UNL d   1       7.131  -7.996 -19.390 -0.04 -0.02    -0.251    16.389
ATOM     53  O   UNL d   1       5.476  -8.654 -18.049 -0.11 +0.03    -0.481    16.389
ATOM     54  H   UNL d   1       5.416  -9.349 -18.738 +0.07 +0.02    +0.295    16.389
TER
ENDMDL
MODEL       49
USER    Run = 49
USER    Cluster Rank = 27
USER    Number of conformations in this cluster = 4
USER  
USER    RMSD from reference structure       = 16.081 A
USER  
USER    Estimated Free Energy of Binding    =   -4.95 kcal/mol  [=(1)+(2)+(3)-(4)]
USER    Estimated Inhibition Constant, Ki   =  233.40 uM (micromolar)  [Temperature = 298.15 K]
USER    
USER    (1) Final Intermolecular Energy     =   -8.83 kcal/mol
USER        vdW + Hbond + desolv Energy     =   -8.49 kcal/mol
USER        Electrostatic Energy            =   -0.34 kcal/mol
USER    (2) Final Total Internal Energy     =   -3.31 kcal/mol
USER    (3) Torsional Free Energy           =   +3.88 kcal/mol
USER    (4) Unbound System's Energy  [=(2)] =   -3.31 kcal/mol
USER    
USER    
USER  
USER    DPF = D:/Protein_go_brrr/autodock/final/AncB/heme/dock.dpf
USER    NEWDPF move	heme_opt.pdbqt
USER    NEWDPF about	0.153000 0.018000 -0.028000
USER    NEWDPF tran0	-17.153618 2.947284 9.825172
USER    NEWDPF axisangle0	0.698959 0.028654 0.714588 -158.330396
USER    NEWDPF quaternion0	0.686499 0.028143 0.701849 -0.187978
USER    NEWDPF dihe0	-27.43 108.23 -141.84 -24.45 -110.82 115.65 130.42 -84.22 -179.98 -9.73 -122.52 -107.26 -7.13 
USER  
USER                              x       y       z    vdW   Elec        q     RMS 
ATOM      1  O   UNL d   1     -16.977  -0.459   5.016 -0.21 +0.03    -0.289    16.081
ATOM      2  O   UNL d   1     -17.636   6.985   5.763 -0.01 -0.03    -0.289    16.081
ATOM      3  N   UNL d   1     -17.174   1.101   8.086 -0.08 -0.02    -0.247    16.081
ATOM      4  N   UNL d   1     -17.104   3.989   7.391 -0.07 -0.02    -0.247    16.081
ATOM      5  N   UNL d   1     -16.614   4.551  10.168 -0.05 +0.02    -0.354    16.081
ATOM      6  N   UNL d   1     -16.669   1.551  10.877 -0.15 +0.00    -0.354    16.081
ATOM      7  C   UNL d   1     -16.771  -1.198   7.337 -0.24 +0.01    +0.084    16.081
ATOM      8  C   UNL d   1     -17.907   4.624   5.172 -0.05 +0.01    +0.084    16.081
ATOM      9  C   UNL d   1     -17.553   3.522   6.176 -0.09 +0.01    +0.058    16.081
ATOM     10  C   UNL d   1     -16.914  -0.199   8.489 -0.19 +0.01    +0.058    16.081
ATOM     11  C   UNL d   1     -17.013  -0.236   6.213 -0.19 +0.00    +0.193    16.081
ATOM     12  C   UNL d   1     -17.270   1.118   6.797 -0.14 +0.01    +0.109    16.081
ATOM     13  C   UNL d   1     -17.538   5.803   6.029 -0.02 +0.02    +0.193    16.081
ATOM     14  C   UNL d   1     -15.345  -1.743   7.224 -0.30 +0.00    +0.026    16.081
ATOM     15  C   UNL d   1     -17.628   2.216   5.876 -0.15 +0.00    +0.055    16.081
ATOM     16  C   UNL d   1     -19.411   4.673   4.888 -0.03 +0.00    +0.026    16.081
ATOM     17  C   UNL d   1     -17.059   5.282   7.345 -0.09 +0.01    +0.109    16.081
ATOM     18  C   UNL d   1     -16.877  -0.597   9.774 -0.27 +0.01    +0.050    16.081
ATOM     19  C   UNL d   1     -17.084   0.239  10.901 -0.24 +0.01    +0.045    16.081
ATOM     20  C   UNL d   1     -16.389   5.793   9.633 -0.16 +0.00    +0.045    16.081
ATOM     21  C   UNL d   1     -16.586   6.213   8.380 -0.16 +0.00    +0.057    16.081
ATOM     22  C   UNL d   1     -15.820   5.827  11.845 -0.29 -0.00    -0.019    16.081
ATOM     23  C   UNL d   1     -16.299   4.474  11.499 +0.04 -0.00    +0.045    16.081
ATOM     24  C   UNL d   1     -15.876   6.603  10.737 -0.24 -0.00    -0.022    16.081
ATOM     25  C   UNL d   1     -16.884   2.148  12.098 -0.28 -0.00    +0.049    16.081
ATOM     26  C   UNL d   1     -17.616  -0.013  12.156 -0.21 -0.00    -0.018    16.081
ATOM     27  C   UNL d   1     -17.505   1.202  12.901 -0.23 +0.00    +0.003    16.081
ATOM     28  C   UNL d   1     -16.395   3.455  12.367 -0.32 -0.00    +0.052    16.081
ATOM     29  C   UNL d   1     -15.511   8.041  10.585 -0.22 +0.00    +0.046    16.081
ATOM     30  C   UNL d   1     -18.194  -1.301  12.636 -0.20 +0.01    +0.046    16.081
ATOM     31  H   UNL d   1     -17.047   3.813   9.622 +0.01 -0.00    +0.166    16.081
ATOM     32  H   UNL d   1     -16.230   1.986  10.074 -0.02 -0.01    +0.166    16.081
ATOM     33  C   UNL d   1     -17.808  -2.326   7.313 -0.17 +0.02    +0.141    16.081
ATOM     34  C   UNL d   1     -17.185  -3.681   7.113 -0.24 +0.06    +0.306    16.081
ATOM     35  O   UNL d   1     -16.471  -4.015   6.183 -0.43 -0.02    -0.251    16.081
ATOM     36  O   UNL d   1     -17.493  -4.543   8.098 -0.65 -0.32    -0.481    16.081
ATOM     37  H   UNL d   1     -17.484  -5.424   7.666 -0.37 -0.17    +0.295    16.081
ATOM     38  C   UNL d   1     -17.923   1.378  14.259 -0.21 +0.00    +0.017    16.081
ATOM     39  C   UNL d   1     -17.102   1.535  15.308 -0.30 -0.01    +0.092    16.081
ATOM     40  C   UNL d   1     -17.659   1.724  16.650 -0.14 -0.04    +0.330    16.081
ATOM     41  O   UNL d   1     -17.579   0.970  17.602 -0.16 +0.04    -0.246    16.081
ATOM     42  O   UNL d   1     -18.301   2.900  16.722 -0.05 +0.03    -0.477    16.081
ATOM     43  H   UNL d   1     -17.580   3.562  16.712 +0.06 -0.03    +0.295    16.081
ATOM     44  C   UNL d   1     -17.097   4.617   3.872 -0.10 +0.02    +0.141    16.081
ATOM     45  C   UNL d   1     -15.615   4.766   4.094 -0.14 +0.05    +0.306    16.081
ATOM     46  O   UNL d   1     -14.821   3.871   4.323 -0.27 -0.04    -0.251    16.081
ATOM     47  O   UNL d   1     -15.213   6.049   4.041 -0.03 -0.07    -0.481    16.081
ATOM     48  H   UNL d   1     -15.939   6.554   4.464 +0.09 +0.04    +0.295    16.081
ATOM     49  C   UNL d   1     -15.341   6.227  13.210 -0.28 +0.00    +0.048    16.081
ATOM     50  C   UNL d   1     -16.478   6.772  14.074 -0.14 +0.02    +0.125    16.081
ATOM     51  C   UNL d   1     -17.572   5.753  14.224 -0.08 +0.02    +0.305    16.081
ATOM     52  O   UNL d   1     -18.551   5.604  13.514 -0.03 -0.01    -0.251    16.081
ATOM     53  O   UNL d   1     -17.381   4.961  15.298 -0.03 -0.02    -0.481    16.081
ATOM     54  H   UNL d   1     -18.281   4.652  15.530 +0.04 +0.00    +0.295    16.081
TER
ENDMDL
MODEL       33
USER    Run = 33
USER    Cluster Rank = 28
USER    Number of conformations in this cluster = 1
USER  
USER    RMSD from reference structure       = 16.552 A
USER  
USER    Estimated Free Energy of Binding    =   -4.92 kcal/mol  [=(1)+(2)+(3)-(4)]
USER    Estimated Inhibition Constant, Ki   =  248.54 uM (micromolar)  [Temperature = 298.15 K]
USER    
USER    (1) Final Intermolecular Energy     =   -8.80 kcal/mol
USER        vdW + Hbond + desolv Energy     =   -8.60 kcal/mol
USER        Electrostatic Energy            =   -0.19 kcal/mol
USER    (2) Final Total Internal Energy     =   -3.01 kcal/mol
USER    (3) Torsional Free Energy           =   +3.88 kcal/mol
USER    (4) Unbound System's Energy  [=(2)] =   -3.01 kcal/mol
USER    
USER    
USER  
USER    DPF = D:/Protein_go_brrr/autodock/final/AncB/heme/dock.dpf
USER    NEWDPF move	heme_opt.pdbqt
USER    NEWDPF about	0.153000 0.018000 -0.028000
USER    NEWDPF tran0	18.245545 2.966955 -9.176246
USER    NEWDPF axisangle0	-0.898156 -0.078657 -0.432584 152.041497
USER    NEWDPF quaternion0	-0.871556 -0.076327 -0.419772 0.241571
USER    NEWDPF dihe0	155.57 -171.95 58.40 -58.58 -50.81 -16.93 -8.05 -108.15 -123.85 -179.67 -99.81 -5.54 -12.54 
USER  
USER                              x       y       z    vdW   Elec        q     RMS 
ATOM      1  O   UNL d   1      15.058  -0.621 -12.600 -0.14 -0.10    -0.289    16.552
ATOM      2  O   UNL d   1      15.680   6.862 -12.535 -0.59 -0.17    -0.289    16.552
ATOM      3  N   UNL d   1      16.973   1.074 -10.286 -0.15 -0.12    -0.247    16.552
ATOM      4  N   UNL d   1      16.848   3.890 -11.227 -0.12 -0.19    -0.247    16.552
ATOM      5  N   UNL d   1      19.021   4.486  -9.441 -0.06 -0.37    -0.354    16.552
ATOM      6  N   UNL d   1      19.157   1.559  -8.485 -0.06 -0.18    -0.354    16.552
ATOM      7  C   UNL d   1      16.609  -1.287 -10.832 -0.22 +0.03    +0.084    16.552
ATOM      8  C   UNL d   1      14.890   4.546 -12.534 -0.30 +0.04    +0.084    16.552
ATOM      9  C   UNL d   1      15.695   3.445 -11.836 -0.24 +0.03    +0.058    16.552
ATOM     10  C   UNL d   1      17.311  -0.232  -9.972 -0.21 +0.02    +0.058    16.552
ATOM     11  C   UNL d   1      15.801  -0.347 -11.675 -0.19 +0.07    +0.193    16.552
ATOM     12  C   UNL d   1      16.090   1.053 -11.230 -0.24 +0.05    +0.109    16.552
ATOM     13  C   UNL d   1      15.818   5.691 -12.242 -0.26 +0.11    +0.193    16.552
ATOM     14  C   UNL d   1      17.591  -2.040 -11.733 -0.10 +0.01    +0.026    16.552
ATOM     15  C   UNL d   1      15.333   2.153 -11.861 -0.31 +0.02    +0.055    16.552
ATOM     16  C   UNL d   1      13.553   4.803 -11.833 -0.18 +0.01    +0.026    16.552
ATOM     17  C   UNL d   1      16.968   5.159 -11.450 -0.24 +0.08    +0.109    16.552
ATOM     18  C   UNL d   1      18.111  -0.579  -8.947 -0.23 +0.02    +0.050    16.552
ATOM     19  C   UNL d   1      18.734   0.324  -8.048 -0.21 +0.02    +0.045    16.552
ATOM     20  C   UNL d   1      18.969   5.659 -10.150 -0.19 +0.04    +0.045    16.552
ATOM     21  C   UNL d   1      18.067   6.052 -11.054 -0.28 +0.04    +0.057    16.552
ATOM     22  C   UNL d   1      20.802   5.699  -8.787 -0.07 -0.01    -0.019    16.552
ATOM     23  C   UNL d   1      20.093   4.419  -8.593 -0.09 +0.03    +0.045    16.552
ATOM     24  C   UNL d   1      20.131   6.429  -9.709 -0.14 -0.01    -0.022    16.552
ATOM     25  C   UNL d   1      19.810   2.230  -7.478 -0.13 +0.03    +0.049    16.552
ATOM     26  C   UNL d   1      19.089   0.204  -6.713 -0.24 -0.01    -0.018    16.552
ATOM     27  C   UNL d   1      19.751   1.419  -6.353 -0.15 +0.00    +0.003    16.552
ATOM     28  C   UNL d   1      20.474   3.461  -7.733 -0.09 +0.03    +0.052    16.552
ATOM     29  C   UNL d   1      20.446   7.790 -10.230 -0.12 +0.02    +0.046    16.552
ATOM     30  C   UNL d   1      18.829  -0.964  -5.824 -0.34 +0.02    +0.046    16.552
ATOM     31  H   UNL d   1      18.277   3.799  -9.507 +0.04 +0.21    +0.166    16.552
ATOM     32  H   UNL d   1      19.030   1.891  -9.434 +0.04 +0.09    +0.166    16.552
ATOM     33  C   UNL d   1      15.692  -2.251 -10.071 -0.23 +0.06    +0.141    16.552
ATOM     34  C   UNL d   1      16.457  -3.302  -9.313 -0.19 +0.13    +0.306    16.552
ATOM     35  O   UNL d   1      17.670  -3.387  -9.226 -0.12 -0.09    -0.251    16.552
ATOM     36  O   UNL d   1      15.652  -4.189  -8.702 -0.16 -0.28    -0.481    16.552
ATOM     37  H   UNL d   1      14.820  -3.696  -8.540 -0.36 +0.13    +0.295    16.552
ATOM     38  C   UNL d   1      20.297   1.710  -5.062 -0.05 +0.01    +0.017    16.552
ATOM     39  C   UNL d   1      20.375   2.931  -4.511 -0.09 +0.03    +0.092    16.552
ATOM     40  C   UNL d   1      20.942   3.092  -3.170 -0.05 +0.07    +0.330    16.552
ATOM     41  O   UNL d   1      21.086   2.238  -2.316 -0.06 -0.04    -0.246    16.552
ATOM     42  O   UNL d   1      21.318   4.366  -2.977 -0.00 -0.09    -0.477    16.552
ATOM     43  H   UNL d   1      20.972   4.834  -3.765 +0.04 +0.07    +0.295    16.552
ATOM     44  C   UNL d   1      14.698   4.366 -14.044 -0.20 +0.04    +0.141    16.552
ATOM     45  C   UNL d   1      13.268   4.529 -14.485 -0.27 +0.06    +0.306    16.552
ATOM     46  O   UNL d   1      12.296   3.956 -14.025 -0.37 -0.05    -0.251    16.552
ATOM     47  O   UNL d   1      13.140   5.393 -15.508 -0.16 -0.02    -0.481    16.552
ATOM     48  H   UNL d   1      12.521   6.079 -15.178 -0.40 -0.07    +0.295    16.552
ATOM     49  C   UNL d   1      22.065   6.080  -8.072 -0.03 +0.01    +0.048    16.552
ATOM     50  C   UNL d   1      21.783   6.934  -6.836 -0.04 +0.03    +0.125    16.552
ATOM     51  C   UNL d   1      21.379   6.076  -5.671 -0.01 +0.09    +0.305    16.552
ATOM     52  O   UNL d   1      20.298   6.047  -5.109 -0.04 -0.10    -0.251    16.552
ATOM     53  O   UNL d   1      22.386   5.284  -5.254 +0.01 -0.11    -0.481    16.552
ATOM     54  H   UNL d   1      22.520   5.541  -4.318 +0.01 +0.06    +0.295    16.552
TER
ENDMDL
MODEL       29
USER    Run = 29
USER    Cluster Rank = 29
USER    Number of conformations in this cluster = 1
USER  
USER    RMSD from reference structure       = 16.295 A
USER  
USER    Estimated Free Energy of Binding    =   -4.91 kcal/mol  [=(1)+(2)+(3)-(4)]
USER    Estimated Inhibition Constant, Ki   =  253.09 uM (micromolar)  [Temperature = 298.15 K]
USER    
USER    (1) Final Intermolecular Energy     =   -8.78 kcal/mol
USER        vdW + Hbond + desolv Energy     =   -8.39 kcal/mol
USER        Electrostatic Energy            =   -0.40 kcal/mol
USER    (2) Final Total Internal Energy     =   -3.46 kcal/mol
USER    (3) Torsional Free Energy           =   +3.88 kcal/mol
USER    (4) Unbound System's Energy  [=(2)] =   -3.46 kcal/mol
USER    
USER    
USER  
USER    DPF = D:/Protein_go_brrr/autodock/final/AncB/heme/dock.dpf
USER    NEWDPF move	heme_opt.pdbqt
USER    NEWDPF about	0.153000 0.018000 -0.028000
USER    NEWDPF tran0	4.587836 -0.913101 -16.008992
USER    NEWDPF axisangle0	0.136635 0.876450 -0.461699 126.147638
USER    NEWDPF quaternion0	0.121822 0.781435 -0.411646 0.452842
USER    NEWDPF dihe0	144.11 -173.12 -84.61 70.64 -138.55 0.93 132.26 -14.13 15.71 -30.29 77.16 -78.14 155.85 
USER  
USER                              x       y       z    vdW   Elec        q     RMS 
ATOM      1  O   UNL d   1       6.899  -3.352 -20.853 +0.00 -0.05    -0.289    16.295
ATOM      2  O   UNL d   1       8.236  -4.628 -13.574 -0.23 -0.05    -0.289    16.295
ATOM      3  N   UNL d   1       5.378  -1.556 -18.332 -0.02 -0.06    -0.247    16.295
ATOM      4  N   UNL d   1       6.275  -2.949 -15.864 -0.13 -0.03    -0.247    16.295
ATOM      5  N   UNL d   1       4.247  -1.507 -14.424 -0.11 -0.06    -0.354    16.295
ATOM      6  N   UNL d   1       3.310  -0.082 -16.992 -0.02 -0.14    -0.354    16.295
ATOM      7  C   UNL d   1       5.144  -1.653 -20.769 -0.00 +0.02    +0.084    16.295
ATOM      8  C   UNL d   1       8.398  -4.155 -15.971 -0.18 +0.01    +0.084    16.295
ATOM      9  C   UNL d   1       7.301  -3.359 -16.686 -0.14 +0.01    +0.058    16.295
ATOM     10  C   UNL d   1       4.699  -1.058 -19.430 -0.03 +0.02    +0.058    16.295
ATOM     11  C   UNL d   1       6.208  -2.564 -20.235 +0.00 +0.04    +0.193    16.295
ATOM     12  C   UNL d   1       6.271  -2.394 -18.748 -0.02 +0.02    +0.109    16.295
ATOM     13  C   UNL d   1       7.785  -4.153 -14.598 -0.27 +0.02    +0.193    16.295
ATOM     14  C   UNL d   1       4.045  -2.502 -21.414 -0.00 +0.01    +0.026    16.295
ATOM     15  C   UNL d   1       7.317  -3.128 -18.008 -0.07 +0.01    +0.055    16.295
ATOM     16  C   UNL d   1       9.720  -3.383 -15.921 -0.26 +0.00    +0.026    16.295
ATOM     17  C   UNL d   1       6.499  -3.396 -14.671 -0.31 +0.01    +0.109    16.295
ATOM     18  C   UNL d   1       3.787  -0.070 -19.369 -0.05 +0.02    +0.050    16.295
ATOM     19  C   UNL d   1       3.376   0.598 -18.187 -0.07 +0.02    +0.045    16.295
ATOM     20  C   UNL d   1       4.635  -2.397 -13.457 -0.36 +0.01    +0.045    16.295
ATOM     21  C   UNL d   1       5.652  -3.265 -13.476 -0.42 +0.01    +0.057    16.295
ATOM     22  C   UNL d   1       2.811  -1.243 -12.709 -0.35 -0.01    -0.019    16.295
ATOM     23  C   UNL d   1       3.154  -0.765 -14.064 -0.26 +0.01    +0.045    16.295
ATOM     24  C   UNL d   1       3.693  -2.207 -12.355 -0.40 -0.01    -0.022    16.295
ATOM     25  C   UNL d   1       2.805   0.729 -16.002 -0.13 +0.02    +0.049    16.295
ATOM     26  C   UNL d   1       2.938   1.894 -17.960 -0.10 -0.01    -0.018    16.295
ATOM     27  C   UNL d   1       2.597   1.976 -16.575 -0.16 +0.00    +0.003    16.295
ATOM     28  C   UNL d   1       2.496   0.205 -14.717 -0.22 +0.02    +0.052    16.295
ATOM     29  C   UNL d   1       3.767  -2.981 -11.083 -0.43 +0.01    +0.046    16.295
ATOM     30  C   UNL d   1       2.842   2.990 -18.966 -0.11 +0.02    +0.046    16.295
ATOM     31  H   UNL d   1       4.789  -1.383 -15.273 +0.03 +0.02    +0.166    16.295
ATOM     32  H   UNL d   1       3.564  -1.057 -16.887 +0.05 +0.06    +0.166    16.295
ATOM     33  C   UNL d   1       5.741  -0.655 -21.766 -0.01 +0.03    +0.141    16.295
ATOM     34  C   UNL d   1       7.013  -0.026 -21.265 -0.02 +0.08    +0.306    16.295
ATOM     35  O   UNL d   1       7.096   0.945 -20.531 -0.09 -0.09    -0.251    16.295
ATOM     36  O   UNL d   1       8.114  -0.656 -21.711 +0.01 -0.10    -0.481    16.295
ATOM     37  H   UNL d   1       7.878  -1.608 -21.694 +0.02 +0.06    +0.295    16.295
ATOM     38  C   UNL d   1       2.083   3.141 -15.919 -0.22 +0.01    +0.017    16.295
ATOM     39  C   UNL d   1       1.096   3.146 -15.010 -0.23 +0.07    +0.092    16.295
ATOM     40  C   UNL d   1       0.673   4.408 -14.398 -0.19 +0.30    +0.330    16.295
ATOM     41  O   UNL d   1       1.127   5.519 -14.596 -0.27 -0.19    -0.246    16.295
ATOM     42  O   UNL d   1      -0.342   4.192 -13.548 -0.94 -0.69    -0.477    16.295
ATOM     43  H   UNL d   1      -0.418   3.216 -13.516 +0.12 +0.39    +0.295    16.295
ATOM     44  C   UNL d   1       8.610  -5.587 -16.474 -0.11 +0.02    +0.141    16.295
ATOM     45  C   UNL d   1       7.600  -6.563 -15.932 -0.18 +0.01    +0.306    16.295
ATOM     46  O   UNL d   1       6.514  -6.829 -16.417 -0.27 +0.00    -0.251    16.295
ATOM     47  O   UNL d   1       8.004  -7.137 -14.785 -0.15 +0.00    -0.481    16.295
ATOM     48  H   UNL d   1       7.605  -6.586 -14.078 -0.18 -0.06    +0.295    16.295
ATOM     49  C   UNL d   1       1.657  -0.727 -11.901 -0.22 +0.02    +0.048    16.295
ATOM     50  C   UNL d   1       0.316  -1.212 -12.451 -0.24 +0.10    +0.125    16.295
ATOM     51  C   UNL d   1      -0.364  -0.130 -13.239 -0.13 +0.30    +0.305    16.295
ATOM     52  O   UNL d   1      -0.160   1.070 -13.183 -0.10 -0.22    -0.251    16.295
ATOM     53  O   UNL d   1      -1.301  -0.625 -14.072 -0.27 -0.81    -0.481    16.295
ATOM     54  H   UNL d   1      -0.918  -0.497 -14.965 +0.07 +0.38    +0.295    16.295
TER
ENDMDL
MODEL       77
USER    Run = 77
USER    Cluster Rank = 30
USER    Number of conformations in this cluster = 2
USER  
USER    RMSD from reference structure       = 16.599 A
USER  
USER    Estimated Free Energy of Binding    =   -4.78 kcal/mol  [=(1)+(2)+(3)-(4)]
USER    Estimated Inhibition Constant, Ki   =  314.48 uM (micromolar)  [Temperature = 298.15 K]
USER    
USER    (1) Final Intermolecular Energy     =   -8.66 kcal/mol
USER        vdW + Hbond + desolv Energy     =   -8.58 kcal/mol
USER        Electrostatic Energy            =   -0.07 kcal/mol
USER    (2) Final Total Internal Energy     =   -4.15 kcal/mol
USER    (3) Torsional Free Energy           =   +3.88 kcal/mol
USER    (4) Unbound System's Energy  [=(2)] =   -4.15 kcal/mol
USER    
USER    
USER  
USER    DPF = D:/Protein_go_brrr/autodock/final/AncB/heme/dock.dpf
USER    NEWDPF move	heme_opt.pdbqt
USER    NEWDPF about	0.153000 0.018000 -0.028000
USER    NEWDPF tran0	15.794103 -0.697553 -11.805968
USER    NEWDPF axisangle0	-0.821842 0.211739 -0.528907 -167.783596
USER    NEWDPF quaternion0	-0.817176 0.210537 -0.525904 -0.106406
USER    NEWDPF dihe0	83.92 -171.70 -126.99 21.60 180.00 8.68 126.10 179.32 106.84 -52.97 -52.10 -47.06 -7.66 
USER  
USER                              x       y       z    vdW   Elec        q     RMS 
ATOM      1  O   UNL d   1      13.978   0.329 -17.320 -0.01 -0.10    -0.289    16.599
ATOM      2  O   UNL d   1      14.540   4.896 -11.385 -0.34 -0.21    -0.289    16.599
ATOM      3  N   UNL d   1      14.981  -0.767 -14.208 -0.13 -0.07    -0.247    16.599
ATOM      4  N   UNL d   1      15.187   1.744 -12.632 -0.15 -0.09    -0.247    16.599
ATOM      5  N   UNL d   1      16.613   0.259 -10.625 -0.11 -0.13    -0.354    16.599
ATOM      6  N   UNL d   1      16.412  -2.337 -12.275 -0.06 -0.12    -0.354    16.599
ATOM      7  C   UNL d   1      14.827  -1.784 -16.432 -0.07 +0.02    +0.084    16.599
ATOM      8  C   UNL d   1      13.797   3.625 -13.341 -0.34 +0.03    +0.084    16.599
ATOM      9  C   UNL d   1      14.314   2.204 -13.592 -0.28 +0.02    +0.058    16.599
ATOM     10  C   UNL d   1      15.190  -1.917 -14.950 -0.12 +0.01    +0.058    16.599
ATOM     11  C   UNL d   1      14.358  -0.361 -16.392 -0.07 +0.06    +0.193    16.599
ATOM     12  C   UNL d   1      14.477   0.136 -14.984 -0.19 +0.03    +0.109    16.599
ATOM     13  C   UNL d   1      14.568   3.899 -12.080 -0.26 +0.10    +0.193    16.599
ATOM     14  C   UNL d   1      16.060  -1.874 -17.336 -0.02 +0.00    +0.026    16.599
ATOM     15  C   UNL d   1      13.982   1.494 -14.681 -0.28 +0.02    +0.055    16.599
ATOM     16  C   UNL d   1      12.301   3.636 -13.016 -0.55 +0.00    +0.026    16.599
ATOM     17  C   UNL d   1      15.376   2.684 -11.762 -0.23 +0.06    +0.109    16.599
ATOM     18  C   UNL d   1      15.590  -3.091 -14.427 -0.12 +0.01    +0.050    16.599
ATOM     19  C   UNL d   1      15.865  -3.330 -13.056 -0.09 +0.02    +0.045    16.599
ATOM     20  C   UNL d   1      16.808   1.533 -10.159 -0.26 +0.03    +0.045    16.599
ATOM     21  C   UNL d   1      16.271   2.677 -10.596 -0.19 +0.04    +0.057    16.599
ATOM     22  C   UNL d   1      18.061   0.089  -8.908 -0.23 -0.01    -0.019    16.599
ATOM     23  C   UNL d   1      17.328  -0.681  -9.933 -0.22 +0.01    +0.045    16.599
ATOM     24  C   UNL d   1      17.747   1.399  -9.046 -0.26 -0.01    -0.022    16.599
ATOM     25  C   UNL d   1      16.680  -2.810 -11.011 -0.18 +0.02    +0.049    16.599
ATOM     26  C   UNL d   1      15.740  -4.465 -12.270 -0.11 -0.01    -0.018    16.599
ATOM     27  C   UNL d   1      16.237  -4.125 -10.974 -0.19 +0.00    +0.003    16.599
ATOM     28  C   UNL d   1      17.390  -2.015 -10.071 -0.21 +0.02    +0.052    16.599
ATOM     29  C   UNL d   1      18.222   2.561  -8.242 -0.21 +0.05    +0.046    16.599
ATOM     30  C   UNL d   1      15.190  -5.784 -12.694 -0.16 +0.03    +0.046    16.599
ATOM     31  H   UNL d   1      15.938   0.064 -11.357 +0.07 +0.06    +0.166    16.599
ATOM     32  H   UNL d   1      16.620  -1.406 -12.616 +0.04 +0.05    +0.166    16.599
ATOM     33  C   UNL d   1      13.705  -2.707 -16.919 -0.09 +0.03    +0.141    16.599
ATOM     34  C   UNL d   1      12.984  -2.157 -18.120 -0.05 +0.08    +0.306    16.599
ATOM     35  O   UNL d   1      11.781  -1.984 -18.221 -0.62 -0.11    -0.251    16.599
ATOM     36  O   UNL d   1      13.817  -1.854 -19.131 -0.01 -0.11    -0.481    16.599
ATOM     37  H   UNL d   1      13.955  -0.885 -19.055 +0.03 +0.07    +0.295    16.599
ATOM     38  C   UNL d   1      16.306  -5.017  -9.857 -0.25 +0.01    +0.017    16.599
ATOM     39  C   UNL d   1      16.947  -4.767  -8.705 -0.22 +0.04    +0.092    16.599
ATOM     40  C   UNL d   1      16.926  -5.760  -7.628 -0.11 +0.15    +0.330    16.599
ATOM     41  O   UNL d   1      16.473  -6.888  -7.665 -0.13 -0.13    -0.246    16.599
ATOM     42  O   UNL d   1      17.508  -5.260  -6.527 -0.03 -0.17    -0.477    16.599
ATOM     43  H   UNL d   1      17.653  -4.316  -6.746 +0.11 +0.11    +0.295    16.599
ATOM     44  C   UNL d   1      14.136   4.653 -14.426 -0.27 +0.03    +0.141    16.599
ATOM     45  C   UNL d   1      15.270   5.567 -14.045 -0.14 +0.09    +0.306    16.599
ATOM     46  O   UNL d   1      16.461   5.324 -14.131 -0.06 -0.08    -0.251    16.599
ATOM     47  O   UNL d   1      14.839   6.740 -13.545 -0.48 -0.18    -0.481    16.599
ATOM     48  H   UNL d   1      14.212   6.490 -12.833 +0.13 +0.12    +0.295    16.599
ATOM     49  C   UNL d   1      19.001  -0.519  -7.909 -0.21 +0.02    +0.048    16.599
ATOM     50  C   UNL d   1      18.284  -0.902  -6.614 -0.28 +0.04    +0.125    16.599
ATOM     51  C   UNL d   1      18.583  -2.326  -6.237 -0.17 +0.10    +0.305    16.599
ATOM     52  O   UNL d   1      18.269  -2.905  -5.212 -0.25 -0.08    -0.251    16.599
ATOM     53  O   UNL d   1      19.292  -2.962  -7.191 -0.03 -0.13    -0.481    16.599
ATOM     54  H   UNL d   1      19.127  -3.912  -7.017 +0.07 +0.08    +0.295    16.599
TER
ENDMDL
MODEL       16
USER    Run = 16
USER    Cluster Rank = 31
USER    Number of conformations in this cluster = 1
USER  
USER    RMSD from reference structure       = 14.825 A
USER  
USER    Estimated Free Energy of Binding    =   -4.69 kcal/mol  [=(1)+(2)+(3)-(4)]
USER    Estimated Inhibition Constant, Ki   =  362.38 uM (micromolar)  [Temperature = 298.15 K]
USER    
USER    (1) Final Intermolecular Energy     =   -8.57 kcal/mol
USER        vdW + Hbond + desolv Energy     =   -8.47 kcal/mol
USER        Electrostatic Energy            =   -0.10 kcal/mol
USER    (2) Final Total Internal Energy     =   -3.01 kcal/mol
USER    (3) Torsional Free Energy           =   +3.88 kcal/mol
USER    (4) Unbound System's Energy  [=(2)] =   -3.01 kcal/mol
USER    
USER    
USER  
USER    DPF = D:/Protein_go_brrr/autodock/final/AncB/heme/dock.dpf
USER    NEWDPF move	heme_opt.pdbqt
USER    NEWDPF about	0.153000 0.018000 -0.028000
USER    NEWDPF tran0	-17.103440 3.115021 6.937732
USER    NEWDPF axisangle0	0.427046 -0.783237 0.451854 115.743650
USER    NEWDPF quaternion0	0.361648 -0.663292 0.382657 0.531815
USER    NEWDPF dihe0	-117.41 153.55 5.35 -57.97 29.71 -34.19 120.82 50.35 131.79 10.74 -25.86 -4.50 -2.10 
USER  
USER                              x       y       z    vdW   Elec        q     RMS 
ATOM      1  O   UNL d   1     -15.620   8.764   7.745 -0.08 -0.02    -0.289    14.825
ATOM      2  O   UNL d   1     -17.843   3.506  12.624 -0.07 -0.01    -0.289    14.825
ATOM      3  N   UNL d   1     -16.526   5.579   6.776 -0.07 -0.02    -0.247    14.825
ATOM      4  N   UNL d   1     -16.943   4.172   9.360 -0.08 -0.00    -0.247    14.825
ATOM      5  N   UNL d   1     -16.945   1.693   7.904 -0.01 -0.03    -0.354    14.825
ATOM      6  N   UNL d   1     -16.493   3.160   5.230 -0.08 -0.04    -0.354    14.825
ATOM      7  C   UNL d   1     -15.578   7.530   5.635 -0.13 +0.01    +0.084    14.825
ATOM      8  C   UNL d   1     -17.558   5.539  11.291 -0.08 +0.00    +0.084    14.825
ATOM      9  C   UNL d   1     -17.127   5.456   9.822 -0.12 +0.00    +0.058    14.825
ATOM     10  C   UNL d   1     -16.068   6.081   5.569 -0.12 +0.01    +0.058    14.825
ATOM     11  C   UNL d   1     -15.857   7.766   7.088 -0.09 +0.01    +0.193    14.825
ATOM     12  C   UNL d   1     -16.454   6.518   7.663 -0.11 +0.01    +0.109    14.825
ATOM     13  C   UNL d   1     -17.548   4.065  11.586 -0.09 +0.00    +0.193    14.825
ATOM     14  C   UNL d   1     -14.070   7.638   5.396 -0.29 +0.00    +0.026    14.825
ATOM     15  C   UNL d   1     -16.899   6.545   9.071 -0.13 +0.00    +0.055    14.825
ATOM     16  C   UNL d   1     -18.991   6.060  11.434 -0.03 +0.00    +0.026    14.825
ATOM     17  C   UNL d   1     -17.152   3.349  10.336 -0.13 -0.00    +0.109    14.825
ATOM     18  C   UNL d   1     -16.122   5.408   4.404 -0.16 +0.01    +0.050    14.825
ATOM     19  C   UNL d   1     -16.637   4.098   4.234 -0.16 +0.01    +0.045    14.825
ATOM     20  C   UNL d   1     -16.904   1.213   9.187 -0.12 +0.00    +0.045    14.825
ATOM     21  C   UNL d   1     -17.014   1.885  10.337 -0.23 +0.00    +0.057    14.825
ATOM     22  C   UNL d   1     -16.648  -0.533   7.736 -0.25 -0.00    -0.019    14.825
ATOM     23  C   UNL d   1     -16.798   0.713   6.959 -0.21 +0.00    +0.045    14.825
ATOM     24  C   UNL d   1     -16.712  -0.231   9.054 -0.25 -0.00    -0.022    14.825
ATOM     25  C   UNL d   1     -16.981   1.941   4.821 -0.25 +0.00    +0.049    14.825
ATOM     26  C   UNL d   1     -17.268   3.483   3.163 -0.17 -0.00    -0.018    14.825
ATOM     27  C   UNL d   1     -17.501   2.126   3.547 -0.21 +0.00    +0.003    14.825
ATOM     28  C   UNL d   1     -16.802   0.778   5.618 -0.32 +0.00    +0.052    14.825
ATOM     29  C   UNL d   1     -16.625  -1.148  10.227 -0.07 +0.01    +0.046    14.825
ATOM     30  C   UNL d   1     -17.636   4.116   1.864 -0.13 +0.02    +0.046    14.825
ATOM     31  H   UNL d   1     -17.146   2.669   7.714 +0.04 +0.01    +0.166    14.825
ATOM     32  H   UNL d   1     -16.047   3.351   6.120 +0.07 +0.02    +0.166    14.825
ATOM     33  C   UNL d   1     -16.357   8.527   4.769 -0.05 +0.01    +0.141    14.825
ATOM     34  C   UNL d   1     -15.832   9.932   4.890 -0.04 +0.02    +0.306    14.825
ATOM     35  O   UNL d   1     -14.894  10.406   4.272 -0.09 -0.01    -0.251    14.825
ATOM     36  O   UNL d   1     -16.520  10.667   5.781 -0.00 -0.02    -0.481    14.825
ATOM     37  H   UNL d   1     -16.413  10.188   6.631 +0.04 +0.02    +0.295    14.825
ATOM     38  C   UNL d   1     -18.120   1.131   2.725 -0.04 +0.00    +0.017    14.825
ATOM     39  C   UNL d   1     -18.880   0.120   3.173 -0.19 +0.00    +0.092    14.825
ATOM     40  C   UNL d   1     -19.472  -0.825   2.223 -0.11 -0.01    +0.330    14.825
ATOM     41  O   UNL d   1     -19.909  -0.587   1.113 -0.13 -0.01    -0.246    14.825
ATOM     42  O   UNL d   1     -19.473  -2.063   2.741 -0.05 +0.07    -0.477    14.825
ATOM     43  H   UNL d   1     -18.723  -2.053   3.371 -0.47 -0.11    +0.295    14.825
ATOM     44  C   UNL d   1     -16.599   6.291  12.219 -0.16 +0.01    +0.141    14.825
ATOM     45  C   UNL d   1     -15.148   6.030  11.913 -0.17 +0.03    +0.306    14.825
ATOM     46  O   UNL d   1     -14.502   6.504  10.994 -0.49 -0.04    -0.251    14.825
ATOM     47  O   UNL d   1     -14.590   5.158  12.772 -0.23 -0.09    -0.481    14.825
ATOM     48  H   UNL d   1     -13.643   5.130  12.516 -0.41 +0.11    +0.295    14.825
ATOM     49  C   UNL d   1     -16.442  -1.888   7.125 -0.39 +0.01    +0.048    14.825
ATOM     50  C   UNL d   1     -17.768  -2.551   6.753 -0.20 +0.01    +0.125    14.825
ATOM     51  C   UNL d   1     -17.577  -3.552   5.650 -0.21 -0.01    +0.305    14.825
ATOM     52  O   UNL d   1     -16.691  -4.383   5.545 -0.50 -0.01    -0.251    14.825
ATOM     53  O   UNL d   1     -18.528  -3.446   4.701 -0.05 +0.05    -0.481    14.825
ATOM     54  H   UNL d   1     -18.026  -3.270   3.878 -0.41 -0.13    +0.295    14.825
TER
ENDMDL
MODEL       21
USER    Run = 21
USER    Cluster Rank = 32
USER    Number of conformations in this cluster = 1
USER  
USER    RMSD from reference structure       = 19.078 A
USER  
USER    Estimated Free Energy of Binding    =   -4.59 kcal/mol  [=(1)+(2)+(3)-(4)]
USER    Estimated Inhibition Constant, Ki   =  434.58 uM (micromolar)  [Temperature = 298.15 K]
USER    
USER    (1) Final Intermolecular Energy     =   -8.46 kcal/mol
USER        vdW + Hbond + desolv Energy     =   -8.13 kcal/mol
USER        Electrostatic Energy            =   -0.34 kcal/mol
USER    (2) Final Total Internal Energy     =   -1.86 kcal/mol
USER    (3) Torsional Free Energy           =   +3.88 kcal/mol
USER    (4) Unbound System's Energy  [=(2)] =   -1.86 kcal/mol
USER    
USER    
USER  
USER    DPF = D:/Protein_go_brrr/autodock/final/AncB/heme/dock.dpf
USER    NEWDPF move	heme_opt.pdbqt
USER    NEWDPF about	0.153000 0.018000 -0.028000
USER    NEWDPF tran0	-18.208462 -6.756318 12.937729
USER    NEWDPF axisangle0	0.740601 0.378646 0.555101 -172.182771
USER    NEWDPF quaternion0	0.738878 0.377765 0.553810 -0.068165
USER    NEWDPF dihe0	74.33 86.95 -90.91 -157.39 179.61 96.99 -176.20 -55.66 106.31 11.51 -62.49 -163.93 -178.89 
USER  
USER                              x       y       z    vdW   Elec        q     RMS 
ATOM      1  O   UNL d   1     -17.397 -11.298   9.267 -0.11 +0.04    -0.289    19.078
ATOM      2  O   UNL d   1     -22.190  -5.524   8.980 +0.00 -0.04    -0.289    19.078
ATOM      3  N   UNL d   1     -17.604  -8.916  11.753 -0.10 -0.06    -0.247    19.078
ATOM      4  N   UNL d   1     -19.507  -6.926  10.636 -0.15 -0.15    -0.247    19.078
ATOM      5  N   UNL d   1     -18.684  -5.113  12.710 -0.04 -0.31    -0.354    19.078
ATOM      6  N   UNL d   1     -16.698  -7.176  13.851 -0.13 -0.10    -0.354    19.078
ATOM      7  C   UNL d   1     -16.126 -10.818  11.299 -0.23 -0.01    +0.084    19.078
ATOM      8  C   UNL d   1     -21.128  -7.729   8.993 -0.02 +0.01    +0.084    19.078
ATOM      9  C   UNL d   1     -19.907  -8.003   9.878 -0.08 +0.01    +0.058    19.078
ATOM     10  C   UNL d   1     -16.506  -9.636  12.195 -0.23 +0.00    +0.058    19.078
ATOM     11  C   UNL d   1     -17.214 -10.650  10.281 -0.10 -0.04    +0.193    19.078
ATOM     12  C   UNL d   1     -18.058  -9.480  10.681 -0.12 -0.00    +0.109    19.078
ATOM     13  C   UNL d   1     -21.323  -6.286   9.362 -0.01 +0.03    +0.193    19.078
ATOM     14  C   UNL d   1     -14.772 -10.608  10.616 -0.48 -0.01    +0.026    19.078
ATOM     15  C   UNL d   1     -19.255  -9.177   9.872 -0.11 -0.00    +0.055    19.078
ATOM     16  C   UNL d   1     -22.352  -8.525   9.453 +0.00 +0.00    +0.026    19.078
ATOM     17  C   UNL d   1     -20.273  -5.920  10.359 -0.06 +0.05    +0.109    19.078
ATOM     18  C   UNL d   1     -15.866  -9.398  13.355 -0.29 +0.00    +0.050    19.078
ATOM     19  C   UNL d   1     -16.201  -8.383  14.287 +0.04 -0.00    +0.045    19.078
ATOM     20  C   UNL d   1     -19.426  -4.261  11.934 -0.10 +0.03    +0.045    19.078
ATOM     21  C   UNL d   1     -20.190  -4.545  10.873 -0.08 +0.03    +0.057    19.078
ATOM     22  C   UNL d   1     -18.387  -3.052  13.569 -0.20 -0.01    -0.019    19.078
ATOM     23  C   UNL d   1     -18.021  -4.474  13.724 -0.21 +0.02    +0.045    19.078
ATOM     24  C   UNL d   1     -19.221  -2.933  12.509 -0.11 -0.01    -0.022    19.078
ATOM     25  C   UNL d   1     -16.868  -6.312  14.908 -0.28 +0.01    +0.049    19.078
ATOM     26  C   UNL d   1     -16.080  -8.315  15.667 -0.05 +0.00    -0.018    19.078
ATOM     27  C   UNL d   1     -16.520  -7.013  16.055 -0.24 -0.00    +0.003    19.078
ATOM     28  C   UNL d   1     -17.222  -4.953  14.690 -0.33 +0.01    +0.052    19.078
ATOM     29  C   UNL d   1     -19.867  -1.705  11.964 -0.06 +0.01    +0.046    19.078
ATOM     30  C   UNL d   1     -15.587  -9.394  16.571 -0.17 -0.00    +0.046    19.078
ATOM     31  H   UNL d   1     -18.714  -6.116  12.567 +0.03 +0.16    +0.166    19.078
ATOM     32  H   UNL d   1     -16.869  -6.960  12.876 +0.04 +0.15    +0.166    19.078
ATOM     33  C   UNL d   1     -16.215 -12.198  11.958 -0.10 +0.02    +0.141    19.078
ATOM     34  C   UNL d   1     -16.450 -13.301  10.963 -0.10 +0.03    +0.306    19.078
ATOM     35  O   UNL d   1     -17.346 -14.128  11.002 -0.08 -0.03    -0.251    19.078
ATOM     36  O   UNL d   1     -15.546 -13.304   9.968 -0.11 -0.02    -0.481    19.078
ATOM     37  H   UNL d   1     -16.042 -12.992   9.182 +0.05 -0.01    +0.295    19.078
ATOM     38  C   UNL d   1     -16.545  -6.516  17.398 -0.25 -0.00    +0.017    19.078
ATOM     39  C   UNL d   1     -15.504  -6.521  18.244 -0.18 -0.00    +0.092    19.078
ATOM     40  C   UNL d   1     -15.656  -5.965  19.591 -0.17 -0.09    +0.330    19.078
ATOM     41  O   UNL d   1     -15.922  -6.562  20.617 -0.06 +0.06    -0.246    19.078
ATOM     42  O   UNL d   1     -15.446  -4.640  19.570 -0.71 +0.35    -0.477    19.078
ATOM     43  H   UNL d   1     -14.493  -4.550  19.781 -0.46 -0.44    +0.295    19.078
ATOM     44  C   UNL d   1     -20.899  -7.884   7.486 -0.03 -0.00    +0.141    19.078
ATOM     45  C   UNL d   1     -19.551  -7.389   7.035 -0.02 -0.08    +0.306    19.078
ATOM     46  O   UNL d   1     -18.822  -7.914   6.211 -0.12 +0.08    -0.251    19.078
ATOM     47  O   UNL d   1     -19.176  -6.265   7.671 -0.03 +0.14    -0.481    19.078
ATOM     48  H   UNL d   1     -18.716  -6.578   8.479 -0.41 -0.15    +0.295    19.078
ATOM     49  C   UNL d   1     -17.882  -1.951  14.455 -0.25 +0.01    +0.048    19.078
ATOM     50  C   UNL d   1     -16.694  -1.219  13.831 -0.21 +0.01    +0.125    19.078
ATOM     51  C   UNL d   1     -17.017   0.230  13.601 -0.24 +0.01    +0.305    19.078
ATOM     52  O   UNL d   1     -17.885   0.692  12.881 -0.11 -0.02    -0.251    19.078
ATOM     53  O   UNL d   1     -16.202   1.046  14.297 -0.19 +0.03    -0.481    19.078
ATOM     54  H   UNL d   1     -15.409   0.496  14.474 -0.38 -0.10    +0.295    19.078
TER
ENDMDL
MODEL       78
USER    Run = 78
USER    Cluster Rank = 33
USER    Number of conformations in this cluster = 2
USER  
USER    RMSD from reference structure       = 12.299 A
USER  
USER    Estimated Free Energy of Binding    =   -4.45 kcal/mol  [=(1)+(2)+(3)-(4)]
USER    Estimated Inhibition Constant, Ki   =  543.00 uM (micromolar)  [Temperature = 298.15 K]
USER    
USER    (1) Final Intermolecular Energy     =   -8.33 kcal/mol
USER        vdW + Hbond + desolv Energy     =   -8.22 kcal/mol
USER        Electrostatic Energy            =   -0.12 kcal/mol
USER    (2) Final Total Internal Energy     =   -2.79 kcal/mol
USER    (3) Torsional Free Energy           =   +3.88 kcal/mol
USER    (4) Unbound System's Energy  [=(2)] =   -2.79 kcal/mol
USER    
USER    
USER  
USER    DPF = D:/Protein_go_brrr/autodock/final/AncB/heme/dock.dpf
USER    NEWDPF move	heme_opt.pdbqt
USER    NEWDPF about	0.153000 0.018000 -0.028000
USER    NEWDPF tran0	16.618132 -4.207622 1.046401
USER    NEWDPF axisangle0	0.633128 0.578969 0.513756 -51.280288
USER    NEWDPF quaternion0	0.273965 0.250530 0.222311 -0.901530
USER    NEWDPF dihe0	44.30 -153.77 88.73 -138.11 -12.49 -64.87 -45.03 -54.26 119.33 -120.52 164.79 34.97 18.42 
USER  
USER                              x       y       z    vdW   Elec        q     RMS 
ATOM      1  O   UNL d   1      12.193  -6.206   4.389 -0.16 -0.01    -0.289    12.299
ATOM      2  O   UNL d   1      14.929  -8.673  -2.154 -0.05 +0.05    -0.289    12.299
ATOM      3  N   UNL d   1      14.748  -4.609   2.712 -0.18 -0.01    -0.247    12.299
ATOM      4  N   UNL d   1      15.332  -6.444   0.449 -0.13 +0.00    -0.247    12.299
ATOM      5  N   UNL d   1      17.762  -4.973   0.004 -0.02 -0.03    -0.354    12.299
ATOM      6  N   UNL d   1      17.158  -3.086   2.366 -0.08 -0.02    -0.354    12.299
ATOM      7  C   UNL d   1      13.668  -4.324   4.894 -0.17 +0.01    +0.084    12.299
ATOM      8  C   UNL d   1      13.515  -7.887  -0.317 -0.21 -0.02    +0.084    12.299
ATOM      9  C   UNL d   1      14.042  -6.862   0.692 -0.22 -0.01    +0.058    12.299
ATOM     10  C   UNL d   1      14.730  -3.874   3.886 -0.21 +0.00    +0.058    12.299
ATOM     11  C   UNL d   1      13.077  -5.432   4.075 -0.15 +0.00    +0.193    12.299
ATOM     12  C   UNL d   1      13.800  -5.487   2.764 -0.23 -0.00    +0.109    12.299
ATOM     13  C   UNL d   1      14.757  -8.002  -1.156 -0.12 -0.02    +0.193    12.299
ATOM     14  C   UNL d   1      14.293  -4.922   6.157 -0.07 +0.00    +0.026    12.299
ATOM     15  C   UNL d   1      13.325  -6.448   1.748 -0.31 -0.01    +0.055    12.299
ATOM     16  C   UNL d   1      12.390  -7.308  -1.181 -0.47 -0.01    +0.026    12.299
ATOM     17  C   UNL d   1      15.785  -7.082  -0.581 -0.18 -0.00    +0.109    12.299
ATOM     18  C   UNL d   1      15.502  -2.795   4.113 -0.20 +0.00    +0.050    12.299
ATOM     19  C   UNL d   1      16.449  -2.256   3.205 -0.23 +0.00    +0.045    12.299
ATOM     20  C   UNL d   1      17.972  -6.035  -0.836 -0.17 +0.00    +0.045    12.299
ATOM     21  C   UNL d   1      17.129  -7.015  -1.175 -0.17 +0.00    +0.057    12.299
ATOM     22  C   UNL d   1      19.875  -4.774  -0.750 -0.10 -0.00    -0.019    12.299
ATOM     23  C   UNL d   1      18.854  -4.156   0.120 -0.08 +0.00    +0.045    12.299
ATOM     24  C   UNL d   1      19.346  -5.885  -1.315 -0.10 -0.00    -0.022    12.299
ATOM     25  C   UNL d   1      18.079  -2.367   1.640 -0.13 +0.00    +0.049    12.299
ATOM     26  C   UNL d   1      16.895  -0.961   2.993 -0.28 -0.00    -0.018    12.299
ATOM     27  C   UNL d   1      17.911  -1.034   1.990 -0.25 +0.00    +0.003    12.299
ATOM     28  C   UNL d   1      19.035  -3.025   0.820 -0.14 +0.00    +0.052    12.299
ATOM     29  C   UNL d   1      19.979  -6.836  -2.272 -0.05 +0.00    +0.046    12.299
ATOM     30  C   UNL d   1      16.409   0.272   3.677 -0.30 +0.00    +0.046    12.299
ATOM     31  H   UNL d   1      16.851  -4.800   0.415 +0.08 +0.01    +0.166    12.299
ATOM     32  H   UNL d   1      17.031  -4.090   2.333 +0.04 +0.01    +0.166    12.299
ATOM     33  C   UNL d   1      12.601  -3.279   5.235 -0.14 +0.02    +0.141    12.299
ATOM     34  C   UNL d   1      11.429  -3.868   5.973 -0.12 +0.05    +0.306    12.299
ATOM     35  O   UNL d   1      11.483  -4.693   6.869 -0.59 -0.07    -0.251    12.299
ATOM     36  O   UNL d   1      10.250  -3.383   5.544 -0.48 +0.13    -0.481    12.299
ATOM     37  H   UNL d   1       9.731  -3.236   6.363 -0.43 -0.29    +0.295    12.299
ATOM     38  C   UNL d   1      18.651   0.081   1.482 -0.24 +0.00    +0.017    12.299
ATOM     39  C   UNL d   1      18.507   0.614   0.259 -0.29 +0.00    +0.092    12.299
ATOM     40  C   UNL d   1      19.317   1.770  -0.133 -0.13 +0.02    +0.330    12.299
ATOM     41  O   UNL d   1      19.269   2.899   0.317 -0.13 -0.01    -0.246    12.299
ATOM     42  O   UNL d   1      20.180   1.422  -1.101 -0.04 -0.07    -0.477    12.299
ATOM     43  H   UNL d   1      19.744   0.664  -1.542 +0.09 +0.05    +0.295    12.299
ATOM     44  C   UNL d   1      13.120  -9.247   0.268 -0.12 -0.04    +0.141    12.299
ATOM     45  C   UNL d   1      12.835 -10.286  -0.783 -0.08 -0.14    +0.306    12.299
ATOM     46  O   UNL d   1      11.759 -10.510  -1.311 -0.19 +0.21    -0.251    12.299
ATOM     47  O   UNL d   1      13.922 -11.013  -1.097 +0.01 +0.15    -0.481    12.299
ATOM     48  H   UNL d   1      14.326 -10.541  -1.856 +0.06 -0.09    +0.295    12.299
ATOM     49  C   UNL d   1      21.263  -4.234  -0.936 -0.05 +0.00    +0.048    12.299
ATOM     50  C   UNL d   1      21.254  -2.867  -1.618 -0.06 +0.01    +0.125    12.299
ATOM     51  C   UNL d   1      19.913  -2.581  -2.231 -0.11 +0.05    +0.305    12.299
ATOM     52  O   UNL d   1      19.342  -3.217  -3.099 -0.15 -0.05    -0.251    12.299
ATOM     53  O   UNL d   1      19.349  -1.471  -1.715 -0.09 -0.08    -0.481    12.299
ATOM     54  H   UNL d   1      20.092  -0.836  -1.645 +0.08 +0.05    +0.295    12.299
TER
ENDMDL
MODEL       72
USER    Run = 72
USER    Cluster Rank = 34
USER    Number of conformations in this cluster = 2
USER  
USER    RMSD from reference structure       = 16.957 A
USER  
USER    Estimated Free Energy of Binding    =   -4.42 kcal/mol  [=(1)+(2)+(3)-(4)]
USER    Estimated Inhibition Constant, Ki   =  579.73 uM (micromolar)  [Temperature = 298.15 K]
USER    
USER    (1) Final Intermolecular Energy     =   -8.29 kcal/mol
USER        vdW + Hbond + desolv Energy     =   -8.10 kcal/mol
USER        Electrostatic Energy            =   -0.20 kcal/mol
USER    (2) Final Total Internal Energy     =   -4.59 kcal/mol
USER    (3) Torsional Free Energy           =   +3.88 kcal/mol
USER    (4) Unbound System's Energy  [=(2)] =   -4.59 kcal/mol
USER    
USER    
USER  
USER    DPF = D:/Protein_go_brrr/autodock/final/AncB/heme/dock.dpf
USER    NEWDPF move	heme_opt.pdbqt
USER    NEWDPF about	0.153000 0.018000 -0.028000
USER    NEWDPF tran0	-1.763136 16.654153 9.915206
USER    NEWDPF axisangle0	0.089343 0.794196 -0.601058 -157.323722
USER    NEWDPF quaternion0	0.087599 0.778697 -0.589327 -0.196599
USER    NEWDPF dihe0	122.14 -127.21 89.43 71.57 -132.40 -41.35 -38.68 -81.31 29.50 -105.72 -92.12 -13.86 -15.65 
USER  
USER                              x       y       z    vdW   Elec        q     RMS 
ATOM      1  O   UNL d   1       4.081  17.062  10.573 -0.07 +0.07    -0.289    16.957
ATOM      2  O   UNL d   1      -1.457  17.005  15.644 -0.08 +0.10    -0.289    16.957
ATOM      3  N   UNL d   1       0.748  16.940   9.697 -0.15 +0.10    -0.247    16.957
ATOM      4  N   UNL d   1      -0.635  16.651  12.311 -0.09 +0.11    -0.247    16.957
ATOM      5  N   UNL d   1      -3.022  15.954  10.867 -0.07 +0.14    -0.354    16.957
ATOM      6  N   UNL d   1      -1.574  16.237   8.160 -0.14 +0.11    -0.354    16.957
ATOM      7  C   UNL d   1       2.864  16.789   8.470 -0.17 -0.03    +0.084    16.957
ATOM      8  C   UNL d   1       0.513  17.521  14.285 -0.08 -0.02    +0.084    16.957
ATOM      9  C   UNL d   1       0.530  17.211  12.785 -0.15 -0.02    +0.058    16.957
ATOM     10  C   UNL d   1       1.333  16.776   8.453 -0.25 -0.02    +0.058    16.957
ATOM     11  C   UNL d   1       3.041  17.009   9.943 -0.10 -0.06    +0.193    16.957
ATOM     12  C   UNL d   1       1.685  17.109  10.571 -0.16 -0.04    +0.109    16.957
ATOM     13  C   UNL d   1      -0.865  16.999  14.582 -0.10 -0.06    +0.193    16.957
ATOM     14  C   UNL d   1       3.455  15.427   8.098 -0.23 -0.01    +0.026    16.957
ATOM     15  C   UNL d   1       1.608  17.419  12.013 -0.15 -0.01    +0.055    16.957
ATOM     16  C   UNL d   1       0.538  19.028  14.554 -0.02 -0.00    +0.026    16.957
ATOM     17  C   UNL d   1      -1.450  16.494  13.304 -0.19 -0.04    +0.109    16.957
ATOM     18  C   UNL d   1       0.644  16.701   7.299 -0.24 -0.02    +0.050    16.957
ATOM     19  C   UNL d   1      -0.768  16.766   7.178 -0.07 -0.02    +0.045    16.957
ATOM     20  C   UNL d   1      -3.421  15.650  12.142 -0.28 -0.02    +0.045    16.957
ATOM     21  C   UNL d   1      -2.787  15.880  13.296 -0.30 -0.03    +0.057    16.957
ATOM     22  C   UNL d   1      -5.030  14.953  10.679 -0.27 +0.00    -0.019    16.957
ATOM     23  C   UNL d   1      -3.928  15.571   9.915 -0.27 -0.01    +0.045    16.957
ATOM     24  C   UNL d   1      -4.725  15.004  11.997 -0.30 +0.00    -0.022    16.957
ATOM     25  C   UNL d   1      -2.898  16.327   7.798 -0.21 -0.01    +0.049    16.957
ATOM     26  C   UNL d   1      -1.590  17.245   6.170 -0.14 +0.01    -0.018    16.957
ATOM     27  C   UNL d   1      -2.935  16.983   6.576 -0.15 -0.00    +0.003    16.957
ATOM     28  C   UNL d   1      -3.911  15.708   8.580 -0.29 -0.01    +0.052    16.957
ATOM     29  C   UNL d   1      -5.523  14.520  13.159 -0.31 -0.02    +0.046    16.957
ATOM     30  C   UNL d   1      -1.156  17.908   4.906 -0.17 -0.04    +0.046    16.957
ATOM     31  H   UNL d   1      -2.173  16.482  10.693 -0.28 -0.08    +0.166    16.957
ATOM     32  H   UNL d   1      -1.219  15.808   9.006 -0.48 -0.09    +0.166    16.957
ATOM     33  C   UNL d   1       3.521  17.923   7.675 -0.05 -0.04    +0.141    16.957
ATOM     34  C   UNL d   1       3.470  19.242   8.398 -0.00 -0.06    +0.306    16.957
ATOM     35  O   UNL d   1       2.505  19.982   8.479 -0.00 +0.04    -0.251    16.957
ATOM     36  O   UNL d   1       4.640  19.558   8.982 +0.00 +0.06    -0.481    16.957
ATOM     37  H   UNL d   1       4.802  18.829   9.619 +0.02 -0.04    +0.295    16.957
ATOM     38  C   UNL d   1      -4.104  17.304   5.815 -0.12 -0.01    +0.017    16.957
ATOM     39  C   UNL d   1      -5.335  17.472   6.321 -0.07 -0.03    +0.092    16.957
ATOM     40  C   UNL d   1      -6.449  17.818   5.433 -0.02 -0.09    +0.330    16.957
ATOM     41  O   UNL d   1      -6.453  18.630   4.527 -0.01 +0.07    -0.246    16.957
ATOM     42  O   UNL d   1      -7.531  17.087   5.743 -0.02 +0.12    -0.477    16.957
ATOM     43  H   UNL d   1      -7.646  17.234   6.704 +0.05 -0.06    +0.295    16.957
ATOM     44  C   UNL d   1       1.568  16.791  15.123 -0.13 -0.02    +0.141    16.957
ATOM     45  C   UNL d   1       1.179  16.641  16.569 -0.10 -0.02    +0.306    16.957
ATOM     46  O   UNL d   1       1.312  17.475  17.448 -0.04 +0.02    -0.251    16.957
ATOM     47  O   UNL d   1       0.665  15.428  16.841 -0.69 -0.07    -0.481    16.957
ATOM     48  H   UNL d   1      -0.302  15.535  16.713 +0.08 -0.05    +0.295    16.957
ATOM     49  C   UNL d   1      -6.261  14.362  10.055 -0.02 +0.00    +0.048    16.957
ATOM     50  C   UNL d   1      -7.444  15.328  10.107 -0.23 +0.02    +0.125    16.957
ATOM     51  C   UNL d   1      -7.465  16.217   8.896 -0.13 -0.01    +0.305    16.957
ATOM     52  O   UNL d   1      -6.895  17.283   8.748 -0.04 +0.02    -0.251    16.957
ATOM     53  O   UNL d   1      -8.234  15.710   7.912 -0.11 +0.06    -0.481    16.957
ATOM     54  H   UNL d   1      -7.591  15.428   7.229 -0.48 -0.12    +0.295    16.957
TER
ENDMDL
MODEL       66
USER    Run = 66
USER    Cluster Rank = 35
USER    Number of conformations in this cluster = 2
USER  
USER    RMSD from reference structure       = 14.039 A
USER  
USER    Estimated Free Energy of Binding    =   -4.31 kcal/mol  [=(1)+(2)+(3)-(4)]
USER    Estimated Inhibition Constant, Ki   =  697.78 uM (micromolar)  [Temperature = 298.15 K]
USER    
USER    (1) Final Intermolecular Energy     =   -8.18 kcal/mol
USER        vdW + Hbond + desolv Energy     =   -7.77 kcal/mol
USER        Electrostatic Energy            =   -0.42 kcal/mol
USER    (2) Final Total Internal Energy     =   -3.99 kcal/mol
USER    (3) Torsional Free Energy           =   +3.88 kcal/mol
USER    (4) Unbound System's Energy  [=(2)] =   -3.99 kcal/mol
USER    
USER    
USER  
USER    DPF = D:/Protein_go_brrr/autodock/final/AncB/heme/dock.dpf
USER    NEWDPF move	heme_opt.pdbqt
USER    NEWDPF about	0.153000 0.018000 -0.028000
USER    NEWDPF tran0	8.586125 -14.716841 -4.533142
USER    NEWDPF axisangle0	-0.913448 -0.404858 -0.041262 -95.715785
USER    NEWDPF quaternion0	-0.677306 -0.300195 -0.030595 -0.670972
USER    NEWDPF dihe0	84.52 175.78 -66.85 -53.89 -138.68 21.82 -69.26 -6.79 34.47 -45.37 -57.64 -80.92 15.25 
USER  
USER                              x       y       z    vdW   Elec        q     RMS 
ATOM      1  O   UNL d   1       4.519 -16.031  -8.593 -0.88 +0.17    -0.289    14.039
ATOM      2  O   UNL d   1       4.814 -17.543  -1.244 -0.02 +0.03    -0.289    14.039
ATOM      3  N   UNL d   1       7.207 -15.164  -6.614 -0.13 +0.09    -0.247    14.039
ATOM      4  N   UNL d   1       6.299 -15.879  -3.877 -0.12 +0.06    -0.247    14.039
ATOM      5  N   UNL d   1       8.511 -14.359  -2.846 -0.08 +0.14    -0.354    14.039
ATOM      6  N   UNL d   1       9.435 -13.606  -5.689 -0.11 +0.16    -0.354    14.039
ATOM      7  C   UNL d   1       6.565 -14.740  -8.941 -0.21 -0.03    +0.084    14.039
ATOM      8  C   UNL d   1       4.617 -17.641  -3.682 -0.22 -0.03    +0.084    14.039
ATOM      9  C   UNL d   1       5.455 -16.717  -4.571 -0.28 -0.02    +0.058    14.039
ATOM     10  C   UNL d   1       7.568 -14.546  -7.800 -0.18 -0.02    +0.058    14.039
ATOM     11  C   UNL d   1       5.583 -15.593  -8.196 -0.23 -0.11    +0.193    14.039
ATOM     12  C   UNL d   1       6.097 -15.800  -6.805 -0.26 -0.06    +0.109    14.039
ATOM     13  C   UNL d   1       5.114 -17.146  -2.353 -0.07 -0.03    +0.193    14.039
ATOM     14  C   UNL d   1       5.882 -13.428  -9.336 -0.45 -0.00    +0.026    14.039
ATOM     15  C   UNL d   1       5.336 -16.692  -5.908 -0.23 -0.04    +0.055    14.039
ATOM     16  C   UNL d   1       5.024 -19.108  -3.845 -0.20 -0.01    +0.026    14.039
ATOM     17  C   UNL d   1       6.123 -16.075  -2.610 -0.11 -0.02    +0.109    14.039
ATOM     18  C   UNL d   1       8.734 -13.901  -7.991 -0.17 -0.01    +0.050    14.039
ATOM     19  C   UNL d   1       9.756 -13.746  -7.020 -0.14 -0.01    +0.045    14.039
ATOM     20  C   UNL d   1       7.824 -14.593  -1.683 -0.14 -0.01    +0.045    14.039
ATOM     21  C   UNL d   1       6.755 -15.370  -1.484 -0.13 -0.01    +0.057    14.039
ATOM     22  C   UNL d   1       9.543 -13.153  -1.248 -0.22 +0.01    -0.019    14.039
ATOM     23  C   UNL d   1       9.566 -13.501  -2.683 -0.21 -0.03    +0.045    14.039
ATOM     24  C   UNL d   1       8.510 -13.803  -0.662 -0.17 +0.01    -0.022    14.039
ATOM     25  C   UNL d   1      10.567 -13.380  -4.940 -0.12 -0.03    +0.049    14.039
ATOM     26  C   UNL d   1      11.134 -13.645  -7.135 -0.08 +0.00    -0.018    14.039
ATOM     27  C   UNL d   1      11.642 -13.433  -5.816 -0.10 -0.00    +0.003    14.039
ATOM     28  C   UNL d   1      10.474 -13.048  -3.561 -0.11 -0.05    +0.052    14.039
ATOM     29  C   UNL d   1       8.086 -13.783   0.767 -0.13 -0.02    +0.046    14.039
ATOM     30  C   UNL d   1      11.933 -13.741  -8.390 -0.03 -0.00    +0.046    14.039
ATOM     31  H   UNL d   1       8.281 -14.853  -3.702 +0.05 -0.05    +0.166    14.039
ATOM     32  H   UNL d   1       8.486 -13.628  -5.336 +0.06 -0.07    +0.166    14.039
ATOM     33  C   UNL d   1       7.102 -15.485 -10.168 -0.12 -0.05    +0.141    14.039
ATOM     34  C   UNL d   1       7.077 -16.979  -9.995 -0.07 -0.23    +0.306    14.039
ATOM     35  O   UNL d   1       7.931 -17.655  -9.448 -0.08 +0.19    -0.251    14.039
ATOM     36  O   UNL d   1       5.975 -17.543 -10.519 -0.10 +0.48    -0.481    14.039
ATOM     37  H   UNL d   1       5.372 -17.663  -9.755 -0.39 -0.59    +0.295    14.039
ATOM     38  C   UNL d   1      13.024 -13.259  -5.482 -0.06 -0.01    +0.017    14.039
ATOM     39  C   UNL d   1      13.505 -12.334  -4.637 -0.05 -0.05    +0.092    14.039
ATOM     40  C   UNL d   1      14.944 -12.271  -4.366 -0.00 -0.06    +0.330    14.039
ATOM     41  O   UNL d   1      15.848 -12.730  -5.039 +0.00 +0.01    -0.246    14.039
ATOM     42  O   UNL d   1      15.170 -11.602  -3.226 +0.01 +0.09    -0.477    14.039
ATOM     43  H   UNL d   1      14.281 -11.293  -2.954 +0.04 -0.12    +0.295    14.039
ATOM     44  C   UNL d   1       3.099 -17.470  -3.797 -0.10 -0.05    +0.141    14.039
ATOM     45  C   UNL d   1       2.523 -16.550  -2.755 -0.21 -0.05    +0.306    14.039
ATOM     46  O   UNL d   1       1.769 -16.860  -1.848 -0.20 +0.02    -0.251    14.039
ATOM     47  O   UNL d   1       2.908 -15.272  -2.927 -0.20 +0.04    -0.481    14.039
ATOM     48  H   UNL d   1       2.088 -14.798  -3.181 -0.39 -0.07    +0.295    14.039
ATOM     49  C   UNL d   1      10.514 -12.215  -0.593 -0.20 -0.03    +0.048    14.039
ATOM     50  C   UNL d   1      11.926 -12.798  -0.548 -0.08 -0.05    +0.125    14.039
ATOM     51  C   UNL d   1      12.907 -11.882  -1.223 -0.05 -0.14    +0.305    14.039
ATOM     52  O   UNL d   1      12.660 -10.926  -1.937 -0.12 +0.20    -0.251    14.039
ATOM     53  O   UNL d   1      14.183 -12.232  -0.967 +0.01 +0.11    -0.481    14.039
ATOM     54  H   UNL d   1      14.586 -12.328  -1.855 +0.02 -0.06    +0.295    14.039
TER
ENDMDL
MODEL       50
USER    Run = 50
USER    Cluster Rank = 36
USER    Number of conformations in this cluster = 5
USER  
USER    RMSD from reference structure       = 14.721 A
USER  
USER    Estimated Free Energy of Binding    =   -4.18 kcal/mol  [=(1)+(2)+(3)-(4)]
USER    Estimated Inhibition Constant, Ki   =  863.99 uM (micromolar)  [Temperature = 298.15 K]
USER    
USER    (1) Final Intermolecular Energy     =   -8.06 kcal/mol
USER        vdW + Hbond + desolv Energy     =   -7.91 kcal/mol
USER        Electrostatic Energy            =   -0.15 kcal/mol
USER    (2) Final Total Internal Energy     =   -3.54 kcal/mol
USER    (3) Torsional Free Energy           =   +3.88 kcal/mol
USER    (4) Unbound System's Energy  [=(2)] =   -3.54 kcal/mol
USER    
USER    
USER  
USER    DPF = D:/Protein_go_brrr/autodock/final/AncB/heme/dock.dpf
USER    NEWDPF move	heme_opt.pdbqt
USER    NEWDPF about	0.153000 0.018000 -0.028000
USER    NEWDPF tran0	-12.172799 13.269131 4.341889
USER    NEWDPF axisangle0	-0.248559 -0.798540 0.548226 75.791682
USER    NEWDPF quaternion0	-0.152672 -0.490486 0.336736 0.789129
USER    NEWDPF dihe0	74.63 -170.10 -82.17 133.05 -175.35 -7.55 161.50 -23.32 101.86 -96.74 63.43 -73.01 127.36 
USER  
USER                              x       y       z    vdW   Elec        q     RMS 
ATOM      1  O   UNL d   1     -12.226  16.268   9.417 -0.04 -0.02    -0.289    14.721
ATOM      2  O   UNL d   1     -17.310  11.664   6.359 -0.01 -0.01    -0.289    14.721
ATOM      3  N   UNL d   1     -11.810  14.823   6.313 -0.11 +0.05    -0.247    14.721
ATOM      4  N   UNL d   1     -14.129  12.977   6.103 +0.01 +0.05    -0.247    14.721
ATOM      5  N   UNL d   1     -12.830  11.751   3.850 +0.00 +0.08    -0.354    14.721
ATOM      6  N   UNL d   1     -10.419  13.657   4.088 -0.20 +0.13    -0.354    14.721
ATOM      7  C   UNL d   1     -10.408  16.193   7.785 -0.15 -0.00    +0.084    14.721
ATOM      8  C   UNL d   1     -16.123  13.535   7.400 -0.03 +0.00    +0.084    14.721
ATOM      9  C   UNL d   1     -14.663  13.832   7.041 -0.08 -0.00    +0.058    14.721
ATOM     10  C   UNL d   1     -10.573  15.426   6.469 -0.22 -0.01    +0.058    14.721
ATOM     11  C   UNL d   1     -11.777  15.932   8.337 -0.09 +0.01    +0.193    14.721
ATOM     12  C   UNL d   1     -12.539  15.113   7.341 -0.13 -0.01    +0.109    14.721
ATOM     13  C   UNL d   1     -16.307  12.331   6.519 -0.03 +0.00    +0.193    14.721
ATOM     14  C   UNL d   1      -9.371  15.542   8.703 -0.20 +0.00    +0.026    14.721
ATOM     15  C   UNL d   1     -13.955  14.808   7.630 -0.10 -0.00    +0.055    14.721
ATOM     16  C   UNL d   1     -17.063  14.645   6.919 -0.01 +0.00    +0.026    14.721
ATOM     17  C   UNL d   1     -15.023  12.094   5.792 -0.09 -0.01    +0.109    14.721
ATOM     18  C   UNL d   1      -9.613  15.434   5.526 -0.23 -0.01    +0.050    14.721
ATOM     19  C   UNL d   1      -9.710  14.826   4.249 -0.27 -0.01    +0.045    14.721
ATOM     20  C   UNL d   1     -13.851  10.858   4.048 -0.11 -0.00    +0.045    14.721
ATOM     21  C   UNL d   1     -14.891  10.946   4.883 -0.13 -0.00    +0.057    14.721
ATOM     22  C   UNL d   1     -12.440  10.025   2.456 -0.28 +0.00    -0.019    14.721
ATOM     23  C   UNL d   1     -11.928  11.334   2.907 -0.27 -0.01    +0.045    14.721
ATOM     24  C   UNL d   1     -13.580   9.749   3.134 -0.21 -0.00    -0.022    14.721
ATOM     25  C   UNL d   1     -10.307  13.197   2.796 -0.22 -0.02    +0.049    14.721
ATOM     26  C   UNL d   1      -9.154  15.154   3.022 -0.25 +0.01    -0.018    14.721
ATOM     27  C   UNL d   1      -9.550  14.132   2.104 -0.20 -0.00    +0.003    14.721
ATOM     28  C   UNL d   1     -10.823  11.925   2.428 -0.32 -0.02    +0.052    14.721
ATOM     29  C   UNL d   1     -14.467   8.556   3.021 -0.19 +0.00    +0.046    14.721
ATOM     30  C   UNL d   1      -8.307  16.343   2.718 -0.19 -0.02    +0.046    14.721
ATOM     31  H   UNL d   1     -12.822  12.653   4.314 -0.36 -0.06    +0.166    14.721
ATOM     32  H   UNL d   1     -10.914  13.193   4.841 -0.35 -0.10    +0.166    14.721
ATOM     33  C   UNL d   1     -10.165  17.699   7.641 -0.04 -0.01    +0.141    14.721
ATOM     34  C   UNL d   1     -10.715  18.488   8.799 -0.01 +0.00    +0.306    14.721
ATOM     35  O   UNL d   1     -11.548  19.376   8.734 -0.00 -0.00    -0.251    14.721
ATOM     36  O   UNL d   1     -10.188  18.113   9.978 +0.00 -0.02    -0.481    14.721
ATOM     37  H   UNL d   1     -10.915  17.635  10.432 +0.03 +0.02    +0.295    14.721
ATOM     38  C   UNL d   1      -9.178  14.075   0.723 -0.27 -0.01    +0.017    14.721
ATOM     39  C   UNL d   1      -8.911  12.952   0.039 -0.27 -0.03    +0.092    14.721
ATOM     40  C   UNL d   1      -8.557  13.029  -1.381 -0.20 -0.10    +0.330    14.721
ATOM     41  O   UNL d   1      -8.619  13.999  -2.112 -0.16 +0.10    -0.246    14.721
ATOM     42  O   UNL d   1      -8.121  11.835  -1.814 -0.35 +0.03    -0.477    14.721
ATOM     43  H   UNL d   1      -8.325  11.228  -1.073 +0.16 +0.04    +0.295    14.721
ATOM     44  C   UNL d   1     -16.384  13.186   8.869 -0.02 +0.01    +0.141    14.721
ATOM     45  C   UNL d   1     -17.496  12.188   9.053 -0.00 +0.02    +0.306    14.721
ATOM     46  O   UNL d   1     -17.399  11.073   9.536 -0.00 -0.01    -0.251    14.721
ATOM     47  O   UNL d   1     -18.676  12.640   8.592 +0.00 -0.02    -0.481    14.721
ATOM     48  H   UNL d   1     -18.754  12.257   7.692 +0.00 +0.01    +0.295    14.721
ATOM     49  C   UNL d   1     -11.768   9.167   1.425 -0.32 -0.00    +0.048    14.721
ATOM     50  C   UNL d   1     -10.257   9.095   1.643 -0.46 -0.02    +0.125    14.721
ATOM     51  C   UNL d   1      -9.518   9.718   0.493 -0.28 -0.02    +0.305    14.721
ATOM     52  O   UNL d   1      -9.872   9.780  -0.671 -0.18 -0.01    -0.251    14.721
ATOM     53  O   UNL d   1      -8.333  10.235   0.875 -0.22 +0.09    -0.481    14.721
ATOM     54  H   UNL d   1      -8.547  10.751   1.681 -0.26 -0.24    +0.295    14.721
TER
ENDMDL
MODEL       14
USER    Run = 14
USER    Cluster Rank = 37
USER    Number of conformations in this cluster = 2
USER  
USER    RMSD from reference structure       = 12.544 A
USER  
USER    Estimated Free Energy of Binding    =   -4.16 kcal/mol  [=(1)+(2)+(3)-(4)]
USER    Estimated Inhibition Constant, Ki   =  886.61 uM (micromolar)  [Temperature = 298.15 K]
USER    
USER    (1) Final Intermolecular Energy     =   -8.04 kcal/mol
USER        vdW + Hbond + desolv Energy     =   -7.40 kcal/mol
USER        Electrostatic Energy            =   -0.65 kcal/mol
USER    (2) Final Total Internal Energy     =   -2.77 kcal/mol
USER    (3) Torsional Free Energy           =   +3.88 kcal/mol
USER    (4) Unbound System's Energy  [=(2)] =   -2.77 kcal/mol
USER    
USER    
USER  
USER    DPF = D:/Protein_go_brrr/autodock/final/AncB/heme/dock.dpf
USER    NEWDPF move	heme_opt.pdbqt
USER    NEWDPF about	0.153000 0.018000 -0.028000
USER    NEWDPF tran0	-4.658290 1.959111 -12.478695
USER    NEWDPF axisangle0	-0.210209 0.873127 -0.439842 118.535340
USER    NEWDPF quaternion0	-0.180688 0.750509 -0.378073 0.511028
USER    NEWDPF dihe0	155.70 86.47 -170.93 92.01 -141.01 64.69 139.28 98.69 16.88 -11.94 140.26 -10.80 -180.00 
USER  
USER                              x       y       z    vdW   Elec        q     RMS 
ATOM      1  O   UNL d   1      -3.864   1.921 -18.320 +0.00 -0.20    -0.289    12.544
ATOM      2  O   UNL d   1       0.620  -0.304 -12.722 -0.15 -0.20    -0.289    12.544
ATOM      3  N   UNL d   1      -4.714   2.267 -14.996 -0.51 -0.46    -0.247    12.544
ATOM      4  N   UNL d   1      -2.514   0.861 -13.578 -0.13 -0.38    -0.247    12.544
ATOM      5  N   UNL d   1      -4.127   0.930 -11.199 -0.10 -0.34    -0.354    12.544
ATOM      6  N   UNL d   1      -6.413   2.371 -12.682 -0.07 -0.35    -0.354    12.544
ATOM      7  C   UNL d   1      -5.869   2.643 -17.124 -0.02 +0.07    +0.084    12.544
ATOM      8  C   UNL d   1      -0.355   0.731 -14.715 -0.11 +0.08    +0.084    12.544
ATOM      9  C   UNL d   1      -1.835   1.127 -14.746 -0.13 +0.08    +0.058    12.544
ATOM     10  C   UNL d   1      -5.898   2.667 -15.593 -0.06 +0.07    +0.058    12.544
ATOM     11  C   UNL d   1      -4.455   2.176 -17.287 -0.02 +0.18    +0.193    12.544
ATOM     12  C   UNL d   1      -3.854   2.008 -15.925 -0.02 +0.17    +0.109    12.544
ATOM     13  C   UNL d   1      -0.329   0.157 -13.326 -0.12 +0.18    +0.193    12.544
ATOM     14  C   UNL d   1      -6.811   1.582 -17.700 +0.00 +0.02    +0.026    12.544
ATOM     15  C   UNL d   1      -2.426   1.640 -15.836 -0.09 +0.07    +0.055    12.544
ATOM     16  C   UNL d   1       0.562   1.957 -14.758 -0.20 +0.02    +0.026    12.544
ATOM     17  C   UNL d   1      -1.701   0.289 -12.749 -0.19 +0.14    +0.109    12.544
ATOM     18  C   UNL d   1      -6.966   3.131 -14.917 -0.08 +0.05    +0.050    12.544
ATOM     19  C   UNL d   1      -7.050   3.269 -13.508 -0.08 +0.04    +0.045    12.544
ATOM     20  C   UNL d   1      -3.126   0.093 -10.780 -0.27 +0.04    +0.045    12.544
ATOM     21  C   UNL d   1      -1.989  -0.231 -11.404 -0.28 +0.06    +0.057    12.544
ATOM     22  C   UNL d   1      -4.753   0.156  -9.178 -0.31 -0.01    -0.019    12.544
ATOM     23  C   UNL d   1      -5.154   1.031 -10.298 -0.22 +0.03    +0.045    12.544
ATOM     24  C   UNL d   1      -3.551  -0.396  -9.469 -0.31 -0.01    -0.022    12.544
ATOM     25  C   UNL d   1      -6.701   2.637 -11.364 -0.12 +0.04    +0.049    12.544
ATOM     26  C   UNL d   1      -7.739   4.165 -12.705 -0.11 -0.01    -0.018    12.544
ATOM     27  C   UNL d   1      -7.500   3.773 -11.352 -0.14 +0.00    +0.003    12.544
ATOM     28  C   UNL d   1      -6.285   1.752 -10.333 -0.23 +0.03    +0.052    12.544
ATOM     29  C   UNL d   1      -2.733  -1.334  -8.649 -0.34 +0.02    +0.046    12.544
ATOM     30  C   UNL d   1      -8.569   5.316 -13.164 -0.07 +0.03    +0.046    12.544
ATOM     31  H   UNL d   1      -4.042   1.464 -12.057 +0.04 +0.21    +0.166    12.544
ATOM     32  H   UNL d   1      -5.848   1.601 -13.022 +0.02 +0.18    +0.166    12.544
ATOM     33  C   UNL d   1      -6.068   4.001 -17.807 -0.02 +0.10    +0.141    12.544
ATOM     34  C   UNL d   1      -4.953   4.967 -17.510 -0.03 +0.31    +0.306    12.544
ATOM     35  O   UNL d   1      -4.885   5.716 -16.550 -0.57 -0.41    -0.251    12.544
ATOM     36  O   UNL d   1      -3.981   4.937 -18.439 -0.01 -0.36    -0.481    12.544
ATOM     37  H   UNL d   1      -4.023   4.031 -18.811 +0.01 +0.19    +0.295    12.544
ATOM     38  C   UNL d   1      -8.040   4.423 -10.196 -0.21 +0.01    +0.017    12.544
ATOM     39  C   UNL d   1      -7.487   4.416  -8.974 -0.25 +0.04    +0.092    12.544
ATOM     40  C   UNL d   1      -8.134   5.138  -7.876 -0.23 +0.10    +0.330    12.544
ATOM     41  O   UNL d   1      -9.231   4.931  -7.394 -0.16 -0.07    -0.246    12.544
ATOM     42  O   UNL d   1      -7.327   6.111  -7.424 -0.18 -0.10    -0.477    12.544
ATOM     43  H   UNL d   1      -6.846   5.692  -6.682 -0.30 -0.02    +0.295    12.544
ATOM     44  C   UNL d   1       0.070  -0.317 -15.749 -0.08 +0.11    +0.141    12.544
ATOM     45  C   UNL d   1      -0.636  -1.636 -15.584 -0.07 +0.38    +0.306    12.544
ATOM     46  O   UNL d   1      -1.639  -2.001 -16.171 -0.34 -0.42    -0.251    12.544
ATOM     47  O   UNL d   1      -0.051  -2.420 -14.661 -0.06 -0.53    -0.481    12.544
ATOM     48  H   UNL d   1       0.623  -1.847 -14.239 +0.11 +0.24    +0.295    12.544
ATOM     49  C   UNL d   1      -5.581  -0.069  -7.947 -0.32 +0.01    +0.048    12.544
ATOM     50  C   UNL d   1      -6.416  -1.345  -8.049 -0.17 +0.05    +0.125    12.544
ATOM     51  C   UNL d   1      -6.960  -1.521  -9.439 -0.11 +0.14    +0.305    12.544
ATOM     52  O   UNL d   1      -6.458  -2.140 -10.360 -0.11 -0.17    -0.251    12.544
ATOM     53  O   UNL d   1      -8.134  -0.880  -9.606 -0.00 -0.19    -0.481    12.544
ATOM     54  H   UNL d   1      -8.806  -1.539  -9.330 +0.08 +0.10    +0.295    12.544
TER
ENDMDL
MODEL       44
USER    Run = 44
USER    Cluster Rank = 38
USER    Number of conformations in this cluster = 1
USER  
USER    RMSD from reference structure       = 14.048 A
USER  
USER    Estimated Free Energy of Binding    =   -4.05 kcal/mol  [=(1)+(2)+(3)-(4)]
USER    Estimated Inhibition Constant, Ki   =    1.08 mM (millimolar)  [Temperature = 298.15 K]
USER    
USER    (1) Final Intermolecular Energy     =   -7.92 kcal/mol
USER        vdW + Hbond + desolv Energy     =   -7.37 kcal/mol
USER        Electrostatic Energy            =   -0.56 kcal/mol
USER    (2) Final Total Internal Energy     =   -4.48 kcal/mol
USER    (3) Torsional Free Energy           =   +3.88 kcal/mol
USER    (4) Unbound System's Energy  [=(2)] =   -4.48 kcal/mol
USER    
USER    
USER  
USER    DPF = D:/Protein_go_brrr/autodock/final/AncB/heme/dock.dpf
USER    NEWDPF move	heme_opt.pdbqt
USER    NEWDPF about	0.153000 0.018000 -0.028000
USER    NEWDPF tran0	-2.585543 -10.351931 11.681978
USER    NEWDPF axisangle0	-0.952073 -0.269479 0.144699 -129.584227
USER    NEWDPF quaternion0	-0.861406 -0.243817 0.130919 -0.425904
USER    NEWDPF dihe0	-148.92 155.25 -84.75 61.96 47.17 -71.95 155.52 51.73 143.16 -84.04 -92.03 28.15 0.01 
USER  
USER                              x       y       z    vdW   Elec        q     RMS 
ATOM      1  O   UNL d   1      -7.097 -13.776  10.044 -0.11 -0.20    -0.289    14.048
ATOM      2  O   UNL d   1      -5.647 -10.310  16.547 -0.07 -0.10    -0.289    14.048
ATOM      3  N   UNL d   1      -4.216 -11.960  10.591 -0.08 -0.09    -0.247    14.048
ATOM      4  N   UNL d   1      -4.671 -10.746  13.265 -0.11 -0.12    -0.247    14.048
ATOM      5  N   UNL d   1      -2.441  -9.006  12.752 -0.09 -0.09    -0.354    14.048
ATOM      6  N   UNL d   1      -1.988 -10.257   9.972 -0.09 -0.08    -0.354    14.048
ATOM      7  C   UNL d   1      -5.213 -13.077   8.651 -0.20 +0.05    +0.084    14.048
ATOM      8  C   UNL d   1      -6.185 -11.920  14.782 -0.11 +0.04    +0.084    14.048
ATOM      9  C   UNL d   1      -5.548 -11.800  13.394 -0.15 +0.03    +0.058    14.048
ATOM     10  C   UNL d   1      -4.073 -12.245   9.244 -0.16 +0.02    +0.058    14.048
ATOM     11  C   UNL d   1      -6.018 -13.228   9.907 -0.18 +0.12    +0.193    14.048
ATOM     12  C   UNL d   1      -5.297 -12.529  11.017 -0.17 +0.05    +0.109    14.048
ATOM     13  C   UNL d   1      -5.536 -10.716  15.406 -0.09 +0.09    +0.193    14.048
ATOM     14  C   UNL d   1      -6.033 -12.284   7.630 -0.34 +0.02    +0.026    14.048
ATOM     15  C   UNL d   1      -5.859 -12.622  12.380 -0.21 +0.03    +0.055    14.048
ATOM     16  C   UNL d   1      -5.708 -13.174  15.520 -0.04 +0.01    +0.026    14.048
ATOM     17  C   UNL d   1      -4.649 -10.089  14.380 -0.11 +0.06    +0.109    14.048
ATOM     18  C   UNL d   1      -2.992 -11.913   8.513 -0.21 +0.02    +0.050    14.048
ATOM     19  C   UNL d   1      -1.853 -11.220   8.997 -0.18 +0.01    +0.045    14.048
ATOM     20  C   UNL d   1      -2.937  -8.424  13.890 -0.09 +0.01    +0.045    14.048
ATOM     21  C   UNL d   1      -3.911  -8.857  14.696 -0.11 +0.02    +0.057    14.048
ATOM     22  C   UNL d   1      -1.273  -7.103  13.051 -0.23 -0.00    -0.019    14.048
ATOM     23  C   UNL d   1      -1.434  -8.280  12.174 -0.23 +0.01    +0.045    14.048
ATOM     24  C   UNL d   1      -2.165  -7.194  14.066 -0.21 -0.00    -0.022    14.048
ATOM     25  C   UNL d   1      -0.779  -9.653  10.225 -0.14 +0.01    +0.049    14.048
ATOM     26  C   UNL d   1      -0.516 -11.268   8.635 -0.14 -0.00    -0.018    14.048
ATOM     27  C   UNL d   1       0.161 -10.290   9.427 -0.07 +0.00    +0.003    14.048
ATOM     28  C   UNL d   1      -0.694  -8.521  11.081 -0.28 +0.01    +0.052    14.048
ATOM     29  C   UNL d   1      -2.380  -6.258  15.206 -0.30 -0.00    +0.046    14.048
ATOM     30  C   UNL d   1       0.098 -12.168   7.616 -0.13 +0.01    +0.046    14.048
ATOM     31  H   UNL d   1      -2.758  -9.919  12.447 +0.05 +0.05    +0.166    14.048
ATOM     32  H   UNL d   1      -2.873 -10.014  10.400 +0.07 +0.04    +0.166    14.048
ATOM     33  C   UNL d   1      -4.809 -14.451   8.104 -0.10 +0.10    +0.141    14.048
ATOM     34  C   UNL d   1      -5.908 -15.104   7.310 -0.14 +0.42    +0.306    14.048
ATOM     35  O   UNL d   1      -5.988 -15.152   6.094 -0.56 -0.56    -0.251    14.048
ATOM     36  O   UNL d   1      -6.848 -15.665   8.091 -0.65 -0.87    -0.481    14.048
ATOM     37  H   UNL d   1      -6.837 -15.131   8.914 +0.08 +0.38    +0.295    14.048
ATOM     38  C   UNL d   1       1.561  -9.998   9.359 -0.10 +0.00    +0.017    14.048
ATOM     39  C   UNL d   1       2.444 -10.202  10.349 -0.04 +0.01    +0.092    14.048
ATOM     40  C   UNL d   1       3.858  -9.876  10.145 -0.01 +0.03    +0.330    14.048
ATOM     41  O   UNL d   1       4.674 -10.487   9.481 -0.02 -0.02    -0.246    14.048
ATOM     42  O   UNL d   1       4.172  -8.752  10.806 +0.02 -0.03    -0.477    14.048
ATOM     43  H   UNL d   1       3.318  -8.278  10.883 +0.06 +0.02    +0.295    14.048
ATOM     44  C   UNL d   1      -7.712 -11.801  14.821 -0.25 +0.07    +0.141    14.048
ATOM     45  C   UNL d   1      -8.210 -10.883  15.905 -0.16 +0.16    +0.306    14.048
ATOM     46  O   UNL d   1      -8.747  -9.800  15.751 -0.33 -0.20    -0.251    14.048
ATOM     47  O   UNL d   1      -7.979 -11.371  17.138 +0.01 -0.12    -0.481    14.048
ATOM     48  H   UNL d   1      -7.129 -10.965  17.410 +0.06 +0.07    +0.295    14.048
ATOM     49  C   UNL d   1      -0.284  -6.001  12.809 -0.36 +0.00    +0.048    14.048
ATOM     50  C   UNL d   1       1.103  -6.355  13.345 -0.19 +0.00    +0.125    14.048
ATOM     51  C   UNL d   1       1.913  -7.075  12.304 -0.07 +0.01    +0.305    14.048
ATOM     52  O   UNL d   1       2.037  -6.785  11.127 -0.13 -0.01    -0.251    14.048
ATOM     53  O   UNL d   1       2.532  -8.161  12.808 +0.01 -0.02    -0.481    14.048
ATOM     54  H   UNL d   1       3.485  -7.971  12.683 +0.03 +0.01    +0.295    14.048
TER
ENDMDL
MODEL       60
USER    Run = 60
USER    Cluster Rank = 39
USER    Number of conformations in this cluster = 1
USER  
USER    RMSD from reference structure       = 14.402 A
USER  
USER    Estimated Free Energy of Binding    =   -4.03 kcal/mol  [=(1)+(2)+(3)-(4)]
USER    Estimated Inhibition Constant, Ki   =    1.12 mM (millimolar)  [Temperature = 298.15 K]
USER    
USER    (1) Final Intermolecular Energy     =   -7.90 kcal/mol
USER        vdW + Hbond + desolv Energy     =   -7.31 kcal/mol
USER        Electrostatic Energy            =   -0.59 kcal/mol
USER    (2) Final Total Internal Energy     =   -2.40 kcal/mol
USER    (3) Torsional Free Energy           =   +3.88 kcal/mol
USER    (4) Unbound System's Energy  [=(2)] =   -2.40 kcal/mol
USER    
USER    
USER  
USER    DPF = D:/Protein_go_brrr/autodock/final/AncB/heme/dock.dpf
USER    NEWDPF move	heme_opt.pdbqt
USER    NEWDPF about	0.153000 0.018000 -0.028000
USER    NEWDPF tran0	-7.564145 16.678356 0.784056
USER    NEWDPF axisangle0	-0.630748 0.359321 -0.687783 157.605694
USER    NEWDPF quaternion0	-0.618742 0.352481 -0.674691 0.194186
USER    NEWDPF dihe0	-146.62 -77.59 114.17 60.57 40.68 109.10 -47.65 -47.73 143.47 -131.55 129.82 8.27 -151.59 
USER  
USER                              x       y       z    vdW   Elec        q     RMS 
ATOM      1  O   UNL d   1      -7.400  16.050  -5.075 -0.09 +0.07    -0.289    14.402
ATOM      2  O   UNL d   1      -4.861  21.548  -0.635 +0.00 +0.07    -0.289    14.402
ATOM      3  N   UNL d   1      -7.850  16.048  -1.656 -0.02 +0.27    -0.247    14.402
ATOM      4  N   UNL d   1      -6.277  18.404  -0.758 +0.01 +0.27    -0.247    14.402
ATOM      5  N   UNL d   1      -6.507  17.416   1.932 -0.06 +0.25    -0.354    14.402
ATOM      6  N   UNL d   1      -8.121  14.964   0.990 -0.09 +0.20    -0.354    14.402
ATOM      7  C   UNL d   1      -8.301  14.452  -3.461 -0.16 -0.03    +0.084    14.402
ATOM      8  C   UNL d   1      -5.953  20.211  -2.371 -0.01 -0.03    +0.084    14.402
ATOM      9  C   UNL d   1      -6.473  18.803  -2.062 -0.04 -0.04    +0.058    14.402
ATOM     10  C   UNL d   1      -8.343  14.792  -1.968 -0.16 -0.04    +0.058    14.402
ATOM     11  C   UNL d   1      -7.714  15.745  -3.939 -0.10 -0.08    +0.193    14.402
ATOM     12  C   UNL d   1      -7.510  16.638  -2.755 -0.03 -0.09    +0.109    14.402
ATOM     13  C   UNL d   1      -5.393  20.522  -1.011 -0.00 -0.07    +0.193    14.402
ATOM     14  C   UNL d   1      -7.318  13.318  -3.764 -0.41 -0.01    +0.026    14.402
ATOM     15  C   UNL d   1      -7.023  18.012  -2.995 -0.06 -0.03    +0.055    14.402
ATOM     16  C   UNL d   1      -7.097  21.186  -2.667 -0.00 -0.00    +0.026    14.402
ATOM     17  C   UNL d   1      -5.648  19.343  -0.129 -0.05 -0.08    +0.109    14.402
ATOM     18  C   UNL d   1      -8.902  13.957  -1.072 -0.25 -0.02    +0.050    14.402
ATOM     19  C   UNL d   1      -9.061  14.222   0.312 -0.23 -0.02    +0.045    14.402
ATOM     20  C   UNL d   1      -5.592  18.418   2.126 -0.10 -0.03    +0.045    14.402
ATOM     21  C   UNL d   1      -5.167  19.344   1.261 -0.08 -0.04    +0.057    14.402
ATOM     22  C   UNL d   1      -5.809  17.231   4.066 -0.13 +0.01    -0.019    14.402
ATOM     23  C   UNL d   1      -6.704  16.646   3.047 -0.18 -0.02    +0.045    14.402
ATOM     24  C   UNL d   1      -5.155  18.280   3.515 -0.08 +0.01    -0.022    14.402
ATOM     25  C   UNL d   1      -8.424  15.021   2.330 -0.22 -0.02    +0.049    14.402
ATOM     26  C   UNL d   1     -10.020  13.818   1.228 -0.18 +0.01    -0.018    14.402
ATOM     27  C   UNL d   1      -9.623  14.342   2.497 -0.23 -0.00    +0.003    14.402
ATOM     28  C   UNL d   1      -7.517  15.600   3.259 -0.26 -0.02    +0.052    14.402
ATOM     29  C   UNL d   1      -4.159  19.193   4.145 -0.04 -0.02    +0.046    14.402
ATOM     30  C   UNL d   1     -11.233  12.998   0.945 -0.12 -0.01    +0.046    14.402
ATOM     31  H   UNL d   1      -7.023  17.336   1.062 -0.02 -0.14    +0.166    14.402
ATOM     32  H   UNL d   1      -7.302  15.368   0.550 +0.06 -0.16    +0.166    14.402
ATOM     33  C   UNL d   1      -9.664  14.204  -4.117 -0.06 +0.01    +0.141    14.402
ATOM     34  C   UNL d   1      -9.544  13.619  -5.498 -0.04 +0.20    +0.306    14.402
ATOM     35  O   UNL d   1      -9.590  12.435  -5.785 -0.24 -0.23    -0.251    14.402
ATOM     36  O   UNL d   1      -9.376  14.559  -6.446 -0.54 -0.40    -0.481    14.402
ATOM     37  H   UNL d   1      -8.890  15.281  -5.994 +0.04 +0.12    +0.295    14.402
ATOM     38  C   UNL d   1     -10.329  14.147   3.728 -0.33 -0.01    +0.017    14.402
ATOM     39  C   UNL d   1     -10.590  15.104   4.631 -0.22 -0.02    +0.092    14.402
ATOM     40  C   UNL d   1     -11.339  14.776   5.847 -0.04 -0.08    +0.330    14.402
ATOM     41  O   UNL d   1     -10.912  14.685   6.982 -0.23 +0.03    -0.246    14.402
ATOM     42  O   UNL d   1     -12.634  14.583   5.553 -0.06 +0.11    -0.477    14.402
ATOM     43  H   UNL d   1     -12.733  13.609   5.556 -0.47 -0.15    +0.295    14.402
ATOM     44  C   UNL d   1      -4.863  20.292  -3.445 -0.00 -0.03    +0.141    14.402
ATOM     45  C   UNL d   1      -4.411  21.700  -3.727 +0.01 -0.02    +0.306    14.402
ATOM     46  O   UNL d   1      -4.860  22.451  -4.576 +0.00 +0.00    -0.251    14.402
ATOM     47  O   UNL d   1      -3.390  22.081  -2.938 +0.01 +0.04    -0.481    14.402
ATOM     48  H   UNL d   1      -3.774  22.116  -2.036 +0.01 -0.04    +0.295    14.402
ATOM     49  C   UNL d   1      -5.668  16.706   5.464 -0.17 -0.02    +0.048    14.402
ATOM     50  C   UNL d   1      -4.213  16.386   5.807 -0.18 -0.05    +0.125    14.402
ATOM     51  C   UNL d   1      -3.580  15.549   4.732 -0.22 -0.19    +0.305    14.402
ATOM     52  O   UNL d   1      -3.984  14.492   4.278 -0.82 +0.10    -0.251    14.402
ATOM     53  O   UNL d   1      -2.433  16.093   4.279 -0.10 +0.62    -0.481    14.402
ATOM     54  H   UNL d   1      -2.600  16.243   3.325 -0.34 -0.74    +0.295    14.402
TER
ENDMDL
MODEL       28
USER    Run = 28
USER    Cluster Rank = 40
USER    Number of conformations in this cluster = 1
USER  
USER    RMSD from reference structure       = 17.681 A
USER  
USER    Estimated Free Energy of Binding    =   -4.00 kcal/mol  [=(1)+(2)+(3)-(4)]
USER    Estimated Inhibition Constant, Ki   =    1.16 mM (millimolar)  [Temperature = 298.15 K]
USER    
USER    (1) Final Intermolecular Energy     =   -7.88 kcal/mol
USER        vdW + Hbond + desolv Energy     =   -7.51 kcal/mol
USER        Electrostatic Energy            =   -0.37 kcal/mol
USER    (2) Final Total Internal Energy     =   -3.65 kcal/mol
USER    (3) Torsional Free Energy           =   +3.88 kcal/mol
USER    (4) Unbound System's Energy  [=(2)] =   -3.65 kcal/mol
USER    
USER    
USER  
USER    DPF = D:/Protein_go_brrr/autodock/final/AncB/heme/dock.dpf
USER    NEWDPF move	heme_opt.pdbqt
USER    NEWDPF about	0.153000 0.018000 -0.028000
USER    NEWDPF tran0	15.714740 -0.147812 -13.742350
USER    NEWDPF axisangle0	-0.751639 0.311482 -0.581393 -144.422013
USER    NEWDPF quaternion0	-0.715701 0.296590 -0.553596 -0.305512
USER    NEWDPF dihe0	167.77 -170.00 72.38 135.18 -146.59 -84.22 91.29 86.16 14.66 -25.83 -91.95 35.49 -7.01 
USER  
USER                              x       y       z    vdW   Elec        q     RMS 
ATOM      1  O   UNL d   1      15.015   3.126 -18.595 -0.04 -0.06    -0.289    17.681
ATOM      2  O   UNL d   1      14.034   4.796 -11.339 -0.33 -0.19    -0.289    17.681
ATOM      3  N   UNL d   1      15.423   0.809 -16.073 -0.04 -0.06    -0.247    17.681
ATOM      4  N   UNL d   1      15.132   2.431 -13.601 -0.08 -0.08    -0.247    17.681
ATOM      5  N   UNL d   1      16.207   0.209 -12.127 -0.07 -0.12    -0.354    17.681
ATOM      6  N   UNL d   1      16.523  -1.460 -14.699 -0.01 -0.08    -0.354    17.681
ATOM      7  C   UNL d   1      15.800   0.813 -18.495 -0.02 +0.02    +0.084    17.681
ATOM      8  C   UNL d   1      13.798   4.473 -13.754 -0.33 +0.02    +0.084    17.681
ATOM      9  C   UNL d   1      14.448   3.273 -14.450 -0.20 +0.02    +0.058    17.681
ATOM     10  C   UNL d   1      15.856   0.067 -17.159 -0.04 +0.01    +0.058    17.681
ATOM     11  C   UNL d   1      15.240   2.103 -17.975 -0.04 +0.04    +0.193    17.681
ATOM     12  C   UNL d   1      15.031   1.966 -16.498 -0.08 +0.03    +0.109    17.681
ATOM     13  C   UNL d   1      14.272   4.178 -12.359 -0.28 +0.09    +0.193    17.681
ATOM     14  C   UNL d   1      17.196   1.075 -19.067 -0.01 +0.00    +0.026    17.681
ATOM     15  C   UNL d   1      14.397   3.088 -15.778 -0.19 +0.02    +0.055    17.681
ATOM     16  C   UNL d   1      12.269   4.388 -13.784 -0.55 +0.00    +0.026    17.681
ATOM     17  C   UNL d   1      15.075   2.919 -12.403 -0.23 +0.05    +0.109    17.681
ATOM     18  C   UNL d   1      16.215  -1.229 -17.092 -0.03 +0.01    +0.050    17.681
ATOM     19  C   UNL d   1      16.216  -2.023 -15.917 -0.03 +0.01    +0.045    17.681
ATOM     20  C   UNL d   1      16.217   1.168 -11.148 -0.26 +0.02    +0.045    17.681
ATOM     21  C   UNL d   1      15.708   2.404 -11.180 -0.29 +0.03    +0.057    17.681
ATOM     22  C   UNL d   1      17.276  -0.698 -10.364 -0.20 -0.01    -0.019    17.681
ATOM     23  C   UNL d   1      16.824  -0.953 -11.746 -0.14 +0.01    +0.045    17.681
ATOM     24  C   UNL d   1      16.912   0.559 -10.015 -0.28 -0.01    -0.022    17.681
ATOM     25  C   UNL d   1      16.554  -2.422 -13.716 -0.08 +0.01    +0.049    17.681
ATOM     26  C   UNL d   1      16.006  -3.378 -15.715 -0.04 -0.00    -0.018    17.681
ATOM     27  C   UNL d   1      16.201  -3.621 -14.320 -0.07 +0.00    +0.003    17.681
ATOM     28  C   UNL d   1      17.001  -2.109 -12.403 -0.12 +0.02    +0.052    17.681
ATOM     29  C   UNL d   1      17.133   1.269  -8.722 -0.22 +0.03    +0.046    17.681
ATOM     30  C   UNL d   1      15.644  -4.387 -16.751 -0.02 +0.01    +0.046    17.681
ATOM     31  H   UNL d   1      15.712   0.354 -13.000 +0.06 +0.05    +0.166    17.681
ATOM     32  H   UNL d   1      16.735  -0.477 -14.573 +0.03 +0.04    +0.166    17.681
ATOM     33  C   UNL d   1      14.865   0.207 -19.547 -0.03 +0.03    +0.141    17.681
ATOM     34  C   UNL d   1      13.426   0.198 -19.108 -0.02 +0.09    +0.306    17.681
ATOM     35  O   UNL d   1      12.854  -0.712 -18.534 -0.12 -0.10    -0.251    17.681
ATOM     36  O   UNL d   1      12.784   1.340 -19.413 -0.03 -0.14    -0.481    17.681
ATOM     37  H   UNL d   1      13.500   1.974 -19.633 +0.04 +0.07    +0.295    17.681
ATOM     38  C   UNL d   1      16.095  -4.898 -13.682 -0.10 +0.01    +0.017    17.681
ATOM     39  C   UNL d   1      15.097  -5.278 -12.870 -0.13 +0.05    +0.092    17.681
ATOM     40  C   UNL d   1      15.098  -6.625 -12.293 -0.06 +0.23    +0.330    17.681
ATOM     41  O   UNL d   1      14.660  -7.646 -12.787 -0.13 -0.14    -0.246    17.681
ATOM     42  O   UNL d   1      15.681  -6.609 -11.084 -0.62 -0.48    -0.477    17.681
ATOM     43  H   UNL d   1      15.786  -5.655 -10.887 +0.08 +0.24    +0.295    17.681
ATOM     44  C   UNL d   1      14.286   5.849 -14.220 -0.26 +0.03    +0.141    17.681
ATOM     45  C   UNL d   1      15.649   6.207 -13.690 -0.19 +0.11    +0.306    17.681
ATOM     46  O   UNL d   1      16.638   5.495 -13.689 -0.07 -0.09    -0.251    17.681
ATOM     47  O   UNL d   1      15.687   7.443 -13.159 -0.77 -0.27    -0.481    17.681
ATOM     48  H   UNL d   1      16.209   7.972 -13.799 +0.11 +0.13    +0.295    17.681
ATOM     49  C   UNL d   1      18.027  -1.691  -9.526 -0.18 +0.01    +0.048    17.681
ATOM     50  C   UNL d   1      17.084  -2.569  -8.704 -0.14 +0.05    +0.125    17.681
ATOM     51  C   UNL d   1      16.678  -3.792  -9.478 -0.17 +0.13    +0.305    17.681
ATOM     52  O   UNL d   1      17.319  -4.816  -9.638 -0.10 -0.10    -0.251    17.681
ATOM     53  O   UNL d   1      15.459  -3.654 -10.035 -0.02 -0.27    -0.481    17.681
ATOM     54  H   UNL d   1      14.911  -3.273  -9.318 -0.37 +0.13    +0.295    17.681
TER
ENDMDL
MODEL       10
USER    Run = 10
USER    Cluster Rank = 41
USER    Number of conformations in this cluster = 1
USER  
USER    RMSD from reference structure       = 14.244 A
USER  
USER    Estimated Free Energy of Binding    =   -3.96 kcal/mol  [=(1)+(2)+(3)-(4)]
USER    Estimated Inhibition Constant, Ki   =    1.24 mM (millimolar)  [Temperature = 298.15 K]
USER    
USER    (1) Final Intermolecular Energy     =   -7.84 kcal/mol
USER        vdW + Hbond + desolv Energy     =   -7.74 kcal/mol
USER        Electrostatic Energy            =   -0.10 kcal/mol
USER    (2) Final Total Internal Energy     =   -2.68 kcal/mol
USER    (3) Torsional Free Energy           =   +3.88 kcal/mol
USER    (4) Unbound System's Energy  [=(2)] =   -2.68 kcal/mol
USER    
USER    
USER  
USER    DPF = D:/Protein_go_brrr/autodock/final/AncB/heme/dock.dpf
USER    NEWDPF move	heme_opt.pdbqt
USER    NEWDPF about	0.153000 0.018000 -0.028000
USER    NEWDPF tran0	3.245122 -3.692481 14.047507
USER    NEWDPF axisangle0	0.141869 0.662290 -0.735693 -126.092715
USER    NEWDPF quaternion0	0.126458 0.590348 -0.655778 -0.453269
USER    NEWDPF dihe0	127.05 -92.19 -110.35 109.69 -133.03 -151.52 119.99 87.83 23.99 -31.74 58.18 85.38 130.47 
USER  
USER                              x       y       z    vdW   Elec        q     RMS 
ATOM      1  O   UNL d   1       7.867  -1.588  17.042 +0.00 +0.00    -0.289    14.244
ATOM      2  O   UNL d   1       0.538  -1.629  18.679 -0.21 +0.05    -0.289    14.244
ATOM      3  N   UNL d   1       5.478  -2.832  14.887 -0.42 -0.01    -0.247    14.244
ATOM      4  N   UNL d   1       2.979  -2.704  16.490 -0.11 +0.04    -0.247    14.244
ATOM      5  N   UNL d   1       1.740  -4.392  14.520 -0.02 +0.07    -0.354    14.244
ATOM      6  N   UNL d   1       4.342  -4.535  12.874 -0.07 +0.03    -0.354    14.244
ATOM      7  C   UNL d   1       7.928  -2.768  14.903 -0.01 +0.00    +0.084    14.244
ATOM      8  C   UNL d   1       2.875  -1.030  18.267 -0.20 -0.01    +0.084    14.244
ATOM      9  C   UNL d   1       3.686  -1.745  17.181 -0.17 -0.00    +0.058    14.244
ATOM     10  C   UNL d   1       6.630  -3.189  14.207 -0.07 +0.00    +0.058    14.244
ATOM     11  C   UNL d   1       7.305  -2.093  16.087 -0.01 +0.00    +0.193    14.244
ATOM     12  C   UNL d   1       5.817  -2.176  15.949 -0.10 +0.00    +0.109    14.244
ATOM     13  C   UNL d   1       1.589  -1.786  18.089 -0.19 -0.02    +0.193    14.244
ATOM     14  C   UNL d   1       8.737  -3.974  15.388 +0.00 +0.00    +0.026    14.244
ATOM     15  C   UNL d   1       4.985  -1.493  16.961 -0.14 -0.00    +0.055    14.244
ATOM     16  C   UNL d   1       2.633   0.442  17.918 -0.41 -0.00    +0.026    14.244
ATOM     17  C   UNL d   1       1.786  -2.776  16.987 -0.20 -0.01    +0.109    14.244
ATOM     18  C   UNL d   1       6.640  -3.774  12.995 -0.08 -0.00    +0.050    14.244
ATOM     19  C   UNL d   1       5.491  -4.121  12.239 -0.07 -0.00    +0.045    14.244
ATOM     20  C   UNL d   1       0.769  -4.408  15.488 -0.25 -0.00    +0.045    14.244
ATOM     21  C   UNL d   1       0.700  -3.695  16.616 +0.05 -0.00    +0.057    14.244
ATOM     22  C   UNL d   1       0.203  -5.897  13.851 -0.29 +0.00    -0.019    14.244
ATOM     23  C   UNL d   1       1.485  -5.259  13.491 -0.23 -0.00    +0.045    14.244
ATOM     24  C   UNL d   1      -0.216  -5.388  15.034 -0.27 +0.00    -0.022    14.244
ATOM     25  C   UNL d   1       3.389  -4.906  11.954 -0.14 -0.00    +0.049    14.244
ATOM     26  C   UNL d   1       5.267  -4.188  10.873 -0.17 +0.00    -0.018    14.244
ATOM     27  C   UNL d   1       3.931  -4.666  10.699 -0.23 -0.00    +0.003    14.244
ATOM     28  C   UNL d   1       2.174  -5.516  12.368 -0.24 +0.00    +0.052    14.244
ATOM     29  C   UNL d   1      -1.455  -5.706  15.799 -0.24 -0.00    +0.046    14.244
ATOM     30  C   UNL d   1       6.231  -3.830   9.794 -0.15 -0.03    +0.046    14.244
ATOM     31  H   UNL d   1       2.510  -3.733  14.558 -0.28 -0.08    +0.166    14.244
ATOM     32  H   UNL d   1       4.247  -4.592  13.881 +0.01 -0.01    +0.166    14.244
ATOM     33  C   UNL d   1       8.803  -1.783  14.121 -0.00 -0.00    +0.141    14.244
ATOM     34  C   UNL d   1       8.212  -0.400  14.066 -0.02 -0.00    +0.306    14.244
ATOM     35  O   UNL d   1       7.313  -0.030  13.330 -0.09 -0.00    -0.251    14.244
ATOM     36  O   UNL d   1       8.782   0.442  14.946 +0.01 -0.00    -0.481    14.244
ATOM     37  H   UNL d   1       8.682  -0.003  15.814 +0.02 +0.00    +0.295    14.244
ATOM     38  C   UNL d   1       3.296  -4.898   9.437 -0.36 -0.00    +0.017    14.244
ATOM     39  C   UNL d   1       3.123  -3.978   8.476 -0.42 -0.04    +0.092    14.244
ATOM     40  C   UNL d   1       2.470  -4.350   7.217 -0.34 -0.09    +0.330    14.244
ATOM     41  O   UNL d   1       2.613  -3.834   6.125 -0.48 +0.08    -0.246    14.244
ATOM     42  O   UNL d   1       1.652  -5.395   7.413 -0.15 +0.04    -0.477    14.244
ATOM     43  H   UNL d   1       0.804  -4.983   7.679 -0.34 -0.07    +0.295    14.244
ATOM     44  C   UNL d   1       3.407  -1.181  19.696 -0.09 -0.01    +0.141    14.244
ATOM     45  C   UNL d   1       3.004  -2.477  20.346 -0.02 -0.02    +0.306    14.244
ATOM     46  O   UNL d   1       3.476  -3.579  20.126 -0.01 +0.01    -0.251    14.244
ATOM     47  O   UNL d   1       1.999  -2.320  21.227 -0.00 +0.05    -0.481    14.244
ATOM     48  H   UNL d   1       1.219  -2.096  20.676 +0.08 -0.04    +0.295    14.244
ATOM     49  C   UNL d   1      -0.479  -6.945  13.021 -0.30 +0.00    +0.048    14.244
ATOM     50  C   UNL d   1       0.493  -8.036  12.573 -0.13 +0.01    +0.125    14.244
ATOM     51  C   UNL d   1       0.542  -8.128  11.074 -0.12 +0.03    +0.305    14.244
ATOM     52  O   UNL d   1       1.182  -7.430  10.307 -0.14 -0.02    -0.251    14.244
ATOM     53  O   UNL d   1      -0.248  -9.113  10.603 -0.04 -0.07    -0.481    14.244
ATOM     54  H   UNL d   1       0.212  -9.936  10.870 +0.06 +0.04    +0.295    14.244
TER
ENDMDL
MODEL       89
USER    Run = 89
USER    Cluster Rank = 42
USER    Number of conformations in this cluster = 1
USER  
USER    RMSD from reference structure       = 15.268 A
USER  
USER    Estimated Free Energy of Binding    =   -3.83 kcal/mol  [=(1)+(2)+(3)-(4)]
USER    Estimated Inhibition Constant, Ki   =    1.57 mM (millimolar)  [Temperature = 298.15 K]
USER    
USER    (1) Final Intermolecular Energy     =   -7.70 kcal/mol
USER        vdW + Hbond + desolv Energy     =   -7.50 kcal/mol
USER        Electrostatic Energy            =   -0.20 kcal/mol
USER    (2) Final Total Internal Energy     =   -4.01 kcal/mol
USER    (3) Torsional Free Energy           =   +3.88 kcal/mol
USER    (4) Unbound System's Energy  [=(2)] =   -4.01 kcal/mol
USER    
USER    
USER  
USER    DPF = D:/Protein_go_brrr/autodock/final/AncB/heme/dock.dpf
USER    NEWDPF move	heme_opt.pdbqt
USER    NEWDPF about	0.153000 0.018000 -0.028000
USER    NEWDPF tran0	-18.981742 -1.779250 2.698892
USER    NEWDPF axisangle0	0.574190 -0.127850 -0.808678 -160.750250
USER    NEWDPF quaternion0	0.566107 -0.126050 -0.797295 -0.167197
USER    NEWDPF dihe0	143.19 -150.72 143.20 -23.52 27.96 39.80 -45.86 -115.54 3.69 -144.57 -75.64 -78.95 -10.08 
USER  
USER                              x       y       z    vdW   Elec        q     RMS 
ATOM      1  O   UNL d   1     -17.684  -1.016   8.399 -0.07 -0.05    -0.289    15.268
ATOM      2  O   UNL d   1     -17.285   3.711   2.577 -0.13 -0.08    -0.289    15.268
ATOM      3  N   UNL d   1     -18.432  -1.964   5.168 -0.09 +0.02    -0.247    15.268
ATOM      4  N   UNL d   1     -18.287   0.590   3.656 -0.16 -0.01    -0.247    15.268
ATOM      5  N   UNL d   1     -19.600  -0.737   1.469 -0.12 -0.01    -0.354    15.268
ATOM      6  N   UNL d   1     -19.764  -3.377   3.052 -0.07 +0.02    -0.354    15.268
ATOM      7  C   UNL d   1     -18.587  -3.038   7.366 -0.11 +0.02    +0.084    15.268
ATOM      8  C   UNL d   1     -16.847   2.344   4.560 -0.23 +0.01    +0.084    15.268
ATOM      9  C   UNL d   1     -17.489   0.962   4.714 -0.25 +0.00    +0.058    15.268
ATOM     10  C   UNL d   1     -18.802  -3.111   5.851 -0.12 +0.00    +0.058    15.268
ATOM     11  C   UNL d   1     -18.014  -1.654   7.416 -0.08 +0.03    +0.193    15.268
ATOM     12  C   UNL d   1     -17.947  -1.119   6.019 -0.16 +0.00    +0.109    15.268
ATOM     13  C   UNL d   1     -17.459   2.704   3.236 -0.09 +0.04    +0.193    15.268
ATOM     14  C   UNL d   1     -19.911  -3.055   8.135 -0.05 +0.01    +0.026    15.268
ATOM     15  C   UNL d   1     -17.326   0.204   5.810 -0.27 +0.00    +0.055    15.268
ATOM     16  C   UNL d   1     -15.327   2.249   4.391 -0.41 +0.00    +0.026    15.268
ATOM     17  C   UNL d   1     -18.316   1.561   2.800 -0.15 +0.02    +0.109    15.268
ATOM     18  C   UNL d   1     -19.229  -4.239   5.254 -0.14 -0.00    +0.050    15.268
ATOM     19  C   UNL d   1     -19.376  -4.426   3.856 -0.14 -0.00    +0.045    15.268
ATOM     20  C   UNL d   1     -19.652   0.558   1.024 -0.16 +0.01    +0.045    15.268
ATOM     21  C   UNL d   1     -19.082   1.648   1.548 -0.17 +0.01    +0.057    15.268
ATOM     22  C   UNL d   1     -20.868  -0.759  -0.392 -0.09 -0.00    -0.019    15.268
ATOM     23  C   UNL d   1     -20.306  -1.605   0.679 -0.16 +0.00    +0.045    15.268
ATOM     24  C   UNL d   1     -20.476   0.520  -0.183 -0.09 -0.00    -0.022    15.268
ATOM     25  C   UNL d   1     -19.931  -3.800   1.754 -0.16 -0.00    +0.049    15.268
ATOM     26  C   UNL d   1     -19.252  -5.549   3.053 -0.17 -0.00    -0.018    15.268
ATOM     27  C   UNL d   1     -19.584  -5.144   1.724 -0.14 +0.00    +0.003    15.268
ATOM     28  C   UNL d   1     -20.479  -2.933   0.770 -0.16 +0.00    +0.052    15.268
ATOM     29  C   UNL d   1     -20.778   1.733  -0.996 -0.06 +0.01    +0.046    15.268
ATOM     30  C   UNL d   1     -18.847  -6.916   3.491 -0.20 +0.00    +0.046    15.268
ATOM     31  H   UNL d   1     -19.021  -0.999   2.260 -0.15 -0.02    +0.166    15.268
ATOM     32  H   UNL d   1     -19.937  -2.441   3.398 +0.01 -0.01    +0.166    15.268
ATOM     33  C   UNL d   1     -17.592  -4.054   7.937 -0.11 +0.07    +0.141    15.268
ATOM     34  C   UNL d   1     -16.275  -4.047   7.209 -0.34 +0.06    +0.306    15.268
ATOM     35  O   UNL d   1     -15.354  -3.271   7.395 -0.32 -0.07    -0.251    15.268
ATOM     36  O   UNL d   1     -16.188  -5.022   6.287 -0.78 +0.02    -0.481    15.268
ATOM     37  H   UNL d   1     -16.618  -5.798   6.706 -0.22 -0.27    +0.295    15.268
ATOM     38  C   UNL d   1     -19.600  -6.003   0.579 -0.04 +0.00    +0.017    15.268
ATOM     39  C   UNL d   1     -20.542  -6.002  -0.378 -0.09 +0.01    +0.092    15.268
ATOM     40  C   UNL d   1     -20.432  -6.923  -1.511 -0.03 +0.05    +0.330    15.268
ATOM     41  O   UNL d   1     -20.032  -8.072  -1.500 -0.04 -0.04    -0.246    15.268
ATOM     42  O   UNL d   1     -20.855  -6.325  -2.635 -0.01 -0.06    -0.477    15.268
ATOM     43  H   UNL d   1     -20.661  -5.377  -2.484 +0.03 +0.04    +0.295    15.268
ATOM     44  C   UNL d   1     -17.222   3.370   5.635 -0.12 +0.02    +0.141    15.268
ATOM     45  C   UNL d   1     -16.324   4.579   5.642 -0.09 +0.04    +0.306    15.268
ATOM     46  O   UNL d   1     -15.294   4.716   6.279 -0.20 -0.04    -0.251    15.268
ATOM     47  O   UNL d   1     -16.789   5.570   4.860 +0.01 -0.06    -0.481    15.268
ATOM     48  H   UNL d   1     -17.172   5.112   4.081 +0.07 +0.05    +0.295    15.268
ATOM     49  C   UNL d   1     -21.740  -1.271  -1.500 -0.04 +0.01    +0.048    15.268
ATOM     50  C   UNL d   1     -20.928  -1.623  -2.746 -0.06 +0.01    +0.125    15.268
ATOM     51  C   UNL d   1     -20.793  -3.112  -2.896 -0.05 +0.05    +0.305    15.268
ATOM     52  O   UNL d   1     -19.765  -3.764  -2.950 -0.56 -0.07    -0.251    15.268
ATOM     53  O   UNL d   1     -21.993  -3.721  -2.985 -0.01 -0.06    -0.481    15.268
ATOM     54  H   UNL d   1     -21.801  -4.559  -3.455 +0.02 +0.04    +0.295    15.268
TER
ENDMDL
MODEL       73
USER    Run = 73
USER    Cluster Rank = 43
USER    Number of conformations in this cluster = 1
USER  
USER    RMSD from reference structure       = 10.177 A
USER  
USER    Estimated Free Energy of Binding    =   -3.80 kcal/mol  [=(1)+(2)+(3)-(4)]
USER    Estimated Inhibition Constant, Ki   =    1.64 mM (millimolar)  [Temperature = 298.15 K]
USER    
USER    (1) Final Intermolecular Energy     =   -7.68 kcal/mol
USER        vdW + Hbond + desolv Energy     =   -7.37 kcal/mol
USER        Electrostatic Energy            =   -0.30 kcal/mol
USER    (2) Final Total Internal Energy     =   -4.63 kcal/mol
USER    (3) Torsional Free Energy           =   +3.88 kcal/mol
USER    (4) Unbound System's Energy  [=(2)] =   -4.63 kcal/mol
USER    
USER    
USER  
USER    DPF = D:/Protein_go_brrr/autodock/final/AncB/heme/dock.dpf
USER    NEWDPF move	heme_opt.pdbqt
USER    NEWDPF about	0.153000 0.018000 -0.028000
USER    NEWDPF tran0	-10.245494 0.956251 -7.436896
USER    NEWDPF axisangle0	0.375937 0.926393 0.021620 166.871991
USER    NEWDPF quaternion0	0.373472 0.920320 0.021478 0.114313
USER    NEWDPF dihe0	-99.02 120.70 -117.95 -54.04 33.16 112.63 126.03 14.65 121.11 -46.79 -80.92 -114.68 6.74 
USER  
USER                              x       y       z    vdW   Elec        q     RMS 
ATOM      1  O   UNL d   1      -5.303  -1.576  -9.415 -0.05 -0.17    -0.289    10.177
ATOM      2  O   UNL d   1     -11.447  -4.544  -6.280 -0.17 -0.00    -0.289    10.177
ATOM      3  N   UNL d   1      -7.931   0.344  -8.273 -0.14 -0.07    -0.247    10.177
ATOM      4  N   UNL d   1      -9.970  -1.676  -7.506 -0.10 -0.05    -0.247    10.177
ATOM      5  N   UNL d   1     -11.896   0.454  -7.371 -0.04 +0.00    -0.354    10.177
ATOM      6  N   UNL d   1      -9.778   2.541  -8.186 -0.06 -0.07    -0.354    10.177
ATOM      7  C   UNL d   1      -5.861   0.802  -9.504 -0.23 +0.04    +0.084    10.177
ATOM      8  C   UNL d   1      -9.164  -3.896  -6.878 -0.34 +0.02    +0.084    10.177
ATOM      9  C   UNL d   1      -8.865  -2.493  -7.417 -0.24 +0.01    +0.058    10.177
ATOM     10  C   UNL d   1      -7.158   1.322  -8.876 -0.25 +0.02    +0.058    10.177
ATOM     11  C   UNL d   1      -6.029  -0.641  -9.133 -0.16 +0.09    +0.193    10.177
ATOM     12  C   UNL d   1      -7.308  -0.786  -8.368 -0.19 +0.04    +0.109    10.177
ATOM     13  C   UNL d   1     -10.649  -3.737  -6.714 -0.17 +0.02    +0.193    10.177
ATOM     14  C   UNL d   1      -5.872   0.925 -11.030 -0.19 +0.02    +0.026    10.177
ATOM     15  C   UNL d   1      -7.640  -2.114  -7.814 -0.28 +0.02    +0.055    10.177
ATOM     16  C   UNL d   1      -8.537  -4.120  -5.499 -0.60 +0.00    +0.026    10.177
ATOM     17  C   UNL d   1     -11.012  -2.350  -7.136 -0.15 +0.01    +0.109    10.177
ATOM     18  C   UNL d   1      -7.449   2.636  -8.850 -0.31 +0.02    +0.050    10.177
ATOM     19  C   UNL d   1      -8.579   3.216  -8.220 -0.26 +0.01    +0.045    10.177
ATOM     20  C   UNL d   1     -12.732  -0.626  -7.259 -0.03 -0.00    +0.045    10.177
ATOM     21  C   UNL d   1     -12.417  -1.918  -7.123 -0.15 +0.00    +0.057    10.177
ATOM     22  C   UNL d   1     -13.995   1.267  -7.453 -0.10 +0.00    -0.019    10.177
ATOM     23  C   UNL d   1     -12.567   1.642  -7.494 -0.11 -0.00    +0.045    10.177
ATOM     24  C   UNL d   1     -14.086  -0.076  -7.312 -0.08 +0.01    -0.022    10.177
ATOM     25  C   UNL d   1     -10.755   3.320  -7.611 -0.13 +0.01    +0.049    10.177
ATOM     26  C   UNL d   1      -8.773   4.450  -7.619 -0.26 -0.00    -0.018    10.177
ATOM     27  C   UNL d   1     -10.144   4.502  -7.219 -0.16 +0.00    +0.003    10.177
ATOM     28  C   UNL d   1     -12.113   2.900  -7.606 -0.12 +0.00    +0.052    10.177
ATOM     29  C   UNL d   1     -15.309  -0.923  -7.210 -0.11 -0.01    +0.046    10.177
ATOM     30  C   UNL d   1      -7.748   5.516  -7.424 -0.37 +0.01    +0.046    10.177
ATOM     31  H   UNL d   1     -10.890   0.352  -7.286 +0.05 +0.01    +0.166    10.177
ATOM     32  H   UNL d   1      -9.911   1.615  -8.575 +0.05 +0.03    +0.166    10.177
ATOM     33  C   UNL d   1      -4.569   1.365  -8.904 +0.25 +0.06    +0.141    10.177
ATOM     34  C   UNL d   1      -3.344   0.626  -9.370 -0.24 +0.17    +0.306    10.177
ATOM     35  O   UNL d   1      -2.699   0.862 -10.378 -0.25 -0.19    -0.251    10.177
ATOM     36  O   UNL d   1      -2.993  -0.372  -8.539 -0.12 -0.22    -0.481    10.177
ATOM     37  H   UNL d   1      -3.613  -1.101  -8.753 +0.16 +0.15    +0.295    10.177
ATOM     38  C   UNL d   1     -10.773   5.613  -6.570 -0.15 +0.00    +0.017    10.177
ATOM     39  C   UNL d   1     -11.572   6.509  -7.170 -0.03 +0.02    +0.092    10.177
ATOM     40  C   UNL d   1     -12.169   7.594  -6.386 +0.01 +0.08    +0.330    10.177
ATOM     41  O   UNL d   1     -11.912   8.781  -6.443 -0.01 -0.07    -0.246    10.177
ATOM     42  O   UNL d   1     -13.099   7.103  -5.552 +0.02 -0.13    -0.477    10.177
ATOM     43  H   UNL d   1     -13.745   6.672  -6.147 +0.03 +0.08    +0.295    10.177
ATOM     44  C   UNL d   1      -8.838  -5.052  -7.830 -0.41 +0.04    +0.141    10.177
ATOM     45  C   UNL d   1     -10.031  -5.531  -8.613 -0.23 +0.10    +0.306    10.177
ATOM     46  O   UNL d   1     -10.480  -5.033  -9.631 -0.13 -0.11    -0.251    10.177
ATOM     47  O   UNL d   1     -10.616  -6.606  -8.054 -0.19 -0.13    -0.481    10.177
ATOM     48  H   UNL d   1     -10.907  -6.297  -7.170 -0.36 -0.03    +0.295    10.177
ATOM     49  C   UNL d   1     -15.126   2.246  -7.569 -0.09 -0.00    +0.048    10.177
ATOM     50  C   UNL d   1     -15.344   3.020  -6.269 -0.08 -0.02    +0.125    10.177
ATOM     51  C   UNL d   1     -14.718   4.384  -6.345 -0.06 +0.05    +0.305    10.177
ATOM     52  O   UNL d   1     -14.232   4.925  -7.323 -0.01 -0.04    -0.251    10.177
ATOM     53  O   UNL d   1     -14.726   5.010  -5.152 -0.10 -0.27    -0.481    10.177
ATOM     54  H   UNL d   1     -13.788   5.251  -5.003 +0.06 +0.12    +0.295    10.177
TER
ENDMDL
MODEL       69
USER    Run = 69
USER    Cluster Rank = 44
USER    Number of conformations in this cluster = 1
USER  
USER    RMSD from reference structure       = 18.296 A
USER  
USER    Estimated Free Energy of Binding    =   -3.68 kcal/mol  [=(1)+(2)+(3)-(4)]
USER    Estimated Inhibition Constant, Ki   =    2.01 mM (millimolar)  [Temperature = 298.15 K]
USER    
USER    (1) Final Intermolecular Energy     =   -7.56 kcal/mol
USER        vdW + Hbond + desolv Energy     =   -7.47 kcal/mol
USER        Electrostatic Energy            =   -0.09 kcal/mol
USER    (2) Final Total Internal Energy     =   -2.72 kcal/mol
USER    (3) Torsional Free Energy           =   +3.88 kcal/mol
USER    (4) Unbound System's Energy  [=(2)] =   -2.72 kcal/mol
USER    
USER    
USER  
USER    DPF = D:/Protein_go_brrr/autodock/final/AncB/heme/dock.dpf
USER    NEWDPF move	heme_opt.pdbqt
USER    NEWDPF about	0.153000 0.018000 -0.028000
USER    NEWDPF tran0	8.713439 -13.059632 -13.182781
USER    NEWDPF axisangle0	-0.557616 -0.791458 -0.250318 -101.356460
USER    NEWDPF quaternion0	-0.431371 -0.612271 -0.193646 -0.633675
USER    NEWDPF dihe0	175.15 78.37 -116.35 9.20 -153.50 90.96 122.21 -59.40 7.39 -33.12 105.38 40.59 6.15 
USER  
USER                              x       y       z    vdW   Elec        q     RMS 
ATOM      1  O   UNL d   1       8.642 -13.205 -19.076 -0.03 -0.01    -0.289    18.296
ATOM      2  O   UNL d   1       5.460 -17.728 -13.996 -0.51 -0.00    -0.289    18.296
ATOM      3  N   UNL d   1       9.079 -12.798 -15.679 -0.12 +0.00    -0.247    18.296
ATOM      4  N   UNL d   1       7.237 -14.814 -14.507 -0.10 +0.03    -0.247    18.296
ATOM      5  N   UNL d   1       7.573 -13.509 -11.968 -0.10 +0.02    -0.354    18.296
ATOM      6  N   UNL d   1       9.467 -11.410 -13.195 +0.06 -0.04    -0.354    18.296
ATOM      7  C   UNL d   1       9.721 -11.521 -17.670 -0.08 +0.01    +0.084    18.296
ATOM      8  C   UNL d   1       6.708 -16.771 -15.872 -0.04 -0.00    +0.084    18.296
ATOM      9  C   UNL d   1       7.388 -15.404 -15.742 -0.10 -0.00    +0.058    18.296
ATOM     10  C   UNL d   1       9.718 -11.661 -16.145 -0.13 +0.00    +0.058    18.296
ATOM     11  C   UNL d   1       8.986 -12.789 -17.985 -0.07 +0.01    +0.193    18.296
ATOM     12  C   UNL d   1       8.675 -13.487 -16.696 -0.11 -0.00    +0.109    18.296
ATOM     13  C   UNL d   1       6.111 -16.830 -14.494 -0.07 -0.02    +0.193    18.296
ATOM     14  C   UNL d   1       8.878 -10.332 -18.140 -0.12 +0.00    +0.026    18.296
ATOM     15  C   UNL d   1       8.031 -14.814 -16.762 -0.10 -0.00    +0.055    18.296
ATOM     16  C   UNL d   1       7.730 -17.903 -16.015 -0.02 -0.00    +0.026    18.296
ATOM     17  C   UNL d   1       6.499 -15.582 -13.771 -0.13 -0.01    +0.109    18.296
ATOM     18  C   UNL d   1      10.368 -10.784 -15.357 -0.12 +0.01    +0.050    18.296
ATOM     19  C   UNL d   1      10.491 -10.879 -13.947 -0.12 +0.01    +0.045    18.296
ATOM     20  C   UNL d   1       6.546 -14.363 -11.659 -0.24 -0.01    +0.045    18.296
ATOM     21  C   UNL d   1       6.018 -15.341 -12.403 -0.25 -0.01    +0.057    18.296
ATOM     22  C   UNL d   1       6.896 -12.961  -9.891 -0.38 +0.00    -0.019    18.296
ATOM     23  C   UNL d   1       7.856 -12.625 -10.961 -0.25 -0.00    +0.045    18.296
ATOM     24  C   UNL d   1       6.124 -13.992 -10.310 -0.34 +0.00    -0.022    18.296
ATOM     25  C   UNL d   1       9.758 -11.322 -11.853 -0.18 +0.01    +0.049    18.296
ATOM     26  C   UNL d   1      11.487 -10.471 -13.075 -0.10 -0.00    -0.018    18.296
ATOM     27  C   UNL d   1      11.028 -10.771 -11.755 -0.18 +0.00    +0.003    18.296
ATOM     28  C   UNL d   1       8.786 -11.662 -10.873 -0.12 -0.00    +0.052    18.296
ATOM     29  C   UNL d   1       5.025 -14.690  -9.583 -0.46 -0.01    +0.046    18.296
ATOM     30  C   UNL d   1      12.789  -9.842 -13.442 -0.07 +0.01    +0.046    18.296
ATOM     31  H   UNL d   1       8.098 -13.607 -12.830 +0.04 -0.01    +0.166    18.296
ATOM     32  H   UNL d   1       8.608 -11.771 -13.593 +0.06 +0.02    +0.166    18.296
ATOM     33  C   UNL d   1      11.105 -11.524 -18.327 -0.01 +0.01    +0.141    18.296
ATOM     34  C   UNL d   1      11.916 -12.738 -17.965 +0.00 +0.02    +0.306    18.296
ATOM     35  O   UNL d   1      12.788 -12.795 -17.115 -0.00 -0.02    -0.251    18.296
ATOM     36  O   UNL d   1      11.582 -13.820 -18.691 +0.00 -0.03    -0.481    18.296
ATOM     37  H   UNL d   1      10.790 -13.541 -19.199 +0.01 +0.02    +0.295    18.296
ATOM     38  C   UNL d   1      11.747 -10.496 -10.548 -0.19 +0.01    +0.017    18.296
ATOM     39  C   UNL d   1      12.419 -11.404  -9.823 -0.12 +0.04    +0.092    18.296
ATOM     40  C   UNL d   1      13.131 -10.988  -8.612 +0.01 +0.22    +0.330    18.296
ATOM     41  O   UNL d   1      12.697 -10.928  -7.478 -0.75 -0.08    -0.246    18.296
ATOM     42  O   UNL d   1      14.401 -10.670  -8.910 -0.57 -0.37    -0.477    18.296
ATOM     43  H   UNL d   1      14.913 -11.454  -8.625 +0.03 +0.11    +0.295    18.296
ATOM     44  C   UNL d   1       5.619 -16.868 -16.946 -0.04 -0.01    +0.141    18.296
ATOM     45  C   UNL d   1       4.281 -16.356 -16.484 -0.06 -0.03    +0.306    18.296
ATOM     46  O   UNL d   1       3.942 -15.189 -16.389 -0.16 +0.04    -0.251    18.296
ATOM     47  O   UNL d   1       3.443 -17.349 -16.135 -0.02 +0.05    -0.481    18.296
ATOM     48  H   UNL d   1       3.881 -17.789 -15.376 +0.06 -0.02    +0.295    18.296
ATOM     49  C   UNL d   1       6.812 -12.241  -8.577 -0.53 -0.01    +0.048    18.296
ATOM     50  C   UNL d   1       7.928 -12.666  -7.623 -0.35 -0.02    +0.125    18.296
ATOM     51  C   UNL d   1       7.669 -14.041  -7.074 -0.15 -0.07    +0.305    18.296
ATOM     52  O   UNL d   1       6.762 -14.388  -6.338 -0.25 +0.06    -0.251    18.296
ATOM     53  O   UNL d   1       8.598 -14.929  -7.479 +0.01 +0.13    -0.481    18.296
ATOM     54  H   UNL d   1       8.246 -15.794  -7.183 +0.09 -0.11    +0.295    18.296
TER
ENDMDL
MODEL       13
USER    Run = 13
USER    Cluster Rank = 45
USER    Number of conformations in this cluster = 2
USER  
USER    RMSD from reference structure       = 15.057 A
USER  
USER    Estimated Free Energy of Binding    =   -3.67 kcal/mol  [=(1)+(2)+(3)-(4)]
USER    Estimated Inhibition Constant, Ki   =    2.04 mM (millimolar)  [Temperature = 298.15 K]
USER    
USER    (1) Final Intermolecular Energy     =   -7.55 kcal/mol
USER        vdW + Hbond + desolv Energy     =   -7.46 kcal/mol
USER        Electrostatic Energy            =   -0.09 kcal/mol
USER    (2) Final Total Internal Energy     =   -4.25 kcal/mol
USER    (3) Torsional Free Energy           =   +3.88 kcal/mol
USER    (4) Unbound System's Energy  [=(2)] =   -4.25 kcal/mol
USER    
USER    
USER  
USER    DPF = D:/Protein_go_brrr/autodock/final/AncB/heme/dock.dpf
USER    NEWDPF move	heme_opt.pdbqt
USER    NEWDPF about	0.153000 0.018000 -0.028000
USER    NEWDPF tran0	18.783931 4.234523 -1.494265
USER    NEWDPF axisangle0	0.565190 -0.089533 0.820088 155.562317
USER    NEWDPF quaternion0	0.552386 -0.087504 0.801510 0.211646
USER    NEWDPF dihe0	110.72 147.27 -78.64 49.63 178.20 88.83 139.39 106.56 -13.54 -56.30 -76.41 -105.98 0.09 
USER  
USER                              x       y       z    vdW   Elec        q     RMS 
ATOM      1  O   UNL d   1      21.476   5.229  -6.644 -0.01 -0.10    -0.289    15.057
ATOM      2  O   UNL d   1      16.949   9.583  -2.527 -0.27 -0.11    -0.289    15.057
ATOM      3  N   UNL d   1      20.005   4.153  -3.716 -0.08 -0.08    -0.247    15.057
ATOM      4  N   UNL d   1      18.682   6.602  -2.676 -0.10 -0.06    -0.247    15.057
ATOM      5  N   UNL d   1      18.351   5.245  -0.163 -0.10 +0.01    -0.354    15.057
ATOM      6  N   UNL d   1      19.743   2.715  -1.244 -0.07 -0.05    -0.354    15.057
ATOM      7  C   UNL d   1      21.655   3.217  -5.268 -0.04 +0.02    +0.084    15.057
ATOM      8  C   UNL d   1      18.039   8.304  -4.307 -0.27 +0.03    +0.084    15.057
ATOM      9  C   UNL d   1      18.743   6.978  -3.999 -0.17 +0.02    +0.058    15.057
ATOM     10  C   UNL d   1      20.830   3.074  -3.986 -0.09 +0.02    +0.058    15.057
ATOM     11  C   UNL d   1      21.136   4.560  -5.686 -0.03 +0.07    +0.193    15.057
ATOM     12  C   UNL d   1      20.124   5.010  -4.677 -0.09 +0.04    +0.109    15.057
ATOM     13  C   UNL d   1      17.599   8.629  -2.907 -0.22 +0.06    +0.193    15.057
ATOM     14  C   UNL d   1      23.153   3.333  -4.978 -0.01 +0.00    +0.026    15.057
ATOM     15  C   UNL d   1      19.405   6.275  -4.930 -0.17 +0.03    +0.055    15.057
ATOM     16  C   UNL d   1      16.796   8.098  -5.178 -0.56 +0.02    +0.026    15.057
ATOM     17  C   UNL d   1      18.058   7.523  -2.014 -0.18 +0.02    +0.109    15.057
ATOM     18  C   UNL d   1      20.859   1.945  -3.253 -0.10 +0.01    +0.050    15.057
ATOM     19  C   UNL d   1      20.069   1.690  -2.103 +0.04 +0.01    +0.045    15.057
ATOM     20  C   UNL d   1      17.985   6.513   0.205 -0.18 +0.00    +0.045    15.057
ATOM     21  C   UNL d   1      17.805   7.590  -0.567 -0.07 +0.01    +0.057    15.057
ATOM     22  C   UNL d   1      18.086   5.203   2.073 -0.19 -0.00    -0.019    15.057
ATOM     23  C   UNL d   1      18.440   4.383   0.898 -0.23 +0.00    +0.045    15.057
ATOM     24  C   UNL d   1      17.817   6.463   1.656 -0.19 -0.00    -0.022    15.057
ATOM     25  C   UNL d   1      19.055   2.232  -0.155 -0.23 +0.00    +0.049    15.057
ATOM     26  C   UNL d   1      19.549   0.517  -1.578 -0.09 -0.00    -0.018    15.057
ATOM     27  C   UNL d   1      18.893   0.869  -0.358 -0.26 +0.00    +0.003    15.057
ATOM     28  C   UNL d   1      18.746   3.077   0.945 -0.24 +0.00    +0.052    15.057
ATOM     29  C   UNL d   1      17.404   7.645   2.466 -0.13 +0.01    +0.046    15.057
ATOM     30  C   UNL d   1      19.652  -0.847  -2.171 -0.24 +0.01    +0.046    15.057
ATOM     31  H   UNL d   1      18.458   4.990  -1.139 -0.09 -0.00    +0.166    15.057
ATOM     32  H   UNL d   1      20.017   3.679  -1.392 +0.04 +0.02    +0.166    15.057
ATOM     33  C   UNL d   1      21.371   2.171  -6.352 -0.05 +0.04    +0.141    15.057
ATOM     34  C   UNL d   1      19.928   1.746  -6.383 -0.09 +0.13    +0.306    15.057
ATOM     35  O   UNL d   1      19.513   0.600  -6.344 -0.15 -0.10    -0.251    15.057
ATOM     36  O   UNL d   1      19.082   2.789  -6.460 -0.06 -0.36    -0.481    15.057
ATOM     37  H   UNL d   1      19.126   3.208  -5.574 +0.10 +0.20    +0.295    15.057
ATOM     38  C   UNL d   1      18.230  -0.051   0.517 -0.36 +0.00    +0.017    15.057
ATOM     39  C   UNL d   1      18.656  -0.400   1.740 -0.19 +0.00    +0.092    15.057
ATOM     40  C   UNL d   1      17.873  -1.342   2.545 -0.13 +0.01    +0.330    15.057
ATOM     41  O   UNL d   1      17.931  -2.557   2.533 -0.11 -0.01    -0.246    15.057
ATOM     42  O   UNL d   1      17.038  -0.674   3.355 -0.09 -0.01    -0.477    15.057
ATOM     43  H   UNL d   1      17.527   0.146   3.572 +0.09 +0.01    +0.295    15.057
ATOM     44  C   UNL d   1      18.934   9.412  -4.872 -0.17 +0.04    +0.141    15.057
ATOM     45  C   UNL d   1      19.237  10.497  -3.874 -0.13 +0.10    +0.306    15.057
ATOM     46  O   UNL d   1      20.223  10.575  -3.162 -0.04 -0.06    -0.251    15.057
ATOM     47  O   UNL d   1      18.262  11.421  -3.807 -0.63 -0.31    -0.481    15.057
ATOM     48  H   UNL d   1      17.749  11.182  -3.006 +0.09 +0.18    +0.295    15.057
ATOM     49  C   UNL d   1      18.060   4.689   3.483 -0.13 +0.00    +0.048    15.057
ATOM     50  C   UNL d   1      16.741   3.987   3.807 -0.19 +0.01    +0.125    15.057
ATOM     51  C   UNL d   1      16.917   2.496   3.824 -0.13 +0.01    +0.305    15.057
ATOM     52  O   UNL d   1      17.045   1.773   4.797 -0.09 -0.02    -0.251    15.057
ATOM     53  O   UNL d   1      16.934   1.976   2.580 -0.05 +0.06    -0.481    15.057
ATOM     54  H   UNL d   1      16.298   1.232   2.625 -0.34 -0.07    +0.295    15.057
TER
ENDMDL
MODEL       90
USER    Run = 90
USER    Cluster Rank = 46
USER    Number of conformations in this cluster = 1
USER  
USER    RMSD from reference structure       = 13.492 A
USER  
USER    Estimated Free Energy of Binding    =   -3.67 kcal/mol  [=(1)+(2)+(3)-(4)]
USER    Estimated Inhibition Constant, Ki   =    2.04 mM (millimolar)  [Temperature = 298.15 K]
USER    
USER    (1) Final Intermolecular Energy     =   -7.55 kcal/mol
USER        vdW + Hbond + desolv Energy     =   -7.18 kcal/mol
USER        Electrostatic Energy            =   -0.37 kcal/mol
USER    (2) Final Total Internal Energy     =   -3.93 kcal/mol
USER    (3) Torsional Free Energy           =   +3.88 kcal/mol
USER    (4) Unbound System's Energy  [=(2)] =   -3.93 kcal/mol
USER    
USER    
USER  
USER    DPF = D:/Protein_go_brrr/autodock/final/AncB/heme/dock.dpf
USER    NEWDPF move	heme_opt.pdbqt
USER    NEWDPF about	0.153000 0.018000 -0.028000
USER    NEWDPF tran0	16.775809 -6.601619 -2.144375
USER    NEWDPF axisangle0	-0.602014 0.478172 0.639477 -150.356908
USER    NEWDPF quaternion0	-0.581984 0.462262 0.618199 -0.255809
USER    NEWDPF dihe0	46.17 -167.51 -176.42 -47.29 -10.97 -11.35 142.37 -81.66 -153.60 -10.56 -101.03 -7.39 -16.75 
USER  
USER                              x       y       z    vdW   Elec        q     RMS 
ATOM      1  O   UNL d   1      16.096  -5.540   3.615 -0.04 -0.01    -0.289    13.492
ATOM      2  O   UNL d   1      22.188  -5.244  -0.765 -0.00 -0.02    -0.289    13.492
ATOM      3  N   UNL d   1      16.037  -6.391   0.273 -0.13 -0.00    -0.247    13.492
ATOM      4  N   UNL d   1      18.766  -5.679  -0.661 -0.09 -0.02    -0.247    13.492
ATOM      5  N   UNL d   1      17.813  -5.949  -3.360 -0.13 -0.05    -0.354    13.492
ATOM      6  N   UNL d   1      14.979  -6.667  -2.383 -0.13 +0.02    -0.354    13.492
ATOM      7  C   UNL d   1      14.340  -6.141   2.024 -0.20 -0.00    +0.084    13.492
ATOM      8  C   UNL d   1      20.555  -5.687   1.003 -0.02 +0.01    +0.084    13.492
ATOM      9  C   UNL d   1      19.064  -5.817   0.676 -0.08 +0.00    +0.058    13.492
ATOM     10  C   UNL d   1      14.685  -6.463   0.567 -0.12 -0.00    +0.058    13.492
ATOM     11  C   UNL d   1      15.737  -5.892   2.506 -0.10 +0.00    +0.193    13.492
ATOM     12  C   UNL d   1      16.677  -6.100   1.358 -0.12 +0.00    +0.109    13.492
ATOM     13  C   UNL d   1      21.044  -5.412  -0.391 -0.02 +0.02    +0.193    13.492
ATOM     14  C   UNL d   1      13.534  -4.846   2.150 -0.36 +0.00    +0.026    13.492
ATOM     15  C   UNL d   1      18.127  -5.999   1.619 -0.09 +0.00    +0.055    13.492
ATOM     16  C   UNL d   1      21.150  -7.015   1.481 -0.01 +0.00    +0.026    13.492
ATOM     17  C   UNL d   1      19.861  -5.426  -1.304 -0.08 +0.01    +0.109    13.492
ATOM     18  C   UNL d   1      13.744  -6.867  -0.306 -0.28 -0.01    +0.050    13.492
ATOM     19  C   UNL d   1      13.982  -7.266  -1.646 -0.27 -0.01    +0.045    13.492
ATOM     20  C   UNL d   1      19.041  -5.389  -3.599 -0.15 +0.01    +0.045    13.492
ATOM     21  C   UNL d   1      20.031  -5.142  -2.736 -0.10 +0.01    +0.057    13.492
ATOM     22  C   UNL d   1      17.884  -5.498  -5.566 -0.17 -0.00    -0.019    13.492
ATOM     23  C   UNL d   1      17.043  -6.055  -4.488 -0.20 +0.01    +0.045    13.492
ATOM     24  C   UNL d   1      19.066  -5.107  -5.034 -0.14 -0.00    -0.022    13.492
ATOM     25  C   UNL d   1      14.974  -7.138  -3.675 -0.24 -0.00    +0.049    13.492
ATOM     26  C   UNL d   1      13.337  -8.176  -2.470 -0.28 +0.01    -0.018    13.492
ATOM     27  C   UNL d   1      13.981  -8.105  -3.744 -0.25 -0.00    +0.003    13.492
ATOM     28  C   UNL d   1      15.811  -6.556  -4.666 -0.18 +0.01    +0.052    13.492
ATOM     29  C   UNL d   1      20.242  -4.498  -5.719 -0.08 +0.01    +0.046    13.492
ATOM     30  C   UNL d   1      12.195  -9.059  -2.099 -0.24 -0.04    +0.046    13.492
ATOM     31  H   UNL d   1      17.568  -6.309  -2.444 +0.03 +0.02    +0.166    13.492
ATOM     32  H   UNL d   1      15.593  -5.950  -2.015 +0.03 +0.00    +0.166    13.492
ATOM     33  C   UNL d   1      13.694  -7.285   2.814 -0.14 -0.02    +0.141    13.492
ATOM     34  C   UNL d   1      12.222  -7.073   3.041 -0.16 -0.10    +0.306    13.492
ATOM     35  O   UNL d   1      11.417  -6.672   2.218 -0.25 +0.12    -0.251    13.492
ATOM     36  O   UNL d   1      11.841  -7.381   4.293 -0.22 +0.12    -0.481    13.492
ATOM     37  H   UNL d   1      11.006  -7.883   4.181 -0.34 -0.27    +0.295    13.492
ATOM     38  C   UNL d   1      13.616  -8.872  -4.897 -0.18 -0.01    +0.017    13.492
ATOM     39  C   UNL d   1      14.457  -9.255  -5.870 -0.16 +0.01    +0.092    13.492
ATOM     40  C   UNL d   1      13.959 -10.056  -6.992 -0.03 +0.15    +0.330    13.492
ATOM     41  O   UNL d   1      12.892 -10.635  -7.077 -0.68 -0.06    -0.246    13.492
ATOM     42  O   UNL d   1      14.863 -10.074  -7.983 -0.55 -0.37    -0.477    13.492
ATOM     43  H   UNL d   1      15.672  -9.708  -7.570 +0.04 +0.15    +0.295    13.492
ATOM     44  C   UNL d   1      20.925  -4.541   1.951 -0.02 +0.01    +0.141    13.492
ATOM     45  C   UNL d   1      20.549  -3.184   1.418 -0.03 +0.02    +0.306    13.492
ATOM     46  O   UNL d   1      19.553  -2.542   1.703 -0.06 -0.02    -0.251    13.492
ATOM     47  O   UNL d   1      21.441  -2.716   0.526 -0.00 -0.04    -0.481    13.492
ATOM     48  H   UNL d   1      22.099  -3.438   0.432 +0.01 +0.02    +0.295    13.492
ATOM     49  C   UNL d   1      17.453  -5.387  -6.999 -0.15 +0.02    +0.048    13.492
ATOM     50  C   UNL d   1      18.029  -6.514  -7.855 -0.07 +0.04    +0.125    13.492
ATOM     51  C   UNL d   1      17.236  -7.778  -7.682 -0.04 +0.12    +0.305    13.492
ATOM     52  O   UNL d   1      17.396  -8.647  -6.844 -0.02 -0.06    -0.251    13.492
ATOM     53  O   UNL d   1      16.261  -7.892  -8.607 +0.07 -0.37    -0.481    13.492
ATOM     54  H   UNL d   1      16.356  -8.809  -8.941 +0.03 +0.21    +0.295    13.492
TER
ENDMDL
MODEL       32
USER    Run = 32
USER    Cluster Rank = 47
USER    Number of conformations in this cluster = 1
USER  
USER    RMSD from reference structure       = 18.488 A
USER  
USER    Estimated Free Energy of Binding    =   -3.46 kcal/mol  [=(1)+(2)+(3)-(4)]
USER    Estimated Inhibition Constant, Ki   =    2.93 mM (millimolar)  [Temperature = 298.15 K]
USER    
USER    (1) Final Intermolecular Energy     =   -7.33 kcal/mol
USER        vdW + Hbond + desolv Energy     =   -7.19 kcal/mol
USER        Electrostatic Energy            =   -0.14 kcal/mol
USER    (2) Final Total Internal Energy     =   -4.15 kcal/mol
USER    (3) Torsional Free Energy           =   +3.88 kcal/mol
USER    (4) Unbound System's Energy  [=(2)] =   -4.15 kcal/mol
USER    
USER    
USER  
USER    DPF = D:/Protein_go_brrr/autodock/final/AncB/heme/dock.dpf
USER    NEWDPF move	heme_opt.pdbqt
USER    NEWDPF about	0.153000 0.018000 -0.028000
USER    NEWDPF tran0	14.900538 0.464726 -15.439226
USER    NEWDPF axisangle0	0.521947 -0.682504 -0.511625 -91.654251
USER    NEWDPF quaternion0	0.374362 -0.489519 -0.366958 -0.696826
USER    NEWDPF dihe0	127.88 151.83 96.03 59.31 -131.20 134.04 -47.67 57.78 42.55 -121.79 -82.45 -156.52 16.57 
USER  
USER                              x       y       z    vdW   Elec        q     RMS 
ATOM      1  O   UNL d   1      13.114   6.046 -16.082 -0.16 +0.01    -0.289    18.488
ATOM      2  O   UNL d   1      15.041   0.871 -21.171 -0.00 -0.05    -0.289    18.488
ATOM      3  N   UNL d   1      14.243   2.904 -15.216 -0.12 -0.07    -0.247    18.488
ATOM      4  N   UNL d   1      14.452   1.509 -17.831 -0.06 -0.07    -0.247    18.488
ATOM      5  N   UNL d   1      14.702  -0.965 -16.387 -0.04 -0.09    -0.354    18.488
ATOM      6  N   UNL d   1      14.465   0.489 -13.678 -0.16 -0.10    -0.354    18.488
ATOM      7  C   UNL d   1      13.337   4.817 -13.980 -0.39 +0.02    +0.084    18.488
ATOM      8  C   UNL d   1      14.811   2.894 -19.812 -0.03 +0.02    +0.084    18.488
ATOM      9  C   UNL d   1      14.535   2.798 -18.307 -0.10 +0.01    +0.058    18.488
ATOM     10  C   UNL d   1      13.890   3.389 -13.968 -0.30 +0.02    +0.058    18.488
ATOM     11  C   UNL d   1      13.457   5.060 -15.455 -0.23 +0.02    +0.193    18.488
ATOM     12  C   UNL d   1      14.043   3.837 -16.089 -0.16 +0.03    +0.109    18.488
ATOM     13  C   UNL d   1      14.831   1.421 -20.107 -0.02 +0.04    +0.193    18.488
ATOM     14  C   UNL d   1      11.858   4.864 -13.590 -0.34 +0.00    +0.026    18.488
ATOM     15  C   UNL d   1      14.341   3.878 -17.535 -0.15 +0.01    +0.055    18.488
ATOM     16  C   UNL d   1      16.199   3.473 -20.099 -0.01 +0.00    +0.026    18.488
ATOM     17  C   UNL d   1      14.593   0.692 -18.825 -0.05 +0.03    +0.109    18.488
ATOM     18  C   UNL d   1      14.089   2.722 -12.815 -0.40 +0.02    +0.050    18.488
ATOM     19  C   UNL d   1      14.672   1.435 -12.700 -0.29 +0.01    +0.045    18.488
ATOM     20  C   UNL d   1      14.551  -1.450 -17.660 -0.06 +0.01    +0.045    18.488
ATOM     21  C   UNL d   1      14.516  -0.777 -18.814 -0.05 +0.01    +0.057    18.488
ATOM     22  C   UNL d   1      14.515  -3.201 -16.193 -0.08 -0.00    -0.019    18.488
ATOM     23  C   UNL d   1      14.693  -1.947 -15.433 -0.14 +0.01    +0.045    18.488
ATOM     24  C   UNL d   1      14.433  -2.900 -17.511 -0.04 -0.00    -0.022    18.488
ATOM     25  C   UNL d   1      15.042  -0.708 -13.323 -0.13 +0.02    +0.049    18.488
ATOM     26  C   UNL d   1      15.433   0.849 -11.700 -0.31 -0.01    -0.018    18.488
ATOM     27  C   UNL d   1      15.681  -0.498 -12.108 -0.25 +0.00    +0.003    18.488
ATOM     28  C   UNL d   1      14.830  -1.879 -14.100 -0.18 +0.02    +0.052    18.488
ATOM     29  C   UNL d   1      14.264  -3.822 -18.670 -0.01 +0.01    +0.046    18.488
ATOM     30  C   UNL d   1      15.905   1.499 -10.444 -0.32 +0.03    +0.046    18.488
ATOM     31  H   UNL d   1      14.882   0.019 -16.216 +0.04 +0.04    +0.166    18.488
ATOM     32  H   UNL d   1      13.924   0.660 -14.518 +0.06 +0.05    +0.166    18.488
ATOM     33  C   UNL d   1      14.158   5.847 -13.197 -0.35 +0.04    +0.141    18.488
ATOM     34  C   UNL d   1      15.207   6.517 -14.043 -0.22 +0.09    +0.306    18.488
ATOM     35  O   UNL d   1      16.273   6.034 -14.385 -0.09 -0.08    -0.251    18.488
ATOM     36  O   UNL d   1      14.855   7.759 -14.418 -0.56 -0.14    -0.481    18.488
ATOM     37  H   UNL d   1      13.983   7.648 -14.854 -0.24 -0.07    +0.295    18.488
ATOM     38  C   UNL d   1      16.421  -1.466 -11.355 -0.25 +0.01    +0.017    18.488
ATOM     39  C   UNL d   1      16.104  -1.897 -10.125 -0.37 +0.03    +0.092    18.488
ATOM     40  C   UNL d   1      16.937  -2.907  -9.467 -0.16 +0.13    +0.330    18.488
ATOM     41  O   UNL d   1      17.377  -2.885  -8.334 -0.19 -0.10    -0.246    18.488
ATOM     42  O   UNL d   1      17.171  -3.929 -10.305 -0.04 -0.18    -0.477    18.488
ATOM     43  H   UNL d   1      16.387  -3.934 -10.893 +0.09 +0.13    +0.295    18.488
ATOM     44  C   UNL d   1      13.732   3.605 -20.637 -0.05 +0.03    +0.141    18.488
ATOM     45  C   UNL d   1      13.951   3.492 -22.122 +0.00 +0.05    +0.306    18.488
ATOM     46  O   UNL d   1      14.560   4.277 -22.828 -0.00 -0.04    -0.251    18.488
ATOM     47  O   UNL d   1      13.361   2.403 -22.648 +0.01 -0.08    -0.481    18.488
ATOM     48  H   UNL d   1      14.011   1.681 -22.514 +0.01 +0.05    +0.295    18.488
ATOM     49  C   UNL d   1      14.428  -4.561 -15.566 -0.08 +0.01    +0.048    18.488
ATOM     50  C   UNL d   1      15.750  -4.975 -14.920 -0.05 +0.03    +0.125    18.488
ATOM     51  C   UNL d   1      15.726  -4.721 -13.439 -0.07 +0.11    +0.305    18.488
ATOM     52  O   UNL d   1      14.880  -5.078 -12.638 -0.13 -0.14    -0.251    18.488
ATOM     53  O   UNL d   1      16.790  -4.000 -13.034 -0.02 -0.15    -0.481    18.488
ATOM     54  H   UNL d   1      17.231  -4.577 -12.374 +0.05 +0.09    +0.295    18.488
TER
ENDMDL
MODEL       75
USER    Run = 75
USER    Cluster Rank = 48
USER    Number of conformations in this cluster = 1
USER  
USER    RMSD from reference structure       = 11.281 A
USER  
USER    Estimated Free Energy of Binding    =   -3.40 kcal/mol  [=(1)+(2)+(3)-(4)]
USER    Estimated Inhibition Constant, Ki   =    3.20 mM (millimolar)  [Temperature = 298.15 K]
USER    
USER    (1) Final Intermolecular Energy     =   -7.28 kcal/mol
USER        vdW + Hbond + desolv Energy     =   -6.87 kcal/mol
USER        Electrostatic Energy            =   -0.41 kcal/mol
USER    (2) Final Total Internal Energy     =   -4.24 kcal/mol
USER    (3) Torsional Free Energy           =   +3.88 kcal/mol
USER    (4) Unbound System's Energy  [=(2)] =   -4.24 kcal/mol
USER    
USER    
USER  
USER    DPF = D:/Protein_go_brrr/autodock/final/AncB/heme/dock.dpf
USER    NEWDPF move	heme_opt.pdbqt
USER    NEWDPF about	0.153000 0.018000 -0.028000
USER    NEWDPF tran0	-0.187709 -12.625727 5.592047
USER    NEWDPF axisangle0	-0.394865 0.285002 -0.873416 147.655436
USER    NEWDPF quaternion0	-0.379239 0.273724 -0.838854 0.278527
USER    NEWDPF dihe0	144.79 127.38 112.15 45.07 -141.48 93.09 126.10 91.40 9.64 -2.08 -74.64 -93.76 -5.61 
USER  
USER                              x       y       z    vdW   Elec        q     RMS 
ATOM      1  O   UNL d   1       2.112 -15.691   1.112 -0.05 -0.04    -0.289    11.281
ATOM      2  O   UNL d   1       3.799  -8.889   3.810 -0.08 -0.03    -0.289    11.281
ATOM      3  N   UNL d   1       0.376 -14.228   3.708 -0.44 -0.11    -0.247    11.281
ATOM      4  N   UNL d   1       1.925 -11.752   4.256 -0.11 -0.03    -0.247    11.281
ATOM      5  N   UNL d   1       0.467 -11.496   6.721 -0.09 -0.06    -0.354    11.281
ATOM      6  N   UNL d   1      -1.122 -14.076   6.154 -0.04 -0.11    -0.354    11.281
ATOM      7  C   UNL d   1       0.343 -16.428   2.629 -0.06 +0.02    +0.084    11.281
ATOM      8  C   UNL d   1       3.218 -10.810   2.409 -0.30 +0.00    +0.084    11.281
ATOM      9  C   UNL d   1       2.340 -11.940   2.957 -0.24 +0.01    +0.058    11.281
ATOM     10  C   UNL d   1      -0.205 -15.485   3.704 -0.06 +0.02    +0.058    11.281
ATOM     11  C   UNL d   1       1.325 -15.476   2.015 -0.07 +0.04    +0.193    11.281
ATOM     12  C   UNL d   1       1.231 -14.169   2.740 -0.15 +0.03    +0.109    11.281
ATOM     13  C   UNL d   1       3.255  -9.964   3.650 -0.19 +0.01    +0.193    11.281
ATOM     14  C   UNL d   1       1.110 -17.606   3.237 -0.02 +0.01    +0.026    11.281
ATOM     15  C   UNL d   1       2.046 -13.040   2.247 -0.26 +0.01    +0.055    11.281
ATOM     16  C   UNL d   1       2.509 -10.027   1.300 -0.48 +0.00    +0.026    11.281
ATOM     17  C   UNL d   1       2.440 -10.649   4.698 -0.20 +0.01    +0.109    11.281
ATOM     18  C   UNL d   1      -1.229 -15.845   4.500 -0.07 +0.02    +0.050    11.281
ATOM     19  C   UNL d   1      -1.856 -15.013   5.462 +0.01 +0.02    +0.045    11.281
ATOM     20  C   UNL d   1       1.419 -10.528   6.909 -0.17 +0.01    +0.045    11.281
ATOM     21  C   UNL d   1       2.330 -10.069   6.044 -0.24 +0.01    +0.057    11.281
ATOM     22  C   UNL d   1       0.223 -10.772   8.840 -0.11 -0.00    -0.019    11.281
ATOM     23  C   UNL d   1      -0.304 -11.714   7.832 -0.15 +0.01    +0.045    11.281
ATOM     24  C   UNL d   1       1.242 -10.072   8.287 -0.03 -0.00    -0.022    11.281
ATOM     25  C   UNL d   1      -1.905 -13.446   7.093 -0.11 +0.02    +0.049    11.281
ATOM     26  C   UNL d   1      -3.157 -14.965   5.938 -0.10 -0.01    -0.018    11.281
ATOM     27  C   UNL d   1      -3.187 -13.961   6.955 -0.12 +0.00    +0.003    11.281
ATOM     28  C   UNL d   1      -1.333 -12.550   8.037 -0.12 +0.01    +0.052    11.281
ATOM     29  C   UNL d   1       2.080  -9.003   8.901 -0.04 +0.01    +0.046    11.281
ATOM     30  C   UNL d   1      -4.304 -15.799   5.478 -0.14 +0.05    +0.046    11.281
ATOM     31  H   UNL d   1       0.326 -11.925   5.813 +0.05 +0.03    +0.166    11.281
ATOM     32  H   UNL d   1      -0.133 -13.917   6.004 +0.03 +0.04    +0.166    11.281
ATOM     33  C   UNL d   1      -0.675 -16.898   1.585 -0.10 +0.05    +0.141    11.281
ATOM     34  C   UNL d   1      -1.329 -15.755   0.859 -0.23 +0.12    +0.306    11.281
ATOM     35  O   UNL d   1      -2.326 -15.150   1.215 -0.28 -0.12    -0.251    11.281
ATOM     36  O   UNL d   1      -0.690 -15.430  -0.280 -0.21 -0.12    -0.481    11.281
ATOM     37  H   UNL d   1       0.261 -15.537  -0.067 +0.14 +0.06    +0.295    11.281
ATOM     38  C   UNL d   1      -4.339 -13.597   7.722 -0.17 +0.01    +0.017    11.281
ATOM     39  C   UNL d   1      -4.419 -13.627   9.061 -0.11 +0.05    +0.092    11.281
ATOM     40  C   UNL d   1      -5.656 -13.212   9.728 -0.14 +0.19    +0.330    11.281
ATOM     41  O   UNL d   1      -6.602 -13.909  10.042 -0.23 -0.17    -0.246    11.281
ATOM     42  O   UNL d   1      -5.625 -11.893   9.978 -0.09 -0.25    -0.477    11.281
ATOM     43  H   UNL d   1      -4.780 -11.765  10.455 +0.13 +0.13    +0.295    11.281
ATOM     44  C   UNL d   1       4.631 -11.220   1.981 -0.29 -0.04    +0.141    11.281
ATOM     45  C   UNL d   1       5.376 -11.984   3.044 -0.07 -0.11    +0.306    11.281
ATOM     46  O   UNL d   1       5.278 -13.175   3.286 -0.03 +0.04    -0.251    11.281
ATOM     47  O   UNL d   1       6.189 -11.196   3.770 -0.06 +0.35    -0.481    11.281
ATOM     48  H   UNL d   1       6.899 -10.931   3.147 -0.45 -0.59    +0.295    11.281
ATOM     49  C   UNL d   1      -0.303 -10.656  10.240 -0.11 +0.01    +0.048    11.281
ATOM     50  C   UNL d   1      -1.446  -9.646  10.336 -0.22 +0.02    +0.125    11.281
ATOM     51  C   UNL d   1      -2.766 -10.344  10.501 -0.16 +0.08    +0.305    11.281
ATOM     52  O   UNL d   1      -3.277 -10.733  11.537 -0.11 -0.08    -0.251    11.281
ATOM     53  O   UNL d   1      -3.388 -10.532   9.320 -0.10 -0.14    -0.481    11.281
ATOM     54  H   UNL d   1      -4.318 -10.276   9.497 +0.17 +0.10    +0.295    11.281
TER
ENDMDL
MODEL       38
USER    Run = 38
USER    Cluster Rank = 49
USER    Number of conformations in this cluster = 1
USER  
USER    RMSD from reference structure       = 14.291 A
USER  
USER    Estimated Free Energy of Binding    =   -3.39 kcal/mol  [=(1)+(2)+(3)-(4)]
USER    Estimated Inhibition Constant, Ki   =    3.27 mM (millimolar)  [Temperature = 298.15 K]
USER    
USER    (1) Final Intermolecular Energy     =   -7.27 kcal/mol
USER        vdW + Hbond + desolv Energy     =   -6.71 kcal/mol
USER        Electrostatic Energy            =   -0.56 kcal/mol
USER    (2) Final Total Internal Energy     =   -4.05 kcal/mol
USER    (3) Torsional Free Energy           =   +3.88 kcal/mol
USER    (4) Unbound System's Energy  [=(2)] =   -4.05 kcal/mol
USER    
USER    
USER  
USER    DPF = D:/Protein_go_brrr/autodock/final/AncB/heme/dock.dpf
USER    NEWDPF move	heme_opt.pdbqt
USER    NEWDPF about	0.153000 0.018000 -0.028000
USER    NEWDPF tran0	8.449265 15.496008 1.013338
USER    NEWDPF axisangle0	0.020002 -0.502107 -0.864574 84.511598
USER    NEWDPF quaternion0	0.013450 -0.337638 -0.581376 0.740150
USER    NEWDPF dihe0	-153.12 -175.39 -105.34 -33.66 -141.86 79.04 124.07 -91.98 -127.31 -24.43 -86.36 -102.35 -4.15 
USER  
USER                              x       y       z    vdW   Elec        q     RMS 
ATOM      1  O   UNL d   1       6.755  11.532   5.035 -0.72 -0.14    -0.289    14.291
ATOM      2  O   UNL d   1      11.644  11.014  -0.642 -0.29 -0.06    -0.289    14.291
ATOM      3  N   UNL d   1       7.332  14.116   2.824 -0.09 +0.08    -0.247    14.291
ATOM      4  N   UNL d   1       9.585  13.109   1.169 -0.10 -0.02    -0.247    14.291
ATOM      5  N   UNL d   1       9.932  15.786   0.179 -0.07 -0.01    -0.354    14.291
ATOM      6  N   UNL d   1       7.607  16.826   1.915 -0.01 +0.08    -0.354    14.291
ATOM      7  C   UNL d   1       6.028  13.861   4.884 -0.17 -0.04    +0.084    14.291
ATOM      8  C   UNL d   1       9.823  10.686   0.961 -0.35 +0.02    +0.084    14.291
ATOM      9  C   UNL d   1       9.113  11.887   1.594 -0.24 +0.01    +0.058    14.291
ATOM     10  C   UNL d   1       6.500  14.751   3.731 -0.12 -0.03    +0.058    14.291
ATOM     11  C   UNL d   1       6.726  12.604   4.459 -0.18 -0.02    +0.193    14.291
ATOM     12  C   UNL d   1       7.461  12.880   3.184 -0.18 -0.01    +0.109    14.291
ATOM     13  C   UNL d   1      10.809  11.452   0.125 -0.23 +0.04    +0.193    14.291
ATOM     14  C   UNL d   1       6.600  14.313   6.230 -0.13 -0.00    +0.026    14.291
ATOM     15  C   UNL d   1       8.152  11.756   2.522 -0.33 +0.01    +0.055    14.291
ATOM     16  C   UNL d   1       8.892   9.903   0.029 -0.07 +0.00    +0.026    14.291
ATOM     17  C   UNL d   1      10.564  12.909   0.347 -0.15 +0.01    +0.109    14.291
ATOM     18  C   UNL d   1       6.053  16.013   3.589 -0.11 -0.03    +0.050    14.291
ATOM     19  C   UNL d   1       6.368  16.881   2.512 -0.07 -0.02    +0.045    14.291
ATOM     20  C   UNL d   1      11.065  15.200  -0.324 -0.16 +0.00    +0.045    14.291
ATOM     21  C   UNL d   1      11.416  13.910  -0.314 -0.22 +0.01    +0.057    14.291
ATOM     22  C   UNL d   1      11.161  17.448  -0.717 -0.09 -0.00    -0.019    14.291
ATOM     23  C   UNL d   1       9.901  17.142  -0.010 -0.08 +0.00    +0.045    14.291
ATOM     24  C   UNL d   1      11.845  16.294  -0.901 -0.16 -0.00    -0.022    14.291
ATOM     25  C   UNL d   1       7.727  17.810   0.960 -0.04 -0.01    +0.049    14.291
ATOM     26  C   UNL d   1       5.652  17.902   1.906 -0.06 +0.01    -0.018    14.291
ATOM     27  C   UNL d   1       6.508  18.472   0.914 -0.03 -0.00    +0.003    14.291
ATOM     28  C   UNL d   1       8.971  18.053   0.317 -0.05 -0.00    +0.052    14.291
ATOM     29  C   UNL d   1      13.159  16.086  -1.572 -0.24 +0.01    +0.046    14.291
ATOM     30  C   UNL d   1       4.258  18.323   2.225 -0.09 -0.03    +0.046    14.291
ATOM     31  H   UNL d   1       9.181  15.228   0.571 +0.04 -0.00    +0.166    14.291
ATOM     32  H   UNL d   1       8.330  16.170   2.184 +0.02 -0.02    +0.166    14.291
ATOM     33  C   UNL d   1       4.514  13.635   4.963 -0.18 -0.16    +0.141    14.291
ATOM     34  C   UNL d   1       3.788  14.794   5.591 -0.18 -0.29    +0.306    14.291
ATOM     35  O   UNL d   1       3.583  14.956   6.782 -0.30 +0.14    -0.251    14.291
ATOM     36  O   UNL d   1       3.361  15.691   4.684 -0.13 +0.63    -0.481    14.291
ATOM     37  H   UNL d   1       3.282  15.180   3.851 -0.45 -0.73    +0.295    14.291
ATOM     38  C   UNL d   1       6.167  19.570   0.061 -0.02 -0.00    +0.017    14.291
ATOM     39  C   UNL d   1       6.749  20.779   0.084 -0.00 -0.01    +0.092    14.291
ATOM     40  C   UNL d   1       6.317  21.816  -0.856 +0.00 -0.02    +0.330    14.291
ATOM     41  O   UNL d   1       5.314  22.501  -0.798 +0.00 +0.01    -0.246    14.291
ATOM     42  O   UNL d   1       7.212  21.940  -1.849 +0.00 +0.00    -0.477    14.291
ATOM     43  H   UNL d   1       7.861  21.229  -1.671 +0.01 -0.00    +0.295    14.291
ATOM     44  C   UNL d   1      10.542   9.751   1.939 -0.35 +0.08    +0.141    14.291
ATOM     45  C   UNL d   1      11.821  10.330   2.482 -0.16 +0.14    +0.306    14.291
ATOM     46  O   UNL d   1      11.925  11.143   3.385 -0.09 -0.12    -0.251    14.291
ATOM     47  O   UNL d   1      12.908   9.872   1.837 -0.07 -0.17    -0.481    14.291
ATOM     48  H   UNL d   1      12.893  10.330   0.969 +0.13 +0.09    +0.295    14.291
ATOM     49  C   UNL d   1      11.581  18.828  -1.129 -0.05 +0.00    +0.048    14.291
ATOM     50  C   UNL d   1      11.035  19.201  -2.507 -0.06 +0.01    +0.125    14.291
ATOM     51  C   UNL d   1       9.744  19.959  -2.385 -0.01 +0.01    +0.305    14.291
ATOM     52  O   UNL d   1       8.612  19.521  -2.492 -0.02 -0.01    -0.251    14.291
ATOM     53  O   UNL d   1       9.949  21.269  -2.139 +0.00 -0.02    -0.481    14.291
ATOM     54  H   UNL d   1       9.215  21.717  -2.608 +0.01 +0.01    +0.295    14.291
TER
ENDMDL
MODEL       84
USER    Run = 84
USER    Cluster Rank = 50
USER    Number of conformations in this cluster = 1
USER  
USER    RMSD from reference structure       = 11.215 A
USER  
USER    Estimated Free Energy of Binding    =   -3.38 kcal/mol  [=(1)+(2)+(3)-(4)]
USER    Estimated Inhibition Constant, Ki   =    3.35 mM (millimolar)  [Temperature = 298.15 K]
USER    
USER    (1) Final Intermolecular Energy     =   -7.25 kcal/mol
USER        vdW + Hbond + desolv Energy     =   -7.10 kcal/mol
USER        Electrostatic Energy            =   -0.15 kcal/mol
USER    (2) Final Total Internal Energy     =   -2.61 kcal/mol
USER    (3) Torsional Free Energy           =   +3.88 kcal/mol
USER    (4) Unbound System's Energy  [=(2)] =   -2.61 kcal/mol
USER    
USER    
USER  
USER    DPF = D:/Protein_go_brrr/autodock/final/AncB/heme/dock.dpf
USER    NEWDPF move	heme_opt.pdbqt
USER    NEWDPF about	0.153000 0.018000 -0.028000
USER    NEWDPF tran0	-12.091306 -0.067552 -7.375488
USER    NEWDPF axisangle0	-0.726362 -0.685314 0.052374 -177.625666
USER    NEWDPF quaternion0	-0.726206 -0.685167 0.052363 -0.020718
USER    NEWDPF dihe0	131.22 -80.70 115.44 115.17 -138.87 -157.24 -45.51 114.69 12.39 -133.88 63.48 -159.46 144.17 
USER  
USER                              x       y       z    vdW   Elec        q     RMS 
ATOM      1  O   UNL d   1     -10.794  -5.792  -7.924 -0.19 -0.06    -0.289    11.215
ATOM      2  O   UNL d   1     -16.886  -2.360  -5.186 -0.12 +0.11    -0.289    11.215
ATOM      3  N   UNL d   1     -11.053  -2.362  -7.677 -0.06 -0.04    -0.247    11.215
ATOM      4  N   UNL d   1     -13.860  -1.951  -6.794 -0.10 +0.06    -0.247    11.215
ATOM      5  N   UNL d   1     -13.562   0.832  -7.454 -0.06 +0.07    -0.354    11.215
ATOM      6  N   UNL d   1     -10.658   0.393  -8.387 -0.03 -0.06    -0.354    11.215
ATOM      7  C   UNL d   1      -9.414  -3.907  -8.643 -0.19 +0.03    +0.084    11.215
ATOM      8  C   UNL d   1     -14.920  -3.770  -5.554 -0.17 -0.01    +0.084    11.215
ATOM      9  C   UNL d   1     -13.718  -3.246  -6.348 -0.16 -0.01    +0.058    11.215
ATOM     10  C   UNL d   1      -9.854  -2.467  -8.361 -0.12 +0.01    +0.058    11.215
ATOM     11  C   UNL d   1     -10.568  -4.597  -7.981 -0.14 +0.04    +0.193    11.215
ATOM     12  C   UNL d   1     -11.479  -3.554  -7.411 -0.13 +0.02    +0.109    11.215
ATOM     13  C   UNL d   1     -15.784  -2.546  -5.665 -0.08 -0.09    +0.193    11.215
ATOM     14  C   UNL d   1      -9.435  -4.232 -10.139 -0.20 +0.01    +0.026    11.215
ATOM     15  C   UNL d   1     -12.646  -4.003  -6.626 -0.22 +0.00    +0.055    11.215
ATOM     16  C   UNL d   1     -14.572  -3.996  -4.080 -0.38 -0.01    +0.026    11.215
ATOM     17  C   UNL d   1     -15.030  -1.520  -6.445 -0.01 -0.06    +0.109    11.215
ATOM     18  C   UNL d   1      -9.074  -1.418  -8.684 -0.14 +0.01    +0.050    11.215
ATOM     19  C   UNL d   1      -9.358  -0.061  -8.388 -0.14 +0.01    +0.045    11.215
ATOM     20  C   UNL d   1     -14.914   0.787  -7.227 -0.09 -0.02    +0.045    11.215
ATOM     21  C   UNL d   1     -15.650  -0.222  -6.751 -0.08 -0.03    +0.057    11.215
ATOM     22  C   UNL d   1     -14.371   2.849  -8.046 -0.05 -0.00    -0.019    11.215
ATOM     23  C   UNL d   1     -13.141   2.037  -7.949 -0.08 -0.00    +0.045    11.215
ATOM     24  C   UNL d   1     -15.416   2.104  -7.616 -0.07 +0.00    -0.022    11.215
ATOM     25  C   UNL d   1     -10.696   1.750  -8.166 -0.12 +0.01    +0.049    11.215
ATOM     26  C   UNL d   1      -8.533   1.022  -8.124 -0.24 -0.00    -0.018    11.215
ATOM     27  C   UNL d   1      -9.384   2.159  -7.966 -0.22 +0.00    +0.003    11.215
ATOM     28  C   UNL d   1     -11.915   2.473  -8.275 -0.08 +0.00    +0.052    11.215
ATOM     29  C   UNL d   1     -16.854   2.485  -7.514 -0.04 +0.00    +0.046    11.215
ATOM     30  C   UNL d   1      -7.045   1.004  -8.023 -0.32 +0.01    +0.046    11.215
ATOM     31  H   UNL d   1     -12.959   0.060  -7.192 +0.03 -0.03    +0.166    11.215
ATOM     32  H   UNL d   1     -11.458  -0.201  -8.568 +0.03 +0.02    +0.166    11.215
ATOM     33  C   UNL d   1      -8.091  -4.329  -7.995 -0.25 +0.05    +0.141    11.215
ATOM     34  C   UNL d   1      -8.125  -4.231  -6.494 -0.32 +0.07    +0.306    11.215
ATOM     35  O   UNL d   1      -7.906  -3.230  -5.832 -0.38 -0.06    -0.251    11.215
ATOM     36  O   UNL d   1      -8.435  -5.400  -5.905 -0.12 -0.05    -0.481    11.215
ATOM     37  H   UNL d   1      -9.253  -5.695  -6.357 -0.34 -0.06    +0.295    11.215
ATOM     38  C   UNL d   1      -8.938   3.492  -7.696 -0.30 +0.00    +0.017    11.215
ATOM     39  C   UNL d   1      -8.082   4.191  -8.457 -0.31 +0.03    +0.092    11.215
ATOM     40  C   UNL d   1      -7.718   5.559  -8.078 -0.24 +0.10    +0.330    11.215
ATOM     41  O   UNL d   1      -7.260   6.431  -8.792 -0.30 -0.10    -0.246    11.215
ATOM     42  O   UNL d   1      -7.970   5.760  -6.776 -0.12 -0.11    -0.477    11.215
ATOM     43  H   UNL d   1      -7.097   5.649  -6.347 -0.32 -0.00    +0.295    11.215
ATOM     44  C   UNL d   1     -15.622  -4.994  -6.152 -0.07 +0.01    +0.141    11.215
ATOM     45  C   UNL d   1     -16.740  -5.517  -5.290 -0.05 +0.02    +0.306    11.215
ATOM     46  O   UNL d   1     -16.648  -6.353  -4.408 -0.09 -0.02    -0.251    11.215
ATOM     47  O   UNL d   1     -17.930  -4.975  -5.605 +0.00 -0.04    -0.481    11.215
ATOM     48  H   UNL d   1     -17.838  -4.025  -5.380 +0.05 +0.00    +0.295    11.215
ATOM     49  C   UNL d   1     -14.412   4.259  -8.559 -0.01 +0.01    +0.048    11.215
ATOM     50  C   UNL d   1     -13.929   4.352 -10.006 +0.00 +0.02    +0.125    11.215
ATOM     51  C   UNL d   1     -12.671   5.167 -10.101 +0.00 +0.06    +0.305    11.215
ATOM     52  O   UNL d   1     -11.543   4.768 -10.332 -0.01 -0.06    -0.251    11.215
ATOM     53  O   UNL d   1     -12.901   6.477  -9.882 +0.00 -0.10    -0.481    11.215
ATOM     54  H   UNL d   1     -13.467   6.748 -10.634 +0.00 +0.06    +0.295    11.215
TER
ENDMDL
MODEL       40
USER    Run = 40
USER    Cluster Rank = 51
USER    Number of conformations in this cluster = 1
USER  
USER    RMSD from reference structure       = 16.200 A
USER  
USER    Estimated Free Energy of Binding    =   -3.31 kcal/mol  [=(1)+(2)+(3)-(4)]
USER    Estimated Inhibition Constant, Ki   =    3.73 mM (millimolar)  [Temperature = 298.15 K]
USER    
USER    (1) Final Intermolecular Energy     =   -7.19 kcal/mol
USER        vdW + Hbond + desolv Energy     =   -6.79 kcal/mol
USER        Electrostatic Energy            =   -0.40 kcal/mol
USER    (2) Final Total Internal Energy     =   -3.54 kcal/mol
USER    (3) Torsional Free Energy           =   +3.88 kcal/mol
USER    (4) Unbound System's Energy  [=(2)] =   -3.54 kcal/mol
USER    
USER    
USER  
USER    DPF = D:/Protein_go_brrr/autodock/final/AncB/heme/dock.dpf
USER    NEWDPF move	heme_opt.pdbqt
USER    NEWDPF about	0.153000 0.018000 -0.028000
USER    NEWDPF tran0	19.442929 -0.702332 -6.267621
USER    NEWDPF axisangle0	-0.517175 0.140751 0.844227 134.189202
USER    NEWDPF quaternion0	-0.476395 0.129652 0.777659 0.389211
USER    NEWDPF dihe0	119.30 95.40 -29.03 122.24 -132.22 -85.55 -45.82 68.32 29.86 4.66 -54.26 37.13 26.22 
USER  
USER                              x       y       z    vdW   Elec        q     RMS 
ATOM      1  O   UNL d   1      21.075   2.157  -1.377 -0.04 -0.04    -0.289    16.200
ATOM      2  O   UNL d   1      19.083   4.716  -8.151 -0.67 -0.43    -0.289    16.200
ATOM      3  N   UNL d   1      20.318   0.068  -4.015 -0.08 -0.06    -0.247    16.200
ATOM      4  N   UNL d   1      19.375   1.941  -6.121 +0.04 -0.13    -0.247    16.200
ATOM      5  N   UNL d   1      18.354  -0.332  -7.555 -0.15 -0.13    -0.354    16.200
ATOM      6  N   UNL d   1      19.319  -2.266  -5.357 -0.12 -0.09    -0.354    16.200
ATOM      7  C   UNL d   1      20.818  -0.260  -1.638 -0.10 +0.01    +0.084    16.200
ATOM      8  C   UNL d   1      20.210   4.236  -6.031 -0.10 +0.05    +0.084    16.200
ATOM      9  C   UNL d   1      20.116   2.846  -5.394 -0.08 +0.03    +0.058    16.200
ATOM     10  C   UNL d   1      20.460  -0.863  -3.000 -0.15 +0.01    +0.058    16.200
ATOM     11  C   UNL d   1      20.872   1.176  -2.068 -0.07 +0.03    +0.193    16.200
ATOM     12  C   UNL d   1      20.577   1.241  -3.535 +0.04 +0.03    +0.109    16.200
ATOM     13  C   UNL d   1      19.354   3.963  -7.236 -0.08 +0.20    +0.193    16.200
ATOM     14  C   UNL d   1      19.688  -0.429  -0.619 -0.22 +0.00    +0.026    16.200
ATOM     15  C   UNL d   1      20.666   2.554  -4.205 -0.09 +0.02    +0.055    16.200
ATOM     16  C   UNL d   1      21.634   4.551  -6.500 -0.04 +0.01    +0.026    16.200
ATOM     17  C   UNL d   1      18.905   2.539  -7.168 -0.12 +0.09    +0.109    16.200
ATOM     18  C   UNL d   1      20.385  -2.195  -3.181 -0.16 +0.01    +0.050    16.200
ATOM     19  C   UNL d   1      20.144  -2.844  -4.418 -0.14 +0.01    +0.045    16.200
ATOM     20  C   UNL d   1      17.799   0.681  -8.293 -0.28 +0.02    +0.045    16.200
ATOM     21  C   UNL d   1      18.011   1.997  -8.201 -0.25 +0.05    +0.057    16.200
ATOM     22  C   UNL d   1      16.957  -1.313  -9.025 -0.29 -0.01    -0.019    16.200
ATOM     23  C   UNL d   1      17.906  -1.573  -7.924 -0.21 +0.02    +0.045    16.200
ATOM     24  C   UNL d   1      16.899   0.023  -9.239 -0.33 -0.01    -0.022    16.200
ATOM     25  C   UNL d   1      19.153  -3.103  -6.436 -0.17 +0.01    +0.049    16.200
ATOM     26  C   UNL d   1      20.554  -4.071  -4.916 -0.07 -0.00    -0.018    16.200
ATOM     27  C   UNL d   1      19.942  -4.221  -6.198 -0.08 +0.00    +0.003    16.200
ATOM     28  C   UNL d   1      18.221  -2.793  -7.463 -0.21 +0.02    +0.052    16.200
ATOM     29  C   UNL d   1      16.096   0.771 -10.248 -0.41 +0.02    +0.046    16.200
ATOM     30  C   UNL d   1      21.462  -5.045  -4.245 -0.03 +0.01    +0.046    16.200
ATOM     31  H   UNL d   1      19.080  -0.148  -6.871 +0.05 +0.06    +0.166    16.200
ATOM     32  H   UNL d   1      18.872  -1.365  -5.231 +0.05 +0.05    +0.166    16.200
ATOM     33  C   UNL d   1      22.167  -0.699  -1.060 -0.03 +0.02    +0.141    16.200
ATOM     34  C   UNL d   1      23.331   0.005  -1.703 -0.01 +0.03    +0.306    16.200
ATOM     35  O   UNL d   1      23.815  -0.251  -2.792 -0.00 -0.03    -0.251    16.200
ATOM     36  O   UNL d   1      23.821   0.999  -0.941 +0.00 -0.05    -0.481    16.200
ATOM     37  H   UNL d   1      23.084   1.642  -0.870 +0.01 +0.03    +0.295    16.200
ATOM     38  C   UNL d   1      20.088  -5.359  -7.055 -0.04 +0.00    +0.017    16.200
ATOM     39  C   UNL d   1      20.822  -5.393  -8.178 -0.01 +0.02    +0.092    16.200
ATOM     40  C   UNL d   1      20.904  -6.630  -8.959 +0.00 +0.05    +0.330    16.200
ATOM     41  O   UNL d   1      21.689  -7.548  -8.818 +0.00 -0.03    -0.246    16.200
ATOM     42  O   UNL d   1      19.950  -6.644  -9.902 +0.01 -0.10    -0.477    16.200
ATOM     43  H   UNL d   1      19.162  -6.990  -9.434 +0.02 +0.07    +0.295    16.200
ATOM     44  C   UNL d   1      19.634   5.385  -5.198 -0.14 +0.08    +0.141    16.200
ATOM     45  C   UNL d   1      18.295   5.064  -4.589 -0.14 +0.21    +0.306    16.200
ATOM     46  O   UNL d   1      17.202   5.261  -5.091 -0.50 -0.32    -0.251    16.200
ATOM     47  O   UNL d   1      18.403   4.532  -3.358 -0.10 -0.16    -0.481    16.200
ATOM     48  H   UNL d   1      17.586   4.812  -2.894 -0.15 +0.03    +0.295    16.200
ATOM     49  C   UNL d   1      16.192  -2.382  -9.747 -0.38 +0.02    +0.048    16.200
ATOM     50  C   UNL d   1      17.121  -3.424 -10.371 -0.17 +0.05    +0.125    16.200
ATOM     51  C   UNL d   1      16.738  -4.811  -9.939 -0.13 +0.15    +0.305    16.200
ATOM     52  O   UNL d   1      15.687  -5.391 -10.150 -0.49 -0.22    -0.251    16.200
ATOM     53  O   UNL d   1      17.719  -5.409  -9.235 -0.01 -0.18    -0.481    16.200
ATOM     54  H   UNL d   1      18.487  -5.403  -9.844 +0.05 +0.09    +0.295    16.200
TER
ENDMDL
MODEL      100
USER    Run = 100
USER    Cluster Rank = 52
USER    Number of conformations in this cluster = 1
USER  
USER    RMSD from reference structure       = 13.580 A
USER  
USER    Estimated Free Energy of Binding    =   -3.30 kcal/mol  [=(1)+(2)+(3)-(4)]
USER    Estimated Inhibition Constant, Ki   =    3.79 mM (millimolar)  [Temperature = 298.15 K]
USER    
USER    (1) Final Intermolecular Energy     =   -7.18 kcal/mol
USER        vdW + Hbond + desolv Energy     =   -6.89 kcal/mol
USER        Electrostatic Energy            =   -0.29 kcal/mol
USER    (2) Final Total Internal Energy     =   -4.69 kcal/mol
USER    (3) Torsional Free Energy           =   +3.88 kcal/mol
USER    (4) Unbound System's Energy  [=(2)] =   -4.69 kcal/mol
USER    
USER    
USER  
USER    DPF = D:/Protein_go_brrr/autodock/final/AncB/heme/dock.dpf
USER    NEWDPF move	heme_opt.pdbqt
USER    NEWDPF about	0.153000 0.018000 -0.028000
USER    NEWDPF tran0	17.015139 -5.341717 -2.589037
USER    NEWDPF axisangle0	-0.711515 -0.702669 0.001481 89.707094
USER    NEWDPF quaternion0	-0.501830 -0.495590 0.001044 0.708912
USER    NEWDPF dihe0	129.90 158.79 170.85 -80.05 -132.92 45.32 150.19 -34.55 25.48 -6.16 -61.07 -97.42 28.97 
USER  
USER                              x       y       z    vdW   Elec        q     RMS 
ATOM      1  O   UNL d   1      15.458  -7.748   2.563 -0.02 +0.01    -0.289    13.580
ATOM      2  O   UNL d   1      12.138  -7.940  -4.170 -0.50 +0.22    -0.289    13.580
ATOM      3  N   UNL d   1      16.688  -6.050  -0.176 -0.13 -0.01    -0.247    13.580
ATOM      4  N   UNL d   1      14.925  -6.956  -2.390 -0.19 +0.02    -0.247    13.580
ATOM      5  N   UNL d   1      16.816  -5.822  -4.235 -0.12 -0.07    -0.354    13.580
ATOM      6  N   UNL d   1      18.648  -4.902  -1.933 -0.10 -0.04    -0.354    13.580
ATOM      7  C   UNL d   1      17.479  -6.451   2.109 -0.06 +0.00    +0.084    13.580
ATOM      8  C   UNL d   1      12.675  -7.700  -1.794 -0.35 -0.03    +0.084    13.580
ATOM      9  C   UNL d   1      14.064  -7.229  -1.350 -0.26 -0.01    +0.058    13.580
ATOM     10  C   UNL d   1      17.709  -5.822   0.732 -0.13 +0.00    +0.058    13.580
ATOM     11  C   UNL d   1      16.139  -7.059   1.826 -0.06 -0.00    +0.193    13.580
ATOM     12  C   UNL d   1      15.757  -6.724   0.417 -0.16 -0.00    +0.109    13.580
ATOM     13  C   UNL d   1      12.920  -7.680  -3.277 -0.26 -0.09    +0.193    13.580
ATOM     14  C   UNL d   1      18.479  -7.572   2.403 -0.02 +0.00    +0.026    13.580
ATOM     15  C   UNL d   1      14.423  -7.142  -0.060 -0.25 -0.00    +0.055    13.580
ATOM     16  C   UNL d   1      11.593  -6.670  -1.459 -0.52 -0.01    +0.026    13.580
ATOM     17  C   UNL d   1      14.323  -7.218  -3.505 -0.21 -0.01    +0.109    13.580
ATOM     18  C   UNL d   1      18.779  -5.044   0.484 -0.14 +0.00    +0.050    13.580
ATOM     19  C   UNL d   1      19.031  -4.354  -0.730 -0.10 +0.00    +0.045    13.580
ATOM     20  C   UNL d   1      16.012  -6.504  -5.111 -0.16 +0.01    +0.045    13.580
ATOM     21  C   UNL d   1      14.861  -7.140  -4.871 -0.28 +0.01    +0.057    13.580
ATOM     22  C   UNL d   1      17.813  -5.681  -6.250 -0.15 -0.01    -0.019    13.580
ATOM     23  C   UNL d   1      17.928  -5.289  -4.831 -0.19 +0.01    +0.045    13.580
ATOM     24  C   UNL d   1      16.676  -6.399  -6.410 -0.18 -0.01    -0.022    13.580
ATOM     25  C   UNL d   1      19.069  -4.114  -2.979 -0.16 +0.01    +0.049    13.580
ATOM     26  C   UNL d   1      19.684  -3.161  -0.998 -0.13 -0.00    -0.018    13.580
ATOM     27  C   UNL d   1      19.688  -3.005  -2.419 -0.17 +0.00    +0.003    13.580
ATOM     28  C   UNL d   1      18.928  -4.551  -4.324 -0.21 +0.01    +0.052    13.580
ATOM     29  C   UNL d   1      16.121  -7.001  -7.655 -0.18 +0.03    +0.046    13.580
ATOM     30  C   UNL d   1      20.268  -2.221   0.001 -0.12 +0.00    +0.046    13.580
ATOM     31  H   UNL d   1      16.540  -5.679  -3.270 +0.03 +0.02    +0.166    13.580
ATOM     32  H   UNL d   1      18.161  -5.787  -2.016 +0.03 +0.02    +0.166    13.580
ATOM     33  C   UNL d   1      17.385  -5.461   3.276 -0.06 +0.01    +0.141    13.580
ATOM     34  C   UNL d   1      16.091  -4.694   3.282 -0.10 +0.01    +0.306    13.580
ATOM     35  O   UNL d   1      15.818  -3.737   2.578 -0.19 -0.02    -0.251    13.580
ATOM     36  O   UNL d   1      15.207  -5.177   4.173 -0.01 -0.02    -0.481    13.580
ATOM     37  H   UNL d   1      15.146  -6.134   3.967 +0.06 +0.00    +0.295    13.580
ATOM     38  C   UNL d   1      20.278  -1.909  -3.127 -0.19 +0.00    +0.017    13.580
ATOM     39  C   UNL d   1      21.270  -2.012  -4.025 -0.07 +0.02    +0.092    13.580
ATOM     40  C   UNL d   1      21.775  -0.811  -4.695 -0.02 +0.06    +0.330    13.580
ATOM     41  O   UNL d   1      22.017   0.272  -4.198 -0.03 -0.04    -0.246    13.580
ATOM     42  O   UNL d   1      21.962  -1.056  -6.002 +0.01 -0.09    -0.477    13.580
ATOM     43  H   UNL d   1      22.038  -2.031  -6.050 +0.03 +0.05    +0.295    13.580
ATOM     44  C   UNL d   1      12.272  -9.102  -1.324 -0.21 -0.08    +0.141    13.580
ATOM     45  C   UNL d   1      13.254 -10.169  -1.727 -0.07 -0.17    +0.306    13.580
ATOM     46  O   UNL d   1      14.048 -10.739  -0.999 -0.03 +0.07    -0.251    13.580
ATOM     47  O   UNL d   1      13.203 -10.446  -3.043 +0.05 +0.49    -0.481    13.580
ATOM     48  H   UNL d   1      12.405  -9.975  -3.364 -0.42 -0.71    +0.295    13.580
ATOM     49  C   UNL d   1      18.823  -5.333  -7.304 -0.09 +0.01    +0.048    13.580
ATOM     50  C   UNL d   1      19.088  -3.829  -7.364 -0.11 +0.03    +0.125    13.580
ATOM     51  C   UNL d   1      20.533  -3.527  -7.086 -0.02 +0.06    +0.305    13.580
ATOM     52  O   UNL d   1      21.252  -4.045  -6.250 -0.01 -0.04    -0.251    13.580
ATOM     53  O   UNL d   1      21.008  -2.554  -7.888 +0.01 -0.09    -0.481    13.580
ATOM     54  H   UNL d   1      20.977  -1.749  -7.329 +0.04 +0.06    +0.295    13.580
TER
ENDMDL
MODEL       80
USER    Run = 80
USER    Cluster Rank = 53
USER    Number of conformations in this cluster = 1
USER  
USER    RMSD from reference structure       = 11.794 A
USER  
USER    Estimated Free Energy of Binding    =   -3.26 kcal/mol  [=(1)+(2)+(3)-(4)]
USER    Estimated Inhibition Constant, Ki   =    4.05 mM (millimolar)  [Temperature = 298.15 K]
USER    
USER    (1) Final Intermolecular Energy     =   -7.14 kcal/mol
USER        vdW + Hbond + desolv Energy     =   -6.51 kcal/mol
USER        Electrostatic Energy            =   -0.63 kcal/mol
USER    (2) Final Total Internal Energy     =   -2.66 kcal/mol
USER    (3) Torsional Free Energy           =   +3.88 kcal/mol
USER    (4) Unbound System's Energy  [=(2)] =   -2.66 kcal/mol
USER    
USER    
USER  
USER    DPF = D:/Protein_go_brrr/autodock/final/AncB/heme/dock.dpf
USER    NEWDPF move	heme_opt.pdbqt
USER    NEWDPF about	0.153000 0.018000 -0.028000
USER    NEWDPF tran0	-9.260291 -0.284821 -10.529435
USER    NEWDPF axisangle0	-0.287558 -0.905807 -0.311164 -176.484297
USER    NEWDPF quaternion0	-0.287423 -0.905381 -0.311018 -0.030675
USER    NEWDPF dihe0	142.28 89.80 -167.27 -107.29 -138.76 17.19 146.61 -47.81 15.74 2.75 138.19 66.38 -167.98 
USER  
USER                              x       y       z    vdW   Elec        q     RMS 
ATOM      1  O   UNL d   1      -3.596  -1.638 -11.444 -0.72 -0.57    -0.289    11.794
ATOM      2  O   UNL d   1      -9.856  -5.642 -12.525 -0.11 -0.19    -0.289    11.794
ATOM      3  N   UNL d   1      -6.732  -0.460 -10.625 -0.05 -0.15    -0.247    11.794
ATOM      4  N   UNL d   1      -8.548  -2.564 -11.674 -0.03 -0.13    -0.247    11.794
ATOM      5  N   UNL d   1     -10.732  -0.728 -11.316 +0.00 -0.11    -0.354    11.794
ATOM      6  N   UNL d   1      -8.837   1.456 -10.247 -0.00 -0.13    -0.354    11.794
ATOM      7  C   UNL d   1      -4.476   0.498 -10.648 -0.21 +0.07    +0.084    11.794
ATOM      8  C   UNL d   1      -7.644  -4.826 -11.869 -0.24 +0.05    +0.084    11.794
ATOM      9  C   UNL d   1      -7.418  -3.342 -11.560 -0.16 +0.04    +0.058    11.794
ATOM     10  C   UNL d   1      -5.974   0.675 -10.385 -0.18 +0.04    +0.058    11.794
ATOM     11  C   UNL d   1      -4.518  -0.942 -11.062 -0.13 +0.23    +0.193    11.794
ATOM     12  C   UNL d   1      -5.936  -1.415 -10.981 -0.14 +0.10    +0.109    11.794
ATOM     13  C   UNL d   1      -9.104  -4.739 -12.216 -0.09 +0.11    +0.193    11.794
ATOM     14  C   UNL d   1      -3.998   1.340 -11.834 -0.12 +0.03    +0.026    11.794
ATOM     15  C   UNL d   1      -6.211  -2.840 -11.257 -0.08 +0.05    +0.055    11.794
ATOM     16  C   UNL d   1      -7.485  -5.697 -10.619 -0.32 +0.01    +0.026    11.794
ATOM     17  C   UNL d   1      -9.528  -3.314 -12.065 -0.04 +0.05    +0.109    11.794
ATOM     18  C   UNL d   1      -6.469   1.819  -9.877 -0.25 +0.03    +0.050    11.794
ATOM     19  C   UNL d   1      -7.824   2.044  -9.523 -0.18 +0.02    +0.045    11.794
ATOM     20  C   UNL d   1     -11.367  -1.715 -12.024 -0.00 +0.02    +0.045    11.794
ATOM     21  C   UNL d   1     -10.908  -2.918 -12.382 -0.02 +0.02    +0.057    11.794
ATOM     22  C   UNL d   1     -12.787   0.060 -11.794 -0.00 -0.00    -0.019    11.794
ATOM     23  C   UNL d   1     -11.509   0.383 -11.127 -0.00 +0.01    +0.045    11.794
ATOM     24  C   UNL d   1     -12.697  -1.184 -12.321 +0.00 -0.01    -0.022    11.794
ATOM     25  C   UNL d   1     -10.064   1.880  -9.791 -0.04 +0.01    +0.049    11.794
ATOM     26  C   UNL d   1      -8.407   2.840  -8.550 -0.26 -0.00    -0.018    11.794
ATOM     27  C   UNL d   1      -9.822   2.717  -8.711 -0.12 +0.00    +0.003    11.794
ATOM     28  C   UNL d   1     -11.258   1.532 -10.481 -0.02 +0.01    +0.052    11.794
ATOM     29  C   UNL d   1     -13.727  -1.953 -13.075 +0.00 +0.01    +0.046    11.794
ATOM     30  C   UNL d   1      -7.697   3.663  -7.530 -0.25 +0.01    +0.046    11.794
ATOM     31  H   UNL d   1      -9.810  -0.876 -10.919 +0.02 +0.06    +0.166    11.794
ATOM     32  H   UNL d   1      -8.679   0.834 -11.030 +0.03 +0.07    +0.166    11.794
ATOM     33  C   UNL d   1      -3.568   0.681  -9.427 -0.31 +0.08    +0.141    11.794
ATOM     34  C   UNL d   1      -3.822  -0.347  -8.358 -0.25 +0.13    +0.306    11.794
ATOM     35  O   UNL d   1      -4.678  -0.290  -7.491 -0.31 -0.07    -0.251    11.794
ATOM     36  O   UNL d   1      -2.985  -1.397  -8.439 -0.10 -0.23    -0.481    11.794
ATOM     37  H   UNL d   1      -2.907  -1.576  -9.401 +0.16 +0.19    +0.295    11.794
ATOM     38  C   UNL d   1     -10.805   3.390  -7.916 -0.14 +0.00    +0.017    11.794
ATOM     39  C   UNL d   1     -11.163   3.043  -6.670 -0.21 +0.00    +0.092    11.794
ATOM     40  C   UNL d   1     -12.173   3.828  -5.956 -0.12 -0.02    +0.330    11.794
ATOM     41  O   UNL d   1     -12.948   4.641  -6.421 -0.06 -0.02    -0.246    11.794
ATOM     42  O   UNL d   1     -12.154   3.524  -4.649 -0.15 +0.15    -0.477    11.794
ATOM     43  H   UNL d   1     -12.794   2.788  -4.569 -0.42 -0.40    +0.295    11.794
ATOM     44  C   UNL d   1      -6.834  -5.387 -13.043 -0.26 +0.11    +0.141    11.794
ATOM     45  C   UNL d   1      -6.874  -4.510 -14.266 -0.10 +0.31    +0.306    11.794
ATOM     46  O   UNL d   1      -5.996  -3.756 -14.649 -0.59 -0.44    -0.251    11.794
ATOM     47  O   UNL d   1      -8.038  -4.609 -14.932 +0.01 -0.34    -0.481    11.794
ATOM     48  H   UNL d   1      -8.632  -5.095 -14.322 +0.06 +0.19    +0.295    11.794
ATOM     49  C   UNL d   1     -13.959   0.994 -11.865 -0.00 +0.01    +0.048    11.794
ATOM     50  C   UNL d   1     -14.163   1.544 -13.276 +0.00 +0.03    +0.125    11.794
ATOM     51  C   UNL d   1     -12.847   1.890 -13.912 +0.00 +0.08    +0.305    11.794
ATOM     52  O   UNL d   1     -11.974   2.616 -13.468 +0.00 -0.07    -0.251    11.794
ATOM     53  O   UNL d   1     -12.696   1.297 -15.113 +0.00 -0.13    -0.481    11.794
ATOM     54  H   UNL d   1     -13.312   1.785 -15.699 +0.00 +0.07    +0.295    11.794
TER
ENDMDL
MODEL       82
USER    Run = 82
USER    Cluster Rank = 54
USER    Number of conformations in this cluster = 1
USER  
USER    RMSD from reference structure       = 18.307 A
USER  
USER    Estimated Free Energy of Binding    =   -3.09 kcal/mol  [=(1)+(2)+(3)-(4)]
USER    Estimated Inhibition Constant, Ki   =    5.43 mM (millimolar)  [Temperature = 298.15 K]
USER    
USER    (1) Final Intermolecular Energy     =   -6.97 kcal/mol
USER        vdW + Hbond + desolv Energy     =   -6.92 kcal/mol
USER        Electrostatic Energy            =   -0.05 kcal/mol
USER    (2) Final Total Internal Energy     =   -4.51 kcal/mol
USER    (3) Torsional Free Energy           =   +3.88 kcal/mol
USER    (4) Unbound System's Energy  [=(2)] =   -4.51 kcal/mol
USER    
USER    
USER  
USER    DPF = D:/Protein_go_brrr/autodock/final/AncB/heme/dock.dpf
USER    NEWDPF move	heme_opt.pdbqt
USER    NEWDPF about	0.153000 0.018000 -0.028000
USER    NEWDPF tran0	4.757636 -5.769655 -18.023467
USER    NEWDPF axisangle0	0.311091 0.227456 -0.922760 -129.167512
USER    NEWDPF quaternion0	0.280982 0.205441 -0.833450 -0.429191
USER    NEWDPF dihe0	94.28 154.71 135.00 15.75 -133.48 -3.51 -55.45 49.59 33.50 -150.84 -69.41 -35.64 -9.28 
USER  
USER                              x       y       z    vdW   Elec        q     RMS 
ATOM      1  O   UNL d   1       8.630  -3.706 -14.086 -0.11 -0.05    -0.289    18.307
ATOM      2  O   UNL d   1       2.451  -0.602 -17.016 -0.03 -0.12    -0.289    18.307
ATOM      3  N   UNL d   1       6.721  -5.264 -16.499 -0.11 -0.02    -0.247    18.307
ATOM      4  N   UNL d   1       4.385  -3.452 -16.798 -0.09 -0.05    -0.247    18.307
ATOM      5  N   UNL d   1       3.061  -5.550 -18.252 -0.10 -0.04    -0.354    18.307
ATOM      6  N   UNL d   1       5.481  -7.430 -17.920 -0.09 +0.03    -0.354    18.307
ATOM      7  C   UNL d   1       8.648  -5.915 -15.132 -0.23 +0.01    +0.084    18.307
ATOM      8  C   UNL d   1       4.717  -1.098 -16.235 -0.16 +0.02    +0.084    18.307
ATOM      9  C   UNL d   1       5.265  -2.528 -16.280 -0.17 +0.01    +0.058    18.307
ATOM     10  C   UNL d   1       7.613  -6.280 -16.200 -0.22 +0.00    +0.058    18.307
ATOM     11  C   UNL d   1       8.194  -4.506 -14.893 -0.25 +0.02    +0.193    18.307
ATOM     12  C   UNL d   1       7.036  -4.223 -15.800 -0.21 +0.01    +0.109    18.307
ATOM     13  C   UNL d   1       3.351  -1.387 -16.788 -0.05 +0.06    +0.193    18.307
ATOM     14  C   UNL d   1       8.455  -6.722 -13.845 -0.36 +0.00    +0.026    18.307
ATOM     15  C   UNL d   1       6.477  -2.857 -15.807 -0.27 +0.01    +0.055    18.307
ATOM     16  C   UNL d   1       5.457  -0.176 -17.209 -0.22 +0.01    +0.026    18.307
ATOM     17  C   UNL d   1       3.274  -2.851 -17.082 -0.06 +0.03    +0.109    18.307
ATOM     18  C   UNL d   1       7.651  -7.464 -16.840 -0.23 +0.00    +0.050    18.307
ATOM     19  C   UNL d   1       6.790  -7.855 -17.897 -0.17 +0.00    +0.045    18.307
ATOM     20  C   UNL d   1       2.015  -4.678 -18.092 -0.18 +0.01    +0.045    18.307
ATOM     21  C   UNL d   1       2.028  -3.436 -17.597 -0.09 +0.02    +0.057    18.307
ATOM     22  C   UNL d   1       1.226  -6.618 -19.004 -0.22 -0.01    -0.019    18.307
ATOM     23  C   UNL d   1       2.682  -6.748 -18.796 -0.06 +0.00    +0.045    18.307
ATOM     24  C   UNL d   1       0.838  -5.389 -18.587 -0.21 -0.01    -0.022    18.307
ATOM     25  C   UNL d   1       4.807  -7.998 -18.977 -0.15 -0.00    +0.049    18.307
ATOM     26  C   UNL d   1       6.981  -8.692 -18.986 -0.12 -0.00    -0.018    18.307
ATOM     27  C   UNL d   1       5.732  -8.762 -19.675 -0.13 +0.00    +0.003    18.307
ATOM     28  C   UNL d   1       3.403  -7.833 -19.119 -0.12 +0.00    +0.052    18.307
ATOM     29  C   UNL d   1      -0.526  -4.786 -18.604 -0.17 +0.03    +0.046    18.307
ATOM     30  C   UNL d   1       8.247  -9.382 -19.366 -0.07 +0.00    +0.046    18.307
ATOM     31  H   UNL d   1       4.015  -5.269 -18.052 +0.02 +0.01    +0.166    18.307
ATOM     32  H   UNL d   1       5.079  -6.816 -17.222 -0.42 -0.04    +0.166    18.307
ATOM     33  C   UNL d   1      10.108  -5.938 -15.596 -0.12 +0.02    +0.141    18.307
ATOM     34  C   UNL d   1      10.503  -4.684 -16.328 -0.07 +0.04    +0.306    18.307
ATOM     35  O   UNL d   1      10.251  -4.419 -17.491 -0.03 -0.04    -0.251    18.307
ATOM     36  O   UNL d   1      11.193  -3.828 -15.554 -0.05 -0.03    -0.481    18.307
ATOM     37  H   UNL d   1      10.507  -3.277 -15.122 -0.30 -0.04    +0.295    18.307
ATOM     38  C   UNL d   1       5.482  -9.535 -20.854 -0.06 +0.00    +0.017    18.307
ATOM     39  C   UNL d   1       4.315  -9.587 -21.514 -0.03 +0.01    +0.092    18.307
ATOM     40  C   UNL d   1       4.195 -10.406 -22.723 +0.00 +0.04    +0.330    18.307
ATOM     41  O   UNL d   1       5.077 -11.014 -23.300 -0.00 -0.03    -0.246    18.307
ATOM     42  O   UNL d   1       2.922 -10.420 -23.146 +0.01 -0.06    -0.477    18.307
ATOM     43  H   UNL d   1       2.402 -10.243 -22.335 +0.03 +0.04    +0.295    18.307
ATOM     44  C   UNL d   1       4.623  -0.470 -14.840 -0.15 +0.02    +0.141    18.307
ATOM     45  C   UNL d   1       4.561   1.034 -14.869 -0.29 +0.08    +0.306    18.307
ATOM     46  O   UNL d   1       5.486   1.803 -14.672 -0.50 -0.06    -0.251    18.307
ATOM     47  O   UNL d   1       3.322   1.494 -15.117 -0.08 -0.19    -0.481    18.307
ATOM     48  H   UNL d   1       3.002   0.950 -15.868 +0.12 +0.12    +0.295    18.307
ATOM     49  C   UNL d   1       0.356  -7.700 -19.573 -0.20 +0.02    +0.048    18.307
ATOM     50  C   UNL d   1       0.203  -7.570 -21.088 -0.09 +0.05    +0.125    18.307
ATOM     51  C   UNL d   1       0.902  -8.696 -21.796 -0.02 +0.08    +0.305    18.307
ATOM     52  O   UNL d   1       0.891  -9.878 -21.503 -0.03 -0.06    -0.251    18.307
ATOM     53  O   UNL d   1       1.607  -8.262 -22.860 +0.01 -0.10    -0.481    18.307
ATOM     54  H   UNL d   1       1.796  -9.078 -23.369 +0.01 +0.05    +0.295    18.307
TER
ENDMDL
MODEL       35
USER    Run = 35
USER    Cluster Rank = 55
USER    Number of conformations in this cluster = 1
USER  
USER    RMSD from reference structure       = 13.884 A
USER  
USER    Estimated Free Energy of Binding    =   -3.06 kcal/mol  [=(1)+(2)+(3)-(4)]
USER    Estimated Inhibition Constant, Ki   =    5.68 mM (millimolar)  [Temperature = 298.15 K]
USER    
USER    (1) Final Intermolecular Energy     =   -6.94 kcal/mol
USER        vdW + Hbond + desolv Energy     =   -6.77 kcal/mol
USER        Electrostatic Energy            =   -0.17 kcal/mol
USER    (2) Final Total Internal Energy     =   -3.29 kcal/mol
USER    (3) Torsional Free Energy           =   +3.88 kcal/mol
USER    (4) Unbound System's Energy  [=(2)] =   -3.29 kcal/mol
USER    
USER    
USER  
USER    DPF = D:/Protein_go_brrr/autodock/final/AncB/heme/dock.dpf
USER    NEWDPF move	heme_opt.pdbqt
USER    NEWDPF about	0.153000 0.018000 -0.028000
USER    NEWDPF tran0	-13.019540 10.733807 3.591773
USER    NEWDPF axisangle0	-0.747632 0.562028 0.353794 161.893897
USER    NEWDPF quaternion0	-0.738319 0.555027 0.349387 0.157349
USER    NEWDPF dihe0	81.64 160.76 -120.04 150.08 -170.86 76.61 122.07 33.12 98.41 -25.88 62.41 -109.37 151.17 
USER  
USER                              x       y       z    vdW   Elec        q     RMS 
ATOM      1  O   UNL d   1     -15.450  15.485   6.096 -0.01 +0.00    -0.289    13.884
ATOM      2  O   UNL d   1      -8.862  14.578   2.608 -0.23 +0.12    -0.289    13.884
ATOM      3  N   UNL d   1     -14.379  12.437   4.889 -0.07 +0.03    -0.247    13.884
ATOM      4  N   UNL d   1     -11.874  13.117   3.443 -0.12 +0.07    -0.247    13.884
ATOM      5  N   UNL d   1     -11.970  10.507   2.241 -0.12 +0.05    -0.354    13.884
ATOM      6  N   UNL d   1     -14.579   9.817   3.731 -0.05 -0.01    -0.354    13.884
ATOM      7  C   UNL d   1     -16.455  13.266   5.894 -0.02 +0.00    +0.084    13.884
ATOM      8  C   UNL d   1     -10.664  15.108   4.177 -0.18 -0.02    +0.084    13.884
ATOM      9  C   UNL d   1     -11.900  14.209   4.281 -0.12 -0.02    +0.058    13.884
ATOM     10  C   UNL d   1     -15.665  12.106   5.282 -0.06 -0.00    +0.058    13.884
ATOM     11  C   UNL d   1     -15.381  14.308   5.794 -0.03 -0.01    +0.193    13.884
ATOM     12  C   UNL d   1     -14.165  13.676   5.193 -0.07 -0.02    +0.109    13.884
ATOM     13  C   UNL d   1      -9.949  14.345   3.099 -0.20 -0.06    +0.193    13.884
ATOM     14  C   UNL d   1     -17.635  13.686   5.014 -0.01 +0.00    +0.026    13.884
ATOM     15  C   UNL d   1     -12.939  14.493   5.081 -0.09 -0.01    +0.055    13.884
ATOM     16  C   UNL d   1      -9.821  15.063   5.455 -0.24 -0.01    +0.026    13.884
ATOM     17  C   UNL d   1     -10.791  13.165   2.736 -0.22 -0.03    +0.109    13.884
ATOM     18  C   UNL d   1     -16.173  10.860   5.229 -0.06 +0.00    +0.050    13.884
ATOM     19  C   UNL d   1     -15.487   9.711   4.760 -0.09 +0.00    +0.045    13.884
ATOM     20  C   UNL d   1     -10.965  11.071   1.499 -0.25 -0.01    +0.045    13.884
ATOM     21  C   UNL d   1     -10.360  12.251   1.668 -0.15 -0.02    +0.057    13.884
ATOM     22  C   UNL d   1     -11.485   9.033   0.608 -0.26 -0.00    -0.019    13.884
ATOM     23  C   UNL d   1     -12.351   9.275   1.779 -0.26 -0.00    +0.045    13.884
ATOM     24  C   UNL d   1     -10.665  10.099   0.448 -0.26 +0.00    -0.022    13.884
ATOM     25  C   UNL d   1     -14.103   8.576   3.377 -0.21 +0.00    +0.049    13.884
ATOM     26  C   UNL d   1     -15.576   8.373   5.108 -0.12 -0.00    -0.018    13.884
ATOM     27  C   UNL d   1     -14.685   7.663   4.245 -0.22 +0.00    +0.003    13.884
ATOM     28  C   UNL d   1     -13.271   8.412   2.236 -0.23 +0.00    +0.052    13.884
ATOM     29  C   UNL d   1      -9.610  10.318  -0.582 -0.24 +0.00    +0.046    13.884
ATOM     30  C   UNL d   1     -16.433   7.786   6.178 -0.08 +0.00    +0.046    13.884
ATOM     31  H   UNL d   1     -12.313  10.951   3.086 +0.05 -0.03    +0.166    13.884
ATOM     32  H   UNL d   1     -14.339  10.693   3.282 +0.03 -0.00    +0.166    13.884
ATOM     33  C   UNL d   1     -16.883  13.073   7.353 -0.01 +0.00    +0.141    13.884
ATOM     34  C   UNL d   1     -16.888  14.361   8.131 -0.00 +0.01    +0.306    13.884
ATOM     35  O   UNL d   1     -16.185  14.626   9.091 -0.01 -0.01    -0.251    13.884
ATOM     36  O   UNL d   1     -17.777  15.251   7.655 +0.00 -0.01    -0.481    13.884
ATOM     37  H   UNL d   1     -17.240  15.877   7.125 +0.00 +0.01    +0.295    13.884
ATOM     38  C   UNL d   1     -14.480   6.246   4.256 -0.25 +0.00    +0.017    13.884
ATOM     39  C   UNL d   1     -14.923   5.392   3.321 -0.27 +0.02    +0.092    13.884
ATOM     40  C   UNL d   1     -14.629   3.961   3.441 -0.27 +0.06    +0.330    13.884
ATOM     41  O   UNL d   1     -15.137   3.159   4.202 -0.31 -0.04    -0.246    13.884
ATOM     42  O   UNL d   1     -13.684   3.608   2.557 -0.30 -0.08    -0.477    13.884
ATOM     43  H   UNL d   1     -13.701   4.329   1.894 +0.17 +0.07    +0.295    13.884
ATOM     44  C   UNL d   1     -10.933  16.553   3.741 -0.04 -0.02    +0.141    13.884
ATOM     45  C   UNL d   1     -11.221  16.685   2.269 +0.00 -0.04    +0.306    13.884
ATOM     46  O   UNL d   1     -12.271  16.425   1.708 -0.00 +0.02    -0.251    13.884
ATOM     47  O   UNL d   1     -10.153  17.115   1.573 +0.01 +0.10    -0.481    13.884
ATOM     48  H   UNL d   1      -9.460  16.441   1.740 +0.06 -0.08    +0.295    13.884
ATOM     49  C   UNL d   1     -11.547   7.800  -0.246 -0.18 +0.01    +0.048    13.884
ATOM     50  C   UNL d   1     -12.853   7.722  -1.037 -0.14 +0.04    +0.125    13.884
ATOM     51  C   UNL d   1     -13.658   6.522  -0.626 -0.15 +0.16    +0.305    13.884
ATOM     52  O   UNL d   1     -13.644   5.951   0.450 -0.66 -0.13    -0.251    13.884
ATOM     53  O   UNL d   1     -14.452   6.082  -1.623 -0.27 -0.52    -0.481    13.884
ATOM     54  H   UNL d   1     -14.665   6.892  -2.132 +0.05 +0.22    +0.295    13.884
TER
ENDMDL
MODEL        7
USER    Run = 7
USER    Cluster Rank = 56
USER    Number of conformations in this cluster = 1
USER  
USER    RMSD from reference structure       = 15.116 A
USER  
USER    Estimated Free Energy of Binding    =   -3.02 kcal/mol  [=(1)+(2)+(3)-(4)]
USER    Estimated Inhibition Constant, Ki   =    6.16 mM (millimolar)  [Temperature = 298.15 K]
USER    
USER    (1) Final Intermolecular Energy     =   -6.89 kcal/mol
USER        vdW + Hbond + desolv Energy     =   -6.89 kcal/mol
USER        Electrostatic Energy            =   +0.00 kcal/mol
USER    (2) Final Total Internal Energy     =   -4.52 kcal/mol
USER    (3) Torsional Free Energy           =   +3.88 kcal/mol
USER    (4) Unbound System's Energy  [=(2)] =   -4.52 kcal/mol
USER    
USER    
USER  
USER    DPF = D:/Protein_go_brrr/autodock/final/AncB/heme/dock.dpf
USER    NEWDPF move	heme_opt.pdbqt
USER    NEWDPF about	0.153000 0.018000 -0.028000
USER    NEWDPF tran0	-12.523242 12.973232 5.510483
USER    NEWDPF axisangle0	-0.902353 0.120693 0.413753 -158.424895
USER    NEWDPF quaternion0	-0.886407 0.118561 0.406441 -0.187168
USER    NEWDPF dihe0	176.03 153.95 109.28 -116.70 -150.87 45.77 -45.04 -26.57 12.39 -128.28 -59.46 -93.93 27.47 
USER  
USER                              x       y       z    vdW   Elec        q     RMS 
ATOM      1  O   UNL d   1     -17.173  12.053   9.016 -0.00 -0.01    -0.289    15.116
ATOM      2  O   UNL d   1     -11.404  16.822   9.631 -0.04 -0.03    -0.289    15.116
ATOM      3  N   UNL d   1     -14.574  12.143   6.751 -0.08 +0.02    -0.247    15.116
ATOM      4  N   UNL d   1     -12.979  14.490   7.633 -0.11 +0.02    -0.247    15.116
ATOM      5  N   UNL d   1     -11.583  14.368   5.123 +0.01 +0.11    -0.354    15.116
ATOM      6  N   UNL d   1     -13.255  11.945   4.207 +0.13 +0.08    -0.354    15.116
ATOM      7  C   UNL d   1     -16.710  10.949   6.885 -0.03 +0.00    +0.084    15.116
ATOM      8  C   UNL d   1     -13.125  15.118   9.990 -0.08 +0.01    +0.084    15.116
ATOM      9  C   UNL d   1     -13.606  14.236   8.833 -0.12 +0.00    +0.058    15.116
ATOM     10  C   UNL d   1     -15.415  11.240   6.122 -0.10 +0.00    +0.058    15.116
ATOM     11  C   UNL d   1     -16.444  11.833   8.066 -0.02 +0.01    +0.193    15.116
ATOM     12  C   UNL d   1     -15.108  12.482   7.879 -0.09 +0.00    +0.109    15.116
ATOM     13  C   UNL d   1     -12.137  15.944   9.216 -0.07 +0.02    +0.193    15.116
ATOM     14  C   UNL d   1     -17.943  11.471   6.143 -0.01 +0.00    +0.026    15.116
ATOM     15  C   UNL d   1     -14.589  13.333   8.969 -0.11 +0.00    +0.055    15.116
ATOM     16  C   UNL d   1     -12.369  14.307  11.046 -0.12 +0.01    +0.026    15.116
ATOM     17  C   UNL d   1     -12.149  15.469   7.800 -0.13 -0.00    +0.109    15.116
ATOM     18  C   UNL d   1     -15.107  10.588   4.985 -0.13 +0.00    +0.050    15.116
ATOM     19  C   UNL d   1     -13.898  10.729   4.257 -0.08 -0.00    +0.045    15.116
ATOM     20  C   UNL d   1     -11.118  15.569   5.593 -0.17 -0.01    +0.045    15.116
ATOM     21  C   UNL d   1     -11.305  16.128   6.793 -0.14 -0.00    +0.057    15.116
ATOM     22  C   UNL d   1     -10.388  15.283   3.447 -0.16 +0.00    -0.019    15.116
ATOM     23  C   UNL d   1     -11.194  14.109   3.835 -0.21 -0.01    +0.045    15.116
ATOM     24  C   UNL d   1     -10.346  16.143   4.492 -0.12 +0.00    -0.022    15.116
ATOM     25  C   UNL d   1     -12.159  11.879   3.378 -0.15 -0.01    +0.049    15.116
ATOM     26  C   UNL d   1     -13.182   9.841   3.470 -0.22 +0.00    -0.018    15.116
ATOM     27  C   UNL d   1     -12.074  10.567   2.933 -0.31 -0.00    +0.003    15.116
ATOM     28  C   UNL d   1     -11.426  13.050   3.044 -0.25 -0.01    +0.052    15.116
ATOM     29  C   UNL d   1      -9.650  17.458   4.590 -0.06 -0.01    +0.046    15.116
ATOM     30  C   UNL d   1     -13.503   8.404   3.232 -0.27 +0.00    +0.046    15.116
ATOM     31  H   UNL d   1     -12.091  13.728   5.724 -0.53 -0.10    +0.166    15.116
ATOM     32  H   UNL d   1     -13.584  12.773   4.689 -0.23 -0.04    +0.166    15.116
ATOM     33  C   UNL d   1     -16.897   9.495   7.333 -0.03 +0.01    +0.141    15.116
ATOM     34  C   UNL d   1     -15.802   9.028   8.255 -0.06 +0.02    +0.306    15.116
ATOM     35  O   UNL d   1     -14.810   8.398   7.933 -0.19 -0.01    -0.251    15.116
ATOM     36  O   UNL d   1     -16.016   9.383   9.534 +0.01 -0.03    -0.481    15.116
ATOM     37  H   UNL d   1     -16.808   9.961   9.501 +0.04 +0.02    +0.295    15.116
ATOM     38  C   UNL d   1     -11.084  10.029   2.050 -0.44 -0.00    +0.017    15.116
ATOM     39  C   UNL d   1     -10.789  10.509   0.833 -0.26 -0.01    +0.092    15.116
ATOM     40  C   UNL d   1      -9.739   9.875   0.032 -0.19 -0.01    +0.330    15.116
ATOM     41  O   UNL d   1      -9.547   8.686  -0.135 -0.28 -0.01    -0.246    15.116
ATOM     42  O   UNL d   1      -8.966  10.811  -0.541 -0.50 -0.02    -0.477    15.116
ATOM     43  H   UNL d   1      -9.555  11.590  -0.612 +0.12 -0.02    +0.295    15.116
ATOM     44  C   UNL d   1     -14.196  16.005  10.633 -0.02 +0.01    +0.141    15.116
ATOM     45  C   UNL d   1     -13.659  16.885  11.730 -0.00 +0.03    +0.306    15.116
ATOM     46  O   UNL d   1     -13.574  16.603  12.913 -0.01 -0.04    -0.251    15.116
ATOM     47  O   UNL d   1     -13.279  18.095  11.280 +0.00 -0.03    -0.481    15.116
ATOM     48  H   UNL d   1     -12.461  17.923  10.767 +0.02 +0.02    +0.295    15.116
ATOM     49  C   UNL d   1      -9.754  15.461   2.099 -0.16 -0.01    +0.048    15.116
ATOM     50  C   UNL d   1      -8.836  14.291   1.743 -0.07 -0.06    +0.125    15.116
ATOM     51  C   UNL d   1      -9.280  13.630   0.470 -0.16 -0.10    +0.305    15.116
ATOM     52  O   UNL d   1     -10.419  13.507   0.053 -0.07 +0.05    -0.251    15.116
ATOM     53  O   UNL d   1      -8.241  13.131  -0.228 -0.42 +0.18    -0.481    15.116
ATOM     54  H   UNL d   1      -7.862  12.448   0.364 -0.22 -0.04    +0.295    15.116
TER
ENDMDL
MODEL       68
USER    Run = 68
USER    Cluster Rank = 57
USER    Number of conformations in this cluster = 1
USER  
USER    RMSD from reference structure       = 16.768 A
USER  
USER    Estimated Free Energy of Binding    =   -2.92 kcal/mol  [=(1)+(2)+(3)-(4)]
USER    Estimated Inhibition Constant, Ki   =    7.30 mM (millimolar)  [Temperature = 298.15 K]
USER    
USER    (1) Final Intermolecular Energy     =   -6.79 kcal/mol
USER        vdW + Hbond + desolv Energy     =   -6.70 kcal/mol
USER        Electrostatic Energy            =   -0.10 kcal/mol
USER    (2) Final Total Internal Energy     =   -3.74 kcal/mol
USER    (3) Torsional Free Energy           =   +3.88 kcal/mol
USER    (4) Unbound System's Energy  [=(2)] =   -3.74 kcal/mol
USER    
USER    
USER  
USER    DPF = D:/Protein_go_brrr/autodock/final/AncB/heme/dock.dpf
USER    NEWDPF move	heme_opt.pdbqt
USER    NEWDPF about	0.153000 0.018000 -0.028000
USER    NEWDPF tran0	6.250972 10.850021 13.095443
USER    NEWDPF axisangle0	-0.119778 0.967821 0.221305 -62.075518
USER    NEWDPF quaternion0	-0.061758 0.499011 0.114106 -0.856828
USER    NEWDPF dihe0	-5.18 177.77 95.79 1.60 -136.06 79.26 -49.11 -26.95 158.29 -128.40 -64.59 -119.04 24.25 
USER  
USER                              x       y       z    vdW   Elec        q     RMS 
ATOM      1  O   UNL d   1       3.691  11.873  18.307 -0.17 +0.02    -0.289    16.768
ATOM      2  O   UNL d   1       4.905   5.464  14.585 -0.15 +0.08    -0.289    16.768
ATOM      3  N   UNL d   1       5.129  11.776  15.173 -0.13 +0.02    -0.247    16.768
ATOM      4  N   UNL d   1       5.470   8.868  14.668 -0.11 +0.02    -0.247    16.768
ATOM      5  N   UNL d   1       7.191   9.546  12.467 -0.08 -0.00    -0.354    16.768
ATOM      6  N   UNL d   1       6.848  12.561  13.011 -0.05 +0.01    -0.354    16.768
ATOM      7  C   UNL d   1       4.710  13.533  16.830 -0.13 -0.00    +0.084    16.768
ATOM      8  C   UNL d   1       3.946   7.346  15.823 -0.27 -0.02    +0.084    16.768
ATOM      9  C   UNL d   1       4.465   8.771  15.604 -0.24 -0.01    +0.058    16.768
ATOM     10  C   UNL d   1       5.271  13.122  15.465 -0.13 -0.00    +0.058    16.768
ATOM     11  C   UNL d   1       4.211  12.184  17.250 -0.10 -0.01    +0.193    16.768
ATOM     12  C   UNL d   1       4.500  11.209  16.151 -0.16 -0.01    +0.109    16.768
ATOM     13  C   UNL d   1       4.869   6.647  14.865 -0.14 -0.03    +0.193    16.768
ATOM     14  C   UNL d   1       5.814  13.975  17.794 -0.05 -0.00    +0.026    16.768
ATOM     15  C   UNL d   1       4.012   9.824  16.303 -0.27 -0.01    +0.055    16.768
ATOM     16  C   UNL d   1       2.506   7.184  15.327 -0.21 -0.01    +0.026    16.768
ATOM     17  C   UNL d   1       5.747   7.679  14.236 -0.08 -0.01    +0.109    16.768
ATOM     18  C   UNL d   1       5.769  14.032  14.607 -0.11 -0.00    +0.050    16.768
ATOM     19  C   UNL d   1       6.231  13.758  13.294 -0.13 -0.00    +0.045    16.768
ATOM     20  C   UNL d   1       7.410   8.194  12.530 -0.17 +0.00    +0.045    16.768
ATOM     21  C   UNL d   1       6.788   7.279  13.279 -0.17 -0.00    +0.057    16.768
ATOM     22  C   UNL d   1       8.859   9.108  11.017 -0.13 -0.00    -0.019    16.768
ATOM     23  C   UNL d   1       8.019  10.183  11.582 -0.15 +0.00    +0.045    16.768
ATOM     24  C   UNL d   1       8.493   7.932  11.582 -0.16 -0.00    -0.022    16.768
ATOM     25  C   UNL d   1       7.294  12.543  11.709 -0.13 +0.00    +0.049    16.768
ATOM     26  C   UNL d   1       6.243  14.523  12.138 -0.14 +0.00    -0.018    16.768
ATOM     27  C   UNL d   1       6.898  13.744  11.136 -0.14 -0.00    +0.003    16.768
ATOM     28  C   UNL d   1       8.100  11.476  11.229 -0.13 +0.00    +0.052    16.768
ATOM     29  C   UNL d   1       9.037   6.567  11.330 -0.15 +0.01    +0.046    16.768
ATOM     30  C   UNL d   1       5.679  15.894  11.972 -0.11 -0.01    +0.046    16.768
ATOM     31  H   UNL d   1       6.431   9.980  12.979 +0.06 -0.01    +0.166    16.768
ATOM     32  H   UNL d   1       6.982  11.824  13.693 +0.04 -0.01    +0.166    16.768
ATOM     33  C   UNL d   1       3.560  14.545  16.791 -0.08 +0.01    +0.141    16.768
ATOM     34  C   UNL d   1       3.465  15.363  18.050 -0.10 +0.00    +0.306    16.768
ATOM     35  O   UNL d   1       2.931  15.022  19.092 -0.11 -0.00    -0.251    16.768
ATOM     36  O   UNL d   1       4.050  16.568  17.930 -0.00 +0.01    -0.481    16.768
ATOM     37  H   UNL d   1       3.811  17.041  18.756 +0.03 -0.01    +0.295    16.768
ATOM     38  C   UNL d   1       7.139  14.166   9.789 -0.12 -0.00    +0.017    16.768
ATOM     39  C   UNL d   1       8.291  14.683   9.334 -0.05 +0.00    +0.092    16.768
ATOM     40  C   UNL d   1       8.415  15.060   7.924 -0.00 +0.01    +0.330    16.768
ATOM     41  O   UNL d   1       7.971  16.052   7.378 -0.01 +0.01    -0.246    16.768
ATOM     42  O   UNL d   1       9.126  14.136   7.259 +0.01 -0.06    -0.477    16.768
ATOM     43  H   UNL d   1       9.381  13.493   7.952 +0.04 +0.06    +0.295    16.768
ATOM     44  C   UNL d   1       4.109   6.795  17.243 -0.18 -0.03    +0.141    16.768
ATOM     45  C   UNL d   1       3.626   5.377  17.389 -0.20 -0.09    +0.306    16.768
ATOM     46  O   UNL d   1       2.515   5.020  17.743 -0.40 +0.09    -0.251    16.768
ATOM     47  O   UNL d   1       4.583   4.475  17.107 -0.06 +0.14    -0.481    16.768
ATOM     48  H   UNL d   1       4.543   4.368  16.133 -0.45 -0.16    +0.295    16.768
ATOM     49  C   UNL d   1       9.940   9.328  10.001 -0.13 +0.01    +0.048    16.768
ATOM     50  C   UNL d   1       9.395   9.961   8.720 -0.15 +0.08    +0.125    16.768
ATOM     51  C   UNL d   1       9.988  11.324   8.501 -0.07 +0.15    +0.305    16.768
ATOM     52  O   UNL d   1      10.315  12.137   9.348 -0.02 -0.06    -0.251    16.768
ATOM     53  O   UNL d   1      10.131  11.607   7.191 -0.50 -0.41    -0.481    16.768
ATOM     54  H   UNL d   1      10.538  12.499   7.183 +0.03 +0.13    +0.295    16.768
TER
ENDMDL
MODEL       94
USER    Run = 94
USER    Cluster Rank = 58
USER    Number of conformations in this cluster = 1
USER  
USER    RMSD from reference structure       = 15.665 A
USER  
USER    Estimated Free Energy of Binding    =   -2.88 kcal/mol  [=(1)+(2)+(3)-(4)]
USER    Estimated Inhibition Constant, Ki   =    7.68 mM (millimolar)  [Temperature = 298.15 K]
USER    
USER    (1) Final Intermolecular Energy     =   -6.76 kcal/mol
USER        vdW + Hbond + desolv Energy     =   -6.81 kcal/mol
USER        Electrostatic Energy            =   +0.04 kcal/mol
USER    (2) Final Total Internal Energy     =   -4.71 kcal/mol
USER    (3) Torsional Free Energy           =   +3.88 kcal/mol
USER    (4) Unbound System's Energy  [=(2)] =   -4.71 kcal/mol
USER    
USER    
USER  
USER    DPF = D:/Protein_go_brrr/autodock/final/AncB/heme/dock.dpf
USER    NEWDPF move	heme_opt.pdbqt
USER    NEWDPF about	0.153000 0.018000 -0.028000
USER    NEWDPF tran0	17.667029 -3.648413 -7.621091
USER    NEWDPF axisangle0	0.614625 -0.003768 -0.788811 173.382630
USER    NEWDPF quaternion0	0.613600 -0.003762 -0.787496 0.057715
USER    NEWDPF dihe0	160.87 122.35 107.09 53.63 -143.99 107.76 -50.72 69.29 14.23 -130.94 -78.96 -106.12 2.68 
USER  
USER                              x       y       z    vdW   Elec        q     RMS 
ATOM      1  O   UNL d   1      18.228  -5.761  -2.146 -0.15 -0.03    -0.289    15.665
ATOM      2  O   UNL d   1      20.294   0.815  -5.128 -0.10 -0.09    -0.289    15.665
ATOM      3  N   UNL d   1      17.808  -5.010  -5.486 -0.11 -0.07    -0.247    15.665
ATOM      4  N   UNL d   1      18.615  -2.155  -5.651 -0.22 -0.08    -0.247    15.665
ATOM      5  N   UNL d   1      17.427  -2.066  -8.267 -0.07 -0.13    -0.354    15.665
ATOM      6  N   UNL d   1      16.575  -5.023  -8.079 -0.11 -0.18    -0.354    15.665
ATOM      7  C   UNL d   1      17.147  -6.872  -4.036 -0.16 +0.01    +0.084    15.665
ATOM      8  C   UNL d   1      20.192  -1.340  -3.971 -0.16 +0.02    +0.084    15.665
ATOM      9  C   UNL d   1      19.303  -2.470  -4.500 -0.25 +0.01    +0.058    15.665
ATOM     10  C   UNL d   1      17.148  -6.226  -5.424 -0.17 +0.01    +0.058    15.665
ATOM     11  C   UNL d   1      17.939  -5.815  -3.327 -0.17 +0.03    +0.193    15.665
ATOM     12  C   UNL d   1      18.302  -4.753  -4.319 -0.19 +0.02    +0.109    15.665
ATOM     13  C   UNL d   1      19.853  -0.312  -5.013 -0.11 +0.06    +0.193    15.665
ATOM     14  C   UNL d   1      15.743  -6.929  -3.429 -0.28 +0.00    +0.026    15.665
ATOM     15  C   UNL d   1      19.169  -3.646  -3.866 -0.22 +0.01    +0.055    15.665
ATOM     16  C   UNL d   1      21.679  -1.686  -4.086 -0.06 +0.00    +0.026    15.665
ATOM     17  C   UNL d   1      18.882  -0.929  -5.968 -0.27 +0.04    +0.109    15.665
ATOM     18  C   UNL d   1      16.623  -6.854  -6.492 -0.19 +0.02    +0.050    15.665
ATOM     19  C   UNL d   1      16.653  -6.373  -7.826 -0.18 +0.02    +0.045    15.665
ATOM     20  C   UNL d   1      17.668  -0.731  -8.072 -0.25 +0.02    +0.045    15.665
ATOM     21  C   UNL d   1      18.335  -0.136  -7.079 -0.30 +0.02    +0.057    15.665
ATOM     22  C   UNL d   1      16.461  -0.990  -9.995 -0.36 -0.01    -0.019    15.665
ATOM     23  C   UNL d   1      16.704  -2.321  -9.402 -0.29 +0.02    +0.045    15.665
ATOM     24  C   UNL d   1      17.035  -0.053  -9.203 -0.32 -0.01    -0.022    15.665
ATOM     25  C   UNL d   1      16.529  -4.787  -9.434 -0.24 +0.03    +0.049    15.665
ATOM     26  C   UNL d   1      16.695  -7.030  -9.047 -0.07 -0.01    -0.018    15.665
ATOM     27  C   UNL d   1      16.637  -6.022 -10.058 -0.15 +0.00    +0.003    15.665
ATOM     28  C   UNL d   1      16.291  -3.479  -9.939 -0.31 +0.02    +0.052    15.665
ATOM     29  C   UNL d   1      17.071   1.426  -9.386 -0.32 +0.03    +0.046    15.665
ATOM     30  C   UNL d   1      16.787  -8.502  -9.263 -0.04 +0.03    +0.046    15.665
ATOM     31  H   UNL d   1      17.829  -2.768  -7.655 +0.06 +0.06    +0.166    15.665
ATOM     32  H   UNL d   1      16.519  -4.319  -7.353 +0.14 +0.09    +0.166    15.665
ATOM     33  C   UNL d   1      17.856  -8.228  -3.942 -0.04 +0.01    +0.141    15.665
ATOM     34  C   UNL d   1      19.320  -8.141  -4.278 -0.01 +0.03    +0.306    15.665
ATOM     35  O   UNL d   1      19.813  -8.270  -5.386 -0.01 -0.03    -0.251    15.665
ATOM     36  O   UNL d   1      20.086  -7.894  -3.201 +0.00 -0.04    -0.481    15.665
ATOM     37  H   UNL d   1      19.473  -7.491  -2.550 +0.03 +0.02    +0.295    15.665
ATOM     38  C   UNL d   1      16.640  -6.267 -11.469 -0.13 +0.01    +0.017    15.665
ATOM     39  C   UNL d   1      15.597  -6.074 -12.291 -0.14 +0.05    +0.092    15.665
ATOM     40  C   UNL d   1      15.736  -6.348 -13.723 -0.04 +0.11    +0.330    15.665
ATOM     41  O   UNL d   1      15.285  -7.289 -14.347 -0.02 -0.07    -0.246    15.665
ATOM     42  O   UNL d   1      16.454  -5.378 -14.311 +0.00 -0.13    -0.477    15.665
ATOM     43  H   UNL d   1      15.953  -4.561 -14.111 +0.05 +0.09    +0.295    15.665
ATOM     44  C   UNL d   1      19.848  -0.832  -2.567 -0.19 +0.03    +0.141    15.665
ATOM     45  C   UNL d   1      20.761   0.267  -2.092 -0.08 +0.05    +0.306    15.665
ATOM     46  O   UNL d   1      21.758   0.137  -1.405 -0.03 -0.03    -0.251    15.665
ATOM     47  O   UNL d   1      20.350   1.485  -2.489 -0.04 -0.10    -0.481    15.665
ATOM     48  H   UNL d   1      20.560   1.518  -3.447 +0.07 +0.07    +0.295    15.665
ATOM     49  C   UNL d   1      15.685  -0.760 -11.258 -0.33 +0.02    +0.048    15.665
ATOM     50  C   UNL d   1      16.537  -1.011 -12.502 -0.13 +0.04    +0.125    15.665
ATOM     51  C   UNL d   1      16.220  -2.349 -13.108 -0.07 +0.09    +0.305    15.665
ATOM     52  O   UNL d   1      15.160  -2.718 -13.582 -0.12 -0.09    -0.251    15.665
ATOM     53  O   UNL d   1      17.279  -3.182 -13.073 -0.00 -0.13    -0.481    15.665
ATOM     54  H   UNL d   1      17.380  -3.479 -14.001 +0.03 +0.07    +0.295    15.665
TER
ENDMDL
MODEL       71
USER    Run = 71
USER    Cluster Rank = 59
USER    Number of conformations in this cluster = 2
USER  
USER    RMSD from reference structure       = 12.513 A
USER  
USER    Estimated Free Energy of Binding    =   -2.79 kcal/mol  [=(1)+(2)+(3)-(4)]
USER    Estimated Inhibition Constant, Ki   =    9.01 mM (millimolar)  [Temperature = 298.15 K]
USER    
USER    (1) Final Intermolecular Energy     =   -6.67 kcal/mol
USER        vdW + Hbond + desolv Energy     =   -6.41 kcal/mol
USER        Electrostatic Energy            =   -0.25 kcal/mol
USER    (2) Final Total Internal Energy     =   -4.70 kcal/mol
USER    (3) Torsional Free Energy           =   +3.88 kcal/mol
USER    (4) Unbound System's Energy  [=(2)] =   -4.70 kcal/mol
USER    
USER    
USER  
USER    DPF = D:/Protein_go_brrr/autodock/final/AncB/heme/dock.dpf
USER    NEWDPF move	heme_opt.pdbqt
USER    NEWDPF about	0.153000 0.018000 -0.028000
USER    NEWDPF tran0	-8.864877 -2.949412 -11.720005
USER    NEWDPF axisangle0	0.346307 -0.698312 0.626444 172.669153
USER    NEWDPF quaternion0	0.345599 -0.696884 0.625162 0.063930
USER    NEWDPF dihe0	147.53 -122.68 -142.76 -21.35 -136.81 -36.58 130.36 -129.48 24.39 -9.54 -73.86 -34.22 -10.56 
USER  
USER                              x       y       z    vdW   Elec        q     RMS 
ATOM      1  O   UNL d   1      -4.981  -0.369 -15.327 -0.06 -0.46    -0.289    12.513
ATOM      2  O   UNL d   1      -5.740  -0.052  -7.863 -0.23 -0.08    -0.289    12.513
ATOM      3  N   UNL d   1      -7.529  -1.967 -13.639 -0.04 -0.22    -0.247    12.513
ATOM      4  N   UNL d   1      -6.836  -1.528 -10.783 -0.07 -0.16    -0.247    12.513
ATOM      5  N   UNL d   1      -8.775  -3.539 -10.100 -0.05 -0.15    -0.354    12.513
ATOM      6  N   UNL d   1      -9.473  -4.001 -13.067 -0.00 -0.20    -0.354    12.513
ATOM      7  C   UNL d   1      -6.758  -1.921 -15.965 -0.04 +0.08    +0.084    12.513
ATOM      8  C   UNL d   1      -5.496   0.443 -10.248 -0.19 +0.05    +0.084    12.513
ATOM      9  C   UNL d   1      -6.134  -0.465 -11.304 -0.11 +0.05    +0.058    12.513
ATOM     10  C   UNL d   1      -7.742  -2.452 -14.919 -0.04 +0.05    +0.058    12.513
ATOM     11  C   UNL d   1      -5.962  -1.036 -15.054 -0.01 +0.28    +0.193    12.513
ATOM     12  C   UNL d   1      -6.543  -1.131 -13.677 -0.07 +0.13    +0.109    12.513
ATOM     13  C   UNL d   1      -5.935  -0.322  -9.032 -0.17 +0.09    +0.193    12.513
ATOM     14  C   UNL d   1      -5.844  -3.024 -16.506 -0.09 +0.03    +0.026    12.513
ATOM     15  C   UNL d   1      -5.976  -0.267 -12.622 -0.12 +0.06    +0.055    12.513
ATOM     16  C   UNL d   1      -6.150   1.828 -10.220 -0.24 +0.02    +0.026    12.513
ATOM     17  C   UNL d   1      -6.733  -1.499  -9.493 -0.15 +0.05    +0.109    12.513
ATOM     18  C   UNL d   1      -8.771  -3.249 -15.262 -0.02 +0.03    +0.050    12.513
ATOM     19  C   UNL d   1      -9.777  -3.719 -14.379 -0.02 +0.02    +0.045    12.513
ATOM     20  C   UNL d   1      -8.172  -3.370  -8.881 -0.23 +0.02    +0.045    12.513
ATOM     21  C   UNL d   1      -7.262  -2.461  -8.515 -0.21 +0.02    +0.057    12.513
ATOM     22  C   UNL d   1      -9.623  -5.129  -8.749 -0.33 -0.01    -0.019    12.513
ATOM     23  C   UNL d   1      -9.667  -4.578 -10.118 -0.18 +0.02    +0.045    12.513
ATOM     24  C   UNL d   1      -8.737  -4.408  -8.021 -0.36 -0.01    -0.022    12.513
ATOM     25  C   UNL d   1     -10.568  -4.527 -12.420 -0.08 +0.03    +0.049    12.513
ATOM     26  C   UNL d   1     -11.112  -4.034 -14.581 -0.02 -0.01    -0.018    12.513
ATOM     27  C   UNL d   1     -11.611  -4.525 -13.335 -0.06 +0.00    +0.003    12.513
ATOM     28  C   UNL d   1     -10.456  -5.041 -11.099 -0.16 +0.03    +0.052    12.513
ATOM     29  C   UNL d   1      -8.355  -4.571  -6.589 -0.53 +0.01    +0.046    12.513
ATOM     30  C   UNL d   1     -11.880  -3.887 -15.850 -0.00 +0.02    +0.046    12.513
ATOM     31  H   UNL d   1      -8.611  -2.890 -10.863 +0.04 +0.08    +0.166    12.513
ATOM     32  H   UNL d   1      -8.553  -3.872 -12.664 +0.04 +0.10    +0.166    12.513
ATOM     33  C   UNL d   1      -7.383  -1.102 -17.100 +0.00 +0.09    +0.141    12.513
ATOM     34  C   UNL d   1      -7.848   0.255 -16.646 +0.01 +0.17    +0.306    12.513
ATOM     35  O   UNL d   1      -8.907   0.508 -16.097 +0.00 -0.12    -0.251    12.513
ATOM     36  O   UNL d   1      -6.952   1.223 -16.906 +0.01 -0.31    -0.481    12.513
ATOM     37  H   UNL d   1      -6.079   0.791 -16.785 +0.02 +0.23    +0.295    12.513
ATOM     38  C   UNL d   1     -12.949  -4.979 -13.103 -0.09 +0.01    +0.017    12.513
ATOM     39  C   UNL d   1     -13.432  -5.397 -11.923 -0.10 +0.09    +0.092    12.513
ATOM     40  C   UNL d   1     -14.830  -5.822 -11.815 -0.04 +0.37    +0.330    12.513
ATOM     41  O   UNL d   1     -15.801  -5.330 -12.358 -0.04 -0.17    -0.246    12.513
ATOM     42  O   UNL d   1     -14.928  -6.888 -11.006 -0.58 -0.75    -0.477    12.513
ATOM     43  H   UNL d   1     -14.535  -6.580 -10.164 +0.03 +0.29    +0.295    12.513
ATOM     44  C   UNL d   1      -3.969   0.553 -10.305 -0.26 +0.11    +0.141    12.513
ATOM     45  C   UNL d   1      -3.272  -0.772 -10.143 -0.18 +0.25    +0.306    12.513
ATOM     46  O   UNL d   1      -3.020  -1.574 -11.026 -0.76 -0.36    -0.251    12.513
ATOM     47  O   UNL d   1      -2.952  -1.031  -8.862 -0.10 -0.25    -0.481    12.513
ATOM     48  H   UNL d   1      -3.698  -0.665  -8.341 +0.18 +0.13    +0.295    12.513
ATOM     49  C   UNL d   1     -10.432  -6.306  -8.288 -0.39 +0.01    +0.048    12.513
ATOM     50  C   UNL d   1     -11.746  -5.873  -7.637 -0.19 +0.02    +0.125    12.513
ATOM     51  C   UNL d   1     -12.912  -6.165  -8.539 -0.10 +0.13    +0.305    12.513
ATOM     52  O   UNL d   1     -13.857  -5.437  -8.790 -0.04 -0.10    -0.251    12.513
ATOM     53  O   UNL d   1     -12.833  -7.395  -9.083 -0.09 -0.36    -0.481    12.513
ATOM     54  H   UNL d   1     -13.757  -7.605  -9.333 +0.06 +0.26    +0.295    12.513
TER
ENDMDL
MODEL       65
USER    Run = 65
USER    Cluster Rank = 60
USER    Number of conformations in this cluster = 1
USER  
USER    RMSD from reference structure       = 15.415 A
USER  
USER    Estimated Free Energy of Binding    =   -2.78 kcal/mol  [=(1)+(2)+(3)-(4)]
USER    Estimated Inhibition Constant, Ki   =    9.20 mM (millimolar)  [Temperature = 298.15 K]
USER    
USER    (1) Final Intermolecular Energy     =   -6.66 kcal/mol
USER        vdW + Hbond + desolv Energy     =   -6.57 kcal/mol
USER        Electrostatic Energy            =   -0.09 kcal/mol
USER    (2) Final Total Internal Energy     =   -4.51 kcal/mol
USER    (3) Torsional Free Energy           =   +3.88 kcal/mol
USER    (4) Unbound System's Energy  [=(2)] =   -4.51 kcal/mol
USER    
USER    
USER  
USER    DPF = D:/Protein_go_brrr/autodock/final/AncB/heme/dock.dpf
USER    NEWDPF move	heme_opt.pdbqt
USER    NEWDPF about	0.153000 0.018000 -0.028000
USER    NEWDPF tran0	-15.633590 7.879178 7.974543
USER    NEWDPF axisangle0	-0.652319 0.199306 -0.731271 167.089402
USER    NEWDPF quaternion0	-0.648183 0.198042 -0.726634 0.112428
USER    NEWDPF dihe0	95.95 -133.70 145.38 -28.34 -139.02 33.91 -46.14 -94.32 42.96 -108.83 -79.96 -78.98 -8.28 
USER  
USER                              x       y       z    vdW   Elec        q     RMS 
ATOM      1  O   UNL d   1     -15.007   6.608   2.252 -0.13 -0.07    -0.289    15.415
ATOM      2  O   UNL d   1     -14.658  13.155   5.913 -0.08 +0.03    -0.289    15.415
ATOM      3  N   UNL d   1     -15.582   6.886   5.641 -0.08 -0.02    -0.247    15.415
ATOM      4  N   UNL d   1     -14.932   9.728   6.214 -0.08 -0.02    -0.247    15.415
ATOM      5  N   UNL d   1     -14.936   9.069   9.012 -0.09 -0.02    -0.354    15.415
ATOM      6  N   UNL d   1     -15.592   6.118   8.409 -0.10 -0.03    -0.354    15.415
ATOM      7  C   UNL d   1     -15.392   5.017   4.067 -0.20 +0.01    +0.084    15.415
ATOM      8  C   UNL d   1     -15.161  11.320   4.374 -0.08 -0.00    +0.084    15.415
ATOM      9  C   UNL d   1     -15.192   9.870   4.869 -0.11 +0.00    +0.058    15.415
ATOM     10  C   UNL d   1     -15.612   5.509   5.501 -0.19 +0.01    +0.058    15.415
ATOM     11  C   UNL d   1     -15.251   6.361   3.419 -0.11 +0.03    +0.193    15.415
ATOM     12  C   UNL d   1     -15.411   7.413   4.473 -0.11 +0.01    +0.109    15.415
ATOM     13  C   UNL d   1     -14.798  11.971   5.679 -0.05 -0.01    +0.193    15.415
ATOM     14  C   UNL d   1     -14.074   4.254   3.917 -0.36 +0.00    +0.026    15.415
ATOM     15  C   UNL d   1     -15.403   8.828   4.050 -0.11 +0.00    +0.055    15.415
ATOM     16  C   UNL d   1     -16.550  11.805   3.951 -0.02 +0.00    +0.026    15.415
ATOM     17  C   UNL d   1     -14.682  10.897   6.711 +0.01 +0.00    +0.109    15.415
ATOM     18  C   UNL d   1     -15.898   4.654   6.501 -0.21 +0.01    +0.050    15.415
ATOM     19  C   UNL d   1     -16.199   5.023   7.837 -0.06 +0.00    +0.045    15.415
ATOM     20  C   UNL d   1     -14.420  10.338   9.070 -0.21 +0.00    +0.045    15.415
ATOM     21  C   UNL d   1     -14.292  11.236   8.088 -0.17 +0.00    +0.057    15.415
ATOM     22  C   UNL d   1     -14.313   9.402  11.151 -0.22 -0.00    -0.019    15.415
ATOM     23  C   UNL d   1     -14.914   8.425  10.221 -0.25 +0.00    +0.045    15.415
ATOM     24  C   UNL d   1     -14.024  10.533  10.464 -0.23 -0.00    -0.022    15.415
ATOM     25  C   UNL d   1     -15.957   6.238   9.730 -0.20 +0.00    +0.049    15.415
ATOM     26  C   UNL d   1     -17.006   4.438   8.800 -0.12 -0.00    -0.018    15.415
ATOM     27  C   UNL d   1     -16.865   5.221   9.987 -0.15 +0.00    +0.003    15.415
ATOM     28  C   UNL d   1     -15.338   7.202  10.572 -0.31 +0.00    +0.052    15.415
ATOM     29  C   UNL d   1     -13.421  11.800  10.965 -0.22 +0.01    +0.046    15.415
ATOM     30  C   UNL d   1     -17.860   3.227   8.630 -0.11 +0.00    +0.046    15.415
ATOM     31  H   UNL d   1     -15.357   8.711   8.162 +0.06 +0.01    +0.166    15.415
ATOM     32  H   UNL d   1     -14.938   6.716   7.918 +0.03 +0.01    +0.166    15.415
ATOM     33  C   UNL d   1     -16.563   4.243   3.451 -0.17 +0.03    +0.141    15.415
ATOM     34  C   UNL d   1     -17.526   5.136   2.717 -0.06 +0.07    +0.306    15.415
ATOM     35  O   UNL d   1     -18.452   5.757   3.211 -0.02 -0.04    -0.251    15.415
ATOM     36  O   UNL d   1     -17.269   5.203   1.399 -0.05 -0.20    -0.481    15.415
ATOM     37  H   UNL d   1     -16.605   5.919   1.312 +0.06 +0.12    +0.295    15.415
ATOM     38  C   UNL d   1     -17.518   4.956  11.233 -0.14 +0.00    +0.017    15.415
ATOM     39  C   UNL d   1     -16.943   5.042  12.443 -0.20 +0.00    +0.092    15.415
ATOM     40  C   UNL d   1     -17.730   4.760  13.646 -0.08 +0.02    +0.330    15.415
ATOM     41  O   UNL d   1     -18.652   3.977  13.765 -0.04 -0.01    -0.246    15.415
ATOM     42  O   UNL d   1     -17.286   5.503  14.672 -0.07 -0.04    -0.477    15.415
ATOM     43  H   UNL d   1     -17.192   6.400  14.289 +0.06 +0.03    +0.295    15.415
ATOM     44  C   UNL d   1     -14.114  11.628   3.298 -0.10 -0.01    +0.141    15.415
ATOM     45  C   UNL d   1     -13.762  13.089   3.212 -0.05 -0.03    +0.306    15.415
ATOM     46  O   UNL d   1     -14.303  13.927   2.512 -0.01 +0.01    -0.251    15.415
ATOM     47  O   UNL d   1     -12.721  13.415   4.000 -0.04 +0.12    -0.481    15.415
ATOM     48  H   UNL d   1     -12.824  12.848   4.794 -0.45 -0.16    +0.295    15.415
ATOM     49  C   UNL d   1     -14.066   9.137  12.607 -0.12 +0.00    +0.048    15.415
ATOM     50  C   UNL d   1     -15.247   9.575  13.473 -0.08 +0.01    +0.125    15.415
ATOM     51  C   UNL d   1     -16.094   8.397  13.862 -0.06 +0.02    +0.305    15.415
ATOM     52  O   UNL d   1     -17.148   8.044  13.363 -0.03 -0.02    -0.251    15.415
ATOM     53  O   UNL d   1     -15.562   7.712  14.894 -0.66 -0.10    -0.481    15.415
ATOM     54  H   UNL d   1     -16.339   7.320  15.345 +0.04 +0.09    +0.295    15.415
TER
ENDMDL
MODEL       52
USER    Run = 52
USER    Cluster Rank = 61
USER    Number of conformations in this cluster = 1
USER  
USER    RMSD from reference structure       = 16.766 A
USER  
USER    Estimated Free Energy of Binding    =   -2.59 kcal/mol  [=(1)+(2)+(3)-(4)]
USER    Estimated Inhibition Constant, Ki   =   12.71 mM (millimolar)  [Temperature = 298.15 K]
USER    
USER    (1) Final Intermolecular Energy     =   -6.46 kcal/mol
USER        vdW + Hbond + desolv Energy     =   -6.21 kcal/mol
USER        Electrostatic Energy            =   -0.25 kcal/mol
USER    (2) Final Total Internal Energy     =   -4.65 kcal/mol
USER    (3) Torsional Free Energy           =   +3.88 kcal/mol
USER    (4) Unbound System's Energy  [=(2)] =   -4.65 kcal/mol
USER    
USER    
USER  
USER    DPF = D:/Protein_go_brrr/autodock/final/AncB/heme/dock.dpf
USER    NEWDPF move	heme_opt.pdbqt
USER    NEWDPF about	0.153000 0.018000 -0.028000
USER    NEWDPF tran0	1.711533 2.732409 -17.380005
USER    NEWDPF axisangle0	-0.233606 0.968692 -0.084051 -58.396442
USER    NEWDPF quaternion0	-0.113961 0.472559 -0.041003 -0.872937
USER    NEWDPF dihe0	151.21 -179.07 -65.08 54.97 -148.26 56.20 131.94 45.52 50.56 -54.10 -77.85 -105.55 11.93 
USER  
USER                              x       y       z    vdW   Elec        q     RMS 
ATOM      1  O   UNL d   1      -0.895   5.482 -12.863 -0.85 -0.44    -0.289    16.766
ATOM      2  O   UNL d   1      -0.892  -1.748 -14.894 -0.29 -0.48    -0.289    16.766
ATOM      3  N   UNL d   1       0.689   4.340 -15.706 -0.09 -0.20    -0.247    16.766
ATOM      4  N   UNL d   1       0.408   1.389 -15.507 -0.03 -0.18    -0.247    16.766
ATOM      5  N   UNL d   1       2.378   1.154 -17.587 -0.01 -0.16    -0.354    16.766
ATOM      6  N   UNL d   1       2.678   4.216 -17.774 -0.09 -0.20    -0.354    16.766
ATOM      7  C   UNL d   1       0.563   6.495 -14.544 -0.35 +0.07    +0.084    16.766
ATOM      8  C   UNL d   1      -1.489   0.531 -14.227 -0.14 +0.11    +0.084    16.766
ATOM      9  C   UNL d   1      -0.653   1.726 -14.697 -0.14 +0.06    +0.058    16.766
ATOM     10  C   UNL d   1       1.106   5.661 -15.708 -0.23 +0.04    +0.058    16.766
ATOM     11  C   UNL d   1      -0.251   5.416 -13.894 -0.26 +0.25    +0.193    16.766
ATOM     12  C   UNL d   1      -0.113   4.166 -14.707 -0.21 +0.13    +0.109    16.766
ATOM     13  C   UNL d   1      -0.683  -0.551 -14.891 -0.09 +0.23    +0.193    16.766
ATOM     14  C   UNL d   1       1.671   6.927 -13.580 -0.42 +0.01    +0.026    16.766
ATOM     15  C   UNL d   1      -0.906   2.986 -14.308 -0.22 +0.08    +0.055    16.766
ATOM     16  C   UNL d   1      -2.893   0.544 -14.839 -0.13 +0.04    +0.026    16.766
ATOM     17  C   UNL d   1       0.442   0.101 -15.628 -0.06 +0.08    +0.109    16.766
ATOM     18  C   UNL d   1       1.850   6.216 -16.683 -0.28 +0.04    +0.050    16.766
ATOM     19  C   UNL d   1       2.324   5.545 -17.839 -0.21 +0.03    +0.045    16.766
ATOM     20  C   UNL d   1       2.287  -0.158 -17.200 -0.05 +0.02    +0.045    16.766
ATOM     21  C   UNL d   1       1.429  -0.721 -16.343 -0.09 +0.03    +0.057    16.766
ATOM     22  C   UNL d   1       3.998   0.052 -18.699 -0.07 -0.01    -0.019    16.766
ATOM     23  C   UNL d   1       3.383   1.378 -18.491 -0.08 +0.02    +0.045    16.766
ATOM     24  C   UNL d   1       3.344  -0.853 -17.933 -0.05 -0.01    -0.022    16.766
ATOM     25  C   UNL d   1       3.194   3.794 -18.978 -0.12 +0.03    +0.049    16.766
ATOM     26  C   UNL d   1       2.582   5.988 -19.127 -0.16 -0.02    -0.018    16.766
ATOM     27  C   UNL d   1       3.113   4.873 -19.847 -0.14 +0.00    +0.003    16.766
ATOM     28  C   UNL d   1       3.772   2.503 -19.110 -0.03 +0.03    +0.052    16.766
ATOM     29  C   UNL d   1       3.587  -2.319 -17.809 -0.08 +0.01    +0.046    16.766
ATOM     30  C   UNL d   1       2.350   7.361 -19.659 -0.07 +0.05    +0.046    16.766
ATOM     31  H   UNL d   1       1.701   1.842 -17.277 +0.04 +0.08    +0.166    16.766
ATOM     32  H   UNL d   1       2.599   3.656 -16.934 +0.05 +0.09    +0.166    16.766
ATOM     33  C   UNL d   1      -0.330   7.675 -14.941 -0.25 +0.11    +0.141    16.766
ATOM     34  C   UNL d   1      -1.796   7.355 -14.834 -0.11 +0.39    +0.306    16.766
ATOM     35  O   UNL d   1      -2.513   6.953 -15.734 -0.14 -0.38    -0.251    16.766
ATOM     36  O   UNL d   1      -2.281   7.556 -13.596 -0.12 -0.63    -0.481    16.766
ATOM     37  H   UNL d   1      -1.525   7.364 -13.001 +0.16 +0.32    +0.295    16.766
ATOM     38  C   UNL d   1       3.530   4.899 -21.216 -0.08 +0.01    +0.017    16.766
ATOM     39  C   UNL d   1       4.798   4.791 -21.642 -0.09 +0.05    +0.092    16.766
ATOM     40  C   UNL d   1       5.091   4.814 -23.077 -0.00 +0.13    +0.330    16.766
ATOM     41  O   UNL d   1       4.766   5.659 -23.889 -0.00 -0.09    -0.246    16.766
ATOM     42  O   UNL d   1       5.812   3.735 -23.419 +0.01 -0.16    -0.477    16.766
ATOM     43  H   UNL d   1       5.911   3.243 -22.578 +0.03 +0.11    +0.295    16.766
ATOM     44  C   UNL d   1      -1.546   0.320 -12.711 -0.20 +0.17    +0.141    16.766
ATOM     45  C   UNL d   1      -0.674  -0.811 -12.234 -0.16 +0.31    +0.306    16.766
ATOM     46  O   UNL d   1       0.503  -0.740 -11.925 -0.16 -0.16    -0.251    16.766
ATOM     47  O   UNL d   1      -1.328  -1.986 -12.199 -0.11 -0.74    -0.481    16.766
ATOM     48  H   UNL d   1      -0.887  -2.536 -12.881 +0.13 +0.46    +0.295    16.766
ATOM     49  C   UNL d   1       5.166  -0.202 -19.606 -0.08 +0.02    +0.048    16.766
ATOM     50  C   UNL d   1       4.775  -0.094 -21.080 -0.02 +0.04    +0.125    16.766
ATOM     51  C   UNL d   1       5.238   1.210 -21.664 -0.02 +0.10    +0.305    16.766
ATOM     52  O   UNL d   1       6.290   1.788 -21.451 -0.06 -0.09    -0.251    16.766
ATOM     53  O   UNL d   1       4.323   1.742 -22.498 +0.00 -0.15    -0.481    16.766
ATOM     54  H   UNL d   1       4.816   1.885 -23.333 +0.01 +0.08    +0.295    16.766
TER
ENDMDL
MODEL       99
USER    Run = 99
USER    Cluster Rank = 62
USER    Number of conformations in this cluster = 1
USER  
USER    RMSD from reference structure       = 14.940 A
USER  
USER    Estimated Free Energy of Binding    =   -2.43 kcal/mol  [=(1)+(2)+(3)-(4)]
USER    Estimated Inhibition Constant, Ki   =   16.41 mM (millimolar)  [Temperature = 298.15 K]
USER    
USER    (1) Final Intermolecular Energy     =   -6.31 kcal/mol
USER        vdW + Hbond + desolv Energy     =   -6.16 kcal/mol
USER        Electrostatic Energy            =   -0.16 kcal/mol
USER    (2) Final Total Internal Energy     =   -4.43 kcal/mol
USER    (3) Torsional Free Energy           =   +3.88 kcal/mol
USER    (4) Unbound System's Energy  [=(2)] =   -4.43 kcal/mol
USER    
USER    
USER  
USER    DPF = D:/Protein_go_brrr/autodock/final/AncB/heme/dock.dpf
USER    NEWDPF move	heme_opt.pdbqt
USER    NEWDPF about	0.153000 0.018000 -0.028000
USER    NEWDPF tran0	16.838214 8.965422 1.239288
USER    NEWDPF axisangle0	-0.410330 -0.241530 -0.879370 151.411982
USER    NEWDPF quaternion0	-0.397627 -0.234053 -0.852146 0.246898
USER    NEWDPF dihe0	100.67 -147.12 88.55 69.85 -137.41 26.48 -60.78 -63.59 64.79 -139.18 -92.54 -52.56 -17.22 
USER  
USER                              x       y       z    vdW   Elec        q     RMS 
ATOM      1  O   UNL d   1      20.109   4.393  -0.537 -0.05 -0.03    -0.289    14.940
ATOM      2  O   UNL d   1      18.216  10.757  -4.045 -0.56 -0.17    -0.289    14.940
ATOM      3  N   UNL d   1      18.029   6.756   0.873 -0.12 -0.02    -0.247    14.940
ATOM      4  N   UNL d   1      18.114   8.993  -1.081 -0.09 -0.05    -0.247    14.940
ATOM      5  N   UNL d   1      16.886  10.660   0.914 -0.05 -0.07    -0.354    14.940
ATOM      6  N   UNL d   1      16.820   8.339   2.942 -0.04 -0.06    -0.354    14.940
ATOM      7  C   UNL d   1      19.068   4.679   1.656 -0.10 +0.00    +0.084    14.940
ATOM      8  C   UNL d   1      18.622   8.430  -3.404 -0.16 +0.03    +0.084    14.940
ATOM      9  C   UNL d   1      18.486   7.987  -1.944 -0.15 +0.01    +0.058    14.940
ATOM     10  C   UNL d   1      18.179   5.892   1.945 -0.15 +0.00    +0.058    14.940
ATOM     11  C   UNL d   1      19.380   5.001   0.226 -0.09 +0.01    +0.193    14.940
ATOM     12  C   UNL d   1      18.672   6.269  -0.138 -0.15 +0.01    +0.109    14.940
ATOM     13  C   UNL d   1      18.294   9.883  -3.205 -0.18 +0.07    +0.193    14.940
ATOM     14  C   UNL d   1      20.367   4.713   2.466 -0.03 +0.00    +0.026    14.940
ATOM     15  C   UNL d   1      18.757   6.737  -1.537 -0.18 +0.01    +0.055    14.940
ATOM     16  C   UNL d   1      17.544   7.800  -4.292 -0.41 +0.01    +0.026    14.940
ATOM     17  C   UNL d   1      18.013  10.095  -1.752 -0.16 +0.03    +0.109    14.940
ATOM     18  C   UNL d   1      17.538   6.031   3.121 -0.15 +0.01    +0.050    14.940
ATOM     19  C   UNL d   1      16.632   7.072   3.446 -0.13 +0.01    +0.045    14.940
ATOM     20  C   UNL d   1      17.214  11.611  -0.017 -0.11 +0.01    +0.045    14.940
ATOM     21  C   UNL d   1      17.703  11.442  -1.250 -0.14 +0.02    +0.057    14.940
ATOM     22  C   UNL d   1      16.435  12.654   1.859 -0.05 -0.00    -0.019    14.940
ATOM     23  C   UNL d   1      16.407  11.194   2.080 -0.07 +0.01    +0.045    14.940
ATOM     24  C   UNL d   1      16.912  12.894   0.615 -0.07 -0.00    -0.022    14.940
ATOM     25  C   UNL d   1      15.884   9.207   3.455 -0.08 +0.01    +0.049    14.940
ATOM     26  C   UNL d   1      15.524   7.109   4.279 -0.13 -0.00    -0.018    14.940
ATOM     27  C   UNL d   1      15.044   8.455   4.265 -0.11 +0.00    +0.003    14.940
ATOM     28  C   UNL d   1      15.969  10.603   3.203 -0.06 +0.01    +0.052    14.940
ATOM     29  C   UNL d   1      17.115  14.203  -0.070 -0.08 +0.01    +0.046    14.940
ATOM     30  C   UNL d   1      14.944   5.966   5.040 -0.13 +0.01    +0.046    14.940
ATOM     31  H   UNL d   1      16.930   9.671   0.694 +0.03 +0.03    +0.166    14.940
ATOM     32  H   UNL d   1      17.575   8.586   2.313 +0.03 +0.02    +0.166    14.940
ATOM     33  C   UNL d   1      18.375   3.316   1.762 -0.21 +0.00    +0.141    14.940
ATOM     34  C   UNL d   1      18.252   2.624   0.432 -0.19 -0.02    +0.306    14.940
ATOM     35  O   UNL d   1      17.380   2.812  -0.400 -0.19 +0.05    -0.251    14.940
ATOM     36  O   UNL d   1      19.236   1.733   0.218 -0.07 -0.02    -0.481    14.940
ATOM     37  H   UNL d   1      19.992   2.272  -0.099 +0.07 +0.03    +0.295    14.940
ATOM     38  C   UNL d   1      13.918   8.937   5.006 -0.13 +0.01    +0.017    14.940
ATOM     39  C   UNL d   1      13.641  10.229   5.240 -0.08 +0.04    +0.092    14.940
ATOM     40  C   UNL d   1      12.442  10.592   6.002 -0.05 +0.23    +0.330    14.940
ATOM     41  O   UNL d   1      11.841   9.912   6.811 -0.59 -0.28    -0.246    14.940
ATOM     42  O   UNL d   1      12.061  11.841   5.694 -0.06 -0.23    -0.477    14.940
ATOM     43  H   UNL d   1      12.311  11.938   4.752 +0.04 +0.12    +0.295    14.940
ATOM     44  C   UNL d   1      20.015   8.261  -4.019 -0.08 +0.04    +0.141    14.940
ATOM     45  C   UNL d   1      20.044   8.511  -5.503 -0.06 +0.07    +0.306    14.940
ATOM     46  O   UNL d   1      20.125   7.668  -6.380 -0.10 -0.07    -0.251    14.940
ATOM     47  O   UNL d   1      19.997   9.821  -5.806 -0.04 -0.07    -0.481    14.940
ATOM     48  H   UNL d   1      19.042  10.014  -5.924 -0.49 +0.04    +0.295    14.940
ATOM     49  C   UNL d   1      16.010  13.669   2.880 -0.02 +0.01    +0.048    14.940
ATOM     50  C   UNL d   1      14.603  14.198   2.605 -0.02 +0.02    +0.125    14.940
ATOM     51  C   UNL d   1      13.567  13.336   3.268 +0.00 +0.05    +0.305    14.940
ATOM     52  O   UNL d   1      13.246  12.198   2.972 -0.02 -0.06    -0.251    14.940
ATOM     53  O   UNL d   1      12.961  13.972   4.290 +0.01 -0.08    -0.481    14.940
ATOM     54  H   UNL d   1      13.283  13.502   5.088 +0.01 +0.05    +0.295    14.940
TER
ENDMDL
MODEL       42
USER    Run = 42
USER    Cluster Rank = 63
USER    Number of conformations in this cluster = 1
USER  
USER    RMSD from reference structure       = 18.334 A
USER  
USER    Estimated Free Energy of Binding    =   -2.11 kcal/mol  [=(1)+(2)+(3)-(4)]
USER    Estimated Inhibition Constant, Ki   =   28.40 mM (millimolar)  [Temperature = 298.15 K]
USER    
USER    (1) Final Intermolecular Energy     =   -5.99 kcal/mol
USER        vdW + Hbond + desolv Energy     =   -5.90 kcal/mol
USER        Electrostatic Energy            =   -0.09 kcal/mol
USER    (2) Final Total Internal Energy     =   -4.80 kcal/mol
USER    (3) Torsional Free Energy           =   +3.88 kcal/mol
USER    (4) Unbound System's Energy  [=(2)] =   -4.80 kcal/mol
USER    
USER    
USER  
USER    DPF = D:/Protein_go_brrr/autodock/final/AncB/heme/dock.dpf
USER    NEWDPF move	heme_opt.pdbqt
USER    NEWDPF about	0.153000 0.018000 -0.028000
USER    NEWDPF tran0	8.971758 18.004279 -8.777961
USER    NEWDPF axisangle0	0.969303 -0.222127 -0.105412 107.671405
USER    NEWDPF quaternion0	0.782545 -0.179329 -0.085102 0.590103
USER    NEWDPF dihe0	119.84 164.74 -147.15 15.41 -131.19 39.13 131.17 38.33 35.96 -11.67 -68.55 -79.94 1.96 
USER  
USER                              x       y       z    vdW   Elec        q     RMS 
ATOM      1  O   UNL d   1       3.210  19.230  -8.539 -0.02 -0.08    -0.289    18.334
ATOM      2  O   UNL d   1       8.247  18.136  -3.078 -0.09 -0.01    -0.289    18.334
ATOM      3  N   UNL d   1       6.496  18.390  -9.168 -0.06 -0.02    -0.247    18.334
ATOM      4  N   UNL d   1       7.750  18.472  -6.476 -0.10 -0.02    -0.247    18.334
ATOM      5  N   UNL d   1      10.316  18.402  -7.771 -0.12 -0.03    -0.354    18.334
ATOM      6  N   UNL d   1       9.007  18.337 -10.561 -0.07 -0.02    -0.354    18.334
ATOM      7  C   UNL d   1       4.576  19.022 -10.555 -0.09 +0.01    +0.084    18.334
ATOM      8  C   UNL d   1       6.294  18.079  -4.553 -0.15 +0.00    +0.084    18.334
ATOM      9  C   UNL d   1       6.450  18.280  -6.064 -0.16 +0.00    +0.058    18.334
ATOM     10  C   UNL d   1       6.051  18.622 -10.459 -0.09 +0.00    +0.058    18.334
ATOM     11  C   UNL d   1       4.260  18.958  -9.091 -0.06 +0.03    +0.193    18.334
ATOM     12  C   UNL d   1       5.498  18.539  -8.359 -0.13 +0.01    +0.109    18.334
ATOM     13  C   UNL d   1       7.742  18.229  -4.179 -0.13 +0.01    +0.193    18.334
ATOM     14  C   UNL d   1       4.402  20.465 -11.037 -0.03 +0.00    +0.026    18.334
ATOM     15  C   UNL d   1       5.403  18.318  -6.902 -0.17 +0.01    +0.055    18.334
ATOM     16  C   UNL d   1       5.843  16.655  -4.213 -0.25 -0.00    +0.026    18.334
ATOM     17  C   UNL d   1       8.517  18.471  -5.434 -0.18 +0.01    +0.109    18.334
ATOM     18  C   UNL d   1       6.801  18.431 -11.561 -0.11 -0.00    +0.050    18.334
ATOM     19  C   UNL d   1       8.145  17.980 -11.573 +0.04 -0.00    +0.045    18.334
ATOM     20  C   UNL d   1      10.708  18.674  -6.485 -0.21 +0.00    +0.045    18.334
ATOM     21  C   UNL d   1       9.968  18.701  -5.372 -0.22 +0.00    +0.057    18.334
ATOM     22  C   UNL d   1      12.529  18.811  -7.857 -0.17 -0.00    -0.019    18.334
ATOM     23  C   UNL d   1      11.347  18.462  -8.670 -0.20 +0.00    +0.045    18.334
ATOM     24  C   UNL d   1      12.144  18.934  -6.565 -0.14 -0.00    -0.022    18.334
ATOM     25  C   UNL d   1      10.275  17.870 -10.818 -0.17 +0.00    +0.049    18.334
ATOM     26  C   UNL d   1       8.863  17.230 -12.493 -0.17 -0.00    -0.018    18.334
ATOM     27  C   UNL d   1      10.202  17.148 -12.001 -0.18 +0.00    +0.003    18.334
ATOM     28  C   UNL d   1      11.371  18.246  -9.994 -0.19 +0.01    +0.052    18.334
ATOM     29  C   UNL d   1      12.976  19.262  -5.371 +0.01 +0.01    +0.046    18.334
ATOM     30  C   UNL d   1       8.339  16.625 -13.751 -0.20 +0.01    +0.046    18.334
ATOM     31  H   UNL d   1       9.367  18.112  -7.981 +0.05 +0.03    +0.166    18.334
ATOM     32  H   UNL d   1       8.733  18.903  -9.766 +0.03 +0.02    +0.166    18.334
ATOM     33  C   UNL d   1       3.683  18.056 -11.341 -0.17 +0.02    +0.141    18.334
ATOM     34  C   UNL d   1       3.202  16.902 -10.504 -0.20 +0.07    +0.306    18.334
ATOM     35  O   UNL d   1       3.854  15.923 -10.184 -0.36 -0.04    -0.251    18.334
ATOM     36  O   UNL d   1       1.923  17.043 -10.111 -0.07 -0.18    -0.481    18.334
ATOM     37  H   UNL d   1       1.925  17.848  -9.551 +0.08 +0.13    +0.295    18.334
ATOM     38  C   UNL d   1      11.282  16.473 -12.656 -0.18 +0.00    +0.017    18.334
ATOM     39  C   UNL d   1      12.530  16.949 -12.782 -0.10 +0.02    +0.092    18.334
ATOM     40  C   UNL d   1      13.551  16.148 -13.463 -0.02 +0.11    +0.330    18.334
ATOM     41  O   UNL d   1      13.408  15.432 -14.435 -0.65 -0.11    -0.246    18.334
ATOM     42  O   UNL d   1      14.740  16.310 -12.862 -0.20 -0.16    -0.477    18.334
ATOM     43  H   UNL d   1      14.616  17.106 -12.305 +0.06 +0.07    +0.295    18.334
ATOM     44  C   UNL d   1       5.431  19.121  -3.833 -0.04 +0.00    +0.141    18.334
ATOM     45  C   UNL d   1       5.977  20.520  -3.938 -0.00 +0.01    +0.306    18.334
ATOM     46  O   UNL d   1       5.765  21.317  -4.835 -0.00 -0.01    -0.251    18.334
ATOM     47  O   UNL d   1       6.790  20.833  -2.913 +0.01 -0.00    -0.481    18.334
ATOM     48  H   UNL d   1       7.220  19.986  -2.669 +0.02 +0.00    +0.295    18.334
ATOM     49  C   UNL d   1      13.908  19.006  -8.416 -0.13 +0.01    +0.048    18.334
ATOM     50  C   UNL d   1      14.629  17.674  -8.627 -0.14 +0.02    +0.125    18.334
ATOM     51  C   UNL d   1      14.830  17.399 -10.090 -0.11 +0.06    +0.305    18.334
ATOM     52  O   UNL d   1      15.010  18.210 -10.981 -0.03 -0.04    -0.251    18.334
ATOM     53  O   UNL d   1      14.780  16.080 -10.366 -0.04 -0.12    -0.481    18.334
ATOM     54  H   UNL d   1      15.160  16.011 -11.267 +0.10 +0.08    +0.295    18.334
TER
ENDMDL


AVSFLD: # AVS field file
AVSFLD: #
AVSFLD: # Created by AutoDock
AVSFLD: #
AVSFLD: ndim=2           # number of dimensions in the field
AVSFLD: nspace=1         # number of physical coordinates
AVSFLD: veclen=7         # vector size
AVSFLD: dim1=54          # atoms
AVSFLD: dim2=63          # conformations
AVSFLD: data=Real       # data type (byte,integer,Real,double)
AVSFLD: field=uniform    # field coordinate layout
AVSFLD: label= x y z vdW Elec q RMS
AVSFLD: variable 1 file = D:/Protein_go_brrr/autodock/final/AncB/heme/dock.dlg.pdb filetype = ascii offset = 5 stride = 12
AVSFLD: variable 2 file = D:/Protein_go_brrr/autodock/final/AncB/heme/dock.dlg.pdb filetype = ascii offset = 6 stride = 12
AVSFLD: variable 3 file = D:/Protein_go_brrr/autodock/final/AncB/heme/dock.dlg.pdb filetype = ascii offset = 7 stride = 12
AVSFLD: variable 4 file = D:/Protein_go_brrr/autodock/final/AncB/heme/dock.dlg.pdb filetype = ascii offset = 8 stride = 12
AVSFLD: variable 5 file = D:/Protein_go_brrr/autodock/final/AncB/heme/dock.dlg.pdb filetype = ascii offset = 9 stride = 12
AVSFLD: variable 6 file = D:/Protein_go_brrr/autodock/final/AncB/heme/dock.dlg.pdb filetype = ascii offset = 10 stride = 12
AVSFLD: variable 7 file = D:/Protein_go_brrr/autodock/final/AncB/heme/dock.dlg.pdb filetype = ascii offset = 11 stride = 12
AVSFLD: # end of file

>>> Closing the docking parameter file (DPF)...
This docking finished at:			2:53 57" a.m., 10/01/2025


________________________________________________________________________________

D:/autodockScripts/autodock4.exe: Successful Completion on "ACER"

Real= 14h 22m 08.12s,  CPU= 2m 32.31s,  System= 1m 49.86s
________________________________________________________________________________

