          AutoDock 4.2 Release 4.2.6   
         (C) 1989-2012 The Scripps Research Institute
        AutoDock comes with ABSOLUTELY NO WARRANTY.
        AutoDock is free software, and you are welcome
        to redistribute it under certain conditions;
        for details type 'autodock4 -C'

                     main.cc  $Revision: 1.213 $

                   Compiled on Jul 18 2014 at 15:34:58


This file was created at:			6:28 00" p.m., 10/04/2025
                   on host:		"ACER"
Current Working Directory = "D:\Protein_go_brrr\autodock\final\mut_N102T\heme_Fe"

      ________________________________________________________________

                   SETTING UP DEFAULT PARAMETER LIBRARY
      ________________________________________________________________


Random number generator was seeded with values 174564, 1759595280.
Docking parameter file (DPF) used for this docking:		D:/Protein_go_brrr/autodock/final/mut_N102T/heme_Fe/dock.dpf
DPF> autodock_parameter_version 4.2       # used by autodock to validate parameter set

	Autodock parameter version 4.2.
DPF> outlev 1                             # diagnostic output level

Output Level = 1  ADT-COMPATIBLE OUTPUT DURING DOCKING.
DPF> intelec                              # calculate internal electrostatics

Electrostatic energies will be calculated for all non-bonds between moving atoms.
DPF> seed pid time                        # seeds for random generator

Random number generator was seeded with values 174564, 1759595280.
DPF> ligand_types A C OA N Fe HD          # atoms types in ligand

DPF> fld mut_N102T_m0.maps.fld            # grid_data_file

Opening Grid Map Dimensions file:		mut_N102T_m0.maps.fld
Grid Point Spacing =				0.447 Angstroms

Even Number of User-specified Grid Points =	126 x-points
						126 y-points
						126 z-points

Coordinates of Central Grid Point of Maps =	(1.333, -0.428, -0.352)
Macromolecule file used to create Grid Maps =	mut_N102T_m0.pdbqt
Grid Parameter file used to create Grid Maps =	D:/Protein_go_brrr/autodock/final/mut_N102T/heme_Fe/grid.gpf
Minimum coordinates in grid = (-26.828, -28.589, -28.513)
Maximum coordinates in grid = (29.494, 27.733, 27.809)

DPF> map mut_N102T_m0.A.map               # atom-specific affinity map

DPF> map mut_N102T_m0.C.map               # atom-specific affinity map

DPF> map mut_N102T_m0.OA.map              # atom-specific affinity map

DPF> map mut_N102T_m0.N.map               # atom-specific affinity map

DPF> map mut_N102T_m0.Fe.map              # atom-specific affinity map

DPF> map mut_N102T_m0.HD.map              # atom-specific affinity map

DPF> elecmap mut_N102T_m0.e.map           # electrostatics map

DPF> desolvmap mut_N102T_m0.d.map         # desolvation map

DPF> move heme_Fe_opt.pdbqt               # small molecule

1,4-interactions will be _ignored_ in the non-bonded internal energy calculation.

Ligand PDBQT file = "heme_Fe_opt.pdbqt"

INPUT LIGAND PDBQT FILE:
________________________

INPUT-LIGAND-PDBQT: REMARK  10 active torsions:
INPUT-LIGAND-PDBQT: REMARK  status: ('A' for Active; 'I' for Inactive)
INPUT-LIGAND-PDBQT: REMARK    1  A    between atoms: C_6  and  C_10 
INPUT-LIGAND-PDBQT: REMARK    2  A    between atoms: C_10  and  C_11 
INPUT-LIGAND-PDBQT: REMARK    3  A    between atoms: C_11  and  C_12 
INPUT-LIGAND-PDBQT: REMARK    4  A    between atoms: C_12  and  O_14 
INPUT-LIGAND-PDBQT: REMARK    5  A    between atoms: C_17  and  C_20 
INPUT-LIGAND-PDBQT: REMARK    6  A    between atoms: C_24  and  C_27 
INPUT-LIGAND-PDBQT: REMARK    7  A    between atoms: C_31  and  C_34 
INPUT-LIGAND-PDBQT: REMARK    8  A    between atoms: C_34  and  C_35 
INPUT-LIGAND-PDBQT: REMARK    9  A    between atoms: C_35  and  C_36 
INPUT-LIGAND-PDBQT: REMARK   10  A    between atoms: C_36  and  O_38 
INPUT-LIGAND-PDBQT: ROOT
INPUT-LIGAND-PDBQT: ATOM      1  C   UNL d   1      -2.155  -0.060   0.485  0.00  0.00     0.064 C 
INPUT-LIGAND-PDBQT: ATOM      2  C   UNL d   1       1.497  -3.385   0.291  0.00  0.00     0.064 A 
INPUT-LIGAND-PDBQT: ATOM      3  C   UNL d   1       4.660   0.212  -0.062  0.00  0.00     0.064 C 
INPUT-LIGAND-PDBQT: ATOM      4  C   UNL d   1       1.133   3.443   0.018  0.00  0.00     0.064 C 
INPUT-LIGAND-PDBQT: ATOM      5  C   UNL d   1      -1.427  -1.332   0.379  0.00  0.00     0.066 A 
INPUT-LIGAND-PDBQT: ATOM      6  C   UNL d   1      -2.022  -2.582   0.331  0.00  0.00    -0.021 A 
INPUT-LIGAND-PDBQT: ATOM      7  C   UNL d   1      -1.007  -3.505   0.281  0.00  0.00    -0.025 A 
INPUT-LIGAND-PDBQT: ATOM      8  C   UNL d   1       0.170  -2.782   0.300  0.00  0.00     0.066 A 
INPUT-LIGAND-PDBQT: ATOM      9  C   UNL d   1      -1.169  -4.992   0.200  0.00  0.00     0.051 C 
INPUT-LIGAND-PDBQT: ATOM     10  C   UNL d   1       2.647  -2.710   0.251  0.00  0.00     0.066 A 
INPUT-LIGAND-PDBQT: ATOM     11  C   UNL d   1       3.903  -3.312   0.359  0.00  0.00    -0.021 A 
INPUT-LIGAND-PDBQT: ATOM     12  C   UNL d   1       4.832  -2.294   0.277  0.00  0.00     0.000 A 
INPUT-LIGAND-PDBQT: ATOM     13  C   UNL d   1       4.087  -1.111   0.130  0.00  0.00     0.070 A 
INPUT-LIGAND-PDBQT: ATOM     14  C   UNL d   1       4.202  -4.778   0.598  0.00  0.00     0.052 C 
INPUT-LIGAND-PDBQT: ATOM     15  C   UNL d   1       3.948   1.360  -0.152  0.00  0.00     0.066 A 
INPUT-LIGAND-PDBQT: ATOM     16  C   UNL d   1       4.526   2.591  -0.435  0.00  0.00    -0.021 A 
INPUT-LIGAND-PDBQT: ATOM     17  C   UNL d   1       3.511   3.525  -0.409  0.00  0.00     0.000 A 
INPUT-LIGAND-PDBQT: ATOM     18  C   UNL d   1       2.336   2.841  -0.106  0.00  0.00     0.070 A 
INPUT-LIGAND-PDBQT: ATOM     19  C   UNL d   1       5.979   2.885  -0.695  0.00  0.00     0.052 C 
INPUT-LIGAND-PDBQT: ATOM     20  C   UNL d   1      -0.134   2.748   0.275  0.00  0.00     0.066 A 
INPUT-LIGAND-PDBQT: ATOM     21  C   UNL d   1      -1.347   3.370   0.603  0.00  0.00    -0.025 A 
INPUT-LIGAND-PDBQT: ATOM     22  C   UNL d   1      -2.273   2.354   0.719  0.00  0.00    -0.021 A 
INPUT-LIGAND-PDBQT: ATOM     23  C   UNL d   1      -1.591   1.158   0.465  0.00  0.00     0.066 A 
INPUT-LIGAND-PDBQT: ATOM     24  C   UNL d   1      -1.629   4.841   0.803  0.00  0.00     0.051 C 
INPUT-LIGAND-PDBQT: ATOM     25  N   UNL d   1      -0.089  -1.460   0.350  0.00  0.00    -0.248 N 
INPUT-LIGAND-PDBQT: ATOM     26  N   UNL d   1       2.755  -1.363   0.123  0.00  0.00    -0.248 N 
INPUT-LIGAND-PDBQT: ATOM     27  N   UNL d   1       2.596   1.504   0.009  0.00  0.00    -0.248 N 
INPUT-LIGAND-PDBQT: ATOM     28  N   UNL d   1      -0.277   1.401   0.239  0.00  0.00    -0.248 N 
INPUT-LIGAND-PDBQT: ATOM     29 FE   UNL d   1       1.239   0.021   0.181  0.00  0.00     0.000 Fe
INPUT-LIGAND-PDBQT: ENDROOT
INPUT-LIGAND-PDBQT: BRANCH   6  30
INPUT-LIGAND-PDBQT: ATOM     30  C   UNL d   1      -3.481  -2.886   0.312  0.00  0.00     0.052 C 
INPUT-LIGAND-PDBQT: BRANCH  30  31
INPUT-LIGAND-PDBQT: ATOM     31  C   UNL d   1      -4.006  -2.926  -1.119  0.00  0.00     0.115 C 
INPUT-LIGAND-PDBQT: BRANCH  31  32
INPUT-LIGAND-PDBQT: ATOM     32  C   UNL d   1      -5.478  -3.232  -1.131  0.00  0.00     0.139 C 
INPUT-LIGAND-PDBQT: ATOM     33  O   UNL d   1      -6.086  -3.411  -0.085  0.00  0.00    -0.650 OA
INPUT-LIGAND-PDBQT: BRANCH  32  34
INPUT-LIGAND-PDBQT: ATOM     34  O   UNL d   1      -6.141  -3.312  -2.297  0.00  0.00    -0.776 OA
INPUT-LIGAND-PDBQT: ATOM     35  H   UNL d   1      -7.088  -3.510  -2.286  0.00  0.00     0.167 HD
INPUT-LIGAND-PDBQT: ENDBRANCH  32  34
INPUT-LIGAND-PDBQT: ENDBRANCH  31  32
INPUT-LIGAND-PDBQT: ENDBRANCH  30  31
INPUT-LIGAND-PDBQT: ENDBRANCH   6  30
INPUT-LIGAND-PDBQT: BRANCH  22  36
INPUT-LIGAND-PDBQT: ATOM     36  C   UNL d   1      -3.720   2.522   1.101  0.00  0.00     0.052 C 
INPUT-LIGAND-PDBQT: BRANCH  36  37
INPUT-LIGAND-PDBQT: ATOM     37  C   UNL d   1      -4.581   2.559  -0.153  0.00  0.00     0.115 C 
INPUT-LIGAND-PDBQT: BRANCH  37  38
INPUT-LIGAND-PDBQT: ATOM     38  C   UNL d   1      -6.035   2.706   0.196  0.00  0.00     0.139 C 
INPUT-LIGAND-PDBQT: ATOM     39  O   UNL d   1      -6.394   2.778   1.362  0.00  0.00    -0.650 OA
INPUT-LIGAND-PDBQT: BRANCH  38  40
INPUT-LIGAND-PDBQT: ATOM     40  O   UNL d   1      -6.958   2.756  -0.781  0.00  0.00    -0.776 OA
INPUT-LIGAND-PDBQT: ATOM     41  H   UNL d   1      -7.891   2.847  -0.542  0.00  0.00     0.167 HD
INPUT-LIGAND-PDBQT: ENDBRANCH  38  40
INPUT-LIGAND-PDBQT: ENDBRANCH  37  38
INPUT-LIGAND-PDBQT: ENDBRANCH  36  37
INPUT-LIGAND-PDBQT: ENDBRANCH  22  36
INPUT-LIGAND-PDBQT: BRANCH  12  42
INPUT-LIGAND-PDBQT: ATOM     42  C   UNL d   1       6.314  -2.479   0.357  0.00  0.00     0.004 C 
INPUT-LIGAND-PDBQT: ATOM     43  C   UNL d   1       6.931  -3.422  -0.367  0.00  0.00     0.012 C 
INPUT-LIGAND-PDBQT: ENDBRANCH  12  42
INPUT-LIGAND-PDBQT: BRANCH  17  44
INPUT-LIGAND-PDBQT: ATOM     44  C   UNL d   1       3.653   4.974  -0.677  0.00  0.00     0.004 C 
INPUT-LIGAND-PDBQT: ATOM     45  C   UNL d   1       4.222   5.409  -1.806  0.00  0.00     0.012 C 
INPUT-LIGAND-PDBQT: ENDBRANCH  17  44
INPUT-LIGAND-PDBQT: TORSDOF 10
________________________________________________________________________________

Total charge on ligand                               =	-2.002 e
REMARK  10 active torsions:
REMARK  status: ('A' for Active; 'I' for Inactive)
REMARK    1  A    between atoms: C_6  and  C_10 
REMARK    2  A    between atoms: C_10  and  C_11 
REMARK    3  A    between atoms: C_11  and  C_12 
REMARK    4  A    between atoms: C_12  and  O_14 
REMARK    5  A    between atoms: C_17  and  C_20 
REMARK    6  A    between atoms: C_24  and  C_27 
REMARK    7  A    between atoms: C_31  and  C_34 
REMARK    8  A    between atoms: C_34  and  C_35 
REMARK    9  A    between atoms: C_35  and  C_36 
REMARK   10  A    between atoms: C_36  and  O_38 


Number of Rotatable Bonds in Small Molecule =	10 torsions
Number of atoms in ligand:  45

Number of non-hydrogen atoms in ligand:  43

Number of vibrational degrees of freedom of ligand:  129


Number of torsional degrees of freedom = 10
Estimated loss of torsional free energy upon binding = +2.9830 kcal/mol


DPF> about -0.174 -0.001 -0.047            # small molecule center

Small molecule center of rotation =	(-0.174, -0.001, -0.047)

DPF> tran0 random                         # initial coordinates/A or random

Initial translation =			(-14.163, -17.495, 1.540) Angstroms
DPF> quaternion0 random                   # initial orientation

Each run will begin with a new, random initial orientation.
Initial quaternion,  (x,y,z,w) =	( 0.136, -0.284, -0.859, 0.405 ),
DPF> dihe0 random                         # initial dihedrals (relative) or random

DPF> torsdof 10                            # torsional degrees of freedom

Number of torsional degrees of freedom = 10
Free energy coefficient for torsional degrees of freedom = 0.2983, the factory default value.

Estimated loss of torsional free energy upon binding = +2.9830 kcal/mol

DPF> rmstol 2.0                           # cluster_tolerance/A

Maximum RMS tolerance for conformational cluster analysis = 2.00 Angstroms
DPF> extnrg 1000.0                        # external grid energy

External grid energy (beyond grid map walls) = 1000.00

DPF> e0max 0.0 10000                      # max initial energy; max number of retries

Using user-specified maximum number of retries for simanneal initialization, 10000 retries.
If the simanneal initial energy is greater than e0max, 0.000,
then a new, random initial state will be created.

DPF> ga_pop_size 150                      # number of individuals in population

A population of 150 individuals will be used
DPF> ga_num_evals 25000000                # maximum number of energy evaluations

There will be at most 25000000 function evaluations used.
DPF> ga_num_generations 27000             # maximum number of generations

The GA will run for at most 27000 generations.
DPF> ga_elitism 1                         # number of top individuals to survive to next generation

The 1 best will be preserved each GA generation.
DPF> ga_mutation_rate 0.02                # rate of gene mutation

The mutation rate is 0.020000.
DPF> ga_crossover_rate 0.8                # rate of crossover

The crossover rate is 0.800000.
DPF> ga_window_size 10                    # 

The GA's selection window is 10 generations.
DPF> ga_cauchy_alpha 0.0                  # Alpha parameter of Cauchy distribution

The alpha parameter (for the Cauchy distribution) is being set to 0.000000.
DPF> ga_cauchy_beta 1.0                   # Beta parameter Cauchy distribution

The beta parameter (for the Cauchy distribution) is being set to 1.000000.
DPF> set_ga                               # set the above parameters for GA or LGA

DPF> sw_max_its 300                       # iterations of Solis & Wets local search

Solis & Wets algorithms will perform at most 300 iterations.
DPF> sw_max_succ 4                        # consecutive successes before changing rho

Solis & Wets algorithms expand rho every 4 in a row successes.
DPF> sw_max_fail 4                        # consecutive failures before changing rho

Solis & Wets algorithms contract rho every 4 in a row failures.
DPF> sw_rho 1.0                           # size of local search space to sample

rho is set to 1.000000.
DPF> sw_lb_rho 0.01                       # lower bound on rho

rho will never get smaller than 0.010000.
DPF> ls_search_freq 0.06                  # probability of performing local search on individual

Local search will be performed with frequency 0.060000.
DPF> set_psw1                             # set the above pseudo-Solis & Wets parameters

Creating a new Local Search object using the pseudo-Solis-Wets algorithm (pSW1) with the current settings.

DPF> unbound_model bound                  # state of unbound ligand

DPF> ga_run 100                           # do this many hybrid GA-LS runs

centering ligand on specified point: -0.174 -0.001 -0.047
Furthest true ligand atom from "about" center is 8.241 Angstroms (maxrad).
Number of requested GA dockings = 100 runs
Unbound model to be used is 'same as bound' [AutoDock 4.2 default].

	BEGINNING GENETIC ALGORITHM DOCKING 1 of 100
Run: 1 Seed: 1487805848 5883750 [ Run 1 of 100 GA/GALS ]
Beginning LAMARCKIAN GENETIC ALGORITHM (LGA), with a maximum of 25000000 energy evaluations.

Final-Value: -11.991


	FINAL GENETIC ALGORITHM DOCKED STATE
	_______________________________________________


Detailed state:  trans 11.679 -7.883 6.581 quatxyzw 0.243836 0.712772 -0.288517 -0.590981 center -0.174 -0.001 -0.047 ntor 10 -176.8208 146.1472 72.9912 23.4106 93.0096 58.7575 31.3321 -140.2571 146.4033 -37.2986
State:	 11.679  -7.883   6.581   0.302  0.884 -0.358 -107.547   -176.82  146.15   72.99   23.41   93.01   58.76   31.33 -140.26  146.40  -37.30

DOCKED: MODEL        1
DOCKED: USER    Run = 1
DOCKED: USER    DPF = D:/Protein_go_brrr/autodock/final/mut_N102T/heme_Fe/dock.dpf
DOCKED: USER  
DOCKED: USER    Estimated Free Energy of Binding    =   -8.43 kcal/mol  [=(1)+(2)+(3)-(4)]
DOCKED: USER    Estimated Inhibition Constant, Ki   =  660.92 nM (nanomolar)  [Temperature = 298.15 K]
DOCKED: USER    
DOCKED: USER    (1) Final Intermolecular Energy     =  -11.41 kcal/mol
DOCKED: USER        vdW + Hbond + desolv Energy     =   -8.07 kcal/mol
DOCKED: USER        Electrostatic Energy            =   -3.34 kcal/mol
DOCKED: USER    (2) Final Total Internal Energy     =   -0.58 kcal/mol
DOCKED: USER    (3) Torsional Free Energy           =   +2.98 kcal/mol
DOCKED: USER    (4) Unbound System's Energy  [=(2)] =   -0.58 kcal/mol
DOCKED: USER    
DOCKED: USER    
DOCKED: USER    NEWDPF move heme_Fe_opt.pdbqt
DOCKED: USER    NEWDPF about -0.174000 -0.001000 -0.047000
DOCKED: USER    NEWDPF tran0 11.678903 -7.883484 6.581196
DOCKED: USER    NEWDPF quaternion0 0.243836 0.712772 -0.288517 -0.590981
DOCKED: USER    NEWDPF axisangle0 0.302269 0.883581 -0.357657 -107.546724
DOCKED: USER    NEWDPF quat0 0.302269 0.883581 -0.357657 -107.546724
DOCKED: USER    NEWDPF dihe0 -176.82 146.15 72.99 23.41 93.01 58.76 31.33 -140.26 146.40 -37.30 
DOCKED: USER  keepresnum = 1 
DOCKED: USER  
DOCKED: REMARK  10 active torsions:
DOCKED: REMARK  status: ('A' for Active; 'I' for Inactive)
DOCKED: REMARK    1  A    between atoms: C_6  and  C_10 
DOCKED: REMARK    2  A    between atoms: C_10  and  C_11 
DOCKED: REMARK    3  A    between atoms: C_11  and  C_12 
DOCKED: REMARK    4  A    between atoms: C_12  and  O_14 
DOCKED: REMARK    5  A    between atoms: C_17  and  C_20 
DOCKED: REMARK    6  A    between atoms: C_24  and  C_27 
DOCKED: REMARK    7  A    between atoms: C_31  and  C_34 
DOCKED: REMARK    8  A    between atoms: C_34  and  C_35 
DOCKED: REMARK    9  A    between atoms: C_35  and  C_36 
DOCKED: REMARK   10  A    between atoms: C_36  and  O_38 
DOCKED: USER                              x       y       z     vdW  Elec       q    Type
DOCKED: USER                           _______ _______ _______ _____ _____    ______ ____
DOCKED: ROOT
DOCKED: ATOM      1  C   UNL d   1      12.373  -8.311   8.464 -0.10 +0.04    +0.064 C 
DOCKED: ATOM      2  C   UNL d   1       9.281 -10.527   5.309 -0.29 +0.01    +0.064 A 
DOCKED: ATOM      3  C   UNL d   1      10.933  -7.689   1.804 -0.22 -0.02    +0.064 C 
DOCKED: ATOM      4  C   UNL d   1      13.857  -5.459   4.863 -0.11 +0.03    +0.064 C 
DOCKED: ATOM      5  C   UNL d   1      11.290  -9.141   7.919 -0.12 +0.03    +0.066 A 
DOCKED: ATOM      6  C   UNL d   1      10.504 -10.004   8.665 -0.13 -0.01    -0.021 A 
DOCKED: ATOM      7  C   UNL d   1       9.648 -10.622   7.787 -0.29 -0.01    -0.025 A 
DOCKED: ATOM      8  C   UNL d   1       9.945 -10.111   6.538 -0.26 +0.01    +0.066 A 
DOCKED: ATOM      9  C   UNL d   1       8.597 -11.629   8.140 -0.18 +0.00    +0.051 C 
DOCKED: ATOM     10  C   UNL d   1       9.508 -10.009   4.101 -0.25 +0.00    +0.066 A 
DOCKED: ATOM     11  C   UNL d   1       8.939 -10.507   2.926 -0.35 +0.00    -0.021 A 
DOCKED: ATOM     12  C   UNL d   1       9.413  -9.716   1.898 -0.30 -0.00    +0.000 A 
DOCKED: ATOM     13  C   UNL d   1      10.261  -8.772   2.505 -0.18 -0.01    +0.070 A 
DOCKED: ATOM     14  C   UNL d   1       8.043 -11.720   2.780 -0.49 +0.00    +0.052 C 
DOCKED: ATOM     15  C   UNL d   1      11.790  -6.810   2.375 -0.15 -0.01    +0.066 A 
DOCKED: ATOM     16  C   UNL d   1      12.333  -5.729   1.694 -0.23 +0.01    -0.021 A 
DOCKED: ATOM     17  C   UNL d   1      13.180  -5.086   2.573 -0.17 +0.00    +0.000 A 
DOCKED: ATOM     18  C   UNL d   1      13.136  -5.795   3.772 -0.11 +0.02    +0.070 A 
DOCKED: ATOM     19  C   UNL d   1      12.088  -5.327   0.264 -0.28 -0.04    +0.052 C 
DOCKED: ATOM     20  C   UNL d   1      13.791  -6.144   6.160 -0.05 +0.05    +0.066 A 
DOCKED: ATOM     21  C   UNL d   1      14.671  -5.937   7.232 -0.08 -0.02    -0.025 A 
DOCKED: ATOM     22  C   UNL d   1      14.221  -6.750   8.252 -0.07 -0.01    -0.021 A 
DOCKED: ATOM     23  C   UNL d   1      13.095  -7.423   7.763 -0.07 +0.05    +0.066 A 
DOCKED: ATOM     24  C   UNL d   1      15.875  -5.028   7.301 -0.05 +0.02    +0.051 C 
DOCKED: ATOM     25  N   UNL d   1      10.937  -9.203   6.624 -0.08 -0.08    -0.248 N 
DOCKED: ATOM     26  N   UNL d   1      10.326  -8.956   3.846 -0.10 -0.01    -0.248 N 
DOCKED: ATOM     27  N   UNL d   1      12.249  -6.829   3.665 -0.06 -0.03    -0.248 N 
DOCKED: ATOM     28  N   UNL d   1      12.864  -7.082   6.471 -0.07 -0.19    -0.248 N 
DOCKED: ATOM     29 FE   UNL d   1      11.596  -8.018   5.158 -0.03 +0.00    +0.000 Fe
DOCKED: ENDROOT
DOCKED: BRANCH   6  30
DOCKED: ATOM     30  C   UNL d   1      10.548 -10.218  10.139 -0.11 +0.02    +0.052 C 
DOCKED: BRANCH  30  31
DOCKED: ATOM     31  C   UNL d   1      10.770 -11.691  10.465 -0.16 +0.04    +0.115 C 
DOCKED: BRANCH  31  32
DOCKED: ATOM     32  C   UNL d   1      10.092 -12.051  11.759 -0.20 +0.12    +0.139 C 
DOCKED: ATOM     33  O   UNL d   1       8.954 -12.499  11.762 -0.38 -0.60    -0.650 OA
DOCKED: BRANCH  32  34
DOCKED: ATOM     34  O   UNL d   1      10.735 -11.882  12.927 -0.41 -1.05    -0.776 OA
DOCKED: ATOM     35  H   UNL d   1      11.617 -11.485  12.924 +0.02 +0.13    +0.167 HD
DOCKED: ENDBRANCH  32  34
DOCKED: ENDBRANCH  31  32
DOCKED: ENDBRANCH  30  31
DOCKED: ENDBRANCH   6  30
DOCKED: BRANCH  22  36
DOCKED: ATOM     36  C   UNL d   1      14.869  -6.907   9.602 -0.03 +0.02    +0.052 C 
DOCKED: BRANCH  36  37
DOCKED: ATOM     37  C   UNL d   1      14.911  -5.561  10.310 -0.03 +0.06    +0.115 C 
DOCKED: BRANCH  37  38
DOCKED: ATOM     38  C   UNL d   1      13.651  -4.782  10.063 +0.08 +0.17    +0.139 C 
DOCKED: ATOM     39  O   UNL d   1      12.562  -5.238  10.380 +0.02 -0.97    -0.650 OA
DOCKED: BRANCH  38  40
DOCKED: ATOM     40  O   UNL d   1      13.713  -3.571   9.482 -0.47 -1.24    -0.776 OA
DOCKED: ATOM     41  H   UNL d   1      14.473  -3.000   9.665 +0.01 +0.13    +0.167 HD
DOCKED: ENDBRANCH  38  40
DOCKED: ENDBRANCH  37  38
DOCKED: ENDBRANCH  36  37
DOCKED: ENDBRANCH  22  36
DOCKED: BRANCH  12  42
DOCKED: ATOM     42  C   UNL d   1       9.072  -9.894   0.453 -0.46 -0.00    +0.004 C 
DOCKED: ATOM     43  C   UNL d   1       8.482  -8.912  -0.242 -0.58 -0.01    +0.012 C 
DOCKED: ENDBRANCH  12  42
DOCKED: BRANCH  17  44
DOCKED: ATOM     44  C   UNL d   1      13.964  -3.862   2.291 -0.19 +0.00    +0.004 C 
DOCKED: ATOM     45  C   UNL d   1      13.379  -2.660   2.286 -0.32 +0.00    +0.012 C 
DOCKED: ENDBRANCH  17  44
DOCKED: TORSDOF 10
DOCKED: TER
DOCKED: ENDMDL
________________________________________________________________________________


	BEGINNING GENETIC ALGORITHM DOCKING 2 of 100
Run: 2 Seed: 482908905 422990417 [ Run 2 of 100 GA/GALS ]
Beginning LAMARCKIAN GENETIC ALGORITHM (LGA), with a maximum of 25000000 energy evaluations.

Final-Value: -11.108


	FINAL GENETIC ALGORITHM DOCKED STATE
	_______________________________________________


Detailed state:  trans 11.972 -7.970 6.804 quatxyzw -0.200076 -0.746416 0.264229 0.577075 center -0.174 -0.001 -0.047 ntor 10 147.3117 148.0011 64.0270 -7.1794 -83.2452 62.0876 -29.7229 -147.7244 51.1143 -34.0260
State:	 11.972  -7.970   6.804  -0.245 -0.914  0.324 109.510    147.31  148.00   64.03   -7.18  -83.25   62.09  -29.72 -147.72   51.11  -34.03

DOCKED: MODEL        2
DOCKED: USER    Run = 2
DOCKED: USER    DPF = D:/Protein_go_brrr/autodock/final/mut_N102T/heme_Fe/dock.dpf
DOCKED: USER  
DOCKED: USER    Estimated Free Energy of Binding    =   -7.83 kcal/mol  [=(1)+(2)+(3)-(4)]
DOCKED: USER    Estimated Inhibition Constant, Ki   =    1.83 uM (micromolar)  [Temperature = 298.15 K]
DOCKED: USER    
DOCKED: USER    (1) Final Intermolecular Energy     =  -10.81 kcal/mol
DOCKED: USER        vdW + Hbond + desolv Energy     =   -7.52 kcal/mol
DOCKED: USER        Electrostatic Energy            =   -3.29 kcal/mol
DOCKED: USER    (2) Final Total Internal Energy     =   -0.30 kcal/mol
DOCKED: USER    (3) Torsional Free Energy           =   +2.98 kcal/mol
DOCKED: USER    (4) Unbound System's Energy  [=(2)] =   -0.30 kcal/mol
DOCKED: USER    
DOCKED: USER    
DOCKED: USER    NEWDPF move heme_Fe_opt.pdbqt
DOCKED: USER    NEWDPF about -0.174000 -0.001000 -0.047000
DOCKED: USER    NEWDPF tran0 11.971949 -7.970015 6.803519
DOCKED: USER    NEWDPF quaternion0 -0.200076 -0.746416 0.264229 0.577075
DOCKED: USER    NEWDPF axisangle0 -0.244984 -0.913951 0.323536 109.509808
DOCKED: USER    NEWDPF quat0 -0.244984 -0.913951 0.323536 109.509808
DOCKED: USER    NEWDPF dihe0 147.31 148.00 64.03 -7.18 -83.25 62.09 -29.72 -147.72 51.11 -34.03 
DOCKED: USER  keepresnum = 1 
DOCKED: USER  
DOCKED: REMARK  10 active torsions:
DOCKED: REMARK  status: ('A' for Active; 'I' for Inactive)
DOCKED: REMARK    1  A    between atoms: C_6  and  C_10 
DOCKED: REMARK    2  A    between atoms: C_10  and  C_11 
DOCKED: REMARK    3  A    between atoms: C_11  and  C_12 
DOCKED: REMARK    4  A    between atoms: C_12  and  O_14 
DOCKED: REMARK    5  A    between atoms: C_17  and  C_20 
DOCKED: REMARK    6  A    between atoms: C_24  and  C_27 
DOCKED: REMARK    7  A    between atoms: C_31  and  C_34 
DOCKED: REMARK    8  A    between atoms: C_34  and  C_35 
DOCKED: REMARK    9  A    between atoms: C_35  and  C_36 
DOCKED: REMARK   10  A    between atoms: C_36  and  O_38 
DOCKED: USER                              x       y       z     vdW  Elec       q    Type
DOCKED: USER                           _______ _______ _______ _____ _____    ______ ____
DOCKED: ROOT
DOCKED: ATOM      1  C   UNL d   1      12.841  -8.336   8.626 -0.07 +0.03    +0.064 C 
DOCKED: ATOM      2  C   UNL d   1       9.760 -10.832   5.675 -0.29 +0.01    +0.064 A 
DOCKED: ATOM      3  C   UNL d   1      10.862  -7.825   2.096 -0.21 -0.02    +0.064 C 
DOCKED: ATOM      4  C   UNL d   1      13.768  -5.332   4.964 -0.07 +0.03    +0.064 C 
DOCKED: ATOM      5  C   UNL d   1      11.809  -9.267   8.150 -0.09 +0.03    +0.066 A 
DOCKED: ATOM      6  C   UNL d   1      11.169 -10.209   8.940 -0.13 -0.01    -0.021 A 
DOCKED: ATOM      7  C   UNL d   1      10.316 -10.904   8.118 -0.23 -0.01    -0.025 A 
DOCKED: ATOM      8  C   UNL d   1      10.468 -10.359   6.858 -0.20 +0.01    +0.066 A 
DOCKED: ATOM      9  C   UNL d   1       9.398 -12.013   8.534 -0.21 +0.01    +0.051 C 
DOCKED: ATOM     10  C   UNL d   1       9.846 -10.288   4.460 -0.25 +0.01    +0.066 A 
DOCKED: ATOM     11  C   UNL d   1       9.245 -10.833   3.323 -0.34 -0.00    -0.021 A 
DOCKED: ATOM     12  C   UNL d   1       9.562  -9.993   2.274 -0.27 -0.00    +0.000 A 
DOCKED: ATOM     13  C   UNL d   1      10.354  -8.974   2.829 -0.16 -0.01    +0.070 A 
DOCKED: ATOM     14  C   UNL d   1       8.465 -12.128   3.227 -0.40 +0.00    +0.052 C 
DOCKED: ATOM     15  C   UNL d   1      11.668  -6.868   2.615 -0.15 -0.01    +0.066 A 
DOCKED: ATOM     16  C   UNL d   1      12.050  -5.734   1.909 -0.25 +0.00    -0.021 A 
DOCKED: ATOM     17  C   UNL d   1      12.891  -5.015   2.733 -0.20 +0.00    +0.000 A 
DOCKED: ATOM     18  C   UNL d   1      13.006  -5.731   3.923 -0.12 +0.02    +0.070 A 
DOCKED: ATOM     19  C   UNL d   1      11.662  -5.351   0.506 -0.20 -0.03    +0.052 C 
DOCKED: ATOM     20  C   UNL d   1      13.865  -6.027   6.253 -0.05 +0.05    +0.066 A 
DOCKED: ATOM     21  C   UNL d   1      14.796  -5.739   7.260 -0.08 -0.02    -0.025 A 
DOCKED: ATOM     22  C   UNL d   1      14.505  -6.598   8.300 -0.06 -0.01    -0.021 A 
DOCKED: ATOM     23  C   UNL d   1      13.418  -7.377   7.885 -0.07 +0.05    +0.066 A 
DOCKED: ATOM     24  C   UNL d   1      15.907  -4.714   7.254 -0.06 +0.02    +0.051 C 
DOCKED: ATOM     25  N   UNL d   1      11.370  -9.357   6.883 -0.06 -0.08    -0.248 N 
DOCKED: ATOM     26  N   UNL d   1      10.535  -9.157   4.160 -0.09 -0.02    -0.248 N 
DOCKED: ATOM     27  N   UNL d   1      12.219  -6.848   3.867 -0.06 -0.05    -0.248 N 
DOCKED: ATOM     28  N   UNL d   1      13.061  -7.054   6.618 -0.07 -0.19    -0.248 N 
DOCKED: ATOM     29 FE   UNL d   1      11.799  -8.104   5.389 -0.02 +0.00    +0.000 Fe
DOCKED: ENDROOT
DOCKED: BRANCH   6  30
DOCKED: ATOM     30  C   UNL d   1      11.341 -10.425  10.404 -0.13 +0.02    +0.052 C 
DOCKED: BRANCH  30  31
DOCKED: ATOM     31  C   UNL d   1      10.002 -10.725  11.068 +0.13 +0.05    +0.115 C 
DOCKED: BRANCH  31  32
DOCKED: ATOM     32  C   UNL d   1      10.196 -11.609  12.269 -0.14 +0.14    +0.139 C 
DOCKED: ATOM     33  O   UNL d   1      10.286 -12.822  12.142 -0.52 -0.78    -0.650 OA
DOCKED: BRANCH  32  34
DOCKED: ATOM     34  O   UNL d   1      10.271 -11.070  13.497 -0.25 -1.02    -0.776 OA
DOCKED: ATOM     35  H   UNL d   1      10.667 -10.194  13.602 +0.03 +0.12    +0.167 HD
DOCKED: ENDBRANCH  32  34
DOCKED: ENDBRANCH  31  32
DOCKED: ENDBRANCH  30  31
DOCKED: ENDBRANCH   6  30
DOCKED: BRANCH  22  36
DOCKED: ATOM     36  C   UNL d   1      15.263  -6.697   9.598 -0.02 +0.02    +0.052 C 
DOCKED: BRANCH  36  37
DOCKED: ATOM     37  C   UNL d   1      15.155  -5.382  10.356 -0.02 +0.05    +0.115 C 
DOCKED: BRANCH  37  38
DOCKED: ATOM     38  C   UNL d   1      13.843  -4.705  10.077 -0.03 +0.15    +0.139 C 
DOCKED: ATOM     39  O   UNL d   1      12.787  -5.240  10.381 -0.02 -0.90    -0.650 OA
DOCKED: BRANCH  38  40
DOCKED: ATOM     40  O   UNL d   1      13.824  -3.499   9.483 -0.54 -1.11    -0.776 OA
DOCKED: ATOM     41  H   UNL d   1      14.548  -2.880   9.652 +0.01 +0.12    +0.167 HD
DOCKED: ENDBRANCH  38  40
DOCKED: ENDBRANCH  37  38
DOCKED: ENDBRANCH  36  37
DOCKED: ENDBRANCH  22  36
DOCKED: BRANCH  12  42
DOCKED: ATOM     42  C   UNL d   1       9.134 -10.197   0.855 -0.41 -0.00    +0.004 C 
DOCKED: ATOM     43  C   UNL d   1       8.258  -9.367   0.273 -0.57 -0.00    +0.012 C 
DOCKED: ENDBRANCH  12  42
DOCKED: BRANCH  17  44
DOCKED: ATOM     44  C   UNL d   1      13.527  -3.718   2.411 -0.25 +0.00    +0.004 C 
DOCKED: ATOM     45  C   UNL d   1      12.816  -2.721   1.874 -0.35 +0.00    +0.012 C 
DOCKED: ENDBRANCH  17  44
DOCKED: TORSDOF 10
DOCKED: TER
DOCKED: ENDMDL
________________________________________________________________________________


	BEGINNING GENETIC ALGORITHM DOCKING 3 of 100
Run: 3 Seed: 1145887816 920779689 [ Run 3 of 100 GA/GALS ]
Beginning LAMARCKIAN GENETIC ALGORITHM (LGA), with a maximum of 25000000 energy evaluations.

Final-Value: -16.761


	FINAL GENETIC ALGORITHM DOCKED STATE
	_______________________________________________


Detailed state:  trans 6.190 -3.705 7.155 quatxyzw 0.251705 0.574126 -0.777458 -0.050819 center -0.174 -0.001 -0.047 ntor 10 -92.5088 19.4251 80.9367 -122.5489 125.7725 -63.2397 74.9290 66.3453 0.2927 136.6301
State:	  6.190  -3.705   7.155   0.252  0.575 -0.778 -174.174    -92.51   19.43   80.94 -122.55  125.77  -63.24   74.93   66.35    0.29  136.63

DOCKED: MODEL        3
DOCKED: USER    Run = 3
DOCKED: USER    DPF = D:/Protein_go_brrr/autodock/final/mut_N102T/heme_Fe/dock.dpf
DOCKED: USER  
DOCKED: USER    Estimated Free Energy of Binding    =  -11.65 kcal/mol  [=(1)+(2)+(3)-(4)]
DOCKED: USER    Estimated Inhibition Constant, Ki   =    2.89 nM (nanomolar)  [Temperature = 298.15 K]
DOCKED: USER    
DOCKED: USER    (1) Final Intermolecular Energy     =  -14.63 kcal/mol
DOCKED: USER        vdW + Hbond + desolv Energy     =  -11.66 kcal/mol
DOCKED: USER        Electrostatic Energy            =   -2.97 kcal/mol
DOCKED: USER    (2) Final Total Internal Energy     =   -2.13 kcal/mol
DOCKED: USER    (3) Torsional Free Energy           =   +2.98 kcal/mol
DOCKED: USER    (4) Unbound System's Energy  [=(2)] =   -2.13 kcal/mol
DOCKED: USER    
DOCKED: USER    
DOCKED: USER    NEWDPF move heme_Fe_opt.pdbqt
DOCKED: USER    NEWDPF about -0.174000 -0.001000 -0.047000
DOCKED: USER    NEWDPF tran0 6.189584 -3.705189 7.154751
DOCKED: USER    NEWDPF quaternion0 0.251705 0.574126 -0.777458 -0.050819
DOCKED: USER    NEWDPF axisangle0 0.252031 0.574868 -0.778464 -174.174103
DOCKED: USER    NEWDPF quat0 0.252031 0.574868 -0.778464 -174.174103
DOCKED: USER    NEWDPF dihe0 -92.51 19.43 80.94 -122.55 125.77 -63.24 74.93 66.35 0.29 136.63 
DOCKED: USER  keepresnum = 1 
DOCKED: USER  
DOCKED: REMARK  10 active torsions:
DOCKED: REMARK  status: ('A' for Active; 'I' for Inactive)
DOCKED: REMARK    1  A    between atoms: C_6  and  C_10 
DOCKED: REMARK    2  A    between atoms: C_10  and  C_11 
DOCKED: REMARK    3  A    between atoms: C_11  and  C_12 
DOCKED: REMARK    4  A    between atoms: C_12  and  O_14 
DOCKED: REMARK    5  A    between atoms: C_17  and  C_20 
DOCKED: REMARK    6  A    between atoms: C_24  and  C_27 
DOCKED: REMARK    7  A    between atoms: C_31  and  C_34 
DOCKED: REMARK    8  A    between atoms: C_34  and  C_35 
DOCKED: REMARK    9  A    between atoms: C_35  and  C_36 
DOCKED: REMARK   10  A    between atoms: C_36  and  O_38 
DOCKED: USER                              x       y       z     vdW  Elec       q    Type
DOCKED: USER                           _______ _______ _______ _____ _____    ______ ____
DOCKED: ROOT
DOCKED: ATOM      1  C   UNL d   1       7.710  -4.590   8.211 -0.39 +0.04    +0.064 C 
DOCKED: ATOM      2  C   UNL d   1       3.381  -2.529   9.410 -0.43 +0.01    +0.064 A 
DOCKED: ATOM      3  C   UNL d   1       2.076  -2.748   4.793 -0.45 +0.00    +0.064 C 
DOCKED: ATOM      4  C   UNL d   1       6.301  -4.646   3.594 -0.33 +0.01    +0.064 C 
DOCKED: ATOM      5  C   UNL d   1       6.646  -3.913   8.964 -0.08 +0.02    +0.066 A 
DOCKED: ATOM      6  C   UNL d   1       6.718  -3.574  10.305 -0.20 -0.01    -0.021 A 
DOCKED: ATOM      7  C   UNL d   1       5.514  -3.005  10.638 -0.29 -0.00    -0.025 A 
DOCKED: ATOM      8  C   UNL d   1       4.752  -3.018   9.486 -0.31 +0.01    +0.066 A 
DOCKED: ATOM      9  C   UNL d   1       5.134  -2.466  11.983 -0.40 +0.00    +0.051 C 
DOCKED: ATOM     10  C   UNL d   1       2.644  -2.477   8.299 -0.39 +0.01    +0.066 A 
DOCKED: ATOM     11  C   UNL d   1       1.296  -2.111   8.279 -0.49 -0.00    -0.021 A 
DOCKED: ATOM     12  C   UNL d   1       0.892  -2.182   6.961 -0.51 +0.00    +0.000 A 
DOCKED: ATOM     13  C   UNL d   1       2.023  -2.600   6.239 -0.40 +0.01    +0.070 A 
DOCKED: ATOM     14  C   UNL d   1       0.418  -1.775   9.467 -0.52 +0.00    +0.052 C 
DOCKED: ATOM     15  C   UNL d   1       3.147  -3.200   4.098 -0.39 +0.00    +0.066 A 
DOCKED: ATOM     16  C   UNL d   1       3.193  -3.232   2.710 -0.23 -0.00    -0.021 A 
DOCKED: ATOM     17  C   UNL d   1       4.409  -3.782   2.362 -0.41 +0.00    +0.000 A 
DOCKED: ATOM     18  C   UNL d   1       5.076  -4.078   3.549 -0.43 +0.00    +0.070 A 
DOCKED: ATOM     19  C   UNL d   1       2.126  -2.787   1.746 -0.40 +0.00    +0.052 C 
DOCKED: ATOM     20  C   UNL d   1       7.059  -4.915   4.822 -0.33 +0.01    +0.066 A 
DOCKED: ATOM     21  C   UNL d   1       8.232  -5.680   4.898 -0.02 -0.01    -0.025 A 
DOCKED: ATOM     22  C   UNL d   1       8.623  -5.640   6.221 -0.08 -0.01    -0.021 A 
DOCKED: ATOM     23  C   UNL d   1       7.676  -4.862   6.897 -0.35 +0.04    +0.066 A 
DOCKED: ATOM     24  C   UNL d   1       8.952  -6.416   3.792 -0.26 +0.01    +0.051 C 
DOCKED: ATOM     25  N   UNL d   1       5.447  -3.562   8.467 -0.18 -0.08    -0.248 N 
DOCKED: ATOM     26  N   UNL d   1       3.089  -2.789   7.055 -0.10 -0.07    -0.248 N 
DOCKED: ATOM     27  N   UNL d   1       4.320  -3.680   4.616 -0.27 -0.02    -0.248 N 
DOCKED: ATOM     28  N   UNL d   1       6.700  -4.460   6.047 -0.27 -0.07    -0.248 N 
DOCKED: ATOM     29 FE   UNL d   1       4.895  -3.625   6.549 -0.09 +0.00    +0.000 Fe
DOCKED: ENDROOT
DOCKED: BRANCH   6  30
DOCKED: ATOM     30  C   UNL d   1       7.879  -3.761  11.221 -0.24 +0.02    +0.052 C 
DOCKED: BRANCH  30  31
DOCKED: ATOM     31  C   UNL d   1       8.793  -2.541  11.190 -0.16 +0.06    +0.115 C 
DOCKED: BRANCH  31  32
DOCKED: ATOM     32  C   UNL d   1      10.041  -2.838  10.407 -0.05 +0.18    +0.139 C 
DOCKED: ATOM     33  O   UNL d   1      10.377  -2.121   9.474 -0.39 -1.02    -0.650 OA
DOCKED: BRANCH  32  34
DOCKED: ATOM     34  O   UNL d   1      10.802  -3.898  10.726 -0.01 -1.21    -0.776 OA
DOCKED: ATOM     35  H   UNL d   1      10.596  -4.758  10.333 +0.03 +0.32    +0.167 HD
DOCKED: ENDBRANCH  32  34
DOCKED: ENDBRANCH  31  32
DOCKED: ENDBRANCH  30  31
DOCKED: ENDBRANCH   6  30
DOCKED: BRANCH  22  36
DOCKED: ATOM     36  C   UNL d   1       9.814  -6.351   6.807 +0.52 +0.06    +0.052 C 
DOCKED: BRANCH  36  37
DOCKED: ATOM     37  C   UNL d   1       9.374  -7.198   7.992 +0.07 +0.09    +0.115 C 
DOCKED: BRANCH  37  38
DOCKED: ATOM     38  C   UNL d   1       9.971  -6.685   9.272 +0.07 +0.17    +0.139 C 
DOCKED: ATOM     39  O   UNL d   1      11.181  -6.688   9.443 -0.36 -1.09    -0.650 OA
DOCKED: BRANCH  38  40
DOCKED: ATOM     40  O   UNL d   1       9.170  -6.220  10.248 +0.06 -0.61    -0.776 OA
DOCKED: ATOM     41  H   UNL d   1       9.545  -5.647  10.931 +0.04 +0.13    +0.167 HD
DOCKED: ENDBRANCH  38  40
DOCKED: ENDBRANCH  37  38
DOCKED: ENDBRANCH  36  37
DOCKED: ENDBRANCH  22  36
DOCKED: BRANCH  12  42
DOCKED: ATOM     42  C   UNL d   1      -0.489  -1.882   6.472 -0.43 +0.00    +0.004 C 
DOCKED: ATOM     43  C   UNL d   1      -0.692  -1.032   5.457 -0.52 +0.00    +0.012 C 
DOCKED: ENDBRANCH  12  42
DOCKED: BRANCH  17  44
DOCKED: ATOM     44  C   UNL d   1       4.908  -3.993   0.985 -0.55 -0.00    +0.004 C 
DOCKED: ATOM     45  C   UNL d   1       4.343  -4.901   0.183 -0.74 -0.00    +0.012 C 
DOCKED: ENDBRANCH  17  44
DOCKED: TORSDOF 10
DOCKED: TER
DOCKED: ENDMDL
________________________________________________________________________________


	BEGINNING GENETIC ALGORITHM DOCKING 4 of 100
Run: 4 Seed: 1934946724 1761223596 [ Run 4 of 100 GA/GALS ]
Beginning LAMARCKIAN GENETIC ALGORITHM (LGA), with a maximum of 25000000 energy evaluations.

Final-Value: -11.839


	FINAL GENETIC ALGORITHM DOCKED STATE
	_______________________________________________


Detailed state:  trans 11.635 -7.918 6.649 quatxyzw 0.248256 0.710028 -0.284667 -0.594302 center -0.174 -0.001 -0.047 ntor 10 179.9542 153.2054 70.6638 16.2144 87.1839 125.7013 29.5695 144.2365 149.0551 23.1773
State:	 11.635  -7.918   6.649   0.309  0.883 -0.354 -107.074    179.95  153.21   70.66   16.21   87.18  125.70   29.57  144.24  149.06   23.18

DOCKED: MODEL        4
DOCKED: USER    Run = 4
DOCKED: USER    DPF = D:/Protein_go_brrr/autodock/final/mut_N102T/heme_Fe/dock.dpf
DOCKED: USER  
DOCKED: USER    Estimated Free Energy of Binding    =   -8.21 kcal/mol  [=(1)+(2)+(3)-(4)]
DOCKED: USER    Estimated Inhibition Constant, Ki   =  959.61 nM (nanomolar)  [Temperature = 298.15 K]
DOCKED: USER    
DOCKED: USER    (1) Final Intermolecular Energy     =  -11.19 kcal/mol
DOCKED: USER        vdW + Hbond + desolv Energy     =   -7.76 kcal/mol
DOCKED: USER        Electrostatic Energy            =   -3.44 kcal/mol
DOCKED: USER    (2) Final Total Internal Energy     =   -0.65 kcal/mol
DOCKED: USER    (3) Torsional Free Energy           =   +2.98 kcal/mol
DOCKED: USER    (4) Unbound System's Energy  [=(2)] =   -0.65 kcal/mol
DOCKED: USER    
DOCKED: USER    
DOCKED: USER    NEWDPF move heme_Fe_opt.pdbqt
DOCKED: USER    NEWDPF about -0.174000 -0.001000 -0.047000
DOCKED: USER    NEWDPF tran0 11.635031 -7.917883 6.648949
DOCKED: USER    NEWDPF quaternion0 0.248256 0.710028 -0.284667 -0.594302
DOCKED: USER    NEWDPF axisangle0 0.308683 0.882853 -0.353957 -107.074263
DOCKED: USER    NEWDPF quat0 0.308683 0.882853 -0.353957 -107.074263
DOCKED: USER    NEWDPF dihe0 179.95 153.21 70.66 16.21 87.18 125.70 29.57 144.24 149.06 23.18 
DOCKED: USER  keepresnum = 1 
DOCKED: USER  
DOCKED: REMARK  10 active torsions:
DOCKED: REMARK  status: ('A' for Active; 'I' for Inactive)
DOCKED: REMARK    1  A    between atoms: C_6  and  C_10 
DOCKED: REMARK    2  A    between atoms: C_10  and  C_11 
DOCKED: REMARK    3  A    between atoms: C_11  and  C_12 
DOCKED: REMARK    4  A    between atoms: C_12  and  O_14 
DOCKED: REMARK    5  A    between atoms: C_17  and  C_20 
DOCKED: REMARK    6  A    between atoms: C_24  and  C_27 
DOCKED: REMARK    7  A    between atoms: C_31  and  C_34 
DOCKED: REMARK    8  A    between atoms: C_34  and  C_35 
DOCKED: REMARK    9  A    between atoms: C_35  and  C_36 
DOCKED: REMARK   10  A    between atoms: C_36  and  O_38 
DOCKED: USER                              x       y       z     vdW  Elec       q    Type
DOCKED: USER                           _______ _______ _______ _____ _____    ______ ____
DOCKED: ROOT
DOCKED: ATOM      1  C   UNL d   1      12.306  -8.360   8.537 -0.10 +0.04    +0.064 C 
DOCKED: ATOM      2  C   UNL d   1       9.250 -10.549   5.327 -0.29 +0.01    +0.064 A 
DOCKED: ATOM      3  C   UNL d   1      10.948  -7.687   1.865 -0.21 -0.02    +0.064 C 
DOCKED: ATOM      4  C   UNL d   1      13.837  -5.483   4.977 -0.10 +0.03    +0.064 C 
DOCKED: ATOM      5  C   UNL d   1      11.228  -9.185   7.973 -0.12 +0.03    +0.066 A 
DOCKED: ATOM      6  C   UNL d   1      10.432 -10.053   8.702 -0.13 -0.01    -0.021 A 
DOCKED: ATOM      7  C   UNL d   1       9.586 -10.663   7.809 -0.30 -0.01    -0.025 A 
DOCKED: ATOM      8  C   UNL d   1       9.899 -10.143   6.568 -0.27 +0.01    +0.066 A 
DOCKED: ATOM      9  C   UNL d   1       8.530 -11.672   8.142 -0.10 +0.00    +0.051 C 
DOCKED: ATOM     10  C   UNL d   1       9.492 -10.022   4.126 -0.26 +0.01    +0.066 A 
DOCKED: ATOM     11  C   UNL d   1       8.938 -10.510   2.940 -0.35 +0.00    -0.021 A 
DOCKED: ATOM     12  C   UNL d   1       9.426  -9.712   1.924 -0.30 -0.00    +0.000 A 
DOCKED: ATOM     13  C   UNL d   1      10.267  -8.775   2.549 -0.18 -0.01    +0.070 A 
DOCKED: ATOM     14  C   UNL d   1       8.042 -11.721   2.774 -0.49 +0.00    +0.052 C 
DOCKED: ATOM     15  C   UNL d   1      11.799  -6.813   2.453 -0.15 -0.01    +0.066 A 
DOCKED: ATOM     16  C   UNL d   1      12.353  -5.727   1.786 -0.22 +0.00    -0.021 A 
DOCKED: ATOM     17  C   UNL d   1      13.189  -5.093   2.681 -0.17 +0.00    +0.000 A 
DOCKED: ATOM     18  C   UNL d   1      13.130  -5.810   3.873 -0.11 +0.02    +0.070 A 
DOCKED: ATOM     19  C   UNL d   1      12.126  -5.315   0.357 -0.29 -0.03    +0.052 C 
DOCKED: ATOM     20  C   UNL d   1      13.754  -6.178   6.267 -0.04 +0.05    +0.066 A 
DOCKED: ATOM     21  C   UNL d   1      14.621  -5.980   7.351 -0.08 -0.02    -0.025 A 
DOCKED: ATOM     22  C   UNL d   1      14.158  -6.800   8.359 -0.06 -0.01    -0.021 A 
DOCKED: ATOM     23  C   UNL d   1      13.037  -7.468   7.851 -0.07 +0.05    +0.066 A 
DOCKED: ATOM     24  C   UNL d   1      15.825  -5.073   7.442 -0.05 +0.02    +0.051 C 
DOCKED: ATOM     25  N   UNL d   1      10.891  -9.237   6.672 -0.09 -0.08    -0.248 N 
DOCKED: ATOM     26  N   UNL d   1      10.315  -8.969   3.889 -0.10 -0.01    -0.248 N 
DOCKED: ATOM     27  N   UNL d   1      12.242  -6.842   3.748 -0.06 -0.04    -0.248 N 
DOCKED: ATOM     28  N   UNL d   1      12.822  -7.117   6.560 -0.07 -0.19    -0.248 N 
DOCKED: ATOM     29 FE   UNL d   1      11.570  -8.042   5.224 -0.03 +0.00    +0.000 Fe
DOCKED: ENDROOT
DOCKED: BRANCH   6  30
DOCKED: ATOM     30  C   UNL d   1      10.457 -10.278  10.175 -0.11 +0.02    +0.052 C 
DOCKED: BRANCH  30  31
DOCKED: ATOM     31  C   UNL d   1      10.738 -11.742  10.494 -0.16 +0.04    +0.115 C 
DOCKED: BRANCH  31  32
DOCKED: ATOM     32  C   UNL d   1      10.089 -12.132  11.792 -0.18 +0.12    +0.139 C 
DOCKED: ATOM     33  O   UNL d   1       8.930 -12.524  11.817 -0.38 -0.63    -0.650 OA
DOCKED: BRANCH  32  34
DOCKED: ATOM     34  O   UNL d   1      10.779 -12.052  12.942 -0.41 -1.11    -0.776 OA
DOCKED: ATOM     35  H   UNL d   1      11.695 -11.743  12.920 +0.02 +0.13    +0.167 HD
DOCKED: ENDBRANCH  32  34
DOCKED: ENDBRANCH  31  32
DOCKED: ENDBRANCH  30  31
DOCKED: ENDBRANCH   6  30
DOCKED: BRANCH  22  36
DOCKED: ATOM     36  C   UNL d   1      14.789  -6.968   9.716 -0.03 +0.02    +0.052 C 
DOCKED: BRANCH  36  37
DOCKED: ATOM     37  C   UNL d   1      13.794  -6.571  10.797 -0.04 +0.06    +0.115 C 
DOCKED: BRANCH  37  38
DOCKED: ATOM     38  C   UNL d   1      12.956  -5.405  10.356 +0.04 +0.18    +0.139 C 
DOCKED: ATOM     39  O   UNL d   1      11.736  -5.469  10.376 +0.10 -1.08    -0.650 OA
DOCKED: BRANCH  38  40
DOCKED: ATOM     40  O   UNL d   1      13.549  -4.275   9.930 -0.30 -1.14    -0.776 OA
DOCKED: ATOM     41  H   UNL d   1      14.432  -4.055  10.258 +0.01 +0.13    +0.167 HD
DOCKED: ENDBRANCH  38  40
DOCKED: ENDBRANCH  37  38
DOCKED: ENDBRANCH  36  37
DOCKED: ENDBRANCH  22  36
DOCKED: BRANCH  12  42
DOCKED: ATOM     42  C   UNL d   1       9.102  -9.879   0.474 -0.45 -0.00    +0.004 C 
DOCKED: ATOM     43  C   UNL d   1       8.481  -8.909  -0.210 -0.58 -0.01    +0.012 C 
DOCKED: ENDBRANCH  12  42
DOCKED: BRANCH  17  44
DOCKED: ATOM     44  C   UNL d   1      13.978  -3.868   2.418 -0.19 +0.00    +0.004 C 
DOCKED: ATOM     45  C   UNL d   1      13.375  -2.683   2.273 -0.32 +0.00    +0.012 C 
DOCKED: ENDBRANCH  17  44
DOCKED: TORSDOF 10
DOCKED: TER
DOCKED: ENDMDL
________________________________________________________________________________


	BEGINNING GENETIC ALGORITHM DOCKING 5 of 100
Run: 5 Seed: 743733016 807667262 [ Run 5 of 100 GA/GALS ]
Beginning LAMARCKIAN GENETIC ALGORITHM (LGA), with a maximum of 25000000 energy evaluations.

Final-Value: -9.853


	FINAL GENETIC ALGORITHM DOCKED STATE
	_______________________________________________


Detailed state:  trans -11.778 3.631 12.418 quatxyzw -0.191861 -0.687921 -0.022858 0.699594 center -0.174 -0.001 -0.047 ntor 10 14.5658 -96.1174 69.8137 -103.6769 -74.2350 13.1866 93.8091 71.0308 -176.5663 164.6343
State:	-11.778   3.631  12.418  -0.269 -0.963 -0.032 91.211     14.57  -96.12   69.81 -103.68  -74.23   13.19   93.81   71.03 -176.57  164.63

DOCKED: MODEL        5
DOCKED: USER    Run = 5
DOCKED: USER    DPF = D:/Protein_go_brrr/autodock/final/mut_N102T/heme_Fe/dock.dpf
DOCKED: USER  
DOCKED: USER    Estimated Free Energy of Binding    =   -6.20 kcal/mol  [=(1)+(2)+(3)-(4)]
DOCKED: USER    Estimated Inhibition Constant, Ki   =   28.58 uM (micromolar)  [Temperature = 298.15 K]
DOCKED: USER    
DOCKED: USER    (1) Final Intermolecular Energy     =   -9.18 kcal/mol
DOCKED: USER        vdW + Hbond + desolv Energy     =   -8.39 kcal/mol
DOCKED: USER        Electrostatic Energy            =   -0.80 kcal/mol
DOCKED: USER    (2) Final Total Internal Energy     =   -0.67 kcal/mol
DOCKED: USER    (3) Torsional Free Energy           =   +2.98 kcal/mol
DOCKED: USER    (4) Unbound System's Energy  [=(2)] =   -0.67 kcal/mol
DOCKED: USER    
DOCKED: USER    
DOCKED: USER    NEWDPF move heme_Fe_opt.pdbqt
DOCKED: USER    NEWDPF about -0.174000 -0.001000 -0.047000
DOCKED: USER    NEWDPF tran0 -11.778399 3.630865 12.417788
DOCKED: USER    NEWDPF quaternion0 -0.191861 -0.687921 -0.022858 0.699594
DOCKED: USER    NEWDPF axisangle0 -0.268509 -0.962746 -0.031990 91.211109
DOCKED: USER    NEWDPF quat0 -0.268509 -0.962746 -0.031990 91.211109
DOCKED: USER    NEWDPF dihe0 14.57 -96.12 69.81 -103.68 -74.23 13.19 93.81 71.03 -176.57 164.63 
DOCKED: USER  keepresnum = 1 
DOCKED: USER  
DOCKED: REMARK  10 active torsions:
DOCKED: REMARK  status: ('A' for Active; 'I' for Inactive)
DOCKED: REMARK    1  A    between atoms: C_6  and  C_10 
DOCKED: REMARK    2  A    between atoms: C_10  and  C_11 
DOCKED: REMARK    3  A    between atoms: C_11  and  C_12 
DOCKED: REMARK    4  A    between atoms: C_12  and  O_14 
DOCKED: REMARK    5  A    between atoms: C_17  and  C_20 
DOCKED: REMARK    6  A    between atoms: C_24  and  C_27 
DOCKED: REMARK    7  A    between atoms: C_31  and  C_34 
DOCKED: REMARK    8  A    between atoms: C_34  and  C_35 
DOCKED: REMARK    9  A    between atoms: C_35  and  C_36 
DOCKED: REMARK   10  A    between atoms: C_36  and  O_38 
DOCKED: USER                              x       y       z     vdW  Elec       q    Type
DOCKED: USER                           _______ _______ _______ _____ _____    ______ ____
DOCKED: ROOT
DOCKED: ATOM      1  C   UNL d   1     -11.379   2.864  14.279 -0.17 +0.01    +0.064 C 
DOCKED: ATOM      2  C   UNL d   1     -12.147   0.914   9.802 -0.20 -0.01    +0.064 A 
DOCKED: ATOM      3  C   UNL d   1     -11.490   5.262   7.871 -0.21 +0.00    +0.064 C 
DOCKED: ATOM      4  C   UNL d   1     -10.848   7.189  12.203 -0.28 +0.00    +0.064 C 
DOCKED: ATOM      5  C   UNL d   1     -11.739   1.927  13.205 -0.17 +0.00    +0.066 A 
DOCKED: ATOM      6  C   UNL d   1     -12.107   0.606  13.399 -0.11 -0.00    -0.021 A 
DOCKED: ATOM      7  C   UNL d   1     -12.316   0.064  12.155 -0.12 +0.00    -0.025 A 
DOCKED: ATOM      8  C   UNL d   1     -12.068   1.077  11.249 -0.20 -0.01    +0.066 A 
DOCKED: ATOM      9  C   UNL d   1     -12.749  -1.340  11.865 -0.08 -0.01    +0.051 C 
DOCKED: ATOM     10  C   UNL d   1     -11.969   1.888   8.909 -0.23 -0.01    +0.066 A 
DOCKED: ATOM     11  C   UNL d   1     -11.938   1.677   7.528 -0.28 +0.00    -0.021 A 
DOCKED: ATOM     12  C   UNL d   1     -11.733   2.914   6.949 -0.32 -0.00    +0.000 A 
DOCKED: ATOM     13  C   UNL d   1     -11.640   3.823   8.017 -0.26 +0.00    +0.070 A 
DOCKED: ATOM     14  C   UNL d   1     -12.030   0.353   6.799 -0.24 -0.02    +0.052 C 
DOCKED: ATOM     15  C   UNL d   1     -11.348   6.135   8.897 -0.29 -0.00    +0.066 A 
DOCKED: ATOM     16  C   UNL d   1     -11.307   7.512   8.720 -0.29 +0.00    -0.021 A 
DOCKED: ATOM     17  C   UNL d   1     -11.119   8.070   9.968 -0.26 -0.00    +0.000 A 
DOCKED: ATOM     18  C   UNL d   1     -11.045   7.017  10.877 -0.25 +0.00    +0.070 A 
DOCKED: ATOM     19  C   UNL d   1     -11.415   8.276   7.428 -0.26 -0.01    +0.052 C 
DOCKED: ATOM     20  C   UNL d   1     -10.826   6.110  13.198 -0.20 +0.01    +0.066 A 
DOCKED: ATOM     21  C   UNL d   1     -10.427   6.249  14.534 -0.18 -0.00    -0.025 A 
DOCKED: ATOM     22  C   UNL d   1     -10.598   5.007  15.111 -0.09 -0.00    -0.021 A 
DOCKED: ATOM     23  C   UNL d   1     -11.087   4.163  14.107 -0.03 +0.01    +0.066 A 
DOCKED: ATOM     24  C   UNL d   1      -9.906   7.479  15.241 -0.18 +0.00    +0.051 C 
DOCKED: ATOM     25  N   UNL d   1     -11.727   2.212  11.891 -0.17 +0.01    -0.248 N 
DOCKED: ATOM     26  N   UNL d   1     -11.776   3.197   9.212 -0.13 +0.02    -0.248 N 
DOCKED: ATOM     27  N   UNL d   1     -11.229   5.830  10.226 -0.11 +0.00    -0.248 N 
DOCKED: ATOM     28  N   UNL d   1     -11.181   4.830  12.931 -0.11 -0.02    -0.248 N 
DOCKED: ATOM     29 FE   UNL d   1     -11.478   4.015  11.072 -0.07 -0.00    +0.000 Fe
DOCKED: ENDROOT
DOCKED: BRANCH   6  30
DOCKED: ATOM     30  C   UNL d   1     -12.273  -0.103  14.699 -0.07 +0.00    +0.052 C 
DOCKED: BRANCH  30  31
DOCKED: ATOM     31  C   UNL d   1     -10.946  -0.691  15.167 -0.08 +0.05    +0.115 C 
DOCKED: BRANCH  31  32
DOCKED: ATOM     32  C   UNL d   1     -10.733  -2.052  14.565 -0.13 +0.04    +0.139 C 
DOCKED: ATOM     33  O   UNL d   1     -11.361  -3.019  14.972 -0.01 -0.03    -0.650 OA
DOCKED: BRANCH  32  34
DOCKED: ATOM     34  O   UNL d   1      -9.846  -2.218  13.569 -0.39 -0.13    -0.776 OA
DOCKED: ATOM     35  H   UNL d   1      -9.869  -3.036  13.051 -0.50 -0.16    +0.167 HD
DOCKED: ENDBRANCH  32  34
DOCKED: ENDBRANCH  31  32
DOCKED: ENDBRANCH  30  31
DOCKED: ENDBRANCH   6  30
DOCKED: BRANCH  22  36
DOCKED: ATOM     36  C   UNL d   1     -10.264   4.644  16.533 -0.11 +0.00    +0.052 C 
DOCKED: BRANCH  36  37
DOCKED: ATOM     37  C   UNL d   1      -8.905   3.962  16.583 -0.16 +0.02    +0.115 C 
DOCKED: BRANCH  37  38
DOCKED: ATOM     38  C   UNL d   1      -9.046   2.502  16.909 -0.19 +0.05    +0.139 C 
DOCKED: ATOM     39  O   UNL d   1     -10.137   1.954  16.862 +0.01 -0.18    -0.650 OA
DOCKED: BRANCH  38  40
DOCKED: ATOM     40  O   UNL d   1      -7.964   1.786  17.262 -0.31 -0.49    -0.776 OA
DOCKED: ATOM     41  H   UNL d   1      -7.666   1.805  18.182 +0.04 +0.07    +0.167 HD
DOCKED: ENDBRANCH  38  40
DOCKED: ENDBRANCH  37  38
DOCKED: ENDBRANCH  36  37
DOCKED: ENDBRANCH  22  36
DOCKED: BRANCH  12  42
DOCKED: ATOM     42  C   UNL d   1     -11.620   3.162   5.479 -0.32 -0.00    +0.004 C 
DOCKED: ATOM     43  C   UNL d   1     -12.505   3.940   4.841 -0.22 +0.00    +0.012 C 
DOCKED: ENDBRANCH  12  42
DOCKED: BRANCH  17  44
DOCKED: ATOM     44  C   UNL d   1     -11.035   9.516  10.272 -0.21 -0.00    +0.004 C 
DOCKED: ATOM     45  C   UNL d   1     -10.222  10.317   9.576 -0.25 -0.00    +0.012 C 
DOCKED: ENDBRANCH  17  44
DOCKED: TORSDOF 10
DOCKED: TER
DOCKED: ENDMDL
________________________________________________________________________________


	BEGINNING GENETIC ALGORITHM DOCKING 6 of 100
Run: 6 Seed: 2017830863 1878254519 [ Run 6 of 100 GA/GALS ]
Beginning LAMARCKIAN GENETIC ALGORITHM (LGA), with a maximum of 25000000 energy evaluations.

Final-Value: -9.228


	FINAL GENETIC ALGORITHM DOCKED STATE
	_______________________________________________


Detailed state:  trans -10.914 4.444 12.439 quatxyzw 0.643199 -0.049172 -0.742935 0.178674 center -0.174 -0.001 -0.047 ntor 10 90.9986 -137.5710 -179.1398 72.8343 104.0671 94.8071 121.8918 140.4083 -155.0803 8.0097
State:	-10.914   4.444  12.439   0.654 -0.050 -0.755 159.415     91.00 -137.57 -179.14   72.83  104.07   94.81  121.89  140.41 -155.08    8.01

DOCKED: MODEL        6
DOCKED: USER    Run = 6
DOCKED: USER    DPF = D:/Protein_go_brrr/autodock/final/mut_N102T/heme_Fe/dock.dpf
DOCKED: USER  
DOCKED: USER    Estimated Free Energy of Binding    =   -5.37 kcal/mol  [=(1)+(2)+(3)-(4)]
DOCKED: USER    Estimated Inhibition Constant, Ki   =  115.40 uM (micromolar)  [Temperature = 298.15 K]
DOCKED: USER    
DOCKED: USER    (1) Final Intermolecular Energy     =   -8.36 kcal/mol
DOCKED: USER        vdW + Hbond + desolv Energy     =   -7.56 kcal/mol
DOCKED: USER        Electrostatic Energy            =   -0.79 kcal/mol
DOCKED: USER    (2) Final Total Internal Energy     =   -0.87 kcal/mol
DOCKED: USER    (3) Torsional Free Energy           =   +2.98 kcal/mol
DOCKED: USER    (4) Unbound System's Energy  [=(2)] =   -0.87 kcal/mol
DOCKED: USER    
DOCKED: USER    
DOCKED: USER    NEWDPF move heme_Fe_opt.pdbqt
DOCKED: USER    NEWDPF about -0.174000 -0.001000 -0.047000
DOCKED: USER    NEWDPF tran0 -10.914066 4.444230 12.438719
DOCKED: USER    NEWDPF quaternion0 0.643199 -0.049172 -0.742935 0.178674
DOCKED: USER    NEWDPF axisangle0 0.653719 -0.049976 -0.755086 159.414881
DOCKED: USER    NEWDPF quat0 0.653719 -0.049976 -0.755086 159.414881
DOCKED: USER    NEWDPF dihe0 91.00 -137.57 -179.14 72.83 104.07 94.81 121.89 140.41 -155.08 8.01 
DOCKED: USER  keepresnum = 1 
DOCKED: USER  
DOCKED: REMARK  10 active torsions:
DOCKED: REMARK  status: ('A' for Active; 'I' for Inactive)
DOCKED: REMARK    1  A    between atoms: C_6  and  C_10 
DOCKED: REMARK    2  A    between atoms: C_10  and  C_11 
DOCKED: REMARK    3  A    between atoms: C_11  and  C_12 
DOCKED: REMARK    4  A    between atoms: C_12  and  O_14 
DOCKED: REMARK    5  A    between atoms: C_17  and  C_20 
DOCKED: REMARK    6  A    between atoms: C_24  and  C_27 
DOCKED: REMARK    7  A    between atoms: C_31  and  C_34 
DOCKED: REMARK    8  A    between atoms: C_34  and  C_35 
DOCKED: REMARK    9  A    between atoms: C_35  and  C_36 
DOCKED: REMARK   10  A    between atoms: C_36  and  O_38 
DOCKED: USER                              x       y       z     vdW  Elec       q    Type
DOCKED: USER                           _______ _______ _______ _____ _____    ______ ____
DOCKED: ROOT
DOCKED: ATOM      1  C   UNL d   1     -11.178   4.260  14.465 -0.15 +0.01    +0.064 C 
DOCKED: ATOM      2  C   UNL d   1     -10.300   8.036  11.400 -0.28 +0.00    +0.064 A 
DOCKED: ATOM      3  C   UNL d   1     -11.496   5.219   7.698 -0.17 +0.00    +0.064 C 
DOCKED: ATOM      4  C   UNL d   1     -12.249   1.521  10.638 -0.22 -0.01    +0.064 C 
DOCKED: ATOM      5  C   UNL d   1     -10.740   5.559  13.938 -0.11 +0.01    +0.066 A 
DOCKED: ATOM      6  C   UNL d   1     -10.219   6.589  14.705 -0.19 -0.00    -0.021 A 
DOCKED: ATOM      7  C   UNL d   1      -9.979   7.638  13.854 -0.27 -0.00    -0.025 A 
DOCKED: ATOM      8  C   UNL d   1     -10.363   7.209  12.598 -0.30 +0.01    +0.066 A 
DOCKED: ATOM      9  C   UNL d   1      -9.397   8.966  14.231 -0.22 +0.00    +0.051 C 
DOCKED: ATOM     10  C   UNL d   1     -10.610   7.628  10.168 -0.33 -0.00    +0.066 A 
DOCKED: ATOM     11  C   UNL d   1     -10.650   8.475   9.058 -0.30 +0.00    -0.021 A 
DOCKED: ATOM     12  C   UNL d   1     -11.009   7.690   7.980 -0.31 -0.00    +0.000 A 
DOCKED: ATOM     13  C   UNL d   1     -11.179   6.393   8.495 -0.30 -0.00    +0.070 A 
DOCKED: ATOM     14  C   UNL d   1     -10.425   9.973   9.037 -0.24 -0.01    +0.052 C 
DOCKED: ATOM     15  C   UNL d   1     -11.711   3.979   8.196 -0.25 +0.00    +0.066 A 
DOCKED: ATOM     16  C   UNL d   1     -11.913   2.863   7.393 -0.28 +0.00    -0.021 A 
DOCKED: ATOM     17  C   UNL d   1     -12.134   1.796   8.239 -0.25 -0.00    +0.000 A 
DOCKED: ATOM     18  C   UNL d   1     -12.066   2.287   9.540 -0.21 -0.01    +0.070 A 
DOCKED: ATOM     19  C   UNL d   1     -11.924   2.805   5.889 -0.30 -0.00    +0.052 C 
DOCKED: ATOM     20  C   UNL d   1     -12.124   1.990  12.023 -0.18 -0.00    +0.066 A 
DOCKED: ATOM     21  C   UNL d   1     -12.504   1.264  13.161 -0.10 +0.00    -0.025 A 
DOCKED: ATOM     22  C   UNL d   1     -12.179   2.059  14.241 -0.10 -0.00    -0.021 A 
DOCKED: ATOM     23  C   UNL d   1     -11.621   3.233  13.722 -0.16 +0.00    +0.066 A 
DOCKED: ATOM     24  C   UNL d   1     -13.145  -0.102  13.238 -0.04 -0.00    +0.051 C 
DOCKED: ATOM     25  N   UNL d   1     -10.816   5.940  12.651 -0.15 -0.02    -0.248 N 
DOCKED: ATOM     26  N   UNL d   1     -10.944   6.357   9.830 -0.21 +0.00    -0.248 N 
DOCKED: ATOM     27  N   UNL d   1     -11.763   3.620   9.516 -0.10 +0.02    -0.248 N 
DOCKED: ATOM     28  N   UNL d   1     -11.632   3.204  12.367 -0.15 -0.00    -0.248 N 
DOCKED: ATOM     29 FE   UNL d   1     -11.289   4.779  11.098 -0.07 -0.00    +0.000 Fe
DOCKED: ENDROOT
DOCKED: BRANCH   6  30
DOCKED: ATOM     30  C   UNL d   1      -9.943   6.571  16.170 -0.13 +0.00    +0.052 C 
DOCKED: BRANCH  30  31
DOCKED: ATOM     31  C   UNL d   1     -11.240   6.451  16.963 -0.03 +0.00    +0.115 C 
DOCKED: BRANCH  31  32
DOCKED: ATOM     32  C   UNL d   1     -12.166   7.589  16.632 -0.01 -0.00    +0.139 C 
DOCKED: ATOM     33  O   UNL d   1     -13.132   7.414  15.903 +0.01 +0.01    -0.650 OA
DOCKED: BRANCH  32  34
DOCKED: ATOM     34  O   UNL d   1     -11.938   8.813  17.137 +0.01 +0.02    -0.776 OA
DOCKED: ATOM     35  H   UNL d   1     -12.321   9.045  17.995 +0.00 -0.01    +0.167 HD
DOCKED: ENDBRANCH  32  34
DOCKED: ENDBRANCH  31  32
DOCKED: ENDBRANCH  30  31
DOCKED: ENDBRANCH   6  30
DOCKED: BRANCH  22  36
DOCKED: ATOM     36  C   UNL d   1     -12.435   1.725  15.687 -0.05 +0.00    +0.052 C 
DOCKED: BRANCH  36  37
DOCKED: ATOM     37  C   UNL d   1     -11.131   1.324  16.360 -0.09 +0.03    +0.115 C 
DOCKED: BRANCH  37  38
DOCKED: ATOM     38  C   UNL d   1     -10.297   0.465  15.452 -0.06 +0.07    +0.139 C 
DOCKED: ATOM     39  O   UNL d   1      -9.427   0.958  14.750 -0.05 -0.40    -0.650 OA
DOCKED: BRANCH  38  40
DOCKED: ATOM     40  O   UNL d   1     -10.509  -0.862  15.404 -0.27 -0.55    -0.776 OA
DOCKED: ATOM     41  H   UNL d   1     -11.417  -1.194  15.394 +0.03 +0.05    +0.167 HD
DOCKED: ENDBRANCH  38  40
DOCKED: ENDBRANCH  37  38
DOCKED: ENDBRANCH  36  37
DOCKED: ENDBRANCH  22  36
DOCKED: BRANCH  12  42
DOCKED: ATOM     42  C   UNL d   1     -11.184   8.186   6.580 -0.31 -0.00    +0.004 C 
DOCKED: ATOM     43  C   UNL d   1     -12.276   7.874   5.870 -0.19 -0.00    +0.012 C 
DOCKED: ENDBRANCH  12  42
DOCKED: BRANCH  17  44
DOCKED: ATOM     44  C   UNL d   1     -12.375   0.394   7.828 -0.25 -0.00    +0.004 C 
DOCKED: ATOM     45  C   UNL d   1     -11.634  -0.602   8.326 -0.24 -0.00    +0.012 C 
DOCKED: ENDBRANCH  17  44
DOCKED: TORSDOF 10
DOCKED: TER
DOCKED: ENDMDL
________________________________________________________________________________


	BEGINNING GENETIC ALGORITHM DOCKING 7 of 100
Run: 7 Seed: 343116432 1791005971 [ Run 7 of 100 GA/GALS ]
Beginning LAMARCKIAN GENETIC ALGORITHM (LGA), with a maximum of 25000000 energy evaluations.

Final-Value: -11.091


	FINAL GENETIC ALGORITHM DOCKED STATE
	_______________________________________________


Detailed state:  trans 10.981 -4.915 11.230 quatxyzw 0.162948 0.155661 0.798321 -0.558481 center -0.174 -0.001 -0.047 ntor 10 150.3607 146.4748 10.2133 1.6428 74.4177 19.9086 -156.0651 -23.8283 -26.9451 -158.8003
State:	 10.981  -4.915  11.230   0.196  0.188  0.962 -112.098    150.36  146.47   10.21    1.64   74.42   19.91 -156.07  -23.83  -26.95 -158.80

DOCKED: MODEL        7
DOCKED: USER    Run = 7
DOCKED: USER    DPF = D:/Protein_go_brrr/autodock/final/mut_N102T/heme_Fe/dock.dpf
DOCKED: USER  
DOCKED: USER    Estimated Free Energy of Binding    =   -7.64 kcal/mol  [=(1)+(2)+(3)-(4)]
DOCKED: USER    Estimated Inhibition Constant, Ki   =    2.50 uM (micromolar)  [Temperature = 298.15 K]
DOCKED: USER    
DOCKED: USER    (1) Final Intermolecular Energy     =  -10.63 kcal/mol
DOCKED: USER        vdW + Hbond + desolv Energy     =   -6.96 kcal/mol
DOCKED: USER        Electrostatic Energy            =   -3.67 kcal/mol
DOCKED: USER    (2) Final Total Internal Energy     =   -0.46 kcal/mol
DOCKED: USER    (3) Torsional Free Energy           =   +2.98 kcal/mol
DOCKED: USER    (4) Unbound System's Energy  [=(2)] =   -0.46 kcal/mol
DOCKED: USER    
DOCKED: USER    
DOCKED: USER    NEWDPF move heme_Fe_opt.pdbqt
DOCKED: USER    NEWDPF about -0.174000 -0.001000 -0.047000
DOCKED: USER    NEWDPF tran0 10.980617 -4.915409 11.230479
DOCKED: USER    NEWDPF quaternion0 0.162948 0.155661 0.798321 -0.558481
DOCKED: USER    NEWDPF axisangle0 0.196437 0.187653 0.962392 -112.098384
DOCKED: USER    NEWDPF quat0 0.196437 0.187653 0.962392 -112.098384
DOCKED: USER    NEWDPF dihe0 150.36 146.47 10.21 1.64 74.42 19.91 -156.07 -23.83 -26.95 -158.80 
DOCKED: USER  keepresnum = 1 
DOCKED: USER  
DOCKED: REMARK  10 active torsions:
DOCKED: REMARK  status: ('A' for Active; 'I' for Inactive)
DOCKED: REMARK    1  A    between atoms: C_6  and  C_10 
DOCKED: REMARK    2  A    between atoms: C_10  and  C_11 
DOCKED: REMARK    3  A    between atoms: C_11  and  C_12 
DOCKED: REMARK    4  A    between atoms: C_12  and  O_14 
DOCKED: REMARK    5  A    between atoms: C_17  and  C_20 
DOCKED: REMARK    6  A    between atoms: C_24  and  C_27 
DOCKED: REMARK    7  A    between atoms: C_31  and  C_34 
DOCKED: REMARK    8  A    between atoms: C_34  and  C_35 
DOCKED: REMARK    9  A    between atoms: C_35  and  C_36 
DOCKED: REMARK   10  A    between atoms: C_36  and  O_38 
DOCKED: USER                              x       y       z     vdW  Elec       q    Type
DOCKED: USER                           _______ _______ _______ _____ _____    ______ ____
DOCKED: ROOT
DOCKED: ATOM      1  C   UNL d   1      11.901  -6.728  11.512 -0.08 +0.04    +0.064 C 
DOCKED: ATOM      2  C   UNL d   1      13.433  -2.209  10.221 -0.08 +0.05    +0.064 A 
DOCKED: ATOM      3  C   UNL d   1       9.233  -0.431  11.726 -0.27 +0.02    +0.064 C 
DOCKED: ATOM      4  C   UNL d   1       7.690  -4.808  12.884 -0.06 +0.01    +0.064 C 
DOCKED: ATOM      5  C   UNL d   1      12.690  -5.632  10.932 -0.06 +0.06    +0.066 A 
DOCKED: ATOM      6  C   UNL d   1      13.912  -5.786  10.299 -0.05 -0.02    -0.021 A 
DOCKED: ATOM      7  C   UNL d   1      14.339  -4.530   9.945 -0.06 -0.02    -0.025 A 
DOCKED: ATOM      8  C   UNL d   1      13.359  -3.657  10.375 +0.03 +0.08    +0.066 A 
DOCKED: ATOM      9  C   UNL d   1      15.607  -4.201   9.218 -0.05 +0.03    +0.051 C 
DOCKED: ATOM     10  C   UNL d   1      12.477  -1.349  10.575 -0.11 +0.04    +0.066 A 
DOCKED: ATOM     11  C   UNL d   1      12.624   0.039  10.522 -0.13 -0.01    -0.021 A 
DOCKED: ATOM     12  C   UNL d   1      11.432   0.575  10.966 -0.24 +0.00    +0.000 A 
DOCKED: ATOM     13  C   UNL d   1      10.614  -0.524  11.279 -0.19 +0.03    +0.070 A 
DOCKED: ATOM     14  C   UNL d   1      13.864   0.817  10.131 -0.11 +0.02    +0.052 C 
DOCKED: ATOM     15  C   UNL d   1       8.459  -1.484  12.078 -0.20 +0.02    +0.066 A 
DOCKED: ATOM     16  C   UNL d   1       7.114  -1.361  12.403 -0.30 -0.00    -0.021 A 
DOCKED: ATOM     17  C   UNL d   1       6.668  -2.622  12.741 -0.24 +0.00    +0.000 A 
DOCKED: ATOM     18  C   UNL d   1       7.754  -3.485  12.618 -0.15 +0.02    +0.070 A 
DOCKED: ATOM     19  C   UNL d   1       6.284  -0.106  12.422 -0.41 +0.00    +0.052 C 
DOCKED: ATOM     20  C   UNL d   1       8.796  -5.757  12.707 -0.17 +0.02    +0.066 A 
DOCKED: ATOM     21  C   UNL d   1       8.807  -7.082  13.165 -0.20 -0.01    -0.025 A 
DOCKED: ATOM     22  C   UNL d   1      10.011  -7.614  12.751 -0.14 -0.01    -0.021 A 
DOCKED: ATOM     23  C   UNL d   1      10.686  -6.597  12.067 -0.10 +0.03    +0.066 A 
DOCKED: ATOM     24  C   UNL d   1       7.748  -7.817  13.953 +0.02 +0.01    +0.051 C 
DOCKED: ATOM     25  N   UNL d   1      12.352  -4.331  10.966 -0.04 -0.30    -0.248 N 
DOCKED: ATOM     26  N   UNL d   1      11.253  -1.697  11.050 -0.10 -0.18    -0.248 N 
DOCKED: ATOM     27  N   UNL d   1       8.844  -2.794  12.168 -0.07 -0.09    -0.248 N 
DOCKED: ATOM     28  N   UNL d   1       9.959  -5.453  12.082 -0.07 -0.13    -0.248 N 
DOCKED: ATOM     29 FE   UNL d   1      10.605  -3.576  11.567 -0.02 +0.00    +0.000 Fe
DOCKED: ENDROOT
DOCKED: BRANCH   6  30
DOCKED: ATOM     30  C   UNL d   1      14.631  -7.063  10.026 -0.02 +0.02    +0.052 C 
DOCKED: BRANCH  30  31
DOCKED: ATOM     31  C   UNL d   1      13.812  -7.956   9.101 -0.04 +0.06    +0.115 C 
DOCKED: BRANCH  31  32
DOCKED: ATOM     32  C   UNL d   1      12.855  -7.133   8.285 -0.02 +0.15    +0.139 C 
DOCKED: ATOM     33  O   UNL d   1      13.257  -6.453   7.351 -0.06 -0.77    -0.650 OA
DOCKED: BRANCH  32  34
DOCKED: ATOM     34  O   UNL d   1      11.543  -7.136   8.576 -0.57 -1.19    -0.776 OA
DOCKED: ATOM     35  H   UNL d   1      11.152  -7.927   8.973 +0.03 +0.13    +0.167 HD
DOCKED: ENDBRANCH  32  34
DOCKED: ENDBRANCH  31  32
DOCKED: ENDBRANCH  30  31
DOCKED: ENDBRANCH   6  30
DOCKED: BRANCH  22  36
DOCKED: ATOM     36  C   UNL d   1      10.503  -9.008  13.042 -0.14 +0.02    +0.052 C 
DOCKED: BRANCH  36  37
DOCKED: ATOM     37  C   UNL d   1      10.644  -9.199  14.545 -0.13 +0.06    +0.115 C 
DOCKED: BRANCH  37  38
DOCKED: ATOM     38  C   UNL d   1      10.541 -10.652  14.915 -0.09 +0.16    +0.139 C 
DOCKED: ATOM     39  O   UNL d   1      10.727 -11.524  14.080 -0.06 -1.12    -0.650 OA
DOCKED: BRANCH  38  40
DOCKED: ATOM     40  O   UNL d   1      10.238 -11.003  16.178 -0.46 -1.03    -0.776 OA
DOCKED: ATOM     41  H   UNL d   1      10.554 -10.452  16.907 +0.02 +0.11    +0.167 HD
DOCKED: ENDBRANCH  38  40
DOCKED: ENDBRANCH  37  38
DOCKED: ENDBRANCH  36  37
DOCKED: ENDBRANCH  22  36
DOCKED: BRANCH  12  42
DOCKED: ATOM     42  C   UNL d   1      11.144   2.038  11.086 -0.47 +0.00    +0.004 C 
DOCKED: ATOM     43  C   UNL d   1      11.231   2.847  10.023 -0.56 +0.00    +0.012 C 
DOCKED: ENDBRANCH  12  42
DOCKED: BRANCH  17  44
DOCKED: ATOM     44  C   UNL d   1       5.287  -2.981  13.137 -0.27 -0.00    +0.004 C 
DOCKED: ATOM     45  C   UNL d   1       4.250  -2.692  12.343 -0.47 -0.00    +0.012 C 
DOCKED: ENDBRANCH  17  44
DOCKED: TORSDOF 10
DOCKED: TER
DOCKED: ENDMDL
________________________________________________________________________________


	BEGINNING GENETIC ALGORITHM DOCKING 8 of 100
Run: 8 Seed: 695913806 451124824 [ Run 8 of 100 GA/GALS ]
Beginning LAMARCKIAN GENETIC ALGORITHM (LGA), with a maximum of 25000000 energy evaluations.

Final-Value: -11.539


	FINAL GENETIC ALGORITHM DOCKED STATE
	_______________________________________________


Detailed state:  trans 7.479 -2.183 15.858 quatxyzw 0.071891 0.671176 0.669754 0.309491 center -0.174 -0.001 -0.047 ntor 10 -166.6265 126.4822 -113.7848 -154.0224 -98.5507 87.2976 -51.2147 -54.5201 -23.3968 160.4069
State:	  7.479  -2.183  15.858   0.076  0.706  0.704 143.943   -166.63  126.48 -113.78 -154.02  -98.55   87.30  -51.21  -54.52  -23.40  160.41

DOCKED: MODEL        8
DOCKED: USER    Run = 8
DOCKED: USER    DPF = D:/Protein_go_brrr/autodock/final/mut_N102T/heme_Fe/dock.dpf
DOCKED: USER  
DOCKED: USER    Estimated Free Energy of Binding    =   -7.90 kcal/mol  [=(1)+(2)+(3)-(4)]
DOCKED: USER    Estimated Inhibition Constant, Ki   =    1.63 uM (micromolar)  [Temperature = 298.15 K]
DOCKED: USER    
DOCKED: USER    (1) Final Intermolecular Energy     =  -10.88 kcal/mol
DOCKED: USER        vdW + Hbond + desolv Energy     =   -7.85 kcal/mol
DOCKED: USER        Electrostatic Energy            =   -3.03 kcal/mol
DOCKED: USER    (2) Final Total Internal Energy     =   -0.66 kcal/mol
DOCKED: USER    (3) Torsional Free Energy           =   +2.98 kcal/mol
DOCKED: USER    (4) Unbound System's Energy  [=(2)] =   -0.66 kcal/mol
DOCKED: USER    
DOCKED: USER    
DOCKED: USER    NEWDPF move heme_Fe_opt.pdbqt
DOCKED: USER    NEWDPF about -0.174000 -0.001000 -0.047000
DOCKED: USER    NEWDPF tran0 7.478845 -2.182611 15.857551
DOCKED: USER    NEWDPF quaternion0 0.071891 0.671176 0.669754 0.309491
DOCKED: USER    NEWDPF axisangle0 0.075603 0.705830 0.704335 143.942855
DOCKED: USER    NEWDPF quat0 0.075603 0.705830 0.704335 143.942855
DOCKED: USER    NEWDPF dihe0 -166.63 126.48 -113.78 -154.02 -98.55 87.30 -51.21 -54.52 -23.40 160.41 
DOCKED: USER  keepresnum = 1 
DOCKED: USER  
DOCKED: REMARK  10 active torsions:
DOCKED: REMARK  status: ('A' for Active; 'I' for Inactive)
DOCKED: REMARK    1  A    between atoms: C_6  and  C_10 
DOCKED: REMARK    2  A    between atoms: C_10  and  C_11 
DOCKED: REMARK    3  A    between atoms: C_11  and  C_12 
DOCKED: REMARK    4  A    between atoms: C_12  and  O_14 
DOCKED: REMARK    5  A    between atoms: C_17  and  C_20 
DOCKED: REMARK    6  A    between atoms: C_24  and  C_27 
DOCKED: REMARK    7  A    between atoms: C_31  and  C_34 
DOCKED: REMARK    8  A    between atoms: C_34  and  C_35 
DOCKED: REMARK    9  A    between atoms: C_35  and  C_36 
DOCKED: REMARK   10  A    between atoms: C_36  and  O_38 
DOCKED: USER                              x       y       z     vdW  Elec       q    Type
DOCKED: USER                           _______ _______ _______ _____ _____    ______ ____
DOCKED: ROOT
DOCKED: ATOM      1  C   UNL d   1       8.860  -1.056  14.841 -0.16 +0.01    +0.064 C 
DOCKED: ATOM      2  C   UNL d   1       4.308  -2.708  13.851 -0.30 -0.01    +0.064 A 
DOCKED: ATOM      3  C   UNL d   1       3.735  -3.715  18.512 -0.11 -0.01    +0.064 C 
DOCKED: ATOM      4  C   UNL d   1       8.175  -2.218  19.475 -0.04 +0.00    +0.064 C 
DOCKED: ATOM      5  C   UNL d   1       7.663  -1.505  14.117 -0.16 +0.01    +0.066 A 
DOCKED: ATOM      6  C   UNL d   1       7.514  -1.477  12.740 -0.24 -0.00    -0.021 A 
DOCKED: ATOM      7  C   UNL d   1       6.248  -1.932  12.466 -0.31 -0.00    -0.025 A 
DOCKED: ATOM      8  C   UNL d   1       5.672  -2.222  13.688 -0.25 -0.00    +0.066 A 
DOCKED: ATOM      9  C   UNL d   1       5.643  -2.095  11.105 -0.29 +0.00    +0.051 C 
DOCKED: ATOM     10  C   UNL d   1       3.748  -3.049  15.013 -0.31 -0.01    +0.066 A 
DOCKED: ATOM     11  C   UNL d   1       2.403  -3.403  15.151 -0.47 +0.00    -0.021 A 
DOCKED: ATOM     12  C   UNL d   1       2.208  -3.681  16.489 -0.38 -0.00    +0.000 A 
DOCKED: ATOM     13  C   UNL d   1       3.454  -3.474  17.105 -0.20 -0.01    +0.070 A 
DOCKED: ATOM     14  C   UNL d   1       1.339  -3.408  14.072 -0.34 -0.01    +0.052 C 
DOCKED: ATOM     15  C   UNL d   1       4.918  -3.467  19.121 -0.04 -0.01    +0.066 A 
DOCKED: ATOM     16  C   UNL d   1       5.176  -3.804  20.443 -0.01 +0.00    -0.021 A 
DOCKED: ATOM     17  C   UNL d   1       6.455  -3.370  20.724 -0.01 -0.00    +0.000 A 
DOCKED: ATOM     18  C   UNL d   1       6.947  -2.774  19.565 -0.02 -0.00    +0.070 A 
DOCKED: ATOM     19  C   UNL d   1       4.250  -4.484  21.415 -0.01 -0.01    +0.052 C 
DOCKED: ATOM     20  C   UNL d   1       8.749  -1.637  18.256 -0.07 +0.01    +0.066 A 
DOCKED: ATOM     21  C   UNL d   1       9.930  -0.884  18.196 -0.07 -0.01    -0.025 A 
DOCKED: ATOM     22  C   UNL d   1      10.113  -0.574  16.864 -0.06 -0.01    -0.021 A 
DOCKED: ATOM     23  C   UNL d   1       9.039  -1.142  16.168 -0.02 +0.02    +0.066 A 
DOCKED: ATOM     24  C   UNL d   1      10.843  -0.470  19.326 -0.05 +0.01    +0.051 C 
DOCKED: ATOM     25  N   UNL d   1       6.539  -1.970  14.689 -0.10 -0.00    -0.248 N 
DOCKED: ATOM     26  N   UNL d   1       4.391  -3.080  16.208 -0.13 +0.03    -0.248 N 
DOCKED: ATOM     27  N   UNL d   1       6.019  -2.872  18.566 -0.02 +0.02    -0.248 N 
DOCKED: ATOM     28  N   UNL d   1       8.186  -1.750  17.028 -0.07 -0.04    -0.248 N 
DOCKED: ATOM     29 FE   UNL d   1       6.290  -2.415  16.620 -0.03 -0.00    +0.000 Fe
DOCKED: ENDROOT
DOCKED: BRANCH   6  30
DOCKED: ATOM     30  C   UNL d   1       8.529  -1.059  11.732 -0.25 +0.01    +0.052 C 
DOCKED: BRANCH  30  31
DOCKED: ATOM     31  C   UNL d   1       9.711  -2.022  11.723 -0.15 +0.06    +0.115 C 
DOCKED: BRANCH  31  32
DOCKED: ATOM     32  C   UNL d   1       9.999  -2.489  10.324 -0.12 +0.16    +0.139 C 
DOCKED: ATOM     33  O   UNL d   1       9.587  -3.571   9.930 -0.43 -1.16    -0.650 OA
DOCKED: BRANCH  32  34
DOCKED: ATOM     34  O   UNL d   1      10.716  -1.718   9.489 -0.36 -1.01    -0.776 OA
DOCKED: ATOM     35  H   UNL d   1      11.204  -0.964   9.849 +0.05 +0.14    +0.167 HD
DOCKED: ENDBRANCH  32  34
DOCKED: ENDBRANCH  31  32
DOCKED: ENDBRANCH  30  31
DOCKED: ENDBRANCH   6  30
DOCKED: BRANCH  22  36
DOCKED: ATOM     36  C   UNL d   1      11.232   0.262  16.301 -0.12 +0.02    +0.052 C 
DOCKED: BRANCH  36  37
DOCKED: ATOM     37  C   UNL d   1      10.720   1.660  15.986 -0.25 +0.06    +0.115 C 
DOCKED: BRANCH  37  38
DOCKED: ATOM     38  C   UNL d   1      11.545   2.705  16.683 -0.23 +0.13    +0.139 C 
DOCKED: ATOM     39  O   UNL d   1      12.557   3.151  16.164 -0.06 -0.65    -0.650 OA
DOCKED: BRANCH  38  40
DOCKED: ATOM     40  O   UNL d   1      11.172   3.156  17.894 -0.40 -0.94    -0.776 OA
DOCKED: ATOM     41  H   UNL d   1      10.276   3.500  18.013 -0.49 +0.18    +0.167 HD
DOCKED: ENDBRANCH  38  40
DOCKED: ENDBRANCH  37  38
DOCKED: ENDBRANCH  36  37
DOCKED: ENDBRANCH  22  36
DOCKED: BRANCH  12  42
DOCKED: ATOM     42  C   UNL d   1       0.905  -4.094  17.096 -0.35 -0.00    +0.004 C 
DOCKED: ATOM     43  C   UNL d   1      -0.137  -3.253  17.130 -0.44 -0.00    +0.012 C 
DOCKED: ENDBRANCH  12  42
DOCKED: BRANCH  17  44
DOCKED: ATOM     44  C   UNL d   1       7.168  -3.534  22.011 -0.00 -0.00    +0.004 C 
DOCKED: ATOM     45  C   UNL d   1       7.247  -2.524  22.884 -0.00 -0.00    +0.012 C 
DOCKED: ENDBRANCH  17  44
DOCKED: TORSDOF 10
DOCKED: TER
DOCKED: ENDMDL
________________________________________________________________________________


	BEGINNING GENETIC ALGORITHM DOCKING 9 of 100
Run: 9 Seed: 390325277 1481922098 [ Run 9 of 100 GA/GALS ]
Beginning LAMARCKIAN GENETIC ALGORITHM (LGA), with a maximum of 25000000 energy evaluations.

Final-Value: -11.251


	FINAL GENETIC ALGORITHM DOCKED STATE
	_______________________________________________


Detailed state:  trans -7.852 -13.472 -9.480 quatxyzw 0.542299 -0.129999 -0.829755 0.022764 center -0.174 -0.001 -0.047 ntor 10 -82.8435 34.2071 59.3607 48.7942 -19.6517 -63.3537 74.1414 91.2533 -18.8167 9.4700
State:	 -7.852 -13.472  -9.480   0.542 -0.130 -0.830 177.391    -82.84   34.21   59.36   48.79  -19.65  -63.35   74.14   91.25  -18.82    9.47

DOCKED: MODEL        9
DOCKED: USER    Run = 9
DOCKED: USER    DPF = D:/Protein_go_brrr/autodock/final/mut_N102T/heme_Fe/dock.dpf
DOCKED: USER  
DOCKED: USER    Estimated Free Energy of Binding    =   -7.56 kcal/mol  [=(1)+(2)+(3)-(4)]
DOCKED: USER    Estimated Inhibition Constant, Ki   =    2.86 uM (micromolar)  [Temperature = 298.15 K]
DOCKED: USER    
DOCKED: USER    (1) Final Intermolecular Energy     =  -10.54 kcal/mol
DOCKED: USER        vdW + Hbond + desolv Energy     =   -6.74 kcal/mol
DOCKED: USER        Electrostatic Energy            =   -3.81 kcal/mol
DOCKED: USER    (2) Final Total Internal Energy     =   -0.71 kcal/mol
DOCKED: USER    (3) Torsional Free Energy           =   +2.98 kcal/mol
DOCKED: USER    (4) Unbound System's Energy  [=(2)] =   -0.71 kcal/mol
DOCKED: USER    
DOCKED: USER    
DOCKED: USER    NEWDPF move heme_Fe_opt.pdbqt
DOCKED: USER    NEWDPF about -0.174000 -0.001000 -0.047000
DOCKED: USER    NEWDPF tran0 -7.851850 -13.471734 -9.480062
DOCKED: USER    NEWDPF quaternion0 0.542299 -0.129999 -0.829755 0.022764
DOCKED: USER    NEWDPF axisangle0 0.542440 -0.130032 -0.829970 177.391232
DOCKED: USER    NEWDPF quat0 0.542440 -0.130032 -0.829970 177.391232
DOCKED: USER    NEWDPF dihe0 -82.84 34.21 59.36 48.79 -19.65 -63.35 74.14 91.25 -18.82 9.47 
DOCKED: USER  keepresnum = 1 
DOCKED: USER  
DOCKED: REMARK  10 active torsions:
DOCKED: REMARK  status: ('A' for Active; 'I' for Inactive)
DOCKED: REMARK    1  A    between atoms: C_6  and  C_10 
DOCKED: REMARK    2  A    between atoms: C_10  and  C_11 
DOCKED: REMARK    3  A    between atoms: C_11  and  C_12 
DOCKED: REMARK    4  A    between atoms: C_12  and  O_14 
DOCKED: REMARK    5  A    between atoms: C_17  and  C_20 
DOCKED: REMARK    6  A    between atoms: C_24  and  C_27 
DOCKED: REMARK    7  A    between atoms: C_31  and  C_34 
DOCKED: REMARK    8  A    between atoms: C_34  and  C_35 
DOCKED: REMARK    9  A    between atoms: C_35  and  C_36 
DOCKED: REMARK   10  A    between atoms: C_36  and  O_38 
DOCKED: USER                              x       y       z     vdW  Elec       q    Type
DOCKED: USER                           _______ _______ _______ _____ _____    ______ ____
DOCKED: ROOT
DOCKED: ATOM      1  C   UNL d   1      -7.503 -13.082  -7.496 -0.16 +0.04    +0.064 C 
DOCKED: ATOM      2  C   UNL d   1      -8.235 -10.297 -11.512 -0.26 +0.02    +0.064 A 
DOCKED: ATOM      3  C   UNL d   1      -9.862 -14.180 -13.824 -0.13 +0.01    +0.064 C 
DOCKED: ATOM      4  C   UNL d   1      -9.063 -16.915  -9.982 -0.09 +0.02    +0.064 C 
DOCKED: ATOM      5  C   UNL d   1      -7.480 -11.955  -8.438 -0.09 +0.02    +0.066 A 
DOCKED: ATOM      6  C   UNL d   1      -6.969 -10.699  -8.156 -0.29 -0.01    -0.021 A 
DOCKED: ATOM      7  C   UNL d   1      -7.176  -9.925  -9.271 -0.33 -0.01    -0.025 A 
DOCKED: ATOM      8  C   UNL d   1      -7.806 -10.740 -10.192 -0.25 +0.02    +0.066 A 
DOCKED: ATOM      9  C   UNL d   1      -6.772  -8.493  -9.439 -0.44 +0.01    +0.051 C 
DOCKED: ATOM     10  C   UNL d   1      -8.793 -11.077 -12.440 -0.20 +0.02    +0.066 A 
DOCKED: ATOM     11  C   UNL d   1      -9.298 -10.599 -13.652 -0.17 -0.01    -0.021 A 
DOCKED: ATOM     12  C   UNL d   1      -9.788 -11.697 -14.330 -0.12 +0.00    +0.000 A 
DOCKED: ATOM     13  C   UNL d   1      -9.562 -12.798 -13.485 -0.11 +0.01    +0.070 A 
DOCKED: ATOM     14  C   UNL d   1      -9.372  -9.158 -14.113 -0.19 +0.02    +0.052 C 
DOCKED: ATOM     15  C   UNL d   1      -9.695 -15.236 -12.994 -0.09 +0.01    +0.066 A 
DOCKED: ATOM     16  C   UNL d   1      -9.899 -16.552 -13.389 -0.10 -0.00    -0.021 A 
DOCKED: ATOM     17  C   UNL d   1      -9.672 -17.342 -12.281 -0.09 +0.00    +0.000 A 
DOCKED: ATOM     18  C   UNL d   1      -9.338 -16.488 -11.233 -0.09 +0.02    +0.070 A 
DOCKED: ATOM     19  C   UNL d   1     -10.316 -17.048 -14.747 -0.04 +0.00    +0.052 C 
DOCKED: ATOM     20  C   UNL d   1      -8.648 -16.052  -8.869 -0.10 +0.03    +0.066 A 
DOCKED: ATOM     21  C   UNL d   1      -8.554 -16.448  -7.528 -0.05 -0.01    -0.025 A 
DOCKED: ATOM     22  C   UNL d   1      -8.095 -15.344  -6.839 -0.08 -0.02    -0.021 A 
DOCKED: ATOM     23  C   UNL d   1      -7.935 -14.321  -7.781 -0.14 +0.05    +0.066 A 
DOCKED: ATOM     24  C   UNL d   1      -8.880 -17.791  -6.916 -0.01 +0.02    +0.051 C 
DOCKED: ATOM     25  N   UNL d   1      -7.981 -11.977  -9.686 -0.14 -0.07    -0.248 N 
DOCKED: ATOM     26  N   UNL d   1      -8.964 -12.419 -12.329 -0.07 -0.06    -0.248 N 
DOCKED: ATOM     27  N   UNL d   1      -9.309 -15.197 -11.681 -0.05 -0.05    -0.248 N 
DOCKED: ATOM     28  N   UNL d   1      -8.316 -14.746  -9.011 -0.12 -0.13    -0.248 N 
DOCKED: ATOM     29 FE   UNL d   1      -8.640 -13.584 -10.670 -0.04 +0.00    +0.000 Fe
DOCKED: ENDROOT
DOCKED: BRANCH   6  30
DOCKED: ATOM     30  C   UNL d   1      -6.299 -10.260  -6.900 -0.43 +0.02    +0.052 C 
DOCKED: BRANCH  30  31
DOCKED: ATOM     31  C   UNL d   1      -4.925 -10.908  -6.765 -0.17 +0.08    +0.115 C 
DOCKED: BRANCH  31  32
DOCKED: ATOM     32  C   UNL d   1      -4.955 -11.992  -5.723 -0.40 +0.15    +0.139 C 
DOCKED: ATOM     33  O   UNL d   1      -5.839 -12.020  -4.879 -0.58 -0.61    -0.650 OA
DOCKED: BRANCH  32  34
DOCKED: ATOM     34  O   UNL d   1      -4.005 -12.942  -5.711 -0.44 -1.60    -0.776 OA
DOCKED: ATOM     35  H   UNL d   1      -3.249 -12.843  -5.115 +0.11 +0.21    +0.167 HD
DOCKED: ENDBRANCH  32  34
DOCKED: ENDBRANCH  31  32
DOCKED: ENDBRANCH  30  31
DOCKED: ENDBRANCH   6  30
DOCKED: BRANCH  22  36
DOCKED: ATOM     36  C   UNL d   1      -7.873 -15.265  -5.352 -0.07 +0.04    +0.052 C 
DOCKED: BRANCH  36  37
DOCKED: ATOM     37  C   UNL d   1      -6.380 -15.278  -5.055 -0.11 +0.17    +0.115 C 
DOCKED: BRANCH  37  38
DOCKED: ATOM     38  C   UNL d   1      -5.878 -16.684  -4.881 -0.13 +0.23    +0.139 C 
DOCKED: ATOM     39  O   UNL d   1      -6.285 -17.385  -3.967 -0.02 -1.11    -0.650 OA
DOCKED: BRANCH  38  40
DOCKED: ATOM     40  O   UNL d   1      -4.968 -17.182  -5.737 -0.28 -1.61    -0.776 OA
DOCKED: ATOM     41  H   UNL d   1      -5.000 -18.122  -5.963 +0.03 +0.23    +0.167 HD
DOCKED: ENDBRANCH  38  40
DOCKED: ENDBRANCH  37  38
DOCKED: ENDBRANCH  36  37
DOCKED: ENDBRANCH  22  36
DOCKED: BRANCH  12  42
DOCKED: ATOM     42  C   UNL d   1     -10.435 -11.653 -15.678 -0.06 +0.00    +0.004 C 
DOCKED: ATOM     43  C   UNL d   1      -9.800 -12.113 -16.764 -0.06 +0.00    +0.012 C 
DOCKED: ENDBRANCH  12  42
DOCKED: BRANCH  17  44
DOCKED: ATOM     44  C   UNL d   1      -9.750 -18.820 -12.235 -0.04 +0.00    +0.004 C 
DOCKED: ATOM     45  C   UNL d   1      -8.640 -19.565 -12.239 -0.05 +0.00    +0.012 C 
DOCKED: ENDBRANCH  17  44
DOCKED: TORSDOF 10
DOCKED: TER
DOCKED: ENDMDL
________________________________________________________________________________


	BEGINNING GENETIC ALGORITHM DOCKING 10 of 100
Run: 10 Seed: 1620454237 189807236 [ Run 10 of 100 GA/GALS ]
Beginning LAMARCKIAN GENETIC ALGORITHM (LGA), with a maximum of 25000000 energy evaluations.

Final-Value: -10.281


	FINAL GENETIC ALGORITHM DOCKED STATE
	_______________________________________________


Detailed state:  trans -11.452 5.010 13.244 quatxyzw 0.397712 0.651962 0.121585 -0.634025 center -0.174 -0.001 -0.047 ntor 10 -38.4636 -93.4767 89.6221 -165.3088 -33.3725 116.6164 -62.1266 71.9484 -159.7766 -171.4190
State:	-11.452   5.010  13.244   0.514  0.843  0.157 -101.305    -38.46  -93.48   89.62 -165.31  -33.37  116.62  -62.13   71.95 -159.78 -171.42

DOCKED: MODEL       10
DOCKED: USER    Run = 10
DOCKED: USER    DPF = D:/Protein_go_brrr/autodock/final/mut_N102T/heme_Fe/dock.dpf
DOCKED: USER  
DOCKED: USER    Estimated Free Energy of Binding    =   -5.15 kcal/mol  [=(1)+(2)+(3)-(4)]
DOCKED: USER    Estimated Inhibition Constant, Ki   =  167.07 uM (micromolar)  [Temperature = 298.15 K]
DOCKED: USER    
DOCKED: USER    (1) Final Intermolecular Energy     =   -8.14 kcal/mol
DOCKED: USER        vdW + Hbond + desolv Energy     =   -6.79 kcal/mol
DOCKED: USER        Electrostatic Energy            =   -1.35 kcal/mol
DOCKED: USER    (2) Final Total Internal Energy     =   -2.15 kcal/mol
DOCKED: USER    (3) Torsional Free Energy           =   +2.98 kcal/mol
DOCKED: USER    (4) Unbound System's Energy  [=(2)] =   -2.15 kcal/mol
DOCKED: USER    
DOCKED: USER    
DOCKED: USER    NEWDPF move heme_Fe_opt.pdbqt
DOCKED: USER    NEWDPF about -0.174000 -0.001000 -0.047000
DOCKED: USER    NEWDPF tran0 -11.452185 5.009872 13.244112
DOCKED: USER    NEWDPF quaternion0 0.397712 0.651962 0.121585 -0.634025
DOCKED: USER    NEWDPF axisangle0 0.514296 0.843077 0.157226 -101.304540
DOCKED: USER    NEWDPF quat0 0.514296 0.843077 0.157226 -101.304540
DOCKED: USER    NEWDPF dihe0 -38.46 -93.48 89.62 -165.31 -33.37 116.62 -62.13 71.95 -159.78 -171.42 
DOCKED: USER  keepresnum = 1 
DOCKED: USER  
DOCKED: REMARK  10 active torsions:
DOCKED: REMARK  status: ('A' for Active; 'I' for Inactive)
DOCKED: REMARK    1  A    between atoms: C_6  and  C_10 
DOCKED: REMARK    2  A    between atoms: C_10  and  C_11 
DOCKED: REMARK    3  A    between atoms: C_11  and  C_12 
DOCKED: REMARK    4  A    between atoms: C_12  and  O_14 
DOCKED: REMARK    5  A    between atoms: C_17  and  C_20 
DOCKED: REMARK    6  A    between atoms: C_24  and  C_27 
DOCKED: REMARK    7  A    between atoms: C_31  and  C_34 
DOCKED: REMARK    8  A    between atoms: C_34  and  C_35 
DOCKED: REMARK    9  A    between atoms: C_35  and  C_36 
DOCKED: REMARK   10  A    between atoms: C_36  and  O_38 
DOCKED: USER                              x       y       z     vdW  Elec       q    Type
DOCKED: USER                           _______ _______ _______ _____ _____    ______ ____
DOCKED: ROOT
DOCKED: ATOM      1  C   UNL d   1     -11.221   3.455  14.563 -0.16 +0.01    +0.064 C 
DOCKED: ATOM      2  C   UNL d   1     -12.172   3.804   9.725 -0.18 -0.00    +0.064 A 
DOCKED: ATOM      3  C   UNL d   1     -10.807   8.407   9.859 -0.30 -0.00    +0.064 C 
DOCKED: ATOM      4  C   UNL d   1      -9.980   8.119  14.562 -0.20 +0.00    +0.064 C 
DOCKED: ATOM      5  C   UNL d   1     -11.695   3.149  13.206 -0.17 +0.00    +0.066 A 
DOCKED: ATOM      6  C   UNL d   1     -12.266   1.948  12.819 -0.15 +0.00    -0.021 A 
DOCKED: ATOM      7  C   UNL d   1     -12.526   2.044  11.475 -0.17 +0.00    -0.025 A 
DOCKED: ATOM      8  C   UNL d   1     -12.104   3.302  11.092 -0.17 -0.00    +0.066 A 
DOCKED: ATOM      9  C   UNL d   1     -13.163   0.991  10.621 -0.10 -0.01    +0.051 C 
DOCKED: ATOM     10  C   UNL d   1     -11.825   5.033   9.339 -0.20 -0.00    +0.066 A 
DOCKED: ATOM     11  C   UNL d   1     -11.793   5.447   8.006 -0.25 +0.00    -0.021 A 
DOCKED: ATOM     12  C   UNL d   1     -11.386   6.766   8.016 -0.28 -0.00    +0.000 A 
DOCKED: ATOM     13  C   UNL d   1     -11.181   7.089   9.368 -0.29 -0.00    +0.070 A 
DOCKED: ATOM     14  C   UNL d   1     -12.071   4.606   6.776 -0.23 -0.00    +0.052 C 
DOCKED: ATOM     15  C   UNL d   1     -10.557   8.710  11.155 -0.20 +0.00    +0.066 A 
DOCKED: ATOM     16  C   UNL d   1     -10.300  10.001  11.596 -0.15 +0.00    -0.021 A 
DOCKED: ATOM     17  C   UNL d   1     -10.058   9.920  12.952 -0.15 +0.00    +0.000 A 
DOCKED: ATOM     18  C   UNL d   1     -10.169   8.578  13.305 -0.21 +0.00    +0.070 A 
DOCKED: ATOM     19  C   UNL d   1     -10.259  11.261  10.773 -0.16 -0.00    +0.052 C 
DOCKED: ATOM     20  C   UNL d   1     -10.148   6.724  14.984 -0.17 +0.00    +0.066 A 
DOCKED: ATOM     21  C   UNL d   1      -9.765   6.201  16.227 -0.13 -0.00    -0.025 A 
DOCKED: ATOM     22  C   UNL d   1     -10.139   4.873  16.210 -0.12 -0.00    -0.021 A 
DOCKED: ATOM     23  C   UNL d   1     -10.728   4.638  14.962 -0.08 +0.01    +0.066 A 
DOCKED: ATOM     24  C   UNL d   1      -9.078   6.904  17.374 -0.08 +0.00    +0.051 C 
DOCKED: ATOM     25  N   UNL d   1     -11.607   3.975  12.149 -0.07 -0.00    -0.248 N 
DOCKED: ATOM     26  N   UNL d   1     -11.439   6.031  10.175 -0.14 +0.00    -0.248 N 
DOCKED: ATOM     27  N   UNL d   1     -10.519   7.838  12.210 -0.19 -0.01    -0.248 N 
DOCKED: ATOM     28  N   UNL d   1     -10.690   5.759  14.201 -0.12 -0.02    -0.248 N 
DOCKED: ATOM     29 FE   UNL d   1     -11.064   5.896  12.189 -0.06 +0.00    +0.000 Fe
DOCKED: ENDROOT
DOCKED: BRANCH   6  30
DOCKED: ATOM     30  C   UNL d   1     -12.570   0.774  13.686 -0.08 +0.00    +0.052 C 
DOCKED: BRANCH  30  31
DOCKED: ATOM     31  C   UNL d   1     -11.285   0.080  14.126 -0.17 +0.02    +0.115 C 
DOCKED: BRANCH  31  32
DOCKED: ATOM     32  C   UNL d   1     -11.147   0.129  15.622 -0.10 +0.04    +0.139 C 
DOCKED: ATOM     33  O   UNL d   1     -11.562   1.090  16.256 +0.03 -0.12    -0.650 OA
DOCKED: BRANCH  32  34
DOCKED: ATOM     34  O   UNL d   1     -10.562  -0.886  16.279 -0.28 -0.53    -0.776 OA
DOCKED: ATOM     35  H   UNL d   1      -9.987  -0.690  17.032 +0.02 +0.14    +0.167 HD
DOCKED: ENDBRANCH  32  34
DOCKED: ENDBRANCH  31  32
DOCKED: ENDBRANCH  30  31
DOCKED: ENDBRANCH   6  30
DOCKED: BRANCH  22  36
DOCKED: ATOM     36  C   UNL d   1      -9.899   3.878  17.314 -0.09 +0.01    +0.052 C 
DOCKED: BRANCH  36  37
DOCKED: ATOM     37  C   UNL d   1      -8.431   3.480  17.336 -0.18 +0.02    +0.115 C 
DOCKED: BRANCH  37  38
DOCKED: ATOM     38  C   UNL d   1      -8.248   2.068  16.854 -0.17 +0.08    +0.139 C 
DOCKED: ATOM     39  O   UNL d   1      -7.610   1.832  15.839 -0.08 -0.50    -0.650 OA
DOCKED: BRANCH  38  40
DOCKED: ATOM     40  O   UNL d   1      -8.792   1.049  17.542 -0.10 -0.56    -0.776 OA
DOCKED: ATOM     41  H   UNL d   1      -9.707   0.794  17.358 +0.03 +0.09    +0.167 HD
DOCKED: ENDBRANCH  38  40
DOCKED: ENDBRANCH  37  38
DOCKED: ENDBRANCH  36  37
DOCKED: ENDBRANCH  22  36
DOCKED: BRANCH  12  42
DOCKED: ATOM     42  C   UNL d   1     -11.201   7.614   6.798 -0.26 -0.00    +0.004 C 
DOCKED: ATOM     43  C   UNL d   1     -11.625   8.885   6.772 -0.24 -0.00    +0.012 C 
DOCKED: ENDBRANCH  12  42
DOCKED: BRANCH  17  44
DOCKED: ATOM     44  C   UNL d   1      -9.761  11.056  13.853 -0.12 -0.00    +0.004 C 
DOCKED: ATOM     45  C   UNL d   1      -8.549  11.196  14.402 -0.13 -0.00    +0.012 C 
DOCKED: ENDBRANCH  17  44
DOCKED: TORSDOF 10
DOCKED: TER
DOCKED: ENDMDL
________________________________________________________________________________


	BEGINNING GENETIC ALGORITHM DOCKING 11 of 100
Run: 11 Seed: 540331237 511716521 [ Run 11 of 100 GA/GALS ]
Beginning LAMARCKIAN GENETIC ALGORITHM (LGA), with a maximum of 25000000 energy evaluations.

Final-Value: -10.612


	FINAL GENETIC ALGORITHM DOCKED STATE
	_______________________________________________


Detailed state:  trans -8.525 -10.651 -10.286 quatxyzw 0.424100 0.298961 -0.762192 0.387073 center -0.174 -0.001 -0.047 ntor 10 96.8156 -111.5601 36.4138 -160.7601 102.1417 180.0000 -25.1899 -61.1458 22.9152 34.7648
State:	 -8.525 -10.651 -10.286   0.460  0.324 -0.827 134.455     96.82 -111.56   36.41 -160.76  102.14  180.00  -25.19  -61.15   22.92   34.76

DOCKED: MODEL       11
DOCKED: USER    Run = 11
DOCKED: USER    DPF = D:/Protein_go_brrr/autodock/final/mut_N102T/heme_Fe/dock.dpf
DOCKED: USER  
DOCKED: USER    Estimated Free Energy of Binding    =   -7.22 kcal/mol  [=(1)+(2)+(3)-(4)]
DOCKED: USER    Estimated Inhibition Constant, Ki   =    5.07 uM (micromolar)  [Temperature = 298.15 K]
DOCKED: USER    
DOCKED: USER    (1) Final Intermolecular Energy     =  -10.21 kcal/mol
DOCKED: USER        vdW + Hbond + desolv Energy     =   -7.00 kcal/mol
DOCKED: USER        Electrostatic Energy            =   -3.20 kcal/mol
DOCKED: USER    (2) Final Total Internal Energy     =   -0.41 kcal/mol
DOCKED: USER    (3) Torsional Free Energy           =   +2.98 kcal/mol
DOCKED: USER    (4) Unbound System's Energy  [=(2)] =   -0.41 kcal/mol
DOCKED: USER    
DOCKED: USER    
DOCKED: USER    NEWDPF move heme_Fe_opt.pdbqt
DOCKED: USER    NEWDPF about -0.174000 -0.001000 -0.047000
DOCKED: USER    NEWDPF tran0 -8.524902 -10.650862 -10.285664
DOCKED: USER    NEWDPF quaternion0 0.424100 0.298961 -0.762192 0.387073
DOCKED: USER    NEWDPF axisangle0 0.459954 0.324235 -0.826628 134.454964
DOCKED: USER    NEWDPF quat0 0.459954 0.324235 -0.826628 134.454964
DOCKED: USER    NEWDPF dihe0 96.82 -111.56 36.41 -160.76 102.14 180.00 -25.19 -61.15 22.92 34.76 
DOCKED: USER  keepresnum = 1 
DOCKED: USER  
DOCKED: REMARK  10 active torsions:
DOCKED: REMARK  status: ('A' for Active; 'I' for Inactive)
DOCKED: REMARK    1  A    between atoms: C_6  and  C_10 
DOCKED: REMARK    2  A    between atoms: C_10  and  C_11 
DOCKED: REMARK    3  A    between atoms: C_11  and  C_12 
DOCKED: REMARK    4  A    between atoms: C_12  and  O_14 
DOCKED: REMARK    5  A    between atoms: C_17  and  C_20 
DOCKED: REMARK    6  A    between atoms: C_24  and  C_27 
DOCKED: REMARK    7  A    between atoms: C_31  and  C_34 
DOCKED: REMARK    8  A    between atoms: C_34  and  C_35 
DOCKED: REMARK    9  A    between atoms: C_35  and  C_36 
DOCKED: REMARK   10  A    between atoms: C_36  and  O_38 
DOCKED: USER                              x       y       z     vdW  Elec       q    Type
DOCKED: USER                           _______ _______ _______ _____ _____    ______ ____
DOCKED: ROOT
DOCKED: ATOM      1  C   UNL d   1      -8.297 -12.359  -9.172 -0.18 +0.02    +0.064 C 
DOCKED: ATOM      2  C   UNL d   1      -8.252  -7.519  -8.170 -0.25 +0.01    +0.064 A 
DOCKED: ATOM      3  C   UNL d   1     -10.230  -6.682 -12.466 -0.11 +0.02    +0.064 C 
DOCKED: ATOM      4  C   UNL d   1     -10.186 -11.353 -13.498 -0.10 +0.01    +0.064 C 
DOCKED: ATOM      5  C   UNL d   1      -8.024 -11.068  -8.525 -0.15 +0.02    +0.066 A 
DOCKED: ATOM      6  C   UNL d   1      -7.359 -10.912  -7.321 -0.23 -0.01    -0.021 A 
DOCKED: ATOM      7  C   UNL d   1      -7.350  -9.568  -7.041 -0.29 -0.01    -0.025 A 
DOCKED: ATOM      8  C   UNL d   1      -8.011  -8.954  -8.088 -0.20 +0.01    +0.066 A 
DOCKED: ATOM      9  C   UNL d   1      -6.724  -8.918  -5.846 -0.07 +0.01    +0.051 C 
DOCKED: ATOM     10  C   UNL d   1      -8.836  -6.896  -9.195 -0.22 +0.01    +0.066 A 
DOCKED: ATOM     11  C   UNL d   1      -9.156  -5.536  -9.194 -0.28 -0.00    -0.021 A 
DOCKED: ATOM     12  C   UNL d   1      -9.743  -5.273 -10.416 -0.21 +0.00    +0.000 A 
DOCKED: ATOM     13  C   UNL d   1      -9.758  -6.500 -11.102 -0.11 +0.02    +0.070 A 
DOCKED: ATOM     14  C   UNL d   1      -8.974  -4.550  -8.059 -0.37 +0.01    +0.052 C 
DOCKED: ATOM     15  C   UNL d   1     -10.295  -7.870 -13.112 -0.10 +0.03    +0.066 A 
DOCKED: ATOM     16  C   UNL d   1     -10.657  -7.988 -14.448 -0.09 -0.01    -0.021 A 
DOCKED: ATOM     17  C   UNL d   1     -10.649  -9.335 -14.747 -0.07 +0.00    +0.000 A 
DOCKED: ATOM     18  C   UNL d   1     -10.284 -10.008 -13.583 -0.07 +0.02    +0.070 A 
DOCKED: ATOM     19  C   UNL d   1     -11.023  -6.883 -15.401 -0.08 +0.02    +0.052 C 
DOCKED: ATOM     20  C   UNL d   1      -9.746 -12.092 -12.309 -0.11 +0.01    +0.066 A 
DOCKED: ATOM     21  C   UNL d   1      -9.830 -13.482 -12.142 -0.11 -0.00    -0.025 A 
DOCKED: ATOM     22  C   UNL d   1      -9.275 -13.748 -10.907 -0.07 -0.00    -0.021 A 
DOCKED: ATOM     23  C   UNL d   1      -8.882 -12.516 -10.370 -0.14 +0.02    +0.066 A 
DOCKED: ATOM     24  C   UNL d   1     -10.405 -14.512 -13.086 -0.10 +0.01    +0.051 C 
DOCKED: ATOM     25  N   UNL d   1      -8.411  -9.869  -8.994 -0.05 -0.06    -0.248 N 
DOCKED: ATOM     26  N   UNL d   1      -9.214  -7.491 -10.355 -0.11 -0.06    -0.248 N 
DOCKED: ATOM     27  N   UNL d   1     -10.024  -9.106 -12.590 -0.06 -0.07    -0.248 N 
DOCKED: ATOM     28  N   UNL d   1      -9.213 -11.505 -11.210 -0.08 -0.06    -0.248 N 
DOCKED: ATOM     29 FE   UNL d   1      -9.214  -9.499 -10.784 -0.03 +0.00    +0.000 Fe
DOCKED: ENDROOT
DOCKED: BRANCH   6  30
DOCKED: ATOM     30  C   UNL d   1      -6.743 -11.982  -6.485 -0.29 +0.04    +0.052 C 
DOCKED: BRANCH  30  31
DOCKED: ATOM     31  C   UNL d   1      -5.224 -11.851  -6.474 -0.33 +0.12    +0.115 C 
DOCKED: BRANCH  31  32
DOCKED: ATOM     32  C   UNL d   1      -4.652 -12.471  -5.229 -0.37 +0.18    +0.139 C 
DOCKED: ATOM     33  O   UNL d   1      -4.131 -13.576  -5.266 -0.15 -1.48    -0.650 OA
DOCKED: BRANCH  32  34
DOCKED: ATOM     34  O   UNL d   1      -4.709 -11.811  -4.060 +0.06 -0.61    -0.776 OA
DOCKED: ATOM     35  H   UNL d   1      -4.032 -11.149  -3.861 -0.46 +0.08    +0.167 HD
DOCKED: ENDBRANCH  32  34
DOCKED: ENDBRANCH  31  32
DOCKED: ENDBRANCH  30  31
DOCKED: ENDBRANCH   6  30
DOCKED: BRANCH  22  36
DOCKED: ATOM     36  C   UNL d   1      -9.174 -15.105 -10.262 -0.13 +0.02    +0.052 C 
DOCKED: BRANCH  36  37
DOCKED: ATOM     37  C   UNL d   1      -7.761 -15.321  -9.741 -0.16 +0.07    +0.115 C 
DOCKED: BRANCH  37  38
DOCKED: ATOM     38  C   UNL d   1      -7.759 -15.502  -8.250 -0.16 +0.12    +0.139 C 
DOCKED: ATOM     39  O   UNL d   1      -6.714 -15.691  -7.644 -0.35 -1.37    -0.650 OA
DOCKED: BRANCH  38  40
DOCKED: ATOM     40  O   UNL d   1      -8.917 -15.461  -7.567 +0.05 -0.39    -0.776 OA
DOCKED: ATOM     41  H   UNL d   1      -9.560 -16.173  -7.690 +0.02 +0.06    +0.167 HD
DOCKED: ENDBRANCH  38  40
DOCKED: ENDBRANCH  37  38
DOCKED: ENDBRANCH  36  37
DOCKED: ENDBRANCH  22  36
DOCKED: BRANCH  12  42
DOCKED: ATOM     42  C   UNL d   1     -10.256  -3.936 -10.849 -0.24 +0.00    +0.004 C 
DOCKED: ATOM     43  C   UNL d   1      -9.435  -3.024 -11.387 -0.40 +0.00    +0.012 C 
DOCKED: ENDBRANCH  12  42
DOCKED: BRANCH  17  44
DOCKED: ATOM     44  C   UNL d   1     -10.949  -9.937 -16.065 -0.04 +0.00    +0.004 C 
DOCKED: ATOM     45  C   UNL d   1     -12.098 -10.588 -16.275 -0.01 +0.00    +0.012 C 
DOCKED: ENDBRANCH  17  44
DOCKED: TORSDOF 10
DOCKED: TER
DOCKED: ENDMDL
________________________________________________________________________________


	BEGINNING GENETIC ALGORITHM DOCKING 12 of 100
Run: 12 Seed: 263005153 222673594 [ Run 12 of 100 GA/GALS ]
Beginning LAMARCKIAN GENETIC ALGORITHM (LGA), with a maximum of 25000000 energy evaluations.

Final-Value: -10.461


	FINAL GENETIC ALGORITHM DOCKED STATE
	_______________________________________________


Detailed state:  trans -12.359 5.942 5.440 quatxyzw -0.733759 -0.295724 -0.499729 0.352727 center -0.174 -0.001 -0.047 ntor 10 156.0381 175.7111 -162.1146 -98.8488 -180.0000 -105.1490 -65.0855 -127.8129 176.5702 -9.2577
State:	-12.359   5.942   5.440  -0.784 -0.316 -0.534 138.692    156.04  175.71 -162.11  -98.85 -180.00 -105.15  -65.09 -127.81  176.57   -9.26

DOCKED: MODEL       12
DOCKED: USER    Run = 12
DOCKED: USER    DPF = D:/Protein_go_brrr/autodock/final/mut_N102T/heme_Fe/dock.dpf
DOCKED: USER  
DOCKED: USER    Estimated Free Energy of Binding    =   -5.72 kcal/mol  [=(1)+(2)+(3)-(4)]
DOCKED: USER    Estimated Inhibition Constant, Ki   =   64.29 uM (micromolar)  [Temperature = 298.15 K]
DOCKED: USER    
DOCKED: USER    (1) Final Intermolecular Energy     =   -8.70 kcal/mol
DOCKED: USER        vdW + Hbond + desolv Energy     =   -7.72 kcal/mol
DOCKED: USER        Electrostatic Energy            =   -0.98 kcal/mol
DOCKED: USER    (2) Final Total Internal Energy     =   -1.76 kcal/mol
DOCKED: USER    (3) Torsional Free Energy           =   +2.98 kcal/mol
DOCKED: USER    (4) Unbound System's Energy  [=(2)] =   -1.76 kcal/mol
DOCKED: USER    
DOCKED: USER    
DOCKED: USER    NEWDPF move heme_Fe_opt.pdbqt
DOCKED: USER    NEWDPF about -0.174000 -0.001000 -0.047000
DOCKED: USER    NEWDPF tran0 -12.358784 5.942033 5.440388
DOCKED: USER    NEWDPF quaternion0 -0.733759 -0.295724 -0.499729 0.352727
DOCKED: USER    NEWDPF axisangle0 -0.784160 -0.316036 -0.534055 138.691580
DOCKED: USER    NEWDPF quat0 -0.784160 -0.316036 -0.534055 138.691580
DOCKED: USER    NEWDPF dihe0 156.04 175.71 -162.11 -98.85 -180.00 -105.15 -65.09 -127.81 176.57 -9.26 
DOCKED: USER  keepresnum = 1 
DOCKED: USER  
DOCKED: REMARK  10 active torsions:
DOCKED: REMARK  status: ('A' for Active; 'I' for Inactive)
DOCKED: REMARK    1  A    between atoms: C_6  and  C_10 
DOCKED: REMARK    2  A    between atoms: C_10  and  C_11 
DOCKED: REMARK    3  A    between atoms: C_11  and  C_12 
DOCKED: REMARK    4  A    between atoms: C_12  and  O_14 
DOCKED: REMARK    5  A    between atoms: C_17  and  C_20 
DOCKED: REMARK    6  A    between atoms: C_24  and  C_27 
DOCKED: REMARK    7  A    between atoms: C_31  and  C_34 
DOCKED: REMARK    8  A    between atoms: C_34  and  C_35 
DOCKED: REMARK    9  A    between atoms: C_35  and  C_36 
DOCKED: REMARK   10  A    between atoms: C_36  and  O_38 
DOCKED: USER                              x       y       z     vdW  Elec       q    Type
DOCKED: USER                           _______ _______ _______ _____ _____    ______ ____
DOCKED: ROOT
DOCKED: ATOM      1  C   UNL d   1     -12.508   4.300   4.219 -0.19 +0.01    +0.064 C 
DOCKED: ATOM      2  C   UNL d   1     -11.772   9.131   3.480 -0.14 -0.00    +0.064 A 
DOCKED: ATOM      3  C   UNL d   1     -10.781   9.625   8.154 -0.15 -0.02    +0.064 C 
DOCKED: ATOM      4  C   UNL d   1     -11.591   4.971   8.911 -0.27 -0.00    +0.064 C 
DOCKED: ATOM      5  C   UNL d   1     -12.474   5.629   3.593 -0.11 +0.01    +0.066 A 
DOCKED: ATOM      6  C   UNL d   1     -12.815   5.892   2.277 -0.11 -0.00    -0.021 A 
DOCKED: ATOM      7  C   UNL d   1     -12.606   7.233   2.071 -0.10 -0.00    -0.025 A 
DOCKED: ATOM      8  C   UNL d   1     -12.146   7.738   3.272 -0.15 +0.00    +0.066 A 
DOCKED: ATOM      9  C   UNL d   1     -12.857   7.981   0.797 -0.04 +0.00    +0.051 C 
DOCKED: ATOM     10  C   UNL d   1     -11.380   9.656   4.643 -0.17 -0.00    +0.066 A 
DOCKED: ATOM     11  C   UNL d   1     -10.918  10.967   4.785 -0.15 +0.00    -0.021 A 
DOCKED: ATOM     12  C   UNL d   1     -10.610  11.129   6.121 -0.20 -0.00    +0.000 A 
DOCKED: ATOM     13  C   UNL d   1     -10.895   9.894   6.729 -0.11 -0.02    +0.070 A 
DOCKED: ATOM     14  C   UNL d   1     -10.715  11.993   3.690 -0.10 -0.00    +0.052 C 
DOCKED: ATOM     15  C   UNL d   1     -11.005   8.423   8.737 -0.25 -0.01    +0.066 A 
DOCKED: ATOM     16  C   UNL d   1     -10.983   8.231  10.112 -0.26 +0.00    -0.021 A 
DOCKED: ATOM     17  C   UNL d   1     -11.213   6.889  10.333 -0.28 -0.00    +0.000 A 
DOCKED: ATOM     18  C   UNL d   1     -11.366   6.292   9.083 -0.28 -0.00    +0.070 A 
DOCKED: ATOM     19  C   UNL d   1     -10.730   9.262  11.179 -0.21 -0.00    +0.052 C 
DOCKED: ATOM     20  C   UNL d   1     -11.819   4.318   7.616 -0.25 -0.00    +0.066 A 
DOCKED: ATOM     21  C   UNL d   1     -11.854   2.933   7.403 -0.29 +0.00    -0.025 A 
DOCKED: ATOM     22  C   UNL d   1     -12.129   2.764   6.061 -0.25 +0.00    -0.021 A 
DOCKED: ATOM     23  C   UNL d   1     -12.244   4.046   5.510 -0.16 +0.00    +0.066 A 
DOCKED: ATOM     24  C   UNL d   1     -11.638   1.819   8.400 -0.32 -0.01    +0.051 C 
DOCKED: ATOM     25  N   UNL d   1     -12.076   6.761   4.199 -0.09 -0.02    -0.248 N 
DOCKED: ATOM     26  N   UNL d   1     -11.356   8.993   5.827 -0.16 +0.03    -0.248 N 
DOCKED: ATOM     27  N   UNL d   1     -11.281   7.241   8.104 -0.20 +0.02    -0.248 N 
DOCKED: ATOM     28  N   UNL d   1     -12.009   4.990   6.454 -0.08 -0.00    -0.248 N 
DOCKED: ATOM     29 FE   UNL d   1     -11.682   6.990   6.142 -0.05 -0.00    +0.000 Fe
DOCKED: ENDROOT
DOCKED: BRANCH   6  30
DOCKED: ATOM     30  C   UNL d   1     -13.332   4.924   1.269 -0.06 +0.01    +0.052 C 
DOCKED: BRANCH  30  31
DOCKED: ATOM     31  C   UNL d   1     -12.193   4.357   0.429 -0.12 +0.03    +0.115 C 
DOCKED: BRANCH  31  32
DOCKED: ATOM     32  C   UNL d   1     -12.044   2.881   0.672 -0.18 +0.08    +0.139 C 
DOCKED: ATOM     33  O   UNL d   1     -11.182   2.237   0.090 -0.38 -0.60    -0.650 OA
DOCKED: BRANCH  32  34
DOCKED: ATOM     34  O   UNL d   1     -12.859   2.254   1.536 -0.53 -0.52    -0.776 OA
DOCKED: ATOM     35  H   UNL d   1     -13.285   2.767   2.237 +0.04 +0.05    +0.167 HD
DOCKED: ENDBRANCH  32  34
DOCKED: ENDBRANCH  31  32
DOCKED: ENDBRANCH  30  31
DOCKED: ENDBRANCH   6  30
DOCKED: BRANCH  22  36
DOCKED: ATOM     36  C   UNL d   1     -12.227   1.444   5.342 -0.29 -0.02    +0.052 C 
DOCKED: BRANCH  36  37
DOCKED: ATOM     37  C   UNL d   1     -13.649   0.913   5.436 -0.13 -0.03    +0.115 C 
DOCKED: BRANCH  37  38
DOCKED: ATOM     38  C   UNL d   1     -14.643   1.955   5.005 -0.03 -0.01    +0.139 C 
DOCKED: ATOM     39  O   UNL d   1     -15.325   2.547   5.828 +0.03 +0.04    -0.650 OA
DOCKED: BRANCH  38  40
DOCKED: ATOM     40  O   UNL d   1     -14.791   2.241   3.699 +0.05 -0.03    -0.776 OA
DOCKED: ATOM     41  H   UNL d   1     -14.206   1.818   3.056 +0.03 +0.03    +0.167 HD
DOCKED: ENDBRANCH  38  40
DOCKED: ENDBRANCH  37  38
DOCKED: ENDBRANCH  36  37
DOCKED: ENDBRANCH  22  36
DOCKED: BRANCH  12  42
DOCKED: ATOM     42  C   UNL d   1     -10.067  12.383   6.728 -0.20 -0.00    +0.004 C 
DOCKED: ATOM     43  C   UNL d   1      -8.833  12.420   7.246 -0.32 -0.00    +0.012 C 
DOCKED: ENDBRANCH  12  42
DOCKED: BRANCH  17  44
DOCKED: ATOM     44  C   UNL d   1     -11.301   6.225  11.653 -0.23 +0.00    +0.004 C 
DOCKED: ATOM     45  C   UNL d   1     -10.409   6.489  12.613 -0.29 +0.00    +0.012 C 
DOCKED: ENDBRANCH  17  44
DOCKED: TORSDOF 10
DOCKED: TER
DOCKED: ENDMDL
________________________________________________________________________________


	BEGINNING GENETIC ALGORITHM DOCKING 13 of 100
Run: 13 Seed: 644276001 935170969 [ Run 13 of 100 GA/GALS ]
Beginning LAMARCKIAN GENETIC ALGORITHM (LGA), with a maximum of 25000000 energy evaluations.

Final-Value: -11.352


	FINAL GENETIC ALGORITHM DOCKED STATE
	_______________________________________________


Detailed state:  trans 7.627 -5.418 14.771 quatxyzw 0.369403 0.242594 0.879792 -0.175088 center -0.174 -0.001 -0.047 ntor 10 97.9772 118.6448 -169.7363 -169.9323 72.0172 178.9695 62.0405 56.9239 169.6806 -0.3612
State:	  7.627  -5.418  14.771   0.375  0.246  0.894 -159.832     97.98  118.64 -169.74 -169.93   72.02  178.97   62.04   56.92  169.68   -0.36

DOCKED: MODEL       13
DOCKED: USER    Run = 13
DOCKED: USER    DPF = D:/Protein_go_brrr/autodock/final/mut_N102T/heme_Fe/dock.dpf
DOCKED: USER  
DOCKED: USER    Estimated Free Energy of Binding    =   -7.68 kcal/mol  [=(1)+(2)+(3)-(4)]
DOCKED: USER    Estimated Inhibition Constant, Ki   =    2.35 uM (micromolar)  [Temperature = 298.15 K]
DOCKED: USER    
DOCKED: USER    (1) Final Intermolecular Energy     =  -10.66 kcal/mol
DOCKED: USER        vdW + Hbond + desolv Energy     =   -7.19 kcal/mol
DOCKED: USER        Electrostatic Energy            =   -3.48 kcal/mol
DOCKED: USER    (2) Final Total Internal Energy     =   -0.69 kcal/mol
DOCKED: USER    (3) Torsional Free Energy           =   +2.98 kcal/mol
DOCKED: USER    (4) Unbound System's Energy  [=(2)] =   -0.69 kcal/mol
DOCKED: USER    
DOCKED: USER    
DOCKED: USER    NEWDPF move heme_Fe_opt.pdbqt
DOCKED: USER    NEWDPF about -0.174000 -0.001000 -0.047000
DOCKED: USER    NEWDPF tran0 7.627188 -5.417716 14.771111
DOCKED: USER    NEWDPF quaternion0 0.369403 0.242594 0.879792 -0.175088
DOCKED: USER    NEWDPF axisangle0 0.375199 0.246401 0.893595 -159.832450
DOCKED: USER    NEWDPF quat0 0.375199 0.246401 0.893595 -159.832450
DOCKED: USER    NEWDPF dihe0 97.98 118.64 -169.74 -169.93 72.02 178.97 62.04 56.92 169.68 -0.36 
DOCKED: USER  keepresnum = 1 
DOCKED: USER  
DOCKED: REMARK  10 active torsions:
DOCKED: REMARK  status: ('A' for Active; 'I' for Inactive)
DOCKED: REMARK    1  A    between atoms: C_6  and  C_10 
DOCKED: REMARK    2  A    between atoms: C_10  and  C_11 
DOCKED: REMARK    3  A    between atoms: C_11  and  C_12 
DOCKED: REMARK    4  A    between atoms: C_12  and  O_14 
DOCKED: REMARK    5  A    between atoms: C_17  and  C_20 
DOCKED: REMARK    6  A    between atoms: C_24  and  C_27 
DOCKED: REMARK    7  A    between atoms: C_31  and  C_34 
DOCKED: REMARK    8  A    between atoms: C_34  and  C_35 
DOCKED: REMARK    9  A    between atoms: C_35  and  C_36 
DOCKED: REMARK   10  A    between atoms: C_36  and  O_38 
DOCKED: USER                              x       y       z     vdW  Elec       q    Type
DOCKED: USER                           _______ _______ _______ _____ _____    ______ ____
DOCKED: ROOT
DOCKED: ATOM      1  C   UNL d   1       9.345  -6.176  13.943 -0.14 +0.02    +0.064 C 
DOCKED: ATOM      2  C   UNL d   1       7.199  -1.725  14.039 -0.17 +0.01    +0.064 A 
DOCKED: ATOM      3  C   UNL d   1       4.370  -3.241  17.612 -0.14 -0.01    +0.064 C 
DOCKED: ATOM      4  C   UNL d   1       6.361  -7.589  17.465 -0.25 +0.00    +0.064 C 
DOCKED: ATOM      5  C   UNL d   1       8.946  -4.809  13.582 -0.09 +0.02    +0.066 A 
DOCKED: ATOM      6  C   UNL d   1       9.468  -4.087  12.522 -0.09 -0.01    -0.021 A 
DOCKED: ATOM      7  C   UNL d   1       8.874  -2.849  12.551 -0.11 -0.01    -0.025 A 
DOCKED: ATOM      8  C   UNL d   1       8.012  -2.864  13.630 -0.11 +0.01    +0.066 A 
DOCKED: ATOM      9  C   UNL d   1       9.114  -1.732  11.583 -0.20 +0.02    +0.051 C 
DOCKED: ATOM     10  C   UNL d   1       6.317  -1.730  15.040 -0.21 -0.00    +0.066 A 
DOCKED: ATOM     11  C   UNL d   1       5.638  -0.592  15.481 -0.32 +0.00    -0.021 A 
DOCKED: ATOM     12  C   UNL d   1       4.828  -0.999  16.522 -0.29 -0.00    +0.000 A 
DOCKED: ATOM     13  C   UNL d   1       5.063  -2.377  16.669 -0.16 -0.01    +0.070 A 
DOCKED: ATOM     14  C   UNL d   1       5.803   0.828  14.980 -0.47 -0.01    +0.052 C 
DOCKED: ATOM     15  C   UNL d   1       4.630  -4.558  17.793 -0.13 -0.01    +0.066 A 
DOCKED: ATOM     16  C   UNL d   1       3.879  -5.371  18.632 -0.15 +0.00    -0.021 A 
DOCKED: ATOM     17  C   UNL d   1       4.453  -6.624  18.594 -0.17 -0.00    +0.000 A 
DOCKED: ATOM     18  C   UNL d   1       5.547  -6.545  17.734 -0.19 -0.01    +0.070 A 
DOCKED: ATOM     19  C   UNL d   1       2.683  -4.981  19.458 -0.10 -0.01    +0.052 C 
DOCKED: ATOM     20  C   UNL d   1       7.483  -7.559  16.519 -0.20 +0.01    +0.066 A 
DOCKED: ATOM     21  C   UNL d   1       8.451  -8.563  16.379 -0.19 -0.01    -0.025 A 
DOCKED: ATOM     22  C   UNL d   1       9.284  -8.146  15.362 -0.16 -0.01    -0.021 A 
DOCKED: ATOM     23  C   UNL d   1       8.798  -6.907  14.927 -0.15 +0.01    +0.066 A 
DOCKED: ATOM     24  C   UNL d   1       8.597  -9.849  17.160 -0.17 +0.02    +0.051 C 
DOCKED: ATOM     25  N   UNL d   1       8.050  -4.060  14.250 -0.06 -0.04    -0.248 N 
DOCKED: ATOM     26  N   UNL d   1       5.978  -2.822  15.772 -0.08 +0.01    -0.248 N 
DOCKED: ATOM     27  N   UNL d   1       5.630  -5.287  17.208 -0.09 +0.01    -0.248 N 
DOCKED: ATOM     28  N   UNL d   1       7.725  -6.534  15.667 -0.06 -0.03    -0.248 N 
DOCKED: ATOM     29 FE   UNL d   1       6.851  -4.679  15.721 -0.03 +0.00    +0.000 Fe
DOCKED: ENDROOT
DOCKED: BRANCH   6  30
DOCKED: ATOM     30  C   UNL d   1      10.464  -4.554  11.517 -0.12 +0.04    +0.052 C 
DOCKED: BRANCH  30  31
DOCKED: ATOM     31  C   UNL d   1      11.855  -4.025  11.849 -0.06 +0.08    +0.115 C 
DOCKED: BRANCH  31  32
DOCKED: ATOM     32  C   UNL d   1      12.358  -3.137  10.744 +0.02 +0.17    +0.139 C 
DOCKED: ATOM     33  O   UNL d   1      11.880  -2.025  10.571 -0.05 -0.64    -0.650 OA
DOCKED: BRANCH  32  34
DOCKED: ATOM     34  O   UNL d   1      13.342  -3.561   9.933 -0.45 -1.25    -0.776 OA
DOCKED: ATOM     35  H   UNL d   1      14.260  -3.486  10.229 +0.01 +0.14    +0.167 HD
DOCKED: ENDBRANCH  32  34
DOCKED: ENDBRANCH  31  32
DOCKED: ENDBRANCH  30  31
DOCKED: ENDBRANCH   6  30
DOCKED: BRANCH  22  36
DOCKED: ATOM     36  C   UNL d   1      10.507  -8.876  14.870 -0.13 +0.02    +0.052 C 
DOCKED: BRANCH  36  37
DOCKED: ATOM     37  C   UNL d   1      10.151  -9.706  13.646 -0.15 +0.07    +0.115 C 
DOCKED: BRANCH  37  38
DOCKED: ATOM     38  C   UNL d   1      10.504 -11.151  13.854 +0.10 +0.20    +0.139 C 
DOCKED: ATOM     39  O   UNL d   1      10.275 -11.982  12.987 -0.39 -1.19    -0.650 OA
DOCKED: BRANCH  38  40
DOCKED: ATOM     40  O   UNL d   1      11.075 -11.544  15.007 -0.14 -1.25    -0.776 OA
DOCKED: ATOM     41  H   UNL d   1      11.937 -11.180  15.252 +0.01 +0.14    +0.167 HD
DOCKED: ENDBRANCH  38  40
DOCKED: ENDBRANCH  37  38
DOCKED: ENDBRANCH  36  37
DOCKED: ENDBRANCH  22  36
DOCKED: BRANCH  12  42
DOCKED: ATOM     42  C   UNL d   1       3.924  -0.101  17.305 -0.46 -0.00    +0.004 C 
DOCKED: ATOM     43  C   UNL d   1       4.052   0.017  18.633 -0.44 -0.00    +0.012 C 
DOCKED: ENDBRANCH  12  42
DOCKED: BRANCH  17  44
DOCKED: ATOM     44  C   UNL d   1       3.975  -7.825  19.317 -0.14 -0.00    +0.004 C 
DOCKED: ATOM     45  C   UNL d   1       4.728  -8.402  20.259 -0.12 -0.00    +0.012 C 
DOCKED: ENDBRANCH  17  44
DOCKED: TORSDOF 10
DOCKED: TER
DOCKED: ENDMDL
________________________________________________________________________________


	BEGINNING GENETIC ALGORITHM DOCKING 14 of 100
Run: 14 Seed: 775354604 1335610733 [ Run 14 of 100 GA/GALS ]
Beginning LAMARCKIAN GENETIC ALGORITHM (LGA), with a maximum of 25000000 energy evaluations.

Final-Value: -10.812


	FINAL GENETIC ALGORITHM DOCKED STATE
	_______________________________________________


Detailed state:  trans 10.404 0.956 14.129 quatxyzw -0.765579 0.122872 -0.522578 0.354547 center -0.174 -0.001 -0.047 ntor 10 -10.4233 -147.7805 65.6866 48.7332 -105.2474 -179.2509 -120.2092 43.1760 178.2852 -152.7719
State:	 10.404   0.956  14.129  -0.819  0.131 -0.559 138.469    -10.42 -147.78   65.69   48.73 -105.25 -179.25 -120.21   43.18  178.29 -152.77

DOCKED: MODEL       14
DOCKED: USER    Run = 14
DOCKED: USER    DPF = D:/Protein_go_brrr/autodock/final/mut_N102T/heme_Fe/dock.dpf
DOCKED: USER  
DOCKED: USER    Estimated Free Energy of Binding    =   -6.33 kcal/mol  [=(1)+(2)+(3)-(4)]
DOCKED: USER    Estimated Inhibition Constant, Ki   =   23.06 uM (micromolar)  [Temperature = 298.15 K]
DOCKED: USER    
DOCKED: USER    (1) Final Intermolecular Energy     =   -9.31 kcal/mol
DOCKED: USER        vdW + Hbond + desolv Energy     =   -6.61 kcal/mol
DOCKED: USER        Electrostatic Energy            =   -2.70 kcal/mol
DOCKED: USER    (2) Final Total Internal Energy     =   -1.50 kcal/mol
DOCKED: USER    (3) Torsional Free Energy           =   +2.98 kcal/mol
DOCKED: USER    (4) Unbound System's Energy  [=(2)] =   -1.50 kcal/mol
DOCKED: USER    
DOCKED: USER    
DOCKED: USER    NEWDPF move heme_Fe_opt.pdbqt
DOCKED: USER    NEWDPF about -0.174000 -0.001000 -0.047000
DOCKED: USER    NEWDPF tran0 10.403893 0.956038 14.129265
DOCKED: USER    NEWDPF quaternion0 -0.765579 0.122872 -0.522578 0.354547
DOCKED: USER    NEWDPF axisangle0 -0.818768 0.131408 -0.558884 138.468666
DOCKED: USER    NEWDPF quat0 -0.818768 0.131408 -0.558884 138.468666
DOCKED: USER    NEWDPF dihe0 -10.42 -147.78 65.69 48.73 -105.25 -179.25 -120.21 43.18 178.29 -152.77 
DOCKED: USER  keepresnum = 1 
DOCKED: USER  
DOCKED: REMARK  10 active torsions:
DOCKED: REMARK  status: ('A' for Active; 'I' for Inactive)
DOCKED: REMARK    1  A    between atoms: C_6  and  C_10 
DOCKED: REMARK    2  A    between atoms: C_10  and  C_11 
DOCKED: REMARK    3  A    between atoms: C_11  and  C_12 
DOCKED: REMARK    4  A    between atoms: C_12  and  O_14 
DOCKED: REMARK    5  A    between atoms: C_17  and  C_20 
DOCKED: REMARK    6  A    between atoms: C_24  and  C_27 
DOCKED: REMARK    7  A    between atoms: C_31  and  C_34 
DOCKED: REMARK    8  A    between atoms: C_34  and  C_35 
DOCKED: REMARK    9  A    between atoms: C_35  and  C_36 
DOCKED: REMARK   10  A    between atoms: C_36  and  O_38 
DOCKED: USER                              x       y       z     vdW  Elec       q    Type
DOCKED: USER                           _______ _______ _______ _____ _____    ______ ____
DOCKED: ROOT
DOCKED: ATOM      1  C   UNL d   1       9.977   0.280  12.239 -0.25 +0.02    +0.064 C 
DOCKED: ATOM      2  C   UNL d   1      13.243   3.465  14.141 -0.13 +0.04    +0.064 A 
DOCKED: ATOM      3  C   UNL d   1      12.322   1.695  18.510 -0.10 +0.03    +0.064 C 
DOCKED: ATOM      4  C   UNL d   1       9.080  -1.323  16.703 -0.09 +0.02    +0.064 C 
DOCKED: ATOM      5  C   UNL d   1      10.920   1.398  12.380 -0.23 +0.02    +0.066 A 
DOCKED: ATOM      6  C   UNL d   1      11.333   2.219  11.343 -0.38 -0.01    -0.021 A 
DOCKED: ATOM      7  C   UNL d   1      12.243   3.101  11.872 -0.32 -0.01    -0.025 A 
DOCKED: ATOM      8  C   UNL d   1      12.351   2.784  13.212 -0.22 +0.03    +0.066 A 
DOCKED: ATOM      9  C   UNL d   1      12.947   4.194  11.128 -0.35 +0.02    +0.051 C 
DOCKED: ATOM     10  C   UNL d   1      13.325   3.217  15.449 -0.09 +0.05    +0.066 A 
DOCKED: ATOM     11  C   UNL d   1      14.270   3.806  16.292 -0.08 -0.01    -0.021 A 
DOCKED: ATOM     12  C   UNL d   1      14.037   3.299  17.555 -0.09 +0.00    +0.000 A 
DOCKED: ATOM     13  C   UNL d   1      12.955   2.412  17.414 -0.11 +0.04    +0.070 A 
DOCKED: ATOM     14  C   UNL d   1      15.386   4.753  15.902 -0.08 +0.03    +0.052 C 
DOCKED: ATOM     15  C   UNL d   1      11.315   0.801  18.372 -0.09 +0.02    +0.066 A 
DOCKED: ATOM     16  C   UNL d   1      10.670   0.212  19.452 -0.07 -0.00    -0.021 A 
DOCKED: ATOM     17  C   UNL d   1       9.737  -0.662  18.933 -0.06 +0.00    +0.000 A 
DOCKED: ATOM     18  C   UNL d   1       9.837  -0.588  17.546 -0.04 +0.02    +0.070 A 
DOCKED: ATOM     19  C   UNL d   1      10.936   0.440  20.916 -0.04 +0.01    +0.052 C 
DOCKED: ATOM     20  C   UNL d   1       9.115  -1.228  15.239 -0.10 +0.02    +0.066 A 
DOCKED: ATOM     21  C   UNL d   1       8.487  -2.116  14.354 -0.10 -0.00    -0.025 A 
DOCKED: ATOM     22  C   UNL d   1       8.745  -1.633  13.088 -0.15 -0.00    -0.021 A 
DOCKED: ATOM     23  C   UNL d   1       9.521  -0.479  13.249 -0.17 +0.02    +0.066 A 
DOCKED: ATOM     24  C   UNL d   1       7.688  -3.358  14.673 -0.11 +0.01    +0.051 C 
DOCKED: ATOM     25  N   UNL d   1      11.538   1.753  13.520 -0.13 -0.09    -0.248 N 
DOCKED: ATOM     26  N   UNL d   1      12.527   2.355  16.129 -0.11 -0.16    -0.248 N 
DOCKED: ATOM     27  N   UNL d   1      10.776   0.343  17.199 -0.08 -0.09    -0.248 N 
DOCKED: ATOM     28  N   UNL d   1       9.781  -0.262  14.561 -0.10 -0.07    -0.248 N 
DOCKED: ATOM     29 FE   UNL d   1      11.153   1.045  15.346 -0.03 +0.00    +0.000 Fe
DOCKED: ENDROOT
DOCKED: BRANCH   6  30
DOCKED: ATOM     30  C   UNL d   1      10.871   2.184   9.927 -0.46 +0.01    +0.052 C 
DOCKED: BRANCH  30  31
DOCKED: ATOM     31  C   UNL d   1      11.781   1.299   9.083 -0.39 +0.04    +0.115 C 
DOCKED: BRANCH  31  32
DOCKED: ATOM     32  C   UNL d   1      11.788  -0.107   9.616 -0.26 +0.08    +0.139 C 
DOCKED: ATOM     33  O   UNL d   1      12.751  -0.534  10.238 +0.03 -0.34    -0.650 OA
DOCKED: BRANCH  32  34
DOCKED: ATOM     34  O   UNL d   1      10.731  -0.911   9.412 -0.46 -0.75    -0.776 OA
DOCKED: ATOM     35  H   UNL d   1      10.809  -1.852   9.624 +0.03 +0.23    +0.167 HD
DOCKED: ENDBRANCH  32  34
DOCKED: ENDBRANCH  31  32
DOCKED: ENDBRANCH  30  31
DOCKED: ENDBRANCH   6  30
DOCKED: BRANCH  22  36
DOCKED: ATOM     36  C   UNL d   1       8.311  -2.274  11.796 -0.21 +0.02    +0.052 C 
DOCKED: BRANCH  36  37
DOCKED: ATOM     37  C   UNL d   1       8.814  -3.709  11.741 -0.16 +0.05    +0.115 C 
DOCKED: BRANCH  37  38
DOCKED: ATOM     38  C   UNL d   1       9.348  -4.040  10.376 -0.09 +0.17    +0.139 C 
DOCKED: ATOM     39  O   UNL d   1       9.787  -5.153  10.129 -0.03 -0.99    -0.650 OA
DOCKED: BRANCH  38  40
DOCKED: ATOM     40  O   UNL d   1       9.348  -3.104   9.410 -0.49 -1.34    -0.776 OA
DOCKED: ATOM     41  H   UNL d   1       9.463  -2.175   9.656 +0.04 +0.19    +0.167 HD
DOCKED: ENDBRANCH  38  40
DOCKED: ENDBRANCH  37  38
DOCKED: ENDBRANCH  36  37
DOCKED: ENDBRANCH  22  36
DOCKED: BRANCH  12  42
DOCKED: ATOM     42  C   UNL d   1      14.825   3.649  18.777 -0.05 +0.00    +0.004 C 
DOCKED: ATOM     43  C   UNL d   1      14.265   4.326  19.788 -0.05 +0.01    +0.012 C 
DOCKED: ENDBRANCH  12  42
DOCKED: BRANCH  17  44
DOCKED: ATOM     44  C   UNL d   1       8.796  -1.497  19.714 -0.06 +0.00    +0.004 C 
DOCKED: ATOM     45  C   UNL d   1       7.511  -1.150  19.835 -0.10 +0.00    +0.012 C 
DOCKED: ENDBRANCH  17  44
DOCKED: TORSDOF 10
DOCKED: TER
DOCKED: ENDMDL
________________________________________________________________________________


	BEGINNING GENETIC ALGORITHM DOCKING 15 of 100
Run: 15 Seed: 972473072 183163078 [ Run 15 of 100 GA/GALS ]
Beginning LAMARCKIAN GENETIC ALGORITHM (LGA), with a maximum of 25000000 energy evaluations.

Final-Value: -11.064


	FINAL GENETIC ALGORITHM DOCKED STATE
	_______________________________________________


Detailed state:  trans -8.495 -13.617 -9.243 quatxyzw 0.065044 -0.779730 0.123320 0.610396 center -0.174 -0.001 -0.047 ntor 10 -90.4127 -96.6202 -163.7365 -136.3123 117.0919 161.1643 98.3611 72.0994 -173.6491 153.6006
State:	 -8.495 -13.617  -9.243   0.082 -0.984  0.156 104.764    -90.41  -96.62 -163.74 -136.31  117.09  161.16   98.36   72.10 -173.65  153.60

DOCKED: MODEL       15
DOCKED: USER    Run = 15
DOCKED: USER    DPF = D:/Protein_go_brrr/autodock/final/mut_N102T/heme_Fe/dock.dpf
DOCKED: USER  
DOCKED: USER    Estimated Free Energy of Binding    =   -7.31 kcal/mol  [=(1)+(2)+(3)-(4)]
DOCKED: USER    Estimated Inhibition Constant, Ki   =    4.38 uM (micromolar)  [Temperature = 298.15 K]
DOCKED: USER    
DOCKED: USER    (1) Final Intermolecular Energy     =  -10.29 kcal/mol
DOCKED: USER        vdW + Hbond + desolv Energy     =   -6.64 kcal/mol
DOCKED: USER        Electrostatic Energy            =   -3.66 kcal/mol
DOCKED: USER    (2) Final Total Internal Energy     =   -0.77 kcal/mol
DOCKED: USER    (3) Torsional Free Energy           =   +2.98 kcal/mol
DOCKED: USER    (4) Unbound System's Energy  [=(2)] =   -0.77 kcal/mol
DOCKED: USER    
DOCKED: USER    
DOCKED: USER    NEWDPF move heme_Fe_opt.pdbqt
DOCKED: USER    NEWDPF about -0.174000 -0.001000 -0.047000
DOCKED: USER    NEWDPF tran0 -8.494634 -13.617005 -9.243148
DOCKED: USER    NEWDPF quaternion0 0.065044 -0.779730 0.123320 0.610396
DOCKED: USER    NEWDPF axisangle0 0.082116 -0.984387 0.155688 104.763736
DOCKED: USER    NEWDPF quat0 0.082116 -0.984387 0.155688 104.763736
DOCKED: USER    NEWDPF dihe0 -90.41 -96.62 -163.74 -136.31 117.09 161.16 98.36 72.10 -173.65 153.60 
DOCKED: USER  keepresnum = 1 
DOCKED: USER  
DOCKED: REMARK  10 active torsions:
DOCKED: REMARK  status: ('A' for Active; 'I' for Inactive)
DOCKED: REMARK    1  A    between atoms: C_6  and  C_10 
DOCKED: REMARK    2  A    between atoms: C_10  and  C_11 
DOCKED: REMARK    3  A    between atoms: C_11  and  C_12 
DOCKED: REMARK    4  A    between atoms: C_12  and  O_14 
DOCKED: REMARK    5  A    between atoms: C_17  and  C_20 
DOCKED: REMARK    6  A    between atoms: C_24  and  C_27 
DOCKED: REMARK    7  A    between atoms: C_31  and  C_34 
DOCKED: REMARK    8  A    between atoms: C_34  and  C_35 
DOCKED: REMARK    9  A    between atoms: C_35  and  C_36 
DOCKED: REMARK   10  A    between atoms: C_36  and  O_38 
DOCKED: USER                              x       y       z     vdW  Elec       q    Type
DOCKED: USER                           _______ _______ _______ _____ _____    ______ ____
DOCKED: ROOT
DOCKED: ATOM      1  C   UNL d   1      -7.495 -13.235  -7.493 -0.16 +0.05    +0.064 C 
DOCKED: ATOM      2  C   UNL d   1      -8.745 -17.329  -9.963 -0.08 +0.02    +0.064 A 
DOCKED: ATOM      3  C   UNL d   1      -9.690 -14.629 -13.822 -0.12 +0.01    +0.064 C 
DOCKED: ATOM      4  C   UNL d   1      -8.585 -10.644 -11.417 -0.24 +0.02    +0.064 C 
DOCKED: ATOM      5  C   UNL d   1      -7.839 -14.629  -7.804 -0.14 +0.06    +0.066 A 
DOCKED: ATOM      6  C   UNL d   1      -7.800 -15.675  -6.897 -0.10 -0.02    -0.021 A 
DOCKED: ATOM      7  C   UNL d   1      -8.144 -16.812  -7.585 -0.07 -0.02    -0.025 A 
DOCKED: ATOM      8  C   UNL d   1      -8.380 -16.416  -8.887 -0.11 +0.03    +0.066 A 
DOCKED: ATOM      9  C   UNL d   1      -8.256 -18.191  -7.011 -0.02 +0.03    +0.051 C 
DOCKED: ATOM     10  C   UNL d   1      -9.034 -16.965 -11.214 -0.09 +0.02    +0.066 A 
DOCKED: ATOM     11  C   UNL d   1      -9.269 -17.872 -12.250 -0.08 -0.00    -0.021 A 
DOCKED: ATOM     12  C   UNL d   1      -9.527 -17.119 -13.378 -0.10 +0.00    +0.000 A 
DOCKED: ATOM     13  C   UNL d   1      -9.428 -15.778 -12.969 -0.09 +0.01    +0.070 A 
DOCKED: ATOM     14  C   UNL d   1      -9.183 -19.384 -12.185 -0.04 +0.01    +0.052 C 
DOCKED: ATOM     15  C   UNL d   1      -9.545 -13.336 -13.447 -0.07 +0.01    +0.066 A 
DOCKED: ATOM     16  C   UNL d   1      -9.901 -12.266 -14.259 -0.11 -0.00    -0.021 A 
DOCKED: ATOM     17  C   UNL d   1      -9.580 -11.116 -13.569 -0.14 +0.00    +0.000 A 
DOCKED: ATOM     18  C   UNL d   1      -9.031 -11.511 -12.351 -0.17 +0.02    +0.070 A 
DOCKED: ATOM     19  C   UNL d   1     -10.496 -12.320 -15.640 -0.05 +0.01    +0.052 C 
DOCKED: ATOM     20  C   UNL d   1      -8.058 -11.021 -10.100 -0.21 +0.02    +0.066 A 
DOCKED: ATOM     21  C   UNL d   1      -7.411 -10.155  -9.207 -0.28 -0.01    -0.025 A 
DOCKED: ATOM     22  C   UNL d   1      -7.120 -10.911  -8.091 -0.26 -0.01    -0.021 A 
DOCKED: ATOM     23  C   UNL d   1      -7.593 -12.204  -8.347 -0.13 +0.03    +0.066 A 
DOCKED: ATOM     24  C   UNL d   1      -7.076  -8.693  -9.388 -0.40 +0.01    +0.051 C 
DOCKED: ATOM     25  N   UNL d   1      -8.203 -15.086  -9.015 -0.13 -0.14    -0.248 N 
DOCKED: ATOM     26  N   UNL d   1      -9.119 -15.683 -11.652 -0.04 -0.05    -0.248 N 
DOCKED: ATOM     27  N   UNL d   1      -9.049 -12.875 -12.257 +0.04 -0.05    -0.248 N 
DOCKED: ATOM     28  N   UNL d   1      -8.124 -12.276  -9.592 -0.13 -0.07    -0.248 N 
DOCKED: ATOM     29 FE   UNL d   1      -8.621 -13.978 -10.623 -0.04 +0.00    +0.000 Fe
DOCKED: ENDROOT
DOCKED: BRANCH   6  30
DOCKED: ATOM     30  C   UNL d   1      -7.474 -15.597  -5.445 -0.09 +0.05    +0.052 C 
DOCKED: BRANCH  30  31
DOCKED: ATOM     31  C   UNL d   1      -5.966 -15.639  -5.227 +0.05 +0.21    +0.115 C 
DOCKED: BRANCH  31  32
DOCKED: ATOM     32  C   UNL d   1      -5.467 -17.057  -5.269 -0.13 +0.25    +0.139 C 
DOCKED: ATOM     33  O   UNL d   1      -4.680 -17.416  -6.133 -0.43 -1.36    -0.650 OA
DOCKED: BRANCH  32  34
DOCKED: ATOM     34  O   UNL d   1      -5.886 -17.947  -4.353 +0.03 -1.28    -0.776 OA
DOCKED: ATOM     35  H   UNL d   1      -6.683 -18.466  -4.533 +0.02 +0.19    +0.167 HD
DOCKED: ENDBRANCH  32  34
DOCKED: ENDBRANCH  31  32
DOCKED: ENDBRANCH  30  31
DOCKED: ENDBRANCH   6  30
DOCKED: BRANCH  22  36
DOCKED: ATOM     36  C   UNL d   1      -6.386 -10.428  -6.868 -0.41 +0.02    +0.052 C 
DOCKED: BRANCH  36  37
DOCKED: ATOM     37  C   UNL d   1      -5.004 -11.064  -6.814 -0.29 +0.08    +0.115 C 
DOCKED: BRANCH  37  38
DOCKED: ATOM     38  C   UNL d   1      -4.923 -12.084  -5.715 -0.39 +0.16    +0.139 C 
DOCKED: ATOM     39  O   UNL d   1      -4.046 -12.935  -5.715 -0.53 -1.34    -0.650 OA
DOCKED: BRANCH  38  40
DOCKED: ATOM     40  O   UNL d   1      -5.824 -12.068  -4.716 -0.47 -0.73    -0.776 OA
DOCKED: ATOM     41  H   UNL d   1      -6.681 -12.497  -4.850 +0.06 +0.14    +0.167 HD
DOCKED: ENDBRANCH  38  40
DOCKED: ENDBRANCH  37  38
DOCKED: ENDBRANCH  36  37
DOCKED: ENDBRANCH  22  36
DOCKED: BRANCH  12  42
DOCKED: ATOM     42  C   UNL d   1      -9.824 -17.679 -14.732 -0.05 +0.00    +0.004 C 
DOCKED: ATOM     43  C   UNL d   1      -8.997 -17.464 -15.764 -0.07 +0.00    +0.012 C 
DOCKED: ENDBRANCH  12  42
DOCKED: BRANCH  17  44
DOCKED: ATOM     44  C   UNL d   1      -9.803  -9.729 -14.035 -0.15 +0.00    +0.004 C 
DOCKED: ATOM     45  C   UNL d   1      -8.935  -9.136 -14.862 -0.21 +0.01    +0.012 C 
DOCKED: ENDBRANCH  17  44
DOCKED: TORSDOF 10
DOCKED: TER
DOCKED: ENDMDL
________________________________________________________________________________


	BEGINNING GENETIC ALGORITHM DOCKING 16 of 100
Run: 16 Seed: 841556657 1091616858 [ Run 16 of 100 GA/GALS ]
Beginning LAMARCKIAN GENETIC ALGORITHM (LGA), with a maximum of 25000000 energy evaluations.

Final-Value: -12.002


	FINAL GENETIC ALGORITHM DOCKED STATE
	_______________________________________________


Detailed state:  trans 8.806 -5.231 10.984 quatxyzw 0.406665 0.501022 -0.763443 -0.027498 center -0.174 -0.001 -0.047 ntor 10 -44.0646 105.0857 -133.6524 1.6409 29.4394 -160.2177 -84.1201 73.2148 -179.9761 -151.3830
State:	  8.806  -5.231  10.984   0.407  0.501 -0.764 -176.849    -44.06  105.09 -133.65    1.64   29.44 -160.22  -84.12   73.21 -179.98 -151.38

DOCKED: MODEL       16
DOCKED: USER    Run = 16
DOCKED: USER    DPF = D:/Protein_go_brrr/autodock/final/mut_N102T/heme_Fe/dock.dpf
DOCKED: USER  
DOCKED: USER    Estimated Free Energy of Binding    =   -7.03 kcal/mol  [=(1)+(2)+(3)-(4)]
DOCKED: USER    Estimated Inhibition Constant, Ki   =    7.01 uM (micromolar)  [Temperature = 298.15 K]
DOCKED: USER    
DOCKED: USER    (1) Final Intermolecular Energy     =  -10.01 kcal/mol
DOCKED: USER        vdW + Hbond + desolv Energy     =   -8.41 kcal/mol
DOCKED: USER        Electrostatic Energy            =   -1.61 kcal/mol
DOCKED: USER    (2) Final Total Internal Energy     =   -1.99 kcal/mol
DOCKED: USER    (3) Torsional Free Energy           =   +2.98 kcal/mol
DOCKED: USER    (4) Unbound System's Energy  [=(2)] =   -1.99 kcal/mol
DOCKED: USER    
DOCKED: USER    
DOCKED: USER    NEWDPF move heme_Fe_opt.pdbqt
DOCKED: USER    NEWDPF about -0.174000 -0.001000 -0.047000
DOCKED: USER    NEWDPF tran0 8.806348 -5.230972 10.984198
DOCKED: USER    NEWDPF quaternion0 0.406665 0.501022 -0.763443 -0.027498
DOCKED: USER    NEWDPF axisangle0 0.406819 0.501211 -0.763731 -176.848572
DOCKED: USER    NEWDPF quat0 0.406819 0.501211 -0.763731 -176.848572
DOCKED: USER    NEWDPF dihe0 -44.06 105.09 -133.65 1.64 29.44 -160.22 -84.12 73.21 -179.98 -151.38 
DOCKED: USER  keepresnum = 1 
DOCKED: USER  
DOCKED: REMARK  10 active torsions:
DOCKED: REMARK  status: ('A' for Active; 'I' for Inactive)
DOCKED: REMARK    1  A    between atoms: C_6  and  C_10 
DOCKED: REMARK    2  A    between atoms: C_10  and  C_11 
DOCKED: REMARK    3  A    between atoms: C_11  and  C_12 
DOCKED: REMARK    4  A    between atoms: C_12  and  O_14 
DOCKED: REMARK    5  A    between atoms: C_17  and  C_20 
DOCKED: REMARK    6  A    between atoms: C_24  and  C_27 
DOCKED: REMARK    7  A    between atoms: C_31  and  C_34 
DOCKED: REMARK    8  A    between atoms: C_34  and  C_35 
DOCKED: REMARK    9  A    between atoms: C_35  and  C_36 
DOCKED: REMARK   10  A    between atoms: C_36  and  O_38 
DOCKED: USER                              x       y       z     vdW  Elec       q    Type
DOCKED: USER                           _______ _______ _______ _____ _____    ______ ____
DOCKED: ROOT
DOCKED: ATOM      1  C   UNL d   1       9.787  -6.345  12.402 -0.16 +0.03    +0.064 C 
DOCKED: ATOM      2  C   UNL d   1       5.969  -3.206  12.470 -0.15 +0.01    +0.064 A 
DOCKED: ATOM      3  C   UNL d   1       5.683  -3.558   7.689 -0.14 +0.02    +0.064 C 
DOCKED: ATOM      4  C   UNL d   1       9.443  -6.514   7.590 -0.05 +0.07    +0.064 C 
DOCKED: ATOM      5  C   UNL d   1       8.792  -5.364  12.856 -0.15 +0.02    +0.066 A 
DOCKED: ATOM      6  C   UNL d   1       8.656  -4.923  14.163 -0.11 -0.00    -0.021 A 
DOCKED: ATOM      7  C   UNL d   1       7.593  -4.054  14.181 -0.06 -0.00    -0.025 A 
DOCKED: ATOM      8  C   UNL d   1       7.121  -3.998  12.884 -0.05 +0.01    +0.066 A 
DOCKED: ATOM      9  C   UNL d   1       7.081  -3.311  15.377 -0.12 +0.00    +0.051 C 
DOCKED: ATOM     10  C   UNL d   1       5.528  -3.090  11.216 -0.25 +0.01    +0.066 A 
DOCKED: ATOM     11  C   UNL d   1       4.355  -2.417  10.867 -0.44 -0.00    -0.021 A 
DOCKED: ATOM     12  C   UNL d   1       4.241  -2.518   9.495 -0.38 +0.00    +0.000 A 
DOCKED: ATOM     13  C   UNL d   1       5.357  -3.262   9.075 -0.05 +0.02    +0.070 A 
DOCKED: ATOM     14  C   UNL d   1       3.354  -1.768  11.802 -0.55 -0.00    +0.052 C 
DOCKED: ATOM     15  C   UNL d   1       6.728  -4.317   7.283 -0.36 +0.02    +0.066 A 
DOCKED: ATOM     16  C   UNL d   1       7.063  -4.494   5.947 -0.42 -0.01    -0.021 A 
DOCKED: ATOM     17  C   UNL d   1       8.145  -5.349   5.915 -0.24 +0.00    +0.000 A 
DOCKED: ATOM     18  C   UNL d   1       8.443  -5.678   7.236 -0.23 +0.06    +0.070 A 
DOCKED: ATOM     19  C   UNL d   1       6.379  -3.905   4.742 -0.50 +0.01    +0.052 C 
DOCKED: ATOM     20  C   UNL d   1       9.824  -6.835   8.971 +0.10 +0.08    +0.066 A 
DOCKED: ATOM     21  C   UNL d   1      10.719  -7.845   9.350 -0.12 -0.02    -0.025 A 
DOCKED: ATOM     22  C   UNL d   1      10.812  -7.770  10.725 -0.13 -0.01    -0.021 A 
DOCKED: ATOM     23  C   UNL d   1       9.970  -6.727  11.128 -0.13 +0.04    +0.066 A 
DOCKED: ATOM     24  C   UNL d   1      11.450  -8.836   8.474 -0.14 +0.02    +0.051 C 
DOCKED: ATOM     25  N   UNL d   1       7.858  -4.788  12.079 -0.12 -0.07    -0.248 N 
DOCKED: ATOM     26  N   UNL d   1       6.137  -3.618  10.125 -0.19 -0.06    -0.248 N 
DOCKED: ATOM     27  N   UNL d   1       7.600  -5.010   8.080 -0.26 -0.15    -0.248 N 
DOCKED: ATOM     28  N   UNL d   1       9.336  -6.190  10.058 -0.11 -0.23    -0.248 N 
DOCKED: ATOM     29 FE   UNL d   1       7.737  -4.905  10.090 -0.06 +0.00    +0.000 Fe
DOCKED: ENDROOT
DOCKED: BRANCH   6  30
DOCKED: ATOM     30  C   UNL d   1       9.505  -5.290  15.331 -0.06 +0.01    +0.052 C 
DOCKED: BRANCH  30  31
DOCKED: ATOM     31  C   UNL d   1       8.939  -6.512  16.047 -0.09 +0.02    +0.115 C 
DOCKED: BRANCH  31  32
DOCKED: ATOM     32  C   UNL d   1       9.620  -7.764  15.570 -0.11 +0.04    +0.139 C 
DOCKED: ATOM     33  O   UNL d   1      10.777  -7.732  15.173 +0.02 -0.18    -0.650 OA
DOCKED: BRANCH  32  34
DOCKED: ATOM     34  O   UNL d   1       8.960  -8.935  15.575 +0.00 -0.34    -0.776 OA
DOCKED: ATOM     35  H   UNL d   1       9.031  -9.517  14.805 +0.04 +0.11    +0.167 HD
DOCKED: ENDBRANCH  32  34
DOCKED: ENDBRANCH  31  32
DOCKED: ENDBRANCH  30  31
DOCKED: ENDBRANCH   6  30
DOCKED: BRANCH  22  36
DOCKED: ATOM     36  C   UNL d   1      11.627  -8.683  11.602 -0.10 +0.02    +0.052 C 
DOCKED: BRANCH  36  37
DOCKED: ATOM     37  C   UNL d   1      11.252 -10.132  11.324 -0.12 +0.05    +0.115 C 
DOCKED: BRANCH  37  38
DOCKED: ATOM     38  C   UNL d   1      10.456 -10.709  12.460 -0.14 +0.10    +0.139 C 
DOCKED: ATOM     39  O   UNL d   1      10.365 -11.919  12.608 -0.57 -0.86    -0.650 OA
DOCKED: BRANCH  38  40
DOCKED: ATOM     40  O   UNL d   1       9.831  -9.892  13.326 +0.03 -0.53    -0.776 OA
DOCKED: ATOM     41  H   UNL d   1      10.354  -9.425  13.992 +0.03 +0.09    +0.167 HD
DOCKED: ENDBRANCH  38  40
DOCKED: ENDBRANCH  37  38
DOCKED: ENDBRANCH  36  37
DOCKED: ENDBRANCH  22  36
DOCKED: BRANCH  12  42
DOCKED: ATOM     42  C   UNL d   1       3.121  -1.947   8.685 -0.51 +0.00    +0.004 C 
DOCKED: ATOM     43  C   UNL d   1       1.984  -2.632   8.502 -0.54 +0.00    +0.012 C 
DOCKED: ENDBRANCH  12  42
DOCKED: BRANCH  17  44
DOCKED: ATOM     44  C   UNL d   1       8.861  -5.806   4.702 -0.34 +0.00    +0.004 C 
DOCKED: ATOM     45  C   UNL d   1       9.375  -4.925   3.838 -0.42 +0.00    +0.012 C 
DOCKED: ENDBRANCH  17  44
DOCKED: TORSDOF 10
DOCKED: TER
DOCKED: ENDMDL
________________________________________________________________________________


	BEGINNING GENETIC ALGORITHM DOCKING 17 of 100
Run: 17 Seed: 1259785537 1989743075 [ Run 17 of 100 GA/GALS ]
Beginning LAMARCKIAN GENETIC ALGORITHM (LGA), with a maximum of 25000000 energy evaluations.

Final-Value: -13.633


	FINAL GENETIC ALGORITHM DOCKED STATE
	_______________________________________________


Detailed state:  trans 7.362 -4.203 8.000 quatxyzw 0.221402 0.588165 -0.776923 0.037859 center -0.174 -0.001 -0.047 ntor 10 -179.6358 15.3090 75.4819 -127.5482 -103.2972 -167.9727 -155.9448 65.9299 -19.2963 143.5139
State:	  7.362  -4.203   8.000   0.222  0.589 -0.777 175.661   -179.64   15.31   75.48 -127.55 -103.30 -167.97 -155.94   65.93  -19.30  143.51

DOCKED: MODEL       17
DOCKED: USER    Run = 17
DOCKED: USER    DPF = D:/Protein_go_brrr/autodock/final/mut_N102T/heme_Fe/dock.dpf
DOCKED: USER  
DOCKED: USER    Estimated Free Energy of Binding    =   -9.92 kcal/mol  [=(1)+(2)+(3)-(4)]
DOCKED: USER    Estimated Inhibition Constant, Ki   =   53.39 nM (nanomolar)  [Temperature = 298.15 K]
DOCKED: USER    
DOCKED: USER    (1) Final Intermolecular Energy     =  -12.90 kcal/mol
DOCKED: USER        vdW + Hbond + desolv Energy     =  -10.50 kcal/mol
DOCKED: USER        Electrostatic Energy            =   -2.41 kcal/mol
DOCKED: USER    (2) Final Total Internal Energy     =   -0.73 kcal/mol
DOCKED: USER    (3) Torsional Free Energy           =   +2.98 kcal/mol
DOCKED: USER    (4) Unbound System's Energy  [=(2)] =   -0.73 kcal/mol
DOCKED: USER    
DOCKED: USER    
DOCKED: USER    NEWDPF move heme_Fe_opt.pdbqt
DOCKED: USER    NEWDPF about -0.174000 -0.001000 -0.047000
DOCKED: USER    NEWDPF tran0 7.361986 -4.203062 7.999616
DOCKED: USER    NEWDPF quaternion0 0.221402 0.588165 -0.776923 0.037859
DOCKED: USER    NEWDPF axisangle0 0.221561 0.588587 -0.777481 175.660681
DOCKED: USER    NEWDPF quat0 0.221561 0.588587 -0.777481 175.660681
DOCKED: USER    NEWDPF dihe0 -179.64 15.31 75.48 -127.55 -103.30 -167.97 -155.94 65.93 -19.30 143.51 
DOCKED: USER  keepresnum = 1 
DOCKED: USER  
DOCKED: REMARK  10 active torsions:
DOCKED: REMARK  status: ('A' for Active; 'I' for Inactive)
DOCKED: REMARK    1  A    between atoms: C_6  and  C_10 
DOCKED: REMARK    2  A    between atoms: C_10  and  C_11 
DOCKED: REMARK    3  A    between atoms: C_11  and  C_12 
DOCKED: REMARK    4  A    between atoms: C_12  and  O_14 
DOCKED: REMARK    5  A    between atoms: C_17  and  C_20 
DOCKED: REMARK    6  A    between atoms: C_24  and  C_27 
DOCKED: REMARK    7  A    between atoms: C_31  and  C_34 
DOCKED: REMARK    8  A    between atoms: C_34  and  C_35 
DOCKED: REMARK    9  A    between atoms: C_35  and  C_36 
DOCKED: REMARK   10  A    between atoms: C_36  and  O_38 
DOCKED: USER                              x       y       z     vdW  Elec       q    Type
DOCKED: USER                           _______ _______ _______ _____ _____    ______ ____
DOCKED: ROOT
DOCKED: ATOM      1  C   UNL d   1       8.924  -5.295   8.760 +0.05 +0.09    +0.064 C 
DOCKED: ATOM      2  C   UNL d   1       5.046  -2.940  10.720 -0.32 +0.01    +0.064 A 
DOCKED: ATOM      3  C   UNL d   1       3.065  -2.711   6.350 -0.42 +0.01    +0.064 C 
DOCKED: ATOM      4  C   UNL d   1       6.856  -4.895   4.417 -0.37 +0.01    +0.064 C 
DOCKED: ATOM      5  C   UNL d   1       8.055  -4.579   9.703 -0.28 +0.05    +0.066 A 
DOCKED: ATOM      6  C   UNL d   1       8.356  -4.344  11.035 -0.22 -0.01    -0.021 A 
DOCKED: ATOM      7  C   UNL d   1       7.277  -3.694  11.579 -0.21 -0.01    -0.025 A 
DOCKED: ATOM      8  C   UNL d   1       6.357  -3.556  10.558 -0.22 +0.02    +0.066 A 
DOCKED: ATOM      9  C   UNL d   1       7.154  -3.219  12.995 -0.20 +0.01    +0.051 C 
DOCKED: ATOM     10  C   UNL d   1       4.164  -2.743   9.739 -0.40 +0.01    +0.066 A 
DOCKED: ATOM     11  C   UNL d   1       2.871  -2.255   9.945 -0.49 -0.00    -0.021 A 
DOCKED: ATOM     12  C   UNL d   1       2.273  -2.196   8.702 -0.49 +0.00    +0.000 A 
DOCKED: ATOM     13  C   UNL d   1       3.238  -2.663   7.794 -0.13 +0.02    +0.070 A 
DOCKED: ATOM     14  C   UNL d   1       2.214  -1.926  11.270 -0.54 +0.00    +0.052 C 
DOCKED: ATOM     15  C   UNL d   1       3.971  -3.208   5.476 -0.36 +0.01    +0.066 A 
DOCKED: ATOM     16  C   UNL d   1       3.810  -3.146   4.098 -0.32 -0.00    -0.021 A 
DOCKED: ATOM     17  C   UNL d   1       4.900  -3.778   3.538 -0.43 +0.00    +0.000 A 
DOCKED: ATOM     18  C   UNL d   1       5.701  -4.216   4.591 -0.41 +0.01    +0.070 A 
DOCKED: ATOM     19  C   UNL d   1       2.664  -2.538   3.335 -0.09 +0.00    +0.052 C 
DOCKED: ATOM     20  C   UNL d   1       7.755  -5.318   5.497 -0.12 +0.02    +0.066 A 
DOCKED: ATOM     21  C   UNL d   1       8.844  -6.190   5.350 +0.22 -0.01    -0.025 A 
DOCKED: ATOM     22  C   UNL d   1       9.426  -6.279   6.597 +0.04 -0.02    -0.021 A 
DOCKED: ATOM     23  C   UNL d   1       8.671  -5.469   7.453 -0.05 +0.07    +0.066 A 
DOCKED: ATOM     24  C   UNL d   1       9.316  -6.908   4.108 -0.23 +0.01    +0.051 C 
DOCKED: ATOM     25  N   UNL d   1       6.837  -4.087   9.415 -0.21 -0.09    -0.248 N 
DOCKED: ATOM     26  N   UNL d   1       4.388  -3.005   8.426 +0.05 -0.10    -0.248 N 
DOCKED: ATOM     27  N   UNL d   1       5.153  -3.828   5.781 -0.25 -0.05    -0.248 N 
DOCKED: ATOM     28  N   UNL d   1       7.626  -4.921   6.786 -0.25 -0.13    -0.248 N 
DOCKED: ATOM     29 FE   UNL d   1       6.007  -3.963   7.604 -0.09 +0.00    +0.000 Fe
DOCKED: ENDROOT
DOCKED: BRANCH   6  30
DOCKED: ATOM     30  C   UNL d   1       9.614  -4.700  11.750 -0.15 +0.03    +0.052 C 
DOCKED: BRANCH  30  31
DOCKED: ATOM     31  C   UNL d   1      10.773  -3.834  11.270 -0.10 +0.12    +0.115 C 
DOCKED: BRANCH  31  32
DOCKED: ATOM     32  C   UNL d   1      10.262  -2.542  10.696 -0.16 +0.14    +0.139 C 
DOCKED: ATOM     33  O   UNL d   1      10.219  -2.371   9.486 -0.36 -1.14    -0.650 OA
DOCKED: BRANCH  32  34
DOCKED: ATOM     34  O   UNL d   1       9.845  -1.559  11.513 +0.00 -0.39    -0.776 OA
DOCKED: ATOM     35  H   UNL d   1       9.885  -1.696  12.470 +0.05 +0.06    +0.167 HD
DOCKED: ENDBRANCH  32  34
DOCKED: ENDBRANCH  31  32
DOCKED: ENDBRANCH  30  31
DOCKED: ENDBRANCH   6  30
DOCKED: BRANCH  22  36
DOCKED: ATOM     36  C   UNL d   1      10.613  -7.135   6.955 -0.11 +0.05    +0.052 C 
DOCKED: BRANCH  36  37
DOCKED: ATOM     37  C   UNL d   1      10.217  -8.138   8.028 -0.11 +0.07    +0.115 C 
DOCKED: BRANCH  37  38
DOCKED: ATOM     38  C   UNL d   1      10.957  -7.876   9.309 -0.12 +0.11    +0.139 C 
DOCKED: ATOM     39  O   UNL d   1      10.945  -8.694  10.218 +0.00 -0.30    -0.650 OA
DOCKED: BRANCH  38  40
DOCKED: ATOM     40  O   UNL d   1      11.640  -6.728   9.467 -0.38 -1.25    -0.776 OA
DOCKED: ATOM     41  H   UNL d   1      12.283  -6.659  10.186 +0.01 +0.18    +0.167 HD
DOCKED: ENDBRANCH  38  40
DOCKED: ENDBRANCH  37  38
DOCKED: ENDBRANCH  36  37
DOCKED: ENDBRANCH  22  36
DOCKED: BRANCH  12  42
DOCKED: ATOM     42  C   UNL d   1       0.872  -1.738   8.448 -0.59 +0.00    +0.004 C 
DOCKED: ATOM     43  C   UNL d   1       0.619  -0.728   7.604 -0.55 +0.00    +0.012 C 
DOCKED: ENDBRANCH  12  42
DOCKED: BRANCH  17  44
DOCKED: ATOM     44  C   UNL d   1       5.169  -3.935   2.091 -0.51 -0.00    +0.004 C 
DOCKED: ATOM     45  C   UNL d   1       4.469  -4.804   1.355 -0.67 -0.00    +0.012 C 
DOCKED: ENDBRANCH  17  44
DOCKED: TORSDOF 10
DOCKED: TER
DOCKED: ENDMDL
________________________________________________________________________________


	BEGINNING GENETIC ALGORITHM DOCKING 18 of 100
Run: 18 Seed: 574241789 1931987390 [ Run 18 of 100 GA/GALS ]
Beginning LAMARCKIAN GENETIC ALGORITHM (LGA), with a maximum of 25000000 energy evaluations.

Final-Value: -12.295


	FINAL GENETIC ALGORITHM DOCKED STATE
	_______________________________________________


Detailed state:  trans -7.915 -13.402 -9.564 quatxyzw 0.546378 -0.109806 -0.828139 0.059988 center -0.174 -0.001 -0.047 ntor 10 -21.9249 86.8839 51.5760 48.5854 -179.9576 -126.6671 69.1170 -84.7911 -19.0245 -44.2217
State:	 -7.915 -13.402  -9.564   0.547 -0.110 -0.830 173.122    -21.92   86.88   51.58   48.59 -179.96 -126.67   69.12  -84.79  -19.02  -44.22

DOCKED: MODEL       18
DOCKED: USER    Run = 18
DOCKED: USER    DPF = D:/Protein_go_brrr/autodock/final/mut_N102T/heme_Fe/dock.dpf
DOCKED: USER  
DOCKED: USER    Estimated Free Energy of Binding    =   -7.26 kcal/mol  [=(1)+(2)+(3)-(4)]
DOCKED: USER    Estimated Inhibition Constant, Ki   =    4.74 uM (micromolar)  [Temperature = 298.15 K]
DOCKED: USER    
DOCKED: USER    (1) Final Intermolecular Energy     =  -10.25 kcal/mol
DOCKED: USER        vdW + Hbond + desolv Energy     =   -6.76 kcal/mol
DOCKED: USER        Electrostatic Energy            =   -3.48 kcal/mol
DOCKED: USER    (2) Final Total Internal Energy     =   -2.05 kcal/mol
DOCKED: USER    (3) Torsional Free Energy           =   +2.98 kcal/mol
DOCKED: USER    (4) Unbound System's Energy  [=(2)] =   -2.05 kcal/mol
DOCKED: USER    
DOCKED: USER    
DOCKED: USER    NEWDPF move heme_Fe_opt.pdbqt
DOCKED: USER    NEWDPF about -0.174000 -0.001000 -0.047000
DOCKED: USER    NEWDPF tran0 -7.914732 -13.401738 -9.564336
DOCKED: USER    NEWDPF quaternion0 0.546378 -0.109806 -0.828139 0.059988
DOCKED: USER    NEWDPF axisangle0 0.547364 -0.110004 -0.829633 173.121740
DOCKED: USER    NEWDPF quat0 0.547364 -0.110004 -0.829633 173.121740
DOCKED: USER    NEWDPF dihe0 -21.92 86.88 51.58 48.59 -179.96 -126.67 69.12 -84.79 -19.02 -44.22 
DOCKED: USER  keepresnum = 1 
DOCKED: USER  
DOCKED: REMARK  10 active torsions:
DOCKED: REMARK  status: ('A' for Active; 'I' for Inactive)
DOCKED: REMARK    1  A    between atoms: C_6  and  C_10 
DOCKED: REMARK    2  A    between atoms: C_10  and  C_11 
DOCKED: REMARK    3  A    between atoms: C_11  and  C_12 
DOCKED: REMARK    4  A    between atoms: C_12  and  O_14 
DOCKED: REMARK    5  A    between atoms: C_17  and  C_20 
DOCKED: REMARK    6  A    between atoms: C_24  and  C_27 
DOCKED: REMARK    7  A    between atoms: C_31  and  C_34 
DOCKED: REMARK    8  A    between atoms: C_34  and  C_35 
DOCKED: REMARK    9  A    between atoms: C_35  and  C_36 
DOCKED: REMARK   10  A    between atoms: C_36  and  O_38 
DOCKED: USER                              x       y       z     vdW  Elec       q    Type
DOCKED: USER                           _______ _______ _______ _____ _____    ______ ____
DOCKED: ROOT
DOCKED: ATOM      1  C   UNL d   1      -7.592 -13.172  -7.551 -0.17 +0.04    +0.064 C 
DOCKED: ATOM      2  C   UNL d   1      -8.135 -10.075 -11.364 -0.27 +0.02    +0.064 A 
DOCKED: ATOM      3  C   UNL d   1      -9.861 -13.712 -13.983 -0.13 +0.01    +0.064 C 
DOCKED: ATOM      4  C   UNL d   1      -9.245 -16.749 -10.339 -0.09 +0.02    +0.064 C 
DOCKED: ATOM      5  C   UNL d   1      -7.507 -11.981  -8.407 -0.11 +0.02    +0.066 A 
DOCKED: ATOM      6  C   UNL d   1      -6.954 -10.770  -8.025 -0.28 -0.01    -0.021 A 
DOCKED: ATOM      7  C   UNL d   1      -7.109  -9.909  -9.083 -0.33 -0.01    -0.025 A 
DOCKED: ATOM      8  C   UNL d   1      -7.750 -10.629 -10.072 -0.25 +0.02    +0.066 A 
DOCKED: ATOM      9  C   UNL d   1      -6.646  -8.485  -9.138 -0.45 +0.01    +0.051 C 
DOCKED: ATOM     10  C   UNL d   1      -8.703 -10.762 -12.357 -0.21 +0.02    +0.066 A 
DOCKED: ATOM     11  C   UNL d   1      -9.164 -10.178 -13.539 -0.20 -0.01    -0.021 A 
DOCKED: ATOM     12  C   UNL d   1      -9.682 -11.204 -14.304 -0.12 +0.00    +0.000 A 
DOCKED: ATOM     13  C   UNL d   1      -9.515 -12.371 -13.539 -0.12 +0.01    +0.070 A 
DOCKED: ATOM     14  C   UNL d   1      -9.174  -8.705 -13.893 -0.11 +0.03    +0.052 C 
DOCKED: ATOM     15  C   UNL d   1      -9.751 -14.831 -13.230 -0.09 +0.01    +0.066 A 
DOCKED: ATOM     16  C   UNL d   1      -9.997 -16.106 -13.725 -0.10 -0.00    -0.021 A 
DOCKED: ATOM     17  C   UNL d   1      -9.824 -16.983 -12.675 -0.09 +0.00    +0.000 A 
DOCKED: ATOM     18  C   UNL d   1      -9.479 -16.221 -11.561 -0.09 +0.01    +0.070 A 
DOCKED: ATOM     19  C   UNL d   1     -10.405 -16.485 -15.123 -0.05 +0.00    +0.052 C 
DOCKED: ATOM     20  C   UNL d   1      -8.821 -15.986  -9.159 -0.10 +0.03    +0.066 A 
DOCKED: ATOM     21  C   UNL d   1      -8.770 -16.482  -7.849 -0.05 -0.01    -0.025 A 
DOCKED: ATOM     22  C   UNL d   1      -8.284 -15.450  -7.073 -0.08 -0.02    -0.021 A 
DOCKED: ATOM     23  C   UNL d   1      -8.065 -14.369  -7.935 -0.14 +0.05    +0.066 A 
DOCKED: ATOM     24  C   UNL d   1      -9.159 -17.852  -7.343 -0.01 +0.02    +0.051 C 
DOCKED: ATOM     25  N   UNL d   1      -7.982 -11.892  -9.662 -0.14 -0.07    -0.248 N 
DOCKED: ATOM     26  N   UNL d   1      -8.927 -12.101 -12.348 -0.10 -0.06    -0.248 N 
DOCKED: ATOM     27  N   UNL d   1      -9.391 -14.903 -11.911 -0.06 -0.04    -0.248 N 
DOCKED: ATOM     28  N   UNL d   1      -8.437 -14.687  -9.198 -0.12 -0.11    -0.248 N 
DOCKED: ATOM     29 FE   UNL d   1      -8.682 -13.396 -10.773 -0.04 +0.00    +0.000 Fe
DOCKED: ENDROOT
DOCKED: BRANCH   6  30
DOCKED: ATOM     30  C   UNL d   1      -6.293 -10.450  -6.728 -0.42 +0.02    +0.052 C 
DOCKED: BRANCH  30  31
DOCKED: ATOM     31  C   UNL d   1      -4.951 -11.164  -6.615 -0.36 +0.09    +0.115 C 
DOCKED: BRANCH  31  32
DOCKED: ATOM     32  C   UNL d   1      -5.013 -12.239  -5.565 -0.34 +0.17    +0.139 C 
DOCKED: ATOM     33  O   UNL d   1      -4.034 -12.930  -5.322 -0.60 -1.10    -0.650 OA
DOCKED: BRANCH  32  34
DOCKED: ATOM     34  O   UNL d   1      -6.151 -12.450  -4.882 -0.40 -0.74    -0.776 OA
DOCKED: ATOM     35  H   UNL d   1      -6.294 -13.309  -4.461 +0.06 +0.16    +0.167 HD
DOCKED: ENDBRANCH  32  34
DOCKED: ENDBRANCH  31  32
DOCKED: ENDBRANCH  30  31
DOCKED: ENDBRANCH   6  30
DOCKED: BRANCH  22  36
DOCKED: ATOM     36  C   UNL d   1      -8.089 -15.489  -5.580 -0.06 +0.04    +0.052 C 
DOCKED: BRANCH  36  37
DOCKED: ATOM     37  C   UNL d   1      -7.251 -16.702  -5.203 -0.08 +0.12    +0.115 C 
DOCKED: BRANCH  37  38
DOCKED: ATOM     38  C   UNL d   1      -5.796 -16.341  -5.099 -0.09 +0.25    +0.139 C 
DOCKED: ATOM     39  O   UNL d   1      -4.951 -16.967  -5.720 -0.27 -1.47    -0.650 OA
DOCKED: BRANCH  38  40
DOCKED: ATOM     40  O   UNL d   1      -5.413 -15.320  -4.311 +0.06 -1.30    -0.776 OA
DOCKED: ATOM     41  H   UNL d   1      -5.317 -14.439  -4.698 +0.06 +0.29    +0.167 HD
DOCKED: ENDBRANCH  38  40
DOCKED: ENDBRANCH  37  38
DOCKED: ENDBRANCH  36  37
DOCKED: ENDBRANCH  22  36
DOCKED: BRANCH  12  42
DOCKED: ATOM     42  C   UNL d   1     -10.299 -11.035 -15.656 -0.07 +0.00    +0.004 C 
DOCKED: ATOM     43  C   UNL d   1      -9.602 -11.295 -16.770 -0.08 +0.00    +0.012 C 
DOCKED: ENDBRANCH  12  42
DOCKED: BRANCH  17  44
DOCKED: ATOM     44  C   UNL d   1      -9.959 -18.456 -12.738 -0.04 +0.00    +0.004 C 
DOCKED: ATOM     45  C   UNL d   1      -8.878 -19.241 -12.782 -0.06 +0.00    +0.012 C 
DOCKED: ENDBRANCH  17  44
DOCKED: TORSDOF 10
DOCKED: TER
DOCKED: ENDMDL
________________________________________________________________________________


	BEGINNING GENETIC ALGORITHM DOCKING 19 of 100
Run: 19 Seed: 1766186290 630649049 [ Run 19 of 100 GA/GALS ]
Beginning LAMARCKIAN GENETIC ALGORITHM (LGA), with a maximum of 25000000 energy evaluations.

Final-Value: -10.246


	FINAL GENETIC ALGORITHM DOCKED STATE
	_______________________________________________


Detailed state:  trans -11.503 4.555 12.452 quatxyzw -0.093870 -0.710865 0.055019 0.694861 center -0.174 -0.001 -0.047 ntor 10 -5.8476 109.8362 83.1527 -170.2539 9.4115 -87.5040 -82.4835 32.5722 177.9284 -167.8634
State:	-11.503   4.555  12.452  -0.131 -0.988  0.077 91.968     -5.85  109.84   83.15 -170.25    9.41  -87.50  -82.48   32.57  177.93 -167.86

DOCKED: MODEL       19
DOCKED: USER    Run = 19
DOCKED: USER    DPF = D:/Protein_go_brrr/autodock/final/mut_N102T/heme_Fe/dock.dpf
DOCKED: USER  
DOCKED: USER    Estimated Free Energy of Binding    =   -5.14 kcal/mol  [=(1)+(2)+(3)-(4)]
DOCKED: USER    Estimated Inhibition Constant, Ki   =  170.63 uM (micromolar)  [Temperature = 298.15 K]
DOCKED: USER    
DOCKED: USER    (1) Final Intermolecular Energy     =   -8.12 kcal/mol
DOCKED: USER        vdW + Hbond + desolv Energy     =   -7.65 kcal/mol
DOCKED: USER        Electrostatic Energy            =   -0.47 kcal/mol
DOCKED: USER    (2) Final Total Internal Energy     =   -2.12 kcal/mol
DOCKED: USER    (3) Torsional Free Energy           =   +2.98 kcal/mol
DOCKED: USER    (4) Unbound System's Energy  [=(2)] =   -2.12 kcal/mol
DOCKED: USER    
DOCKED: USER    
DOCKED: USER    NEWDPF move heme_Fe_opt.pdbqt
DOCKED: USER    NEWDPF about -0.174000 -0.001000 -0.047000
DOCKED: USER    NEWDPF tran0 -11.503282 4.554561 12.451725
DOCKED: USER    NEWDPF quaternion0 -0.093870 -0.710865 0.055019 0.694861
DOCKED: USER    NEWDPF axisangle0 -0.130530 -0.988488 0.076507 91.967654
DOCKED: USER    NEWDPF quat0 -0.130530 -0.988488 0.076507 91.967654
DOCKED: USER    NEWDPF dihe0 -5.85 109.84 83.15 -170.25 9.41 -87.50 -82.48 32.57 177.93 -167.86 
DOCKED: USER  keepresnum = 1 
DOCKED: USER  
DOCKED: REMARK  10 active torsions:
DOCKED: REMARK  status: ('A' for Active; 'I' for Inactive)
DOCKED: REMARK    1  A    between atoms: C_6  and  C_10 
DOCKED: REMARK    2  A    between atoms: C_10  and  C_11 
DOCKED: REMARK    3  A    between atoms: C_11  and  C_12 
DOCKED: REMARK    4  A    between atoms: C_12  and  O_14 
DOCKED: REMARK    5  A    between atoms: C_17  and  C_20 
DOCKED: REMARK    6  A    between atoms: C_24  and  C_27 
DOCKED: REMARK    7  A    between atoms: C_31  and  C_34 
DOCKED: REMARK    8  A    between atoms: C_34  and  C_35 
DOCKED: REMARK    9  A    between atoms: C_35  and  C_36 
DOCKED: REMARK   10  A    between atoms: C_36  and  O_38 
DOCKED: USER                              x       y       z     vdW  Elec       q    Type
DOCKED: USER                           _______ _______ _______ _____ _____    ______ ____
DOCKED: ROOT
DOCKED: ATOM      1  C   UNL d   1     -10.962   4.273  14.411 -0.05 +0.01    +0.064 C 
DOCKED: ATOM      2  C   UNL d   1     -11.911   1.275  10.597 -0.22 -0.01    +0.064 A 
DOCKED: ATOM      3  C   UNL d   1     -11.554   5.041   7.638 -0.20 +0.00    +0.064 C 
DOCKED: ATOM      4  C   UNL d   1     -10.739   7.978  11.325 -0.29 +0.00    +0.064 C 
DOCKED: ATOM      5  C   UNL d   1     -11.345   3.095  13.621 -0.15 +0.01    +0.066 A 
DOCKED: ATOM      6  C   UNL d   1     -11.645   1.850  14.151 -0.15 -0.00    -0.021 A 
DOCKED: ATOM      7  C   UNL d   1     -11.904   1.018  13.091 -0.16 -0.00    -0.025 A 
DOCKED: ATOM      8  C   UNL d   1     -11.754   1.787  11.953 -0.22 -0.00    +0.066 A 
DOCKED: ATOM      9  C   UNL d   1     -12.293  -0.427  13.177 -0.09 -0.00    +0.051 C 
DOCKED: ATOM     10  C   UNL d   1     -11.828   2.008   9.486 -0.20 -0.01    +0.066 A 
DOCKED: ATOM     11  C   UNL d   1     -11.870   1.470   8.198 -0.27 +0.00    -0.021 A 
DOCKED: ATOM     12  C   UNL d   1     -11.752   2.534   7.326 -0.32 -0.00    +0.000 A 
DOCKED: ATOM     13  C   UNL d   1     -11.634   3.677   8.135 -0.25 -0.00    +0.070 A 
DOCKED: ATOM     14  C   UNL d   1     -11.949   0.005   7.816 -0.26 -0.02    +0.052 C 
DOCKED: ATOM     15  C   UNL d   1     -11.389   6.140   8.411 -0.27 -0.00    +0.066 A 
DOCKED: ATOM     16  C   UNL d   1     -11.417   7.434   7.906 -0.27 +0.00    -0.021 A 
DOCKED: ATOM     17  C   UNL d   1     -11.179   8.283   8.968 -0.27 -0.00    +0.000 A 
DOCKED: ATOM     18  C   UNL d   1     -11.006   7.485  10.096 -0.28 -0.00    +0.070 A 
DOCKED: ATOM     19  C   UNL d   1     -11.634   7.858   6.479 -0.25 -0.00    +0.052 C 
DOCKED: ATOM     20  C   UNL d   1     -10.612   7.174  12.546 -0.27 +0.00    +0.066 A 
DOCKED: ATOM     21  C   UNL d   1     -10.141   7.643  13.780 -0.26 -0.00    -0.025 A 
DOCKED: ATOM     22  C   UNL d   1     -10.225   6.574  14.648 -0.20 -0.00    -0.021 A 
DOCKED: ATOM     23  C   UNL d   1     -10.736   5.499  13.912 -0.10 +0.01    +0.066 A 
DOCKED: ATOM     24  C   UNL d   1      -9.632   9.022  14.133 -0.21 +0.00    +0.051 C 
DOCKED: ATOM     25  N   UNL d   1     -11.423   3.052  12.279 -0.08 -0.00    -0.248 N 
DOCKED: ATOM     26  N   UNL d   1     -11.672   3.356   9.452 -0.10 +0.02    -0.248 N 
DOCKED: ATOM     27  N   UNL d   1     -11.179   6.170   9.764 -0.19 +0.00    -0.248 N 
DOCKED: ATOM     28  N   UNL d   1     -10.928   5.858  12.620 -0.14 -0.02    -0.248 N 
DOCKED: ATOM     29 FE   UNL d   1     -11.299   4.609  11.036 -0.07 -0.00    +0.000 Fe
DOCKED: ENDROOT
DOCKED: BRANCH   6  30
DOCKED: ATOM     30  C   UNL d   1     -11.703   1.474  15.592 -0.09 +0.01    +0.052 C 
DOCKED: BRANCH  30  31
DOCKED: ATOM     31  C   UNL d   1     -10.360   0.924  16.061 -0.13 +0.05    +0.115 C 
DOCKED: BRANCH  31  32
DOCKED: ATOM     32  C   UNL d   1      -9.562   1.999  16.746 -0.17 +0.05    +0.139 C 
DOCKED: ATOM     33  O   UNL d   1     -10.070   3.078  17.014 +0.03 -0.11    -0.650 OA
DOCKED: BRANCH  32  34
DOCKED: ATOM     34  O   UNL d   1      -8.276   1.781  17.070 -0.21 -0.49    -0.776 OA
DOCKED: ATOM     35  H   UNL d   1      -7.753   2.510  17.431 +0.05 +0.06    +0.167 HD
DOCKED: ENDBRANCH  32  34
DOCKED: ENDBRANCH  31  32
DOCKED: ENDBRANCH  30  31
DOCKED: ENDBRANCH   6  30
DOCKED: BRANCH  22  36
DOCKED: ATOM     36  C   UNL d   1      -9.792   6.576  16.091 -0.14 +0.00    +0.052 C 
DOCKED: BRANCH  36  37
DOCKED: ATOM     37  C   UNL d   1      -8.274   6.631  16.171 -0.22 +0.00    +0.115 C 
DOCKED: BRANCH  37  38
DOCKED: ATOM     38  C   UNL d   1      -7.771   5.899  17.383 -0.14 +0.00    +0.139 C 
DOCKED: ATOM     39  O   UNL d   1      -7.666   6.469  18.459 +0.04 +0.02    -0.650 OA
DOCKED: BRANCH  38  40
DOCKED: ATOM     40  O   UNL d   1      -7.429   4.602  17.290 +0.06 -0.08    -0.776 OA
DOCKED: ATOM     41  H   UNL d   1      -8.124   3.940  17.165 +0.05 +0.03    +0.167 HD
DOCKED: ENDBRANCH  38  40
DOCKED: ENDBRANCH  37  38
DOCKED: ENDBRANCH  36  37
DOCKED: ENDBRANCH  22  36
DOCKED: BRANCH  12  42
DOCKED: ATOM     42  C   UNL d   1     -11.737   2.421   5.834 -0.35 -0.00    +0.004 C 
DOCKED: ATOM     43  C   UNL d   1     -12.519   3.200   5.076 -0.23 -0.00    +0.012 C 
DOCKED: ENDBRANCH  12  42
DOCKED: BRANCH  17  44
DOCKED: ATOM     44  C   UNL d   1     -11.139   9.761   8.909 -0.22 -0.00    +0.004 C 
DOCKED: ATOM     45  C   UNL d   1     -10.013  10.427   9.185 -0.23 -0.00    +0.012 C 
DOCKED: ENDBRANCH  17  44
DOCKED: TORSDOF 10
DOCKED: TER
DOCKED: ENDMDL
________________________________________________________________________________


	BEGINNING GENETIC ALGORITHM DOCKING 20 of 100
Run: 20 Seed: 2139508811 740329818 [ Run 20 of 100 GA/GALS ]
Beginning LAMARCKIAN GENETIC ALGORITHM (LGA), with a maximum of 25000000 energy evaluations.

Final-Value: -9.359


	FINAL GENETIC ALGORITHM DOCKED STATE
	_______________________________________________


Detailed state:  trans -11.098 4.418 11.610 quatxyzw -0.606148 0.269034 0.685680 0.300080 center -0.174 -0.001 -0.047 ntor 10 -98.7191 160.7132 -158.6253 -168.1498 -104.8565 -122.0471 36.0296 -132.8832 -20.6640 -33.4349
State:	-11.098   4.418  11.610  -0.635  0.282  0.719 145.075    -98.72  160.71 -158.63 -168.15 -104.86 -122.05   36.03 -132.88  -20.66  -33.43

DOCKED: MODEL       20
DOCKED: USER    Run = 20
DOCKED: USER    DPF = D:/Protein_go_brrr/autodock/final/mut_N102T/heme_Fe/dock.dpf
DOCKED: USER  
DOCKED: USER    Estimated Free Energy of Binding    =   -4.57 kcal/mol  [=(1)+(2)+(3)-(4)]
DOCKED: USER    Estimated Inhibition Constant, Ki   =  446.17 uM (micromolar)  [Temperature = 298.15 K]
DOCKED: USER    
DOCKED: USER    (1) Final Intermolecular Energy     =   -7.55 kcal/mol
DOCKED: USER        vdW + Hbond + desolv Energy     =   -7.37 kcal/mol
DOCKED: USER        Electrostatic Energy            =   -0.18 kcal/mol
DOCKED: USER    (2) Final Total Internal Energy     =   -1.80 kcal/mol
DOCKED: USER    (3) Torsional Free Energy           =   +2.98 kcal/mol
DOCKED: USER    (4) Unbound System's Energy  [=(2)] =   -1.80 kcal/mol
DOCKED: USER    
DOCKED: USER    
DOCKED: USER    NEWDPF move heme_Fe_opt.pdbqt
DOCKED: USER    NEWDPF about -0.174000 -0.001000 -0.047000
DOCKED: USER    NEWDPF tran0 -11.097786 4.418125 11.610276
DOCKED: USER    NEWDPF quaternion0 -0.606148 0.269034 0.685680 0.300080
DOCKED: USER    NEWDPF axisangle0 -0.635433 0.282032 0.718807 145.075149
DOCKED: USER    NEWDPF quat0 -0.635433 0.282032 0.718807 145.075149
DOCKED: USER    NEWDPF dihe0 -98.72 160.71 -158.63 -168.15 -104.86 -122.05 36.03 -132.88 -20.66 -33.43 
DOCKED: USER  keepresnum = 1 
DOCKED: USER  
DOCKED: REMARK  10 active torsions:
DOCKED: REMARK  status: ('A' for Active; 'I' for Inactive)
DOCKED: REMARK    1  A    between atoms: C_6  and  C_10 
DOCKED: REMARK    2  A    between atoms: C_10  and  C_11 
DOCKED: REMARK    3  A    between atoms: C_11  and  C_12 
DOCKED: REMARK    4  A    between atoms: C_12  and  O_14 
DOCKED: REMARK    5  A    between atoms: C_17  and  C_20 
DOCKED: REMARK    6  A    between atoms: C_24  and  C_27 
DOCKED: REMARK    7  A    between atoms: C_31  and  C_34 
DOCKED: REMARK    8  A    between atoms: C_34  and  C_35 
DOCKED: REMARK    9  A    between atoms: C_35  and  C_36 
DOCKED: REMARK   10  A    between atoms: C_36  and  O_38 
DOCKED: USER                              x       y       z     vdW  Elec       q    Type
DOCKED: USER                           _______ _______ _______ _____ _____    ______ ____
DOCKED: ROOT
DOCKED: ATOM      1  C   UNL d   1     -11.462   5.922  12.958 -0.20 +0.00    +0.064 C 
DOCKED: ATOM      2  C   UNL d   1     -11.864   5.472   8.052 -0.23 -0.00    +0.064 A 
DOCKED: ATOM      3  C   UNL d   1     -11.476   0.708   8.527 -0.30 -0.02    +0.064 C 
DOCKED: ATOM      4  C   UNL d   1     -10.979   1.129  13.266 -0.28 +0.01    +0.064 C 
DOCKED: ATOM      5  C   UNL d   1     -11.528   6.243  11.526 -0.18 +0.00    +0.066 A 
DOCKED: ATOM      6  C   UNL d   1     -11.536   7.526  11.002 -0.18 +0.00    -0.021 A 
DOCKED: ATOM      7  C   UNL d   1     -11.652   7.400   9.640 -0.21 +0.00    -0.025 A 
DOCKED: ATOM      8  C   UNL d   1     -11.709   6.044   9.384 -0.23 -0.00    +0.066 A 
DOCKED: ATOM      9  C   UNL d   1     -11.684   8.523   8.649 -0.20 -0.01    +0.051 C 
DOCKED: ATOM     10  C   UNL d   1     -11.865   4.168   7.772 -0.25 -0.00    +0.066 A 
DOCKED: ATOM     11  C   UNL d   1     -12.130   3.648   6.502 -0.24 +0.00    -0.021 A 
DOCKED: ATOM     12  C   UNL d   1     -12.041   2.275   6.616 -0.28 -0.00    +0.000 A 
DOCKED: ATOM     13  C   UNL d   1     -11.731   2.025   7.964 -0.27 -0.01    +0.070 A 
DOCKED: ATOM     14  C   UNL d   1     -12.518   4.419   5.257 -0.18 +0.00    +0.052 C 
DOCKED: ATOM     15  C   UNL d   1     -11.228   0.458   9.834 -0.21 -0.02    +0.066 A 
DOCKED: ATOM     16  C   UNL d   1     -10.891  -0.801  10.315 -0.30 +0.01    -0.021 A 
DOCKED: ATOM     17  C   UNL d   1     -10.751  -0.683  11.682 -0.31 -0.00    +0.000 A 
DOCKED: ATOM     18  C   UNL d   1     -11.010   0.648  12.004 -0.25 -0.00    +0.070 A 
DOCKED: ATOM     19  C   UNL d   1     -10.732  -2.073   9.526 -0.33 -0.04    +0.052 C 
DOCKED: ATOM     20  C   UNL d   1     -11.186   2.534  13.637 -0.19 +0.01    +0.066 A 
DOCKED: ATOM     21  C   UNL d   1     -11.355   3.011  14.944 -0.13 -0.00    -0.025 A 
DOCKED: ATOM     22  C   UNL d   1     -11.479   4.380  14.834 -0.12 -0.00    -0.021 A 
DOCKED: ATOM     23  C   UNL d   1     -11.387   4.684  13.470 -0.13 +0.00    +0.066 A 
DOCKED: ATOM     24  C   UNL d   1     -11.404   2.227  16.235 -0.08 +0.01    +0.051 C 
DOCKED: ATOM     25  N   UNL d   1     -11.624   5.343  10.532 -0.10 +0.00    -0.248 N 
DOCKED: ATOM     26  N   UNL d   1     -11.632   3.178   8.671 -0.17 +0.01    -0.248 N 
DOCKED: ATOM     27  N   UNL d   1     -11.261   1.359  10.864 -0.19 +0.04    -0.248 N 
DOCKED: ATOM     28  N   UNL d   1     -11.253   3.549  12.741 -0.06 -0.01    -0.248 N 
DOCKED: ATOM     29 FE   UNL d   1     -11.442   3.362  10.707 -0.07 -0.00    +0.000 Fe
DOCKED: ENDROOT
DOCKED: BRANCH   6  30
DOCKED: ATOM     30  C   UNL d   1     -11.419   8.807  11.755 -0.15 -0.00    +0.052 C 
DOCKED: BRANCH  30  31
DOCKED: ATOM     31  C   UNL d   1     -10.022   8.962  12.345 -0.17 +0.01    +0.115 C 
DOCKED: BRANCH  31  32
DOCKED: ATOM     32  C   UNL d   1     -10.089   9.635  13.687 -0.14 +0.00    +0.139 C 
DOCKED: ATOM     33  O   UNL d   1      -9.757  10.805  13.816 -0.01 +0.01    -0.650 OA
DOCKED: BRANCH  32  34
DOCKED: ATOM     34  O   UNL d   1     -10.516   8.953  14.763 +0.04 +0.00    -0.776 OA
DOCKED: ATOM     35  H   UNL d   1      -9.898   8.370  15.226 +0.04 +0.00    +0.167 HD
DOCKED: ENDBRANCH  32  34
DOCKED: ENDBRANCH  31  32
DOCKED: ENDBRANCH  30  31
DOCKED: ENDBRANCH   6  30
DOCKED: BRANCH  22  36
DOCKED: ATOM     36  C   UNL d   1     -11.720   5.336  15.972 -0.06 +0.00    +0.052 C 
DOCKED: BRANCH  36  37
DOCKED: ATOM     37  C   UNL d   1     -10.538   5.304  16.930 -0.06 +0.01    +0.115 C 
DOCKED: BRANCH  37  38
DOCKED: ATOM     38  C   UNL d   1      -9.237   5.373  16.182 -0.14 +0.02    +0.139 C 
DOCKED: ATOM     39  O   UNL d   1      -8.399   4.491  16.302 +0.02 -0.12    -0.650 OA
DOCKED: BRANCH  38  40
DOCKED: ATOM     40  O   UNL d   1      -8.983   6.415  15.372 +0.02 -0.07    -0.776 OA
DOCKED: ATOM     41  H   UNL d   1      -9.721   6.954  15.053 +0.04 +0.01    +0.167 HD
DOCKED: ENDBRANCH  38  40
DOCKED: ENDBRANCH  37  38
DOCKED: ENDBRANCH  36  37
DOCKED: ENDBRANCH  22  36
DOCKED: BRANCH  12  42
DOCKED: ATOM     42  C   UNL d   1     -12.262   1.307   5.498 -0.30 -0.00    +0.004 C 
DOCKED: ATOM     43  C   UNL d   1     -13.334   0.504   5.483 -0.19 -0.00    +0.012 C 
DOCKED: ENDBRANCH  12  42
DOCKED: BRANCH  17  44
DOCKED: ATOM     44  C   UNL d   1     -10.373  -1.767  12.616 -0.26 -0.00    +0.004 C 
DOCKED: ATOM     45  C   UNL d   1     -11.236  -2.210  13.536 -0.17 -0.00    +0.012 C 
DOCKED: ENDBRANCH  17  44
DOCKED: TORSDOF 10
DOCKED: TER
DOCKED: ENDMDL
________________________________________________________________________________


	BEGINNING GENETIC ALGORITHM DOCKING 21 of 100
Run: 21 Seed: 175442677 134990264 [ Run 21 of 100 GA/GALS ]
Beginning LAMARCKIAN GENETIC ALGORITHM (LGA), with a maximum of 25000000 energy evaluations.

Final-Value: -11.962


	FINAL GENETIC ALGORITHM DOCKED STATE
	_______________________________________________


Detailed state:  trans 7.287 -5.151 14.424 quatxyzw -0.468615 -0.166922 -0.861433 -0.102327 center -0.174 -0.001 -0.047 ntor 10 174.1204 -101.4008 15.8110 -166.7694 140.2706 127.7229 -29.9731 -58.2689 163.5253 -7.0357
State:	  7.287  -5.151  14.424  -0.471 -0.168 -0.866 -168.254    174.12 -101.40   15.81 -166.77  140.27  127.72  -29.97  -58.27  163.53   -7.04

DOCKED: MODEL       21
DOCKED: USER    Run = 21
DOCKED: USER    DPF = D:/Protein_go_brrr/autodock/final/mut_N102T/heme_Fe/dock.dpf
DOCKED: USER  
DOCKED: USER    Estimated Free Energy of Binding    =   -7.52 kcal/mol  [=(1)+(2)+(3)-(4)]
DOCKED: USER    Estimated Inhibition Constant, Ki   =    3.09 uM (micromolar)  [Temperature = 298.15 K]
DOCKED: USER    
DOCKED: USER    (1) Final Intermolecular Energy     =  -10.50 kcal/mol
DOCKED: USER        vdW + Hbond + desolv Energy     =   -7.41 kcal/mol
DOCKED: USER        Electrostatic Energy            =   -3.09 kcal/mol
DOCKED: USER    (2) Final Total Internal Energy     =   -1.46 kcal/mol
DOCKED: USER    (3) Torsional Free Energy           =   +2.98 kcal/mol
DOCKED: USER    (4) Unbound System's Energy  [=(2)] =   -1.46 kcal/mol
DOCKED: USER    
DOCKED: USER    
DOCKED: USER    NEWDPF move heme_Fe_opt.pdbqt
DOCKED: USER    NEWDPF about -0.174000 -0.001000 -0.047000
DOCKED: USER    NEWDPF tran0 7.287416 -5.150691 14.424372
DOCKED: USER    NEWDPF quaternion0 -0.468615 -0.166922 -0.861433 -0.102327
DOCKED: USER    NEWDPF axisangle0 -0.471088 -0.167803 -0.865978 -168.253663
DOCKED: USER    NEWDPF quat0 -0.471088 -0.167803 -0.865978 -168.253663
DOCKED: USER    NEWDPF dihe0 174.12 -101.40 15.81 -166.77 140.27 127.72 -29.97 -58.27 163.53 -7.04 
DOCKED: USER  keepresnum = 1 
DOCKED: USER  
DOCKED: REMARK  10 active torsions:
DOCKED: REMARK  status: ('A' for Active; 'I' for Inactive)
DOCKED: REMARK    1  A    between atoms: C_6  and  C_10 
DOCKED: REMARK    2  A    between atoms: C_10  and  C_11 
DOCKED: REMARK    3  A    between atoms: C_11  and  C_12 
DOCKED: REMARK    4  A    between atoms: C_12  and  O_14 
DOCKED: REMARK    5  A    between atoms: C_17  and  C_20 
DOCKED: REMARK    6  A    between atoms: C_24  and  C_27 
DOCKED: REMARK    7  A    between atoms: C_31  and  C_34 
DOCKED: REMARK    8  A    between atoms: C_34  and  C_35 
DOCKED: REMARK    9  A    between atoms: C_35  and  C_36 
DOCKED: REMARK   10  A    between atoms: C_36  and  O_38 
DOCKED: USER                              x       y       z     vdW  Elec       q    Type
DOCKED: USER                           _______ _______ _______ _____ _____    ______ ____
DOCKED: ROOT
DOCKED: ATOM      1  C   UNL d   1       8.749  -4.853  13.015 -0.14 +0.02    +0.064 C 
DOCKED: ATOM      2  C   UNL d   1       5.521  -1.930  15.353 -0.22 -0.01    +0.064 A 
DOCKED: ATOM      3  C   UNL d   1       4.737  -5.449  18.526 -0.14 -0.01    +0.064 C 
DOCKED: ATOM      4  C   UNL d   1       7.778  -8.332  16.217 -0.27 +0.02    +0.064 C 
DOCKED: ATOM      5  C   UNL d   1       7.850  -3.733  13.330 -0.12 +0.01    +0.066 A 
DOCKED: ATOM      6  C   UNL d   1       7.719  -2.586  12.565 -0.18 -0.00    -0.021 A 
DOCKED: ATOM      7  C   UNL d   1       6.825  -1.773  13.217 -0.24 -0.00    -0.025 A 
DOCKED: ATOM      8  C   UNL d   1       6.445  -2.457  14.356 -0.17 +0.00    +0.066 A 
DOCKED: ATOM      9  C   UNL d   1       6.355  -0.428  12.755 -0.46 +0.00    +0.051 C 
DOCKED: ATOM     10  C   UNL d   1       5.093  -2.591  16.430 -0.17 -0.01    +0.066 A 
DOCKED: ATOM     11  C   UNL d   1       4.299  -2.019  17.426 -0.20 +0.00    -0.021 A 
DOCKED: ATOM     12  C   UNL d   1       4.072  -3.009  18.361 -0.10 -0.00    +0.000 A 
DOCKED: ATOM     13  C   UNL d   1       4.755  -4.143  17.887 -0.10 -0.01    +0.070 A 
DOCKED: ATOM     14  C   UNL d   1       3.834  -0.579  17.517 -0.44 -0.01    +0.052 C 
DOCKED: ATOM     15  C   UNL d   1       5.434  -6.529  18.101 -0.17 -0.01    +0.066 A 
DOCKED: ATOM     16  C   UNL d   1       5.313  -7.786  18.680 -0.16 +0.00    -0.021 A 
DOCKED: ATOM     17  C   UNL d   1       6.191  -8.618  18.018 -0.23 +0.00    +0.000 A 
DOCKED: ATOM     18  C   UNL d   1       6.832  -7.847  17.052 -0.23 +0.01    +0.070 A 
DOCKED: ATOM     19  C   UNL d   1       4.425  -8.186  19.828 -0.14 -0.01    +0.052 C 
DOCKED: ATOM     20  C   UNL d   1       8.429  -7.566  15.148 -0.20 +0.02    +0.066 A 
DOCKED: ATOM     21  C   UNL d   1       9.545  -7.991  14.412 -0.16 -0.01    -0.025 A 
DOCKED: ATOM     22  C   UNL d   1       9.796  -6.990  13.496 -0.14 -0.01    -0.021 A 
DOCKED: ATOM     23  C   UNL d   1       8.834  -5.996  13.713 -0.15 +0.02    +0.066 A 
DOCKED: ATOM     24  C   UNL d   1      10.341  -9.267  14.557 -0.16 +0.03    +0.051 C 
DOCKED: ATOM     25  N   UNL d   1       7.063  -3.653  14.417 -0.03 -0.02    -0.248 N 
DOCKED: ATOM     26  N   UNL d   1       5.384  -3.886  16.714 -0.07 +0.02    -0.248 N 
DOCKED: ATOM     27  N   UNL d   1       6.336  -6.574  17.072 -0.13 +0.00    -0.248 N 
DOCKED: ATOM     28  N   UNL d   1       8.031  -6.333  14.751 -0.07 -0.04    -0.248 N 
DOCKED: ATOM     29 FE   UNL d   1       6.708  -5.112  15.733 -0.04 +0.00    +0.000 Fe
DOCKED: ENDROOT
DOCKED: BRANCH   6  30
DOCKED: ATOM     30  C   UNL d   1       8.390  -2.284  11.270 -0.15 +0.02    +0.052 C 
DOCKED: BRANCH  30  31
DOCKED: ATOM     31  C   UNL d   1       9.478  -1.232  11.458 -0.18 +0.05    +0.115 C 
DOCKED: BRANCH  31  32
DOCKED: ATOM     32  C   UNL d   1      10.581  -1.431  10.456 -0.17 +0.11    +0.139 C 
DOCKED: ATOM     33  O   UNL d   1      11.114  -0.472   9.916 -0.59 -0.46    -0.650 OA
DOCKED: BRANCH  32  34
DOCKED: ATOM     34  O   UNL d   1      10.993  -2.672  10.143 -0.08 -1.32    -0.776 OA
DOCKED: ATOM     35  H   UNL d   1      10.631  -3.424  10.633 +0.02 +0.25    +0.167 HD
DOCKED: ENDBRANCH  32  34
DOCKED: ENDBRANCH  31  32
DOCKED: ENDBRANCH  30  31
DOCKED: ENDBRANCH   6  30
DOCKED: BRANCH  22  36
DOCKED: ATOM     36  C   UNL d   1      10.929  -6.970  12.504 -0.10 +0.02    +0.052 C 
DOCKED: BRANCH  36  37
DOCKED: ATOM     37  C   UNL d   1      10.485  -7.628  11.206 -0.10 +0.06    +0.115 C 
DOCKED: BRANCH  37  38
DOCKED: ATOM     38  C   UNL d   1      10.600  -6.673  10.051 -0.08 +0.16    +0.139 C 
DOCKED: ATOM     39  O   UNL d   1      11.208  -6.987   9.038 -0.44 -1.04    -0.650 OA
DOCKED: BRANCH  38  40
DOCKED: ATOM     40  O   UNL d   1      10.033  -5.456  10.128 +0.10 -1.20    -0.776 OA
DOCKED: ATOM     41  H   UNL d   1      10.477  -4.762  10.633 +0.02 +0.25    +0.167 HD
DOCKED: ENDBRANCH  38  40
DOCKED: ENDBRANCH  37  38
DOCKED: ENDBRANCH  36  37
DOCKED: ENDBRANCH  22  36
DOCKED: BRANCH  12  42
DOCKED: ATOM     42  C   UNL d   1       3.273  -2.837  19.613 -0.09 -0.00    +0.004 C 
DOCKED: ATOM     43  C   UNL d   1       1.964  -2.554  19.562 -0.15 -0.01    +0.012 C 
DOCKED: ENDBRANCH  12  42
DOCKED: BRANCH  17  44
DOCKED: ATOM     44  C   UNL d   1       6.390 -10.062  18.280 -0.23 +0.00    +0.004 C 
DOCKED: ATOM     45  C   UNL d   1       7.542 -10.514  18.784 -0.16 +0.00    +0.012 C 
DOCKED: ENDBRANCH  17  44
DOCKED: TORSDOF 10
DOCKED: TER
DOCKED: ENDMDL
________________________________________________________________________________


	BEGINNING GENETIC ALGORITHM DOCKING 22 of 100
Run: 22 Seed: 1385625076 832543790 [ Run 22 of 100 GA/GALS ]
Beginning LAMARCKIAN GENETIC ALGORITHM (LGA), with a maximum of 25000000 energy evaluations.

Final-Value: -9.951


	FINAL GENETIC ALGORITHM DOCKED STATE
	_______________________________________________


Detailed state:  trans -11.535 4.562 12.441 quatxyzw 0.113485 0.707244 -0.062999 -0.694952 center -0.174 -0.001 -0.047 ntor 10 -26.5596 -88.4489 83.2329 -178.6702 -114.0409 175.5905 -110.2095 32.2221 177.2452 172.6103
State:	-11.535   4.562  12.441   0.158  0.984 -0.088 -91.953    -26.56  -88.45   83.23 -178.67 -114.04  175.59 -110.21   32.22  177.25  172.61

DOCKED: MODEL       22
DOCKED: USER    Run = 22
DOCKED: USER    DPF = D:/Protein_go_brrr/autodock/final/mut_N102T/heme_Fe/dock.dpf
DOCKED: USER  
DOCKED: USER    Estimated Free Energy of Binding    =   -5.12 kcal/mol  [=(1)+(2)+(3)-(4)]
DOCKED: USER    Estimated Inhibition Constant, Ki   =  177.93 uM (micromolar)  [Temperature = 298.15 K]
DOCKED: USER    
DOCKED: USER    (1) Final Intermolecular Energy     =   -8.10 kcal/mol
DOCKED: USER        vdW + Hbond + desolv Energy     =   -7.60 kcal/mol
DOCKED: USER        Electrostatic Energy            =   -0.50 kcal/mol
DOCKED: USER    (2) Final Total Internal Energy     =   -1.85 kcal/mol
DOCKED: USER    (3) Torsional Free Energy           =   +2.98 kcal/mol
DOCKED: USER    (4) Unbound System's Energy  [=(2)] =   -1.85 kcal/mol
DOCKED: USER    
DOCKED: USER    
DOCKED: USER    NEWDPF move heme_Fe_opt.pdbqt
DOCKED: USER    NEWDPF about -0.174000 -0.001000 -0.047000
DOCKED: USER    NEWDPF tran0 -11.534968 4.562270 12.440947
DOCKED: USER    NEWDPF quaternion0 0.113485 0.707244 -0.062999 -0.694952
DOCKED: USER    NEWDPF axisangle0 0.157825 0.983573 -0.087614 -91.953183
DOCKED: USER    NEWDPF quat0 0.157825 0.983573 -0.087614 -91.953183
DOCKED: USER    NEWDPF dihe0 -26.56 -88.45 83.23 -178.67 -114.04 175.59 -110.21 32.22 177.25 172.61 
DOCKED: USER  keepresnum = 1 
DOCKED: USER  
DOCKED: REMARK  10 active torsions:
DOCKED: REMARK  status: ('A' for Active; 'I' for Inactive)
DOCKED: REMARK    1  A    between atoms: C_6  and  C_10 
DOCKED: REMARK    2  A    between atoms: C_10  and  C_11 
DOCKED: REMARK    3  A    between atoms: C_11  and  C_12 
DOCKED: REMARK    4  A    between atoms: C_12  and  O_14 
DOCKED: REMARK    5  A    between atoms: C_17  and  C_20 
DOCKED: REMARK    6  A    between atoms: C_24  and  C_27 
DOCKED: REMARK    7  A    between atoms: C_31  and  C_34 
DOCKED: REMARK    8  A    between atoms: C_34  and  C_35 
DOCKED: REMARK    9  A    between atoms: C_35  and  C_36 
DOCKED: REMARK   10  A    between atoms: C_36  and  O_38 
DOCKED: USER                              x       y       z     vdW  Elec       q    Type
DOCKED: USER                           _______ _______ _______ _____ _____    ______ ____
DOCKED: ROOT
DOCKED: ATOM      1  C   UNL d   1     -11.018   4.229  14.399 -0.07 +0.01    +0.064 C 
DOCKED: ATOM      2  C   UNL d   1     -12.061   1.331  10.533 -0.21 -0.01    +0.064 A 
DOCKED: ATOM      3  C   UNL d   1     -11.537   5.124   7.635 -0.17 +0.00    +0.064 C 
DOCKED: ATOM      4  C   UNL d   1     -10.628   7.970  11.372 -0.30 +0.00    +0.064 C 
DOCKED: ATOM      5  C   UNL d   1     -11.442   3.080  13.588 -0.15 +0.01    +0.066 A 
DOCKED: ATOM      6  C   UNL d   1     -11.794   1.840  14.097 -0.14 -0.00    -0.021 A 
DOCKED: ATOM      7  C   UNL d   1     -12.080   1.035  13.023 -0.14 +0.00    -0.025 A 
DOCKED: ATOM      8  C   UNL d   1     -11.892   1.814  11.898 -0.21 -0.00    +0.066 A 
DOCKED: ATOM      9  C   UNL d   1     -12.526  -0.394  13.084 -0.08 -0.00    +0.051 C 
DOCKED: ATOM     10  C   UNL d   1     -11.942   2.077   9.434 -0.21 -0.01    +0.066 A 
DOCKED: ATOM     11  C   UNL d   1     -11.997   1.560   8.137 -0.26 +0.00    -0.021 A 
DOCKED: ATOM     12  C   UNL d   1     -11.832   2.632   7.283 -0.31 -0.00    +0.000 A 
DOCKED: ATOM     13  C   UNL d   1     -11.674   3.757   8.111 -0.25 -0.00    +0.070 A 
DOCKED: ATOM     14  C   UNL d   1     -12.132   0.106   7.732 -0.25 -0.02    +0.052 C 
DOCKED: ATOM     15  C   UNL d   1     -11.333   6.204   8.426 -0.28 -0.00    +0.066 A 
DOCKED: ATOM     16  C   UNL d   1     -11.307   7.506   7.942 -0.28 +0.00    -0.021 A 
DOCKED: ATOM     17  C   UNL d   1     -11.042   8.328   9.017 -0.28 -0.00    +0.000 A 
DOCKED: ATOM     18  C   UNL d   1     -10.908   7.506  10.134 -0.29 -0.00    +0.070 A 
DOCKED: ATOM     19  C   UNL d   1     -11.498   7.960   6.520 -0.25 -0.01    +0.052 C 
DOCKED: ATOM     20  C   UNL d   1     -10.541   7.142  12.581 -0.28 +0.00    +0.066 A 
DOCKED: ATOM     21  C   UNL d   1     -10.059   7.574  13.825 -0.27 -0.00    -0.025 A 
DOCKED: ATOM     22  C   UNL d   1     -10.191   6.496  14.676 -0.19 -0.00    -0.021 A 
DOCKED: ATOM     23  C   UNL d   1     -10.740   5.452  13.920 -0.09 +0.01    +0.066 A 
DOCKED: ATOM     24  C   UNL d   1      -9.498   8.925  14.202 -0.22 +0.00    +0.051 C 
DOCKED: ATOM     25  N   UNL d   1     -11.513   3.061  12.246 -0.11 +0.00    -0.248 N 
DOCKED: ATOM     26  N   UNL d   1     -11.733   3.418   9.422 -0.11 +0.02    -0.248 N 
DOCKED: ATOM     27  N   UNL d   1     -11.130   6.205   9.780 -0.19 +0.00    -0.248 N 
DOCKED: ATOM     28  N   UNL d   1     -10.909   5.839  12.632 -0.14 -0.02    -0.248 N 
DOCKED: ATOM     29 FE   UNL d   1     -11.320   4.630  11.027 -0.07 -0.00    +0.000 Fe
DOCKED: ENDROOT
DOCKED: BRANCH   6  30
DOCKED: ATOM     30  C   UNL d   1     -11.875   1.445  15.532 -0.08 +0.01    +0.052 C 
DOCKED: BRANCH  30  31
DOCKED: ATOM     31  C   UNL d   1     -10.564   0.819  15.995 -0.12 +0.04    +0.115 C 
DOCKED: BRANCH  31  32
DOCKED: ATOM     32  C   UNL d   1      -9.481   1.859  16.066 -0.22 +0.06    +0.139 C 
DOCKED: ATOM     33  O   UNL d   1      -8.518   1.808  15.314 -0.10 -0.41    -0.650 OA
DOCKED: BRANCH  32  34
DOCKED: ATOM     34  O   UNL d   1      -9.563   2.859  16.960 +0.05 -0.18    -0.776 OA
DOCKED: ATOM     35  H   UNL d   1      -8.748   3.276  17.274 +0.05 +0.04    +0.167 HD
DOCKED: ENDBRANCH  32  34
DOCKED: ENDBRANCH  31  32
DOCKED: ENDBRANCH  30  31
DOCKED: ENDBRANCH   6  30
DOCKED: BRANCH  22  36
DOCKED: ATOM     36  C   UNL d   1      -9.767   6.458  16.120 -0.14 +0.00    +0.052 C 
DOCKED: BRANCH  36  37
DOCKED: ATOM     37  C   UNL d   1      -8.329   5.972  16.221 -0.19 +0.01    +0.115 C 
DOCKED: BRANCH  37  38
DOCKED: ATOM     38  C   UNL d   1      -8.104   5.216  17.500 -0.13 +0.01    +0.139 C 
DOCKED: ATOM     39  O   UNL d   1      -7.031   4.676  17.726 +0.02 -0.04    -0.650 OA
DOCKED: BRANCH  38  40
DOCKED: ATOM     40  O   UNL d   1      -9.091   5.126  18.409 +0.05 -0.02    -0.776 OA
DOCKED: ATOM     41  H   UNL d   1      -9.701   4.376  18.367 +0.03 +0.01    +0.167 HD
DOCKED: ENDBRANCH  38  40
DOCKED: ENDBRANCH  37  38
DOCKED: ENDBRANCH  36  37
DOCKED: ENDBRANCH  22  36
DOCKED: BRANCH  12  42
DOCKED: ATOM     42  C   UNL d   1     -11.812   2.541   5.790 -0.34 -0.00    +0.004 C 
DOCKED: ATOM     43  C   UNL d   1     -12.557   3.364   5.040 -0.22 -0.00    +0.012 C 
DOCKED: ENDBRANCH  12  42
DOCKED: BRANCH  17  44
DOCKED: ATOM     44  C   UNL d   1     -10.943   9.804   8.982 -0.24 -0.00    +0.004 C 
DOCKED: ATOM     45  C   UNL d   1      -9.850  10.429   9.433 -0.23 -0.00    +0.012 C 
DOCKED: ENDBRANCH  17  44
DOCKED: TORSDOF 10
DOCKED: TER
DOCKED: ENDMDL
________________________________________________________________________________


	BEGINNING GENETIC ALGORITHM DOCKING 23 of 100
Run: 23 Seed: 64026841 1698801490 [ Run 23 of 100 GA/GALS ]
Beginning LAMARCKIAN GENETIC ALGORITHM (LGA), with a maximum of 25000000 energy evaluations.

Final-Value: -11.995


	FINAL GENETIC ALGORITHM DOCKED STATE
	_______________________________________________


Detailed state:  trans 11.711 -7.863 6.535 quatxyzw -0.238072 -0.714742 0.288838 0.590795 center -0.174 -0.001 -0.047 ntor 10 -174.4685 141.3875 71.6677 18.2360 86.5960 52.4836 37.2355 -136.1285 149.2833 -33.0915
State:	 11.711  -7.863   6.535  -0.295 -0.886  0.358 107.573   -174.47  141.39   71.67   18.24   86.60   52.48   37.24 -136.13  149.28  -33.09

DOCKED: MODEL       23
DOCKED: USER    Run = 23
DOCKED: USER    DPF = D:/Protein_go_brrr/autodock/final/mut_N102T/heme_Fe/dock.dpf
DOCKED: USER  
DOCKED: USER    Estimated Free Energy of Binding    =   -8.37 kcal/mol  [=(1)+(2)+(3)-(4)]
DOCKED: USER    Estimated Inhibition Constant, Ki   =  726.70 nM (nanomolar)  [Temperature = 298.15 K]
DOCKED: USER    
DOCKED: USER    (1) Final Intermolecular Energy     =  -11.36 kcal/mol
DOCKED: USER        vdW + Hbond + desolv Energy     =   -7.99 kcal/mol
DOCKED: USER        Electrostatic Energy            =   -3.37 kcal/mol
DOCKED: USER    (2) Final Total Internal Energy     =   -0.64 kcal/mol
DOCKED: USER    (3) Torsional Free Energy           =   +2.98 kcal/mol
DOCKED: USER    (4) Unbound System's Energy  [=(2)] =   -0.64 kcal/mol
DOCKED: USER    
DOCKED: USER    
DOCKED: USER    NEWDPF move heme_Fe_opt.pdbqt
DOCKED: USER    NEWDPF about -0.174000 -0.001000 -0.047000
DOCKED: USER    NEWDPF tran0 11.710554 -7.862723 6.535487
DOCKED: USER    NEWDPF quaternion0 -0.238072 -0.714742 0.288838 0.590795
DOCKED: USER    NEWDPF axisangle0 -0.295074 -0.885873 0.357995 107.573148
DOCKED: USER    NEWDPF quat0 -0.295074 -0.885873 0.357995 107.573148
DOCKED: USER    NEWDPF dihe0 -174.47 141.39 71.67 18.24 86.60 52.48 37.24 -136.13 149.28 -33.09 
DOCKED: USER  keepresnum = 1 
DOCKED: USER  
DOCKED: REMARK  10 active torsions:
DOCKED: REMARK  status: ('A' for Active; 'I' for Inactive)
DOCKED: REMARK    1  A    between atoms: C_6  and  C_10 
DOCKED: REMARK    2  A    between atoms: C_10  and  C_11 
DOCKED: REMARK    3  A    between atoms: C_11  and  C_12 
DOCKED: REMARK    4  A    between atoms: C_12  and  O_14 
DOCKED: REMARK    5  A    between atoms: C_17  and  C_20 
DOCKED: REMARK    6  A    between atoms: C_24  and  C_27 
DOCKED: REMARK    7  A    between atoms: C_31  and  C_34 
DOCKED: REMARK    8  A    between atoms: C_34  and  C_35 
DOCKED: REMARK    9  A    between atoms: C_35  and  C_36 
DOCKED: REMARK   10  A    between atoms: C_36  and  O_38 
DOCKED: USER                              x       y       z     vdW  Elec       q    Type
DOCKED: USER                           _______ _______ _______ _____ _____    ______ ____
DOCKED: ROOT
DOCKED: ATOM      1  C   UNL d   1      12.420  -8.273   8.417 -0.09 +0.04    +0.064 C 
DOCKED: ATOM      2  C   UNL d   1       9.328 -10.535   5.294 -0.30 +0.01    +0.064 A 
DOCKED: ATOM      3  C   UNL d   1      10.934  -7.704   1.762 -0.22 -0.02    +0.064 C 
DOCKED: ATOM      4  C   UNL d   1      13.858  -5.430   4.790 -0.11 +0.03    +0.064 C 
DOCKED: ATOM      5  C   UNL d   1      11.341  -9.115   7.884 -0.12 +0.03    +0.066 A 
DOCKED: ATOM      6  C   UNL d   1      10.567  -9.981   8.639 -0.14 -0.01    -0.021 A 
DOCKED: ATOM      7  C   UNL d   1       9.711 -10.612   7.770 -0.29 -0.01    -0.025 A 
DOCKED: ATOM      8  C   UNL d   1       9.995 -10.106   6.517 -0.25 +0.01    +0.066 A 
DOCKED: ATOM      9  C   UNL d   1       8.671 -11.626   8.136 -0.21 +0.00    +0.051 C 
DOCKED: ATOM     10  C   UNL d   1       9.543 -10.022   4.081 -0.25 +0.00    +0.066 A 
DOCKED: ATOM     11  C   UNL d   1       8.972 -10.532   2.912 -0.35 +0.00    -0.021 A 
DOCKED: ATOM     12  C   UNL d   1       9.433  -9.743   1.877 -0.30 -0.00    +0.000 A 
DOCKED: ATOM     13  C   UNL d   1      10.276  -8.789   2.473 -0.18 -0.01    +0.070 A 
DOCKED: ATOM     14  C   UNL d   1       8.085 -11.753   2.779 -0.49 +0.00    +0.052 C 
DOCKED: ATOM     15  C   UNL d   1      11.787  -6.814   2.323 -0.16 -0.01    +0.066 A 
DOCKED: ATOM     16  C   UNL d   1      12.317  -5.732   1.631 -0.23 +0.01    -0.021 A 
DOCKED: ATOM     17  C   UNL d   1      13.163  -5.077   2.502 -0.17 +0.00    +0.000 A 
DOCKED: ATOM     18  C   UNL d   1      13.133  -5.779   3.705 -0.11 +0.01    +0.070 A 
DOCKED: ATOM     19  C   UNL d   1      12.059  -5.342   0.201 -0.27 -0.04    +0.052 C 
DOCKED: ATOM     20  C   UNL d   1      13.804  -6.108   6.091 -0.05 +0.04    +0.066 A 
DOCKED: ATOM     21  C   UNL d   1      14.689  -5.886   7.156 -0.08 -0.02    -0.025 A 
DOCKED: ATOM     22  C   UNL d   1      14.253  -6.697   8.183 -0.07 -0.01    -0.021 A 
DOCKED: ATOM     23  C   UNL d   1      13.130  -7.383   7.705 -0.07 +0.05    +0.066 A 
DOCKED: ATOM     24  C   UNL d   1      15.886  -4.966   7.212 -0.05 +0.02    +0.051 C 
DOCKED: ATOM     25  N   UNL d   1      10.981  -9.189   6.590 -0.08 -0.08    -0.248 N 
DOCKED: ATOM     26  N   UNL d   1      10.350  -8.964   3.815 -0.10 -0.01    -0.248 N 
DOCKED: ATOM     27  N   UNL d   1      12.254  -6.821   3.610 -0.06 -0.03    -0.248 N 
DOCKED: ATOM     28  N   UNL d   1      12.888  -7.052   6.414 -0.07 -0.18    -0.248 N 
DOCKED: ATOM     29 FE   UNL d   1      11.620  -8.007   5.114 -0.03 +0.00    +0.000 Fe
DOCKED: ENDROOT
DOCKED: BRANCH   6  30
DOCKED: ATOM     30  C   UNL d   1      10.622 -10.185  10.114 -0.13 +0.02    +0.052 C 
DOCKED: BRANCH  30  31
DOCKED: ATOM     31  C   UNL d   1      10.928 -11.641  10.447 -0.15 +0.04    +0.115 C 
DOCKED: BRANCH  31  32
DOCKED: ATOM     32  C   UNL d   1      10.158 -12.077  11.662 -0.20 +0.11    +0.139 C 
DOCKED: ATOM     33  O   UNL d   1       9.018 -12.507  11.556 -0.29 -0.52    -0.650 OA
DOCKED: BRANCH  32  34
DOCKED: ATOM     34  O   UNL d   1      10.718 -11.997  12.881 -0.43 -1.08    -0.776 OA
DOCKED: ATOM     35  H   UNL d   1      11.587 -11.582  12.972 +0.02 +0.14    +0.167 HD
DOCKED: ENDBRANCH  32  34
DOCKED: ENDBRANCH  31  32
DOCKED: ENDBRANCH  30  31
DOCKED: ENDBRANCH   6  30
DOCKED: BRANCH  22  36
DOCKED: ATOM     36  C   UNL d   1      14.911  -6.840   9.531 -0.03 +0.02    +0.052 C 
DOCKED: BRANCH  36  37
DOCKED: ATOM     37  C   UNL d   1      14.852  -5.514  10.274 -0.03 +0.06    +0.115 C 
DOCKED: BRANCH  37  38
DOCKED: ATOM     38  C   UNL d   1      13.502  -4.872  10.125 +0.09 +0.18    +0.139 C 
DOCKED: ATOM     39  O   UNL d   1      12.482  -5.493  10.388 +0.00 -0.92    -0.650 OA
DOCKED: BRANCH  38  40
DOCKED: ATOM     40  O   UNL d   1      13.406  -3.601   9.695 -0.38 -1.40    -0.776 OA
DOCKED: ATOM     41  H   UNL d   1      14.055  -2.952  10.000 +0.01 +0.15    +0.167 HD
DOCKED: ENDBRANCH  38  40
DOCKED: ENDBRANCH  37  38
DOCKED: ENDBRANCH  36  37
DOCKED: ENDBRANCH  22  36
DOCKED: BRANCH  12  42
DOCKED: ATOM     42  C   UNL d   1       9.084  -9.933   0.435 -0.46 -0.00    +0.004 C 
DOCKED: ATOM     43  C   UNL d   1       8.458  -8.971  -0.255 -0.59 -0.01    +0.012 C 
DOCKED: ENDBRANCH  12  42
DOCKED: BRANCH  17  44
DOCKED: ATOM     44  C   UNL d   1      13.935  -3.848   2.208 -0.20 +0.00    +0.004 C 
DOCKED: ATOM     45  C   UNL d   1      13.322  -2.665   2.097 -0.33 +0.00    +0.012 C 
DOCKED: ENDBRANCH  17  44
DOCKED: TORSDOF 10
DOCKED: TER
DOCKED: ENDMDL
________________________________________________________________________________


	BEGINNING GENETIC ALGORITHM DOCKING 24 of 100
Run: 24 Seed: 1946923743 652266820 [ Run 24 of 100 GA/GALS ]
Beginning LAMARCKIAN GENETIC ALGORITHM (LGA), with a maximum of 25000000 energy evaluations.

Final-Value: -11.253


	FINAL GENETIC ALGORITHM DOCKED STATE
	_______________________________________________


Detailed state:  trans -9.277 -13.222 -10.326 quatxyzw -0.036626 -0.704927 0.152765 0.691664 center -0.174 -0.001 -0.047 ntor 10 -153.7707 -105.6226 -165.6363 20.5366 -103.4156 -150.7018 135.2509 82.1474 -150.5200 -173.0942
State:	 -9.277 -13.222 -10.326  -0.051 -0.976  0.212 92.476   -153.77 -105.62 -165.64   20.54 -103.42 -150.70  135.25   82.15 -150.52 -173.09

DOCKED: MODEL       24
DOCKED: USER    Run = 24
DOCKED: USER    DPF = D:/Protein_go_brrr/autodock/final/mut_N102T/heme_Fe/dock.dpf
DOCKED: USER  
DOCKED: USER    Estimated Free Energy of Binding    =   -6.84 kcal/mol  [=(1)+(2)+(3)-(4)]
DOCKED: USER    Estimated Inhibition Constant, Ki   =    9.71 uM (micromolar)  [Temperature = 298.15 K]
DOCKED: USER    
DOCKED: USER    (1) Final Intermolecular Energy     =   -9.82 kcal/mol
DOCKED: USER        vdW + Hbond + desolv Energy     =   -6.47 kcal/mol
DOCKED: USER        Electrostatic Energy            =   -3.35 kcal/mol
DOCKED: USER    (2) Final Total Internal Energy     =   -1.43 kcal/mol
DOCKED: USER    (3) Torsional Free Energy           =   +2.98 kcal/mol
DOCKED: USER    (4) Unbound System's Energy  [=(2)] =   -1.43 kcal/mol
DOCKED: USER    
DOCKED: USER    
DOCKED: USER    NEWDPF move heme_Fe_opt.pdbqt
DOCKED: USER    NEWDPF about -0.174000 -0.001000 -0.047000
DOCKED: USER    NEWDPF tran0 -9.276930 -13.221691 -10.325952
DOCKED: USER    NEWDPF quaternion0 -0.036626 -0.704927 0.152765 0.691664
DOCKED: USER    NEWDPF axisangle0 -0.050713 -0.976057 0.211522 92.476055
DOCKED: USER    NEWDPF quat0 -0.050713 -0.976057 0.211522 92.476055
DOCKED: USER    NEWDPF dihe0 -153.77 -105.62 -165.64 20.54 -103.42 -150.70 135.25 82.15 -150.52 -173.09 
DOCKED: USER  keepresnum = 1 
DOCKED: USER  
DOCKED: REMARK  10 active torsions:
DOCKED: REMARK  status: ('A' for Active; 'I' for Inactive)
DOCKED: REMARK    1  A    between atoms: C_6  and  C_10 
DOCKED: REMARK    2  A    between atoms: C_10  and  C_11 
DOCKED: REMARK    3  A    between atoms: C_11  and  C_12 
DOCKED: REMARK    4  A    between atoms: C_12  and  O_14 
DOCKED: REMARK    5  A    between atoms: C_17  and  C_20 
DOCKED: REMARK    6  A    between atoms: C_24  and  C_27 
DOCKED: REMARK    7  A    between atoms: C_31  and  C_34 
DOCKED: REMARK    8  A    between atoms: C_34  and  C_35 
DOCKED: REMARK    9  A    between atoms: C_35  and  C_36 
DOCKED: REMARK   10  A    between atoms: C_36  and  O_38 
DOCKED: USER                              x       y       z     vdW  Elec       q    Type
DOCKED: USER                           _______ _______ _______ _____ _____    ______ ____
DOCKED: ROOT
DOCKED: ATOM      1  C   UNL d   1      -8.699 -13.103  -8.360 -0.12 +0.02    +0.064 C 
DOCKED: ATOM      2  C   UNL d   1      -9.909 -16.795 -11.416 -0.07 +0.01    +0.064 A 
DOCKED: ATOM      3  C   UNL d   1      -9.431 -13.787 -15.129 -0.13 +0.01    +0.064 C 
DOCKED: ATOM      4  C   UNL d   1      -8.362 -10.174 -12.182 -0.30 +0.02    +0.064 C 
DOCKED: ATOM      5  C   UNL d   1      -9.166 -14.400  -8.869 -0.08 +0.02    +0.066 A 
DOCKED: ATOM      6  C   UNL d   1      -9.516 -15.481  -8.077 -0.03 -0.01    -0.021 A 
DOCKED: ATOM      7  C   UNL d   1      -9.848 -16.507  -8.926 -0.03 -0.01    -0.025 A 
DOCKED: ATOM      8  C   UNL d   1      -9.688 -16.013 -10.206 -0.07 +0.02    +0.066 A 
DOCKED: ATOM      9  C   UNL d   1     -10.311 -17.873  -8.522 -0.00 +0.01    +0.051 C 
DOCKED: ATOM     10  C   UNL d   1      -9.816 -16.327 -12.661 -0.10 +0.01    +0.066 A 
DOCKED: ATOM     11  C   UNL d   1      -9.921 -17.128 -13.800 -0.07 -0.00    -0.021 A 
DOCKED: ATOM     12  C   UNL d   1      -9.770 -16.287 -14.885 -0.09 +0.00    +0.000 A 
DOCKED: ATOM     13  C   UNL d   1      -9.571 -15.004 -14.345 -0.12 +0.00    +0.070 A 
DOCKED: ATOM     14  C   UNL d   1     -10.089 -18.633 -13.853 -0.03 +0.00    +0.052 C 
DOCKED: ATOM     15  C   UNL d   1      -9.187 -12.558 -14.616 -0.12 +0.01    +0.066 A 
DOCKED: ATOM     16  C   UNL d   1      -9.160 -11.405 -15.390 -0.14 -0.00    -0.021 A 
DOCKED: ATOM     17  C   UNL d   1      -8.848 -10.362 -14.543 -0.22 +0.00    +0.000 A 
DOCKED: ATOM     18  C   UNL d   1      -8.688 -10.905 -13.270 -0.19 +0.02    +0.070 A 
DOCKED: ATOM     19  C   UNL d   1      -9.392 -11.288 -16.872 -0.08 +0.01    +0.052 C 
DOCKED: ATOM     20  C   UNL d   1      -8.245 -10.700 -10.817 -0.22 +0.02    +0.066 A 
DOCKED: ATOM     21  C   UNL d   1      -7.716 -10.003  -9.722 -0.26 -0.01    -0.025 A 
DOCKED: ATOM     22  C   UNL d   1      -7.834 -10.852  -8.641 -0.19 -0.01    -0.021 A 
DOCKED: ATOM     23  C   UNL d   1      -8.421 -12.030  -9.117 -0.14 +0.02    +0.066 A 
DOCKED: ATOM     24  C   UNL d   1      -7.125  -8.612  -9.685 -0.40 +0.01    +0.051 C 
DOCKED: ATOM     25  N   UNL d   1      -9.281 -14.728 -10.168 -0.08 -0.07    -0.248 N 
DOCKED: ATOM     26  N   UNL d   1      -9.590 -15.029 -12.990 -0.08 -0.03    -0.248 N 
DOCKED: ATOM     27  N   UNL d   1      -8.939 -12.248 -13.306 -0.10 -0.06    -0.248 N 
DOCKED: ATOM     28  N   UNL d   1      -8.628 -11.949 -10.454 -0.11 -0.06    -0.248 N 
DOCKED: ATOM     29 FE   UNL d   1      -9.109 -13.487 -11.722 -0.04 +0.00    +0.000 Fe
DOCKED: ENDROOT
DOCKED: BRANCH   6  30
DOCKED: ATOM     30  C   UNL d   1      -9.556 -15.532  -6.588 -0.01 +0.02    +0.052 C 
DOCKED: BRANCH  30  31
DOCKED: ATOM     31  C   UNL d   1      -8.172 -15.271  -6.002 -0.05 +0.09    +0.115 C 
DOCKED: BRANCH  31  32
DOCKED: ATOM     32  C   UNL d   1      -7.128 -16.051  -6.751 -0.03 +0.19    +0.139 C 
DOCKED: ATOM     33  O   UNL d   1      -6.646 -17.068  -6.272 -0.03 -0.84    -0.650 OA
DOCKED: BRANCH  32  34
DOCKED: ATOM     34  O   UNL d   1      -6.714 -15.636  -7.960 -0.42 -1.58    -0.776 OA
DOCKED: ATOM     35  H   UNL d   1      -6.774 -14.695  -8.179 -0.22 +0.28    +0.167 HD
DOCKED: ENDBRANCH  32  34
DOCKED: ENDBRANCH  31  32
DOCKED: ENDBRANCH  30  31
DOCKED: ENDBRANCH   6  30
DOCKED: BRANCH  22  36
DOCKED: ATOM     36  C   UNL d   1      -7.363 -10.562  -7.240 -0.26 +0.02    +0.052 C 
DOCKED: BRANCH  36  37
DOCKED: ATOM     37  C   UNL d   1      -5.850 -10.707  -7.167 -0.41 +0.06    +0.115 C 
DOCKED: BRANCH  37  38
DOCKED: ATOM     38  C   UNL d   1      -5.463 -12.048  -6.611 -0.26 +0.15    +0.139 C 
DOCKED: ATOM     39  O   UNL d   1      -4.421 -12.190  -5.989 -0.52 -0.88    -0.650 OA
DOCKED: BRANCH  38  40
DOCKED: ATOM     40  O   UNL d   1      -6.267 -13.110  -6.799 +0.06 -1.06    -0.776 OA
DOCKED: ATOM     41  H   UNL d   1      -6.304 -13.522  -7.674 -0.39 +0.24    +0.167 HD
DOCKED: ENDBRANCH  38  40
DOCKED: ENDBRANCH  37  38
DOCKED: ENDBRANCH  36  37
DOCKED: ENDBRANCH  22  36
DOCKED: BRANCH  12  42
DOCKED: ATOM     42  C   UNL d   1      -9.802 -16.721 -16.316 -0.04 +0.00    +0.004 C 
DOCKED: ATOM     43  C   UNL d   1      -8.732 -16.565 -17.107 -0.06 +0.00    +0.012 C 
DOCKED: ENDBRANCH  12  42
DOCKED: BRANCH  17  44
DOCKED: ATOM     44  C   UNL d   1      -8.731  -8.936 -14.922 -0.14 +0.00    +0.004 C 
DOCKED: ATOM     45  C   UNL d   1      -9.820  -8.203 -15.176 -0.09 +0.01    +0.012 C 
DOCKED: ENDBRANCH  17  44
DOCKED: TORSDOF 10
DOCKED: TER
DOCKED: ENDMDL
________________________________________________________________________________


	BEGINNING GENETIC ALGORITHM DOCKING 25 of 100
Run: 25 Seed: 718717889 308034123 [ Run 25 of 100 GA/GALS ]
Beginning LAMARCKIAN GENETIC ALGORITHM (LGA), with a maximum of 25000000 energy evaluations.

Final-Value: -11.869


	FINAL GENETIC ALGORITHM DOCKED STATE
	_______________________________________________


Detailed state:  trans 7.008 -6.681 15.170 quatxyzw 0.270856 0.349545 0.764178 -0.469560 center -0.174 -0.001 -0.047 ntor 10 -164.5287 -82.6025 179.2683 48.2919 -23.1640 163.6445 -35.3243 46.6301 -125.7538 -180.0000
State:	  7.008  -6.681  15.170   0.307  0.396  0.866 -123.988   -164.53  -82.60  179.27   48.29  -23.16  163.64  -35.32   46.63 -125.75 -180.00

DOCKED: MODEL       25
DOCKED: USER    Run = 25
DOCKED: USER    DPF = D:/Protein_go_brrr/autodock/final/mut_N102T/heme_Fe/dock.dpf
DOCKED: USER  
DOCKED: USER    Estimated Free Energy of Binding    =   -7.51 kcal/mol  [=(1)+(2)+(3)-(4)]
DOCKED: USER    Estimated Inhibition Constant, Ki   =    3.14 uM (micromolar)  [Temperature = 298.15 K]
DOCKED: USER    
DOCKED: USER    (1) Final Intermolecular Energy     =  -10.49 kcal/mol
DOCKED: USER        vdW + Hbond + desolv Energy     =   -8.13 kcal/mol
DOCKED: USER        Electrostatic Energy            =   -2.36 kcal/mol
DOCKED: USER    (2) Final Total Internal Energy     =   -1.38 kcal/mol
DOCKED: USER    (3) Torsional Free Energy           =   +2.98 kcal/mol
DOCKED: USER    (4) Unbound System's Energy  [=(2)] =   -1.38 kcal/mol
DOCKED: USER    
DOCKED: USER    
DOCKED: USER    NEWDPF move heme_Fe_opt.pdbqt
DOCKED: USER    NEWDPF about -0.174000 -0.001000 -0.047000
DOCKED: USER    NEWDPF tran0 7.007942 -6.680900 15.169898
DOCKED: USER    NEWDPF quaternion0 0.270856 0.349545 0.764178 -0.469560
DOCKED: USER    NEWDPF axisangle0 0.306780 0.395905 0.865532 -123.988460
DOCKED: USER    NEWDPF quat0 0.306780 0.395905 0.865532 -123.988460
DOCKED: USER    NEWDPF dihe0 -164.53 -82.60 179.27 48.29 -23.16 163.64 -35.32 46.63 -125.75 -180.00 
DOCKED: USER  keepresnum = 1 
DOCKED: USER  
DOCKED: REMARK  10 active torsions:
DOCKED: REMARK  status: ('A' for Active; 'I' for Inactive)
DOCKED: REMARK    1  A    between atoms: C_6  and  C_10 
DOCKED: REMARK    2  A    between atoms: C_10  and  C_11 
DOCKED: REMARK    3  A    between atoms: C_11  and  C_12 
DOCKED: REMARK    4  A    between atoms: C_12  and  O_14 
DOCKED: REMARK    5  A    between atoms: C_17  and  C_20 
DOCKED: REMARK    6  A    between atoms: C_24  and  C_27 
DOCKED: REMARK    7  A    between atoms: C_31  and  C_34 
DOCKED: REMARK    8  A    between atoms: C_34  and  C_35 
DOCKED: REMARK    9  A    between atoms: C_35  and  C_36 
DOCKED: REMARK   10  A    between atoms: C_36  and  O_38 
DOCKED: USER                              x       y       z     vdW  Elec       q    Type
DOCKED: USER                           _______ _______ _______ _____ _____    ______ ____
DOCKED: ROOT
DOCKED: ATOM      1  C   UNL d   1       8.251  -8.310  15.278 -0.28 +0.02    +0.064 C 
DOCKED: ATOM      2  C   UNL d   1       8.358  -4.006  12.850 -0.12 +0.02    +0.064 A 
DOCKED: ATOM      3  C   UNL d   1       4.891  -2.368  15.743 -0.25 -0.01    +0.064 C 
DOCKED: ATOM      4  C   UNL d   1       4.698  -6.561  18.037 -0.18 -0.01    +0.064 C 
DOCKED: ATOM      5  C   UNL d   1       8.544  -7.279  14.272 -0.20 +0.02    +0.066 A 
DOCKED: ATOM      6  C   UNL d   1       9.414  -7.439  13.206 -0.17 -0.01    -0.021 A 
DOCKED: ATOM      7  C   UNL d   1       9.446  -6.242  12.535 -0.17 -0.01    -0.025 A 
DOCKED: ATOM      8  C   UNL d   1       8.593  -5.397  13.218 -0.14 +0.02    +0.066 A 
DOCKED: ATOM      9  C   UNL d   1      10.238  -5.944  11.299 -0.16 +0.04    +0.051 C 
DOCKED: ATOM     10  C   UNL d   1       7.497  -3.186  13.457 -0.13 +0.01    +0.066 A 
DOCKED: ATOM     11  C   UNL d   1       7.378  -1.828  13.155 -0.21 -0.00    -0.021 A 
DOCKED: ATOM     12  C   UNL d   1       6.396  -1.328  13.988 -0.30 -0.00    +0.000 A 
DOCKED: ATOM     13  C   UNL d   1       5.969  -2.417  14.768 -0.19 -0.00    +0.070 A 
DOCKED: ATOM     14  C   UNL d   1       8.206  -1.028  12.171 -0.29 +0.01    +0.052 C 
DOCKED: ATOM     15  C   UNL d   1       4.511  -3.400  16.532 -0.18 -0.01    +0.066 A 
DOCKED: ATOM     16  C   UNL d   1       3.413  -3.342  17.380 -0.19 +0.00    -0.021 A 
DOCKED: ATOM     17  C   UNL d   1       3.357  -4.549  18.046 -0.18 -0.00    +0.000 A 
DOCKED: ATOM     18  C   UNL d   1       4.428  -5.315  17.590 -0.20 -0.01    +0.070 A 
DOCKED: ATOM     19  C   UNL d   1       2.465  -2.190  17.579 -0.31 -0.02    +0.052 C 
DOCKED: ATOM     20  C   UNL d   1       5.778  -7.420  17.537 -0.22 -0.01    +0.066 A 
DOCKED: ATOM     21  C   UNL d   1       6.193  -8.624  18.124 -0.22 -0.00    -0.025 A 
DOCKED: ATOM     22  C   UNL d   1       7.198  -9.111  17.314 -0.22 -0.00    -0.021 A 
DOCKED: ATOM     23  C   UNL d   1       7.360  -8.188  16.274 -0.26 +0.01    +0.066 A 
DOCKED: ATOM     24  C   UNL d   1       5.681  -9.286  19.381 -0.17 -0.00    +0.051 C 
DOCKED: ATOM     25  N   UNL d   1       8.038  -6.034  14.268 -0.05 -0.04    -0.248 N 
DOCKED: ATOM     26  N   UNL d   1       6.646  -3.548  14.450 -0.02 -0.01    -0.248 N 
DOCKED: ATOM     27  N   UNL d   1       5.112  -4.626  16.628 -0.03 +0.02    -0.248 N 
DOCKED: ATOM     28  N   UNL d   1       6.522  -7.135  16.441 -0.07 -0.01    -0.248 N 
DOCKED: ATOM     29 FE   UNL d   1       6.583  -5.342  15.447 -0.02 +0.00    +0.000 Fe
DOCKED: ENDROOT
DOCKED: BRANCH   6  30
DOCKED: ATOM     30  C   UNL d   1      10.162  -8.672  12.830 -0.10 +0.02    +0.052 C 
DOCKED: BRANCH  30  31
DOCKED: ATOM     31  C   UNL d   1      10.614  -9.430  14.073 -0.14 +0.06    +0.115 C 
DOCKED: BRANCH  31  32
DOCKED: ATOM     32  C   UNL d   1      10.562 -10.914  13.833 -0.05 +0.17    +0.139 C 
DOCKED: ATOM     33  O   UNL d   1       9.830 -11.380  12.971 -0.45 -0.93    -0.650 OA
DOCKED: BRANCH  32  34
DOCKED: ATOM     34  O   UNL d   1      11.323 -11.743  14.566 -0.04 -1.15    -0.776 OA
DOCKED: ATOM     35  H   UNL d   1      11.724 -11.414  15.383 +0.01 +0.17    +0.167 HD
DOCKED: ENDBRANCH  32  34
DOCKED: ENDBRANCH  31  32
DOCKED: ENDBRANCH  30  31
DOCKED: ENDBRANCH   6  30
DOCKED: BRANCH  22  36
DOCKED: ATOM     36  C   UNL d   1       7.989 -10.370  17.555 -0.11 +0.02    +0.052 C 
DOCKED: BRANCH  36  37
DOCKED: ATOM     37  C   UNL d   1       9.124 -10.084  18.527 -0.08 +0.03    +0.115 C 
DOCKED: BRANCH  37  38
DOCKED: ATOM     38  C   UNL d   1      10.413 -10.685  18.043 -0.07 +0.06    +0.139 C 
DOCKED: ATOM     39  O   UNL d   1      11.484 -10.327  18.509 +0.01 -0.18    -0.650 OA
DOCKED: BRANCH  38  40
DOCKED: ATOM     40  O   UNL d   1      10.395 -11.627  17.082 -0.58 -0.89    -0.776 OA
DOCKED: ATOM     41  H   UNL d   1      10.552 -11.364  16.164 +0.01 +0.26    +0.167 HD
DOCKED: ENDBRANCH  38  40
DOCKED: ENDBRANCH  37  38
DOCKED: ENDBRANCH  36  37
DOCKED: ENDBRANCH  22  36
DOCKED: BRANCH  12  42
DOCKED: ATOM     42  C   UNL d   1       5.942   0.097  14.018 -0.52 -0.00    +0.004 C 
DOCKED: ATOM     43  C   UNL d   1       5.803   0.752  15.178 -0.46 -0.00    +0.012 C 
DOCKED: ENDBRANCH  12  42
DOCKED: BRANCH  17  44
DOCKED: ATOM     44  C   UNL d   1       2.334  -4.952  19.038 -0.16 -0.00    +0.004 C 
DOCKED: ATOM     45  C   UNL d   1       1.338  -5.776  18.698 -0.28 -0.00    +0.012 C 
DOCKED: ENDBRANCH  17  44
DOCKED: TORSDOF 10
DOCKED: TER
DOCKED: ENDMDL
________________________________________________________________________________


	BEGINNING GENETIC ALGORITHM DOCKING 26 of 100
Run: 26 Seed: 1105138249 146471581 [ Run 26 of 100 GA/GALS ]
Beginning LAMARCKIAN GENETIC ALGORITHM (LGA), with a maximum of 25000000 energy evaluations.

Final-Value: -11.758


	FINAL GENETIC ALGORITHM DOCKED STATE
	_______________________________________________


Detailed state:  trans 11.806 -7.908 7.024 quatxyzw -0.223204 -0.718962 0.271953 0.599430 center -0.174 -0.001 -0.047 ntor 10 -180.0000 160.3280 58.8122 2.8253 97.4205 99.7667 41.3693 176.5418 150.0549 -1.6663
State:	 11.806  -7.908   7.024  -0.279 -0.898  0.340 106.342   -180.00  160.33   58.81    2.83   97.42   99.77   41.37  176.54  150.05   -1.67

DOCKED: MODEL       26
DOCKED: USER    Run = 26
DOCKED: USER    DPF = D:/Protein_go_brrr/autodock/final/mut_N102T/heme_Fe/dock.dpf
DOCKED: USER  
DOCKED: USER    Estimated Free Energy of Binding    =   -8.20 kcal/mol  [=(1)+(2)+(3)-(4)]
DOCKED: USER    Estimated Inhibition Constant, Ki   =  972.10 nM (nanomolar)  [Temperature = 298.15 K]
DOCKED: USER    
DOCKED: USER    (1) Final Intermolecular Energy     =  -11.19 kcal/mol
DOCKED: USER        vdW + Hbond + desolv Energy     =   -7.28 kcal/mol
DOCKED: USER        Electrostatic Energy            =   -3.91 kcal/mol
DOCKED: USER    (2) Final Total Internal Energy     =   -0.57 kcal/mol
DOCKED: USER    (3) Torsional Free Energy           =   +2.98 kcal/mol
DOCKED: USER    (4) Unbound System's Energy  [=(2)] =   -0.57 kcal/mol
DOCKED: USER    
DOCKED: USER    
DOCKED: USER    NEWDPF move heme_Fe_opt.pdbqt
DOCKED: USER    NEWDPF about -0.174000 -0.001000 -0.047000
DOCKED: USER    NEWDPF tran0 11.805932 -7.907554 7.023530
DOCKED: USER    NEWDPF quaternion0 -0.223204 -0.718962 0.271953 0.599430
DOCKED: USER    NEWDPF axisangle0 -0.278856 -0.898222 0.339759 106.341855
DOCKED: USER    NEWDPF quat0 -0.278856 -0.898222 0.339759 106.341855
DOCKED: USER    NEWDPF dihe0 -180.00 160.33 58.81 2.83 97.42 99.77 41.37 176.54 150.05 -1.67 
DOCKED: USER  keepresnum = 1 
DOCKED: USER  
DOCKED: REMARK  10 active torsions:
DOCKED: REMARK  status: ('A' for Active; 'I' for Inactive)
DOCKED: REMARK    1  A    between atoms: C_6  and  C_10 
DOCKED: REMARK    2  A    between atoms: C_10  and  C_11 
DOCKED: REMARK    3  A    between atoms: C_11  and  C_12 
DOCKED: REMARK    4  A    between atoms: C_12  and  O_14 
DOCKED: REMARK    5  A    between atoms: C_17  and  C_20 
DOCKED: REMARK    6  A    between atoms: C_24  and  C_27 
DOCKED: REMARK    7  A    between atoms: C_31  and  C_34 
DOCKED: REMARK    8  A    between atoms: C_34  and  C_35 
DOCKED: REMARK    9  A    between atoms: C_35  and  C_36 
DOCKED: REMARK   10  A    between atoms: C_36  and  O_38 
DOCKED: USER                              x       y       z     vdW  Elec       q    Type
DOCKED: USER                           _______ _______ _______ _____ _____    ______ ____
DOCKED: ROOT
DOCKED: ATOM      1  C   UNL d   1      12.522  -8.292   8.908 -0.08 +0.04    +0.064 C 
DOCKED: ATOM      2  C   UNL d   1       9.563 -10.685   5.753 -0.31 +0.01    +0.064 A 
DOCKED: ATOM      3  C   UNL d   1      11.054  -7.762   2.246 -0.19 -0.01    +0.064 C 
DOCKED: ATOM      4  C   UNL d   1      13.845  -5.366   5.304 -0.05 +0.04    +0.064 C 
DOCKED: ATOM      5  C   UNL d   1      11.488  -9.183   8.363 -0.10 +0.03    +0.066 A 
DOCKED: ATOM      6  C   UNL d   1      10.752 -10.089   9.109 -0.15 -0.01    -0.021 A 
DOCKED: ATOM      7  C   UNL d   1       9.933 -10.756   8.231 -0.25 -0.01    -0.025 A 
DOCKED: ATOM      8  C   UNL d   1      10.201 -10.230   6.982 -0.23 +0.01    +0.066 A 
DOCKED: ATOM      9  C   UNL d   1       8.941 -11.821   8.585 -0.31 +0.01    +0.051 C 
DOCKED: ATOM     10  C   UNL d   1       9.761 -10.157   4.544 -0.25 +0.01    +0.066 A 
DOCKED: ATOM     11  C   UNL d   1       9.224 -10.687   3.369 -0.33 -0.00    -0.021 A 
DOCKED: ATOM     12  C   UNL d   1       9.653  -9.872   2.341 -0.26 -0.00    +0.000 A 
DOCKED: ATOM     13  C   UNL d   1      10.445  -8.881   2.947 -0.15 -0.01    +0.070 A 
DOCKED: ATOM     14  C   UNL d   1       8.398 -11.949   3.224 -0.38 +0.00    +0.052 C 
DOCKED: ATOM     15  C   UNL d   1      11.860  -6.835   2.816 -0.13 -0.00    +0.066 A 
DOCKED: ATOM     16  C   UNL d   1      12.341  -5.726   2.134 -0.21 +0.00    -0.021 A 
DOCKED: ATOM     17  C   UNL d   1      13.149  -5.035   3.013 -0.17 +0.00    +0.000 A 
DOCKED: ATOM     18  C   UNL d   1      13.145  -5.743   4.212 -0.10 +0.02    +0.070 A 
DOCKED: ATOM     19  C   UNL d   1      12.075  -5.340   0.703 -0.32 -0.03    +0.052 C 
DOCKED: ATOM     20  C   UNL d   1      13.816  -6.051   6.602 -0.01 +0.05    +0.066 A 
DOCKED: ATOM     21  C   UNL d   1      14.681  -5.793   7.674 -0.08 -0.02    -0.025 A 
DOCKED: ATOM     22  C   UNL d   1      14.278  -6.629   8.695 -0.06 -0.01    -0.021 A 
DOCKED: ATOM     23  C   UNL d   1      13.192  -7.365   8.206 -0.06 +0.05    +0.066 A 
DOCKED: ATOM     24  C   UNL d   1      15.832  -4.817   7.743 -0.05 +0.02    +0.051 C 
DOCKED: ATOM     25  N   UNL d   1      11.141  -9.267   7.067 -0.07 -0.08    -0.248 N 
DOCKED: ATOM     26  N   UNL d   1      10.518  -9.059   4.289 -0.09 -0.02    -0.248 N 
DOCKED: ATOM     27  N   UNL d   1      12.318  -6.826   4.106 -0.07 -0.06    -0.248 N 
DOCKED: ATOM     28  N   UNL d   1      12.944  -7.040   6.914 -0.07 -0.22    -0.248 N 
DOCKED: ATOM     29 FE   UNL d   1      11.732  -8.048   5.601 -0.03 +0.00    +0.000 Fe
DOCKED: ENDROOT
DOCKED: BRANCH   6  30
DOCKED: ATOM     30  C   UNL d   1      10.806 -10.298  10.584 -0.16 +0.02    +0.052 C 
DOCKED: BRANCH  30  31
DOCKED: ATOM     31  C   UNL d   1      11.199 -11.734  10.912 -0.12 +0.05    +0.115 C 
DOCKED: BRANCH  31  32
DOCKED: ATOM     32  C   UNL d   1      10.374 -12.257  12.055 -0.12 +0.14    +0.139 C 
DOCKED: ATOM     33  O   UNL d   1       9.382 -12.942  11.846 -0.45 -0.71    -0.650 OA
DOCKED: BRANCH  32  34
DOCKED: ATOM     34  O   UNL d   1      10.722 -11.976  13.322 -0.24 -1.35    -0.776 OA
DOCKED: ATOM     35  H   UNL d   1      11.507 -11.434  13.484 +0.02 +0.16    +0.167 HD
DOCKED: ENDBRANCH  32  34
DOCKED: ENDBRANCH  31  32
DOCKED: ENDBRANCH  30  31
DOCKED: ENDBRANCH   6  30
DOCKED: BRANCH  22  36
DOCKED: ATOM     36  C   UNL d   1      14.933  -6.747  10.046 -0.02 +0.02    +0.052 C 
DOCKED: BRANCH  36  37
DOCKED: ATOM     37  C   UNL d   1      14.210  -5.857  11.046 -0.03 +0.06    +0.115 C 
DOCKED: BRANCH  37  38
DOCKED: ATOM     38  C   UNL d   1      13.134  -5.053  10.372 +0.06 +0.18    +0.139 C 
DOCKED: ATOM     39  O   UNL d   1      11.964  -5.402  10.429 +0.08 -1.04    -0.650 OA
DOCKED: BRANCH  38  40
DOCKED: ATOM     40  O   UNL d   1      13.455  -3.937   9.694 -0.25 -1.41    -0.776 OA
DOCKED: ATOM     41  H   UNL d   1      14.300  -3.503   9.877 +0.01 +0.15    +0.167 HD
DOCKED: ENDBRANCH  38  40
DOCKED: ENDBRANCH  37  38
DOCKED: ENDBRANCH  36  37
DOCKED: ENDBRANCH  22  36
DOCKED: BRANCH  12  42
DOCKED: ATOM     42  C   UNL d   1       9.323 -10.071   0.896 -0.39 -0.00    +0.004 C 
DOCKED: ATOM     43  C   UNL d   1       8.448  -9.272   0.272 -0.56 -0.00    +0.012 C 
DOCKED: ENDBRANCH  12  42
DOCKED: BRANCH  17  44
DOCKED: ATOM     44  C   UNL d   1      13.863  -3.769   2.730 -0.21 +0.00    +0.004 C 
DOCKED: ATOM     45  C   UNL d   1      13.196  -2.684   2.321 -0.31 +0.00    +0.012 C 
DOCKED: ENDBRANCH  17  44
DOCKED: TORSDOF 10
DOCKED: TER
DOCKED: ENDMDL
________________________________________________________________________________


	BEGINNING GENETIC ALGORITHM DOCKING 27 of 100
Run: 27 Seed: 152658420 1600837906 [ Run 27 of 100 GA/GALS ]
Beginning LAMARCKIAN GENETIC ALGORITHM (LGA), with a maximum of 25000000 energy evaluations.

Final-Value: -10.812


	FINAL GENETIC ALGORITHM DOCKED STATE
	_______________________________________________


Detailed state:  trans 3.742 15.232 -12.872 quatxyzw 0.530104 -0.325462 -0.092634 -0.777485 center -0.174 -0.001 -0.047 ntor 10 -118.2500 -131.9536 164.9963 -164.9274 -60.2096 55.1632 -45.7892 -85.5127 -3.5270 177.6378
State:	  3.742  15.232 -12.872   0.843 -0.518 -0.147 -77.938   -118.25 -131.95  165.00 -164.93  -60.21   55.16  -45.79  -85.51   -3.53  177.64

DOCKED: MODEL       27
DOCKED: USER    Run = 27
DOCKED: USER    DPF = D:/Protein_go_brrr/autodock/final/mut_N102T/heme_Fe/dock.dpf
DOCKED: USER  
DOCKED: USER    Estimated Free Energy of Binding    =   -7.12 kcal/mol  [=(1)+(2)+(3)-(4)]
DOCKED: USER    Estimated Inhibition Constant, Ki   =    6.06 uM (micromolar)  [Temperature = 298.15 K]
DOCKED: USER    
DOCKED: USER    (1) Final Intermolecular Energy     =  -10.10 kcal/mol
DOCKED: USER        vdW + Hbond + desolv Energy     =   -9.23 kcal/mol
DOCKED: USER        Electrostatic Energy            =   -0.87 kcal/mol
DOCKED: USER    (2) Final Total Internal Energy     =   -0.71 kcal/mol
DOCKED: USER    (3) Torsional Free Energy           =   +2.98 kcal/mol
DOCKED: USER    (4) Unbound System's Energy  [=(2)] =   -0.71 kcal/mol
DOCKED: USER    
DOCKED: USER    
DOCKED: USER    NEWDPF move heme_Fe_opt.pdbqt
DOCKED: USER    NEWDPF about -0.174000 -0.001000 -0.047000
DOCKED: USER    NEWDPF tran0 3.742203 15.232181 -12.872257
DOCKED: USER    NEWDPF quaternion0 0.530104 -0.325462 -0.092634 -0.777485
DOCKED: USER    NEWDPF axisangle0 0.842905 -0.517508 -0.147296 -77.938237
DOCKED: USER    NEWDPF quat0 0.842905 -0.517508 -0.147296 -77.938237
DOCKED: USER    NEWDPF dihe0 -118.25 -131.95 165.00 -164.93 -60.21 55.16 -45.79 -85.51 -3.53 177.64 
DOCKED: USER  keepresnum = 1 
DOCKED: USER  
DOCKED: REMARK  10 active torsions:
DOCKED: REMARK  status: ('A' for Active; 'I' for Inactive)
DOCKED: REMARK    1  A    between atoms: C_6  and  C_10 
DOCKED: REMARK    2  A    between atoms: C_10  and  C_11 
DOCKED: REMARK    3  A    between atoms: C_11  and  C_12 
DOCKED: REMARK    4  A    between atoms: C_12  and  O_14 
DOCKED: REMARK    5  A    between atoms: C_17  and  C_20 
DOCKED: REMARK    6  A    between atoms: C_24  and  C_27 
DOCKED: REMARK    7  A    between atoms: C_31  and  C_34 
DOCKED: REMARK    8  A    between atoms: C_34  and  C_35 
DOCKED: REMARK    9  A    between atoms: C_35  and  C_36 
DOCKED: REMARK   10  A    between atoms: C_36  and  O_38 
DOCKED: USER                              x       y       z     vdW  Elec       q    Type
DOCKED: USER                           _______ _______ _______ _____ _____    ______ ____
DOCKED: ROOT
DOCKED: ATOM      1  C   UNL d   1       1.905  15.770 -13.612 -0.25 -0.00    +0.064 C 
DOCKED: ATOM      2  C   UNL d   1       5.507  12.733 -15.108 -0.25 -0.05    +0.064 A 
DOCKED: ATOM      3  C   UNL d   1       7.435  12.969 -10.716 -0.24 -0.02    +0.064 C 
DOCKED: ATOM      4  C   UNL d   1       4.018  15.993  -9.278 -0.27 -0.02    +0.064 C 
DOCKED: ATOM      5  C   UNL d   1       2.786  14.959 -14.464 -0.26 -0.01    +0.066 A 
DOCKED: ATOM      6  C   UNL d   1       2.608  14.761 -15.824 -0.30 +0.00    -0.021 A 
DOCKED: ATOM      7  C   UNL d   1       3.606  13.914 -16.237 -0.30 +0.01    -0.025 A 
DOCKED: ATOM      8  C   UNL d   1       4.357  13.629 -15.114 -0.28 -0.03    +0.066 A 
DOCKED: ATOM      9  C   UNL d   1       3.829  13.430 -17.637 -0.26 -0.02    +0.051 C 
DOCKED: ATOM     10  C   UNL d   1       6.282  12.485 -14.051 -0.27 -0.03    +0.066 A 
DOCKED: ATOM     11  C   UNL d   1       7.306  11.535 -14.046 -0.27 +0.01    -0.021 A 
DOCKED: ATOM     12  C   UNL d   1       7.867  11.571 -12.786 -0.25 -0.00    +0.000 A 
DOCKED: ATOM     13  C   UNL d   1       7.144  12.546 -12.076 -0.22 -0.03    +0.070 A 
DOCKED: ATOM     14  C   UNL d   1       7.687  10.589 -15.167 -0.33 -0.03    +0.052 C 
DOCKED: ATOM     15  C   UNL d   1       6.710  13.869 -10.011 -0.21 -0.03    +0.066 A 
DOCKED: ATOM     16  C   UNL d   1       7.079  14.321  -8.750 -0.22 +0.01    -0.021 A 
DOCKED: ATOM     17  C   UNL d   1       6.093  15.190  -8.332 -0.22 -0.00    +0.000 A 
DOCKED: ATOM     18  C   UNL d   1       5.142  15.246  -9.348 -0.24 -0.03    +0.070 A 
DOCKED: ATOM     19  C   UNL d   1       8.298  13.932  -7.956 -0.21 -0.04    +0.052 C 
DOCKED: ATOM     20  C   UNL d   1       3.026  16.123 -10.351 -0.21 -0.02    +0.066 A 
DOCKED: ATOM     21  C   UNL d   1       1.767  16.728 -10.222 -0.18 +0.01    -0.025 A 
DOCKED: ATOM     22  C   UNL d   1       1.188  16.665 -11.472 -0.17 +0.00    -0.021 A 
DOCKED: ATOM     23  C   UNL d   1       2.107  16.022 -12.309 -0.21 -0.01    +0.066 A 
DOCKED: ATOM     24  C   UNL d   1       1.133  17.332  -8.990 -0.13 -0.01    +0.051 C 
DOCKED: ATOM     25  N   UNL d   1       3.861  14.273 -14.038 -0.20 +0.09    -0.248 N 
DOCKED: ATOM     26  N   UNL d   1       6.171  13.097 -12.844 -0.05 +0.13    -0.248 N 
DOCKED: ATOM     27  N   UNL d   1       5.541  14.468 -10.398 +0.10 +0.12    -0.248 N 
DOCKED: ATOM     28  N   UNL d   1       3.208  15.654 -11.609 -0.16 +0.09    -0.248 N 
DOCKED: ATOM     29 FE   UNL d   1       4.689  14.376 -12.225 -0.06 -0.00    +0.000 Fe
DOCKED: ENDROOT
DOCKED: BRANCH   6  30
DOCKED: ATOM     30  C   UNL d   1       1.556  15.361 -16.692 -0.27 +0.01    +0.052 C 
DOCKED: BRANCH  30  31
DOCKED: ATOM     31  C   UNL d   1       1.988  16.734 -17.195 -0.14 +0.03    +0.115 C 
DOCKED: BRANCH  31  32
DOCKED: ATOM     32  C   UNL d   1       1.712  16.866 -18.667 -0.11 +0.08    +0.139 C 
DOCKED: ATOM     33  O   UNL d   1       2.236  16.106 -19.470 -0.02 -0.26    -0.650 OA
DOCKED: BRANCH  32  34
DOCKED: ATOM     34  O   UNL d   1       0.884  17.824 -19.115 -0.23 -0.94    -0.776 OA
DOCKED: ATOM     35  H   UNL d   1       1.113  18.752 -18.962 +0.00 +0.16    +0.167 HD
DOCKED: ENDBRANCH  32  34
DOCKED: ENDBRANCH  31  32
DOCKED: ENDBRANCH  30  31
DOCKED: ENDBRANCH   6  30
DOCKED: BRANCH  22  36
DOCKED: ATOM     36  C   UNL d   1      -0.193  17.151 -11.827 -0.12 -0.00    +0.052 C 
DOCKED: BRANCH  36  37
DOCKED: ATOM     37  C   UNL d   1      -1.214  16.066 -11.522 -0.20 -0.01    +0.115 C 
DOCKED: BRANCH  37  38
DOCKED: ATOM     38  C   UNL d   1      -1.795  16.244 -10.147 -0.21 -0.01    +0.139 C 
DOCKED: ATOM     39  O   UNL d   1      -2.318  17.300  -9.822 +0.01 +0.02    -0.650 OA
DOCKED: BRANCH  38  40
DOCKED: ATOM     40  O   UNL d   1      -1.739  15.236  -9.259 -0.23 +0.04    -0.776 OA
DOCKED: ATOM     41  H   UNL d   1      -0.901  14.772  -9.126 -0.44 -0.04    +0.167 HD
DOCKED: ENDBRANCH  38  40
DOCKED: ENDBRANCH  37  38
DOCKED: ENDBRANCH  36  37
DOCKED: ENDBRANCH  22  36
DOCKED: BRANCH  12  42
DOCKED: ATOM     42  C   UNL d   1       8.998  10.707 -12.327 -0.30 -0.00    +0.004 C 
DOCKED: ATOM     43  C   UNL d   1       9.081  10.299 -11.054 -0.36 -0.00    +0.012 C 
DOCKED: ENDBRANCH  12  42
DOCKED: BRANCH  17  44
DOCKED: ATOM     44  C   UNL d   1       6.073  15.935  -7.053 -0.19 -0.00    +0.004 C 
DOCKED: ATOM     45  C   UNL d   1       5.183  15.638  -6.101 -0.29 -0.01    +0.012 C 
DOCKED: ENDBRANCH  17  44
DOCKED: TORSDOF 10
DOCKED: TER
DOCKED: ENDMDL
________________________________________________________________________________


	BEGINNING GENETIC ALGORITHM DOCKING 28 of 100
Run: 28 Seed: 786092602 163666407 [ Run 28 of 100 GA/GALS ]
Beginning LAMARCKIAN GENETIC ALGORITHM (LGA), with a maximum of 25000000 energy evaluations.

Final-Value: -12.028


	FINAL GENETIC ALGORITHM DOCKED STATE
	_______________________________________________


Detailed state:  trans 7.112 -5.062 14.535 quatxyzw 0.468061 0.174364 0.861140 0.094627 center -0.174 -0.001 -0.047 ntor 10 -146.2362 -92.2892 15.7168 3.1846 140.9895 118.2016 -23.7337 -56.7380 167.2023 -2.9897
State:	  7.112  -5.062  14.535   0.470  0.175  0.865 169.140   -146.24  -92.29   15.72    3.18  140.99  118.20  -23.73  -56.74  167.20   -2.99

DOCKED: MODEL       28
DOCKED: USER    Run = 28
DOCKED: USER    DPF = D:/Protein_go_brrr/autodock/final/mut_N102T/heme_Fe/dock.dpf
DOCKED: USER  
DOCKED: USER    Estimated Free Energy of Binding    =   -7.54 kcal/mol  [=(1)+(2)+(3)-(4)]
DOCKED: USER    Estimated Inhibition Constant, Ki   =    2.97 uM (micromolar)  [Temperature = 298.15 K]
DOCKED: USER    
DOCKED: USER    (1) Final Intermolecular Energy     =  -10.52 kcal/mol
DOCKED: USER        vdW + Hbond + desolv Energy     =   -7.47 kcal/mol
DOCKED: USER        Electrostatic Energy            =   -3.05 kcal/mol
DOCKED: USER    (2) Final Total Internal Energy     =   -1.50 kcal/mol
DOCKED: USER    (3) Torsional Free Energy           =   +2.98 kcal/mol
DOCKED: USER    (4) Unbound System's Energy  [=(2)] =   -1.50 kcal/mol
DOCKED: USER    
DOCKED: USER    
DOCKED: USER    NEWDPF move heme_Fe_opt.pdbqt
DOCKED: USER    NEWDPF about -0.174000 -0.001000 -0.047000
DOCKED: USER    NEWDPF tran0 7.112235 -5.062059 14.534844
DOCKED: USER    NEWDPF quaternion0 0.468061 0.174364 0.861140 0.094627
DOCKED: USER    NEWDPF axisangle0 0.470170 0.175150 0.865022 169.140319
DOCKED: USER    NEWDPF quat0 0.470170 0.175150 0.865022 169.140319
DOCKED: USER    NEWDPF dihe0 -146.24 -92.29 15.72 3.18 140.99 118.20 -23.73 -56.74 167.20 -2.99 
DOCKED: USER  keepresnum = 1 
DOCKED: USER  
DOCKED: REMARK  10 active torsions:
DOCKED: REMARK  status: ('A' for Active; 'I' for Inactive)
DOCKED: REMARK    1  A    between atoms: C_6  and  C_10 
DOCKED: REMARK    2  A    between atoms: C_10  and  C_11 
DOCKED: REMARK    3  A    between atoms: C_11  and  C_12 
DOCKED: REMARK    4  A    between atoms: C_12  and  O_14 
DOCKED: REMARK    5  A    between atoms: C_17  and  C_20 
DOCKED: REMARK    6  A    between atoms: C_24  and  C_27 
DOCKED: REMARK    7  A    between atoms: C_31  and  C_34 
DOCKED: REMARK    8  A    between atoms: C_34  and  C_35 
DOCKED: REMARK    9  A    between atoms: C_35  and  C_36 
DOCKED: REMARK   10  A    between atoms: C_36  and  O_38 
DOCKED: USER                              x       y       z     vdW  Elec       q    Type
DOCKED: USER                           _______ _______ _______ _____ _____    ______ ____
DOCKED: ROOT
DOCKED: ATOM      1  C   UNL d   1       8.582  -4.801  13.127 -0.15 +0.02    +0.064 C 
DOCKED: ATOM      2  C   UNL d   1       5.361  -1.813  15.390 -0.23 -0.01    +0.064 A 
DOCKED: ATOM      3  C   UNL d   1       4.541  -5.263  18.629 -0.13 -0.01    +0.064 C 
DOCKED: ATOM      4  C   UNL d   1       7.575  -8.209  16.393 -0.27 +0.01    +0.064 C 
DOCKED: ATOM      5  C   UNL d   1       7.689  -3.670  13.415 -0.12 +0.01    +0.066 A 
DOCKED: ATOM      6  C   UNL d   1       7.568  -2.538  12.627 -0.19 -0.00    -0.021 A 
DOCKED: ATOM      7  C   UNL d   1       6.676  -1.707  13.258 -0.25 -0.00    -0.025 A 
DOCKED: ATOM      8  C   UNL d   1       6.286  -2.365  14.409 -0.18 +0.00    +0.066 A 
DOCKED: ATOM      9  C   UNL d   1       6.216  -0.368  12.767 -0.46 -0.00    +0.051 C 
DOCKED: ATOM     10  C   UNL d   1       4.925  -2.450  16.478 -0.18 -0.01    +0.066 A 
DOCKED: ATOM     11  C   UNL d   1       4.128  -1.853  17.458 -0.22 +0.00    -0.021 A 
DOCKED: ATOM     12  C   UNL d   1       3.892  -2.822  18.412 -0.11 -0.00    +0.000 A 
DOCKED: ATOM     13  C   UNL d   1       4.569  -3.970  17.964 -0.10 -0.01    +0.070 A 
DOCKED: ATOM     14  C   UNL d   1       3.672  -0.409  17.519 -0.47 -0.01    +0.052 C 
DOCKED: ATOM     15  C   UNL d   1       5.233  -6.356  18.229 -0.16 -0.01    +0.066 A 
DOCKED: ATOM     16  C   UNL d   1       5.101  -7.600  18.833 -0.15 +0.00    -0.021 A 
DOCKED: ATOM     17  C   UNL d   1       5.978  -8.450  18.192 -0.22 -0.00    +0.000 A 
DOCKED: ATOM     18  C   UNL d   1       6.628  -7.703  17.213 -0.23 +0.00    +0.070 A 
DOCKED: ATOM     19  C   UNL d   1       4.206  -7.971  19.984 -0.13 -0.01    +0.052 C 
DOCKED: ATOM     20  C   UNL d   1       8.236  -7.469  15.312 -0.20 +0.01    +0.066 A 
DOCKED: ATOM     21  C   UNL d   1       9.352  -7.915  14.590 -0.17 -0.01    -0.025 A 
DOCKED: ATOM     22  C   UNL d   1       9.614  -6.934  13.656 -0.15 -0.01    -0.021 A 
DOCKED: ATOM     23  C   UNL d   1       8.657  -5.931  13.848 -0.14 +0.01    +0.066 A 
DOCKED: ATOM     24  C   UNL d   1      10.140  -9.193  14.765 -0.17 +0.03    +0.051 C 
DOCKED: ATOM     25  N   UNL d   1       6.897  -3.563  14.496 -0.05 -0.02    -0.248 N 
DOCKED: ATOM     26  N   UNL d   1       5.206  -3.740  16.789 -0.07 +0.02    -0.248 N 
DOCKED: ATOM     27  N   UNL d   1       6.140  -6.426  17.206 -0.13 +0.01    -0.248 N 
DOCKED: ATOM     28  N   UNL d   1       7.847  -6.243  14.889 +0.11 -0.04    -0.248 N 
DOCKED: ATOM     29 FE   UNL d   1       6.527  -4.993  15.839 -0.04 +0.00    +0.000 Fe
DOCKED: ENDROOT
DOCKED: BRANCH   6  30
DOCKED: ATOM     30  C   UNL d   1       8.247  -2.265  11.329 -0.14 +0.02    +0.052 C 
DOCKED: BRANCH  30  31
DOCKED: ATOM     31  C   UNL d   1       9.400  -1.285  11.518 -0.19 +0.05    +0.115 C 
DOCKED: BRANCH  31  32
DOCKED: ATOM     32  C   UNL d   1      10.410  -1.441  10.415 -0.12 +0.12    +0.139 C 
DOCKED: ATOM     33  O   UNL d   1      10.957  -0.462   9.928 -0.60 -0.48    -0.650 OA
DOCKED: BRANCH  32  34
DOCKED: ATOM     34  O   UNL d   1      10.720  -2.664   9.953 -0.14 -1.43    -0.776 OA
DOCKED: ATOM     35  H   UNL d   1      10.034  -3.345   9.929 +0.04 +0.36    +0.167 HD
DOCKED: ENDBRANCH  32  34
DOCKED: ENDBRANCH  31  32
DOCKED: ENDBRANCH  30  31
DOCKED: ENDBRANCH   6  30
DOCKED: BRANCH  22  36
DOCKED: ATOM     36  C   UNL d   1      10.752  -6.941  12.669 -0.10 +0.02    +0.052 C 
DOCKED: BRANCH  36  37
DOCKED: ATOM     37  C   UNL d   1      10.281  -7.532  11.348 -0.11 +0.06    +0.115 C 
DOCKED: BRANCH  37  38
DOCKED: ATOM     38  C   UNL d   1      10.486  -6.561  10.220 -0.09 +0.15    +0.139 C 
DOCKED: ATOM     39  O   UNL d   1      11.227  -6.833   9.287 -0.37 -1.06    -0.650 OA
DOCKED: BRANCH  38  40
DOCKED: ATOM     40  O   UNL d   1       9.852  -5.374  10.232 +0.01 -1.08    -0.776 OA
DOCKED: ATOM     41  H   UNL d   1      10.266  -4.625  10.683 +0.03 +0.24    +0.167 HD
DOCKED: ENDBRANCH  38  40
DOCKED: ENDBRANCH  37  38
DOCKED: ENDBRANCH  36  37
DOCKED: ENDBRANCH  22  36
DOCKED: BRANCH  12  42
DOCKED: ATOM     42  C   UNL d   1       3.087  -2.620  19.657 -0.11 -0.00    +0.004 C 
DOCKED: ATOM     43  C   UNL d   1       1.781  -2.329  19.594 -0.17 -0.01    +0.012 C 
DOCKED: ENDBRANCH  12  42
DOCKED: BRANCH  17  44
DOCKED: ATOM     44  C   UNL d   1       6.166  -9.889  18.484 -0.25 +0.00    +0.004 C 
DOCKED: ATOM     45  C   UNL d   1       5.137 -10.740  18.426 -0.21 +0.00    +0.012 C 
DOCKED: ENDBRANCH  17  44
DOCKED: TORSDOF 10
DOCKED: TER
DOCKED: ENDMDL
________________________________________________________________________________


	BEGINNING GENETIC ALGORITHM DOCKING 29 of 100
Run: 29 Seed: 853806195 527212284 [ Run 29 of 100 GA/GALS ]
Beginning LAMARCKIAN GENETIC ALGORITHM (LGA), with a maximum of 25000000 energy evaluations.

Final-Value: -10.050


	FINAL GENETIC ALGORITHM DOCKED STATE
	_______________________________________________


Detailed state:  trans -4.373 11.960 -11.033 quatxyzw 0.081688 0.760605 0.409467 0.497135 center -0.174 -0.001 -0.047 ntor 10 120.4835 96.8585 40.9446 -7.0806 33.2835 -36.9865 45.3418 24.0822 -136.6169 148.2623
State:	 -4.373  11.960 -11.033   0.094  0.877  0.472 120.379    120.48   96.86   40.94   -7.08   33.28  -36.99   45.34   24.08 -136.62  148.26

DOCKED: MODEL       29
DOCKED: USER    Run = 29
DOCKED: USER    DPF = D:/Protein_go_brrr/autodock/final/mut_N102T/heme_Fe/dock.dpf
DOCKED: USER  
DOCKED: USER    Estimated Free Energy of Binding    =   -5.56 kcal/mol  [=(1)+(2)+(3)-(4)]
DOCKED: USER    Estimated Inhibition Constant, Ki   =   84.29 uM (micromolar)  [Temperature = 298.15 K]
DOCKED: USER    
DOCKED: USER    (1) Final Intermolecular Energy     =   -8.54 kcal/mol
DOCKED: USER        vdW + Hbond + desolv Energy     =   -8.00 kcal/mol
DOCKED: USER        Electrostatic Energy            =   -0.54 kcal/mol
DOCKED: USER    (2) Final Total Internal Energy     =   -1.51 kcal/mol
DOCKED: USER    (3) Torsional Free Energy           =   +2.98 kcal/mol
DOCKED: USER    (4) Unbound System's Energy  [=(2)] =   -1.51 kcal/mol
DOCKED: USER    
DOCKED: USER    
DOCKED: USER    NEWDPF move heme_Fe_opt.pdbqt
DOCKED: USER    NEWDPF about -0.174000 -0.001000 -0.047000
DOCKED: USER    NEWDPF tran0 -4.373016 11.959895 -11.032689
DOCKED: USER    NEWDPF quaternion0 0.081688 0.760605 0.409467 0.497135
DOCKED: USER    NEWDPF axisangle0 0.094147 0.876604 0.471914 120.378734
DOCKED: USER    NEWDPF quat0 0.094147 0.876604 0.471914 120.378734
DOCKED: USER    NEWDPF dihe0 120.48 96.86 40.94 -7.08 33.28 -36.99 45.34 24.08 -136.62 148.26 
DOCKED: USER  keepresnum = 1 
DOCKED: USER  
DOCKED: REMARK  10 active torsions:
DOCKED: REMARK  status: ('A' for Active; 'I' for Inactive)
DOCKED: REMARK    1  A    between atoms: C_6  and  C_10 
DOCKED: REMARK    2  A    between atoms: C_10  and  C_11 
DOCKED: REMARK    3  A    between atoms: C_11  and  C_12 
DOCKED: REMARK    4  A    between atoms: C_12  and  O_14 
DOCKED: REMARK    5  A    between atoms: C_17  and  C_20 
DOCKED: REMARK    6  A    between atoms: C_24  and  C_27 
DOCKED: REMARK    7  A    between atoms: C_31  and  C_34 
DOCKED: REMARK    8  A    between atoms: C_34  and  C_35 
DOCKED: REMARK    9  A    between atoms: C_35  and  C_36 
DOCKED: REMARK   10  A    between atoms: C_36  and  O_38 
DOCKED: USER                              x       y       z     vdW  Elec       q    Type
DOCKED: USER                           _______ _______ _______ _____ _____    ______ ____
DOCKED: ROOT
DOCKED: ATOM      1  C   UNL d   1      -3.796  12.856 -12.786 -0.27 -0.01    +0.064 C 
DOCKED: ATOM      2  C   UNL d   1      -7.227   9.521 -11.548 -0.18 -0.01    +0.064 A 
DOCKED: ATOM      3  C   UNL d   1      -6.630  10.721  -6.936 -0.19 +0.00    +0.064 C 
DOCKED: ATOM      4  C   UNL d   1      -3.231  13.879  -8.102 -0.15 +0.00    +0.064 C 
DOCKED: ATOM      5  C   UNL d   1      -4.757  11.747 -12.858 -0.27 -0.01    +0.066 A 
DOCKED: ATOM      6  C   UNL d   1      -5.095  11.068 -14.016 -0.31 +0.00    -0.021 A 
DOCKED: ATOM      7  C   UNL d   1      -6.051  10.144 -13.672 -0.27 +0.01    -0.025 A 
DOCKED: ATOM      8  C   UNL d   1      -6.259  10.296 -12.315 -0.20 -0.01    +0.066 A 
DOCKED: ATOM      9  C   UNL d   1      -6.706   9.164 -14.597 -0.39 -0.01    +0.051 C 
DOCKED: ATOM     10  C   UNL d   1      -7.407   9.607 -10.229 -0.16 -0.01    +0.066 A 
DOCKED: ATOM     11  C   UNL d   1      -8.420   8.936  -9.539 -0.14 +0.00    -0.021 A 
DOCKED: ATOM     12  C   UNL d   1      -8.280   9.279  -8.209 -0.13 -0.00    +0.000 A 
DOCKED: ATOM     13  C   UNL d   1      -7.183  10.156  -8.157 -0.13 -0.00    +0.070 A 
DOCKED: ATOM     14  C   UNL d   1      -9.511   8.065 -10.128 -0.00 +0.00    +0.052 C 
DOCKED: ATOM     15  C   UNL d   1      -5.607  11.606  -6.885 -0.21 -0.00    +0.066 A 
DOCKED: ATOM     16  C   UNL d   1      -5.042  12.046  -5.694 -0.23 -0.00    -0.021 A 
DOCKED: ATOM     17  C   UNL d   1      -4.064  12.959  -6.028 -0.29 +0.00    +0.000 A 
DOCKED: ATOM     18  C   UNL d   1      -4.058  13.059  -7.417 -0.28 -0.00    +0.070 A 
DOCKED: ATOM     19  C   UNL d   1      -5.422  11.643  -4.294 -0.19 +0.01    +0.052 C 
DOCKED: ATOM     20  C   UNL d   1      -3.154  13.966  -9.566 -0.25 -0.01    +0.066 A 
DOCKED: ATOM     21  C   UNL d   1      -2.452  14.945 -10.283 -0.29 +0.00    -0.025 A 
DOCKED: ATOM     22  C   UNL d   1      -2.616  14.627 -11.615 -0.24 +0.00    -0.021 A 
DOCKED: ATOM     23  C   UNL d   1      -3.412  13.476 -11.659 -0.22 -0.01    +0.066 A 
DOCKED: ATOM     24  C   UNL d   1      -1.670  16.124  -9.752 -0.26 -0.00    +0.051 C 
DOCKED: ATOM     25  N   UNL d   1      -5.464  11.265 -11.821 -0.11 +0.03    -0.248 N 
DOCKED: ATOM     26  N   UNL d   1      -6.656  10.364  -9.388 -0.08 +0.01    -0.248 N 
DOCKED: ATOM     27  N   UNL d   1      -4.976  12.196  -7.947 -0.16 +0.01    -0.248 N 
DOCKED: ATOM     28  N   UNL d   1      -3.774  13.104 -10.407 -0.17 +0.03    -0.248 N 
DOCKED: ATOM     29 FE   UNL d   1      -5.214  11.735  -9.897 -0.05 -0.00    +0.000 Fe
DOCKED: ENDROOT
DOCKED: BRANCH   6  30
DOCKED: ATOM     30  C   UNL d   1      -4.525  11.269 -15.379 -0.35 -0.01    +0.052 C 
DOCKED: BRANCH  30  31
DOCKED: ATOM     31  C   UNL d   1      -4.483  12.751 -15.733 -0.27 -0.00    +0.115 C 
DOCKED: BRANCH  31  32
DOCKED: ATOM     32  C   UNL d   1      -4.993  12.974 -17.130 -0.22 +0.01    +0.139 C 
DOCKED: ATOM     33  O   UNL d   1      -5.877  12.265 -17.590 +0.03 -0.04    -0.650 OA
DOCKED: BRANCH  32  34
DOCKED: ATOM     34  O   UNL d   1      -4.480  13.957 -17.887 +0.01 -0.22    -0.776 OA
DOCKED: ATOM     35  H   UNL d   1      -4.540  14.871 -17.574 +0.03 +0.06    +0.167 HD
DOCKED: ENDBRANCH  32  34
DOCKED: ENDBRANCH  31  32
DOCKED: ENDBRANCH  30  31
DOCKED: ENDBRANCH   6  30
DOCKED: BRANCH  22  36
DOCKED: ATOM     36  C   UNL d   1      -2.078  15.415 -12.781 -0.02 +0.00    +0.052 C 
DOCKED: BRANCH  36  37
DOCKED: ATOM     37  C   UNL d   1      -3.232  15.992 -13.587 -0.12 +0.01    +0.115 C 
DOCKED: BRANCH  37  38
DOCKED: ATOM     38  C   UNL d   1      -2.810  16.280 -15.000 -0.18 +0.03    +0.139 C 
DOCKED: ATOM     39  O   UNL d   1      -1.691  16.706 -15.244 -0.06 -0.21    -0.650 OA
DOCKED: BRANCH  38  40
DOCKED: ATOM     40  O   UNL d   1      -3.671  16.073 -16.013 -0.02 -0.26    -0.776 OA
DOCKED: ATOM     41  H   UNL d   1      -3.759  15.183 -16.381 +0.03 +0.05    +0.167 HD
DOCKED: ENDBRANCH  38  40
DOCKED: ENDBRANCH  37  38
DOCKED: ENDBRANCH  36  37
DOCKED: ENDBRANCH  22  36
DOCKED: BRANCH  12  42
DOCKED: ATOM     42  C   UNL d   1      -9.163   8.795  -7.103 -0.11 -0.00    +0.004 C 
DOCKED: ATOM     43  C   UNL d   1      -8.890   7.658  -6.450 -0.16 -0.00    +0.012 C 
DOCKED: ENDBRANCH  12  42
DOCKED: BRANCH  17  44
DOCKED: ATOM     44  C   UNL d   1      -3.179  13.674  -5.080 -0.31 +0.00    +0.004 C 
DOCKED: ATOM     45  C   UNL d   1      -2.559  13.018  -4.095 -0.41 +0.00    +0.012 C 
DOCKED: ENDBRANCH  17  44
DOCKED: TORSDOF 10
DOCKED: TER
DOCKED: ENDMDL
________________________________________________________________________________


	BEGINNING GENETIC ALGORITHM DOCKING 30 of 100
Run: 30 Seed: 1603112661 1931188104 [ Run 30 of 100 GA/GALS ]
Beginning LAMARCKIAN GENETIC ALGORITHM (LGA), with a maximum of 25000000 energy evaluations.

Final-Value: -11.866


	FINAL GENETIC ALGORITHM DOCKED STATE
	_______________________________________________


Detailed state:  trans 12.372 -8.492 6.821 quatxyzw 0.522915 -0.200232 -0.772527 0.299447 center -0.174 -0.001 -0.047 ntor 10 161.7127 -175.1544 53.9641 19.1869 87.5508 56.0790 179.5067 23.8364 179.6554 -45.0730
State:	 12.372  -8.492   6.821   0.548 -0.210 -0.810 145.151    161.71 -175.15   53.96   19.19   87.55   56.08  179.51   23.84  179.66  -45.07

DOCKED: MODEL       30
DOCKED: USER    Run = 30
DOCKED: USER    DPF = D:/Protein_go_brrr/autodock/final/mut_N102T/heme_Fe/dock.dpf
DOCKED: USER  
DOCKED: USER    Estimated Free Energy of Binding    =   -8.36 kcal/mol  [=(1)+(2)+(3)-(4)]
DOCKED: USER    Estimated Inhibition Constant, Ki   =  743.58 nM (nanomolar)  [Temperature = 298.15 K]
DOCKED: USER    
DOCKED: USER    (1) Final Intermolecular Energy     =  -11.34 kcal/mol
DOCKED: USER        vdW + Hbond + desolv Energy     =   -7.51 kcal/mol
DOCKED: USER        Electrostatic Energy            =   -3.84 kcal/mol
DOCKED: USER    (2) Final Total Internal Energy     =   -0.52 kcal/mol
DOCKED: USER    (3) Torsional Free Energy           =   +2.98 kcal/mol
DOCKED: USER    (4) Unbound System's Energy  [=(2)] =   -0.52 kcal/mol
DOCKED: USER    
DOCKED: USER    
DOCKED: USER    NEWDPF move heme_Fe_opt.pdbqt
DOCKED: USER    NEWDPF about -0.174000 -0.001000 -0.047000
DOCKED: USER    NEWDPF tran0 12.372291 -8.492258 6.820787
DOCKED: USER    NEWDPF quaternion0 0.522915 -0.200232 -0.772527 0.299447
DOCKED: USER    NEWDPF axisangle0 0.548064 -0.209862 -0.809681 145.151178
DOCKED: USER    NEWDPF quat0 0.548064 -0.209862 -0.809681 145.151178
DOCKED: USER    NEWDPF dihe0 161.71 -175.15 53.96 19.19 87.55 56.08 179.51 23.84 179.66 -45.07 
DOCKED: USER  keepresnum = 1 
DOCKED: USER  
DOCKED: REMARK  10 active torsions:
DOCKED: REMARK  status: ('A' for Active; 'I' for Inactive)
DOCKED: REMARK    1  A    between atoms: C_6  and  C_10 
DOCKED: REMARK    2  A    between atoms: C_10  and  C_11 
DOCKED: REMARK    3  A    between atoms: C_11  and  C_12 
DOCKED: REMARK    4  A    between atoms: C_12  and  O_14 
DOCKED: REMARK    5  A    between atoms: C_17  and  C_20 
DOCKED: REMARK    6  A    between atoms: C_24  and  C_27 
DOCKED: REMARK    7  A    between atoms: C_31  and  C_34 
DOCKED: REMARK    8  A    between atoms: C_34  and  C_35 
DOCKED: REMARK    9  A    between atoms: C_35  and  C_36 
DOCKED: REMARK   10  A    between atoms: C_36  and  O_38 
DOCKED: USER                              x       y       z     vdW  Elec       q    Type
DOCKED: USER                           _______ _______ _______ _____ _____    ______ ____
DOCKED: ROOT
DOCKED: ATOM      1  C   UNL d   1      12.588  -8.619   8.857 -0.07 +0.03    +0.064 C 
DOCKED: ATOM      2  C   UNL d   1      13.957  -5.353   5.409 -0.04 +0.04    +0.064 A 
DOCKED: ATOM      3  C   UNL d   1      10.916  -7.435   2.329 -0.21 -0.01    +0.064 C 
DOCKED: ATOM      4  C   UNL d   1       9.655 -10.671   5.619 -0.34 +0.01    +0.064 C 
DOCKED: ATOM      5  C   UNL d   1      13.317  -7.559   8.147 -0.07 +0.05    +0.066 A 
DOCKED: ATOM      6  C   UNL d   1      14.353  -6.814   8.686 -0.06 -0.01    -0.021 A 
DOCKED: ATOM      7  C   UNL d   1      14.730  -5.904   7.729 -0.07 -0.02    -0.025 A 
DOCKED: ATOM      8  C   UNL d   1      13.908  -6.130   6.642 -0.05 +0.05    +0.066 A 
DOCKED: ATOM      9  C   UNL d   1      15.829  -4.895   7.855 -0.05 +0.02    +0.051 C 
DOCKED: ATOM     10  C   UNL d   1      13.216  -5.586   4.325 -0.09 +0.03    +0.066 A 
DOCKED: ATOM     11  C   UNL d   1      13.202  -4.755   3.202 -0.17 -0.00    -0.021 A 
DOCKED: ATOM     12  C   UNL d   1      12.320  -5.325   2.306 -0.24 -0.00    +0.000 A 
DOCKED: ATOM     13  C   UNL d   1      11.830  -6.481   2.937 -0.15 +0.00    +0.070 A 
DOCKED: ATOM     14  C   UNL d   1      13.941  -3.445   3.019 -0.20 +0.01    +0.052 C 
DOCKED: ATOM     15  C   UNL d   1      10.401  -8.522   2.952 -0.17 -0.00    +0.066 A 
DOCKED: ATOM     16  C   UNL d   1       9.610  -9.463   2.305 -0.26 +0.00    -0.021 A 
DOCKED: ATOM     17  C   UNL d   1       9.243 -10.395   3.253 -0.33 +0.00    +0.000 A 
DOCKED: ATOM     18  C   UNL d   1       9.816  -9.998   4.459 -0.24 +0.01    +0.070 A 
DOCKED: ATOM     19  C   UNL d   1       9.194  -9.474   0.859 -0.40 -0.02    +0.052 C 
DOCKED: ATOM     20  C   UNL d   1      10.292 -10.317   6.893 -0.22 +0.01    +0.066 A 
DOCKED: ATOM     21  C   UNL d   1       9.981 -10.881   8.139 -0.26 -0.01    -0.025 A 
DOCKED: ATOM     22  C   UNL d   1      10.837 -10.291   9.045 -0.15 -0.01    -0.021 A 
DOCKED: ATOM     23  C   UNL d   1      11.629  -9.391   8.322 -0.09 +0.02    +0.066 A 
DOCKED: ATOM     24  C   UNL d   1       8.932 -11.917   8.469 -0.23 +0.01    +0.051 C 
DOCKED: ATOM     25  N   UNL d   1      13.056  -7.143   6.896 -0.07 -0.19    -0.248 N 
DOCKED: ATOM     26  N   UNL d   1      12.369  -6.636   4.172 -0.07 -0.07    -0.248 N 
DOCKED: ATOM     27  N   UNL d   1      10.564  -8.870   4.266 -0.08 -0.03    -0.248 N 
DOCKED: ATOM     28  N   UNL d   1      11.261  -9.378   7.018 -0.07 -0.08    -0.248 N 
DOCKED: ATOM     29 FE   UNL d   1      11.814  -8.009   5.595 -0.02 +0.00    +0.000 Fe
DOCKED: ENDROOT
DOCKED: BRANCH   6  30
DOCKED: ATOM     30  C   UNL d   1      14.970  -6.970  10.034 -0.02 +0.02    +0.052 C 
DOCKED: BRANCH  30  31
DOCKED: ATOM     31  C   UNL d   1      14.267  -6.083  11.056 -0.02 +0.06    +0.115 C 
DOCKED: BRANCH  31  32
DOCKED: ATOM     32  C   UNL d   1      13.163  -5.300  10.402 -0.01 +0.16    +0.139 C 
DOCKED: ATOM     33  O   UNL d   1      12.039  -5.773  10.300 +0.01 -1.00    -0.650 OA
DOCKED: BRANCH  32  34
DOCKED: ATOM     34  O   UNL d   1      13.402  -4.068   9.921 -0.34 -1.27    -0.776 OA
DOCKED: ATOM     35  H   UNL d   1      14.186  -3.589  10.225 +0.01 +0.14    +0.167 HD
DOCKED: ENDBRANCH  32  34
DOCKED: ENDBRANCH  31  32
DOCKED: ENDBRANCH  30  31
DOCKED: ENDBRANCH   6  30
DOCKED: BRANCH  22  36
DOCKED: ATOM     36  C   UNL d   1      10.858 -10.544  10.529 -0.16 +0.02    +0.052 C 
DOCKED: BRANCH  36  37
DOCKED: ATOM     37  C   UNL d   1      10.941 -12.040  10.794 -0.14 +0.05    +0.115 C 
DOCKED: BRANCH  37  38
DOCKED: ATOM     38  C   UNL d   1      10.417 -12.375  12.161 -0.08 +0.15    +0.139 C 
DOCKED: ATOM     39  O   UNL d   1       9.287 -12.050  12.495 -0.51 -1.01    -0.650 OA
DOCKED: BRANCH  38  40
DOCKED: ATOM     40  O   UNL d   1      11.195 -13.038  13.035 -0.18 -1.11    -0.776 OA
DOCKED: ATOM     41  H   UNL d   1      12.112 -13.232  12.794 +0.01 +0.12    +0.167 HD
DOCKED: ENDBRANCH  38  40
DOCKED: ENDBRANCH  37  38
DOCKED: ENDBRANCH  36  37
DOCKED: ENDBRANCH  22  36
DOCKED: BRANCH  12  42
DOCKED: ATOM     42  C   UNL d   1      11.983  -4.763   0.961 -0.35 -0.00    +0.004 C 
DOCKED: ATOM     43  C   UNL d   1      12.525  -5.271  -0.154 -0.28 -0.01    +0.012 C 
DOCKED: ENDBRANCH  12  42
DOCKED: BRANCH  17  44
DOCKED: ATOM     44  C   UNL d   1       8.414 -11.599   3.016 -0.49 +0.00    +0.004 C 
DOCKED: ATOM     45  C   UNL d   1       8.911 -12.654   2.362 -0.47 -0.00    +0.012 C 
DOCKED: ENDBRANCH  17  44
DOCKED: TORSDOF 10
DOCKED: TER
DOCKED: ENDMDL
________________________________________________________________________________


	BEGINNING GENETIC ALGORITHM DOCKING 31 of 100
Run: 31 Seed: 1657216839 1417619595 [ Run 31 of 100 GA/GALS ]
Beginning LAMARCKIAN GENETIC ALGORITHM (LGA), with a maximum of 25000000 energy evaluations.

Final-Value: -10.249


	FINAL GENETIC ALGORITHM DOCKED STATE
	_______________________________________________


Detailed state:  trans -11.822 2.360 11.630 quatxyzw -0.190681 -0.714735 -0.268854 0.616857 center -0.174 -0.001 -0.047 ntor 10 -163.6206 91.8299 76.0413 -157.1838 166.6222 85.5528 21.9246 -50.2880 -65.7548 144.9503
State:	-11.822   2.360  11.630  -0.242 -0.908 -0.342 103.826   -163.62   91.83   76.04 -157.18  166.62   85.55   21.92  -50.29  -65.75  144.95

DOCKED: MODEL       31
DOCKED: USER    Run = 31
DOCKED: USER    DPF = D:/Protein_go_brrr/autodock/final/mut_N102T/heme_Fe/dock.dpf
DOCKED: USER  
DOCKED: USER    Estimated Free Energy of Binding    =   -7.17 kcal/mol  [=(1)+(2)+(3)-(4)]
DOCKED: USER    Estimated Inhibition Constant, Ki   =    5.58 uM (micromolar)  [Temperature = 298.15 K]
DOCKED: USER    
DOCKED: USER    (1) Final Intermolecular Energy     =  -10.15 kcal/mol
DOCKED: USER        vdW + Hbond + desolv Energy     =   -9.02 kcal/mol
DOCKED: USER        Electrostatic Energy            =   -1.13 kcal/mol
DOCKED: USER    (2) Final Total Internal Energy     =   -0.10 kcal/mol
DOCKED: USER    (3) Torsional Free Energy           =   +2.98 kcal/mol
DOCKED: USER    (4) Unbound System's Energy  [=(2)] =   -0.10 kcal/mol
DOCKED: USER    
DOCKED: USER    
DOCKED: USER    NEWDPF move heme_Fe_opt.pdbqt
DOCKED: USER    NEWDPF about -0.174000 -0.001000 -0.047000
DOCKED: USER    NEWDPF tran0 -11.821528 2.360463 11.629633
DOCKED: USER    NEWDPF quaternion0 -0.190681 -0.714735 -0.268854 0.616857
DOCKED: USER    NEWDPF axisangle0 -0.242265 -0.908090 -0.341586 103.826112
DOCKED: USER    NEWDPF quat0 -0.242265 -0.908090 -0.341586 103.826112
DOCKED: USER    NEWDPF dihe0 -163.62 91.83 76.04 -157.18 166.62 85.55 21.92 -50.29 -65.75 144.95 
DOCKED: USER  keepresnum = 1 
DOCKED: USER  
DOCKED: REMARK  10 active torsions:
DOCKED: REMARK  status: ('A' for Active; 'I' for Inactive)
DOCKED: REMARK    1  A    between atoms: C_6  and  C_10 
DOCKED: REMARK    2  A    between atoms: C_10  and  C_11 
DOCKED: REMARK    3  A    between atoms: C_11  and  C_12 
DOCKED: REMARK    4  A    between atoms: C_12  and  O_14 
DOCKED: REMARK    5  A    between atoms: C_17  and  C_20 
DOCKED: REMARK    6  A    between atoms: C_24  and  C_27 
DOCKED: REMARK    7  A    between atoms: C_31  and  C_34 
DOCKED: REMARK    8  A    between atoms: C_34  and  C_35 
DOCKED: REMARK    9  A    between atoms: C_35  and  C_36 
DOCKED: REMARK   10  A    between atoms: C_36  and  O_38 
DOCKED: USER                              x       y       z     vdW  Elec       q    Type
DOCKED: USER                           _______ _______ _______ _____ _____    ______ ____
DOCKED: ROOT
DOCKED: ATOM      1  C   UNL d   1     -10.965   1.197  13.087 -0.28 +0.01    +0.064 C 
DOCKED: ATOM      2  C   UNL d   1     -11.567   0.772   8.199 -0.28 -0.02    +0.064 A 
DOCKED: ATOM      3  C   UNL d   1     -12.653   5.446   7.996 -0.17 -0.00    +0.064 C 
DOCKED: ATOM      4  C   UNL d   1     -12.178   5.856  12.739 -0.14 +0.00    +0.064 C 
DOCKED: ATOM      5  C   UNL d   1     -11.115   0.625  11.741 -0.25 -0.01    +0.066 A 
DOCKED: ATOM      6  C   UNL d   1     -10.990  -0.720  11.435 -0.28 +0.01    -0.021 A 
DOCKED: ATOM      7  C   UNL d   1     -11.153  -0.837  10.077 -0.29 +0.01    -0.025 A 
DOCKED: ATOM      8  C   UNL d   1     -11.373   0.443   9.606 -0.22 -0.02    +0.066 A 
DOCKED: ATOM      9  C   UNL d   1     -11.118  -2.110   9.289 -0.28 -0.04    +0.051 C 
DOCKED: ATOM     10  C   UNL d   1     -11.837   1.989   7.725 -0.26 -0.01    +0.066 A 
DOCKED: ATOM     11  C   UNL d   1     -11.904   2.293   6.363 -0.29 +0.00    -0.021 A 
DOCKED: ATOM     12  C   UNL d   1     -12.199   3.639   6.277 -0.23 -0.00    +0.000 A 
DOCKED: ATOM     13  C   UNL d   1     -12.290   4.093   7.605 -0.20 -0.00    +0.070 A 
DOCKED: ATOM     14  C   UNL d   1     -11.632   1.362   5.199 -0.27 -0.02    +0.052 C 
DOCKED: ATOM     15  C   UNL d   1     -12.691   5.901   9.271 -0.12 -0.00    +0.066 A 
DOCKED: ATOM     16  C   UNL d   1     -13.138   7.171   9.610 -0.06 +0.00    -0.021 A 
DOCKED: ATOM     17  C   UNL d   1     -12.999   7.293  10.977 -0.06 -0.00    +0.000 A 
DOCKED: ATOM     18  C   UNL d   1     -12.465   6.093  11.440 -0.11 -0.00    +0.070 A 
DOCKED: ATOM     19  C   UNL d   1     -13.653   8.241   8.684 -0.04 -0.00    +0.052 C 
DOCKED: ATOM     20  C   UNL d   1     -11.674   4.584  13.271 -0.16 +0.00    +0.066 A 
DOCKED: ATOM     21  C   UNL d   1     -11.186   4.387  14.571 -0.14 -0.00    -0.025 A 
DOCKED: ATOM     22  C   UNL d   1     -10.858   3.050  14.652 -0.13 -0.00    -0.021 A 
DOCKED: ATOM     23  C   UNL d   1     -11.150   2.488  13.404 -0.17 +0.01    +0.066 A 
DOCKED: ATOM     24  C   UNL d   1     -11.029   5.398  15.683 -0.11 +0.00    +0.051 C 
DOCKED: ATOM     25  N   UNL d   1     -11.359   1.329  10.622 -0.18 +0.04    -0.248 N 
DOCKED: ATOM     26  N   UNL d   1     -12.061   3.090   8.487 -0.16 +0.02    -0.248 N 
DOCKED: ATOM     27  N   UNL d   1     -12.316   5.221  10.398 -0.10 +0.01    -0.248 N 
DOCKED: ATOM     28  N   UNL d   1     -11.606   3.438  12.552 -0.14 -0.01    -0.248 N 
DOCKED: ATOM     29 FE   UNL d   1     -11.833   3.265  10.521 -0.06 -0.00    +0.000 Fe
DOCKED: ENDROOT
DOCKED: BRANCH   6  30
DOCKED: ATOM     30  C   UNL d   1     -10.748  -1.842  12.385 -0.20 -0.03    +0.052 C 
DOCKED: BRANCH  30  31
DOCKED: ATOM     31  C   UNL d   1     -11.208  -1.469  13.790 -0.16 +0.00    +0.115 C 
DOCKED: BRANCH  31  32
DOCKED: ATOM     32  C   UNL d   1     -10.512  -2.321  14.815 -0.06 +0.06    +0.139 C 
DOCKED: ATOM     33  O   UNL d   1     -10.549  -2.025  16.001 -0.56 -0.39    -0.650 OA
DOCKED: BRANCH  32  34
DOCKED: ATOM     34  O   UNL d   1      -9.839  -3.420  14.435 -0.54 -0.14    -0.776 OA
DOCKED: ATOM     35  H   UNL d   1      -9.604  -3.528  13.502 -0.38 -0.10    +0.167 HD
DOCKED: ENDBRANCH  32  34
DOCKED: ENDBRANCH  31  32
DOCKED: ENDBRANCH  30  31
DOCKED: ENDBRANCH   6  30
DOCKED: BRANCH  22  36
DOCKED: ATOM     36  C   UNL d   1     -10.251   2.364  15.848 -0.20 +0.01    +0.052 C 
DOCKED: BRANCH  36  37
DOCKED: ATOM     37  C   UNL d   1      -8.883   1.807  15.481 -0.21 +0.07    +0.115 C 
DOCKED: BRANCH  37  38
DOCKED: ATOM     38  C   UNL d   1      -7.842   2.240  16.474 -0.25 +0.08    +0.139 C 
DOCKED: ATOM     39  O   UNL d   1      -7.659   1.608  17.504 -0.46 -0.46    -0.650 OA
DOCKED: BRANCH  38  40
DOCKED: ATOM     40  O   UNL d   1      -7.101   3.337  16.234 +0.03 -0.23    -0.776 OA
DOCKED: ATOM     41  H   UNL d   1      -6.278   3.248  15.734 -0.48 +0.02    +0.167 HD
DOCKED: ENDBRANCH  38  40
DOCKED: ENDBRANCH  37  38
DOCKED: ENDBRANCH  36  37
DOCKED: ENDBRANCH  22  36
DOCKED: BRANCH  12  42
DOCKED: ATOM     42  C   UNL d   1     -12.356   4.402   5.000 -0.14 +0.00    +0.004 C 
DOCKED: ATOM     43  C   UNL d   1     -13.479   5.082   4.737 -0.11 +0.00    +0.012 C 
DOCKED: ENDBRANCH  12  42
DOCKED: BRANCH  17  44
DOCKED: ATOM     44  C   UNL d   1     -13.372   8.473  11.789 -0.04 -0.00    +0.004 C 
DOCKED: ATOM     45  C   UNL d   1     -12.438   9.315  12.243 -0.06 -0.00    +0.012 C 
DOCKED: ENDBRANCH  17  44
DOCKED: TORSDOF 10
DOCKED: TER
DOCKED: ENDMDL
________________________________________________________________________________


	BEGINNING GENETIC ALGORITHM DOCKING 32 of 100
Run: 32 Seed: 627753897 712722123 [ Run 32 of 100 GA/GALS ]
Beginning LAMARCKIAN GENETIC ALGORITHM (LGA), with a maximum of 25000000 energy evaluations.

Final-Value: -11.222


	FINAL GENETIC ALGORITHM DOCKED STATE
	_______________________________________________


Detailed state:  trans 3.054 14.687 -13.168 quatxyzw 0.789611 0.063429 0.301617 0.530583 center -0.174 -0.001 -0.047 ntor 10 -2.8940 132.9620 -179.0988 40.4775 35.1938 -102.1665 -87.2662 19.5951 -174.8959 -170.5587
State:	  3.054  14.687 -13.168   0.932  0.075  0.356 115.910     -2.89  132.96 -179.10   40.48   35.19 -102.17  -87.27   19.60 -174.90 -170.56

DOCKED: MODEL       32
DOCKED: USER    Run = 32
DOCKED: USER    DPF = D:/Protein_go_brrr/autodock/final/mut_N102T/heme_Fe/dock.dpf
DOCKED: USER  
DOCKED: USER    Estimated Free Energy of Binding    =   -6.04 kcal/mol  [=(1)+(2)+(3)-(4)]
DOCKED: USER    Estimated Inhibition Constant, Ki   =   37.60 uM (micromolar)  [Temperature = 298.15 K]
DOCKED: USER    
DOCKED: USER    (1) Final Intermolecular Energy     =   -9.02 kcal/mol
DOCKED: USER        vdW + Hbond + desolv Energy     =   -7.61 kcal/mol
DOCKED: USER        Electrostatic Energy            =   -1.41 kcal/mol
DOCKED: USER    (2) Final Total Internal Energy     =   -2.20 kcal/mol
DOCKED: USER    (3) Torsional Free Energy           =   +2.98 kcal/mol
DOCKED: USER    (4) Unbound System's Energy  [=(2)] =   -2.20 kcal/mol
DOCKED: USER    
DOCKED: USER    
DOCKED: USER    NEWDPF move heme_Fe_opt.pdbqt
DOCKED: USER    NEWDPF about -0.174000 -0.001000 -0.047000
DOCKED: USER    NEWDPF tran0 3.054397 14.686540 -13.168261
DOCKED: USER    NEWDPF quaternion0 0.789611 0.063429 0.301617 0.530583
DOCKED: USER    NEWDPF axisangle0 0.931548 0.074830 0.355835 115.910264
DOCKED: USER    NEWDPF quat0 0.931548 0.074830 0.355835 115.910264
DOCKED: USER    NEWDPF dihe0 -2.89 132.96 -179.10 40.48 35.19 -102.17 -87.27 19.60 -174.90 -170.56 
DOCKED: USER  keepresnum = 1 
DOCKED: USER  
DOCKED: REMARK  10 active torsions:
DOCKED: REMARK  status: ('A' for Active; 'I' for Inactive)
DOCKED: REMARK    1  A    between atoms: C_6  and  C_10 
DOCKED: REMARK    2  A    between atoms: C_10  and  C_11 
DOCKED: REMARK    3  A    between atoms: C_11  and  C_12 
DOCKED: REMARK    4  A    between atoms: C_12  and  O_14 
DOCKED: REMARK    5  A    between atoms: C_17  and  C_20 
DOCKED: REMARK    6  A    between atoms: C_24  and  C_27 
DOCKED: REMARK    7  A    between atoms: C_31  and  C_34 
DOCKED: REMARK    8  A    between atoms: C_34  and  C_35 
DOCKED: REMARK    9  A    between atoms: C_35  and  C_36 
DOCKED: REMARK   10  A    between atoms: C_36  and  O_38 
DOCKED: USER                              x       y       z     vdW  Elec       q    Type
DOCKED: USER                           _______ _______ _______ _____ _____    ______ ____
DOCKED: ROOT
DOCKED: ATOM      1  C   UNL d   1       1.643  15.614 -14.334 -0.25 +0.00    +0.064 C 
DOCKED: ATOM      2  C   UNL d   1       3.124  16.067  -9.640 -0.23 -0.03    +0.064 A 
DOCKED: ATOM      3  C   UNL d   1       7.053  13.519 -10.707 -0.21 -0.03    +0.064 C 
DOCKED: ATOM      4  C   UNL d   1       5.587  12.979 -15.228 -0.26 -0.04    +0.064 C 
DOCKED: ATOM      5  C   UNL d   1       1.654  15.906 -12.894 -0.22 -0.01    +0.066 A 
DOCKED: ATOM      6  C   UNL d   1       0.627  16.531 -12.205 -0.17 +0.00    -0.021 A 
DOCKED: ATOM      7  C   UNL d   1       1.041  16.660 -10.903 -0.18 +0.01    -0.025 A 
DOCKED: ATOM      8  C   UNL d   1       2.306  16.108 -10.846 -0.17 -0.02    +0.066 A 
DOCKED: ATOM      9  C   UNL d   1       0.252  17.262  -9.781 -0.20 -0.01    +0.051 C 
DOCKED: ATOM     10  C   UNL d   1       4.323  15.489  -9.544 -0.25 -0.03    +0.066 A 
DOCKED: ATOM     11  C   UNL d   1       5.131  15.566  -8.408 -0.25 +0.01    -0.021 A 
DOCKED: ATOM     12  C   UNL d   1       6.278  14.853  -8.696 -0.24 -0.00    +0.000 A 
DOCKED: ATOM     13  C   UNL d   1       6.112  14.381 -10.009 -0.17 -0.03    +0.070 A 
DOCKED: ATOM     14  C   UNL d   1       4.855  16.338  -7.134 -0.21 -0.02    +0.052 C 
DOCKED: ATOM     15  C   UNL d   1       6.922  13.104 -11.989 -0.13 -0.03    +0.066 A 
DOCKED: ATOM     16  C   UNL d   1       7.792  12.201 -12.587 -0.21 +0.01    -0.021 A 
DOCKED: ATOM     17  C   UNL d   1       7.373  12.047 -13.892 -0.24 -0.00    +0.000 A 
DOCKED: ATOM     18  C   UNL d   1       6.258  12.864 -14.061 -0.23 -0.03    +0.070 A 
DOCKED: ATOM     19  C   UNL d   1       8.986  11.528 -11.966 -0.20 -0.01    +0.052 C 
DOCKED: ATOM     20  C   UNL d   1       4.374  13.781 -15.427 -0.26 -0.03    +0.066 A 
DOCKED: ATOM     21  C   UNL d   1       3.787  14.068 -16.667 -0.25 +0.01    -0.025 A 
DOCKED: ATOM     22  C   UNL d   1       2.657  14.809 -16.388 -0.29 +0.00    -0.021 A 
DOCKED: ATOM     23  C   UNL d   1       2.603  14.950 -14.996 -0.26 -0.01    +0.066 A 
DOCKED: ATOM     24  C   UNL d   1       4.258  13.674 -18.048 -0.18 -0.02    +0.051 C 
DOCKED: ATOM     25  N   UNL d   1       2.673  15.641 -12.057 -0.18 +0.08    -0.248 N 
DOCKED: ATOM     26  N   UNL d   1       4.924  14.776 -10.530 +0.08 +0.13    -0.248 N 
DOCKED: ATOM     27  N   UNL d   1       5.953  13.481 -12.880 -0.01 +0.13    -0.248 N 
DOCKED: ATOM     28  N   UNL d   1       3.677  14.358 -14.418 -0.20 +0.07    -0.248 N 
DOCKED: ATOM     29 FE   UNL d   1       4.301  14.566 -12.476 -0.06 -0.00    +0.000 Fe
DOCKED: ENDROOT
DOCKED: BRANCH   6  30
DOCKED: ATOM     30  C   UNL d   1      -0.690  16.966 -12.751 -0.12 +0.00    +0.052 C 
DOCKED: BRANCH  30  31
DOCKED: ATOM     31  C   UNL d   1      -0.586  18.355 -13.371 -0.03 +0.01    +0.115 C 
DOCKED: BRANCH  31  32
DOCKED: ATOM     32  C   UNL d   1      -0.294  18.253 -14.842 -0.06 +0.03    +0.139 C 
DOCKED: ATOM     33  O   UNL d   1      -0.766  17.344 -15.510 -0.04 -0.22    -0.650 OA
DOCKED: BRANCH  32  34
DOCKED: ATOM     34  O   UNL d   1       0.493  19.165 -15.438 +0.03 -0.16    -0.776 OA
DOCKED: ATOM     35  H   UNL d   1       0.705  19.061 -16.377 +0.02 +0.05    +0.167 HD
DOCKED: ENDBRANCH  32  34
DOCKED: ENDBRANCH  31  32
DOCKED: ENDBRANCH  30  31
DOCKED: ENDBRANCH   6  30
DOCKED: BRANCH  22  36
DOCKED: ATOM     36  C   UNL d   1       1.712  15.390 -17.406 -0.25 +0.02    +0.052 C 
DOCKED: BRANCH  36  37
DOCKED: ATOM     37  C   UNL d   1       2.364  16.582 -18.091 -0.13 +0.03    +0.115 C 
DOCKED: BRANCH  37  38
DOCKED: ATOM     38  C   UNL d   1       1.335  17.450 -18.758 -0.09 +0.11    +0.139 C 
DOCKED: ATOM     39  O   UNL d   1       1.164  17.400 -19.968 -0.34 -0.80    -0.650 OA
DOCKED: BRANCH  38  40
DOCKED: ATOM     40  O   UNL d   1       0.592  18.296 -18.023 -0.02 -0.66    -0.776 OA
DOCKED: ATOM     41  H   UNL d   1       0.177  17.973 -17.211 +0.01 +0.11    +0.167 HD
DOCKED: ENDBRANCH  38  40
DOCKED: ENDBRANCH  37  38
DOCKED: ENDBRANCH  36  37
DOCKED: ENDBRANCH  22  36
DOCKED: BRANCH  12  42
DOCKED: ATOM     42  C   UNL d   1       7.434  14.677  -7.763 -0.22 -0.00    +0.004 C 
DOCKED: ATOM     43  C   UNL d   1       8.690  14.897  -8.172 -0.14 -0.01    +0.012 C 
DOCKED: ENDBRANCH  12  42
DOCKED: BRANCH  17  44
DOCKED: ATOM     44  C   UNL d   1       7.987  11.159 -14.905 -0.29 -0.00    +0.004 C 
DOCKED: ATOM     45  C   UNL d   1       7.519   9.923 -15.107 -0.33 -0.01    +0.012 C 
DOCKED: ENDBRANCH  17  44
DOCKED: TORSDOF 10
DOCKED: TER
DOCKED: ENDMDL
________________________________________________________________________________


	BEGINNING GENETIC ALGORITHM DOCKING 33 of 100
Run: 33 Seed: 283995742 1096518466 [ Run 33 of 100 GA/GALS ]
Beginning LAMARCKIAN GENETIC ALGORITHM (LGA), with a maximum of 25000000 energy evaluations.

Final-Value: -11.352


	FINAL GENETIC ALGORITHM DOCKED STATE
	_______________________________________________


Detailed state:  trans 6.861 -4.074 13.644 quatxyzw 0.081921 0.691394 0.706695 -0.125875 center -0.174 -0.001 -0.047 ntor 10 102.9504 126.8839 -30.9272 28.6259 68.9039 -76.1623 87.6160 143.0088 -154.1682 -176.3045
State:	  6.861  -4.074  13.644   0.083  0.697  0.712 -165.537    102.95  126.88  -30.93   28.63   68.90  -76.16   87.62  143.01 -154.17 -176.30

DOCKED: MODEL       33
DOCKED: USER    Run = 33
DOCKED: USER    DPF = D:/Protein_go_brrr/autodock/final/mut_N102T/heme_Fe/dock.dpf
DOCKED: USER  
DOCKED: USER    Estimated Free Energy of Binding    =   -7.95 kcal/mol  [=(1)+(2)+(3)-(4)]
DOCKED: USER    Estimated Inhibition Constant, Ki   =    1.48 uM (micromolar)  [Temperature = 298.15 K]
DOCKED: USER    
DOCKED: USER    (1) Final Intermolecular Energy     =  -10.93 kcal/mol
DOCKED: USER        vdW + Hbond + desolv Energy     =   -9.16 kcal/mol
DOCKED: USER        Electrostatic Energy            =   -1.78 kcal/mol
DOCKED: USER    (2) Final Total Internal Energy     =   -0.42 kcal/mol
DOCKED: USER    (3) Torsional Free Energy           =   +2.98 kcal/mol
DOCKED: USER    (4) Unbound System's Energy  [=(2)] =   -0.42 kcal/mol
DOCKED: USER    
DOCKED: USER    
DOCKED: USER    NEWDPF move heme_Fe_opt.pdbqt
DOCKED: USER    NEWDPF about -0.174000 -0.001000 -0.047000
DOCKED: USER    NEWDPF tran0 6.860592 -4.074353 13.643810
DOCKED: USER    NEWDPF quaternion0 0.081921 0.691394 0.706695 -0.125875
DOCKED: USER    NEWDPF axisangle0 0.082578 0.696938 0.712361 -165.537410
DOCKED: USER    NEWDPF quat0 0.082578 0.696938 0.712361 -165.537410
DOCKED: USER    NEWDPF dihe0 102.95 126.88 -30.93 28.63 68.90 -76.16 87.62 143.01 -154.17 -176.30 
DOCKED: USER  keepresnum = 1 
DOCKED: USER  
DOCKED: REMARK  10 active torsions:
DOCKED: REMARK  status: ('A' for Active; 'I' for Inactive)
DOCKED: REMARK    1  A    between atoms: C_6  and  C_10 
DOCKED: REMARK    2  A    between atoms: C_10  and  C_11 
DOCKED: REMARK    3  A    between atoms: C_11  and  C_12 
DOCKED: REMARK    4  A    between atoms: C_12  and  O_14 
DOCKED: REMARK    5  A    between atoms: C_17  and  C_20 
DOCKED: REMARK    6  A    between atoms: C_24  and  C_27 
DOCKED: REMARK    7  A    between atoms: C_31  and  C_34 
DOCKED: REMARK    8  A    between atoms: C_34  and  C_35 
DOCKED: REMARK    9  A    between atoms: C_35  and  C_36 
DOCKED: REMARK   10  A    between atoms: C_36  and  O_38 
DOCKED: USER                              x       y       z     vdW  Elec       q    Type
DOCKED: USER                           _______ _______ _______ _____ _____    ______ ____
DOCKED: ROOT
DOCKED: ATOM      1  C   UNL d   1       8.910  -4.142  13.717 -0.09 +0.01    +0.064 C 
DOCKED: ATOM      2  C   UNL d   1       5.582  -3.223  10.180 -0.22 +0.01    +0.064 A 
DOCKED: ATOM      3  C   UNL d   1       2.227  -2.684  13.574 -0.36 -0.01    +0.064 C 
DOCKED: ATOM      4  C   UNL d   1       5.409  -3.674  17.006 -0.13 -0.00    +0.064 C 
DOCKED: ATOM      5  C   UNL d   1       8.267  -4.015  12.402 -0.14 +0.02    +0.066 A 
DOCKED: ATOM      6  C   UNL d   1       8.902  -4.219  11.188 -0.19 -0.01    -0.021 A 
DOCKED: ATOM      7  C   UNL d   1       7.978  -3.960  10.206 -0.25 -0.02    -0.025 A 
DOCKED: ATOM      8  C   UNL d   1       6.812  -3.608  10.859 -0.22 +0.02    +0.066 A 
DOCKED: ATOM      9  C   UNL d   1       8.205  -4.067   8.729 -0.24 +0.05    +0.051 C 
DOCKED: ATOM     10  C   UNL d   1       4.428  -2.935  10.785 -0.36 +0.00    +0.066 A 
DOCKED: ATOM     11  C   UNL d   1       3.299  -2.458  10.115 -0.49 -0.00    -0.021 A 
DOCKED: ATOM     12  C   UNL d   1       2.323  -2.279  11.074 -0.50 +0.00    +0.000 A 
DOCKED: ATOM     13  C   UNL d   1       2.915  -2.651  12.293 -0.48 -0.00    +0.070 A 
DOCKED: ATOM     14  C   UNL d   1       3.178  -2.125   8.642 -0.47 +0.01    +0.052 C 
DOCKED: ATOM     15  C   UNL d   1       2.806  -2.991  14.758 -0.37 -0.01    +0.066 A 
DOCKED: ATOM     16  C   UNL d   1       2.093  -3.109  15.944 -0.43 +0.01    -0.021 A 
DOCKED: ATOM     17  C   UNL d   1       3.009  -3.391  16.936 -0.28 -0.00    +0.000 A 
DOCKED: ATOM     18  C   UNL d   1       4.263  -3.435  16.332 -0.20 -0.01    +0.070 A 
DOCKED: ATOM     19  C   UNL d   1       0.611  -2.938  16.145 -0.32 -0.01    +0.052 C 
DOCKED: ATOM     20  C   UNL d   1       6.738  -3.788  16.394 -0.08 +0.00    +0.066 A 
DOCKED: ATOM     21  C   UNL d   1       7.951  -3.835  17.096 -0.05 -0.00    -0.025 A 
DOCKED: ATOM     22  C   UNL d   1       8.935  -3.982  16.139 -0.04 -0.00    -0.021 A 
DOCKED: ATOM     23  C   UNL d   1       8.287  -4.011  14.898 -0.07 +0.01    +0.066 A 
DOCKED: ATOM     24  C   UNL d   1       8.183  -3.744  18.586 -0.02 +0.00    +0.051 C 
DOCKED: ATOM     25  N   UNL d   1       6.989  -3.652  12.195 -0.12 -0.05    -0.248 N 
DOCKED: ATOM     26  N   UNL d   1       4.201  -3.042  12.119 -0.23 +0.00    -0.248 N 
DOCKED: ATOM     27  N   UNL d   1       4.135  -3.233  14.986 -0.16 +0.03    -0.248 N 
DOCKED: ATOM     28  N   UNL d   1       6.951  -3.848  15.058 +0.00 -0.02    -0.248 N 
DOCKED: ATOM     29 FE   UNL d   1       5.576  -3.445  13.590 -0.07 +0.00    +0.000 Fe
DOCKED: ENDROOT
DOCKED: BRANCH   6  30
DOCKED: ATOM     30  C   UNL d   1      10.309  -4.659  10.969 -0.08 +0.06    +0.052 C 
DOCKED: BRANCH  30  31
DOCKED: ATOM     31  C   UNL d   1      11.289  -3.608  11.480 -0.09 +0.11    +0.115 C 
DOCKED: BRANCH  31  32
DOCKED: ATOM     32  C   UNL d   1      11.667  -2.660  10.376 +0.05 +0.20    +0.139 C 
DOCKED: ATOM     33  O   UNL d   1      10.848  -1.875   9.921 -0.27 -0.80    -0.650 OA
DOCKED: BRANCH  32  34
DOCKED: ATOM     34  O   UNL d   1      12.915  -2.668   9.878 -0.45 -1.16    -0.776 OA
DOCKED: ATOM     35  H   UNL d   1      13.625  -2.249  10.384 +0.02 +0.13    +0.167 HD
DOCKED: ENDBRANCH  32  34
DOCKED: ENDBRANCH  31  32
DOCKED: ENDBRANCH  30  31
DOCKED: ENDBRANCH   6  30
DOCKED: BRANCH  22  36
DOCKED: ATOM     36  C   UNL d   1      10.416  -4.040  16.403 -0.01 +0.01    +0.052 C 
DOCKED: BRANCH  36  37
DOCKED: ATOM     37  C   UNL d   1      10.954  -2.634  16.625 -0.01 +0.02    +0.115 C 
DOCKED: BRANCH  37  38
DOCKED: ATOM     38  C   UNL d   1      10.279  -1.649  15.712 -0.05 +0.03    +0.139 C 
DOCKED: ATOM     39  O   UNL d   1      10.578  -1.587  14.529 +0.04 -0.15    -0.650 OA
DOCKED: BRANCH  38  40
DOCKED: ATOM     40  O   UNL d   1       9.337  -0.821  16.197 -0.54 -0.29    -0.776 OA
DOCKED: ATOM     41  H   UNL d   1       8.587  -1.194  16.681 +0.04 +0.05    +0.167 HD
DOCKED: ENDBRANCH  38  40
DOCKED: ENDBRANCH  37  38
DOCKED: ENDBRANCH  36  37
DOCKED: ENDBRANCH  22  36
DOCKED: BRANCH  12  42
DOCKED: ATOM     42  C   UNL d   1       0.943  -1.768  10.805 -0.30 +0.00    +0.004 C 
DOCKED: ATOM     43  C   UNL d   1       0.440  -1.759   9.564 -0.57 +0.00    +0.012 C 
DOCKED: ENDBRANCH  12  42
DOCKED: BRANCH  17  44
DOCKED: ATOM     44  C   UNL d   1       2.702  -3.624  18.366 -0.16 -0.00    +0.004 C 
DOCKED: ATOM     45  C   UNL d   1       2.294  -4.823  18.792 -0.18 -0.00    +0.012 C 
DOCKED: ENDBRANCH  17  44
DOCKED: TORSDOF 10
DOCKED: TER
DOCKED: ENDMDL
________________________________________________________________________________


	BEGINNING GENETIC ALGORITHM DOCKING 34 of 100
Run: 34 Seed: 1928601857 1130110187 [ Run 34 of 100 GA/GALS ]
Beginning LAMARCKIAN GENETIC ALGORITHM (LGA), with a maximum of 25000000 energy evaluations.

Final-Value: -10.914


	FINAL GENETIC ALGORITHM DOCKED STATE
	_______________________________________________


Detailed state:  trans 2.883 14.796 -13.622 quatxyzw 0.795706 0.121610 0.317204 0.501443 center -0.174 -0.001 -0.047 ntor 10 -28.4721 168.9648 92.8965 58.2094 39.4411 -30.4432 -65.7809 -18.2705 -170.3507 153.1087
State:	  2.883  14.796 -13.622   0.920  0.141  0.367 119.809    -28.47  168.96   92.90   58.21   39.44  -30.44  -65.78  -18.27 -170.35  153.11

DOCKED: MODEL       34
DOCKED: USER    Run = 34
DOCKED: USER    DPF = D:/Protein_go_brrr/autodock/final/mut_N102T/heme_Fe/dock.dpf
DOCKED: USER  
DOCKED: USER    Estimated Free Energy of Binding    =   -6.20 kcal/mol  [=(1)+(2)+(3)-(4)]
DOCKED: USER    Estimated Inhibition Constant, Ki   =   28.37 uM (micromolar)  [Temperature = 298.15 K]
DOCKED: USER    
DOCKED: USER    (1) Final Intermolecular Energy     =   -9.19 kcal/mol
DOCKED: USER        vdW + Hbond + desolv Energy     =   -7.39 kcal/mol
DOCKED: USER        Electrostatic Energy            =   -1.79 kcal/mol
DOCKED: USER    (2) Final Total Internal Energy     =   -1.73 kcal/mol
DOCKED: USER    (3) Torsional Free Energy           =   +2.98 kcal/mol
DOCKED: USER    (4) Unbound System's Energy  [=(2)] =   -1.73 kcal/mol
DOCKED: USER    
DOCKED: USER    
DOCKED: USER    NEWDPF move heme_Fe_opt.pdbqt
DOCKED: USER    NEWDPF about -0.174000 -0.001000 -0.047000
DOCKED: USER    NEWDPF tran0 2.883134 14.796470 -13.622422
DOCKED: USER    NEWDPF quaternion0 0.795706 0.121610 0.317204 0.501443
DOCKED: USER    NEWDPF axisangle0 0.919688 0.140558 0.366629 119.808970
DOCKED: USER    NEWDPF quat0 0.919688 0.140558 0.366629 119.808970
DOCKED: USER    NEWDPF dihe0 -28.47 168.96 92.90 58.21 39.44 -30.44 -65.78 -18.27 -170.35 153.11 
DOCKED: USER  keepresnum = 1 
DOCKED: USER  
DOCKED: REMARK  10 active torsions:
DOCKED: REMARK  status: ('A' for Active; 'I' for Inactive)
DOCKED: REMARK    1  A    between atoms: C_6  and  C_10 
DOCKED: REMARK    2  A    between atoms: C_10  and  C_11 
DOCKED: REMARK    3  A    between atoms: C_11  and  C_12 
DOCKED: REMARK    4  A    between atoms: C_12  and  O_14 
DOCKED: REMARK    5  A    between atoms: C_17  and  C_20 
DOCKED: REMARK    6  A    between atoms: C_24  and  C_27 
DOCKED: REMARK    7  A    between atoms: C_31  and  C_34 
DOCKED: REMARK    8  A    between atoms: C_34  and  C_35 
DOCKED: REMARK    9  A    between atoms: C_35  and  C_36 
DOCKED: REMARK   10  A    between atoms: C_36  and  O_38 
DOCKED: USER                              x       y       z     vdW  Elec       q    Type
DOCKED: USER                           _______ _______ _______ _____ _____    ______ ____
DOCKED: ROOT
DOCKED: ATOM      1  C   UNL d   1       1.533  15.536 -14.979 -0.27 +0.01    +0.064 C 
DOCKED: ATOM      2  C   UNL d   1       2.566  16.466 -10.236 -0.18 -0.02    +0.064 A 
DOCKED: ATOM      3  C   UNL d   1       6.705  14.081 -10.742 -0.18 -0.03    +0.064 C 
DOCKED: ATOM      4  C   UNL d   1       5.675  13.080 -15.305 -0.23 -0.04    +0.064 C 
DOCKED: ATOM      5  C   UNL d   1       1.401  15.948 -13.574 -0.19 -0.00    +0.066 A 
DOCKED: ATOM      6  C   UNL d   1       0.286  16.564 -13.032 -0.15 -0.00    -0.021 A 
DOCKED: ATOM      7  C   UNL d   1       0.575  16.826 -11.716 -0.15 +0.00    -0.025 A 
DOCKED: ATOM      8  C   UNL d   1       1.858  16.357 -11.505 -0.18 -0.02    +0.066 A 
DOCKED: ATOM      9  C   UNL d   1      -0.341  17.470 -10.721 -0.13 -0.01    +0.051 C 
DOCKED: ATOM     10  C   UNL d   1       3.781  15.972  -9.990 -0.22 -0.02    +0.066 A 
DOCKED: ATOM     11  C   UNL d   1       4.480  16.192  -8.800 -0.21 +0.01    -0.021 A 
DOCKED: ATOM     12  C   UNL d   1       5.685  15.528  -8.928 -0.20 -0.00    +0.000 A 
DOCKED: ATOM     13  C   UNL d   1       5.660  14.939 -10.204 -0.15 -0.03    +0.070 A 
DOCKED: ATOM     14  C   UNL d   1       4.052  17.049  -7.627 -0.17 -0.02    +0.052 C 
DOCKED: ATOM     15  C   UNL d   1       6.710  13.555 -11.989 -0.11 -0.03    +0.066 A 
DOCKED: ATOM     16  C   UNL d   1       7.676  12.660 -12.430 -0.18 +0.01    -0.021 A 
DOCKED: ATOM     17  C   UNL d   1       7.383  12.372 -13.747 -0.21 -0.00    +0.000 A 
DOCKED: ATOM     18  C   UNL d   1       6.245  13.103 -14.080 -0.21 -0.03    +0.070 A 
DOCKED: ATOM     19  C   UNL d   1       8.844  12.113 -11.655 -0.16 -0.01    +0.052 C 
DOCKED: ATOM     20  C   UNL d   1       4.444  13.788 -15.674 -0.24 -0.03    +0.066 A 
DOCKED: ATOM     21  C   UNL d   1       3.955  13.935 -16.980 -0.23 +0.01    -0.025 A 
DOCKED: ATOM     22  C   UNL d   1       2.767  14.627 -16.862 -0.29 +0.00    -0.021 A 
DOCKED: ATOM     23  C   UNL d   1       2.582  14.879 -15.497 -0.27 -0.00    +0.066 A 
DOCKED: ATOM     24  C   UNL d   1       4.567  13.458 -18.276 -0.15 -0.03    +0.051 C 
DOCKED: ATOM     25  N   UNL d   1       2.354  15.815 -12.635 -0.16 +0.05    -0.248 N 
DOCKED: ATOM     26  N   UNL d   1       4.504  15.217 -10.855 -0.10 +0.11    -0.248 N 
DOCKED: ATOM     27  N   UNL d   1       5.805  13.797 -12.988 -0.06 +0.12    -0.248 N 
DOCKED: ATOM     28  N   UNL d   1       3.631  14.404 -14.782 -0.18 +0.07    -0.248 N 
DOCKED: ATOM     29 FE   UNL d   1       4.069  14.810 -12.820 -0.06 -0.00    +0.000 Fe
DOCKED: ENDROOT
DOCKED: BRANCH   6  30
DOCKED: ATOM     30  C   UNL d   1      -0.999  16.871 -13.722 -0.14 +0.01    +0.052 C 
DOCKED: BRANCH  30  31
DOCKED: ATOM     31  C   UNL d   1      -0.880  18.151 -14.542 -0.07 +0.02    +0.115 C 
DOCKED: BRANCH  31  32
DOCKED: ATOM     32  C   UNL d   1      -1.008  17.849 -16.009 -0.13 +0.06    +0.139 C 
DOCKED: ATOM     33  O   UNL d   1      -1.816  17.022 -16.407 +0.02 -0.40    -0.650 OA
DOCKED: BRANCH  32  34
DOCKED: ATOM     34  O   UNL d   1      -0.233  18.490 -16.900 -0.01 -0.47    -0.776 OA
DOCKED: ATOM     35  H   UNL d   1      -0.005  18.046 -17.729 +0.01 +0.16    +0.167 HD
DOCKED: ENDBRANCH  32  34
DOCKED: ENDBRANCH  31  32
DOCKED: ENDBRANCH  30  31
DOCKED: ENDBRANCH   6  30
DOCKED: BRANCH  22  36
DOCKED: ATOM     36  C   UNL d   1       1.886  15.063 -18.003 -0.23 +0.01    +0.052 C 
DOCKED: BRANCH  36  37
DOCKED: ATOM     37  C   UNL d   1       1.949  16.576 -18.151 -0.15 +0.05    +0.115 C 
DOCKED: BRANCH  37  38
DOCKED: ATOM     38  C   UNL d   1       1.482  17.004 -19.514 +0.00 +0.11    +0.139 C 
DOCKED: ATOM     39  O   UNL d   1       1.638  16.279 -20.485 -0.06 -0.43    -0.650 OA
DOCKED: BRANCH  38  40
DOCKED: ATOM     40  O   UNL d   1       0.887  18.200 -19.674 -0.39 -1.17    -0.776 OA
DOCKED: ATOM     41  H   UNL d   1       0.618  18.700 -18.891 -0.00 +0.21    +0.167 HD
DOCKED: ENDBRANCH  38  40
DOCKED: ENDBRANCH  37  38
DOCKED: ENDBRANCH  36  37
DOCKED: ENDBRANCH  22  36
DOCKED: BRANCH  12  42
DOCKED: ATOM     42  C   UNL d   1       6.760  15.500  -7.889 -0.18 -0.00    +0.004 C 
DOCKED: ATOM     43  C   UNL d   1       7.459  14.382  -7.650 -0.21 -0.01    +0.012 C 
DOCKED: ENDBRANCH  12  42
DOCKED: BRANCH  17  44
DOCKED: ATOM     44  C   UNL d   1       8.131  11.442 -14.624 -0.25 -0.00    +0.004 C 
DOCKED: ATOM     45  C   UNL d   1       7.579  10.297 -15.037 -0.38 -0.01    +0.012 C 
DOCKED: ENDBRANCH  17  44
DOCKED: TORSDOF 10
DOCKED: TER
DOCKED: ENDMDL
________________________________________________________________________________


	BEGINNING GENETIC ALGORITHM DOCKING 35 of 100
Run: 35 Seed: 986668206 813979014 [ Run 35 of 100 GA/GALS ]
Beginning LAMARCKIAN GENETIC ALGORITHM (LGA), with a maximum of 25000000 energy evaluations.

Final-Value: -11.923


	FINAL GENETIC ALGORITHM DOCKED STATE
	_______________________________________________


Detailed state:  trans 12.195 -8.359 6.685 quatxyzw 0.525858 -0.202599 -0.756899 0.330955 center -0.174 -0.001 -0.047 ntor 10 154.2542 173.7190 43.4307 58.0761 75.6346 99.3258 -164.0956 27.1196 165.8715 -31.8646
State:	 12.195  -8.359   6.685   0.557 -0.215 -0.802 141.346    154.25  173.72   43.43   58.08   75.63   99.33 -164.10   27.12  165.87  -31.86

DOCKED: MODEL       35
DOCKED: USER    Run = 35
DOCKED: USER    DPF = D:/Protein_go_brrr/autodock/final/mut_N102T/heme_Fe/dock.dpf
DOCKED: USER  
DOCKED: USER    Estimated Free Energy of Binding    =   -8.33 kcal/mol  [=(1)+(2)+(3)-(4)]
DOCKED: USER    Estimated Inhibition Constant, Ki   =  783.12 nM (nanomolar)  [Temperature = 298.15 K]
DOCKED: USER    
DOCKED: USER    (1) Final Intermolecular Energy     =  -11.31 kcal/mol
DOCKED: USER        vdW + Hbond + desolv Energy     =   -7.70 kcal/mol
DOCKED: USER        Electrostatic Energy            =   -3.62 kcal/mol
DOCKED: USER    (2) Final Total Internal Energy     =   -0.61 kcal/mol
DOCKED: USER    (3) Torsional Free Energy           =   +2.98 kcal/mol
DOCKED: USER    (4) Unbound System's Energy  [=(2)] =   -0.61 kcal/mol
DOCKED: USER    
DOCKED: USER    
DOCKED: USER    NEWDPF move heme_Fe_opt.pdbqt
DOCKED: USER    NEWDPF about -0.174000 -0.001000 -0.047000
DOCKED: USER    NEWDPF tran0 12.195106 -8.359218 6.684610
DOCKED: USER    NEWDPF quaternion0 0.525858 -0.202599 -0.756899 0.330955
DOCKED: USER    NEWDPF axisangle0 0.557262 -0.214698 -0.802100 141.346465
DOCKED: USER    NEWDPF quat0 0.557262 -0.214698 -0.802100 141.346465
DOCKED: USER    NEWDPF dihe0 154.25 173.72 43.43 58.08 75.63 99.33 -164.10 27.12 165.87 -31.86 
DOCKED: USER  keepresnum = 1 
DOCKED: USER  
DOCKED: REMARK  10 active torsions:
DOCKED: REMARK  status: ('A' for Active; 'I' for Inactive)
DOCKED: REMARK    1  A    between atoms: C_6  and  C_10 
DOCKED: REMARK    2  A    between atoms: C_10  and  C_11 
DOCKED: REMARK    3  A    between atoms: C_11  and  C_12 
DOCKED: REMARK    4  A    between atoms: C_12  and  O_14 
DOCKED: REMARK    5  A    between atoms: C_17  and  C_20 
DOCKED: REMARK    6  A    between atoms: C_24  and  C_27 
DOCKED: REMARK    7  A    between atoms: C_31  and  C_34 
DOCKED: REMARK    8  A    between atoms: C_34  and  C_35 
DOCKED: REMARK    9  A    between atoms: C_35  and  C_36 
DOCKED: REMARK   10  A    between atoms: C_36  and  O_38 
DOCKED: USER                              x       y       z     vdW  Elec       q    Type
DOCKED: USER                           _______ _______ _______ _____ _____    ______ ____
DOCKED: ROOT
DOCKED: ATOM      1  C   UNL d   1      12.337  -8.540   8.724 -0.09 +0.03    +0.064 C 
DOCKED: ATOM      2  C   UNL d   1      14.007  -5.292   5.394 -0.04 +0.04    +0.064 A 
DOCKED: ATOM      3  C   UNL d   1      10.951  -7.126   2.174 -0.22 -0.01    +0.064 C 
DOCKED: ATOM      4  C   UNL d   1       9.395 -10.347   5.350 -0.34 +0.01    +0.064 C 
DOCKED: ATOM      5  C   UNL d   1      13.149  -7.511   8.061 -0.07 +0.05    +0.066 A 
DOCKED: ATOM      6  C   UNL d   1      14.209  -6.840   8.648 -0.06 -0.01    -0.021 A 
DOCKED: ATOM      7  C   UNL d   1      14.670  -5.936   7.724 -0.07 -0.02    -0.025 A 
DOCKED: ATOM      8  C   UNL d   1      13.873  -6.089   6.606 -0.05 +0.05    +0.066 A 
DOCKED: ATOM      9  C   UNL d   1      15.822  -4.996   7.907 -0.05 +0.02    +0.051 C 
DOCKED: ATOM     10  C   UNL d   1      13.289  -5.459   4.281 -0.09 +0.02    +0.066 A 
DOCKED: ATOM     11  C   UNL d   1      13.362  -4.606   3.178 -0.17 -0.00    -0.021 A 
DOCKED: ATOM     12  C   UNL d   1      12.477  -5.103   2.241 -0.25 -0.00    +0.000 A 
DOCKED: ATOM     13  C   UNL d   1      11.900  -6.241   2.832 -0.17 -0.00    +0.070 A 
DOCKED: ATOM     14  C   UNL d   1      14.182  -3.339   3.047 -0.19 +0.01    +0.052 C 
DOCKED: ATOM     15  C   UNL d   1      10.353  -8.192   2.756 -0.18 -0.01    +0.066 A 
DOCKED: ATOM     16  C   UNL d   1       9.530  -9.071   2.064 -0.28 +0.00    -0.021 A 
DOCKED: ATOM     17  C   UNL d   1       9.077  -9.999   2.979 -0.32 -0.00    +0.000 A 
DOCKED: ATOM     18  C   UNL d   1       9.633  -9.661   4.211 -0.22 +0.01    +0.070 A 
DOCKED: ATOM     19  C   UNL d   1       9.161  -9.029   0.606 -0.43 -0.02    +0.052 C 
DOCKED: ATOM     20  C   UNL d   1      10.010 -10.058   6.651 -0.25 +0.01    +0.066 A 
DOCKED: ATOM     21  C   UNL d   1       9.625 -10.627   7.873 -0.28 -0.01    -0.025 A 
DOCKED: ATOM     22  C   UNL d   1      10.485 -10.108   8.819 -0.13 -0.01    -0.021 A 
DOCKED: ATOM     23  C   UNL d   1      11.351  -9.242   8.141 -0.11 +0.03    +0.066 A 
DOCKED: ATOM     24  C   UNL d   1       8.506 -11.605   8.148 -0.16 +0.00    +0.051 C 
DOCKED: ATOM     25  N   UNL d   1      12.955  -7.055   6.811 -0.07 -0.21    -0.248 N 
DOCKED: ATOM     26  N   UNL d   1      12.388  -6.453   4.079 -0.08 -0.07    -0.248 N 
DOCKED: ATOM     27  N   UNL d   1      10.452  -8.577   4.066 -0.09 -0.02    -0.248 N 
DOCKED: ATOM     28  N   UNL d   1      11.028  -9.181   6.827 -0.08 -0.08    -0.248 N 
DOCKED: ATOM     29 FE   UNL d   1      11.706  -7.818   5.453 -0.03 +0.00    +0.000 Fe
DOCKED: ENDROOT
DOCKED: BRANCH   6  30
DOCKED: ATOM     30  C   UNL d   1      14.771  -7.060  10.011 -0.02 +0.02    +0.052 C 
DOCKED: BRANCH  30  31
DOCKED: ATOM     31  C   UNL d   1      14.348  -5.942  10.957 -0.03 +0.06    +0.115 C 
DOCKED: BRANCH  31  32
DOCKED: ATOM     32  C   UNL d   1      13.198  -5.167  10.375 +0.01 +0.17    +0.139 C 
DOCKED: ATOM     33  O   UNL d   1      12.068  -5.635  10.377 +0.01 -0.98    -0.650 OA
DOCKED: BRANCH  32  34
DOCKED: ATOM     34  O   UNL d   1      13.404  -3.950   9.846 -0.32 -1.33    -0.776 OA
DOCKED: ATOM     35  H   UNL d   1      14.154  -3.424  10.156 +0.01 +0.15    +0.167 HD
DOCKED: ENDBRANCH  32  34
DOCKED: ENDBRANCH  31  32
DOCKED: ENDBRANCH  30  31
DOCKED: ENDBRANCH   6  30
DOCKED: BRANCH  22  36
DOCKED: ATOM     36  C   UNL d   1      10.442 -10.392  10.297 -0.12 +0.02    +0.052 C 
DOCKED: BRANCH  36  37
DOCKED: ATOM     37  C   UNL d   1      10.755 -11.859  10.548 -0.16 +0.04    +0.115 C 
DOCKED: BRANCH  37  38
DOCKED: ATOM     38  C   UNL d   1      10.131 -12.333  11.829 -0.15 +0.13    +0.139 C 
DOCKED: ATOM     39  O   UNL d   1       9.079 -12.955  11.820 -0.39 -0.66    -0.650 OA
DOCKED: BRANCH  38  40
DOCKED: ATOM     40  O   UNL d   1      10.729 -12.069  13.005 -0.40 -1.18    -0.776 OA
DOCKED: ATOM     41  H   UNL d   1      11.605 -11.659  13.005 +0.02 +0.14    +0.167 HD
DOCKED: ENDBRANCH  38  40
DOCKED: ENDBRANCH  37  38
DOCKED: ENDBRANCH  36  37
DOCKED: ENDBRANCH  22  36
DOCKED: BRANCH  12  42
DOCKED: ATOM     42  C   UNL d   1      12.219  -4.495   0.900 -0.36 -0.00    +0.004 C 
DOCKED: ATOM     43  C   UNL d   1      12.921  -4.874  -0.176 -0.29 -0.01    +0.012 C 
DOCKED: ENDBRANCH  12  42
DOCKED: BRANCH  17  44
DOCKED: ATOM     44  C   UNL d   1       8.187 -11.147   2.689 -0.41 -0.00    +0.004 C 
DOCKED: ATOM     45  C   UNL d   1       8.641 -12.402   2.769 -0.53 -0.00    +0.012 C 
DOCKED: ENDBRANCH  17  44
DOCKED: TORSDOF 10
DOCKED: TER
DOCKED: ENDMDL
________________________________________________________________________________


	BEGINNING GENETIC ALGORITHM DOCKING 36 of 100
Run: 36 Seed: 390718535 1310862917 [ Run 36 of 100 GA/GALS ]
Beginning LAMARCKIAN GENETIC ALGORITHM (LGA), with a maximum of 25000000 energy evaluations.

Final-Value: -9.633


	FINAL GENETIC ALGORITHM DOCKED STATE
	_______________________________________________


Detailed state:  trans -10.813 4.326 12.456 quatxyzw -0.638682 0.030944 0.759637 -0.118655 center -0.174 -0.001 -0.047 ntor 10 -179.9059 180.0000 3.5901 -133.9015 -109.1972 -165.5669 -117.6992 -83.4626 -179.9710 -16.1862
State:	-10.813   4.326  12.456  -0.643  0.031  0.765 -166.371   -179.91  180.00    3.59 -133.90 -109.20 -165.57 -117.70  -83.46 -179.97  -16.19

DOCKED: MODEL       36
DOCKED: USER    Run = 36
DOCKED: USER    DPF = D:/Protein_go_brrr/autodock/final/mut_N102T/heme_Fe/dock.dpf
DOCKED: USER  
DOCKED: USER    Estimated Free Energy of Binding    =   -4.89 kcal/mol  [=(1)+(2)+(3)-(4)]
DOCKED: USER    Estimated Inhibition Constant, Ki   =  262.16 uM (micromolar)  [Temperature = 298.15 K]
DOCKED: USER    
DOCKED: USER    (1) Final Intermolecular Energy     =   -7.87 kcal/mol
DOCKED: USER        vdW + Hbond + desolv Energy     =   -7.37 kcal/mol
DOCKED: USER        Electrostatic Energy            =   -0.50 kcal/mol
DOCKED: USER    (2) Final Total Internal Energy     =   -1.76 kcal/mol
DOCKED: USER    (3) Torsional Free Energy           =   +2.98 kcal/mol
DOCKED: USER    (4) Unbound System's Energy  [=(2)] =   -1.76 kcal/mol
DOCKED: USER    
DOCKED: USER    
DOCKED: USER    NEWDPF move heme_Fe_opt.pdbqt
DOCKED: USER    NEWDPF about -0.174000 -0.001000 -0.047000
DOCKED: USER    NEWDPF tran0 -10.813477 4.325717 12.455869
DOCKED: USER    NEWDPF quaternion0 -0.638682 0.030944 0.759637 -0.118655
DOCKED: USER    NEWDPF axisangle0 -0.643226 0.031164 0.765042 -166.371065
DOCKED: USER    NEWDPF quat0 -0.643226 0.031164 0.765042 -166.371065
DOCKED: USER    NEWDPF dihe0 -179.91 180.00 3.59 -133.90 -109.20 -165.57 -117.70 -83.46 -179.97 -16.19 
DOCKED: USER  keepresnum = 1 
DOCKED: USER  
DOCKED: REMARK  10 active torsions:
DOCKED: REMARK  status: ('A' for Active; 'I' for Inactive)
DOCKED: REMARK    1  A    between atoms: C_6  and  C_10 
DOCKED: REMARK    2  A    between atoms: C_10  and  C_11 
DOCKED: REMARK    3  A    between atoms: C_11  and  C_12 
DOCKED: REMARK    4  A    between atoms: C_12  and  O_14 
DOCKED: REMARK    5  A    between atoms: C_17  and  C_20 
DOCKED: REMARK    6  A    between atoms: C_24  and  C_27 
DOCKED: REMARK    7  A    between atoms: C_31  and  C_34 
DOCKED: REMARK    8  A    between atoms: C_34  and  C_35 
DOCKED: REMARK    9  A    between atoms: C_35  and  C_36 
DOCKED: REMARK   10  A    between atoms: C_36  and  O_38 
DOCKED: USER                              x       y       z     vdW  Elec       q    Type
DOCKED: USER                           _______ _______ _______ _____ _____    ______ ____
DOCKED: ROOT
DOCKED: ATOM      1  C   UNL d   1     -11.004   4.210  14.496 -0.08 +0.01    +0.064 C 
DOCKED: ATOM      2  C   UNL d   1     -10.656   7.910  11.238 -0.27 +0.00    +0.064 A 
DOCKED: ATOM      3  C   UNL d   1     -11.600   4.796   7.705 -0.27 +0.00    +0.064 C 
DOCKED: ATOM      4  C   UNL d   1     -11.837   1.182  10.830 -0.25 -0.01    +0.064 C 
DOCKED: ATOM      5  C   UNL d   1     -10.736   5.525  13.898 -0.10 +0.01    +0.066 A 
DOCKED: ATOM      6  C   UNL d   1     -10.322   6.644  14.601 -0.20 -0.00    -0.021 A 
DOCKED: ATOM      7  C   UNL d   1     -10.229   7.672  13.696 -0.25 -0.00    -0.025 A 
DOCKED: ATOM      8  C   UNL d   1     -10.590   7.140  12.474 -0.28 +0.00    +0.066 A 
DOCKED: ATOM      9  C   UNL d   1      -9.799   9.076  13.995 -0.20 +0.00    +0.051 C 
DOCKED: ATOM     10  C   UNL d   1     -10.945   7.409  10.035 -0.29 -0.00    +0.066 A 
DOCKED: ATOM     11  C   UNL d   1     -11.113   8.192   8.890 -0.27 +0.00    -0.021 A 
DOCKED: ATOM     12  C   UNL d   1     -11.402   7.319   7.860 -0.28 -0.00    +0.000 A 
DOCKED: ATOM     13  C   UNL d   1     -11.405   6.037   8.438 -0.27 -0.00    +0.070 A 
DOCKED: ATOM     14  C   UNL d   1     -11.067   9.703   8.795 -0.21 -0.01    +0.052 C 
DOCKED: ATOM     15  C   UNL d   1     -11.655   3.565   8.264 -0.23 -0.00    +0.066 A 
DOCKED: ATOM     16  C   UNL d   1     -11.743   2.396   7.519 -0.30 +0.00    -0.021 A 
DOCKED: ATOM     17  C   UNL d   1     -11.815   1.353   8.419 -0.28 -0.00    +0.000 A 
DOCKED: ATOM     18  C   UNL d   1     -11.773   1.911   9.694 -0.20 -0.01    +0.070 A 
DOCKED: ATOM     19  C   UNL d   1     -11.784   2.264   6.020 -0.33 -0.01    +0.052 C 
DOCKED: ATOM     20  C   UNL d   1     -11.734   1.729  12.188 -0.21 -0.00    +0.066 A 
DOCKED: ATOM     21  C   UNL d   1     -11.997   1.020  13.369 -0.14 -0.00    -0.025 A 
DOCKED: ATOM     22  C   UNL d   1     -11.741   1.898  14.401 -0.13 -0.00    -0.021 A 
DOCKED: ATOM     23  C   UNL d   1     -11.340   3.104  13.813 -0.15 +0.01    +0.066 A 
DOCKED: ATOM     24  C   UNL d   1     -12.469  -0.407  13.527 -0.07 -0.00    +0.051 C 
DOCKED: ATOM     25  N   UNL d   1     -10.888   5.832  12.598 -0.14 -0.02    -0.248 N 
DOCKED: ATOM     26  N   UNL d   1     -11.135   6.093   9.766 -0.18 +0.00    -0.248 N 
DOCKED: ATOM     27  N   UNL d   1     -11.630   3.267   9.601 -0.08 +0.02    -0.248 N 
DOCKED: ATOM     28  N   UNL d   1     -11.381   3.008  12.462 -0.10 -0.00    -0.248 N 
DOCKED: ATOM     29 FE   UNL d   1     -11.258   4.549  11.114 -0.07 -0.00    +0.000 Fe
DOCKED: ENDROOT
DOCKED: BRANCH   6  30
DOCKED: ATOM     30  C   UNL d   1     -10.009   6.730  16.056 -0.13 +0.00    +0.052 C 
DOCKED: BRANCH  30  31
DOCKED: ATOM     31  C   UNL d   1     -11.251   7.111  16.854 -0.03 -0.00    +0.115 C 
DOCKED: BRANCH  31  32
DOCKED: ATOM     32  C   UNL d   1     -12.313   6.056  16.709 -0.02 +0.00    +0.139 C 
DOCKED: ATOM     33  O   UNL d   1     -13.328   6.278  16.063 +0.01 +0.01    -0.650 OA
DOCKED: BRANCH  32  34
DOCKED: ATOM     34  O   UNL d   1     -12.156   4.856  17.292 +0.02 -0.01    -0.776 OA
DOCKED: ATOM     35  H   UNL d   1     -11.353   4.683  17.803 +0.01 +0.00    +0.167 HD
DOCKED: ENDBRANCH  32  34
DOCKED: ENDBRANCH  31  32
DOCKED: ENDBRANCH  30  31
DOCKED: ENDBRANCH   6  30
DOCKED: BRANCH  22  36
DOCKED: ATOM     36  C   UNL d   1     -11.920   1.607  15.868 -0.07 +0.01    +0.052 C 
DOCKED: BRANCH  36  37
DOCKED: ATOM     37  C   UNL d   1     -10.719   0.831  16.388 -0.11 +0.04    +0.115 C 
DOCKED: BRANCH  37  38
DOCKED: ATOM     38  C   UNL d   1      -9.712   1.753  17.015 -0.14 +0.05    +0.139 C 
DOCKED: ATOM     39  O   UNL d   1      -8.577   1.369  17.255 -0.18 -0.46    -0.650 OA
DOCKED: BRANCH  38  40
DOCKED: ATOM     40  O   UNL d   1     -10.059   3.016  17.322 +0.06 -0.12    -0.776 OA
DOCKED: ATOM     41  H   UNL d   1     -10.958   3.317  17.130 +0.03 +0.02    +0.167 HD
DOCKED: ENDBRANCH  38  40
DOCKED: ENDBRANCH  37  38
DOCKED: ENDBRANCH  36  37
DOCKED: ENDBRANCH  22  36
DOCKED: BRANCH  12  42
DOCKED: ATOM     42  C   UNL d   1     -11.670   7.723   6.445 -0.26 -0.00    +0.004 C 
DOCKED: ATOM     43  C   UNL d   1     -10.824   8.524   5.786 -0.30 -0.00    +0.012 C 
DOCKED: ENDBRANCH  12  42
DOCKED: BRANCH  17  44
DOCKED: ATOM     44  C   UNL d   1     -11.897  -0.086   8.079 -0.28 -0.00    +0.004 C 
DOCKED: ATOM     45  C   UNL d   1     -13.060  -0.639   7.719 -0.17 -0.00    +0.012 C 
DOCKED: ENDBRANCH  17  44
DOCKED: TORSDOF 10
DOCKED: TER
DOCKED: ENDMDL
________________________________________________________________________________


	BEGINNING GENETIC ALGORITHM DOCKING 37 of 100
Run: 37 Seed: 843714281 1899470880 [ Run 37 of 100 GA/GALS ]
Beginning LAMARCKIAN GENETIC ALGORITHM (LGA), with a maximum of 25000000 energy evaluations.

Final-Value: -11.852


	FINAL GENETIC ALGORITHM DOCKED STATE
	_______________________________________________


Detailed state:  trans 10.196 -6.470 8.257 quatxyzw -0.559547 -0.397024 0.704925 0.179887 center -0.174 -0.001 -0.047 ntor 10 179.6515 166.7261 -115.9405 -131.1021 123.1499 -151.8795 113.9524 53.4771 -4.7303 165.3547
State:	 10.196  -6.470   8.257  -0.569 -0.404  0.717 159.274    179.65  166.73 -115.94 -131.10  123.15 -151.88  113.95   53.48   -4.73  165.35

DOCKED: MODEL       37
DOCKED: USER    Run = 37
DOCKED: USER    DPF = D:/Protein_go_brrr/autodock/final/mut_N102T/heme_Fe/dock.dpf
DOCKED: USER  
DOCKED: USER    Estimated Free Energy of Binding    =   -7.19 kcal/mol  [=(1)+(2)+(3)-(4)]
DOCKED: USER    Estimated Inhibition Constant, Ki   =    5.34 uM (micromolar)  [Temperature = 298.15 K]
DOCKED: USER    
DOCKED: USER    (1) Final Intermolecular Energy     =  -10.18 kcal/mol
DOCKED: USER        vdW + Hbond + desolv Energy     =   -8.05 kcal/mol
DOCKED: USER        Electrostatic Energy            =   -2.13 kcal/mol
DOCKED: USER    (2) Final Total Internal Energy     =   -1.68 kcal/mol
DOCKED: USER    (3) Torsional Free Energy           =   +2.98 kcal/mol
DOCKED: USER    (4) Unbound System's Energy  [=(2)] =   -1.68 kcal/mol
DOCKED: USER    
DOCKED: USER    
DOCKED: USER    NEWDPF move heme_Fe_opt.pdbqt
DOCKED: USER    NEWDPF about -0.174000 -0.001000 -0.047000
DOCKED: USER    NEWDPF tran0 10.195848 -6.469981 8.256509
DOCKED: USER    NEWDPF quaternion0 -0.559547 -0.397024 0.704925 0.179887
DOCKED: USER    NEWDPF axisangle0 -0.568826 -0.403608 0.716615 159.273688
DOCKED: USER    NEWDPF quat0 -0.568826 -0.403608 0.716615 159.273688
DOCKED: USER    NEWDPF dihe0 179.65 166.73 -115.94 -131.10 123.15 -151.88 113.95 53.48 -4.73 165.35 
DOCKED: USER  keepresnum = 1 
DOCKED: USER  
DOCKED: REMARK  10 active torsions:
DOCKED: REMARK  status: ('A' for Active; 'I' for Inactive)
DOCKED: REMARK    1  A    between atoms: C_6  and  C_10 
DOCKED: REMARK    2  A    between atoms: C_10  and  C_11 
DOCKED: REMARK    3  A    between atoms: C_11  and  C_12 
DOCKED: REMARK    4  A    between atoms: C_12  and  O_14 
DOCKED: REMARK    5  A    between atoms: C_17  and  C_20 
DOCKED: REMARK    6  A    between atoms: C_24  and  C_27 
DOCKED: REMARK    7  A    between atoms: C_31  and  C_34 
DOCKED: REMARK    8  A    between atoms: C_34  and  C_35 
DOCKED: REMARK    9  A    between atoms: C_35  and  C_36 
DOCKED: REMARK   10  A    between atoms: C_36  and  O_38 
DOCKED: USER                              x       y       z     vdW  Elec       q    Type
DOCKED: USER                           _______ _______ _______ _____ _____    ______ ____
DOCKED: ROOT
DOCKED: ATOM      1  C   UNL d   1      10.423  -7.216  10.155 -0.09 +0.05    +0.064 C 
DOCKED: ATOM      2  C   UNL d   1       7.099  -4.310   7.932 -0.34 +0.03    +0.064 A 
DOCKED: ATOM      3  C   UNL d   1       8.860  -5.669   3.675 -0.29 +0.01    +0.064 C 
DOCKED: ATOM      4  C   UNL d   1      12.154  -8.406   5.808 -0.10 +0.02    +0.064 C 
DOCKED: ATOM      5  C   UNL d   1       9.379  -6.208   9.926 -0.08 +0.06    +0.066 A 
DOCKED: ATOM      6  C   UNL d   1       8.722  -5.510  10.926 -0.22 -0.01    -0.021 A 
DOCKED: ATOM      7  C   UNL d   1       7.796  -4.706  10.308 -0.28 -0.01    -0.025 A 
DOCKED: ATOM      8  C   UNL d   1       7.924  -4.944   8.953 -0.31 +0.05    +0.066 A 
DOCKED: ATOM      9  C   UNL d   1       6.861  -3.753  10.987 -0.23 +0.01    +0.051 C 
DOCKED: ATOM     10  C   UNL d   1       7.241  -4.479   6.617 -0.39 +0.03    +0.066 A 
DOCKED: ATOM     11  C   UNL d   1       6.363  -3.949   5.668 -0.45 -0.00    -0.021 A 
DOCKED: ATOM     12  C   UNL d   1       6.839  -4.340   4.433 -0.49 +0.00    +0.000 A 
DOCKED: ATOM     13  C   UNL d   1       7.990  -5.104   4.695 -0.34 +0.02    +0.070 A 
DOCKED: ATOM     14  C   UNL d   1       5.093  -3.165   5.929 -0.37 +0.01    +0.052 C 
DOCKED: ATOM     15  C   UNL d   1       9.939  -6.448   3.922 -0.26 +0.02    +0.066 A 
DOCKED: ATOM     16  C   UNL d   1      10.803  -6.886   2.926 -0.21 +0.00    -0.021 A 
DOCKED: ATOM     17  C   UNL d   1      11.752  -7.678   3.538 -0.11 +0.00    +0.000 A 
DOCKED: ATOM     18  C   UNL d   1      11.442  -7.709   4.896 -0.12 +0.02    +0.070 A 
DOCKED: ATOM     19  C   UNL d   1      10.727  -6.593   1.451 -0.19 -0.02    +0.052 C 
DOCKED: ATOM     20  C   UNL d   1      11.894  -8.412   7.253 -0.11 +0.03    +0.066 A 
DOCKED: ATOM     21  C   UNL d   1      12.491  -9.278   8.179 -0.06 -0.01    -0.025 A 
DOCKED: ATOM     22  C   UNL d   1      11.993  -8.913   9.413 -0.08 -0.01    -0.021 A 
DOCKED: ATOM     23  C   UNL d   1      11.112  -7.848   9.191 -0.13 +0.05    +0.066 A 
DOCKED: ATOM     24  C   UNL d   1      13.476 -10.396   7.926 -0.02 +0.01    +0.051 C 
DOCKED: ATOM     25  N   UNL d   1       8.895  -5.851   8.724 -0.16 -0.28    -0.248 N 
DOCKED: ATOM     26  N   UNL d   1       8.230  -5.196   6.026 -0.21 -0.14    -0.248 N 
DOCKED: ATOM     27  N   UNL d   1      10.354  -6.918   5.139 -0.13 -0.12    -0.248 N 
DOCKED: ATOM     28  N   UNL d   1      11.021  -7.577   7.867 -0.11 -0.25    -0.248 N 
DOCKED: ATOM     29 FE   UNL d   1       9.627  -6.388   6.945 -0.06 +0.00    +0.000 Fe
DOCKED: ENDROOT
DOCKED: BRANCH   6  30
DOCKED: ATOM     30  C   UNL d   1       8.973  -5.585  12.393 -0.19 +0.02    +0.052 C 
DOCKED: BRANCH  30  31
DOCKED: ATOM     31  C   UNL d   1      10.112  -4.655  12.794 -0.06 +0.05    +0.115 C 
DOCKED: BRANCH  31  32
DOCKED: ATOM     32  C   UNL d   1      11.409  -5.122  12.194 -0.06 +0.08    +0.139 C 
DOCKED: ATOM     33  O   UNL d   1      12.067  -4.380  11.478 -0.00 -0.59    -0.650 OA
DOCKED: BRANCH  32  34
DOCKED: ATOM     34  O   UNL d   1      11.858  -6.365  12.440 +0.03 -0.35    -0.776 OA
DOCKED: ATOM     35  H   UNL d   1      11.337  -6.947  13.010 +0.02 +0.06    +0.167 HD
DOCKED: ENDBRANCH  32  34
DOCKED: ENDBRANCH  31  32
DOCKED: ENDBRANCH  30  31
DOCKED: ENDBRANCH   6  30
DOCKED: BRANCH  22  36
DOCKED: ATOM     36  C   UNL d   1      12.311  -9.584  10.723 -0.06 +0.02    +0.052 C 
DOCKED: BRANCH  36  37
DOCKED: ATOM     37  C   UNL d   1      11.209 -10.572  11.075 -0.12 +0.05    +0.115 C 
DOCKED: BRANCH  37  38
DOCKED: ATOM     38  C   UNL d   1      10.683 -10.322  12.460 -0.15 +0.08    +0.139 C 
DOCKED: ATOM     39  O   UNL d   1      10.206 -11.232  13.122 -0.41 -0.83    -0.650 OA
DOCKED: BRANCH  38  40
DOCKED: ATOM     40  O   UNL d   1      10.731  -9.084  12.983 +0.02 -0.34    -0.776 OA
DOCKED: ATOM     41  H   UNL d   1      11.275  -8.411  12.550 +0.03 +0.06    +0.167 HD
DOCKED: ENDBRANCH  38  40
DOCKED: ENDBRANCH  37  38
DOCKED: ENDBRANCH  36  37
DOCKED: ENDBRANCH  22  36
DOCKED: BRANCH  12  42
DOCKED: ATOM     42  C   UNL d   1       6.200  -4.004   3.123 -0.47 +0.00    +0.004 C 
DOCKED: ATOM     43  C   UNL d   1       5.013  -4.522   2.782 -0.55 +0.00    +0.012 C 
DOCKED: ENDBRANCH  12  42
DOCKED: BRANCH  17  44
DOCKED: ATOM     44  C   UNL d   1      12.892  -8.345   2.871 -0.06 -0.00    +0.004 C 
DOCKED: ATOM     45  C   UNL d   1      12.710  -9.461   2.157 -0.06 -0.00    +0.012 C 
DOCKED: ENDBRANCH  17  44
DOCKED: TORSDOF 10
DOCKED: TER
DOCKED: ENDMDL
________________________________________________________________________________


	BEGINNING GENETIC ALGORITHM DOCKING 38 of 100
Run: 38 Seed: 1713501803 1764543273 [ Run 38 of 100 GA/GALS ]
Beginning LAMARCKIAN GENETIC ALGORITHM (LGA), with a maximum of 25000000 energy evaluations.

Final-Value: -11.133


	FINAL GENETIC ALGORITHM DOCKED STATE
	_______________________________________________


Detailed state:  trans -9.467 -11.413 -9.862 quatxyzw -0.295700 -0.706811 -0.210975 0.607017 center -0.174 -0.001 -0.047 ntor 10 -59.5121 -99.0101 -121.5894 178.4987 106.3229 -152.7587 -78.7020 24.9969 179.5217 179.9486
State:	 -9.467 -11.413  -9.862  -0.372 -0.889 -0.265 105.252    -59.51  -99.01 -121.59  178.50  106.32 -152.76  -78.70   25.00  179.52  179.95

DOCKED: MODEL       38
DOCKED: USER    Run = 38
DOCKED: USER    DPF = D:/Protein_go_brrr/autodock/final/mut_N102T/heme_Fe/dock.dpf
DOCKED: USER  
DOCKED: USER    Estimated Free Energy of Binding    =   -6.14 kcal/mol  [=(1)+(2)+(3)-(4)]
DOCKED: USER    Estimated Inhibition Constant, Ki   =   31.82 uM (micromolar)  [Temperature = 298.15 K]
DOCKED: USER    
DOCKED: USER    (1) Final Intermolecular Energy     =   -9.12 kcal/mol
DOCKED: USER        vdW + Hbond + desolv Energy     =   -5.80 kcal/mol
DOCKED: USER        Electrostatic Energy            =   -3.32 kcal/mol
DOCKED: USER    (2) Final Total Internal Energy     =   -2.01 kcal/mol
DOCKED: USER    (3) Torsional Free Energy           =   +2.98 kcal/mol
DOCKED: USER    (4) Unbound System's Energy  [=(2)] =   -2.01 kcal/mol
DOCKED: USER    
DOCKED: USER    
DOCKED: USER    NEWDPF move heme_Fe_opt.pdbqt
DOCKED: USER    NEWDPF about -0.174000 -0.001000 -0.047000
DOCKED: USER    NEWDPF tran0 -9.466509 -11.413457 -9.862164
DOCKED: USER    NEWDPF quaternion0 -0.295700 -0.706811 -0.210975 0.607017
DOCKED: USER    NEWDPF axisangle0 -0.372096 -0.889418 -0.265482 105.251774
DOCKED: USER    NEWDPF quat0 -0.372096 -0.889418 -0.265482 105.251774
DOCKED: USER    NEWDPF dihe0 -59.51 -99.01 -121.59 178.50 106.32 -152.76 -78.70 25.00 179.52 179.95 
DOCKED: USER  keepresnum = 1 
DOCKED: USER  
DOCKED: REMARK  10 active torsions:
DOCKED: REMARK  status: ('A' for Active; 'I' for Inactive)
DOCKED: REMARK    1  A    between atoms: C_6  and  C_10 
DOCKED: REMARK    2  A    between atoms: C_10  and  C_11 
DOCKED: REMARK    3  A    between atoms: C_11  and  C_12 
DOCKED: REMARK    4  A    between atoms: C_12  and  O_14 
DOCKED: REMARK    5  A    between atoms: C_17  and  C_20 
DOCKED: REMARK    6  A    between atoms: C_24  and  C_27 
DOCKED: REMARK    7  A    between atoms: C_31  and  C_34 
DOCKED: REMARK    8  A    between atoms: C_34  and  C_35 
DOCKED: REMARK    9  A    between atoms: C_35  and  C_36 
DOCKED: REMARK   10  A    between atoms: C_36  and  O_38 
DOCKED: USER                              x       y       z     vdW  Elec       q    Type
DOCKED: USER                           _______ _______ _______ _____ _____    ______ ____
DOCKED: ROOT
DOCKED: ATOM      1  C   UNL d   1      -8.778 -12.825  -8.541 -0.11 +0.02    +0.064 C 
DOCKED: ATOM      2  C   UNL d   1      -9.829 -12.798 -13.370 -0.11 +0.01    +0.064 A 
DOCKED: ATOM      3  C   UNL d   1      -9.873  -7.997 -13.264 -0.10 +0.03    +0.064 C 
DOCKED: ATOM      4  C   UNL d   1      -8.960  -8.001  -8.568 -0.18 +0.01    +0.064 C 
DOCKED: ATOM      5  C   UNL d   1      -9.153 -13.264  -9.892 -0.11 +0.02    +0.066 A 
DOCKED: ATOM      6  C   UNL d   1      -9.350 -14.582 -10.269 -0.11 -0.01    -0.021 A 
DOCKED: ATOM      7  C   UNL d   1      -9.638 -14.574 -11.611 -0.07 -0.00    -0.025 A 
DOCKED: ATOM      8  C   UNL d   1      -9.606 -13.250 -12.003 -0.06 +0.01    +0.066 A 
DOCKED: ATOM      9  C   UNL d   1      -9.944 -15.773 -12.456 -0.11 +0.01    +0.051 C 
DOCKED: ATOM     10  C   UNL d   1      -9.861 -11.524 -13.763 -0.10 +0.01    +0.066 A 
DOCKED: ATOM     11  C   UNL d   1      -9.963 -11.127 -15.099 -0.08 -0.00    -0.021 A 
DOCKED: ATOM     12  C   UNL d   1      -9.961  -9.746 -15.097 -0.11 +0.00    +0.000 A 
DOCKED: ATOM     13  C   UNL d   1      -9.848  -9.369 -13.747 -0.12 +0.02    +0.070 A 
DOCKED: ATOM     14  C   UNL d   1      -9.992 -12.019 -16.323 -0.06 +0.01    +0.052 C 
DOCKED: ATOM     15  C   UNL d   1      -9.713  -7.626 -11.972 -0.13 +0.02    +0.066 A 
DOCKED: ATOM     16  C   UNL d   1      -9.843  -6.313 -11.538 -0.13 -0.01    -0.021 A 
DOCKED: ATOM     17  C   UNL d   1      -9.576  -6.312 -10.184 -0.19 +0.00    +0.000 A 
DOCKED: ATOM     18  C   UNL d   1      -9.286  -7.626  -9.825 -0.15 +0.01    +0.070 A 
DOCKED: ATOM     19  C   UNL d   1     -10.179  -5.102 -12.365 -0.15 +0.02    +0.052 C 
DOCKED: ATOM     20  C   UNL d   1      -8.709  -9.383  -8.141 -0.10 +0.01    +0.066 A 
DOCKED: ATOM     21  C   UNL d   1      -8.179  -9.762  -6.900 -0.18 -0.01    -0.025 A 
DOCKED: ATOM     22  C   UNL d   1      -8.147 -11.141  -6.908 -0.14 -0.01    -0.021 A 
DOCKED: ATOM     23  C   UNL d   1      -8.651 -11.547  -8.150 -0.09 +0.02    +0.066 A 
DOCKED: ATOM     24  C   UNL d   1      -7.719  -8.882  -5.761 -0.22 +0.01    +0.051 C 
DOCKED: ATOM     25  N   UNL d   1      -9.320 -12.454 -10.952 -0.08 -0.05    -0.248 N 
DOCKED: ATOM     26  N   UNL d   1      -9.778 -10.452 -12.935 -0.06 -0.06    -0.248 N 
DOCKED: ATOM     27  N   UNL d   1      -9.412  -8.442 -10.914 -0.08 -0.06    -0.248 N 
DOCKED: ATOM     28  N   UNL d   1      -8.949 -10.468  -8.915 -0.03 -0.05    -0.248 N 
DOCKED: ATOM     29 FE   UNL d   1      -9.363 -10.459 -10.924 -0.03 +0.00    +0.000 Fe
DOCKED: ENDROOT
DOCKED: BRANCH   6  30
DOCKED: ATOM     30  C   UNL d   1      -9.289 -15.788  -9.396 -0.09 +0.02    +0.052 C 
DOCKED: BRANCH  30  31
DOCKED: ATOM     31  C   UNL d   1      -7.881 -16.373  -9.379 -0.17 +0.07    +0.115 C 
DOCKED: BRANCH  31  32
DOCKED: ATOM     32  C   UNL d   1      -7.161 -15.976  -8.121 -0.08 +0.18    +0.139 C 
DOCKED: ATOM     33  O   UNL d   1      -6.974 -16.789  -7.226 -0.20 -0.82    -0.650 OA
DOCKED: BRANCH  32  34
DOCKED: ATOM     34  O   UNL d   1      -6.714 -14.718  -7.968 -0.21 -1.49    -0.776 OA
DOCKED: ATOM     35  H   UNL d   1      -7.038 -14.192  -7.223 -0.01 +0.23    +0.167 HD
DOCKED: ENDBRANCH  32  34
DOCKED: ENDBRANCH  31  32
DOCKED: ENDBRANCH  30  31
DOCKED: ENDBRANCH   6  30
DOCKED: BRANCH  22  36
DOCKED: ATOM     36  C   UNL d   1      -7.617 -12.017  -5.803 -0.16 +0.03    +0.052 C 
DOCKED: BRANCH  36  37
DOCKED: ATOM     37  C   UNL d   1      -6.105 -12.137  -5.925 -0.31 +0.11    +0.115 C 
DOCKED: BRANCH  37  38
DOCKED: ATOM     38  C   UNL d   1      -5.611 -13.395  -5.269 -0.07 +0.22    +0.139 C 
DOCKED: ATOM     39  O   UNL d   1      -4.476 -13.461  -4.818 -0.44 -1.07    -0.650 OA
DOCKED: BRANCH  38  40
DOCKED: ATOM     40  O   UNL d   1      -6.419 -14.466  -5.176 +0.06 -1.09    -0.776 OA
DOCKED: ATOM     41  H   UNL d   1      -6.521 -15.046  -5.944 +0.04 +0.30    +0.167 HD
DOCKED: ENDBRANCH  38  40
DOCKED: ENDBRANCH  37  38
DOCKED: ENDBRANCH  36  37
DOCKED: ENDBRANCH  22  36
DOCKED: BRANCH  12  42
DOCKED: ATOM     42  C   UNL d   1     -10.043  -8.888 -16.319 -0.11 +0.00    +0.004 C 
DOCKED: ATOM     43  C   UNL d   1      -8.994  -8.758 -17.141 -0.16 +0.01    +0.012 C 
DOCKED: ENDBRANCH  12  42
DOCKED: BRANCH  17  44
DOCKED: ATOM     44  C   UNL d   1      -9.618  -5.133  -9.289 -0.29 +0.00    +0.004 C 
DOCKED: ATOM     45  C   UNL d   1      -8.578  -4.832  -8.505 -0.37 +0.00    +0.012 C 
DOCKED: ENDBRANCH  17  44
DOCKED: TORSDOF 10
DOCKED: TER
DOCKED: ENDMDL
________________________________________________________________________________


	BEGINNING GENETIC ALGORITHM DOCKING 39 of 100
Run: 39 Seed: 1386725372 640459632 [ Run 39 of 100 GA/GALS ]
Beginning LAMARCKIAN GENETIC ALGORITHM (LGA), with a maximum of 25000000 energy evaluations.

Final-Value: -12.290


	FINAL GENETIC ALGORITHM DOCKED STATE
	_______________________________________________


Detailed state:  trans -8.638 -13.151 -9.443 quatxyzw 0.000630 0.766554 -0.154893 -0.623220 center -0.174 -0.001 -0.047 ntor 10 175.8136 -12.0754 -163.7830 35.3957 95.3333 170.3473 -16.4981 69.6735 162.8660 158.2188
State:	 -8.638 -13.151  -9.443   0.001  0.980 -0.198 -102.897    175.81  -12.08 -163.78   35.40   95.33  170.35  -16.50   69.67  162.87  158.22

DOCKED: MODEL       39
DOCKED: USER    Run = 39
DOCKED: USER    DPF = D:/Protein_go_brrr/autodock/final/mut_N102T/heme_Fe/dock.dpf
DOCKED: USER  
DOCKED: USER    Estimated Free Energy of Binding    =   -7.11 kcal/mol  [=(1)+(2)+(3)-(4)]
DOCKED: USER    Estimated Inhibition Constant, Ki   =    6.18 uM (micromolar)  [Temperature = 298.15 K]
DOCKED: USER    
DOCKED: USER    (1) Final Intermolecular Energy     =  -10.09 kcal/mol
DOCKED: USER        vdW + Hbond + desolv Energy     =   -6.93 kcal/mol
DOCKED: USER        Electrostatic Energy            =   -3.16 kcal/mol
DOCKED: USER    (2) Final Total Internal Energy     =   -2.20 kcal/mol
DOCKED: USER    (3) Torsional Free Energy           =   +2.98 kcal/mol
DOCKED: USER    (4) Unbound System's Energy  [=(2)] =   -2.20 kcal/mol
DOCKED: USER    
DOCKED: USER    
DOCKED: USER    NEWDPF move heme_Fe_opt.pdbqt
DOCKED: USER    NEWDPF about -0.174000 -0.001000 -0.047000
DOCKED: USER    NEWDPF tran0 -8.638374 -13.150741 -9.443004
DOCKED: USER    NEWDPF quaternion0 0.000630 0.766554 -0.154893 -0.623220
DOCKED: USER    NEWDPF axisangle0 0.000805 0.980189 -0.198061 -102.896654
DOCKED: USER    NEWDPF quat0 0.000805 0.980189 -0.198061 -102.896654
DOCKED: USER    NEWDPF dihe0 175.81 -12.08 -163.78 35.40 95.33 170.35 -16.50 69.67 162.87 158.22 
DOCKED: USER  keepresnum = 1 
DOCKED: USER  
DOCKED: REMARK  10 active torsions:
DOCKED: REMARK  status: ('A' for Active; 'I' for Inactive)
DOCKED: REMARK    1  A    between atoms: C_6  and  C_10 
DOCKED: REMARK    2  A    between atoms: C_10  and  C_11 
DOCKED: REMARK    3  A    between atoms: C_11  and  C_12 
DOCKED: REMARK    4  A    between atoms: C_12  and  O_14 
DOCKED: REMARK    5  A    between atoms: C_17  and  C_20 
DOCKED: REMARK    6  A    between atoms: C_24  and  C_27 
DOCKED: REMARK    7  A    between atoms: C_31  and  C_34 
DOCKED: REMARK    8  A    between atoms: C_34  and  C_35 
DOCKED: REMARK    9  A    between atoms: C_35  and  C_36 
DOCKED: REMARK   10  A    between atoms: C_36  and  O_38 
DOCKED: USER                              x       y       z     vdW  Elec       q    Type
DOCKED: USER                           _______ _______ _______ _____ _____    ______ ____
DOCKED: ROOT
DOCKED: ATOM      1  C   UNL d   1      -7.699 -12.953  -7.629 -0.17 +0.04    +0.064 C 
DOCKED: ATOM      2  C   UNL d   1      -9.345 -16.774 -10.298 -0.08 +0.02    +0.064 A 
DOCKED: ATOM      3  C   UNL d   1      -9.690 -13.873 -14.110 -0.13 +0.01    +0.064 C 
DOCKED: ATOM      4  C   UNL d   1      -8.200 -10.139 -11.519 -0.31 +0.02    +0.064 C 
DOCKED: ATOM      5  C   UNL d   1      -8.210 -14.279  -8.005 -0.13 +0.04    +0.066 A 
DOCKED: ATOM      6  C   UNL d   1      -8.366 -15.343  -7.132 -0.08 -0.01    -0.021 A 
DOCKED: ATOM      7  C   UNL d   1      -8.819 -16.405  -7.875 -0.05 -0.01    -0.025 A 
DOCKED: ATOM      8  C   UNL d   1      -8.923 -15.947  -9.174 -0.09 +0.03    +0.066 A 
DOCKED: ATOM      9  C   UNL d   1      -9.149 -17.770  -7.354 -0.01 +0.02    +0.051 C 
DOCKED: ATOM     10  C   UNL d   1      -9.509 -16.343 -11.550 -0.09 +0.01    +0.066 A 
DOCKED: ATOM     11  C   UNL d   1      -9.803 -17.183 -12.627 -0.08 -0.00    -0.021 A 
DOCKED: ATOM     12  C   UNL d   1      -9.891 -16.373 -13.741 -0.10 +0.00    +0.000 A 
DOCKED: ATOM     13  C   UNL d   1      -9.636 -15.068 -13.283 -0.08 +0.01    +0.070 A 
DOCKED: ATOM     14  C   UNL d   1      -9.926 -18.693 -12.607 -0.03 +0.00    +0.052 C 
DOCKED: ATOM     15  C   UNL d   1      -9.395 -12.622 -13.686 -0.12 +0.01    +0.066 A 
DOCKED: ATOM     16  C   UNL d   1      -9.555 -11.494 -14.480 -0.13 -0.00    -0.021 A 
DOCKED: ATOM     17  C   UNL d   1      -9.122 -10.416 -13.736 -0.20 +0.00    +0.000 A 
DOCKED: ATOM     18  C   UNL d   1      -8.704 -10.913 -12.504 -0.21 +0.02    +0.070 A 
DOCKED: ATOM     19  C   UNL d   1     -10.071 -11.431 -15.893 -0.07 +0.01    +0.052 C 
DOCKED: ATOM     20  C   UNL d   1      -7.806 -10.618 -10.188 -0.25 +0.02    +0.066 A 
DOCKED: ATOM     21  C   UNL d   1      -7.102  -9.871  -9.234 -0.34 -0.01    -0.025 A 
DOCKED: ATOM     22  C   UNL d   1      -6.981 -10.688  -8.129 -0.29 -0.01    -0.021 A 
DOCKED: ATOM     23  C   UNL d   1      -7.608 -11.897  -8.453 -0.16 +0.02    +0.066 A 
DOCKED: ATOM     24  C   UNL d   1      -6.562  -8.464  -9.347 -0.44 +0.01    +0.051 C 
DOCKED: ATOM     25  N   UNL d   1      -8.561 -14.651  -9.248 -0.11 -0.11    -0.248 N 
DOCKED: ATOM     26  N   UNL d   1      -9.394 -15.051 -11.950 -0.07 -0.04    -0.248 N 
DOCKED: ATOM     27  N   UNL d   1      -8.911 -12.263 -12.456 -0.07 -0.06    -0.248 N 
DOCKED: ATOM     28  N   UNL d   1      -8.070 -11.864  -9.727 -0.13 -0.07    -0.248 N 
DOCKED: ATOM     29 FE   UNL d   1      -8.732 -13.456 -10.839 -0.04 +0.00    +0.000 Fe
DOCKED: ENDROOT
DOCKED: BRANCH   6  30
DOCKED: ATOM     30  C   UNL d   1      -8.117 -15.348  -5.663 -0.06 +0.04    +0.052 C 
DOCKED: BRANCH  30  31
DOCKED: ATOM     31  C   UNL d   1      -6.857 -16.139  -5.330 -0.11 +0.14    +0.115 C 
DOCKED: BRANCH  31  32
DOCKED: ATOM     32  C   UNL d   1      -6.386 -15.819  -3.939 -0.11 +0.19    +0.139 C 
DOCKED: ATOM     33  O   UNL d   1      -6.707 -16.526  -2.994 -0.28 -1.12    -0.650 OA
DOCKED: BRANCH  32  34
DOCKED: ATOM     34  O   UNL d   1      -5.606 -14.748  -3.721 +0.07 -1.03    -0.776 OA
DOCKED: ATOM     35  H   UNL d   1      -5.303 -14.225  -4.477 +0.07 +0.26    +0.167 HD
DOCKED: ENDBRANCH  32  34
DOCKED: ENDBRANCH  31  32
DOCKED: ENDBRANCH  30  31
DOCKED: ENDBRANCH   6  30
DOCKED: BRANCH  22  36
DOCKED: ATOM     36  C   UNL d   1      -6.261 -10.341  -6.853 -0.43 +0.02    +0.052 C 
DOCKED: BRANCH  36  37
DOCKED: ATOM     37  C   UNL d   1      -4.929 -11.074  -6.800 -0.28 +0.08    +0.115 C 
DOCKED: BRANCH  37  38
DOCKED: ATOM     38  C   UNL d   1      -4.937 -12.131  -5.731 -0.37 +0.16    +0.139 C 
DOCKED: ATOM     39  O   UNL d   1      -4.028 -12.943  -5.648 -0.54 -1.31    -0.650 OA
DOCKED: BRANCH  38  40
DOCKED: ATOM     40  O   UNL d   1      -5.955 -12.190  -4.855 -0.45 -0.74    -0.776 OA
DOCKED: ATOM     41  H   UNL d   1      -6.045 -12.972  -4.291 +0.07 +0.16    +0.167 HD
DOCKED: ENDBRANCH  38  40
DOCKED: ENDBRANCH  37  38
DOCKED: ENDBRANCH  36  37
DOCKED: ENDBRANCH  22  36
DOCKED: BRANCH  12  42
DOCKED: ATOM     42  C   UNL d   1     -10.181 -16.852 -15.128 -0.05 +0.00    +0.004 C 
DOCKED: ATOM     43  C   UNL d   1      -9.275 -16.725 -16.105 -0.07 +0.00    +0.012 C 
DOCKED: ENDBRANCH  12  42
DOCKED: BRANCH  17  44
DOCKED: ATOM     44  C   UNL d   1      -9.129  -9.000 -14.167 -0.21 +0.00    +0.004 C 
DOCKED: ATOM     45  C   UNL d   1     -10.195  -8.223 -13.951 -0.12 +0.01    +0.012 C 
DOCKED: ENDBRANCH  17  44
DOCKED: TORSDOF 10
DOCKED: TER
DOCKED: ENDMDL
________________________________________________________________________________


	BEGINNING GENETIC ALGORITHM DOCKING 40 of 100
Run: 40 Seed: 1927855996 1637582111 [ Run 40 of 100 GA/GALS ]
Beginning LAMARCKIAN GENETIC ALGORITHM (LGA), with a maximum of 25000000 energy evaluations.

Final-Value: -10.877


	FINAL GENETIC ALGORITHM DOCKED STATE
	_______________________________________________


Detailed state:  trans 3.829 15.219 -12.857 quatxyzw 0.530949 -0.332541 -0.091782 -0.774006 center -0.174 -0.001 -0.047 ntor 10 137.8457 -127.2464 161.9587 -165.9838 45.4687 52.0884 20.6296 -87.8616 26.2528 179.3951
State:	  3.829  15.219 -12.857   0.839 -0.525 -0.145 -78.570    137.85 -127.25  161.96 -165.98   45.47   52.09   20.63  -87.86   26.25  179.40

DOCKED: MODEL       40
DOCKED: USER    Run = 40
DOCKED: USER    DPF = D:/Protein_go_brrr/autodock/final/mut_N102T/heme_Fe/dock.dpf
DOCKED: USER  
DOCKED: USER    Estimated Free Energy of Binding    =   -7.31 kcal/mol  [=(1)+(2)+(3)-(4)]
DOCKED: USER    Estimated Inhibition Constant, Ki   =    4.41 uM (micromolar)  [Temperature = 298.15 K]
DOCKED: USER    
DOCKED: USER    (1) Final Intermolecular Energy     =  -10.29 kcal/mol
DOCKED: USER        vdW + Hbond + desolv Energy     =   -9.30 kcal/mol
DOCKED: USER        Electrostatic Energy            =   -0.99 kcal/mol
DOCKED: USER    (2) Final Total Internal Energy     =   -0.59 kcal/mol
DOCKED: USER    (3) Torsional Free Energy           =   +2.98 kcal/mol
DOCKED: USER    (4) Unbound System's Energy  [=(2)] =   -0.59 kcal/mol
DOCKED: USER    
DOCKED: USER    
DOCKED: USER    NEWDPF move heme_Fe_opt.pdbqt
DOCKED: USER    NEWDPF about -0.174000 -0.001000 -0.047000
DOCKED: USER    NEWDPF tran0 3.828599 15.219403 -12.857037
DOCKED: USER    NEWDPF quaternion0 0.530949 -0.332541 -0.091782 -0.774006
DOCKED: USER    NEWDPF axisangle0 0.838546 -0.525194 -0.144955 -78.569934
DOCKED: USER    NEWDPF quat0 0.838546 -0.525194 -0.144955 -78.569934
DOCKED: USER    NEWDPF dihe0 137.85 -127.25 161.96 -165.98 45.47 52.09 20.63 -87.86 26.25 179.40 
DOCKED: USER  keepresnum = 1 
DOCKED: USER  
DOCKED: REMARK  10 active torsions:
DOCKED: REMARK  status: ('A' for Active; 'I' for Inactive)
DOCKED: REMARK    1  A    between atoms: C_6  and  C_10 
DOCKED: REMARK    2  A    between atoms: C_10  and  C_11 
DOCKED: REMARK    3  A    between atoms: C_11  and  C_12 
DOCKED: REMARK    4  A    between atoms: C_12  and  O_14 
DOCKED: REMARK    5  A    between atoms: C_17  and  C_20 
DOCKED: REMARK    6  A    between atoms: C_24  and  C_27 
DOCKED: REMARK    7  A    between atoms: C_31  and  C_34 
DOCKED: REMARK    8  A    between atoms: C_34  and  C_35 
DOCKED: REMARK    9  A    between atoms: C_35  and  C_36 
DOCKED: REMARK   10  A    between atoms: C_36  and  O_38 
DOCKED: USER                              x       y       z     vdW  Elec       q    Type
DOCKED: USER                           _______ _______ _______ _____ _____    ______ ____
DOCKED: ROOT
DOCKED: ATOM      1  C   UNL d   1       2.006  15.771 -13.621 -0.25 -0.01    +0.064 C 
DOCKED: ATOM      2  C   UNL d   1       5.609  12.716 -15.075 -0.25 -0.05    +0.064 A 
DOCKED: ATOM      3  C   UNL d   1       7.476  12.926 -10.655 -0.24 -0.02    +0.064 C 
DOCKED: ATOM      4  C   UNL d   1       4.058  15.967  -9.257 -0.27 -0.02    +0.064 C 
DOCKED: ATOM      5  C   UNL d   1       2.894  14.958 -14.464 -0.25 -0.01    +0.066 A 
DOCKED: ATOM      6  C   UNL d   1       2.734  14.765 -15.826 -0.29 +0.00    -0.021 A 
DOCKED: ATOM      7  C   UNL d   1       3.733  13.913 -16.228 -0.29 +0.01    -0.025 A 
DOCKED: ATOM      8  C   UNL d   1       4.465  13.619 -15.094 -0.28 -0.03    +0.066 A 
DOCKED: ATOM      9  C   UNL d   1       3.973  13.431 -17.626 -0.24 -0.03    +0.051 C 
DOCKED: ATOM     10  C   UNL d   1       6.367  12.460 -14.008 -0.27 -0.03    +0.066 A 
DOCKED: ATOM     11  C   UNL d   1       7.385  11.503 -13.992 -0.26 +0.01    -0.021 A 
DOCKED: ATOM     12  C   UNL d   1       7.929  11.532 -12.723 -0.25 -0.00    +0.000 A 
DOCKED: ATOM     13  C   UNL d   1       7.201  12.509 -12.021 -0.22 -0.03    +0.070 A 
DOCKED: ATOM     14  C   UNL d   1       7.776  10.558 -15.110 -0.34 -0.02    +0.052 C 
DOCKED: ATOM     15  C   UNL d   1       6.747  13.829  -9.958 -0.21 -0.03    +0.066 A 
DOCKED: ATOM     16  C   UNL d   1       7.100  14.274  -8.690 -0.21 +0.01    -0.021 A 
DOCKED: ATOM     17  C   UNL d   1       6.114  15.149  -8.284 -0.23 -0.00    +0.000 A 
DOCKED: ATOM     18  C   UNL d   1       5.178  15.213  -9.313 -0.24 -0.03    +0.070 A 
DOCKED: ATOM     19  C   UNL d   1       8.305  13.876  -7.880 -0.21 -0.05    +0.052 C 
DOCKED: ATOM     20  C   UNL d   1       3.082  16.107 -10.344 -0.21 -0.02    +0.066 A 
DOCKED: ATOM     21  C   UNL d   1       1.825  16.719 -10.230 -0.18 +0.01    -0.025 A 
DOCKED: ATOM     22  C   UNL d   1       1.263  16.664 -11.489 -0.17 +0.00    -0.021 A 
DOCKED: ATOM     23  C   UNL d   1       2.191  16.018 -12.315 -0.21 -0.01    +0.066 A 
DOCKED: ATOM     24  C   UNL d   1       1.178  17.324  -9.006 -0.14 -0.01    +0.051 C 
DOCKED: ATOM     25  N   UNL d   1       3.958  14.263 -14.024 -0.19 +0.09    -0.248 N 
DOCKED: ATOM     26  N   UNL d   1       6.244  13.068 -12.801 -0.09 +0.12    -0.248 N 
DOCKED: ATOM     27  N   UNL d   1       5.587  14.436 -10.360 +0.06 +0.12    -0.248 N 
DOCKED: ATOM     28  N   UNL d   1       3.279  15.641 -11.601 -0.16 +0.09    -0.248 N 
DOCKED: ATOM     29 FE   UNL d   1       4.761  14.355 -12.199 -0.06 -0.00    +0.000 Fe
DOCKED: ENDROOT
DOCKED: BRANCH   6  30
DOCKED: ATOM     30  C   UNL d   1       1.698  15.374 -16.707 -0.29 +0.01    +0.052 C 
DOCKED: BRANCH  30  31
DOCKED: ATOM     31  C   UNL d   1       2.340  16.292 -17.741 -0.15 +0.03    +0.115 C 
DOCKED: BRANCH  31  32
DOCKED: ATOM     32  C   UNL d   1       1.330  17.267 -18.279 -0.11 +0.09    +0.139 C 
DOCKED: ATOM     33  O   UNL d   1       0.573  17.861 -17.523 -0.04 -0.44    -0.650 OA
DOCKED: BRANCH  32  34
DOCKED: ATOM     34  O   UNL d   1       1.250  17.496 -19.600 -0.25 -0.83    -0.776 OA
DOCKED: ATOM     35  H   UNL d   1       2.067  17.588 -20.111 +0.01 +0.11    +0.167 HD
DOCKED: ENDBRANCH  32  34
DOCKED: ENDBRANCH  31  32
DOCKED: ENDBRANCH  30  31
DOCKED: ENDBRANCH   6  30
DOCKED: BRANCH  22  36
DOCKED: ATOM     36  C   UNL d   1      -0.109  17.160 -11.862 -0.12 -0.00    +0.052 C 
DOCKED: BRANCH  36  37
DOCKED: ATOM     37  C   UNL d   1      -1.146  16.096 -11.534 -0.20 -0.01    +0.115 C 
DOCKED: BRANCH  37  38
DOCKED: ATOM     38  C   UNL d   1      -1.689  16.283 -10.146 -0.21 -0.01    +0.139 C 
DOCKED: ATOM     39  O   UNL d   1      -2.129  17.366  -9.787 +0.01 +0.02    -0.650 OA
DOCKED: BRANCH  38  40
DOCKED: ATOM     40  O   UNL d   1      -1.691  15.253  -9.281 -0.22 +0.05    -0.776 OA
DOCKED: ATOM     41  H   UNL d   1      -0.867  14.771  -9.123 -0.44 -0.04    +0.167 HD
DOCKED: ENDBRANCH  38  40
DOCKED: ENDBRANCH  37  38
DOCKED: ENDBRANCH  36  37
DOCKED: ENDBRANCH  22  36
DOCKED: BRANCH  12  42
DOCKED: ATOM     42  C   UNL d   1       9.048  10.660 -12.251 -0.31 -0.00    +0.004 C 
DOCKED: ATOM     43  C   UNL d   1       9.143  10.297 -10.965 -0.36 -0.00    +0.012 C 
DOCKED: ENDBRANCH  12  42
DOCKED: BRANCH  17  44
DOCKED: ATOM     44  C   UNL d   1       6.080  15.890  -7.003 -0.20 -0.00    +0.004 C 
DOCKED: ATOM     45  C   UNL d   1       5.161  15.610  -6.073 -0.29 -0.01    +0.012 C 
DOCKED: ENDBRANCH  17  44
DOCKED: TORSDOF 10
DOCKED: TER
DOCKED: ENDMDL
________________________________________________________________________________


	BEGINNING GENETIC ALGORITHM DOCKING 41 of 100
Run: 41 Seed: 1527817050 718361358 [ Run 41 of 100 GA/GALS ]
Beginning LAMARCKIAN GENETIC ALGORITHM (LGA), with a maximum of 25000000 energy evaluations.

Final-Value: -10.868


	FINAL GENETIC ALGORITHM DOCKED STATE
	_______________________________________________


Detailed state:  trans 10.463 17.498 10.484 quatxyzw -0.306029 0.837982 -0.264493 0.366301 center -0.174 -0.001 -0.047 ntor 10 98.7457 -78.0294 -107.0752 -96.0416 -82.9722 171.2245 -124.1751 76.1867 157.6099 172.7605
State:	 10.463  17.498  10.484  -0.329  0.901 -0.284 137.025     98.75  -78.03 -107.08  -96.04  -82.97  171.22 -124.18   76.19  157.61  172.76

DOCKED: MODEL       41
DOCKED: USER    Run = 41
DOCKED: USER    DPF = D:/Protein_go_brrr/autodock/final/mut_N102T/heme_Fe/dock.dpf
DOCKED: USER  
DOCKED: USER    Estimated Free Energy of Binding    =   -6.06 kcal/mol  [=(1)+(2)+(3)-(4)]
DOCKED: USER    Estimated Inhibition Constant, Ki   =   36.08 uM (micromolar)  [Temperature = 298.15 K]
DOCKED: USER    
DOCKED: USER    (1) Final Intermolecular Energy     =   -9.04 kcal/mol
DOCKED: USER        vdW + Hbond + desolv Energy     =   -6.01 kcal/mol
DOCKED: USER        Electrostatic Energy            =   -3.04 kcal/mol
DOCKED: USER    (2) Final Total Internal Energy     =   -1.82 kcal/mol
DOCKED: USER    (3) Torsional Free Energy           =   +2.98 kcal/mol
DOCKED: USER    (4) Unbound System's Energy  [=(2)] =   -1.82 kcal/mol
DOCKED: USER    
DOCKED: USER    
DOCKED: USER    NEWDPF move heme_Fe_opt.pdbqt
DOCKED: USER    NEWDPF about -0.174000 -0.001000 -0.047000
DOCKED: USER    NEWDPF tran0 10.463408 17.497896 10.483903
DOCKED: USER    NEWDPF quaternion0 -0.306029 0.837982 -0.264493 0.366301
DOCKED: USER    NEWDPF axisangle0 -0.328888 0.900575 -0.284249 137.024701
DOCKED: USER    NEWDPF quat0 -0.328888 0.900575 -0.284249 137.024701
DOCKED: USER    NEWDPF dihe0 98.75 -78.03 -107.08 -96.04 -82.97 171.22 -124.18 76.19 157.61 172.76 
DOCKED: USER  keepresnum = 1 
DOCKED: USER  
DOCKED: REMARK  10 active torsions:
DOCKED: REMARK  status: ('A' for Active; 'I' for Inactive)
DOCKED: REMARK    1  A    between atoms: C_6  and  C_10 
DOCKED: REMARK    2  A    between atoms: C_10  and  C_11 
DOCKED: REMARK    3  A    between atoms: C_11  and  C_12 
DOCKED: REMARK    4  A    between atoms: C_12  and  O_14 
DOCKED: REMARK    5  A    between atoms: C_17  and  C_20 
DOCKED: REMARK    6  A    between atoms: C_24  and  C_27 
DOCKED: REMARK    7  A    between atoms: C_31  and  C_34 
DOCKED: REMARK    8  A    between atoms: C_34  and  C_35 
DOCKED: REMARK    9  A    between atoms: C_35  and  C_36 
DOCKED: REMARK   10  A    between atoms: C_36  and  O_38 
DOCKED: USER                              x       y       z     vdW  Elec       q    Type
DOCKED: USER                           _______ _______ _______ _____ _____    ______ ____
DOCKED: ROOT
DOCKED: ATOM      1  C   UNL d   1      11.343  17.735   8.645 -0.10 +0.01    +0.064 C 
DOCKED: ATOM      2  C   UNL d   1      11.792  14.462  12.322 -0.04 +0.00    +0.064 A 
DOCKED: ATOM      3  C   UNL d   1       7.688  16.109  14.196 -0.26 -0.02    +0.064 C 
DOCKED: ATOM      4  C   UNL d   1       7.289  19.354  10.705 -0.19 -0.01    +0.064 C 
DOCKED: ATOM      5  C   UNL d   1      11.893  16.718   9.551 -0.11 +0.01    +0.066 A 
DOCKED: ATOM      6  C   UNL d   1      13.122  16.099   9.392 -0.11 -0.00    -0.021 A 
DOCKED: ATOM      7  C   UNL d   1      13.245  15.187  10.411 -0.17 -0.00    -0.025 A 
DOCKED: ATOM      8  C   UNL d   1      12.085  15.286  11.155 -0.18 +0.00    +0.066 A 
DOCKED: ATOM      9  C   UNL d   1      14.420  14.293  10.659 -0.15 +0.01    +0.051 C 
DOCKED: ATOM     10  C   UNL d   1      10.707  14.576  13.090 -0.21 -0.00    +0.066 A 
DOCKED: ATOM     11  C   UNL d   1      10.400  13.698  14.132 -0.23 -0.00    -0.021 A 
DOCKED: ATOM     12  C   UNL d   1       9.212  14.141  14.678 -0.25 -0.00    +0.000 A 
DOCKED: ATOM     13  C   UNL d   1       8.848  15.273  13.928 -0.20 -0.01    +0.070 A 
DOCKED: ATOM     14  C   UNL d   1      11.166  12.457  14.544 -0.23 +0.01    +0.052 C 
DOCKED: ATOM     15  C   UNL d   1       7.305  17.168  13.446 -0.18 -0.02    +0.066 A 
DOCKED: ATOM     16  C   UNL d   1       6.249  18.001  13.792 -0.16 +0.01    -0.021 A 
DOCKED: ATOM     17  C   UNL d   1       6.129  18.936  12.784 -0.23 -0.00    +0.000 A 
DOCKED: ATOM     18  C   UNL d   1       7.115  18.648  11.843 -0.20 -0.02    +0.070 A 
DOCKED: ATOM     19  C   UNL d   1       5.368  17.908  15.009 -0.10 -0.04    +0.052 C 
DOCKED: ATOM     20  C   UNL d   1       8.353  19.120   9.722 -0.12 -0.01    +0.066 A 
DOCKED: ATOM     21  C   UNL d   1       8.426  19.706   8.451 -0.08 +0.00    -0.025 A 
DOCKED: ATOM     22  C   UNL d   1       9.596  19.241   7.886 -0.06 -0.00    -0.021 A 
DOCKED: ATOM     23  C   UNL d   1      10.184  18.388   8.828 -0.08 +0.01    +0.066 A 
DOCKED: ATOM     24  C   UNL d   1       7.450  20.652   7.791 -0.08 -0.01    +0.051 C 
DOCKED: ATOM     25  N   UNL d   1      11.269  16.224  10.635 -0.11 +0.00    -0.248 N 
DOCKED: ATOM     26  N   UNL d   1       9.755  15.533  12.954 -0.12 +0.02    -0.248 N 
DOCKED: ATOM     27  N   UNL d   1       7.867  17.589  12.270 -0.14 +0.05    -0.248 N 
DOCKED: ATOM     28  N   UNL d   1       9.399  18.283   9.928 -0.07 +0.00    -0.248 N 
DOCKED: ATOM     29 FE   UNL d   1       9.576  16.910  11.440 -0.04 -0.00    +0.000 Fe
DOCKED: ENDROOT
DOCKED: BRANCH   6  30
DOCKED: ATOM     30  C   UNL d   1      14.140  16.373   8.338 -0.05 +0.01    +0.052 C 
DOCKED: BRANCH  30  31
DOCKED: ATOM     31  C   UNL d   1      14.288  15.175   7.406 -0.09 +0.04    +0.115 C 
DOCKED: BRANCH  31  32
DOCKED: ATOM     32  C   UNL d   1      12.959  14.806   6.808 -0.03 +0.16    +0.139 C 
DOCKED: ATOM     33  O   UNL d   1      12.172  14.102   7.425 -0.58 -0.86    -0.650 OA
DOCKED: BRANCH  32  34
DOCKED: ATOM     34  O   UNL d   1      12.623  15.249   5.585 +0.31 -1.41    -0.776 OA
DOCKED: ATOM     35  H   UNL d   1      12.276  16.147   5.489 +0.02 +0.22    +0.167 HD
DOCKED: ENDBRANCH  32  34
DOCKED: ENDBRANCH  31  32
DOCKED: ENDBRANCH  30  31
DOCKED: ENDBRANCH   6  30
DOCKED: BRANCH  22  36
DOCKED: ATOM     36  C   UNL d   1      10.092  19.561   6.501 -0.03 +0.00    +0.052 C 
DOCKED: BRANCH  36  37
DOCKED: ATOM     37  C   UNL d   1       9.561  18.530   5.515 -0.07 +0.03    +0.115 C 
DOCKED: BRANCH  37  38
DOCKED: ATOM     38  C   UNL d   1      10.638  17.561   5.117 -0.08 +0.10    +0.139 C 
DOCKED: ATOM     39  O   UNL d   1      10.371  16.566   4.459 -0.09 -1.01    -0.650 OA
DOCKED: BRANCH  38  40
DOCKED: ATOM     40  O   UNL d   1      11.911  17.783   5.488 +0.02 -0.38    -0.776 OA
DOCKED: ATOM     41  H   UNL d   1      12.277  17.288   6.234 +0.02 +0.09    +0.167 HD
DOCKED: ENDBRANCH  38  40
DOCKED: ENDBRANCH  37  38
DOCKED: ENDBRANCH  36  37
DOCKED: ENDBRANCH  22  36
DOCKED: BRANCH  12  42
DOCKED: ATOM     42  C   UNL d   1       8.500  13.491  15.821 -0.35 -0.00    +0.004 C 
DOCKED: ATOM     43  C   UNL d   1       8.091  12.217  15.743 -0.30 -0.00    +0.012 C 
DOCKED: ENDBRANCH  12  42
DOCKED: BRANCH  17  44
DOCKED: ATOM     44  C   UNL d   1       5.149  20.044  12.736 -0.25 -0.00    +0.004 C 
DOCKED: ATOM     45  C   UNL d   1       3.876  19.849  13.094 -0.24 -0.00    +0.012 C 
DOCKED: ENDBRANCH  17  44
DOCKED: TORSDOF 10
DOCKED: TER
DOCKED: ENDMDL
________________________________________________________________________________


	BEGINNING GENETIC ALGORITHM DOCKING 42 of 100
Run: 42 Seed: 366931902 177759469 [ Run 42 of 100 GA/GALS ]
Beginning LAMARCKIAN GENETIC ALGORITHM (LGA), with a maximum of 25000000 energy evaluations.

Final-Value: -11.082


	FINAL GENETIC ALGORITHM DOCKED STATE
	_______________________________________________


Detailed state:  trans 7.615 -5.313 15.321 quatxyzw 0.334485 0.215397 0.906533 -0.141142 center -0.174 -0.001 -0.047 ntor 10 84.5302 -148.4372 83.9549 -169.8807 -155.7713 -16.9138 -98.7551 79.2728 -31.3228 5.1861
State:	  7.615  -5.313  15.321   0.338  0.218  0.916 -163.772     84.53 -148.44   83.95 -169.88 -155.77  -16.91  -98.76   79.27  -31.32    5.19

DOCKED: MODEL       42
DOCKED: USER    Run = 42
DOCKED: USER    DPF = D:/Protein_go_brrr/autodock/final/mut_N102T/heme_Fe/dock.dpf
DOCKED: USER  
DOCKED: USER    Estimated Free Energy of Binding    =   -7.37 kcal/mol  [=(1)+(2)+(3)-(4)]
DOCKED: USER    Estimated Inhibition Constant, Ki   =    3.98 uM (micromolar)  [Temperature = 298.15 K]
DOCKED: USER    
DOCKED: USER    (1) Final Intermolecular Energy     =  -10.35 kcal/mol
DOCKED: USER        vdW + Hbond + desolv Energy     =   -7.09 kcal/mol
DOCKED: USER        Electrostatic Energy            =   -3.26 kcal/mol
DOCKED: USER    (2) Final Total Internal Energy     =   -0.73 kcal/mol
DOCKED: USER    (3) Torsional Free Energy           =   +2.98 kcal/mol
DOCKED: USER    (4) Unbound System's Energy  [=(2)] =   -0.73 kcal/mol
DOCKED: USER    
DOCKED: USER    
DOCKED: USER    NEWDPF move heme_Fe_opt.pdbqt
DOCKED: USER    NEWDPF about -0.174000 -0.001000 -0.047000
DOCKED: USER    NEWDPF tran0 7.614642 -5.312706 15.321213
DOCKED: USER    NEWDPF quaternion0 0.334485 0.215397 0.906533 -0.141142
DOCKED: USER    NEWDPF axisangle0 0.337867 0.217575 0.915700 -163.772139
DOCKED: USER    NEWDPF quat0 0.337867 0.217575 0.915700 -163.772139
DOCKED: USER    NEWDPF dihe0 84.53 -148.44 83.95 -169.88 -155.77 -16.91 -98.76 79.27 -31.32 5.19 
DOCKED: USER  keepresnum = 1 
DOCKED: USER  
DOCKED: REMARK  10 active torsions:
DOCKED: REMARK  status: ('A' for Active; 'I' for Inactive)
DOCKED: REMARK    1  A    between atoms: C_6  and  C_10 
DOCKED: REMARK    2  A    between atoms: C_10  and  C_11 
DOCKED: REMARK    3  A    between atoms: C_11  and  C_12 
DOCKED: REMARK    4  A    between atoms: C_12  and  O_14 
DOCKED: REMARK    5  A    between atoms: C_17  and  C_20 
DOCKED: REMARK    6  A    between atoms: C_24  and  C_27 
DOCKED: REMARK    7  A    between atoms: C_31  and  C_34 
DOCKED: REMARK    8  A    between atoms: C_34  and  C_35 
DOCKED: REMARK    9  A    between atoms: C_35  and  C_36 
DOCKED: REMARK   10  A    between atoms: C_36  and  O_38 
DOCKED: USER                              x       y       z     vdW  Elec       q    Type
DOCKED: USER                           _______ _______ _______ _____ _____    ______ ____
DOCKED: ROOT
DOCKED: ATOM      1  C   UNL d   1       9.435  -5.896  14.575 -0.10 +0.01    +0.064 C 
DOCKED: ATOM      2  C   UNL d   1       6.988  -1.609  14.823 -0.18 +0.00    +0.064 A 
DOCKED: ATOM      3  C   UNL d   1       4.021  -3.568  18.052 -0.13 -0.01    +0.064 C 
DOCKED: ATOM      4  C   UNL d   1       6.310  -7.758  17.749 -0.24 -0.00    +0.064 C 
DOCKED: ATOM      5  C   UNL d   1       8.970  -4.533  14.283 -0.07 +0.01    +0.066 A 
DOCKED: ATOM      6  C   UNL d   1       9.516  -3.701  13.320 -0.06 -0.01    -0.021 A 
DOCKED: ATOM      7  C   UNL d   1       8.839  -2.510  13.392 -0.09 -0.01    -0.025 A 
DOCKED: ATOM      8  C   UNL d   1       7.904  -2.660  14.397 -0.10 +0.01    +0.066 A 
DOCKED: ATOM      9  C   UNL d   1       9.070  -1.309  12.527 -0.20 +0.01    +0.051 C 
DOCKED: ATOM     10  C   UNL d   1       6.039  -1.746  15.750 -0.20 -0.00    +0.066 A 
DOCKED: ATOM     11  C   UNL d   1       5.253  -0.690  16.218 -0.33 +0.00    -0.021 A 
DOCKED: ATOM     12  C   UNL d   1       4.401  -1.226  17.162 -0.30 -0.00    +0.000 A 
DOCKED: ATOM     13  C   UNL d   1       4.719  -2.593  17.229 -0.14 -0.01    +0.070 A 
DOCKED: ATOM     14  C   UNL d   1       5.357   0.772  15.833 -0.32 -0.01    +0.052 C 
DOCKED: ATOM     15  C   UNL d   1       4.357  -4.876  18.159 -0.13 -0.01    +0.066 A 
DOCKED: ATOM     16  C   UNL d   1       3.605  -5.796  18.878 -0.15 +0.00    -0.021 A 
DOCKED: ATOM     17  C   UNL d   1       4.265  -7.004  18.794 -0.10 -0.00    +0.000 A 
DOCKED: ATOM     18  C   UNL d   1       5.409  -6.791  18.029 -0.18 -0.01    +0.070 A 
DOCKED: ATOM     19  C   UNL d   1       2.329  -5.547  19.635 -0.12 -0.01    +0.052 C 
DOCKED: ATOM     20  C   UNL d   1       7.493  -7.586  16.896 -0.18 +0.01    +0.066 A 
DOCKED: ATOM     21  C   UNL d   1       8.535  -8.513  16.760 -0.16 -0.01    -0.025 A 
DOCKED: ATOM     22  C   UNL d   1       9.408  -7.968  15.841 -0.13 -0.01    -0.021 A 
DOCKED: ATOM     23  C   UNL d   1       8.870  -6.733  15.460 -0.11 +0.01    +0.066 A 
DOCKED: ATOM     24  C   UNL d   1       8.712  -9.843  17.456 -0.16 +0.02    +0.051 C 
DOCKED: ATOM     25  N   UNL d   1       7.980  -3.896  14.931 -0.05 -0.03    -0.248 N 
DOCKED: ATOM     26  N   UNL d   1       5.723  -2.909  16.375 -0.07 +0.01    -0.248 N 
DOCKED: ATOM     27  N   UNL d   1       5.444  -5.494  17.601 -0.10 +0.02    -0.248 N 
DOCKED: ATOM     28  N   UNL d   1       7.725  -6.485  16.140 -0.09 -0.03    -0.248 N 
DOCKED: ATOM     29 FE   UNL d   1       6.724  -4.699  16.259 -0.03 +0.00    +0.000 Fe
DOCKED: ENDROOT
DOCKED: BRANCH   6  30
DOCKED: ATOM     30  C   UNL d   1      10.612  -4.027  12.363 -0.07 +0.03    +0.052 C 
DOCKED: BRANCH  30  31
DOCKED: ATOM     31  C   UNL d   1      10.242  -5.235  11.509 -0.12 +0.09    +0.115 C 
DOCKED: BRANCH  31  32
DOCKED: ATOM     32  C   UNL d   1       9.353  -4.821  10.369 -0.13 +0.16    +0.139 C 
DOCKED: ATOM     33  O   UNL d   1       8.601  -5.627   9.840 -0.04 -0.53    -0.650 OA
DOCKED: BRANCH  32  34
DOCKED: ATOM     34  O   UNL d   1       9.377  -3.554   9.920 -0.51 -1.21    -0.776 OA
DOCKED: ATOM     35  H   UNL d   1       8.723  -2.925  10.256 +0.05 +0.13    +0.167 HD
DOCKED: ENDBRANCH  32  34
DOCKED: ENDBRANCH  31  32
DOCKED: ENDBRANCH  30  31
DOCKED: ENDBRANCH   6  30
DOCKED: BRANCH  22  36
DOCKED: ATOM     36  C   UNL d   1      10.710  -8.580  15.394 -0.09 +0.02    +0.052 C 
DOCKED: BRANCH  36  37
DOCKED: ATOM     37  C   UNL d   1      10.534  -9.217  14.024 -0.14 +0.06    +0.115 C 
DOCKED: BRANCH  37  38
DOCKED: ATOM     38  C   UNL d   1      10.389 -10.708  14.139 -0.12 +0.16    +0.139 C 
DOCKED: ATOM     39  O   UNL d   1      10.720 -11.292  15.160 -0.20 -1.09    -0.650 OA
DOCKED: BRANCH  38  40
DOCKED: ATOM     40  O   UNL d   1       9.893 -11.416  13.108 -0.37 -1.20    -0.776 OA
DOCKED: ATOM     41  H   UNL d   1      10.052 -11.106  12.205 +0.03 +0.13    +0.167 HD
DOCKED: ENDBRANCH  38  40
DOCKED: ENDBRANCH  37  38
DOCKED: ENDBRANCH  36  37
DOCKED: ENDBRANCH  22  36
DOCKED: BRANCH  12  42
DOCKED: ATOM     42  C   UNL d   1       3.384  -0.449  17.936 -0.49 -0.00    +0.004 C 
DOCKED: ATOM     43  C   UNL d   1       2.121  -0.883  18.045 -0.44 -0.01    +0.012 C 
DOCKED: ENDBRANCH  12  42
DOCKED: BRANCH  17  44
DOCKED: ATOM     44  C   UNL d   1       3.820  -8.284  19.391 -0.09 -0.00    +0.004 C 
DOCKED: ATOM     45  C   UNL d   1       4.541  -8.882  20.346 -0.12 -0.00    +0.012 C 
DOCKED: ENDBRANCH  17  44
DOCKED: TORSDOF 10
DOCKED: TER
DOCKED: ENDMDL
________________________________________________________________________________


	BEGINNING GENETIC ALGORITHM DOCKING 43 of 100
Run: 43 Seed: 945540638 397700808 [ Run 43 of 100 GA/GALS ]
Beginning LAMARCKIAN GENETIC ALGORITHM (LGA), with a maximum of 25000000 energy evaluations.

Final-Value: -11.481


	FINAL GENETIC ALGORITHM DOCKED STATE
	_______________________________________________


Detailed state:  trans 7.463 -5.276 16.254 quatxyzw 0.141123 0.933870 -0.218018 0.245845 center -0.174 -0.001 -0.047 ntor 10 105.0977 84.8352 -146.9739 159.7591 178.9615 172.2673 29.6824 -75.2354 -154.5397 162.7352
State:	  7.463  -5.276  16.254   0.146  0.963 -0.225 151.536    105.10   84.84 -146.97  159.76  178.96  172.27   29.68  -75.24 -154.54  162.74

DOCKED: MODEL       43
DOCKED: USER    Run = 43
DOCKED: USER    DPF = D:/Protein_go_brrr/autodock/final/mut_N102T/heme_Fe/dock.dpf
DOCKED: USER  
DOCKED: USER    Estimated Free Energy of Binding    =   -7.98 kcal/mol  [=(1)+(2)+(3)-(4)]
DOCKED: USER    Estimated Inhibition Constant, Ki   =    1.42 uM (micromolar)  [Temperature = 298.15 K]
DOCKED: USER    
DOCKED: USER    (1) Final Intermolecular Energy     =  -10.96 kcal/mol
DOCKED: USER        vdW + Hbond + desolv Energy     =   -7.56 kcal/mol
DOCKED: USER        Electrostatic Energy            =   -3.40 kcal/mol
DOCKED: USER    (2) Final Total Internal Energy     =   -0.52 kcal/mol
DOCKED: USER    (3) Torsional Free Energy           =   +2.98 kcal/mol
DOCKED: USER    (4) Unbound System's Energy  [=(2)] =   -0.52 kcal/mol
DOCKED: USER    
DOCKED: USER    
DOCKED: USER    NEWDPF move heme_Fe_opt.pdbqt
DOCKED: USER    NEWDPF about -0.174000 -0.001000 -0.047000
DOCKED: USER    NEWDPF tran0 7.462513 -5.275935 16.253799
DOCKED: USER    NEWDPF quaternion0 0.141123 0.933870 -0.218018 0.245845
DOCKED: USER    NEWDPF axisangle0 0.145591 0.963439 -0.224921 151.536424
DOCKED: USER    NEWDPF quat0 0.145591 0.963439 -0.224921 151.536424
DOCKED: USER    NEWDPF dihe0 105.10 84.84 -146.97 159.76 178.96 172.27 29.68 -75.24 -154.54 162.74 
DOCKED: USER  keepresnum = 1 
DOCKED: USER  
DOCKED: REMARK  10 active torsions:
DOCKED: REMARK  status: ('A' for Active; 'I' for Inactive)
DOCKED: REMARK    1  A    between atoms: C_6  and  C_10 
DOCKED: REMARK    2  A    between atoms: C_10  and  C_11 
DOCKED: REMARK    3  A    between atoms: C_11  and  C_12 
DOCKED: REMARK    4  A    between atoms: C_12  and  O_14 
DOCKED: REMARK    5  A    between atoms: C_17  and  C_20 
DOCKED: REMARK    6  A    between atoms: C_24  and  C_27 
DOCKED: REMARK    7  A    between atoms: C_31  and  C_34 
DOCKED: REMARK    8  A    between atoms: C_34  and  C_35 
DOCKED: REMARK    9  A    between atoms: C_35  and  C_36 
DOCKED: REMARK   10  A    between atoms: C_36  and  O_38 
DOCKED: USER                              x       y       z     vdW  Elec       q    Type
DOCKED: USER                           _______ _______ _______ _____ _____    ______ ____
DOCKED: ROOT
DOCKED: ATOM      1  C   UNL d   1       8.839  -6.241  15.077 -0.13 +0.01    +0.064 C 
DOCKED: ATOM      2  C   UNL d   1       5.355  -7.698  18.266 -0.14 -0.01    +0.064 A 
DOCKED: ATOM      3  C   UNL d   1       3.447  -3.294  18.086 -0.14 -0.01    +0.064 C 
DOCKED: ATOM      4  C   UNL d   1       6.870  -1.834  15.081 -0.20 +0.00    +0.064 C 
DOCKED: ATOM      5  C   UNL d   1       8.084  -7.036  16.056 -0.15 +0.01    +0.066 A 
DOCKED: ATOM      6  C   UNL d   1       8.413  -8.322  16.453 -0.19 -0.01    -0.021 A 
DOCKED: ATOM      7  C   UNL d   1       7.443  -8.727  17.335 -0.21 -0.00    -0.025 A 
DOCKED: ATOM      8  C   UNL d   1       6.558  -7.671  17.444 -0.22 +0.00    +0.066 A 
DOCKED: ATOM      9  C   UNL d   1       7.388 -10.046  18.043 -0.20 +0.01    +0.051 C 
DOCKED: ATOM     10  C   UNL d   1       4.516  -6.674  18.433 -0.16 -0.01    +0.066 A 
DOCKED: ATOM     11  C   UNL d   1       3.312  -6.766  19.135 -0.15 +0.01    -0.021 A 
DOCKED: ATOM     12  C   UNL d   1       2.734  -5.513  19.083 -0.15 -0.00    +0.000 A 
DOCKED: ATOM     13  C   UNL d   1       3.621  -4.716  18.338 -0.13 -0.01    +0.070 A 
DOCKED: ATOM     14  C   UNL d   1       2.707  -8.004  19.765 -0.20 -0.01    +0.052 C 
DOCKED: ATOM     15  C   UNL d   1       4.270  -2.535  17.327 -0.15 -0.01    +0.066 A 
DOCKED: ATOM     16  C   UNL d   1       4.125  -1.160  17.192 -0.31 +0.00    -0.021 A 
DOCKED: ATOM     17  C   UNL d   1       5.110  -0.737  16.322 -0.32 -0.00    +0.000 A 
DOCKED: ATOM     18  C   UNL d   1       5.831  -1.867  15.944 -0.19 -0.00    +0.070 A 
DOCKED: ATOM     19  C   UNL d   1       3.087  -0.279  17.833 -0.47 -0.02    +0.052 C 
DOCKED: ATOM     20  C   UNL d   1       7.691  -2.992  14.707 -0.09 +0.01    +0.066 A 
DOCKED: ATOM     21  C   UNL d   1       8.636  -3.014  13.671 -0.09 -0.01    -0.025 A 
DOCKED: ATOM     22  C   UNL d   1       9.194  -4.276  13.696 -0.08 -0.01    -0.021 A 
DOCKED: ATOM     23  C   UNL d   1       8.566  -4.972  14.737 -0.09 +0.01    +0.066 A 
DOCKED: ATOM     24  C   UNL d   1       8.998  -1.914  12.701 -0.15 +0.01    +0.051 C 
DOCKED: ATOM     25  N   UNL d   1       6.956  -6.641  16.672 -0.11 -0.01    -0.248 N 
DOCKED: ATOM     26  N   UNL d   1       4.703  -5.426  17.934 -0.11 +0.03    -0.248 N 
DOCKED: ATOM     27  N   UNL d   1       5.344  -2.966  16.594 -0.08 +0.02    -0.248 N 
DOCKED: ATOM     28  N   UNL d   1       7.619  -4.198  15.320 -0.05 -0.02    -0.248 N 
DOCKED: ATOM     29 FE   UNL d   1       6.161  -4.810  16.626 -0.03 -0.00    +0.000 Fe
DOCKED: ENDROOT
DOCKED: BRANCH   6  30
DOCKED: ATOM     30  C   UNL d   1       9.600  -9.119  16.032 -0.16 +0.02    +0.052 C 
DOCKED: BRANCH  30  31
DOCKED: ATOM     31  C   UNL d   1       9.537  -9.437  14.542 -0.19 +0.07    +0.115 C 
DOCKED: BRANCH  31  32
DOCKED: ATOM     32  C   UNL d   1      10.230 -10.739  14.252 -0.04 +0.17    +0.139 C 
DOCKED: ATOM     33  O   UNL d   1      10.272 -11.183  13.113 -0.40 -0.79    -0.650 OA
DOCKED: BRANCH  32  34
DOCKED: ATOM     34  O   UNL d   1      10.811 -11.431  15.247 -0.15 -1.37    -0.776 OA
DOCKED: ATOM     35  H   UNL d   1      11.651 -11.117  15.609 +0.01 +0.15    +0.167 HD
DOCKED: ENDBRANCH  32  34
DOCKED: ENDBRANCH  31  32
DOCKED: ENDBRANCH  30  31
DOCKED: ENDBRANCH   6  30
DOCKED: BRANCH  22  36
DOCKED: ATOM     36  C   UNL d   1      10.235  -4.796  12.741 -0.07 +0.02    +0.052 C 
DOCKED: BRANCH  36  37
DOCKED: ATOM     37  C   UNL d   1       9.572  -5.661  11.679 -0.16 +0.07    +0.115 C 
DOCKED: BRANCH  37  38
DOCKED: ATOM     38  C   UNL d   1       9.466  -4.924  10.374 -0.10 +0.17    +0.139 C 
DOCKED: ATOM     39  O   UNL d   1       9.092  -5.497   9.361 -0.05 -0.84    -0.650 OA
DOCKED: BRANCH  38  40
DOCKED: ATOM     40  O   UNL d   1       9.788  -3.620  10.311 -0.37 -1.20    -0.776 OA
DOCKED: ATOM     41  H   UNL d   1       9.087  -2.958  10.392 +0.05 +0.15    +0.167 HD
DOCKED: ENDBRANCH  38  40
DOCKED: ENDBRANCH  37  38
DOCKED: ENDBRANCH  36  37
DOCKED: ENDBRANCH  22  36
DOCKED: BRANCH  12  42
DOCKED: ATOM     42  C   UNL d   1       1.419  -5.151  19.698 -0.12 -0.00    +0.004 C 
DOCKED: ATOM     43  C   UNL d   1       0.304  -5.096  18.958 -0.21 -0.00    +0.012 C 
DOCKED: ENDBRANCH  12  42
DOCKED: BRANCH  17  44
DOCKED: ATOM     44  C   UNL d   1       5.357   0.660  15.898 -0.41 -0.00    +0.004 C 
DOCKED: ATOM     45  C   UNL d   1       5.802   0.933  14.668 -0.49 -0.00    +0.012 C 
DOCKED: ENDBRANCH  17  44
DOCKED: TORSDOF 10
DOCKED: TER
DOCKED: ENDMDL
________________________________________________________________________________


	BEGINNING GENETIC ALGORITHM DOCKING 44 of 100
Run: 44 Seed: 1013053018 612021177 [ Run 44 of 100 GA/GALS ]
Beginning LAMARCKIAN GENETIC ALGORITHM (LGA), with a maximum of 25000000 energy evaluations.

Final-Value: -10.297


	FINAL GENETIC ALGORITHM DOCKED STATE
	_______________________________________________


Detailed state:  trans -10.663 4.551 12.670 quatxyzw 0.625289 -0.061928 -0.768850 0.118525 center -0.174 -0.001 -0.047 ntor 10 67.1898 -131.1171 -3.4702 72.8730 -112.4848 -180.0000 -73.7944 -92.4144 -161.0769 -21.3873
State:	-10.663   4.551  12.670   0.630 -0.062 -0.774 166.386     67.19 -131.12   -3.47   72.87 -112.48 -180.00  -73.79  -92.41 -161.08  -21.39

DOCKED: MODEL       44
DOCKED: USER    Run = 44
DOCKED: USER    DPF = D:/Protein_go_brrr/autodock/final/mut_N102T/heme_Fe/dock.dpf
DOCKED: USER  
DOCKED: USER    Estimated Free Energy of Binding    =   -5.14 kcal/mol  [=(1)+(2)+(3)-(4)]
DOCKED: USER    Estimated Inhibition Constant, Ki   =  171.77 uM (micromolar)  [Temperature = 298.15 K]
DOCKED: USER    
DOCKED: USER    (1) Final Intermolecular Energy     =   -8.12 kcal/mol
DOCKED: USER        vdW + Hbond + desolv Energy     =   -7.58 kcal/mol
DOCKED: USER        Electrostatic Energy            =   -0.54 kcal/mol
DOCKED: USER    (2) Final Total Internal Energy     =   -2.18 kcal/mol
DOCKED: USER    (3) Torsional Free Energy           =   +2.98 kcal/mol
DOCKED: USER    (4) Unbound System's Energy  [=(2)] =   -2.18 kcal/mol
DOCKED: USER    
DOCKED: USER    
DOCKED: USER    NEWDPF move heme_Fe_opt.pdbqt
DOCKED: USER    NEWDPF about -0.174000 -0.001000 -0.047000
DOCKED: USER    NEWDPF tran0 -10.662900 4.551406 12.670348
DOCKED: USER    NEWDPF quaternion0 0.625289 -0.061928 -0.768850 0.118525
DOCKED: USER    NEWDPF axisangle0 0.629728 -0.062368 -0.774308 166.386027
DOCKED: USER    NEWDPF quat0 0.629728 -0.062368 -0.774308 166.386027
DOCKED: USER    NEWDPF dihe0 67.19 -131.12 -3.47 72.87 -112.48 -180.00 -73.79 -92.41 -161.08 -21.39 
DOCKED: USER  keepresnum = 1 
DOCKED: USER  
DOCKED: REMARK  10 active torsions:
DOCKED: REMARK  status: ('A' for Active; 'I' for Inactive)
DOCKED: REMARK    1  A    between atoms: C_6  and  C_10 
DOCKED: REMARK    2  A    between atoms: C_10  and  C_11 
DOCKED: REMARK    3  A    between atoms: C_11  and  C_12 
DOCKED: REMARK    4  A    between atoms: C_12  and  O_14 
DOCKED: REMARK    5  A    between atoms: C_17  and  C_20 
DOCKED: REMARK    6  A    between atoms: C_24  and  C_27 
DOCKED: REMARK    7  A    between atoms: C_31  and  C_34 
DOCKED: REMARK    8  A    between atoms: C_34  and  C_35 
DOCKED: REMARK    9  A    between atoms: C_35  and  C_36 
DOCKED: REMARK   10  A    between atoms: C_36  and  O_38 
DOCKED: USER                              x       y       z     vdW  Elec       q    Type
DOCKED: USER                           _______ _______ _______ _____ _____    ______ ____
DOCKED: ROOT
DOCKED: ATOM      1  C   UNL d   1     -10.775   4.530  14.719 -0.07 +0.01    +0.064 C 
DOCKED: ATOM      2  C   UNL d   1     -10.421   8.072  11.290 -0.27 +0.00    +0.064 A 
DOCKED: ATOM      3  C   UNL d   1     -11.622   4.849   7.937 -0.29 +0.00    +0.064 C 
DOCKED: ATOM      4  C   UNL d   1     -11.867   1.383  11.226 -0.25 -0.01    +0.064 C 
DOCKED: ATOM      5  C   UNL d   1     -10.483   5.807  14.054 -0.06 +0.01    +0.066 A 
DOCKED: ATOM      6  C   UNL d   1     -10.000   6.938  14.691 -0.21 -0.00    -0.021 A 
DOCKED: ATOM      7  C   UNL d   1      -9.905   7.923  13.738 -0.27 -0.00    -0.025 A 
DOCKED: ATOM      8  C   UNL d   1     -10.335   7.353  12.555 -0.30 +0.01    +0.066 A 
DOCKED: ATOM      9  C   UNL d   1      -9.412   9.320  13.958 -0.20 +0.00    +0.051 C 
DOCKED: ATOM     10  C   UNL d   1     -10.777   7.532  10.123 -0.31 -0.00    +0.066 A 
DOCKED: ATOM     11  C   UNL d   1     -10.962   8.270   8.951 -0.29 +0.00    -0.021 A 
DOCKED: ATOM     12  C   UNL d   1     -11.325   7.366   7.973 -0.29 -0.00    +0.000 A 
DOCKED: ATOM     13  C   UNL d   1     -11.352   6.111   8.607 -0.29 -0.00    +0.070 A 
DOCKED: ATOM     14  C   UNL d   1     -10.864   9.773   8.787 -0.22 -0.01    +0.052 C 
DOCKED: ATOM     15  C   UNL d   1     -11.700   3.646   8.552 -0.19 -0.00    +0.066 A 
DOCKED: ATOM     16  C   UNL d   1     -11.861   2.450   7.863 -0.28 +0.00    -0.021 A 
DOCKED: ATOM     17  C   UNL d   1     -11.936   1.450   8.810 -0.26 -0.00    +0.000 A 
DOCKED: ATOM     18  C   UNL d   1     -11.822   2.060  10.057 -0.18 -0.01    +0.070 A 
DOCKED: ATOM     19  C   UNL d   1     -11.968   2.256   6.375 -0.31 -0.01    +0.052 C 
DOCKED: ATOM     20  C   UNL d   1     -11.689   1.983  12.553 -0.21 -0.00    +0.066 A 
DOCKED: ATOM     21  C   UNL d   1     -11.931   1.336  13.773 -0.13 -0.00    -0.025 A 
DOCKED: ATOM     22  C   UNL d   1     -11.601   2.247  14.756 -0.13 -0.00    -0.021 A 
DOCKED: ATOM     23  C   UNL d   1     -11.180   3.410  14.100 -0.14 +0.01    +0.066 A 
DOCKED: ATOM     24  C   UNL d   1     -12.449  -0.063  14.013 -0.07 +0.00    +0.051 C 
DOCKED: ATOM     25  N   UNL d   1     -10.676   6.064  12.748 -0.15 -0.03    -0.248 N 
DOCKED: ATOM     26  N   UNL d   1     -11.026   6.213   9.919 -0.18 +0.00    -0.248 N 
DOCKED: ATOM     27  N   UNL d   1     -11.633   3.404   9.898 -0.04 +0.03    -0.248 N 
DOCKED: ATOM     28  N   UNL d   1     -11.278   3.258  12.757 -0.10 -0.01    -0.248 N 
DOCKED: ATOM     29 FE   UNL d   1     -11.153   4.734  11.338 -0.07 +0.00    +0.000 Fe
DOCKED: ENDROOT
DOCKED: BRANCH   6  30
DOCKED: ATOM     30  C   UNL d   1      -9.625   7.074  16.127 -0.14 +0.00    +0.052 C 
DOCKED: BRANCH  30  31
DOCKED: ATOM     31  C   UNL d   1     -10.868   7.074  17.011 -0.03 -0.00    +0.115 C 
DOCKED: BRANCH  31  32
DOCKED: ATOM     32  C   UNL d   1     -10.993   5.767  17.743 -0.02 +0.00    +0.139 C 
DOCKED: ATOM     33  O   UNL d   1     -11.907   4.995  17.488 +0.02 -0.01    -0.650 OA
DOCKED: BRANCH  32  34
DOCKED: ATOM     34  O   UNL d   1     -10.098   5.434  18.688 +0.03 -0.01    -0.776 OA
DOCKED: ATOM     35  H   UNL d   1      -9.500   4.690  18.528 +0.02 +0.01    +0.167 HD
DOCKED: ENDBRANCH  32  34
DOCKED: ENDBRANCH  31  32
DOCKED: ENDBRANCH  30  31
DOCKED: ENDBRANCH   6  30
DOCKED: BRANCH  22  36
DOCKED: ATOM     36  C   UNL d   1     -11.732   2.026  16.240 -0.06 +0.01    +0.052 C 
DOCKED: BRANCH  36  37
DOCKED: ATOM     37  C   UNL d   1     -10.610   1.120  16.724 -0.10 +0.04    +0.115 C 
DOCKED: BRANCH  37  38
DOCKED: ATOM     38  C   UNL d   1      -9.381   1.916  17.060 -0.16 +0.05    +0.139 C 
DOCKED: ATOM     39  O   UNL d   1      -8.370   1.363  17.469 -0.30 -0.47    -0.650 OA
DOCKED: BRANCH  38  40
DOCKED: ATOM     40  O   UNL d   1      -9.386   3.253  16.913 +0.05 -0.16    -0.776 OA
DOCKED: ATOM     41  H   UNL d   1     -10.122   3.763  17.281 +0.03 +0.02    +0.167 HD
DOCKED: ENDBRANCH  38  40
DOCKED: ENDBRANCH  37  38
DOCKED: ENDBRANCH  36  37
DOCKED: ENDBRANCH  22  36
DOCKED: BRANCH  12  42
DOCKED: ATOM     42  C   UNL d   1     -11.634   7.719   6.553 -0.26 -0.00    +0.004 C 
DOCKED: ATOM     43  C   UNL d   1     -10.858   8.571   5.870 -0.30 -0.00    +0.012 C 
DOCKED: ENDBRANCH  12  42
DOCKED: BRANCH  17  44
DOCKED: ATOM     44  C   UNL d   1     -12.085   0.002   8.538 -0.26 -0.00    +0.004 C 
DOCKED: ATOM     45  C   UNL d   1     -11.233  -0.885   9.063 -0.34 -0.00    +0.012 C 
DOCKED: ENDBRANCH  17  44
DOCKED: TORSDOF 10
DOCKED: TER
DOCKED: ENDMDL
________________________________________________________________________________


	BEGINNING GENETIC ALGORITHM DOCKING 45 of 100
Run: 45 Seed: 692394226 143013404 [ Run 45 of 100 GA/GALS ]
Beginning LAMARCKIAN GENETIC ALGORITHM (LGA), with a maximum of 25000000 energy evaluations.

Final-Value: -10.338


	FINAL GENETIC ALGORITHM DOCKED STATE
	_______________________________________________


Detailed state:  trans 15.566 3.907 7.268 quatxyzw 0.148077 0.847149 0.115416 0.497082 center -0.174 -0.001 -0.047 ntor 10 -18.9204 -74.1417 70.8180 48.2370 -139.0456 57.6515 56.9014 -44.9373 -21.8492 -18.7818
State:	 15.566   3.907   7.268   0.171  0.976  0.133 120.386    -18.92  -74.14   70.82   48.24 -139.05   57.65   56.90  -44.94  -21.85  -18.78

DOCKED: MODEL       45
DOCKED: USER    Run = 45
DOCKED: USER    DPF = D:/Protein_go_brrr/autodock/final/mut_N102T/heme_Fe/dock.dpf
DOCKED: USER  
DOCKED: USER    Estimated Free Energy of Binding    =   -4.91 kcal/mol  [=(1)+(2)+(3)-(4)]
DOCKED: USER    Estimated Inhibition Constant, Ki   =  251.57 uM (micromolar)  [Temperature = 298.15 K]
DOCKED: USER    
DOCKED: USER    (1) Final Intermolecular Energy     =   -7.89 kcal/mol
DOCKED: USER        vdW + Hbond + desolv Energy     =   -6.63 kcal/mol
DOCKED: USER        Electrostatic Energy            =   -1.26 kcal/mol
DOCKED: USER    (2) Final Total Internal Energy     =   -2.44 kcal/mol
DOCKED: USER    (3) Torsional Free Energy           =   +2.98 kcal/mol
DOCKED: USER    (4) Unbound System's Energy  [=(2)] =   -2.44 kcal/mol
DOCKED: USER    
DOCKED: USER    
DOCKED: USER    NEWDPF move heme_Fe_opt.pdbqt
DOCKED: USER    NEWDPF about -0.174000 -0.001000 -0.047000
DOCKED: USER    NEWDPF tran0 15.565959 3.906574 7.268193
DOCKED: USER    NEWDPF quaternion0 0.148077 0.847149 0.115416 0.497082
DOCKED: USER    NEWDPF axisangle0 0.170654 0.976312 0.133013 120.385753
DOCKED: USER    NEWDPF quat0 0.170654 0.976312 0.133013 120.385753
DOCKED: USER    NEWDPF dihe0 -18.92 -74.14 70.82 48.24 -139.05 57.65 56.90 -44.94 -21.85 -18.78 
DOCKED: USER  keepresnum = 1 
DOCKED: USER  
DOCKED: REMARK  10 active torsions:
DOCKED: REMARK  status: ('A' for Active; 'I' for Inactive)
DOCKED: REMARK    1  A    between atoms: C_6  and  C_10 
DOCKED: REMARK    2  A    between atoms: C_10  and  C_11 
DOCKED: REMARK    3  A    between atoms: C_11  and  C_12 
DOCKED: REMARK    4  A    between atoms: C_12  and  O_14 
DOCKED: REMARK    5  A    between atoms: C_17  and  C_20 
DOCKED: REMARK    6  A    between atoms: C_24  and  C_27 
DOCKED: REMARK    7  A    between atoms: C_31  and  C_34 
DOCKED: REMARK    8  A    between atoms: C_34  and  C_35 
DOCKED: REMARK    9  A    between atoms: C_35  and  C_36 
DOCKED: REMARK   10  A    between atoms: C_36  and  O_38 
DOCKED: USER                              x       y       z     vdW  Elec       q    Type
DOCKED: USER                           _______ _______ _______ _____ _____    ______ ____
DOCKED: ROOT
DOCKED: ATOM      1  C   UNL d   1      16.030   3.764   5.274 -0.20 +0.02    +0.064 C 
DOCKED: ATOM      2  C   UNL d   1      13.284   1.104   8.407 -0.25 +0.02    +0.064 A 
DOCKED: ATOM      3  C   UNL d   1      13.423   4.758  11.522 -0.25 +0.02    +0.064 C 
DOCKED: ATOM      4  C   UNL d   1      16.169   7.308   8.549 -0.17 +0.01    +0.064 C 
DOCKED: ATOM      5  C   UNL d   1      15.314   2.645   5.902 -0.19 +0.01    +0.066 A 
DOCKED: ATOM      6  C   UNL d   1      15.171   1.385   5.343 -0.23 -0.00    -0.021 A 
DOCKED: ATOM      7  C   UNL d   1      14.405   0.649   6.212 -0.26 -0.01    -0.025 A 
DOCKED: ATOM      8  C   UNL d   1      14.110   1.487   7.269 -0.22 +0.01    +0.066 A 
DOCKED: ATOM      9  C   UNL d   1      14.001  -0.783   6.037 -0.15 +0.02    +0.051 C 
DOCKED: ATOM     10  C   UNL d   1      13.031   1.875   9.467 -0.23 +0.02    +0.066 A 
DOCKED: ATOM     11  C   UNL d   1      12.144   1.523  10.487 -0.27 -0.01    -0.021 A 
DOCKED: ATOM     12  C   UNL d   1      12.153   2.568  11.389 -0.32 +0.00    +0.000 A 
DOCKED: ATOM     13  C   UNL d   1      13.049   3.516  10.864 -0.28 +0.02    +0.070 A 
DOCKED: ATOM     14  C   UNL d   1      11.277   0.283  10.563 -0.28 +0.02    +0.052 C 
DOCKED: ATOM     15  C   UNL d   1      14.244   5.697  10.997 -0.29 +0.02    +0.066 A 
DOCKED: ATOM     16  C   UNL d   1      14.656   6.823  11.698 -0.30 -0.01    -0.021 A 
DOCKED: ATOM     17  C   UNL d   1      15.445   7.562  10.842 -0.24 +0.00    +0.000 A 
DOCKED: ATOM     18  C   UNL d   1      15.493   6.870   9.634 -0.21 +0.01    +0.070 A 
DOCKED: ATOM     19  C   UNL d   1      14.302   7.205  13.111 -0.16 +0.02    +0.052 C 
DOCKED: ATOM     20  C   UNL d   1      16.292   6.578   7.282 -0.11 +0.01    +0.066 A 
DOCKED: ATOM     21  C   UNL d   1      16.815   7.103   6.092 -0.08 -0.00    -0.025 A 
DOCKED: ATOM     22  C   UNL d   1      16.778   6.072   5.175 -0.10 -0.00    -0.021 A 
DOCKED: ATOM     23  C   UNL d   1      16.231   4.966   5.837 -0.12 +0.01    +0.066 A 
DOCKED: ATOM     24  C   UNL d   1      17.322   8.500   5.820 -0.04 +0.00    +0.051 C 
DOCKED: ATOM     25  N   UNL d   1      14.672   2.698   7.082 +0.04 -0.05    -0.248 N 
DOCKED: ATOM     26  N   UNL d   1      13.578   3.098   9.688 +0.00 -0.06    -0.248 N 
DOCKED: ATOM     27  N   UNL d   1      14.791   5.702   9.742 -0.05 -0.04    -0.248 N 
DOCKED: ATOM     28  N   UNL d   1      15.895   5.294   7.109 +0.06 -0.04    -0.248 N 
DOCKED: ATOM     29 FE   UNL d   1      14.737   4.198   8.398 -0.03 +0.00    +0.000 Fe
DOCKED: ENDROOT
DOCKED: BRANCH   6  30
DOCKED: ATOM     30  C   UNL d   1      15.749   0.898   4.059 -0.20 +0.01    +0.052 C 
DOCKED: BRANCH  30  31
DOCKED: ATOM     31  C   UNL d   1      17.268   0.805   4.151 -0.08 +0.03    +0.115 C 
DOCKED: BRANCH  31  32
DOCKED: ATOM     32  C   UNL d   1      17.912   1.635   3.075 -0.09 +0.06    +0.139 C 
DOCKED: ATOM     33  O   UNL d   1      18.890   1.221   2.470 -0.00 -0.21    -0.650 OA
DOCKED: BRANCH  32  34
DOCKED: ATOM     34  O   UNL d   1      17.415   2.846   2.769 +0.02 -0.70    -0.776 OA
DOCKED: ATOM     35  H   UNL d   1      17.974   3.476   2.293 +0.01 +0.22    +0.167 HD
DOCKED: ENDBRANCH  32  34
DOCKED: ENDBRANCH  31  32
DOCKED: ENDBRANCH  30  31
DOCKED: ENDBRANCH   6  30
DOCKED: BRANCH  22  36
DOCKED: ATOM     36  C   UNL d   1      17.199   6.162   3.732 -0.13 +0.02    +0.052 C 
DOCKED: BRANCH  36  37
DOCKED: ATOM     37  C   UNL d   1      18.716   6.105   3.636 -0.05 +0.03    +0.115 C 
DOCKED: BRANCH  37  38
DOCKED: ATOM     38  C   UNL d   1      19.152   5.158   2.553 -0.06 +0.07    +0.139 C 
DOCKED: ATOM     39  O   UNL d   1      18.782   5.317   1.399 -0.21 -0.63    -0.650 OA
DOCKED: BRANCH  38  40
DOCKED: ATOM     40  O   UNL d   1      19.954   4.121   2.851 +0.01 -0.26    -0.776 OA
DOCKED: ATOM     41  H   UNL d   1      19.579   3.230   2.880 +0.01 +0.06    +0.167 HD
DOCKED: ENDBRANCH  38  40
DOCKED: ENDBRANCH  37  38
DOCKED: ENDBRANCH  36  37
DOCKED: ENDBRANCH  22  36
DOCKED: BRANCH  12  42
DOCKED: ATOM     42  C   UNL d   1      11.336   2.625  12.641 -0.39 +0.00    +0.004 C 
DOCKED: ATOM     43  C   UNL d   1      11.922   2.700  13.843 -0.30 +0.01    +0.012 C 
DOCKED: ENDBRANCH  12  42
DOCKED: BRANCH  17  44
DOCKED: ATOM     44  C   UNL d   1      16.126   8.836  11.164 -0.17 +0.00    +0.004 C 
DOCKED: ATOM     45  C   UNL d   1      17.435   8.864  11.434 -0.08 +0.00    +0.012 C 
DOCKED: ENDBRANCH  17  44
DOCKED: TORSDOF 10
DOCKED: TER
DOCKED: ENDMDL
________________________________________________________________________________


	BEGINNING GENETIC ALGORITHM DOCKING 46 of 100
Run: 46 Seed: 1422278299 1012710882 [ Run 46 of 100 GA/GALS ]
Beginning LAMARCKIAN GENETIC ALGORITHM (LGA), with a maximum of 25000000 energy evaluations.

Final-Value: -11.261


	FINAL GENETIC ALGORITHM DOCKED STATE
	_______________________________________________


Detailed state:  trans 12.112 -7.896 6.815 quatxyzw -0.196310 -0.755603 0.263871 0.566479 center -0.174 -0.001 -0.047 ntor 10 149.5885 159.0318 50.6999 -14.1571 -91.2904 76.5259 -38.4833 -157.5630 37.0261 -23.8450
State:	 12.112  -7.896   6.815  -0.238 -0.917  0.320 110.990    149.59  159.03   50.70  -14.16  -91.29   76.53  -38.48 -157.56   37.03  -23.85

DOCKED: MODEL       46
DOCKED: USER    Run = 46
DOCKED: USER    DPF = D:/Protein_go_brrr/autodock/final/mut_N102T/heme_Fe/dock.dpf
DOCKED: USER  
DOCKED: USER    Estimated Free Energy of Binding    =   -7.81 kcal/mol  [=(1)+(2)+(3)-(4)]
DOCKED: USER    Estimated Inhibition Constant, Ki   =    1.89 uM (micromolar)  [Temperature = 298.15 K]
DOCKED: USER    
DOCKED: USER    (1) Final Intermolecular Energy     =  -10.79 kcal/mol
DOCKED: USER        vdW + Hbond + desolv Energy     =   -7.58 kcal/mol
DOCKED: USER        Electrostatic Energy            =   -3.21 kcal/mol
DOCKED: USER    (2) Final Total Internal Energy     =   -0.47 kcal/mol
DOCKED: USER    (3) Torsional Free Energy           =   +2.98 kcal/mol
DOCKED: USER    (4) Unbound System's Energy  [=(2)] =   -0.47 kcal/mol
DOCKED: USER    
DOCKED: USER    
DOCKED: USER    NEWDPF move heme_Fe_opt.pdbqt
DOCKED: USER    NEWDPF about -0.174000 -0.001000 -0.047000
DOCKED: USER    NEWDPF tran0 12.111761 -7.895978 6.814934
DOCKED: USER    NEWDPF quaternion0 -0.196310 -0.755603 0.263871 0.566479
DOCKED: USER    NEWDPF axisangle0 -0.238218 -0.916909 0.320203 110.989933
DOCKED: USER    NEWDPF quat0 -0.238218 -0.916909 0.320203 110.989933
DOCKED: USER    NEWDPF dihe0 149.59 159.03 50.70 -14.16 -91.29 76.53 -38.48 -157.56 37.03 -23.85 
DOCKED: USER  keepresnum = 1 
DOCKED: USER  
DOCKED: REMARK  10 active torsions:
DOCKED: REMARK  status: ('A' for Active; 'I' for Inactive)
DOCKED: REMARK    1  A    between atoms: C_6  and  C_10 
DOCKED: REMARK    2  A    between atoms: C_10  and  C_11 
DOCKED: REMARK    3  A    between atoms: C_11  and  C_12 
DOCKED: REMARK    4  A    between atoms: C_12  and  O_14 
DOCKED: REMARK    5  A    between atoms: C_17  and  C_20 
DOCKED: REMARK    6  A    between atoms: C_24  and  C_27 
DOCKED: REMARK    7  A    between atoms: C_31  and  C_34 
DOCKED: REMARK    8  A    between atoms: C_34  and  C_35 
DOCKED: REMARK    9  A    between atoms: C_35  and  C_36 
DOCKED: REMARK   10  A    between atoms: C_36  and  O_38 
DOCKED: USER                              x       y       z     vdW  Elec       q    Type
DOCKED: USER                           _______ _______ _______ _____ _____    ______ ____
DOCKED: ROOT
DOCKED: ATOM      1  C   UNL d   1      13.034  -8.268   8.610 -0.07 +0.03    +0.064 C 
DOCKED: ATOM      2  C   UNL d   1       9.881 -10.762   5.734 -0.28 +0.01    +0.064 A 
DOCKED: ATOM      3  C   UNL d   1      10.868  -7.731   2.142 -0.21 -0.02    +0.064 C 
DOCKED: ATOM      4  C   UNL d   1      13.845  -5.240   4.939 -0.09 +0.03    +0.064 C 
DOCKED: ATOM      5  C   UNL d   1      11.992  -9.201   8.159 -0.08 +0.03    +0.066 A 
DOCKED: ATOM      6  C   UNL d   1      11.378 -10.149   8.961 -0.11 -0.01    -0.021 A 
DOCKED: ATOM      7  C   UNL d   1      10.506 -10.844   8.160 -0.20 -0.01    -0.025 A 
DOCKED: ATOM      8  C   UNL d   1      10.620 -10.292   6.899 -0.18 +0.01    +0.066 A 
DOCKED: ATOM      9  C   UNL d   1       9.605 -11.958   8.596 -0.25 +0.01    +0.051 C 
DOCKED: ATOM     10  C   UNL d   1       9.929 -10.211   4.520 -0.24 +0.01    +0.066 A 
DOCKED: ATOM     11  C   UNL d   1       9.299 -10.752   3.397 -0.33 -0.00    -0.021 A 
DOCKED: ATOM     12  C   UNL d   1       9.582  -9.906   2.344 -0.27 -0.00    +0.000 A 
DOCKED: ATOM     13  C   UNL d   1      10.386  -8.886   2.883 -0.16 -0.01    +0.070 A 
DOCKED: ATOM     14  C   UNL d   1       8.522 -12.050   3.317 -0.38 +0.00    +0.052 C 
DOCKED: ATOM     15  C   UNL d   1      11.685  -6.774   2.642 -0.15 -0.01    +0.066 A 
DOCKED: ATOM     16  C   UNL d   1      12.042  -5.634   1.932 -0.26 +0.00    -0.021 A 
DOCKED: ATOM     17  C   UNL d   1      12.904  -4.916   2.736 -0.20 +0.00    +0.000 A 
DOCKED: ATOM     18  C   UNL d   1      13.054  -5.638   3.918 -0.12 +0.02    +0.070 A 
DOCKED: ATOM     19  C   UNL d   1      11.613  -5.246   0.543 -0.15 -0.03    +0.052 C 
DOCKED: ATOM     20  C   UNL d   1      13.980  -5.942   6.221 -0.05 +0.05    +0.066 A 
DOCKED: ATOM     21  C   UNL d   1      14.938  -5.655   7.204 -0.07 -0.01    -0.025 A 
DOCKED: ATOM     22  C   UNL d   1      14.681  -6.521   8.246 -0.06 -0.01    -0.021 A 
DOCKED: ATOM     23  C   UNL d   1      13.586  -7.303   7.858 -0.07 +0.05    +0.066 A 
DOCKED: ATOM     24  C   UNL d   1      16.044  -4.626   7.171 -0.05 +0.02    +0.051 C 
DOCKED: ATOM     25  N   UNL d   1      11.518  -9.286   6.904 -0.05 -0.08    -0.248 N 
DOCKED: ATOM     26  N   UNL d   1      10.605  -9.076   4.207 -0.08 -0.02    -0.248 N 
DOCKED: ATOM     27  N   UNL d   1      12.272  -6.758   3.879 -0.07 -0.05    -0.248 N 
DOCKED: ATOM     28  N   UNL d   1      13.191  -6.975   6.604 -0.07 -0.18    -0.248 N 
DOCKED: ATOM     29 FE   UNL d   1      11.899  -8.024   5.405 -0.02 +0.00    +0.000 Fe
DOCKED: ENDROOT
DOCKED: BRANCH   6  30
DOCKED: ATOM     30  C   UNL d   1      11.593 -10.372  10.419 -0.11 +0.02    +0.052 C 
DOCKED: BRANCH  30  31
DOCKED: ATOM     31  C   UNL d   1      10.268 -10.336  11.172 -0.05 +0.05    +0.115 C 
DOCKED: BRANCH  31  32
DOCKED: ATOM     32  C   UNL d   1      10.253 -11.373  12.261 -0.16 +0.12    +0.139 C 
DOCKED: ATOM     33  O   UNL d   1       9.821 -12.497  12.045 -0.57 -0.78    -0.650 OA
DOCKED: BRANCH  32  34
DOCKED: ATOM     34  O   UNL d   1      10.716 -11.071  13.486 -0.20 -0.87    -0.776 OA
DOCKED: ATOM     35  H   UNL d   1      11.424 -10.418  13.572 +0.02 +0.11    +0.167 HD
DOCKED: ENDBRANCH  32  34
DOCKED: ENDBRANCH  31  32
DOCKED: ENDBRANCH  30  31
DOCKED: ENDBRANCH   6  30
DOCKED: BRANCH  22  36
DOCKED: ATOM     36  C   UNL d   1      15.475  -6.624   9.522 -0.02 +0.02    +0.052 C 
DOCKED: BRANCH  36  37
DOCKED: ATOM     37  C   UNL d   1      15.184  -5.420  10.406 -0.02 +0.05    +0.115 C 
DOCKED: BRANCH  37  38
DOCKED: ATOM     38  C   UNL d   1      13.872  -4.787  10.039 -0.03 +0.15    +0.139 C 
DOCKED: ATOM     39  O   UNL d   1      12.815  -5.298  10.378 -0.02 -0.88    -0.650 OA
DOCKED: BRANCH  38  40
DOCKED: ATOM     40  O   UNL d   1      13.853  -3.646   9.326 -0.50 -1.17    -0.776 OA
DOCKED: ATOM     41  H   UNL d   1      14.640  -3.084   9.319 +0.01 +0.13    +0.167 HD
DOCKED: ENDBRANCH  38  40
DOCKED: ENDBRANCH  37  38
DOCKED: ENDBRANCH  36  37
DOCKED: ENDBRANCH  22  36
DOCKED: BRANCH  12  42
DOCKED: ATOM     42  C   UNL d   1       9.116 -10.104   0.937 -0.42 -0.00    +0.004 C 
DOCKED: ATOM     43  C   UNL d   1       8.042  -9.454   0.469 -0.57 -0.00    +0.012 C 
DOCKED: ENDBRANCH  12  42
DOCKED: BRANCH  17  44
DOCKED: ATOM     44  C   UNL d   1      13.525  -3.615   2.403 -0.26 +0.00    +0.004 C 
DOCKED: ATOM     45  C   UNL d   1      12.830  -2.667   1.766 -0.36 +0.00    +0.012 C 
DOCKED: ENDBRANCH  17  44
DOCKED: TORSDOF 10
DOCKED: TER
DOCKED: ENDMDL
________________________________________________________________________________


	BEGINNING GENETIC ALGORITHM DOCKING 47 of 100
Run: 47 Seed: 641767520 1268384675 [ Run 47 of 100 GA/GALS ]
Beginning LAMARCKIAN GENETIC ALGORITHM (LGA), with a maximum of 25000000 energy evaluations.

Final-Value: -11.688


	FINAL GENETIC ALGORITHM DOCKED STATE
	_______________________________________________


Detailed state:  trans 7.392 -5.108 14.407 quatxyzw -0.452512 -0.167696 -0.874371 -0.050866 center -0.174 -0.001 -0.047 ntor 10 -169.6819 35.7255 12.6104 -171.0173 80.5086 -11.2839 -2.9441 66.4949 -179.9597 150.1443
State:	  7.392  -5.108  14.407  -0.453 -0.168 -0.876 -174.169   -169.68   35.73   12.61 -171.02   80.51  -11.28   -2.94   66.49 -179.96  150.14

DOCKED: MODEL       47
DOCKED: USER    Run = 47
DOCKED: USER    DPF = D:/Protein_go_brrr/autodock/final/mut_N102T/heme_Fe/dock.dpf
DOCKED: USER  
DOCKED: USER    Estimated Free Energy of Binding    =   -6.52 kcal/mol  [=(1)+(2)+(3)-(4)]
DOCKED: USER    Estimated Inhibition Constant, Ki   =   16.51 uM (micromolar)  [Temperature = 298.15 K]
DOCKED: USER    
DOCKED: USER    (1) Final Intermolecular Energy     =   -9.51 kcal/mol
DOCKED: USER        vdW + Hbond + desolv Energy     =   -7.09 kcal/mol
DOCKED: USER        Electrostatic Energy            =   -2.42 kcal/mol
DOCKED: USER    (2) Final Total Internal Energy     =   -2.18 kcal/mol
DOCKED: USER    (3) Torsional Free Energy           =   +2.98 kcal/mol
DOCKED: USER    (4) Unbound System's Energy  [=(2)] =   -2.18 kcal/mol
DOCKED: USER    
DOCKED: USER    
DOCKED: USER    NEWDPF move heme_Fe_opt.pdbqt
DOCKED: USER    NEWDPF about -0.174000 -0.001000 -0.047000
DOCKED: USER    NEWDPF tran0 7.392040 -5.107658 14.407414
DOCKED: USER    NEWDPF quaternion0 -0.452512 -0.167696 -0.874371 -0.050866
DOCKED: USER    NEWDPF axisangle0 -0.453098 -0.167914 -0.875504 -174.168692
DOCKED: USER    NEWDPF quat0 -0.453098 -0.167914 -0.875504 -174.168692
DOCKED: USER    NEWDPF dihe0 -169.68 35.73 12.61 -171.02 80.51 -11.28 -2.94 66.49 -179.96 150.14 
DOCKED: USER  keepresnum = 1 
DOCKED: USER  
DOCKED: REMARK  10 active torsions:
DOCKED: REMARK  status: ('A' for Active; 'I' for Inactive)
DOCKED: REMARK    1  A    between atoms: C_6  and  C_10 
DOCKED: REMARK    2  A    between atoms: C_10  and  C_11 
DOCKED: REMARK    3  A    between atoms: C_11  and  C_12 
DOCKED: REMARK    4  A    between atoms: C_12  and  O_14 
DOCKED: REMARK    5  A    between atoms: C_17  and  C_20 
DOCKED: REMARK    6  A    between atoms: C_24  and  C_27 
DOCKED: REMARK    7  A    between atoms: C_31  and  C_34 
DOCKED: REMARK    8  A    between atoms: C_34  and  C_35 
DOCKED: REMARK    9  A    between atoms: C_35  and  C_36 
DOCKED: REMARK   10  A    between atoms: C_36  and  O_38 
DOCKED: USER                              x       y       z     vdW  Elec       q    Type
DOCKED: USER                           _______ _______ _______ _____ _____    ______ ____
DOCKED: ROOT
DOCKED: ATOM      1  C   UNL d   1       8.949  -4.996  13.076 -0.14 +0.02    +0.064 C 
DOCKED: ATOM      2  C   UNL d   1       5.861  -1.712  15.102 -0.23 -0.00    +0.064 A 
DOCKED: ATOM      3  C   UNL d   1       4.602  -5.009  18.360 -0.13 -0.01    +0.064 C 
DOCKED: ATOM      4  C   UNL d   1       7.506  -8.236  16.350 -0.28 +0.01    +0.064 C 
DOCKED: ATOM      5  C   UNL d   1       8.135  -3.793  13.293 -0.11 +0.01    +0.066 A 
DOCKED: ATOM      6  C   UNL d   1       8.145  -2.673  12.477 -0.16 -0.01    -0.021 A 
DOCKED: ATOM      7  C   UNL d   1       7.290  -1.760  13.043 -0.22 -0.00    -0.025 A 
DOCKED: ATOM      8  C   UNL d   1       6.790  -2.358  14.183 -0.16 +0.00    +0.066 A 
DOCKED: ATOM      9  C   UNL d   1       6.964  -0.402  12.501 -0.39 +0.00    +0.051 C 
DOCKED: ATOM     10  C   UNL d   1       5.320  -2.287  16.177 -0.18 -0.01    +0.066 A 
DOCKED: ATOM     11  C   UNL d   1       4.523  -1.606  17.102 -0.24 +0.00    -0.021 A 
DOCKED: ATOM     12  C   UNL d   1       4.161  -2.531  18.060 -0.13 -0.00    +0.000 A 
DOCKED: ATOM     13  C   UNL d   1       4.768  -3.738  17.672 -0.10 -0.01    +0.070 A 
DOCKED: ATOM     14  C   UNL d   1       4.180  -0.130  17.109 -0.43 -0.01    +0.052 C 
DOCKED: ATOM     15  C   UNL d   1       5.226  -6.162  18.020 -0.17 -0.01    +0.066 A 
DOCKED: ATOM     16  C   UNL d   1       4.965  -7.377  18.640 -0.13 +0.00    -0.021 A 
DOCKED: ATOM     17  C   UNL d   1       5.804  -8.308  18.065 -0.22 -0.00    +0.000 A 
DOCKED: ATOM     18  C   UNL d   1       6.561  -7.637  17.108 -0.24 +0.00    +0.070 A 
DOCKED: ATOM     19  C   UNL d   1       3.984  -7.650  19.749 -0.15 -0.01    +0.052 C 
DOCKED: ATOM     20  C   UNL d   1       8.280  -7.576  15.291 -0.21 +0.01    +0.066 A 
DOCKED: ATOM     21  C   UNL d   1       9.393  -8.125  14.640 -0.17 -0.01    -0.025 A 
DOCKED: ATOM     22  C   UNL d   1       9.781  -7.190  13.702 -0.14 -0.01    -0.021 A 
DOCKED: ATOM     23  C   UNL d   1       8.897  -6.111  13.822 -0.15 +0.02    +0.066 A 
DOCKED: ATOM     24  C   UNL d   1      10.067  -9.455  14.882 -0.18 +0.03    +0.051 C 
DOCKED: ATOM     25  N   UNL d   1       7.298  -3.598  14.328 -0.06 -0.03    -0.248 N 
DOCKED: ATOM     26  N   UNL d   1       5.481  -3.588  16.529 -0.07 +0.01    -0.248 N 
DOCKED: ATOM     27  N   UNL d   1       6.176  -6.327  17.049 -0.11 +0.01    -0.248 N 
DOCKED: ATOM     28  N   UNL d   1       8.011  -6.333  14.824 -0.05 -0.04    -0.248 N 
DOCKED: ATOM     29 FE   UNL d   1       6.747  -4.962  15.677 -0.04 +0.00    +0.000 Fe
DOCKED: ENDROOT
DOCKED: BRANCH   6  30
DOCKED: ATOM     30  C   UNL d   1       8.911  -2.486  11.213 -0.19 +0.03    +0.052 C 
DOCKED: BRANCH  30  31
DOCKED: ATOM     31  C   UNL d   1      10.277  -1.870  11.495 -0.16 +0.07    +0.115 C 
DOCKED: BRANCH  31  32
DOCKED: ATOM     32  C   UNL d   1      11.072  -1.749  10.224 -0.19 +0.14    +0.139 C 
DOCKED: ATOM     33  O   UNL d   1      10.874  -0.822   9.451 -0.54 -0.60    -0.650 OA
DOCKED: BRANCH  32  34
DOCKED: ATOM     34  O   UNL d   1      12.011  -2.663   9.926 -0.07 -1.45    -0.776 OA
DOCKED: ATOM     35  H   UNL d   1      12.064  -3.471  10.455 +0.01 +0.30    +0.167 HD
DOCKED: ENDBRANCH  32  34
DOCKED: ENDBRANCH  31  32
DOCKED: ENDBRANCH  30  31
DOCKED: ENDBRANCH   6  30
DOCKED: BRANCH  22  36
DOCKED: ATOM     36  C   UNL d   1      10.964  -7.309  12.778 -0.09 +0.02    +0.052 C 
DOCKED: BRANCH  36  37
DOCKED: ATOM     37  C   UNL d   1      12.010  -6.268  13.147 -0.02 +0.04    +0.115 C 
DOCKED: BRANCH  37  38
DOCKED: ATOM     38  C   UNL d   1      12.177  -5.258  12.048 -0.05 +0.08    +0.139 C 
DOCKED: ATOM     39  O   UNL d   1      11.678  -5.443  10.947 +0.00 -0.75    -0.650 OA
DOCKED: BRANCH  38  40
DOCKED: ATOM     40  O   UNL d   1      12.884  -4.136  12.269 +0.02 -0.40    -0.776 OA
DOCKED: ATOM     41  H   UNL d   1      12.603  -3.312  11.847 +0.01 +0.11    +0.167 HD
DOCKED: ENDBRANCH  38  40
DOCKED: ENDBRANCH  37  38
DOCKED: ENDBRANCH  36  37
DOCKED: ENDBRANCH  22  36
DOCKED: BRANCH  12  42
DOCKED: ATOM     42  C   UNL d   1       3.311  -2.237  19.255 -0.14 -0.00    +0.004 C 
DOCKED: ATOM     43  C   UNL d   1       2.057  -1.788  19.116 -0.26 -0.01    +0.012 C 
DOCKED: ENDBRANCH  12  42
DOCKED: BRANCH  17  44
DOCKED: ATOM     44  C   UNL d   1       5.862  -9.750  18.394 -0.25 +0.00    +0.004 C 
DOCKED: ATOM     45  C   UNL d   1       6.973 -10.292  18.905 -0.17 +0.00    +0.012 C 
DOCKED: ENDBRANCH  17  44
DOCKED: TORSDOF 10
DOCKED: TER
DOCKED: ENDMDL
________________________________________________________________________________


	BEGINNING GENETIC ALGORITHM DOCKING 48 of 100
Run: 48 Seed: 825411999 705067059 [ Run 48 of 100 GA/GALS ]
Beginning LAMARCKIAN GENETIC ALGORITHM (LGA), with a maximum of 25000000 energy evaluations.

Final-Value: -10.158


	FINAL GENETIC ALGORITHM DOCKED STATE
	_______________________________________________


Detailed state:  trans -11.216 4.597 9.173 quatxyzw 0.048441 -0.713081 -0.148981 -0.683355 center -0.174 -0.001 -0.047 ntor 10 175.1851 -15.7868 65.3265 14.3560 81.8005 140.8450 -8.1005 74.2609 173.8118 156.3627
State:	-11.216   4.597   9.173   0.066 -0.977 -0.204 -93.787    175.19  -15.79   65.33   14.36   81.80  140.84   -8.10   74.26  173.81  156.36

DOCKED: MODEL       48
DOCKED: USER    Run = 48
DOCKED: USER    DPF = D:/Protein_go_brrr/autodock/final/mut_N102T/heme_Fe/dock.dpf
DOCKED: USER  
DOCKED: USER    Estimated Free Energy of Binding    =   -4.91 kcal/mol  [=(1)+(2)+(3)-(4)]
DOCKED: USER    Estimated Inhibition Constant, Ki   =  250.37 uM (micromolar)  [Temperature = 298.15 K]
DOCKED: USER    
DOCKED: USER    (1) Final Intermolecular Energy     =   -7.90 kcal/mol
DOCKED: USER        vdW + Hbond + desolv Energy     =   -7.44 kcal/mol
DOCKED: USER        Electrostatic Energy            =   -0.46 kcal/mol
DOCKED: USER    (2) Final Total Internal Energy     =   -2.26 kcal/mol
DOCKED: USER    (3) Torsional Free Energy           =   +2.98 kcal/mol
DOCKED: USER    (4) Unbound System's Energy  [=(2)] =   -2.26 kcal/mol
DOCKED: USER    
DOCKED: USER    
DOCKED: USER    NEWDPF move heme_Fe_opt.pdbqt
DOCKED: USER    NEWDPF about -0.174000 -0.001000 -0.047000
DOCKED: USER    NEWDPF tran0 -11.216064 4.596648 9.172962
DOCKED: USER    NEWDPF quaternion0 0.048441 -0.713081 -0.148981 -0.683355
DOCKED: USER    NEWDPF axisangle0 0.066350 -0.976708 -0.204059 -93.787274
DOCKED: USER    NEWDPF quat0 0.066350 -0.976708 -0.204059 -93.787274
DOCKED: USER    NEWDPF dihe0 175.19 -15.79 65.33 14.36 81.80 140.84 -8.10 74.26 173.81 156.36 
DOCKED: USER  keepresnum = 1 
DOCKED: USER  
DOCKED: REMARK  10 active torsions:
DOCKED: REMARK  status: ('A' for Active; 'I' for Inactive)
DOCKED: REMARK    1  A    between atoms: C_6  and  C_10 
DOCKED: REMARK    2  A    between atoms: C_10  and  C_11 
DOCKED: REMARK    3  A    between atoms: C_11  and  C_12 
DOCKED: REMARK    4  A    between atoms: C_12  and  O_14 
DOCKED: REMARK    5  A    between atoms: C_17  and  C_20 
DOCKED: REMARK    6  A    between atoms: C_24  and  C_27 
DOCKED: REMARK    7  A    between atoms: C_31  and  C_34 
DOCKED: REMARK    8  A    between atoms: C_34  and  C_35 
DOCKED: REMARK    9  A    between atoms: C_35  and  C_36 
DOCKED: REMARK   10  A    between atoms: C_36  and  O_38 
DOCKED: USER                              x       y       z     vdW  Elec       q    Type
DOCKED: USER                           _______ _______ _______ _____ _____    ______ ____
DOCKED: ROOT
DOCKED: ATOM      1  C   UNL d   1     -11.629   5.159   7.243 -0.13 +0.00    +0.064 C 
DOCKED: ATOM      2  C   UNL d   1     -12.108   0.973   9.827 -0.20 -0.01    +0.064 A 
DOCKED: ATOM      3  C   UNL d   1     -11.469   3.479  13.874 -0.17 +0.01    +0.064 C 
DOCKED: ATOM      4  C   UNL d   1     -10.897   7.525  11.386 -0.28 +0.00    +0.064 C 
DOCKED: ATOM      5  C   UNL d   1     -11.740   3.735   7.590 -0.27 -0.00    +0.066 A 
DOCKED: ATOM      6  C   UNL d   1     -11.824   2.702   6.671 -0.30 +0.00    -0.021 A 
DOCKED: ATOM      7  C   UNL d   1     -11.961   1.540   7.390 -0.28 +0.01    -0.025 A 
DOCKED: ATOM      8  C   UNL d   1     -11.954   1.909   8.721 -0.23 -0.01    +0.066 A 
DOCKED: ATOM      9  C   UNL d   1     -12.071   0.158   6.821 -0.21 -0.02    +0.051 C 
DOCKED: ATOM     10  C   UNL d   1     -12.048   1.295  11.120 -0.20 -0.01    +0.066 A 
DOCKED: ATOM     11  C   UNL d   1     -12.313   0.396  12.156 -0.13 +0.00    -0.021 A 
DOCKED: ATOM     12  C   UNL d   1     -12.152   1.098  13.333 -0.13 +0.00    +0.000 A 
DOCKED: ATOM     13  C   UNL d   1     -11.802   2.405  12.951 -0.18 +0.00    +0.070 A 
DOCKED: ATOM     14  C   UNL d   1     -12.765  -1.045  12.029 -0.07 -0.01    +0.052 C 
DOCKED: ATOM     15  C   UNL d   1     -11.182   4.751  13.512 -0.12 +0.01    +0.066 A 
DOCKED: ATOM     16  C   UNL d   1     -10.772   5.723  14.416 -0.16 -0.00    -0.021 A 
DOCKED: ATOM     17  C   UNL d   1     -10.610   6.892  13.702 -0.23 +0.00    +0.000 A 
DOCKED: ATOM     18  C   UNL d   1     -10.929   6.606  12.376 -0.23 +0.00    +0.070 A 
DOCKED: ATOM     19  C   UNL d   1     -10.564   5.568  15.899 -0.12 +0.00    +0.052 C 
DOCKED: ATOM     20  C   UNL d   1     -11.167   7.247   9.970 -0.27 -0.00    +0.066 A 
DOCKED: ATOM     21  C   UNL d   1     -11.333   8.217   8.972 -0.24 +0.00    -0.025 A 
DOCKED: ATOM     22  C   UNL d   1     -11.528   7.520   7.797 -0.25 +0.00    -0.021 A 
DOCKED: ATOM     23  C   UNL d   1     -11.480   6.160   8.124 -0.24 -0.00    +0.066 A 
DOCKED: ATOM     24  C   UNL d   1     -11.316   9.722   9.107 -0.19 -0.01    +0.051 C 
DOCKED: ATOM     25  N   UNL d   1     -11.810   3.244   8.839 -0.16 +0.01    -0.248 N 
DOCKED: ATOM     26  N   UNL d   1     -11.747   2.528  11.602 -0.16 +0.02    -0.248 N 
DOCKED: ATOM     27  N   UNL d   1     -11.239   5.281  12.251 -0.05 -0.01    -0.248 N 
DOCKED: ATOM     28  N   UNL d   1     -11.304   6.000   9.459 -0.19 +0.00    -0.248 N 
DOCKED: ATOM     29 FE   UNL d   1     -11.525   4.266  10.531 -0.07 -0.00    +0.000 Fe
DOCKED: ENDROOT
DOCKED: BRANCH   6  30
DOCKED: ATOM     30  C   UNL d   1     -11.756   2.808   5.186 -0.28 -0.00    +0.052 C 
DOCKED: BRANCH  30  31
DOCKED: ATOM     31  C   UNL d   1     -13.156   2.835   4.582 -0.14 -0.00    +0.115 C 
DOCKED: BRANCH  31  32
DOCKED: ATOM     32  C   UNL d   1     -13.089   3.138   3.111 -0.13 +0.02    +0.139 C 
DOCKED: ATOM     33  O   UNL d   1     -12.841   2.254   2.303 -0.43 -0.34    -0.650 OA
DOCKED: BRANCH  32  34
DOCKED: ATOM     34  O   UNL d   1     -13.301   4.389   2.669 +0.04 -0.10    -0.776 OA
DOCKED: ATOM     35  H   UNL d   1     -13.566   5.072   3.302 +0.03 +0.01    +0.167 HD
DOCKED: ENDBRANCH  32  34
DOCKED: ENDBRANCH  31  32
DOCKED: ENDBRANCH  30  31
DOCKED: ENDBRANCH   6  30
DOCKED: BRANCH  22  36
DOCKED: ATOM     36  C   UNL d   1     -11.794   8.131   6.447 -0.23 -0.00    +0.052 C 
DOCKED: BRANCH  36  37
DOCKED: ATOM     37  C   UNL d   1     -13.255   7.927   6.070 -0.08 -0.00    +0.115 C 
DOCKED: BRANCH  37  38
DOCKED: ATOM     38  C   UNL d   1     -13.395   6.880   5.002 -0.09 +0.00    +0.139 C 
DOCKED: ATOM     39  O   UNL d   1     -14.315   6.076   5.032 +0.02 +0.00    -0.650 OA
DOCKED: BRANCH  38  40
DOCKED: ATOM     40  O   UNL d   1     -12.498   6.817   4.002 -0.01 -0.05    -0.776 OA
DOCKED: ATOM     41  H   UNL d   1     -12.453   6.017   3.460 +0.03 +0.02    +0.167 HD
DOCKED: ENDBRANCH  38  40
DOCKED: ENDBRANCH  37  38
DOCKED: ENDBRANCH  36  37
DOCKED: ENDBRANCH  22  36
DOCKED: BRANCH  12  42
DOCKED: ATOM     42  C   UNL d   1     -12.347   0.530  14.703 -0.08 +0.00    +0.004 C 
DOCKED: ATOM     43  C   UNL d   1     -11.314   0.388  15.544 -0.13 +0.00    +0.012 C 
DOCKED: ENDBRANCH  12  42
DOCKED: BRANCH  17  44
DOCKED: ATOM     44  C   UNL d   1     -10.159   8.192  14.247 -0.22 +0.00    +0.004 C 
DOCKED: ATOM     45  C   UNL d   1      -8.905   8.353  14.685 -0.27 +0.00    +0.012 C 
DOCKED: ENDBRANCH  17  44
DOCKED: TORSDOF 10
DOCKED: TER
DOCKED: ENDMDL
________________________________________________________________________________


	BEGINNING GENETIC ALGORITHM DOCKING 49 of 100
Run: 49 Seed: 704072809 180266005 [ Run 49 of 100 GA/GALS ]
Beginning LAMARCKIAN GENETIC ALGORITHM (LGA), with a maximum of 25000000 energy evaluations.

Final-Value: -10.562


	FINAL GENETIC ALGORITHM DOCKED STATE
	_______________________________________________


Detailed state:  trans -11.484 4.875 12.668 quatxyzw 0.096740 0.713569 -0.102205 -0.686305 center -0.174 -0.001 -0.047 ntor 10 57.6253 -54.6142 -96.6985 168.7655 -68.3891 -174.0048 -116.7508 83.8045 156.2496 172.7632
State:	-11.484   4.875  12.668   0.133  0.981 -0.141 -93.323     57.63  -54.61  -96.70  168.77  -68.39 -174.00 -116.75   83.80  156.25  172.76

DOCKED: MODEL       49
DOCKED: USER    Run = 49
DOCKED: USER    DPF = D:/Protein_go_brrr/autodock/final/mut_N102T/heme_Fe/dock.dpf
DOCKED: USER  
DOCKED: USER    Estimated Free Energy of Binding    =   -5.48 kcal/mol  [=(1)+(2)+(3)-(4)]
DOCKED: USER    Estimated Inhibition Constant, Ki   =   95.50 uM (micromolar)  [Temperature = 298.15 K]
DOCKED: USER    
DOCKED: USER    (1) Final Intermolecular Energy     =   -8.47 kcal/mol
DOCKED: USER        vdW + Hbond + desolv Energy     =   -7.66 kcal/mol
DOCKED: USER        Electrostatic Energy            =   -0.81 kcal/mol
DOCKED: USER    (2) Final Total Internal Energy     =   -2.09 kcal/mol
DOCKED: USER    (3) Torsional Free Energy           =   +2.98 kcal/mol
DOCKED: USER    (4) Unbound System's Energy  [=(2)] =   -2.09 kcal/mol
DOCKED: USER    
DOCKED: USER    
DOCKED: USER    NEWDPF move heme_Fe_opt.pdbqt
DOCKED: USER    NEWDPF about -0.174000 -0.001000 -0.047000
DOCKED: USER    NEWDPF tran0 -11.484002 4.874815 12.668296
DOCKED: USER    NEWDPF quaternion0 0.096740 0.713569 -0.102205 -0.686305
DOCKED: USER    NEWDPF axisangle0 0.133010 0.981102 -0.140524 -93.323275
DOCKED: USER    NEWDPF quat0 0.133010 0.981102 -0.140524 -93.323275
DOCKED: USER    NEWDPF dihe0 57.63 -54.61 -96.70 168.77 -68.39 -174.00 -116.75 83.80 156.25 172.76 
DOCKED: USER  keepresnum = 1 
DOCKED: USER  
DOCKED: REMARK  10 active torsions:
DOCKED: REMARK  status: ('A' for Active; 'I' for Inactive)
DOCKED: REMARK    1  A    between atoms: C_6  and  C_10 
DOCKED: REMARK    2  A    between atoms: C_10  and  C_11 
DOCKED: REMARK    3  A    between atoms: C_11  and  C_12 
DOCKED: REMARK    4  A    between atoms: C_12  and  O_14 
DOCKED: REMARK    5  A    between atoms: C_17  and  C_20 
DOCKED: REMARK    6  A    between atoms: C_24  and  C_27 
DOCKED: REMARK    7  A    between atoms: C_31  and  C_34 
DOCKED: REMARK    8  A    between atoms: C_34  and  C_35 
DOCKED: REMARK    9  A    between atoms: C_35  and  C_36 
DOCKED: REMARK   10  A    between atoms: C_36  and  O_38 
DOCKED: USER                              x       y       z     vdW  Elec       q    Type
DOCKED: USER                           _______ _______ _______ _____ _____    ______ ____
DOCKED: ROOT
DOCKED: ATOM      1  C   UNL d   1     -10.912   4.674  14.629 -0.10 +0.01    +0.064 C 
DOCKED: ATOM      2  C   UNL d   1     -12.167   1.527  11.030 -0.20 -0.01    +0.064 A 
DOCKED: ATOM      3  C   UNL d   1     -11.629   5.073   7.836 -0.28 +0.00    +0.064 C 
DOCKED: ATOM      4  C   UNL d   1     -10.514   8.161  11.315 -0.29 +0.00    +0.064 C 
DOCKED: ATOM      5  C   UNL d   1     -11.396   3.481  13.922 -0.14 +0.01    +0.066 A 
DOCKED: ATOM      6  C   UNL d   1     -11.767   2.295  14.535 -0.12 -0.00    -0.021 A 
DOCKED: ATOM      7  C   UNL d   1     -12.112   1.420  13.534 -0.12 -0.00    -0.025 A 
DOCKED: ATOM      8  C   UNL d   1     -11.939   2.107  12.348 -0.19 -0.00    +0.066 A 
DOCKED: ATOM      9  C   UNL d   1     -12.597   0.015  13.719 -0.06 -0.00    +0.051 C 
DOCKED: ATOM     10  C   UNL d   1     -12.063   2.184   9.874 -0.21 -0.01    +0.066 A 
DOCKED: ATOM     11  C   UNL d   1     -12.176   1.573   8.623 -0.23 +0.00    -0.021 A 
DOCKED: ATOM     12  C   UNL d   1     -12.008   2.571   7.684 -0.28 -0.00    +0.000 A 
DOCKED: ATOM     13  C   UNL d   1     -11.790   3.750   8.419 -0.22 -0.00    +0.070 A 
DOCKED: ATOM     14  C   UNL d   1     -12.366   0.098   8.334 -0.22 -0.01    +0.052 C 
DOCKED: ATOM     15  C   UNL d   1     -11.368   6.202   8.536 -0.28 -0.00    +0.066 A 
DOCKED: ATOM     16  C   UNL d   1     -11.319   7.462   7.952 -0.28 +0.00    -0.021 A 
DOCKED: ATOM     17  C   UNL d   1     -10.995   8.354   8.953 -0.29 -0.00    +0.000 A 
DOCKED: ATOM     18  C   UNL d   1     -10.848   7.615  10.125 -0.30 -0.00    +0.070 A 
DOCKED: ATOM     19  C   UNL d   1     -11.544   7.813   6.506 -0.24 -0.00    +0.052 C 
DOCKED: ATOM     20  C   UNL d   1     -10.411   7.425  12.580 -0.29 +0.00    +0.066 A 
DOCKED: ATOM     21  C   UNL d   1      -9.876   7.934  13.772 -0.27 -0.00    -0.025 A 
DOCKED: ATOM     22  C   UNL d   1     -10.011   6.928  14.706 -0.21 -0.00    -0.021 A 
DOCKED: ATOM     23  C   UNL d   1     -10.614   5.848  14.050 -0.13 +0.01    +0.066 A 
DOCKED: ATOM     24  C   UNL d   1      -9.263   9.291  14.027 -0.17 +0.00    +0.051 C 
DOCKED: ATOM     25  N   UNL d   1     -11.512   3.363  12.588 -0.12 -0.01    -0.248 N 
DOCKED: ATOM     26  N   UNL d   1     -11.815   3.513   9.753 -0.09 +0.02    -0.248 N 
DOCKED: ATOM     27  N   UNL d   1     -11.120   6.298   9.879 -0.19 +0.00    -0.248 N 
DOCKED: ATOM     28  N   UNL d   1     -10.815   6.142  12.742 -0.16 -0.02    -0.248 N 
DOCKED: ATOM     29 FE   UNL d   1     -11.315   4.829  11.248 -0.07 +0.00    +0.000 Fe
DOCKED: ENDROOT
DOCKED: BRANCH   6  30
DOCKED: ATOM     30  C   UNL d   1     -11.813   2.011  15.997 -0.07 +0.01    +0.052 C 
DOCKED: BRANCH  30  31
DOCKED: ATOM     31  C   UNL d   1     -10.783   0.952  16.375 -0.11 +0.04    +0.115 C 
DOCKED: BRANCH  31  32
DOCKED: ATOM     32  C   UNL d   1      -9.391   1.450  16.101 -0.04 +0.08    +0.139 C 
DOCKED: ATOM     33  O   UNL d   1      -9.005   1.623  14.954 -0.07 -0.37    -0.650 OA
DOCKED: BRANCH  32  34
DOCKED: ATOM     34  O   UNL d   1      -8.555   1.710  17.121 -0.14 -0.47    -0.776 OA
DOCKED: ATOM     35  H   UNL d   1      -8.179   2.598  17.204 +0.05 +0.06    +0.167 HD
DOCKED: ENDBRANCH  32  34
DOCKED: ENDBRANCH  31  32
DOCKED: ENDBRANCH  30  31
DOCKED: ENDBRANCH   6  30
DOCKED: BRANCH  22  36
DOCKED: ATOM     36  C   UNL d   1      -9.541   6.986  16.136 -0.15 +0.00    +0.052 C 
DOCKED: BRANCH  36  37
DOCKED: ATOM     37  C   UNL d   1      -8.113   6.467  16.228 -0.22 +0.01    +0.115 C 
DOCKED: BRANCH  37  38
DOCKED: ATOM     38  C   UNL d   1      -8.091   5.023  16.641 -0.19 +0.02    +0.139 C 
DOCKED: ATOM     39  O   UNL d   1      -7.033   4.456  16.875 -0.03 -0.08    -0.650 OA
DOCKED: BRANCH  38  40
DOCKED: ATOM     40  O   UNL d   1      -9.243   4.339  16.753 +0.05 -0.11    -0.776 OA
DOCKED: ATOM     41  H   UNL d   1      -9.350   3.513  16.260 +0.05 +0.04    +0.167 HD
DOCKED: ENDBRANCH  38  40
DOCKED: ENDBRANCH  37  38
DOCKED: ENDBRANCH  36  37
DOCKED: ENDBRANCH  22  36
DOCKED: BRANCH  12  42
DOCKED: ATOM     42  C   UNL d   1     -12.041   2.368   6.203 -0.31 -0.00    +0.004 C 
DOCKED: ATOM     43  C   UNL d   1     -11.327   1.393   5.625 -0.28 -0.00    +0.012 C 
DOCKED: ENDBRANCH  12  42
DOCKED: BRANCH  17  44
DOCKED: ATOM     44  C   UNL d   1     -10.854   9.820   8.803 -0.24 -0.00    +0.004 C 
DOCKED: ATOM     45  C   UNL d   1      -9.848  10.475   9.390 -0.23 -0.00    +0.012 C 
DOCKED: ENDBRANCH  17  44
DOCKED: TORSDOF 10
DOCKED: TER
DOCKED: ENDMDL
________________________________________________________________________________


	BEGINNING GENETIC ALGORITHM DOCKING 50 of 100
Run: 50 Seed: 737717932 1488249944 [ Run 50 of 100 GA/GALS ]
Beginning LAMARCKIAN GENETIC ALGORITHM (LGA), with a maximum of 25000000 energy evaluations.

Final-Value: -11.396


	FINAL GENETIC ALGORITHM DOCKED STATE
	_______________________________________________


Detailed state:  trans 7.103 -5.461 16.529 quatxyzw 0.029479 -0.938927 0.182879 -0.290004 center -0.174 -0.001 -0.047 ntor 10 131.5948 -180.0000 -179.0318 66.6351 -179.9093 -79.2528 77.9358 -6.3390 -179.1540 -180.0000
State:	  7.103  -5.461  16.529   0.031 -0.981  0.191 -146.284    131.59 -180.00 -179.03   66.64 -179.91  -79.25   77.94   -6.34 -179.15 -180.00

DOCKED: MODEL       50
DOCKED: USER    Run = 50
DOCKED: USER    DPF = D:/Protein_go_brrr/autodock/final/mut_N102T/heme_Fe/dock.dpf
DOCKED: USER  
DOCKED: USER    Estimated Free Energy of Binding    =   -7.83 kcal/mol  [=(1)+(2)+(3)-(4)]
DOCKED: USER    Estimated Inhibition Constant, Ki   =    1.82 uM (micromolar)  [Temperature = 298.15 K]
DOCKED: USER    
DOCKED: USER    (1) Final Intermolecular Energy     =  -10.81 kcal/mol
DOCKED: USER        vdW + Hbond + desolv Energy     =   -7.02 kcal/mol
DOCKED: USER        Electrostatic Energy            =   -3.79 kcal/mol
DOCKED: USER    (2) Final Total Internal Energy     =   -0.58 kcal/mol
DOCKED: USER    (3) Torsional Free Energy           =   +2.98 kcal/mol
DOCKED: USER    (4) Unbound System's Energy  [=(2)] =   -0.58 kcal/mol
DOCKED: USER    
DOCKED: USER    
DOCKED: USER    NEWDPF move heme_Fe_opt.pdbqt
DOCKED: USER    NEWDPF about -0.174000 -0.001000 -0.047000
DOCKED: USER    NEWDPF tran0 7.102637 -5.461239 16.528800
DOCKED: USER    NEWDPF quaternion0 0.029479 -0.938927 0.182879 -0.290004
DOCKED: USER    NEWDPF axisangle0 0.030803 -0.981089 0.191091 -146.283551
DOCKED: USER    NEWDPF quat0 0.030803 -0.981089 0.191091 -146.283551
DOCKED: USER    NEWDPF dihe0 131.59 -180.00 -179.03 66.64 -179.91 -79.25 77.94 -6.34 -179.15 -180.00 
DOCKED: USER  keepresnum = 1 
DOCKED: USER  
DOCKED: REMARK  10 active torsions:
DOCKED: REMARK  status: ('A' for Active; 'I' for Inactive)
DOCKED: REMARK    1  A    between atoms: C_6  and  C_10 
DOCKED: REMARK    2  A    between atoms: C_10  and  C_11 
DOCKED: REMARK    3  A    between atoms: C_11  and  C_12 
DOCKED: REMARK    4  A    between atoms: C_12  and  O_14 
DOCKED: REMARK    5  A    between atoms: C_17  and  C_20 
DOCKED: REMARK    6  A    between atoms: C_24  and  C_27 
DOCKED: REMARK    7  A    between atoms: C_31  and  C_34 
DOCKED: REMARK    8  A    between atoms: C_34  and  C_35 
DOCKED: REMARK    9  A    between atoms: C_35  and  C_36 
DOCKED: REMARK   10  A    between atoms: C_36  and  O_38 
DOCKED: USER                              x       y       z     vdW  Elec       q    Type
DOCKED: USER                           _______ _______ _______ _____ _____    ______ ____
DOCKED: ROOT
DOCKED: ATOM      1  C   UNL d   1       8.473  -5.808  15.041 -0.13 +0.01    +0.064 C 
DOCKED: ATOM      2  C   UNL d   1       6.081  -8.650  18.303 -0.20 -0.00    +0.064 A 
DOCKED: ATOM      3  C   UNL d   1       3.064  -5.012  19.155 -0.12 -0.01    +0.064 C 
DOCKED: ATOM      4  C   UNL d   1       5.427  -2.211  16.081 -0.22 -0.01    +0.064 C 
DOCKED: ATOM      5  C   UNL d   1       8.130  -6.918  15.941 -0.15 +0.01    +0.066 A 
DOCKED: ATOM      6  C   UNL d   1       8.851  -8.095  16.056 -0.16 -0.01    -0.021 A 
DOCKED: ATOM      7  C   UNL d   1       8.185  -8.885  16.959 -0.19 -0.01    -0.025 A 
DOCKED: ATOM      8  C   UNL d   1       7.081  -8.159  17.362 -0.21 +0.01    +0.066 A 
DOCKED: ATOM      9  C   UNL d   1       8.602 -10.249  17.416 -0.14 +0.03    +0.051 C 
DOCKED: ATOM     10  C   UNL d   1       5.039  -7.949  18.752 -0.09 -0.01    +0.066 A 
DOCKED: ATOM     11  C   UNL d   1       4.036  -8.485  19.563 -0.11 +0.00    -0.021 A 
DOCKED: ATOM     12  C   UNL d   1       3.145  -7.460  19.809 -0.16 -0.00    +0.000 A 
DOCKED: ATOM     13  C   UNL d   1       3.650  -6.343  19.122 -0.14 -0.02    +0.070 A 
DOCKED: ATOM     14  C   UNL d   1       3.897  -9.921  20.025 -0.19 -0.01    +0.052 C 
DOCKED: ATOM     15  C   UNL d   1       3.517  -3.947  18.454 -0.09 -0.01    +0.066 A 
DOCKED: ATOM     16  C   UNL d   1       2.990  -2.669  18.590 -0.13 +0.01    -0.021 A 
DOCKED: ATOM     17  C   UNL d   1       3.668  -1.860  17.702 -0.24 -0.00    +0.000 A 
DOCKED: ATOM     18  C   UNL d   1       4.592  -2.666  17.040 -0.15 -0.01    +0.070 A 
DOCKED: ATOM     19  C   UNL d   1       1.875  -2.228  19.500 -0.17 -0.03    +0.052 C 
DOCKED: ATOM     20  C   UNL d   1       6.454  -3.015  15.408 -0.12 +0.00    +0.066 A 
DOCKED: ATOM     21  C   UNL d   1       7.185  -2.615  14.280 -0.14 -0.00    -0.025 A 
DOCKED: ATOM     22  C   UNL d   1       8.056  -3.650  14.009 -0.10 -0.00    -0.021 A 
DOCKED: ATOM     23  C   UNL d   1       7.818  -4.638  14.972 +0.00 +0.01    +0.066 A 
DOCKED: ATOM     24  C   UNL d   1       7.075  -1.332  13.491 -0.27 +0.00    +0.051 C 
DOCKED: ATOM     25  N   UNL d   1       7.056  -6.959  16.748 -0.12 -0.02    -0.248 N 
DOCKED: ATOM     26  N   UNL d   1       4.801  -6.643  18.470 -0.12 +0.05    -0.248 N 
DOCKED: ATOM     27  N   UNL d   1       4.531  -3.939  17.533 -0.07 +0.03    -0.248 N 
DOCKED: ATOM     28  N   UNL d   1       6.809  -4.264  15.795 +0.01 -0.01    -0.248 N 
DOCKED: ATOM     29 FE   UNL d   1       5.805  -5.451  17.132 -0.03 -0.00    +0.000 Fe
DOCKED: ENDROOT
DOCKED: BRANCH   6  30
DOCKED: ATOM     30  C   UNL d   1      10.122  -8.445  15.359 -0.12 +0.02    +0.052 C 
DOCKED: BRANCH  30  31
DOCKED: ATOM     31  C   UNL d   1       9.836  -9.133  14.028 -0.17 +0.06    +0.115 C 
DOCKED: BRANCH  31  32
DOCKED: ATOM     32  C   UNL d   1      10.034 -10.618  14.150 -0.06 +0.16    +0.139 C 
DOCKED: ATOM     33  O   UNL d   1       9.854 -11.352  13.188 -0.35 -1.02    -0.650 OA
DOCKED: BRANCH  32  34
DOCKED: ATOM     34  O   UNL d   1      10.412 -11.154  15.323 -0.22 -1.31    -0.776 OA
DOCKED: ATOM     35  H   UNL d   1      11.158 -10.763  15.800 +0.01 +0.15    +0.167 HD
DOCKED: ENDBRANCH  32  34
DOCKED: ENDBRANCH  31  32
DOCKED: ENDBRANCH  30  31
DOCKED: ENDBRANCH   6  30
DOCKED: BRANCH  22  36
DOCKED: ATOM     36  C   UNL d   1       9.026  -3.705  12.858 -0.11 +0.02    +0.052 C 
DOCKED: BRANCH  36  37
DOCKED: ATOM     37  C   UNL d   1       8.309  -4.185  11.605 -0.19 +0.05    +0.115 C 
DOCKED: BRANCH  37  38
DOCKED: ATOM     38  C   UNL d   1       9.203  -4.086  10.401 -0.13 +0.16    +0.139 C 
DOCKED: ATOM     39  O   UNL d   1       9.379  -3.015   9.839 -0.59 -0.91    -0.650 OA
DOCKED: BRANCH  38  40
DOCKED: ATOM     40  O   UNL d   1       9.818  -5.185   9.930 +0.07 -1.33    -0.776 OA
DOCKED: ATOM     41  H   UNL d   1       9.678  -6.031  10.378 +0.04 +0.16    +0.167 HD
DOCKED: ENDBRANCH  38  40
DOCKED: ENDBRANCH  37  38
DOCKED: ENDBRANCH  36  37
DOCKED: ENDBRANCH  22  36
DOCKED: BRANCH  12  42
DOCKED: ATOM     42  C   UNL d   1       1.902  -7.586  20.632 -0.14 -0.00    +0.004 C 
DOCKED: ATOM     43  C   UNL d   1       0.726  -7.133  20.177 -0.16 -0.00    +0.012 C 
DOCKED: ENDBRANCH  12  42
DOCKED: BRANCH  17  44
DOCKED: ATOM     44  C   UNL d   1       3.459  -0.406  17.513 -0.49 -0.00    +0.004 C 
DOCKED: ATOM     45  C   UNL d   1       4.459   0.460  17.708 -0.45 -0.00    +0.012 C 
DOCKED: ENDBRANCH  17  44
DOCKED: TORSDOF 10
DOCKED: TER
DOCKED: ENDMDL
________________________________________________________________________________


	BEGINNING GENETIC ALGORITHM DOCKING 51 of 100
Run: 51 Seed: 1919579804 1826812719 [ Run 51 of 100 GA/GALS ]
Beginning LAMARCKIAN GENETIC ALGORITHM (LGA), with a maximum of 25000000 energy evaluations.

Final-Value: -9.481


	FINAL GENETIC ALGORITHM DOCKED STATE
	_______________________________________________


Detailed state:  trans -11.281 4.573 13.209 quatxyzw 0.073901 -0.748270 0.126475 0.647020 center -0.174 -0.001 -0.047 ntor 10 -72.0414 87.4314 174.9272 -155.4115 -89.8319 104.5285 116.6009 124.5394 -151.8026 18.1564
State:	-11.281   4.573  13.209   0.097 -0.981  0.166 99.365    -72.04   87.43  174.93 -155.41  -89.83  104.53  116.60  124.54 -151.80   18.16

DOCKED: MODEL       51
DOCKED: USER    Run = 51
DOCKED: USER    DPF = D:/Protein_go_brrr/autodock/final/mut_N102T/heme_Fe/dock.dpf
DOCKED: USER  
DOCKED: USER    Estimated Free Energy of Binding    =   -5.64 kcal/mol  [=(1)+(2)+(3)-(4)]
DOCKED: USER    Estimated Inhibition Constant, Ki   =   73.78 uM (micromolar)  [Temperature = 298.15 K]
DOCKED: USER    
DOCKED: USER    (1) Final Intermolecular Energy     =   -8.62 kcal/mol
DOCKED: USER        vdW + Hbond + desolv Energy     =   -7.86 kcal/mol
DOCKED: USER        Electrostatic Energy            =   -0.76 kcal/mol
DOCKED: USER    (2) Final Total Internal Energy     =   -0.86 kcal/mol
DOCKED: USER    (3) Torsional Free Energy           =   +2.98 kcal/mol
DOCKED: USER    (4) Unbound System's Energy  [=(2)] =   -0.86 kcal/mol
DOCKED: USER    
DOCKED: USER    
DOCKED: USER    NEWDPF move heme_Fe_opt.pdbqt
DOCKED: USER    NEWDPF about -0.174000 -0.001000 -0.047000
DOCKED: USER    NEWDPF tran0 -11.280814 4.573469 13.209430
DOCKED: USER    NEWDPF quaternion0 0.073901 -0.748270 0.126475 0.647020
DOCKED: USER    NEWDPF axisangle0 0.096923 -0.981372 0.165874 99.365411
DOCKED: USER    NEWDPF quat0 0.096923 -0.981372 0.165874 99.365411
DOCKED: USER    NEWDPF dihe0 -72.04 87.43 174.93 -155.41 -89.83 104.53 116.60 124.54 -151.80 18.16 
DOCKED: USER  keepresnum = 1 
DOCKED: USER  
DOCKED: REMARK  10 active torsions:
DOCKED: REMARK  status: ('A' for Active; 'I' for Inactive)
DOCKED: REMARK    1  A    between atoms: C_6  and  C_10 
DOCKED: REMARK    2  A    between atoms: C_10  and  C_11 
DOCKED: REMARK    3  A    between atoms: C_11  and  C_12 
DOCKED: REMARK    4  A    between atoms: C_12  and  O_14 
DOCKED: REMARK    5  A    between atoms: C_17  and  C_20 
DOCKED: REMARK    6  A    between atoms: C_24  and  C_27 
DOCKED: REMARK    7  A    between atoms: C_31  and  C_34 
DOCKED: REMARK    8  A    between atoms: C_34  and  C_35 
DOCKED: REMARK    9  A    between atoms: C_35  and  C_36 
DOCKED: REMARK   10  A    between atoms: C_36  and  O_38 
DOCKED: USER                              x       y       z     vdW  Elec       q    Type
DOCKED: USER                           _______ _______ _______ _____ _____    ______ ____
DOCKED: ROOT
DOCKED: ATOM      1  C   UNL d   1     -10.458   5.010  15.038 -0.05 +0.01    +0.064 C 
DOCKED: ATOM      2  C   UNL d   1     -11.380   0.845  12.543 -0.23 -0.00    +0.064 A 
DOCKED: ATOM      3  C   UNL d   1     -12.018   3.453   8.560 -0.26 -0.00    +0.064 C 
DOCKED: ATOM      4  C   UNL d   1     -11.232   7.505  10.979 -0.24 -0.00    +0.064 C 
DOCKED: ATOM      5  C   UNL d   1     -10.741   3.603  14.723 -0.04 +0.01    +0.066 A 
DOCKED: ATOM      6  C   UNL d   1     -10.764   2.575  15.650 -0.14 -0.00    -0.021 A 
DOCKED: ATOM      7  C   UNL d   1     -11.017   1.418  14.956 -0.17 -0.01    -0.025 A 
DOCKED: ATOM      8  C   UNL d   1     -11.138   1.785  13.630 -0.21 +0.01    +0.066 A 
DOCKED: ATOM      9  C   UNL d   1     -11.151   0.046  15.544 -0.13 +0.02    +0.051 C 
DOCKED: ATOM     10  C   UNL d   1     -11.559   1.179  11.263 -0.23 -0.01    +0.066 A 
DOCKED: ATOM     11  C   UNL d   1     -11.675   0.248  10.228 -0.25 +0.00    -0.021 A 
DOCKED: ATOM     12  C   UNL d   1     -11.843   0.976   9.067 -0.26 -0.00    +0.000 A 
DOCKED: ATOM     13  C   UNL d   1     -11.812   2.326   9.456 -0.17 -0.01    +0.070 A 
DOCKED: ATOM     14  C   UNL d   1     -11.562  -1.259  10.331 -0.25 -0.02    +0.052 C 
DOCKED: ATOM     15  C   UNL d   1     -11.938   4.755   8.921 -0.22 -0.00    +0.066 A 
DOCKED: ATOM     16  C   UNL d   1     -12.240   5.802   8.059 -0.20 +0.00    -0.021 A 
DOCKED: ATOM     17  C   UNL d   1     -12.010   6.971   8.753 -0.20 -0.00    +0.000 A 
DOCKED: ATOM     18  C   UNL d   1     -11.569   6.611  10.024 -0.21 -0.00    +0.070 A 
DOCKED: ATOM     19  C   UNL d   1     -12.701   5.709   6.629 -0.16 -0.00    +0.052 C 
DOCKED: ATOM     20  C   UNL d   1     -10.823   7.163  12.346 -0.25 +0.00    +0.066 A 
DOCKED: ATOM     21  C   UNL d   1     -10.282   8.061  13.278 -0.25 -0.00    -0.025 A 
DOCKED: ATOM     22  C   UNL d   1     -10.081   7.331  14.432 -0.22 -0.00    -0.021 A 
DOCKED: ATOM     23  C   UNL d   1     -10.499   6.023  14.158 -0.13 +0.01    +0.066 A 
DOCKED: ATOM     24  C   UNL d   1      -9.964   9.527  13.100 -0.19 +0.00    +0.051 C 
DOCKED: ATOM     25  N   UNL d   1     -10.979   3.117  13.492 -0.06 -0.03    -0.248 N 
DOCKED: ATOM     26  N   UNL d   1     -11.630   2.451  10.794 -0.16 +0.03    -0.248 N 
DOCKED: ATOM     27  N   UNL d   1     -11.566   5.249  10.143 -0.06 +0.00    -0.248 N 
DOCKED: ATOM     28  N   UNL d   1     -10.908   5.917  12.870 -0.15 -0.02    -0.248 N 
DOCKED: ATOM     29 FE   UNL d   1     -11.269   4.186  11.832 -0.07 +0.00    +0.000 Fe
DOCKED: ENDROOT
DOCKED: BRANCH   6  30
DOCKED: ATOM     30  C   UNL d   1     -10.578   2.686  17.125 -0.09 +0.01    +0.052 C 
DOCKED: BRANCH  30  31
DOCKED: ATOM     31  C   UNL d   1      -9.186   3.215  17.455 -0.12 +0.02    +0.115 C 
DOCKED: BRANCH  31  32
DOCKED: ATOM     32  C   UNL d   1      -8.132   2.252  16.985 -0.25 +0.07    +0.139 C 
DOCKED: ATOM     33  O   UNL d   1      -7.729   1.361  17.721 -0.49 -0.49    -0.650 OA
DOCKED: BRANCH  32  34
DOCKED: ATOM     34  O   UNL d   1      -7.619   2.363  15.748 -0.02 -0.42    -0.776 OA
DOCKED: ATOM     35  H   UNL d   1      -6.714   2.687  15.642 -0.45 +0.05    +0.167 HD
DOCKED: ENDBRANCH  32  34
DOCKED: ENDBRANCH  31  32
DOCKED: ENDBRANCH  30  31
DOCKED: ENDBRANCH   6  30
DOCKED: BRANCH  22  36
DOCKED: ATOM     36  C   UNL d   1      -9.476   7.853  15.708 -0.16 +0.00    +0.052 C 
DOCKED: BRANCH  36  37
DOCKED: ATOM     37  C   UNL d   1     -10.513   7.818  16.820 -0.04 -0.00    +0.115 C 
DOCKED: BRANCH  37  38
DOCKED: ATOM     38  C   UNL d   1     -11.741   8.593  16.436 -0.02 -0.00    +0.139 C 
DOCKED: ATOM     39  O   UNL d   1     -12.766   8.017  16.103 +0.01 +0.01    -0.650 OA
DOCKED: BRANCH  38  40
DOCKED: ATOM     40  O   UNL d   1     -11.719   9.938  16.452 +0.02 +0.02    -0.776 OA
DOCKED: ATOM     41  H   UNL d   1     -12.006  10.403  17.250 +0.00 -0.01    +0.167 HD
DOCKED: ENDBRANCH  38  40
DOCKED: ENDBRANCH  37  38
DOCKED: ENDBRANCH  36  37
DOCKED: ENDBRANCH  22  36
DOCKED: BRANCH  12  42
DOCKED: ATOM     42  C   UNL d   1     -11.999   0.385   7.702 -0.30 -0.00    +0.004 C 
DOCKED: ATOM     43  C   UNL d   1     -11.360   0.908   6.647 -0.37 -0.00    +0.012 C 
DOCKED: ENDBRANCH  12  42
DOCKED: BRANCH  17  44
DOCKED: ATOM     44  C   UNL d   1     -12.220   8.344   8.240 -0.17 -0.00    +0.004 C 
DOCKED: ATOM     45  C   UNL d   1     -11.187   9.085   7.824 -0.25 -0.00    +0.012 C 
DOCKED: ENDBRANCH  17  44
DOCKED: TORSDOF 10
DOCKED: TER
DOCKED: ENDMDL
________________________________________________________________________________


	BEGINNING GENETIC ALGORITHM DOCKING 52 of 100
Run: 52 Seed: 1136461356 1274182296 [ Run 52 of 100 GA/GALS ]
Beginning LAMARCKIAN GENETIC ALGORITHM (LGA), with a maximum of 25000000 energy evaluations.

Final-Value: -10.035


	FINAL GENETIC ALGORITHM DOCKED STATE
	_______________________________________________


Detailed state:  trans -4.919 12.401 -10.669 quatxyzw 0.606131 -0.350652 0.706603 -0.101785 center -0.174 -0.001 -0.047 ntor 10 175.3907 -79.2491 -110.8708 57.9140 -28.4273 -175.8362 18.9513 -99.4072 -29.5438 -28.6082
State:	 -4.919  12.401 -10.669   0.609 -0.352  0.710 -168.316    175.39  -79.25 -110.87   57.91  -28.43 -175.84   18.95  -99.41  -29.54  -28.61

DOCKED: MODEL       52
DOCKED: USER    Run = 52
DOCKED: USER    DPF = D:/Protein_go_brrr/autodock/final/mut_N102T/heme_Fe/dock.dpf
DOCKED: USER  
DOCKED: USER    Estimated Free Energy of Binding    =   -5.42 kcal/mol  [=(1)+(2)+(3)-(4)]
DOCKED: USER    Estimated Inhibition Constant, Ki   =  105.97 uM (micromolar)  [Temperature = 298.15 K]
DOCKED: USER    
DOCKED: USER    (1) Final Intermolecular Energy     =   -8.41 kcal/mol
DOCKED: USER        vdW + Hbond + desolv Energy     =   -8.00 kcal/mol
DOCKED: USER        Electrostatic Energy            =   -0.40 kcal/mol
DOCKED: USER    (2) Final Total Internal Energy     =   -1.63 kcal/mol
DOCKED: USER    (3) Torsional Free Energy           =   +2.98 kcal/mol
DOCKED: USER    (4) Unbound System's Energy  [=(2)] =   -1.63 kcal/mol
DOCKED: USER    
DOCKED: USER    
DOCKED: USER    NEWDPF move heme_Fe_opt.pdbqt
DOCKED: USER    NEWDPF about -0.174000 -0.001000 -0.047000
DOCKED: USER    NEWDPF tran0 -4.919304 12.401140 -10.668578
DOCKED: USER    NEWDPF quaternion0 0.606131 -0.350652 0.706603 -0.101785
DOCKED: USER    NEWDPF axisangle0 0.609296 -0.352482 0.710292 -168.316082
DOCKED: USER    NEWDPF quat0 0.609296 -0.352482 0.710292 -168.316082
DOCKED: USER    NEWDPF dihe0 175.39 -79.25 -110.87 57.91 -28.43 -175.84 18.95 -99.41 -29.54 -28.61 
DOCKED: USER  keepresnum = 1 
DOCKED: USER  
DOCKED: REMARK  10 active torsions:
DOCKED: REMARK  status: ('A' for Active; 'I' for Inactive)
DOCKED: REMARK    1  A    between atoms: C_6  and  C_10 
DOCKED: REMARK    2  A    between atoms: C_10  and  C_11 
DOCKED: REMARK    3  A    between atoms: C_11  and  C_12 
DOCKED: REMARK    4  A    between atoms: C_12  and  O_14 
DOCKED: REMARK    5  A    between atoms: C_17  and  C_20 
DOCKED: REMARK    6  A    between atoms: C_24  and  C_27 
DOCKED: REMARK    7  A    between atoms: C_31  and  C_34 
DOCKED: REMARK    8  A    between atoms: C_34  and  C_35 
DOCKED: REMARK    9  A    between atoms: C_35  and  C_36 
DOCKED: REMARK   10  A    between atoms: C_36  and  O_38 
DOCKED: USER                              x       y       z     vdW  Elec       q    Type
DOCKED: USER                           _______ _______ _______ _____ _____    ______ ____
DOCKED: ROOT
DOCKED: ATOM      1  C   UNL d   1      -3.984  12.672 -12.475 -0.30 -0.01    +0.064 C 
DOCKED: ATOM      2  C   UNL d   1      -3.137  14.204  -7.852 -0.10 +0.01    +0.064 A 
DOCKED: ATOM      3  C   UNL d   1      -6.234  10.895  -6.262 -0.21 +0.00    +0.064 C 
DOCKED: ATOM      4  C   UNL d   1      -7.147   9.468 -10.736 -0.22 -0.01    +0.064 C 
DOCKED: ATOM      5  C   UNL d   1      -3.521  13.466 -11.328 -0.23 -0.01    +0.066 A 
DOCKED: ATOM      6  C   UNL d   1      -2.702  14.580 -11.416 -0.26 +0.00    -0.021 A 
DOCKED: ATOM      7  C   UNL d   1      -2.465  15.002 -10.131 -0.29 +0.00    -0.025 A 
DOCKED: ATOM      8  C   UNL d   1      -3.149  14.129  -9.308 -0.25 -0.00    +0.066 A 
DOCKED: ATOM      9  C   UNL d   1      -1.643  16.188  -9.730 -0.26 -0.00    +0.051 C 
DOCKED: ATOM     10  C   UNL d   1      -3.834  13.410  -7.037 -0.25 +0.00    +0.066 A 
DOCKED: ATOM     11  C   UNL d   1      -3.714  13.431  -5.645 -0.26 -0.00    -0.021 A 
DOCKED: ATOM     12  C   UNL d   1      -4.584  12.474  -5.164 -0.25 +0.00    +0.000 A 
DOCKED: ATOM     13  C   UNL d   1      -5.191  11.907  -6.298 -0.22 +0.00    +0.070 A 
DOCKED: ATOM     14  C   UNL d   1      -2.765  14.275  -4.818 -0.18 +0.01    +0.052 C 
DOCKED: ATOM     15  C   UNL d   1      -6.784  10.309  -7.352 -0.17 -0.00    +0.066 A 
DOCKED: ATOM     16  C   UNL d   1      -7.848   9.419  -7.279 -0.14 +0.00    -0.021 A 
DOCKED: ATOM     17  C   UNL d   1      -8.111   9.003  -8.568 -0.16 -0.00    +0.000 A 
DOCKED: ATOM     18  C   UNL d   1      -7.196   9.648  -9.398 -0.16 -0.00    +0.070 A 
DOCKED: ATOM     19  C   UNL d   1      -8.574   8.955  -6.045 -0.09 -0.00    +0.052 C 
DOCKED: ATOM     20  C   UNL d   1      -6.240  10.175 -11.648 -0.20 -0.01    +0.066 A 
DOCKED: ATOM     21  C   UNL d   1      -6.040   9.857 -12.999 -0.30 +0.01    -0.025 A 
DOCKED: ATOM     22  C   UNL d   1      -5.144  10.790 -13.478 -0.33 +0.00    -0.021 A 
DOCKED: ATOM     23  C   UNL d   1      -4.830  11.633 -12.405 -0.26 -0.01    +0.066 A 
DOCKED: ATOM     24  C   UNL d   1      -6.651   8.733 -13.804 -0.43 -0.02    +0.051 C 
DOCKED: ATOM     25  N   UNL d   1      -3.798  13.202 -10.039 -0.18 +0.03    -0.248 N 
DOCKED: ATOM     26  N   UNL d   1      -4.727  12.471  -7.440 -0.17 +0.00    -0.248 N 
DOCKED: ATOM     27  N   UNL d   1      -6.409  10.484  -8.657 -0.09 +0.01    -0.248 N 
DOCKED: ATOM     28  N   UNL d   1      -5.467  11.225 -11.280 -0.11 +0.02    -0.248 N 
DOCKED: ATOM     29 FE   UNL d   1      -5.098  11.846  -9.361 -0.05 -0.00    +0.000 Fe
DOCKED: ENDROOT
DOCKED: BRANCH   6  30
DOCKED: ATOM     30  C   UNL d   1      -2.188  15.225 -12.657 -0.05 +0.00    +0.052 C 
DOCKED: BRANCH  30  31
DOCKED: ATOM     31  C   UNL d   1      -3.339  15.695 -13.539 -0.13 +0.01    +0.115 C 
DOCKED: BRANCH  31  32
DOCKED: ATOM     32  C   UNL d   1      -2.867  15.912 -14.950 -0.20 +0.03    +0.139 C 
DOCKED: ATOM     33  O   UNL d   1      -1.706  16.225 -15.177 -0.08 -0.21    -0.650 OA
DOCKED: BRANCH  32  34
DOCKED: ATOM     34  O   UNL d   1      -3.720  15.764 -15.977 -0.03 -0.24    -0.776 OA
DOCKED: ATOM     35  H   UNL d   1      -4.618  15.451 -15.800 +0.03 +0.03    +0.167 HD
DOCKED: ENDBRANCH  32  34
DOCKED: ENDBRANCH  31  32
DOCKED: ENDBRANCH  30  31
DOCKED: ENDBRANCH   6  30
DOCKED: BRANCH  22  36
DOCKED: ATOM     36  C   UNL d   1      -4.586  10.838 -14.876 -0.33 -0.02    +0.052 C 
DOCKED: BRANCH  36  37
DOCKED: ATOM     37  C   UNL d   1      -5.689  11.208 -15.857 -0.28 -0.01    +0.115 C 
DOCKED: BRANCH  37  38
DOCKED: ATOM     38  C   UNL d   1      -5.941  12.689 -15.850 -0.13 +0.00    +0.139 C 
DOCKED: ATOM     39  O   UNL d   1      -6.843  13.173 -16.518 +0.04 -0.04    -0.650 OA
DOCKED: BRANCH  38  40
DOCKED: ATOM     40  O   UNL d   1      -5.167  13.498 -15.106 +0.05 -0.02    -0.776 OA
DOCKED: ATOM     41  H   UNL d   1      -4.456  13.994 -15.535 +0.05 +0.02    +0.167 HD
DOCKED: ENDBRANCH  38  40
DOCKED: ENDBRANCH  37  38
DOCKED: ENDBRANCH  36  37
DOCKED: ENDBRANCH  22  36
DOCKED: BRANCH  12  42
DOCKED: ATOM     42  C   UNL d   1      -4.779  12.144  -3.718 -0.27 +0.00    +0.004 C 
DOCKED: ATOM     43  C   UNL d   1      -3.774  11.648  -2.983 -0.40 +0.00    +0.012 C 
DOCKED: ENDBRANCH  12  42
DOCKED: BRANCH  17  44
DOCKED: ATOM     44  C   UNL d   1      -9.180   8.066  -8.981 -0.06 +0.00    +0.004 C 
DOCKED: ATOM     45  C   UNL d   1     -10.221   8.491  -9.704 -0.10 +0.00    +0.012 C 
DOCKED: ENDBRANCH  17  44
DOCKED: TORSDOF 10
DOCKED: TER
DOCKED: ENDMDL
________________________________________________________________________________


	BEGINNING GENETIC ALGORITHM DOCKING 53 of 100
Run: 53 Seed: 113725834 1666861894 [ Run 53 of 100 GA/GALS ]
Beginning LAMARCKIAN GENETIC ALGORITHM (LGA), with a maximum of 25000000 energy evaluations.

Final-Value: -10.397


	FINAL GENETIC ALGORITHM DOCKED STATE
	_______________________________________________


Detailed state:  trans -12.366 5.627 5.504 quatxyzw -0.714115 -0.316933 -0.498847 0.375160 center -0.174 -0.001 -0.047 ntor 10 150.6914 -88.3886 -162.1217 -104.5869 158.3018 -126.9674 -19.1721 -101.9806 -179.8943 5.3448
State:	-12.366   5.627   5.504  -0.770 -0.342 -0.538 135.932    150.69  -88.39 -162.12 -104.59  158.30 -126.97  -19.17 -101.98 -179.89    5.34

DOCKED: MODEL       53
DOCKED: USER    Run = 53
DOCKED: USER    DPF = D:/Protein_go_brrr/autodock/final/mut_N102T/heme_Fe/dock.dpf
DOCKED: USER  
DOCKED: USER    Estimated Free Energy of Binding    =   -5.95 kcal/mol  [=(1)+(2)+(3)-(4)]
DOCKED: USER    Estimated Inhibition Constant, Ki   =   43.83 uM (micromolar)  [Temperature = 298.15 K]
DOCKED: USER    
DOCKED: USER    (1) Final Intermolecular Energy     =   -8.93 kcal/mol
DOCKED: USER        vdW + Hbond + desolv Energy     =   -7.80 kcal/mol
DOCKED: USER        Electrostatic Energy            =   -1.13 kcal/mol
DOCKED: USER    (2) Final Total Internal Energy     =   -1.47 kcal/mol
DOCKED: USER    (3) Torsional Free Energy           =   +2.98 kcal/mol
DOCKED: USER    (4) Unbound System's Energy  [=(2)] =   -1.47 kcal/mol
DOCKED: USER    
DOCKED: USER    
DOCKED: USER    NEWDPF move heme_Fe_opt.pdbqt
DOCKED: USER    NEWDPF about -0.174000 -0.001000 -0.047000
DOCKED: USER    NEWDPF tran0 -12.366432 5.627358 5.504431
DOCKED: USER    NEWDPF quaternion0 -0.714115 -0.316933 -0.498847 0.375160
DOCKED: USER    NEWDPF axisangle0 -0.770384 -0.341906 -0.538153 135.931627
DOCKED: USER    NEWDPF quat0 -0.770384 -0.341906 -0.538153 135.931627
DOCKED: USER    NEWDPF dihe0 150.69 -88.39 -162.12 -104.59 158.30 -126.97 -19.17 -101.98 -179.89 5.34 
DOCKED: USER  keepresnum = 1 
DOCKED: USER  
DOCKED: REMARK  10 active torsions:
DOCKED: REMARK  status: ('A' for Active; 'I' for Inactive)
DOCKED: REMARK    1  A    between atoms: C_6  and  C_10 
DOCKED: REMARK    2  A    between atoms: C_10  and  C_11 
DOCKED: REMARK    3  A    between atoms: C_11  and  C_12 
DOCKED: REMARK    4  A    between atoms: C_12  and  O_14 
DOCKED: REMARK    5  A    between atoms: C_17  and  C_20 
DOCKED: REMARK    6  A    between atoms: C_24  and  C_27 
DOCKED: REMARK    7  A    between atoms: C_31  and  C_34 
DOCKED: REMARK    8  A    between atoms: C_34  and  C_35 
DOCKED: REMARK    9  A    between atoms: C_35  and  C_36 
DOCKED: REMARK   10  A    between atoms: C_36  and  O_38 
DOCKED: USER                              x       y       z     vdW  Elec       q    Type
DOCKED: USER                           _______ _______ _______ _____ _____    ______ ____
DOCKED: ROOT
DOCKED: ATOM      1  C   UNL d   1     -12.463   3.903   4.396 -0.20 +0.00    +0.064 C 
DOCKED: ATOM      2  C   UNL d   1     -11.807   8.687   3.340 -0.15 -0.00    +0.064 A 
DOCKED: ATOM      3  C   UNL d   1     -10.907   9.518   7.984 -0.13 -0.02    +0.064 C 
DOCKED: ATOM      4  C   UNL d   1     -11.641   4.911   9.045 -0.27 -0.00    +0.064 C 
DOCKED: ATOM      5  C   UNL d   1     -12.444   5.187   3.682 -0.11 +0.01    +0.066 A 
DOCKED: ATOM      6  C   UNL d   1     -12.766   5.352   2.345 -0.11 -0.00    -0.021 A 
DOCKED: ATOM      7  C   UNL d   1     -12.580   6.680   2.051 -0.11 -0.00    -0.025 A 
DOCKED: ATOM      8  C   UNL d   1     -12.151   7.275   3.222 -0.15 +0.01    +0.066 A 
DOCKED: ATOM      9  C   UNL d   1     -12.823   7.334   0.725 -0.05 +0.00    +0.051 C 
DOCKED: ATOM     10  C   UNL d   1     -11.445   9.297   4.470 -0.18 -0.00    +0.066 A 
DOCKED: ATOM     11  C   UNL d   1     -11.011  10.623   4.529 -0.15 +0.00    -0.021 A 
DOCKED: ATOM     12  C   UNL d   1     -10.729  10.883   5.855 -0.20 -0.00    +0.000 A 
DOCKED: ATOM     13  C   UNL d   1     -11.001   9.687   6.542 -0.15 -0.01    +0.070 A 
DOCKED: ATOM     14  C   UNL d   1     -10.809  11.577   3.369 -0.10 -0.00    +0.052 C 
DOCKED: ATOM     15  C   UNL d   1     -11.117   8.355   8.644 -0.25 -0.01    +0.066 A 
DOCKED: ATOM     16  C   UNL d   1     -11.115   8.258  10.029 -0.24 +0.00    -0.021 A 
DOCKED: ATOM     17  C   UNL d   1     -11.323   6.929  10.338 -0.27 -0.00    +0.000 A 
DOCKED: ATOM     18  C   UNL d   1     -11.443   6.245   9.130 -0.27 -0.00    +0.070 A 
DOCKED: ATOM     19  C   UNL d   1     -10.901   9.364  11.027 -0.19 -0.00    +0.052 C 
DOCKED: ATOM     20  C   UNL d   1     -11.833   4.167   7.795 -0.25 -0.00    +0.066 A 
DOCKED: ATOM     21  C   UNL d   1     -11.838   2.770   7.676 -0.29 +0.00    -0.025 A 
DOCKED: ATOM     22  C   UNL d   1     -12.087   2.504   6.345 -0.26 +0.00    -0.021 A 
DOCKED: ATOM     23  C   UNL d   1     -12.216   3.743   5.706 -0.19 -0.00    +0.066 A 
DOCKED: ATOM     24  C   UNL d   1     -11.618   1.731   8.752 -0.30 -0.01    +0.051 C 
DOCKED: ATOM     25  N   UNL d   1     -12.078   6.366   4.214 -0.03 -0.02    -0.248 N 
DOCKED: ATOM     26  N   UNL d   1     -11.429   8.717   5.697 -0.17 +0.02    -0.248 N 
DOCKED: ATOM     27  N   UNL d   1     -11.360   7.127   8.089 -0.19 +0.02    -0.248 N 
DOCKED: ATOM     28  N   UNL d   1     -12.016   4.754   6.587 -0.11 -0.00    -0.248 N 
DOCKED: ATOM     29 FE   UNL d   1     -11.722   6.734   6.144 -0.05 -0.00    +0.000 Fe
DOCKED: ENDROOT
DOCKED: BRANCH   6  30
DOCKED: ATOM     30  C   UNL d   1     -13.248   4.307   1.397 -0.08 +0.01    +0.052 C 
DOCKED: BRANCH  30  31
DOCKED: ATOM     31  C   UNL d   1     -12.076   3.647   0.680 -0.18 +0.04    +0.115 C 
DOCKED: BRANCH  31  32
DOCKED: ATOM     32  C   UNL d   1     -12.492   2.323   0.100 -0.09 +0.10    +0.139 C 
DOCKED: ATOM     33  O   UNL d   1     -11.865   1.822  -0.823 -0.47 -0.67    -0.650 OA
DOCKED: BRANCH  32  34
DOCKED: ATOM     34  O   UNL d   1     -13.562   1.677   0.593 -0.31 -0.50    -0.776 OA
DOCKED: ATOM     35  H   UNL d   1     -13.797   1.801   1.524 +0.02 +0.08    +0.167 HD
DOCKED: ENDBRANCH  32  34
DOCKED: ENDBRANCH  31  32
DOCKED: ENDBRANCH  30  31
DOCKED: ENDBRANCH   6  30
DOCKED: BRANCH  22  36
DOCKED: ATOM     36  C   UNL d   1     -12.147   1.137   5.717 -0.28 -0.02    +0.052 C 
DOCKED: BRANCH  36  37
DOCKED: ATOM     37  C   UNL d   1     -13.598   0.737   5.496 -0.14 -0.03    +0.115 C 
DOCKED: BRANCH  37  38
DOCKED: ATOM     38  C   UNL d   1     -14.172   1.436   4.296 -0.09 -0.01    +0.139 C 
DOCKED: ATOM     39  O   UNL d   1     -15.214   2.069   4.380 +0.03 +0.01    -0.650 OA
DOCKED: BRANCH  38  40
DOCKED: ATOM     40  O   UNL d   1     -13.539   1.364   3.111 -0.04 -0.20    -0.776 OA
DOCKED: ATOM     41  H   UNL d   1     -13.773   0.655   2.495 +0.03 +0.07    +0.167 HD
DOCKED: ENDBRANCH  38  40
DOCKED: ENDBRANCH  37  38
DOCKED: ENDBRANCH  36  37
DOCKED: ENDBRANCH  22  36
DOCKED: BRANCH  12  42
DOCKED: ATOM     42  C   UNL d   1     -10.221  12.187   6.384 -0.19 -0.00    +0.004 C 
DOCKED: ATOM     43  C   UNL d   1      -8.997  12.284   6.918 -0.31 -0.00    +0.012 C 
DOCKED: ENDBRANCH  12  42
DOCKED: BRANCH  17  44
DOCKED: ATOM     44  C   UNL d   1     -11.422   6.355  11.699 -0.24 +0.00    +0.004 C 
DOCKED: ATOM     45  C   UNL d   1     -10.488   6.613  12.620 -0.32 +0.00    +0.012 C 
DOCKED: ENDBRANCH  17  44
DOCKED: TORSDOF 10
DOCKED: TER
DOCKED: ENDMDL
________________________________________________________________________________


	BEGINNING GENETIC ALGORITHM DOCKING 54 of 100
Run: 54 Seed: 2091290654 51164022 [ Run 54 of 100 GA/GALS ]
Beginning LAMARCKIAN GENETIC ALGORITHM (LGA), with a maximum of 25000000 energy evaluations.

Final-Value: -9.784


	FINAL GENETIC ALGORITHM DOCKED STATE
	_______________________________________________


Detailed state:  trans -10.919 4.360 12.438 quatxyzw 0.643720 -0.047980 -0.742517 0.178861 center -0.174 -0.001 -0.047 ntor 10 103.0260 -171.9699 -178.9611 74.9652 167.7010 -59.0508 -64.6890 154.0219 -139.3416 18.5429
State:	-10.919   4.360  12.438   0.654 -0.049 -0.755 159.393    103.03 -171.97 -178.96   74.97  167.70  -59.05  -64.69  154.02 -139.34   18.54

DOCKED: MODEL       54
DOCKED: USER    Run = 54
DOCKED: USER    DPF = D:/Protein_go_brrr/autodock/final/mut_N102T/heme_Fe/dock.dpf
DOCKED: USER  
DOCKED: USER    Estimated Free Energy of Binding    =   -5.03 kcal/mol  [=(1)+(2)+(3)-(4)]
DOCKED: USER    Estimated Inhibition Constant, Ki   =  203.89 uM (micromolar)  [Temperature = 298.15 K]
DOCKED: USER    
DOCKED: USER    (1) Final Intermolecular Energy     =   -8.02 kcal/mol
DOCKED: USER        vdW + Hbond + desolv Energy     =   -7.26 kcal/mol
DOCKED: USER        Electrostatic Energy            =   -0.75 kcal/mol
DOCKED: USER    (2) Final Total Internal Energy     =   -1.77 kcal/mol
DOCKED: USER    (3) Torsional Free Energy           =   +2.98 kcal/mol
DOCKED: USER    (4) Unbound System's Energy  [=(2)] =   -1.77 kcal/mol
DOCKED: USER    
DOCKED: USER    
DOCKED: USER    NEWDPF move heme_Fe_opt.pdbqt
DOCKED: USER    NEWDPF about -0.174000 -0.001000 -0.047000
DOCKED: USER    NEWDPF tran0 -10.919491 4.360120 12.437859
DOCKED: USER    NEWDPF quaternion0 0.643720 -0.047980 -0.742517 0.178861
DOCKED: USER    NEWDPF axisangle0 0.654271 -0.048766 -0.754686 159.393168
DOCKED: USER    NEWDPF quat0 0.654271 -0.048766 -0.754686 159.393168
DOCKED: USER    NEWDPF dihe0 103.03 -171.97 -178.96 74.97 167.70 -59.05 -64.69 154.02 -139.34 18.54 
DOCKED: USER  keepresnum = 1 
DOCKED: USER  
DOCKED: REMARK  10 active torsions:
DOCKED: REMARK  status: ('A' for Active; 'I' for Inactive)
DOCKED: REMARK    1  A    between atoms: C_6  and  C_10 
DOCKED: REMARK    2  A    between atoms: C_10  and  C_11 
DOCKED: REMARK    3  A    between atoms: C_11  and  C_12 
DOCKED: REMARK    4  A    between atoms: C_12  and  O_14 
DOCKED: REMARK    5  A    between atoms: C_17  and  C_20 
DOCKED: REMARK    6  A    between atoms: C_24  and  C_27 
DOCKED: REMARK    7  A    between atoms: C_31  and  C_34 
DOCKED: REMARK    8  A    between atoms: C_34  and  C_35 
DOCKED: REMARK    9  A    between atoms: C_35  and  C_36 
DOCKED: REMARK   10  A    between atoms: C_36  and  O_38 
DOCKED: USER                              x       y       z     vdW  Elec       q    Type
DOCKED: USER                           _______ _______ _______ _____ _____    ______ ____
DOCKED: ROOT
DOCKED: ATOM      1  C   UNL d   1     -11.187   4.172  14.464 -0.15 +0.01    +0.064 C 
DOCKED: ATOM      2  C   UNL d   1     -10.308   7.955  11.406 -0.29 +0.00    +0.064 A 
DOCKED: ATOM      3  C   UNL d   1     -11.494   5.143   7.697 -0.18 +0.00    +0.064 C 
DOCKED: ATOM      4  C   UNL d   1     -12.248   1.438  10.629 -0.22 -0.01    +0.064 C 
DOCKED: ATOM      5  C   UNL d   1     -10.749   5.473  13.940 -0.10 +0.01    +0.066 A 
DOCKED: ATOM      6  C   UNL d   1     -10.231   6.501  14.710 -0.19 -0.00    -0.021 A 
DOCKED: ATOM      7  C   UNL d   1      -9.991   7.553  13.860 -0.27 -0.00    -0.025 A 
DOCKED: ATOM      8  C   UNL d   1     -10.372   7.125  12.603 -0.30 +0.01    +0.066 A 
DOCKED: ATOM      9  C   UNL d   1      -9.411   8.880  14.241 -0.23 +0.00    +0.051 C 
DOCKED: ATOM     10  C   UNL d   1     -10.615   7.548  10.173 -0.33 -0.00    +0.066 A 
DOCKED: ATOM     11  C   UNL d   1     -10.654   8.398   9.065 -0.31 +0.00    -0.021 A 
DOCKED: ATOM     12  C   UNL d   1     -11.010   7.614   7.985 -0.32 -0.00    +0.000 A 
DOCKED: ATOM     13  C   UNL d   1     -11.179   6.316   8.497 -0.30 -0.00    +0.070 A 
DOCKED: ATOM     14  C   UNL d   1     -10.430   9.896   9.047 -0.24 -0.01    +0.052 C 
DOCKED: ATOM     15  C   UNL d   1     -11.709   3.901   8.193 -0.25 +0.00    +0.066 A 
DOCKED: ATOM     16  C   UNL d   1     -11.908   2.787   7.387 -0.28 +0.00    -0.021 A 
DOCKED: ATOM     17  C   UNL d   1     -12.129   1.718   8.231 -0.25 -0.00    +0.000 A 
DOCKED: ATOM     18  C   UNL d   1     -12.064   2.207   9.534 -0.21 -0.01    +0.070 A 
DOCKED: ATOM     19  C   UNL d   1     -11.916   2.731   5.883 -0.30 -0.00    +0.052 C 
DOCKED: ATOM     20  C   UNL d   1     -12.126   1.905  12.015 -0.18 -0.00    +0.066 A 
DOCKED: ATOM     21  C   UNL d   1     -12.507   1.177  13.152 -0.09 +0.00    -0.025 A 
DOCKED: ATOM     22  C   UNL d   1     -12.184   1.970  14.234 -0.10 -0.00    -0.021 A 
DOCKED: ATOM     23  C   UNL d   1     -11.628   3.146  13.718 -0.16 +0.00    +0.066 A 
DOCKED: ATOM     24  C   UNL d   1     -13.147  -0.190  13.225 -0.04 -0.00    +0.051 C 
DOCKED: ATOM     25  N   UNL d   1     -10.824   5.856  12.653 -0.14 -0.02    -0.248 N 
DOCKED: ATOM     26  N   UNL d   1     -10.947   6.277   9.833 -0.21 +0.00    -0.248 N 
DOCKED: ATOM     27  N   UNL d   1     -11.762   3.540   9.512 -0.10 +0.02    -0.248 N 
DOCKED: ATOM     28  N   UNL d   1     -11.636   3.120  12.363 -0.15 -0.00    -0.248 N 
DOCKED: ATOM     29 FE   UNL d   1     -11.292   4.696  11.097 -0.07 -0.00    +0.000 Fe
DOCKED: ENDROOT
DOCKED: BRANCH   6  30
DOCKED: ATOM     30  C   UNL d   1      -9.957   6.481  16.175 -0.13 +0.00    +0.052 C 
DOCKED: BRANCH  30  31
DOCKED: ATOM     31  C   UNL d   1     -11.173   5.978  16.945 -0.04 +0.00    +0.115 C 
DOCKED: BRANCH  31  32
DOCKED: ATOM     32  C   UNL d   1     -10.859   4.678  17.632 -0.03 +0.01    +0.139 C 
DOCKED: ATOM     33  O   UNL d   1     -11.615   4.221  18.478 +0.02 -0.01    -0.650 OA
DOCKED: BRANCH  32  34
DOCKED: ATOM     34  O   UNL d   1      -9.739   4.003  17.320 +0.06 -0.08    -0.776 OA
DOCKED: ATOM     35  H   UNL d   1      -9.712   3.493  16.498 +0.05 +0.03    +0.167 HD
DOCKED: ENDBRANCH  32  34
DOCKED: ENDBRANCH  31  32
DOCKED: ENDBRANCH  30  31
DOCKED: ENDBRANCH   6  30
DOCKED: BRANCH  22  36
DOCKED: ATOM     36  C   UNL d   1     -12.443   1.633  15.679 -0.05 +0.00    +0.052 C 
DOCKED: BRANCH  36  37
DOCKED: ATOM     37  C   UNL d   1     -11.120   1.488  16.416 -0.09 +0.02    +0.115 C 
DOCKED: BRANCH  37  38
DOCKED: ATOM     38  C   UNL d   1     -10.022   1.074  15.477 -0.13 +0.07    +0.139 C 
DOCKED: ATOM     39  O   UNL d   1     -10.103   0.033  14.841 -0.02 -0.41    -0.650 OA
DOCKED: BRANCH  38  40
DOCKED: ATOM     40  O   UNL d   1      -8.934   1.850  15.333 -0.02 -0.42    -0.776 OA
DOCKED: ATOM     41  H   UNL d   1      -8.818   2.611  15.920 +0.05 +0.07    +0.167 HD
DOCKED: ENDBRANCH  38  40
DOCKED: ENDBRANCH  37  38
DOCKED: ENDBRANCH  36  37
DOCKED: ENDBRANCH  22  36
DOCKED: BRANCH  12  42
DOCKED: ATOM     42  C   UNL d   1     -11.183   8.113   6.586 -0.31 -0.00    +0.004 C 
DOCKED: ATOM     43  C   UNL d   1     -12.275   7.803   5.874 -0.19 -0.00    +0.012 C 
DOCKED: ENDBRANCH  12  42
DOCKED: BRANCH  17  44
DOCKED: ATOM     44  C   UNL d   1     -12.367   0.316   7.818 -0.25 -0.00    +0.004 C 
DOCKED: ATOM     45  C   UNL d   1     -11.655  -0.684   8.346 -0.23 -0.00    +0.012 C 
DOCKED: ENDBRANCH  17  44
DOCKED: TORSDOF 10
DOCKED: TER
DOCKED: ENDMDL
________________________________________________________________________________


	BEGINNING GENETIC ALGORITHM DOCKING 55 of 100
Run: 55 Seed: 483208702 1052336953 [ Run 55 of 100 GA/GALS ]
Beginning LAMARCKIAN GENETIC ALGORITHM (LGA), with a maximum of 25000000 energy evaluations.

Final-Value: -11.049


	FINAL GENETIC ALGORITHM DOCKED STATE
	_______________________________________________


Detailed state:  trans 6.954 -5.387 15.843 quatxyzw 0.361474 0.186424 0.909232 -0.088773 center -0.174 -0.001 -0.047 ntor 10 119.6734 125.7433 61.6191 15.7640 -17.6703 -169.3229 45.2074 72.5496 51.1227 -8.7135
State:	  6.954  -5.387  15.843   0.363  0.187  0.913 -169.814    119.67  125.74   61.62   15.76  -17.67 -169.32   45.21   72.55   51.12   -8.71

DOCKED: MODEL       55
DOCKED: USER    Run = 55
DOCKED: USER    DPF = D:/Protein_go_brrr/autodock/final/mut_N102T/heme_Fe/dock.dpf
DOCKED: USER  
DOCKED: USER    Estimated Free Energy of Binding    =   -7.75 kcal/mol  [=(1)+(2)+(3)-(4)]
DOCKED: USER    Estimated Inhibition Constant, Ki   =    2.09 uM (micromolar)  [Temperature = 298.15 K]
DOCKED: USER    
DOCKED: USER    (1) Final Intermolecular Energy     =  -10.73 kcal/mol
DOCKED: USER        vdW + Hbond + desolv Energy     =   -6.91 kcal/mol
DOCKED: USER        Electrostatic Energy            =   -3.82 kcal/mol
DOCKED: USER    (2) Final Total Internal Energy     =   -0.32 kcal/mol
DOCKED: USER    (3) Torsional Free Energy           =   +2.98 kcal/mol
DOCKED: USER    (4) Unbound System's Energy  [=(2)] =   -0.32 kcal/mol
DOCKED: USER    
DOCKED: USER    
DOCKED: USER    NEWDPF move heme_Fe_opt.pdbqt
DOCKED: USER    NEWDPF about -0.174000 -0.001000 -0.047000
DOCKED: USER    NEWDPF tran0 6.953615 -5.386698 15.843355
DOCKED: USER    NEWDPF quaternion0 0.361474 0.186424 0.909232 -0.088773
DOCKED: USER    NEWDPF axisangle0 0.362907 0.187163 0.912835 -169.813942
DOCKED: USER    NEWDPF quat0 0.362907 0.187163 0.912835 -169.813942
DOCKED: USER    NEWDPF dihe0 119.67 125.74 61.62 15.76 -17.67 -169.32 45.21 72.55 51.12 -8.71 
DOCKED: USER  keepresnum = 1 
DOCKED: USER  
DOCKED: REMARK  10 active torsions:
DOCKED: REMARK  status: ('A' for Active; 'I' for Inactive)
DOCKED: REMARK    1  A    between atoms: C_6  and  C_10 
DOCKED: REMARK    2  A    between atoms: C_10  and  C_11 
DOCKED: REMARK    3  A    between atoms: C_11  and  C_12 
DOCKED: REMARK    4  A    between atoms: C_12  and  O_14 
DOCKED: REMARK    5  A    between atoms: C_17  and  C_20 
DOCKED: REMARK    6  A    between atoms: C_24  and  C_27 
DOCKED: REMARK    7  A    between atoms: C_31  and  C_34 
DOCKED: REMARK    8  A    between atoms: C_34  and  C_35 
DOCKED: REMARK    9  A    between atoms: C_35  and  C_36 
DOCKED: REMARK   10  A    between atoms: C_36  and  O_38 
DOCKED: USER                              x       y       z     vdW  Elec       q    Type
DOCKED: USER                           _______ _______ _______ _____ _____    ______ ____
DOCKED: ROOT
DOCKED: ATOM      1  C   UNL d   1       8.755  -5.773  14.939 -0.12 +0.01    +0.064 C 
DOCKED: ATOM      2  C   UNL d   1       6.069  -1.703  15.748 -0.21 -0.00    +0.064 A 
DOCKED: ATOM      3  C   UNL d   1       3.443  -4.154  18.937 -0.09 -0.01    +0.064 C 
DOCKED: ATOM      4  C   UNL d   1       5.962  -8.132  18.091 -0.23 -0.00    +0.064 C 
DOCKED: ATOM      5  C   UNL d   1       8.189  -4.423  14.810 -0.08 +0.01    +0.066 A 
DOCKED: ATOM      6  C   UNL d   1       8.619  -3.469  13.902 -0.08 -0.00    -0.021 A 
DOCKED: ATOM      7  C   UNL d   1       7.876  -2.338  14.130 -0.12 -0.00    -0.025 A 
DOCKED: ATOM      8  C   UNL d   1       7.019  -2.646  15.169 -0.11 +0.00    +0.066 A 
DOCKED: ATOM      9  C   UNL d   1       7.976  -1.048  13.375 -0.25 +0.01    +0.051 C 
DOCKED: ATOM     10  C   UNL d   1       5.192  -1.991  16.711 -0.18 -0.01    +0.066 A 
DOCKED: ATOM     11  C   UNL d   1       4.375  -1.039  17.325 -0.32 +0.00    -0.021 A 
DOCKED: ATOM     12  C   UNL d   1       3.620  -1.717  18.261 -0.22 -0.00    +0.000 A 
DOCKED: ATOM     13  C   UNL d   1       4.025  -3.061  18.174 -0.09 -0.01    +0.070 A 
DOCKED: ATOM     14  C   UNL d   1       4.363   0.456  17.081 -0.39 -0.00    +0.052 C 
DOCKED: ATOM     15  C   UNL d   1       3.865  -5.440  18.895 -0.12 -0.01    +0.066 A 
DOCKED: ATOM     16  C   UNL d   1       3.219  -6.472  19.563 -0.13 +0.00    -0.021 A 
DOCKED: ATOM     17  C   UNL d   1       3.946  -7.620  19.323 -0.13 -0.00    +0.000 A 
DOCKED: ATOM     18  C   UNL d   1       5.023  -7.259  18.517 -0.13 -0.01    +0.070 A 
DOCKED: ATOM     19  C   UNL d   1       1.981  -6.382  20.414 -0.10 -0.01    +0.052 C 
DOCKED: ATOM     20  C   UNL d   1       7.074  -7.801  17.192 -0.21 +0.01    +0.066 A 
DOCKED: ATOM     21  C   UNL d   1       8.161  -8.639  16.905 -0.19 -0.01    -0.025 A 
DOCKED: ATOM     22  C   UNL d   1       8.937  -7.952  15.995 -0.15 -0.01    -0.021 A 
DOCKED: ATOM     23  C   UNL d   1       8.301  -6.726  15.769 -0.13 +0.01    +0.066 A 
DOCKED: ATOM     24  C   UNL d   1       8.463 -10.013  17.456 -0.16 +0.02    +0.051 C 
DOCKED: ATOM     25  N   UNL d   1       7.205  -3.918  15.574 -0.05 -0.02    -0.248 N 
DOCKED: ATOM     26  N   UNL d   1       4.990  -3.227  17.236 -0.06 +0.03    -0.248 N 
DOCKED: ATOM     27  N   UNL d   1       4.950  -5.927  18.217 -0.11 +0.03    -0.248 N 
DOCKED: ATOM     28  N   UNL d   1       7.188  -6.621  16.536 -0.10 -0.02    -0.248 N 
DOCKED: ATOM     29 FE   UNL d   1       6.089  -4.926  16.887 -0.03 -0.00    +0.000 Fe
DOCKED: ENDROOT
DOCKED: BRANCH   6  30
DOCKED: ATOM     30  C   UNL d   1       9.669  -3.629  12.856 -0.08 +0.02    +0.052 C 
DOCKED: BRANCH  30  31
DOCKED: ATOM     31  C   UNL d   1       9.258  -2.926  11.567 -0.16 +0.06    +0.115 C 
DOCKED: BRANCH  31  32
DOCKED: ATOM     32  C   UNL d   1       9.522  -3.810  10.379 +0.03 +0.18    +0.139 C 
DOCKED: ATOM     33  O   UNL d   1      10.280  -4.765  10.469 -0.01 -1.05    -0.650 OA
DOCKED: BRANCH  32  34
DOCKED: ATOM     34  O   UNL d   1       8.924  -3.556   9.203 -0.47 -1.18    -0.776 OA
DOCKED: ATOM     35  H   UNL d   1       7.957  -3.566   9.156 +0.06 +0.13    +0.167 HD
DOCKED: ENDBRANCH  32  34
DOCKED: ENDBRANCH  31  32
DOCKED: ENDBRANCH  30  31
DOCKED: ENDBRANCH   6  30
DOCKED: BRANCH  22  36
DOCKED: ATOM     36  C   UNL d   1      10.242  -8.429  15.415 -0.11 +0.02    +0.052 C 
DOCKED: BRANCH  36  37
DOCKED: ATOM     37  C   UNL d   1       9.978  -9.251  14.162 -0.17 +0.06    +0.115 C 
DOCKED: BRANCH  37  38
DOCKED: ATOM     38  C   UNL d   1      10.241 -10.709  14.408 -0.07 +0.17    +0.139 C 
DOCKED: ATOM     39  O   UNL d   1      10.272 -11.504  13.480 -0.26 -1.14    -0.650 OA
DOCKED: BRANCH  38  40
DOCKED: ATOM     40  O   UNL d   1      10.442 -11.153  15.662 -0.36 -1.23    -0.776 OA
DOCKED: ATOM     41  H   UNL d   1      11.131 -10.741  16.201 +0.01 +0.14    +0.167 HD
DOCKED: ENDBRANCH  38  40
DOCKED: ENDBRANCH  37  38
DOCKED: ENDBRANCH  36  37
DOCKED: ENDBRANCH  22  36
DOCKED: BRANCH  12  42
DOCKED: ATOM     42  C   UNL d   1       2.608  -1.087  19.165 -0.31 -0.00    +0.004 C 
DOCKED: ATOM     43  C   UNL d   1       1.298  -1.307  18.993 -0.33 -0.01    +0.012 C 
DOCKED: ENDBRANCH  12  42
DOCKED: BRANCH  17  44
DOCKED: ATOM     44  C   UNL d   1       3.619  -8.977  19.817 -0.21 -0.00    +0.004 C 
DOCKED: ATOM     45  C   UNL d   1       2.561  -9.642  19.342 -0.19 -0.00    +0.012 C 
DOCKED: ENDBRANCH  17  44
DOCKED: TORSDOF 10
DOCKED: TER
DOCKED: ENDMDL
________________________________________________________________________________


	BEGINNING GENETIC ALGORITHM DOCKING 56 of 100
Run: 56 Seed: 2140590359 957694772 [ Run 56 of 100 GA/GALS ]
Beginning LAMARCKIAN GENETIC ALGORITHM (LGA), with a maximum of 25000000 energy evaluations.

Final-Value: -11.810


	FINAL GENETIC ALGORITHM DOCKED STATE
	_______________________________________________


Detailed state:  trans 11.651 -7.940 6.764 quatxyzw -0.258074 -0.715233 0.273965 0.588883 center -0.174 -0.001 -0.047 ntor 10 -178.1718 157.1899 70.3704 4.4210 91.3905 104.6412 20.2738 163.7443 141.3429 11.6726
State:	 11.651  -7.940   6.764  -0.319 -0.885  0.339 107.844   -178.17  157.19   70.37    4.42   91.39  104.64   20.27  163.74  141.34   11.67

DOCKED: MODEL       56
DOCKED: USER    Run = 56
DOCKED: USER    DPF = D:/Protein_go_brrr/autodock/final/mut_N102T/heme_Fe/dock.dpf
DOCKED: USER  
DOCKED: USER    Estimated Free Energy of Binding    =   -8.30 kcal/mol  [=(1)+(2)+(3)-(4)]
DOCKED: USER    Estimated Inhibition Constant, Ki   =  819.63 nM (nanomolar)  [Temperature = 298.15 K]
DOCKED: USER    
DOCKED: USER    (1) Final Intermolecular Energy     =  -11.29 kcal/mol
DOCKED: USER        vdW + Hbond + desolv Energy     =   -7.65 kcal/mol
DOCKED: USER        Electrostatic Energy            =   -3.64 kcal/mol
DOCKED: USER    (2) Final Total Internal Energy     =   -0.52 kcal/mol
DOCKED: USER    (3) Torsional Free Energy           =   +2.98 kcal/mol
DOCKED: USER    (4) Unbound System's Energy  [=(2)] =   -0.52 kcal/mol
DOCKED: USER    
DOCKED: USER    
DOCKED: USER    NEWDPF move heme_Fe_opt.pdbqt
DOCKED: USER    NEWDPF about -0.174000 -0.001000 -0.047000
DOCKED: USER    NEWDPF tran0 11.651128 -7.940419 6.763925
DOCKED: USER    NEWDPF quaternion0 -0.258074 -0.715233 0.273965 0.588883
DOCKED: USER    NEWDPF axisangle0 -0.319312 -0.884950 0.338975 107.844472
DOCKED: USER    NEWDPF quat0 -0.319312 -0.884950 0.338975 107.844472
DOCKED: USER    NEWDPF dihe0 -178.17 157.19 70.37 4.42 91.39 104.64 20.27 163.74 141.34 11.67 
DOCKED: USER  keepresnum = 1 
DOCKED: USER  
DOCKED: REMARK  10 active torsions:
DOCKED: REMARK  status: ('A' for Active; 'I' for Inactive)
DOCKED: REMARK    1  A    between atoms: C_6  and  C_10 
DOCKED: REMARK    2  A    between atoms: C_10  and  C_11 
DOCKED: REMARK    3  A    between atoms: C_11  and  C_12 
DOCKED: REMARK    4  A    between atoms: C_12  and  O_14 
DOCKED: REMARK    5  A    between atoms: C_17  and  C_20 
DOCKED: REMARK    6  A    between atoms: C_24  and  C_27 
DOCKED: REMARK    7  A    between atoms: C_31  and  C_34 
DOCKED: REMARK    8  A    between atoms: C_34  and  C_35 
DOCKED: REMARK    9  A    between atoms: C_35  and  C_36 
DOCKED: REMARK   10  A    between atoms: C_36  and  O_38 
DOCKED: USER                              x       y       z     vdW  Elec       q    Type
DOCKED: USER                           _______ _______ _______ _____ _____    ______ ____
DOCKED: ROOT
DOCKED: ATOM      1  C   UNL d   1      12.326  -8.445   8.635 -0.09 +0.04    +0.064 C 
DOCKED: ATOM      2  C   UNL d   1       9.257 -10.523   5.365 -0.29 +0.01    +0.064 A 
DOCKED: ATOM      3  C   UNL d   1      10.951  -7.553   1.992 -0.21 -0.02    +0.064 C 
DOCKED: ATOM      4  C   UNL d   1      13.853  -5.457   5.165 -0.08 +0.03    +0.064 C 
DOCKED: ATOM      5  C   UNL d   1      11.246  -9.249   8.047 -0.12 +0.03    +0.066 A 
DOCKED: ATOM      6  C   UNL d   1      10.451 -10.139   8.750 -0.14 -0.01    -0.021 A 
DOCKED: ATOM      7  C   UNL d   1       9.601 -10.719   7.840 -0.30 -0.00    -0.025 A 
DOCKED: ATOM      8  C   UNL d   1       9.911 -10.159   6.616 -0.27 +0.01    +0.066 A 
DOCKED: ATOM      9  C   UNL d   1       8.544 -11.736   8.143 -0.03 +0.00    +0.051 C 
DOCKED: ATOM     10  C   UNL d   1       9.497  -9.958   4.180 -0.25 +0.01    +0.066 A 
DOCKED: ATOM     11  C   UNL d   1       8.939 -10.406   2.981 -0.34 +0.00    -0.021 A 
DOCKED: ATOM     12  C   UNL d   1       9.425  -9.576   1.990 -0.30 -0.00    +0.000 A 
DOCKED: ATOM     13  C   UNL d   1      10.269  -8.661   2.642 -0.18 -0.01    +0.070 A 
DOCKED: ATOM     14  C   UNL d   1       8.040 -11.609   2.778 -0.47 +0.00    +0.052 C 
DOCKED: ATOM     15  C   UNL d   1      11.805  -6.700   2.605 -0.15 -0.01    +0.066 A 
DOCKED: ATOM     16  C   UNL d   1      12.358  -5.594   1.973 -0.22 +0.00    -0.021 A 
DOCKED: ATOM     17  C   UNL d   1      13.198  -4.990   2.885 -0.17 +0.00    +0.000 A 
DOCKED: ATOM     18  C   UNL d   1      13.141  -5.746   4.054 -0.11 +0.02    +0.070 A 
DOCKED: ATOM     19  C   UNL d   1      12.128  -5.135   0.558 -0.31 -0.03    +0.052 C 
DOCKED: ATOM     20  C   UNL d   1      13.772  -6.192   6.432 -0.04 +0.05    +0.066 A 
DOCKED: ATOM     21  C   UNL d   1      14.642  -6.031   7.520 -0.07 -0.02    -0.025 A 
DOCKED: ATOM     22  C   UNL d   1      14.181  -6.883   8.502 -0.06 -0.01    -0.021 A 
DOCKED: ATOM     23  C   UNL d   1      13.057  -7.532   7.976 -0.07 +0.05    +0.066 A 
DOCKED: ATOM     24  C   UNL d   1      15.849  -5.129   7.637 -0.05 +0.02    +0.051 C 
DOCKED: ATOM     25  N   UNL d   1      10.905  -9.258   6.747 -0.09 -0.08    -0.248 N 
DOCKED: ATOM     26  N   UNL d   1      10.321  -8.899   3.976 -0.10 -0.02    -0.248 N 
DOCKED: ATOM     27  N   UNL d   1      12.252  -6.772   3.898 -0.07 -0.05    -0.248 N 
DOCKED: ATOM     28  N   UNL d   1      12.839  -7.139   6.697 -0.07 -0.20    -0.248 N 
DOCKED: ATOM     29 FE   UNL d   1      11.581  -8.018   5.336 -0.03 +0.00    +0.000 Fe
DOCKED: ENDROOT
DOCKED: BRANCH   6  30
DOCKED: ATOM     30  C   UNL d   1      10.480 -10.412  10.215 -0.13 +0.02    +0.052 C 
DOCKED: BRANCH  30  31
DOCKED: ATOM     31  C   UNL d   1      10.569 -11.910  10.484 -0.18 +0.04    +0.115 C 
DOCKED: BRANCH  31  32
DOCKED: ATOM     32  C   UNL d   1      10.110 -12.221  11.882 -0.15 +0.13    +0.139 C 
DOCKED: ATOM     33  O   UNL d   1       8.939 -12.495  12.107 -0.47 -0.80    -0.650 OA
DOCKED: BRANCH  32  34
DOCKED: ATOM     34  O   UNL d   1      10.986 -12.201  12.900 -0.34 -1.02    -0.776 OA
DOCKED: ATOM     35  H   UNL d   1      11.906 -11.958  12.723 +0.02 +0.12    +0.167 HD
DOCKED: ENDBRANCH  32  34
DOCKED: ENDBRANCH  31  32
DOCKED: ENDBRANCH  30  31
DOCKED: ENDBRANCH   6  30
DOCKED: BRANCH  22  36
DOCKED: ATOM     36  C   UNL d   1      14.816  -7.096   9.851 -0.02 +0.02    +0.052 C 
DOCKED: BRANCH  36  37
DOCKED: ATOM     37  C   UNL d   1      13.945  -6.472  10.932 -0.03 +0.06    +0.115 C 
DOCKED: BRANCH  37  38
DOCKED: ATOM     38  C   UNL d   1      12.966  -5.498  10.340 +0.03 +0.17    +0.139 C 
DOCKED: ATOM     39  O   UNL d   1      11.786  -5.792  10.221 +0.08 -1.09    -0.650 OA
DOCKED: BRANCH  38  40
DOCKED: ATOM     40  O   UNL d   1      13.388  -4.289   9.930 -0.26 -1.26    -0.776 OA
DOCKED: ATOM     41  H   UNL d   1      14.200  -3.922  10.306 +0.01 +0.14    +0.167 HD
DOCKED: ENDBRANCH  38  40
DOCKED: ENDBRANCH  37  38
DOCKED: ENDBRANCH  36  37
DOCKED: ENDBRANCH  22  36
DOCKED: BRANCH  12  42
DOCKED: ATOM     42  C   UNL d   1       9.096  -9.696   0.536 -0.46 -0.00    +0.004 C 
DOCKED: ATOM     43  C   UNL d   1       8.470  -8.705  -0.113 -0.55 -0.01    +0.012 C 
DOCKED: ENDBRANCH  12  42
DOCKED: BRANCH  17  44
DOCKED: ATOM     44  C   UNL d   1      13.988  -3.759   2.660 -0.20 +0.00    +0.004 C 
DOCKED: ATOM     45  C   UNL d   1      13.388  -2.612   2.323 -0.32 +0.00    +0.012 C 
DOCKED: ENDBRANCH  17  44
DOCKED: TORSDOF 10
DOCKED: TER
DOCKED: ENDMDL
________________________________________________________________________________


	BEGINNING GENETIC ALGORITHM DOCKING 57 of 100
Run: 57 Seed: 491396887 475279469 [ Run 57 of 100 GA/GALS ]
Beginning LAMARCKIAN GENETIC ALGORITHM (LGA), with a maximum of 25000000 energy evaluations.

Final-Value: -14.445


	FINAL GENETIC ALGORITHM DOCKED STATE
	_______________________________________________


Detailed state:  trans 6.235 -3.779 6.855 quatxyzw 0.239431 0.577213 -0.779863 -0.036229 center -0.174 -0.001 -0.047 ntor 10 104.9477 -155.4025 79.4578 -120.6767 107.8335 -69.1562 -32.2644 -29.8430 -164.1036 124.8502
State:	  6.235  -3.779   6.855   0.240  0.578 -0.780 -175.848    104.95 -155.40   79.46 -120.68  107.83  -69.16  -32.26  -29.84 -164.10  124.85

DOCKED: MODEL       57
DOCKED: USER    Run = 57
DOCKED: USER    DPF = D:/Protein_go_brrr/autodock/final/mut_N102T/heme_Fe/dock.dpf
DOCKED: USER  
DOCKED: USER    Estimated Free Energy of Binding    =   -9.98 kcal/mol  [=(1)+(2)+(3)-(4)]
DOCKED: USER    Estimated Inhibition Constant, Ki   =   48.49 nM (nanomolar)  [Temperature = 298.15 K]
DOCKED: USER    
DOCKED: USER    (1) Final Intermolecular Energy     =  -12.96 kcal/mol
DOCKED: USER        vdW + Hbond + desolv Energy     =  -11.57 kcal/mol
DOCKED: USER        Electrostatic Energy            =   -1.39 kcal/mol
DOCKED: USER    (2) Final Total Internal Energy     =   -1.48 kcal/mol
DOCKED: USER    (3) Torsional Free Energy           =   +2.98 kcal/mol
DOCKED: USER    (4) Unbound System's Energy  [=(2)] =   -1.48 kcal/mol
DOCKED: USER    
DOCKED: USER    
DOCKED: USER    NEWDPF move heme_Fe_opt.pdbqt
DOCKED: USER    NEWDPF about -0.174000 -0.001000 -0.047000
DOCKED: USER    NEWDPF tran0 6.235060 -3.779090 6.854792
DOCKED: USER    NEWDPF quaternion0 0.239431 0.577213 -0.779863 -0.036229
DOCKED: USER    NEWDPF axisangle0 0.239588 0.577592 -0.780375 -175.847606
DOCKED: USER    NEWDPF quat0 0.239588 0.577592 -0.780375 -175.847606
DOCKED: USER    NEWDPF dihe0 104.95 -155.40 79.46 -120.68 107.83 -69.16 -32.26 -29.84 -164.10 124.85 
DOCKED: USER  keepresnum = 1 
DOCKED: USER  
DOCKED: REMARK  10 active torsions:
DOCKED: REMARK  status: ('A' for Active; 'I' for Inactive)
DOCKED: REMARK    1  A    between atoms: C_6  and  C_10 
DOCKED: REMARK    2  A    between atoms: C_10  and  C_11 
DOCKED: REMARK    3  A    between atoms: C_11  and  C_12 
DOCKED: REMARK    4  A    between atoms: C_12  and  O_14 
DOCKED: REMARK    5  A    between atoms: C_17  and  C_20 
DOCKED: REMARK    6  A    between atoms: C_24  and  C_27 
DOCKED: REMARK    7  A    between atoms: C_31  and  C_34 
DOCKED: REMARK    8  A    between atoms: C_34  and  C_35 
DOCKED: REMARK    9  A    between atoms: C_35  and  C_36 
DOCKED: REMARK   10  A    between atoms: C_36  and  O_38 
DOCKED: USER                              x       y       z     vdW  Elec       q    Type
DOCKED: USER                           _______ _______ _______ _____ _____    ______ ____
DOCKED: ROOT
DOCKED: ATOM      1  C   UNL d   1       7.788  -4.683   7.846 -0.39 +0.05    +0.064 C 
DOCKED: ATOM      2  C   UNL d   1       3.521  -2.602   9.223 -0.41 +0.01    +0.064 A 
DOCKED: ATOM      3  C   UNL d   1       2.044  -2.773   4.656 -0.45 +0.00    +0.064 C 
DOCKED: ATOM      4  C   UNL d   1       6.206  -4.691   3.285 -0.26 +0.00    +0.064 C 
DOCKED: ATOM      5  C   UNL d   1       6.757  -4.005   8.644 -0.23 +0.03    +0.066 A 
DOCKED: ATOM      6  C   UNL d   1       6.882  -3.678   9.984 -0.12 -0.01    -0.021 A 
DOCKED: ATOM      7  C   UNL d   1       5.695  -3.103  10.366 -0.27 -0.00    -0.025 A 
DOCKED: ATOM      8  C   UNL d   1       4.891  -3.101   9.243 -0.26 +0.02    +0.066 A 
DOCKED: ATOM      9  C   UNL d   1       5.370  -2.572  11.729 -0.38 +0.00    +0.051 C 
DOCKED: ATOM     10  C   UNL d   1       2.744  -2.535   8.140 -0.35 +0.01    +0.066 A 
DOCKED: ATOM     11  C   UNL d   1       1.399  -2.159   8.174 -0.48 -0.00    -0.021 A 
DOCKED: ATOM     12  C   UNL d   1       0.945  -2.217   6.871 -0.50 +0.00    +0.000 A 
DOCKED: ATOM     13  C   UNL d   1       2.046  -2.637   6.104 -0.40 +0.01    +0.070 A 
DOCKED: ATOM     14  C   UNL d   1       0.568  -1.827   9.397 -0.51 +0.00    +0.052 C 
DOCKED: ATOM     15  C   UNL d   1       3.084  -3.227   3.918 -0.38 +0.00    +0.066 A 
DOCKED: ATOM     16  C   UNL d   1       3.078  -3.248   2.529 -0.28 -0.00    -0.021 A 
DOCKED: ATOM     17  C   UNL d   1       4.276  -3.804   2.132 -0.44 -0.00    +0.000 A 
DOCKED: ATOM     18  C   UNL d   1       4.985  -4.114   3.290 -0.43 +0.00    +0.070 A 
DOCKED: ATOM     19  C   UNL d   1       1.979  -2.787   1.610 -0.43 +0.00    +0.052 C 
DOCKED: ATOM     20  C   UNL d   1       7.008  -4.976   4.481 -0.24 +0.01    +0.066 A 
DOCKED: ATOM     21  C   UNL d   1       8.177  -5.749   4.508 -0.07 -0.01    -0.025 A 
DOCKED: ATOM     22  C   UNL d   1       8.618  -5.723   5.815 -0.07 -0.01    -0.021 A 
DOCKED: ATOM     23  C   UNL d   1       7.702  -4.944   6.532 -0.33 +0.03    +0.066 A 
DOCKED: ATOM     24  C   UNL d   1       8.849  -6.482   3.370 -0.01 +0.01    +0.051 C 
DOCKED: ATOM     25  N   UNL d   1       5.543  -3.642   8.195 -0.12 -0.08    -0.248 N 
DOCKED: ATOM     26  N   UNL d   1       3.140  -2.840   6.878 -0.11 -0.06    -0.248 N 
DOCKED: ATOM     27  N   UNL d   1       4.272  -3.720   4.388 -0.27 -0.02    -0.248 N 
DOCKED: ATOM     28  N   UNL d   1       6.698  -4.528   5.722 -0.27 -0.06    -0.248 N 
DOCKED: ATOM     29 FE   UNL d   1       4.919  -3.685   6.299 -0.09 +0.00    +0.000 Fe
DOCKED: ENDROOT
DOCKED: BRANCH   6  30
DOCKED: ATOM     30  C   UNL d   1       8.075  -3.881  10.854 -0.25 +0.03    +0.052 C 
DOCKED: BRANCH  30  31
DOCKED: ATOM     31  C   UNL d   1       8.225  -5.351  11.231 -0.23 +0.05    +0.115 C 
DOCKED: BRANCH  31  32
DOCKED: ATOM     32  C   UNL d   1       9.677  -5.708  11.384 -0.16 +0.09    +0.139 C 
DOCKED: ATOM     33  O   UNL d   1      10.155  -5.914  12.491 +0.01 -0.28    -0.650 OA
DOCKED: BRANCH  32  34
DOCKED: ATOM     34  O   UNL d   1      10.466  -5.806  10.301 +0.02 -1.09    -0.776 OA
DOCKED: ATOM     35  H   UNL d   1      10.385  -6.581   9.729 +0.03 +0.22    +0.167 HD
DOCKED: ENDBRANCH  32  34
DOCKED: ENDBRANCH  31  32
DOCKED: ENDBRANCH  30  31
DOCKED: ENDBRANCH   6  30
DOCKED: BRANCH  22  36
DOCKED: ATOM     36  C   UNL d   1       9.824  -6.447   6.351 +0.23 +0.05    +0.052 C 
DOCKED: BRANCH  36  37
DOCKED: ATOM     37  C   UNL d   1       9.495  -7.064   7.703 -0.16 +0.10    +0.115 C 
DOCKED: BRANCH  37  38
DOCKED: ATOM     38  C   UNL d   1      10.283  -8.323   7.928 -0.14 +0.08    +0.139 C 
DOCKED: ATOM     39  O   UNL d   1      10.054  -9.329   7.274 -0.01 -0.20    -0.650 OA
DOCKED: BRANCH  38  40
DOCKED: ATOM     40  O   UNL d   1      11.252  -8.350   8.860 -0.03 -0.49    -0.776 OA
DOCKED: ATOM     41  H   UNL d   1      11.211  -7.727   9.599 +0.03 +0.14    +0.167 HD
DOCKED: ENDBRANCH  38  40
DOCKED: ENDBRANCH  37  38
DOCKED: ENDBRANCH  36  37
DOCKED: ENDBRANCH  22  36
DOCKED: BRANCH  12  42
DOCKED: ATOM     42  C   UNL d   1      -0.451  -1.903   6.437 -0.51 +0.00    +0.004 C 
DOCKED: ATOM     43  C   UNL d   1      -0.686  -1.021   5.456 -0.52 +0.00    +0.012 C 
DOCKED: ENDBRANCH  12  42
DOCKED: BRANCH  17  44
DOCKED: ATOM     44  C   UNL d   1       4.722  -4.006   0.735 -0.59 -0.00    +0.004 C 
DOCKED: ATOM     45  C   UNL d   1       4.097  -4.878  -0.064 -0.74 -0.00    +0.012 C 
DOCKED: ENDBRANCH  17  44
DOCKED: TORSDOF 10
DOCKED: TER
DOCKED: ENDMDL
________________________________________________________________________________


	BEGINNING GENETIC ALGORITHM DOCKING 58 of 100
Run: 58 Seed: 1697776024 260830707 [ Run 58 of 100 GA/GALS ]
Beginning LAMARCKIAN GENETIC ALGORITHM (LGA), with a maximum of 25000000 energy evaluations.

Final-Value: -9.377


	FINAL GENETIC ALGORITHM DOCKED STATE
	_______________________________________________


Detailed state:  trans -10.956 4.972 11.304 quatxyzw -0.549849 0.386660 0.654560 0.345995 center -0.174 -0.001 -0.047 ntor 10 -65.1672 179.4307 -173.8688 -165.0980 38.7283 99.4893 -92.3716 153.5761 172.9569 179.9982
State:	-10.956   4.972  11.304  -0.586  0.412  0.698 139.515    -65.17  179.43 -173.87 -165.10   38.73   99.49  -92.37  153.58  172.96  180.00

DOCKED: MODEL       58
DOCKED: USER    Run = 58
DOCKED: USER    DPF = D:/Protein_go_brrr/autodock/final/mut_N102T/heme_Fe/dock.dpf
DOCKED: USER  
DOCKED: USER    Estimated Free Energy of Binding    =   -4.09 kcal/mol  [=(1)+(2)+(3)-(4)]
DOCKED: USER    Estimated Inhibition Constant, Ki   =    1.00 mM (millimolar)  [Temperature = 298.15 K]
DOCKED: USER    
DOCKED: USER    (1) Final Intermolecular Energy     =   -7.07 kcal/mol
DOCKED: USER        vdW + Hbond + desolv Energy     =   -7.09 kcal/mol
DOCKED: USER        Electrostatic Energy            =   +0.02 kcal/mol
DOCKED: USER    (2) Final Total Internal Energy     =   -2.30 kcal/mol
DOCKED: USER    (3) Torsional Free Energy           =   +2.98 kcal/mol
DOCKED: USER    (4) Unbound System's Energy  [=(2)] =   -2.30 kcal/mol
DOCKED: USER    
DOCKED: USER    
DOCKED: USER    NEWDPF move heme_Fe_opt.pdbqt
DOCKED: USER    NEWDPF about -0.174000 -0.001000 -0.047000
DOCKED: USER    NEWDPF tran0 -10.955644 4.972470 11.304073
DOCKED: USER    NEWDPF quaternion0 -0.549849 0.386660 0.654560 0.345995
DOCKED: USER    NEWDPF axisangle0 -0.586045 0.412113 0.697649 139.514927
DOCKED: USER    NEWDPF quat0 -0.586045 0.412113 0.697649 139.514927
DOCKED: USER    NEWDPF dihe0 -65.17 179.43 -173.87 -165.10 38.73 99.49 -92.37 153.58 172.96 180.00 
DOCKED: USER  keepresnum = 1 
DOCKED: USER  
DOCKED: REMARK  10 active torsions:
DOCKED: REMARK  status: ('A' for Active; 'I' for Inactive)
DOCKED: REMARK    1  A    between atoms: C_6  and  C_10 
DOCKED: REMARK    2  A    between atoms: C_10  and  C_11 
DOCKED: REMARK    3  A    between atoms: C_11  and  C_12 
DOCKED: REMARK    4  A    between atoms: C_12  and  O_14 
DOCKED: REMARK    5  A    between atoms: C_17  and  C_20 
DOCKED: REMARK    6  A    between atoms: C_24  and  C_27 
DOCKED: REMARK    7  A    between atoms: C_31  and  C_34 
DOCKED: REMARK    8  A    between atoms: C_34  and  C_35 
DOCKED: REMARK    9  A    between atoms: C_35  and  C_36 
DOCKED: REMARK   10  A    between atoms: C_36  and  O_38 
DOCKED: USER                              x       y       z     vdW  Elec       q    Type
DOCKED: USER                           _______ _______ _______ _____ _____    ______ ____
DOCKED: ROOT
DOCKED: ATOM      1  C   UNL d   1     -11.174   6.806  12.199 -0.24 +0.00    +0.064 C 
DOCKED: ATOM      2  C   UNL d   1     -11.644   5.109   7.580 -0.20 +0.00    +0.064 A 
DOCKED: ATOM      3  C   UNL d   1     -11.689   0.627   9.305 -0.28 -0.01    +0.064 C 
DOCKED: ATOM      4  C   UNL d   1     -11.128   2.243  13.773 -0.22 +0.01    +0.064 C 
DOCKED: ATOM      5  C   UNL d   1     -11.218   6.741  10.732 -0.24 +0.00    +0.066 A 
DOCKED: ATOM      6  C   UNL d   1     -11.112   7.834   9.888 -0.27 +0.00    -0.021 A 
DOCKED: ATOM      7  C   UNL d   1     -11.247   7.363   8.605 -0.30 +0.00    -0.025 A 
DOCKED: ATOM      8  C   UNL d   1     -11.429   5.998   8.716 -0.28 -0.00    +0.066 A 
DOCKED: ATOM      9  C   UNL d   1     -11.183   8.181   7.352 -0.30 -0.01    +0.051 C 
DOCKED: ATOM     10  C   UNL d   1     -11.765   3.783   7.655 -0.27 -0.00    +0.066 A 
DOCKED: ATOM     11  C   UNL d   1     -12.084   2.971   6.564 -0.26 +0.00    -0.021 A 
DOCKED: ATOM     12  C   UNL d   1     -12.120   1.676   7.038 -0.27 -0.00    +0.000 A 
DOCKED: ATOM     13  C   UNL d   1     -11.826   1.765   8.410 -0.25 -0.01    +0.070 A 
DOCKED: ATOM     14  C   UNL d   1     -12.407   3.416   5.152 -0.22 -0.00    +0.052 C 
DOCKED: ATOM     15  C   UNL d   1     -11.457   0.711  10.637 -0.23 -0.01    +0.066 A 
DOCKED: ATOM     16  C   UNL d   1     -11.233  -0.400  11.439 -0.26 +0.01    -0.021 A 
DOCKED: ATOM     17  C   UNL d   1     -11.075   0.063  12.729 -0.27 -0.00    +0.000 A 
DOCKED: ATOM     18  C   UNL d   1     -11.210   1.449  12.683 -0.24 +0.00    +0.070 A 
DOCKED: ATOM     19  C   UNL d   1     -11.195  -1.844  11.018 -0.23 -0.04    +0.052 C 
DOCKED: ATOM     20  C   UNL d   1     -11.204   3.709  13.754 -0.11 +0.01    +0.066 A 
DOCKED: ATOM     21  C   UNL d   1     -11.321   4.528  14.886 -0.13 -0.00    -0.025 A 
DOCKED: ATOM     22  C   UNL d   1     -11.319   5.825  14.415 -0.14 -0.00    -0.021 A 
DOCKED: ATOM     23  C   UNL d   1     -11.208   5.746  13.022 -0.18 +0.00    +0.066 A 
DOCKED: ATOM     24  C   UNL d   1     -11.434   4.122  16.337 -0.07 +0.00    +0.051 C 
DOCKED: ATOM     25  N   UNL d   1     -11.401   5.621  10.010 -0.10 +0.00    -0.248 N 
DOCKED: ATOM     26  N   UNL d   1     -11.618   3.050   8.788 -0.16 +0.02    -0.248 N 
DOCKED: ATOM     27  N   UNL d   1     -11.401   1.852  11.391 -0.18 +0.02    -0.248 N 
DOCKED: ATOM     28  N   UNL d   1     -11.183   4.452  12.621 -0.01 -0.02    -0.248 N 
DOCKED: ATOM     29 FE   UNL d   1     -11.400   3.750  10.707 -0.07 -0.00    +0.000 Fe
DOCKED: ENDROOT
DOCKED: BRANCH   6  30
DOCKED: ATOM     30  C   UNL d   1     -10.875   9.253  10.276 -0.23 -0.00    +0.052 C 
DOCKED: BRANCH  30  31
DOCKED: ATOM     31  C   UNL d   1     -12.187  10.027  10.325 -0.07 -0.01    +0.115 C 
DOCKED: BRANCH  31  32
DOCKED: ATOM     32  C   UNL d   1     -12.822   9.902  11.682 -0.03 -0.01    +0.139 C 
DOCKED: ATOM     33  O   UNL d   1     -12.137   9.914  12.694 +0.03 +0.02    -0.650 OA
DOCKED: BRANCH  32  34
DOCKED: ATOM     34  O   UNL d   1     -14.155   9.774  11.794 +0.01 +0.03    -0.776 OA
DOCKED: ATOM     35  H   UNL d   1     -14.520   8.951  12.148 +0.00 -0.01    +0.167 HD
DOCKED: ENDBRANCH  32  34
DOCKED: ENDBRANCH  31  32
DOCKED: ENDBRANCH  30  31
DOCKED: ENDBRANCH   6  30
DOCKED: BRANCH  22  36
DOCKED: ATOM     36  C   UNL d   1     -11.466   7.066  15.255 -0.07 +0.00    +0.052 C 
DOCKED: BRANCH  36  37
DOCKED: ATOM     37  C   UNL d   1     -12.940   7.331  15.527 -0.02 -0.00    +0.115 C 
DOCKED: BRANCH  37  38
DOCKED: ATOM     38  C   UNL d   1     -13.799   6.767  14.431 -0.01 -0.00    +0.139 C 
DOCKED: ATOM     39  O   UNL d   1     -14.364   5.693  14.569 +0.01 +0.01    -0.650 OA
DOCKED: BRANCH  38  40
DOCKED: ATOM     40  O   UNL d   1     -13.950   7.447  13.280 +0.02 +0.02    -0.776 OA
DOCKED: ATOM     41  H   UNL d   1     -13.509   8.302  13.177 +0.01 -0.00    +0.167 HD
DOCKED: ENDBRANCH  38  40
DOCKED: ENDBRANCH  37  38
DOCKED: ENDBRANCH  36  37
DOCKED: ENDBRANCH  22  36
DOCKED: BRANCH  12  42
DOCKED: ATOM     42  C   UNL d   1     -12.435   0.470   6.212 -0.24 -0.00    +0.004 C 
DOCKED: ATOM     43  C   UNL d   1     -13.404  -0.381   6.575 -0.16 -0.01    +0.012 C 
DOCKED: ENDBRANCH  12  42
DOCKED: BRANCH  17  44
DOCKED: ATOM     44  C   UNL d   1     -10.792  -0.764  13.924 -0.25 +0.00    +0.004 C 
DOCKED: ATOM     45  C   UNL d   1     -11.710  -0.917  14.884 -0.11 +0.00    +0.012 C 
DOCKED: ENDBRANCH  17  44
DOCKED: TORSDOF 10
DOCKED: TER
DOCKED: ENDMDL
________________________________________________________________________________


	BEGINNING GENETIC ALGORITHM DOCKING 59 of 100
Run: 59 Seed: 2072883138 338098873 [ Run 59 of 100 GA/GALS ]
Beginning LAMARCKIAN GENETIC ALGORITHM (LGA), with a maximum of 25000000 energy evaluations.

Final-Value: -12.037


	FINAL GENETIC ALGORITHM DOCKED STATE
	_______________________________________________


Detailed state:  trans 7.657 -4.907 15.250 quatxyzw 0.206553 -0.895383 0.119306 -0.376021 center -0.174 -0.001 -0.047 ntor 10 157.9433 -88.2407 -119.7402 -149.5782 118.1588 -177.4715 -5.3179 51.8681 -151.6274 146.7305
State:	  7.657  -4.907  15.250   0.223 -0.966  0.129 -135.825    157.94  -88.24 -119.74 -149.58  118.16 -177.47   -5.32   51.87 -151.63  146.73

DOCKED: MODEL       59
DOCKED: USER    Run = 59
DOCKED: USER    DPF = D:/Protein_go_brrr/autodock/final/mut_N102T/heme_Fe/dock.dpf
DOCKED: USER  
DOCKED: USER    Estimated Free Energy of Binding    =   -7.68 kcal/mol  [=(1)+(2)+(3)-(4)]
DOCKED: USER    Estimated Inhibition Constant, Ki   =    2.33 uM (micromolar)  [Temperature = 298.15 K]
DOCKED: USER    
DOCKED: USER    (1) Final Intermolecular Energy     =  -10.67 kcal/mol
DOCKED: USER        vdW + Hbond + desolv Energy     =   -7.24 kcal/mol
DOCKED: USER        Electrostatic Energy            =   -3.42 kcal/mol
DOCKED: USER    (2) Final Total Internal Energy     =   -1.37 kcal/mol
DOCKED: USER    (3) Torsional Free Energy           =   +2.98 kcal/mol
DOCKED: USER    (4) Unbound System's Energy  [=(2)] =   -1.37 kcal/mol
DOCKED: USER    
DOCKED: USER    
DOCKED: USER    NEWDPF move heme_Fe_opt.pdbqt
DOCKED: USER    NEWDPF about -0.174000 -0.001000 -0.047000
DOCKED: USER    NEWDPF tran0 7.657386 -4.906547 15.250329
DOCKED: USER    NEWDPF quaternion0 0.206553 -0.895383 0.119306 -0.376021
DOCKED: USER    NEWDPF axisangle0 0.222912 -0.966298 0.128755 -135.825155
DOCKED: USER    NEWDPF quat0 0.222912 -0.966298 0.128755 -135.825155
DOCKED: USER    NEWDPF dihe0 157.94 -88.24 -119.74 -149.58 118.16 -177.47 -5.32 51.87 -151.63 146.73 
DOCKED: USER  keepresnum = 1 
DOCKED: USER  
DOCKED: REMARK  10 active torsions:
DOCKED: REMARK  status: ('A' for Active; 'I' for Inactive)
DOCKED: REMARK    1  A    between atoms: C_6  and  C_10 
DOCKED: REMARK    2  A    between atoms: C_10  and  C_11 
DOCKED: REMARK    3  A    between atoms: C_11  and  C_12 
DOCKED: REMARK    4  A    between atoms: C_12  and  O_14 
DOCKED: REMARK    5  A    between atoms: C_17  and  C_20 
DOCKED: REMARK    6  A    between atoms: C_24  and  C_27 
DOCKED: REMARK    7  A    between atoms: C_31  and  C_34 
DOCKED: REMARK    8  A    between atoms: C_34  and  C_35 
DOCKED: REMARK    9  A    between atoms: C_35  and  C_36 
DOCKED: REMARK   10  A    between atoms: C_36  and  O_38 
DOCKED: USER                              x       y       z     vdW  Elec       q    Type
DOCKED: USER                           _______ _______ _______ _____ _____    ______ ____
DOCKED: ROOT
DOCKED: ATOM      1  C   UNL d   1       8.604  -4.600  13.456 -0.13 +0.02    +0.064 C 
DOCKED: ATOM      2  C   UNL d   1       7.946  -8.498  16.422 -0.22 +0.02    +0.064 A 
DOCKED: ATOM      3  C   UNL d   1       4.514  -6.067  18.742 -0.16 -0.01    +0.064 C 
DOCKED: ATOM      4  C   UNL d   1       5.208  -2.245  15.949 -0.23 -0.01    +0.064 C 
DOCKED: ATOM      5  C   UNL d   1       8.795  -5.892  14.129 -0.13 +0.01    +0.066 A 
DOCKED: ATOM      6  C   UNL d   1       9.775  -6.816  13.805 -0.13 -0.01    -0.021 A 
DOCKED: ATOM      7  C   UNL d   1       9.590  -7.899  14.627 -0.15 -0.01    -0.025 A 
DOCKED: ATOM      8  C   UNL d   1       8.502  -7.595  15.422 -0.18 +0.02    +0.066 A 
DOCKED: ATOM      9  C   UNL d   1      10.426  -9.142  14.652 -0.15 +0.03    +0.051 C 
DOCKED: ATOM     10  C   UNL d   1       6.934  -8.208  17.242 -0.23 +0.01    +0.066 A 
DOCKED: ATOM     11  C   UNL d   1       6.350  -9.133  18.110 -0.22 -0.00    -0.021 A 
DOCKED: ATOM     12  C   UNL d   1       5.346  -8.461  18.778 -0.18 -0.00    +0.000 A 
DOCKED: ATOM     13  C   UNL d   1       5.365  -7.149  18.272 -0.18 -0.01    +0.070 A 
DOCKED: ATOM     14  C   UNL d   1       6.685 -10.604  18.247 -0.18 +0.01    +0.052 C 
DOCKED: ATOM     15  C   UNL d   1       4.493  -4.817  18.222 -0.12 -0.01    +0.066 A 
DOCKED: ATOM     16  C   UNL d   1       3.738  -3.783  18.763 -0.08 +0.00    -0.021 A 
DOCKED: ATOM     17  C   UNL d   1       3.934  -2.681  17.957 -0.14 -0.00    +0.000 A 
DOCKED: ATOM     18  C   UNL d   1       4.802  -3.069  16.939 -0.14 -0.01    +0.070 A 
DOCKED: ATOM     19  C   UNL d   1       2.847  -3.834  19.975 -0.05 -0.01    +0.052 C 
DOCKED: ATOM     20  C   UNL d   1       6.168  -2.600  14.897 -0.17 -0.00    +0.066 A 
DOCKED: ATOM     21  C   UNL d   1       6.444  -1.830  13.758 -0.24 -0.00    -0.025 A 
DOCKED: ATOM     22  C   UNL d   1       7.423  -2.514  13.069 -0.18 -0.00    -0.021 A 
DOCKED: ATOM     23  C   UNL d   1       7.701  -3.671  13.806 -0.10 +0.01    +0.066 A 
DOCKED: ATOM     24  C   UNL d   1       5.821  -0.522  13.331 -0.47 -0.00    +0.051 C 
DOCKED: ATOM     25  N   UNL d   1       8.026  -6.370  15.123 -0.08 -0.04    -0.248 N 
DOCKED: ATOM     26  N   UNL d   1       6.326  -6.997  17.329 -0.15 +0.00    -0.248 N 
DOCKED: ATOM     27  N   UNL d   1       5.180  -4.370  17.126 -0.08 +0.02    -0.248 N 
DOCKED: ATOM     28  N   UNL d   1       6.900  -3.741  14.897 +0.00 -0.02    -0.248 N 
DOCKED: ATOM     29 FE   UNL d   1       6.612  -5.367  16.113 -0.04 +0.00    +0.000 Fe
DOCKED: ENDROOT
DOCKED: BRANCH   6  30
DOCKED: ATOM     30  C   UNL d   1      10.849  -6.669  12.781 -0.09 +0.02    +0.052 C 
DOCKED: BRANCH  30  31
DOCKED: ATOM     31  C   UNL d   1      10.250  -6.518  11.388 -0.15 +0.07    +0.115 C 
DOCKED: BRANCH  31  32
DOCKED: ATOM     32  C   UNL d   1      11.329  -6.243  10.378 -0.02 +0.18    +0.139 C 
DOCKED: ATOM     33  O   UNL d   1      11.536  -7.023   9.458 -0.48 -0.86    -0.650 OA
DOCKED: BRANCH  32  34
DOCKED: ATOM     34  O   UNL d   1      12.079  -5.133  10.478 +0.15 -1.27    -0.776 OA
DOCKED: ATOM     35  H   UNL d   1      11.735  -4.377  10.975 +0.01 +0.22    +0.167 HD
DOCKED: ENDBRANCH  32  34
DOCKED: ENDBRANCH  31  32
DOCKED: ENDBRANCH  30  31
DOCKED: ENDBRANCH   6  30
DOCKED: BRANCH  22  36
DOCKED: ATOM     36  C   UNL d   1       8.022  -2.101  11.750 -0.23 +0.01    +0.052 C 
DOCKED: BRANCH  36  37
DOCKED: ATOM     37  C   UNL d   1       7.692  -3.139  10.688 -0.03 +0.05    +0.115 C 
DOCKED: BRANCH  37  38
DOCKED: ATOM     38  C   UNL d   1       8.930  -3.576   9.958 -0.13 +0.16    +0.139 C 
DOCKED: ATOM     39  O   UNL d   1       8.863  -4.375   9.035 -0.28 -1.03    -0.650 OA
DOCKED: BRANCH  38  40
DOCKED: ATOM     40  O   UNL d   1      10.130  -3.089  10.321 -0.35 -1.18    -0.776 OA
DOCKED: ATOM     41  H   UNL d   1      10.654  -3.570  10.976 +0.02 +0.20    +0.167 HD
DOCKED: ENDBRANCH  38  40
DOCKED: ENDBRANCH  37  38
DOCKED: ENDBRANCH  36  37
DOCKED: ENDBRANCH  22  36
DOCKED: BRANCH  12  42
DOCKED: ATOM     42  C   UNL d   1       4.444  -9.069  19.805 -0.18 -0.00    +0.004 C 
DOCKED: ATOM     43  C   UNL d   1       3.489  -9.939  19.454 -0.26 -0.00    +0.012 C 
DOCKED: ENDBRANCH  12  42
DOCKED: BRANCH  17  44
DOCKED: ATOM     44  C   UNL d   1       3.346  -1.337  18.160 -0.33 -0.00    +0.004 C 
DOCKED: ATOM     45  C   UNL d   1       2.224  -0.979  17.527 -0.43 -0.01    +0.012 C 
DOCKED: ENDBRANCH  17  44
DOCKED: TORSDOF 10
DOCKED: TER
DOCKED: ENDMDL
________________________________________________________________________________


	BEGINNING GENETIC ALGORITHM DOCKING 60 of 100
Run: 60 Seed: 449147471 651705026 [ Run 60 of 100 GA/GALS ]
Beginning LAMARCKIAN GENETIC ALGORITHM (LGA), with a maximum of 25000000 energy evaluations.

Final-Value: -10.042


	FINAL GENETIC ALGORITHM DOCKED STATE
	_______________________________________________


Detailed state:  trans -10.931 4.719 12.344 quatxyzw 0.640664 -0.068726 -0.749869 0.150075 center -0.174 -0.001 -0.047 ntor 10 149.1179 -152.7844 -180.0000 72.4065 -74.8879 -44.7061 49.0089 133.9488 -6.9800 21.6358
State:	-10.931   4.719  12.344   0.648 -0.070 -0.758 162.738    149.12 -152.78 -180.00   72.41  -74.89  -44.71   49.01  133.95   -6.98   21.64

DOCKED: MODEL       60
DOCKED: USER    Run = 60
DOCKED: USER    DPF = D:/Protein_go_brrr/autodock/final/mut_N102T/heme_Fe/dock.dpf
DOCKED: USER  
DOCKED: USER    Estimated Free Energy of Binding    =   -5.25 kcal/mol  [=(1)+(2)+(3)-(4)]
DOCKED: USER    Estimated Inhibition Constant, Ki   =  141.00 uM (micromolar)  [Temperature = 298.15 K]
DOCKED: USER    
DOCKED: USER    (1) Final Intermolecular Energy     =   -8.24 kcal/mol
DOCKED: USER        vdW + Hbond + desolv Energy     =   -7.47 kcal/mol
DOCKED: USER        Electrostatic Energy            =   -0.76 kcal/mol
DOCKED: USER    (2) Final Total Internal Energy     =   -1.81 kcal/mol
DOCKED: USER    (3) Torsional Free Energy           =   +2.98 kcal/mol
DOCKED: USER    (4) Unbound System's Energy  [=(2)] =   -1.81 kcal/mol
DOCKED: USER    
DOCKED: USER    
DOCKED: USER    NEWDPF move heme_Fe_opt.pdbqt
DOCKED: USER    NEWDPF about -0.174000 -0.001000 -0.047000
DOCKED: USER    NEWDPF tran0 -10.930574 4.719342 12.343971
DOCKED: USER    NEWDPF quaternion0 0.640664 -0.068726 -0.749869 0.150075
DOCKED: USER    NEWDPF axisangle0 0.648003 -0.069514 -0.758459 162.737501
DOCKED: USER    NEWDPF quat0 0.648003 -0.069514 -0.758459 162.737501
DOCKED: USER    NEWDPF dihe0 149.12 -152.78 -180.00 72.41 -74.89 -44.71 49.01 133.95 -6.98 21.64 
DOCKED: USER  keepresnum = 1 
DOCKED: USER  
DOCKED: REMARK  10 active torsions:
DOCKED: REMARK  status: ('A' for Active; 'I' for Inactive)
DOCKED: REMARK    1  A    between atoms: C_6  and  C_10 
DOCKED: REMARK    2  A    between atoms: C_10  and  C_11 
DOCKED: REMARK    3  A    between atoms: C_11  and  C_12 
DOCKED: REMARK    4  A    between atoms: C_12  and  O_14 
DOCKED: REMARK    5  A    between atoms: C_17  and  C_20 
DOCKED: REMARK    6  A    between atoms: C_24  and  C_27 
DOCKED: REMARK    7  A    between atoms: C_31  and  C_34 
DOCKED: REMARK    8  A    between atoms: C_34  and  C_35 
DOCKED: REMARK    9  A    between atoms: C_35  and  C_36 
DOCKED: REMARK   10  A    between atoms: C_36  and  O_38 
DOCKED: USER                              x       y       z     vdW  Elec       q    Type
DOCKED: USER                           _______ _______ _______ _____ _____    ______ ____
DOCKED: ROOT
DOCKED: ATOM      1  C   UNL d   1     -11.147   4.661  14.384 -0.14 +0.01    +0.064 C 
DOCKED: ATOM      2  C   UNL d   1     -10.413   8.248  11.063 -0.24 +0.00    +0.064 A 
DOCKED: ATOM      3  C   UNL d   1     -11.631   5.176   7.578 -0.23 +0.00    +0.064 C 
DOCKED: ATOM      4  C   UNL d   1     -12.245   1.661  10.765 -0.22 -0.01    +0.064 C 
DOCKED: ATOM      5  C   UNL d   1     -10.746   5.932  13.765 -0.17 +0.01    +0.066 A 
DOCKED: ATOM      6  C   UNL d   1     -10.230   7.018  14.452 -0.21 -0.00    -0.021 A 
DOCKED: ATOM      7  C   UNL d   1     -10.030   8.015  13.530 -0.27 -0.00    -0.025 A 
DOCKED: ATOM      8  C   UNL d   1     -10.432   7.498  12.313 -0.29 +0.00    +0.066 A 
DOCKED: ATOM      9  C   UNL d   1      -9.467   9.375  13.808 -0.19 +0.00    +0.051 C 
DOCKED: ATOM     10  C   UNL d   1     -10.741   7.755   9.868 -0.31 -0.00    +0.066 A 
DOCKED: ATOM     11  C   UNL d   1     -10.822   8.528   8.707 -0.27 +0.00    -0.021 A 
DOCKED: ATOM     12  C   UNL d   1     -11.188   7.669   7.690 -0.30 -0.00    +0.000 A 
DOCKED: ATOM     13  C   UNL d   1     -11.321   6.405   8.291 -0.27 -0.00    +0.070 A 
DOCKED: ATOM     14  C   UNL d   1     -10.628  10.026   8.585 -0.18 -0.01    +0.052 C 
DOCKED: ATOM     15  C   UNL d   1     -11.811   3.966   8.159 -0.25 -0.00    +0.066 A 
DOCKED: ATOM     16  C   UNL d   1     -12.007   2.798   7.434 -0.27 +0.00    -0.021 A 
DOCKED: ATOM     17  C   UNL d   1     -12.188   1.783   8.351 -0.24 -0.00    +0.000 A 
DOCKED: ATOM     18  C   UNL d   1     -12.102   2.359   9.617 -0.21 -0.01    +0.070 A 
DOCKED: ATOM     19  C   UNL d   1     -12.050   2.642   5.938 -0.28 -0.01    +0.052 C 
DOCKED: ATOM     20  C   UNL d   1     -12.099   2.221  12.114 -0.19 -0.00    +0.066 A 
DOCKED: ATOM     21  C   UNL d   1     -12.440   1.563  13.305 -0.11 -0.00    -0.025 A 
DOCKED: ATOM     22  C   UNL d   1     -12.107   2.431  14.324 -0.11 -0.00    -0.021 A 
DOCKED: ATOM     23  C   UNL d   1     -11.585   3.581  13.718 -0.15 +0.00    +0.066 A 
DOCKED: ATOM     24  C   UNL d   1     -13.051   0.193  13.484 -0.05 -0.00    +0.051 C 
DOCKED: ATOM     25  N   UNL d   1     -10.858   6.228  12.458 -0.16 -0.02    -0.248 N 
DOCKED: ATOM     26  N   UNL d   1     -11.057   6.459   9.620 -0.21 +0.00    -0.248 N 
DOCKED: ATOM     27  N   UNL d   1     -11.826   3.692   9.501 -0.11 +0.02    -0.248 N 
DOCKED: ATOM     28  N   UNL d   1     -11.625   3.464  12.368 -0.13 -0.00    -0.248 N 
DOCKED: ATOM     29 FE   UNL d   1     -11.341   4.959  10.994 -0.06 -0.00    +0.000 Fe
DOCKED: ENDROOT
DOCKED: BRANCH   6  30
DOCKED: ATOM     30  C   UNL d   1      -9.921   7.100  15.908 -0.13 +0.00    +0.052 C 
DOCKED: BRANCH  30  31
DOCKED: ATOM     31  C   UNL d   1      -8.559   6.484  16.207 -0.20 +0.01    +0.115 C 
DOCKED: BRANCH  31  32
DOCKED: ATOM     32  C   UNL d   1      -8.658   5.521  17.357 -0.11 +0.01    +0.139 C 
DOCKED: ATOM     33  O   UNL d   1      -8.767   5.929  18.504 +0.03 +0.00    -0.650 OA
DOCKED: BRANCH  32  34
DOCKED: ATOM     34  O   UNL d   1      -8.627   4.196  17.132 +0.06 -0.11    -0.776 OA
DOCKED: ATOM     35  H   UNL d   1      -8.983   3.853  16.300 +0.05 +0.04    +0.167 HD
DOCKED: ENDBRANCH  32  34
DOCKED: ENDBRANCH  31  32
DOCKED: ENDBRANCH  30  31
DOCKED: ENDBRANCH   6  30
DOCKED: BRANCH  22  36
DOCKED: ATOM     36  C   UNL d   1     -12.325   2.187  15.794 -0.05 +0.00    +0.052 C 
DOCKED: BRANCH  36  37
DOCKED: ATOM     37  C   UNL d   1     -10.987   2.190  16.518 -0.09 +0.02    +0.115 C 
DOCKED: BRANCH  37  38
DOCKED: ATOM     38  C   UNL d   1      -9.977   1.349  15.790 -0.17 +0.06    +0.139 C 
DOCKED: ATOM     39  O   UNL d   1     -10.278   0.245  15.358 -0.06 -0.37    -0.650 OA
DOCKED: BRANCH  38  40
DOCKED: ATOM     40  O   UNL d   1      -8.726   1.807  15.609 -0.02 -0.47    -0.776 OA
DOCKED: ATOM     41  H   UNL d   1      -8.363   2.443  16.242 +0.05 +0.08    +0.167 HD
DOCKED: ENDBRANCH  38  40
DOCKED: ENDBRANCH  37  38
DOCKED: ENDBRANCH  36  37
DOCKED: ENDBRANCH  22  36
DOCKED: BRANCH  12  42
DOCKED: ATOM     42  C   UNL d   1     -11.404   8.071   6.266 -0.28 -0.00    +0.004 C 
DOCKED: ATOM     43  C   UNL d   1     -12.497   7.678   5.597 -0.17 -0.00    +0.012 C 
DOCKED: ENDBRANCH  12  42
DOCKED: BRANCH  17  44
DOCKED: ATOM     44  C   UNL d   1     -12.409   0.354   8.037 -0.24 -0.00    +0.004 C 
DOCKED: ATOM     45  C   UNL d   1     -11.632  -0.593   8.574 -0.29 -0.00    +0.012 C 
DOCKED: ENDBRANCH  17  44
DOCKED: TORSDOF 10
DOCKED: TER
DOCKED: ENDMDL
________________________________________________________________________________


	BEGINNING GENETIC ALGORITHM DOCKING 61 of 100
Run: 61 Seed: 2128304417 655666244 [ Run 61 of 100 GA/GALS ]
Beginning LAMARCKIAN GENETIC ALGORITHM (LGA), with a maximum of 25000000 energy evaluations.

Final-Value: -15.464


	FINAL GENETIC ALGORITHM DOCKED STATE
	_______________________________________________


Detailed state:  trans 5.788 -4.366 7.380 quatxyzw -0.029090 0.748630 0.565130 -0.345449 center -0.174 -0.001 -0.047 ntor 10 12.6379 156.2575 73.3495 -106.3644 -158.4038 97.4094 8.7796 82.9564 -19.1931 176.9677
State:	  5.788  -4.366   7.380  -0.031  0.798  0.602 -139.582     12.64  156.26   73.35 -106.36 -158.40   97.41    8.78   82.96  -19.19  176.97

DOCKED: MODEL       61
DOCKED: USER    Run = 61
DOCKED: USER    DPF = D:/Protein_go_brrr/autodock/final/mut_N102T/heme_Fe/dock.dpf
DOCKED: USER  
DOCKED: USER    Estimated Free Energy of Binding    =  -12.05 kcal/mol  [=(1)+(2)+(3)-(4)]
DOCKED: USER    Estimated Inhibition Constant, Ki   =    1.47 nM (nanomolar)  [Temperature = 298.15 K]
DOCKED: USER    
DOCKED: USER    (1) Final Intermolecular Energy     =  -15.03 kcal/mol
DOCKED: USER        vdW + Hbond + desolv Energy     =  -12.07 kcal/mol
DOCKED: USER        Electrostatic Energy            =   -2.96 kcal/mol
DOCKED: USER    (2) Final Total Internal Energy     =   -0.43 kcal/mol
DOCKED: USER    (3) Torsional Free Energy           =   +2.98 kcal/mol
DOCKED: USER    (4) Unbound System's Energy  [=(2)] =   -0.43 kcal/mol
DOCKED: USER    
DOCKED: USER    
DOCKED: USER    NEWDPF move heme_Fe_opt.pdbqt
DOCKED: USER    NEWDPF about -0.174000 -0.001000 -0.047000
DOCKED: USER    NEWDPF tran0 5.788123 -4.366383 7.379668
DOCKED: USER    NEWDPF quaternion0 -0.029090 0.748630 0.565130 -0.345449
DOCKED: USER    NEWDPF axisangle0 -0.030998 0.797741 0.602203 -139.581626
DOCKED: USER    NEWDPF quat0 -0.030998 0.797741 0.602203 -139.581626
DOCKED: USER    NEWDPF dihe0 12.64 156.26 73.35 -106.36 -158.40 97.41 8.78 82.96 -19.19 176.97 
DOCKED: USER  keepresnum = 1 
DOCKED: USER  
DOCKED: REMARK  10 active torsions:
DOCKED: REMARK  status: ('A' for Active; 'I' for Inactive)
DOCKED: REMARK    1  A    between atoms: C_6  and  C_10 
DOCKED: REMARK    2  A    between atoms: C_10  and  C_11 
DOCKED: REMARK    3  A    between atoms: C_11  and  C_12 
DOCKED: REMARK    4  A    between atoms: C_12  and  O_14 
DOCKED: REMARK    5  A    between atoms: C_17  and  C_20 
DOCKED: REMARK    6  A    between atoms: C_24  and  C_27 
DOCKED: REMARK    7  A    between atoms: C_31  and  C_34 
DOCKED: REMARK    8  A    between atoms: C_34  and  C_35 
DOCKED: REMARK    9  A    between atoms: C_35  and  C_36 
DOCKED: REMARK   10  A    between atoms: C_36  and  O_38 
DOCKED: USER                              x       y       z     vdW  Elec       q    Type
DOCKED: USER                           _______ _______ _______ _____ _____    ______ ____
DOCKED: ROOT
DOCKED: ATOM      1  C   UNL d   1       7.576  -4.614   8.355 -0.39 +0.04    +0.064 C 
DOCKED: ATOM      2  C   UNL d   1       6.151  -4.711   3.624 -0.21 +0.01    +0.064 A 
DOCKED: ATOM      3  C   UNL d   1       2.016  -2.626   4.898 -0.45 +0.00    +0.064 C 
DOCKED: ATOM      4  C   UNL d   1       3.332  -2.618   9.498 -0.50 +0.01    +0.064 C 
DOCKED: ATOM      5  C   UNL d   1       7.524  -4.911   6.917 -0.36 +0.03    +0.066 A 
DOCKED: ATOM      6  C   UNL d   1       8.495  -5.608   6.218 -0.13 -0.01    -0.021 A 
DOCKED: ATOM      7  C   UNL d   1       8.101  -5.631   4.903 +0.03 -0.01    -0.025 A 
DOCKED: ATOM      8  C   UNL d   1       6.902  -4.946   4.851 -0.28 +0.01    +0.066 A 
DOCKED: ATOM      9  C   UNL d   1       8.830  -6.292   3.774 -0.22 +0.01    +0.051 C 
DOCKED: ATOM     10  C   UNL d   1       4.965  -4.104   3.554 -0.43 +0.00    +0.066 A 
DOCKED: ATOM     11  C   UNL d   1       4.325  -3.791   2.352 -0.40 -0.00    -0.021 A 
DOCKED: ATOM     12  C   UNL d   1       3.137  -3.174   2.692 -0.25 +0.00    +0.000 A 
DOCKED: ATOM     13  C   UNL d   1       3.119  -3.134   4.097 -0.38 +0.00    +0.070 A 
DOCKED: ATOM     14  C   UNL d   1       4.850  -4.007   0.947 -0.53 -0.01    +0.052 C 
DOCKED: ATOM     15  C   UNL d   1       2.015  -2.538   6.249 -0.41 +0.01    +0.066 A 
DOCKED: ATOM     16  C   UNL d   1       0.905  -2.140   6.983 -0.49 -0.00    -0.021 A 
DOCKED: ATOM     17  C   UNL d   1       1.283  -2.134   8.310 -0.51 +0.00    +0.000 A 
DOCKED: ATOM     18  C   UNL d   1       2.619  -2.525   8.354 -0.39 +0.01    +0.070 A 
DOCKED: ATOM     19  C   UNL d   1      -0.452  -1.756   6.458 -0.43 +0.00    +0.052 C 
DOCKED: ATOM     20  C   UNL d   1       4.721  -3.085   9.589 -0.34 +0.01    +0.066 A 
DOCKED: ATOM     21  C   UNL d   1       5.531  -2.998  10.730 -0.30 -0.00    -0.025 A 
DOCKED: ATOM     22  C   UNL d   1       6.732  -3.584  10.386 -0.22 -0.01    -0.021 A 
DOCKED: ATOM     23  C   UNL d   1       6.610  -3.998   9.054 -0.23 +0.02    +0.066 A 
DOCKED: ATOM     24  C   UNL d   1       5.204  -2.394  12.076 -0.40 +0.00    +0.051 C 
DOCKED: ATOM     25  N   UNL d   1       6.549  -4.518   6.079 -0.26 -0.07    -0.248 N 
DOCKED: ATOM     26  N   UNL d   1       4.237  -3.693   4.622 -0.27 -0.02    -0.248 N 
DOCKED: ATOM     27  N   UNL d   1       3.058  -2.816   7.092 -0.06 -0.07    -0.248 N 
DOCKED: ATOM     28  N   UNL d   1       5.396  -3.650   8.559 -0.15 -0.08    -0.248 N 
DOCKED: ATOM     29 FE   UNL d   1       4.816  -3.671   6.593 -0.09 +0.00    +0.000 Fe
DOCKED: ENDROOT
DOCKED: BRANCH   6  30
DOCKED: ATOM     30  C   UNL d   1       9.726  -6.240   6.772 +0.56 +0.06    +0.052 C 
DOCKED: BRANCH  30  31
DOCKED: ATOM     31  C   UNL d   1       9.374  -7.458   7.619 -0.06 +0.08    +0.115 C 
DOCKED: BRANCH  31  32
DOCKED: ATOM     32  C   UNL d   1      10.590  -7.962   8.346 -0.13 +0.11    +0.139 C 
DOCKED: ATOM     33  O   UNL d   1      10.639  -9.114   8.753 +0.02 -0.27    -0.650 OA
DOCKED: BRANCH  32  34
DOCKED: ATOM     34  O   UNL d   1      11.637  -7.147   8.556 -0.57 -1.18    -0.776 OA
DOCKED: ATOM     35  H   UNL d   1      12.475  -7.526   8.855 +0.01 +0.15    +0.167 HD
DOCKED: ENDBRANCH  32  34
DOCKED: ENDBRANCH  31  32
DOCKED: ENDBRANCH  30  31
DOCKED: ENDBRANCH   6  30
DOCKED: BRANCH  22  36
DOCKED: ATOM     36  C   UNL d   1       7.943  -3.695  11.274 -0.24 +0.02    +0.052 C 
DOCKED: BRANCH  36  37
DOCKED: ATOM     37  C   UNL d   1       8.778  -2.428  11.163 -0.13 +0.06    +0.115 C 
DOCKED: BRANCH  37  38
DOCKED: ATOM     38  C   UNL d   1       9.917  -2.615  10.201 -0.03 +0.18    +0.139 C 
DOCKED: ATOM     39  O   UNL d   1       9.825  -2.236   9.043 -0.35 -1.02    -0.650 OA
DOCKED: BRANCH  38  40
DOCKED: ATOM     40  O   UNL d   1      11.051  -3.209  10.612 -0.04 -1.19    -0.776 OA
DOCKED: ATOM     41  H   UNL d   1      11.275  -3.195  11.553 +0.03 +0.14    +0.167 HD
DOCKED: ENDBRANCH  38  40
DOCKED: ENDBRANCH  37  38
DOCKED: ENDBRANCH  36  37
DOCKED: ENDBRANCH  22  36
DOCKED: BRANCH  12  42
DOCKED: ATOM     42  C   UNL d   1       2.131  -2.657   1.714 -0.41 +0.00    +0.004 C 
DOCKED: ATOM     43  C   UNL d   1       0.870  -3.109   1.718 -0.58 +0.00    +0.012 C 
DOCKED: ENDBRANCH  12  42
DOCKED: BRANCH  17  44
DOCKED: ATOM     44  C   UNL d   1       0.417  -1.796   9.461 -0.55 +0.00    +0.004 C 
DOCKED: ATOM     45  C   UNL d   1      -0.274  -0.651   9.485 -0.54 +0.00    +0.012 C 
DOCKED: ENDBRANCH  17  44
DOCKED: TORSDOF 10
DOCKED: TER
DOCKED: ENDMDL
________________________________________________________________________________


	BEGINNING GENETIC ALGORITHM DOCKING 62 of 100
Run: 62 Seed: 1045079674 1707206365 [ Run 62 of 100 GA/GALS ]
Beginning LAMARCKIAN GENETIC ALGORITHM (LGA), with a maximum of 25000000 energy evaluations.

Final-Value: -11.361


	FINAL GENETIC ALGORITHM DOCKED STATE
	_______________________________________________


Detailed state:  trans 8.643 -1.527 15.152 quatxyzw 0.449686 0.654793 0.457698 0.399425 center -0.174 -0.001 -0.047 ntor 10 30.2700 148.7172 177.4940 -155.6982 -68.0792 113.1802 58.8426 -22.2499 -12.7519 5.5144
State:	  8.643  -1.527  15.152   0.491  0.714  0.499 132.916     30.27  148.72  177.49 -155.70  -68.08  113.18   58.84  -22.25  -12.75    5.51

DOCKED: MODEL       62
DOCKED: USER    Run = 62
DOCKED: USER    DPF = D:/Protein_go_brrr/autodock/final/mut_N102T/heme_Fe/dock.dpf
DOCKED: USER  
DOCKED: USER    Estimated Free Energy of Binding    =   -6.34 kcal/mol  [=(1)+(2)+(3)-(4)]
DOCKED: USER    Estimated Inhibition Constant, Ki   =   22.57 uM (micromolar)  [Temperature = 298.15 K]
DOCKED: USER    
DOCKED: USER    (1) Final Intermolecular Energy     =   -9.32 kcal/mol
DOCKED: USER        vdW + Hbond + desolv Energy     =   -6.39 kcal/mol
DOCKED: USER        Electrostatic Energy            =   -2.93 kcal/mol
DOCKED: USER    (2) Final Total Internal Energy     =   -2.04 kcal/mol
DOCKED: USER    (3) Torsional Free Energy           =   +2.98 kcal/mol
DOCKED: USER    (4) Unbound System's Energy  [=(2)] =   -2.04 kcal/mol
DOCKED: USER    
DOCKED: USER    
DOCKED: USER    NEWDPF move heme_Fe_opt.pdbqt
DOCKED: USER    NEWDPF about -0.174000 -0.001000 -0.047000
DOCKED: USER    NEWDPF tran0 8.643469 -1.527428 15.152063
DOCKED: USER    NEWDPF quaternion0 0.449686 0.654793 0.457698 0.399425
DOCKED: USER    NEWDPF axisangle0 0.490514 0.714243 0.499253 132.915510
DOCKED: USER    NEWDPF quat0 0.490514 0.714243 0.499253 132.915510
DOCKED: USER    NEWDPF dihe0 30.27 148.72 177.49 -155.70 -68.08 113.18 58.84 -22.25 -12.75 5.51 
DOCKED: USER  keepresnum = 1 
DOCKED: USER  
DOCKED: REMARK  10 active torsions:
DOCKED: REMARK  status: ('A' for Active; 'I' for Inactive)
DOCKED: REMARK    1  A    between atoms: C_6  and  C_10 
DOCKED: REMARK    2  A    between atoms: C_10  and  C_11 
DOCKED: REMARK    3  A    between atoms: C_11  and  C_12 
DOCKED: REMARK    4  A    between atoms: C_12  and  O_14 
DOCKED: REMARK    5  A    between atoms: C_17  and  C_20 
DOCKED: REMARK    6  A    between atoms: C_24  and  C_27 
DOCKED: REMARK    7  A    between atoms: C_31  and  C_34 
DOCKED: REMARK    8  A    between atoms: C_34  and  C_35 
DOCKED: REMARK    9  A    between atoms: C_35  and  C_36 
DOCKED: REMARK   10  A    between atoms: C_36  and  O_38 
DOCKED: USER                              x       y       z     vdW  Elec       q    Type
DOCKED: USER                           _______ _______ _______ _____ _____    ______ ____
DOCKED: ROOT
DOCKED: ATOM      1  C   UNL d   1       9.076  -1.470  13.147 -0.15 +0.02    +0.064 C 
DOCKED: ATOM      2  C   UNL d   1       4.914  -1.428  15.813 -0.16 -0.01    +0.064 A 
DOCKED: ATOM      3  C   UNL d   1       7.512  -0.425  19.726 -0.04 +0.01    +0.064 C 
DOCKED: ATOM      4  C   UNL d   1      11.562  -0.565  17.184 -0.06 +0.01    +0.064 C 
DOCKED: ATOM      5  C   UNL d   1       7.672  -1.634  13.550 -0.17 +0.01    +0.066 A 
DOCKED: ATOM      6  C   UNL d   1       6.649  -2.033  12.706 -0.27 -0.00    -0.021 A 
DOCKED: ATOM      7  C   UNL d   1       5.493  -2.018  13.446 -0.31 +0.00    -0.025 A 
DOCKED: ATOM      8  C   UNL d   1       5.855  -1.609  14.715 -0.25 -0.01    +0.066 A 
DOCKED: ATOM      9  C   UNL d   1       4.127  -2.394  12.959 -0.43 -0.01    +0.051 C 
DOCKED: ATOM     10  C   UNL d   1       5.244  -1.090  17.060 -0.26 -0.01    +0.066 A 
DOCKED: ATOM     11  C   UNL d   1       4.311  -0.813  18.061 -0.33 +0.00    -0.021 A 
DOCKED: ATOM     12  C   UNL d   1       5.035  -0.504  19.196 -0.26 -0.00    +0.000 A 
DOCKED: ATOM     13  C   UNL d   1       6.386  -0.602  18.822 -0.11 +0.00    +0.070 A 
DOCKED: ATOM     14  C   UNL d   1       2.802  -0.776  17.926 -0.44 -0.02    +0.052 C 
DOCKED: ATOM     15  C   UNL d   1       8.815  -0.467  19.359 +0.05 +0.01    +0.066 A 
DOCKED: ATOM     16  C   UNL d   1       9.861  -0.392  20.269 -0.05 -0.00    -0.021 A 
DOCKED: ATOM     17  C   UNL d   1      11.031  -0.429  19.538 -0.04 +0.00    +0.000 A 
DOCKED: ATOM     18  C   UNL d   1      10.669  -0.522  18.196 -0.06 +0.02    +0.070 A 
DOCKED: ATOM     19  C   UNL d   1       9.769  -0.265  21.766 -0.03 +0.00    +0.052 C 
DOCKED: ATOM     20  C   UNL d   1      11.221  -0.724  15.765 -0.05 +0.02    +0.066 A 
DOCKED: ATOM     21  C   UNL d   1      12.113  -0.571  14.695 -0.03 -0.01    -0.025 A 
DOCKED: ATOM     22  C   UNL d   1      11.386  -0.846  13.555 -0.05 -0.01    -0.021 A 
DOCKED: ATOM     23  C   UNL d   1      10.084  -1.148  13.972 -0.08 +0.02    +0.066 A 
DOCKED: ATOM     24  C   UNL d   1      13.573  -0.182  14.732 -0.01 +0.01    +0.051 C 
DOCKED: ATOM     25  N   UNL d   1       7.183  -1.386  14.777 -0.11 -0.02    -0.248 N 
DOCKED: ATOM     26  N   UNL d   1       6.515  -0.951  17.518 -0.12 -0.01    -0.248 N 
DOCKED: ATOM     27  N   UNL d   1       9.308  -0.590  18.088 -0.01 -0.08    -0.248 N 
DOCKED: ATOM     28  N   UNL d   1       9.978  -1.029  15.318 -0.05 -0.06    -0.248 N 
DOCKED: ATOM     29 FE   UNL d   1       8.248  -0.989  16.418 -0.04 +0.00    +0.000 Fe
DOCKED: ENDROOT
DOCKED: BRANCH   6  30
DOCKED: ATOM     30  C   UNL d   1       6.764  -2.431  11.274 -0.17 +0.01    +0.052 C 
DOCKED: BRANCH  30  31
DOCKED: ATOM     31  C   UNL d   1       7.335  -3.839  11.149 -0.22 +0.04    +0.115 C 
DOCKED: BRANCH  31  32
DOCKED: ATOM     32  C   UNL d   1       8.605  -3.823  10.344 -0.21 +0.11    +0.139 C 
DOCKED: ATOM     33  O   UNL d   1       8.582  -3.565   9.148 -0.44 -0.78    -0.650 OA
DOCKED: BRANCH  32  34
DOCKED: ATOM     34  O   UNL d   1       9.781  -4.093  10.934 -0.14 -0.81    -0.776 OA
DOCKED: ATOM     35  H   UNL d   1      10.585  -3.679  10.590 +0.02 +0.27    +0.167 HD
DOCKED: ENDBRANCH  32  34
DOCKED: ENDBRANCH  31  32
DOCKED: ENDBRANCH  30  31
DOCKED: ENDBRANCH   6  30
DOCKED: BRANCH  22  36
DOCKED: ATOM     36  C   UNL d   1      11.904  -0.773  12.143 -0.08 +0.02    +0.052 C 
DOCKED: BRANCH  36  37
DOCKED: ATOM     37  C   UNL d   1      12.189  -2.176  11.627 -0.06 +0.07    +0.115 C 
DOCKED: BRANCH  37  38
DOCKED: ATOM     38  C   UNL d   1      12.160  -2.215  10.126 -0.04 +0.18    +0.139 C 
DOCKED: ATOM     39  O   UNL d   1      13.178  -2.434   9.486 -0.50 -0.92    -0.650 OA
DOCKED: BRANCH  38  40
DOCKED: ATOM     40  O   UNL d   1      11.004  -2.003   9.471 -0.13 -1.24    -0.776 OA
DOCKED: ATOM     41  H   UNL d   1      10.173  -2.276   9.884 +0.03 +0.23    +0.167 HD
DOCKED: ENDBRANCH  38  40
DOCKED: ENDBRANCH  37  38
DOCKED: ENDBRANCH  36  37
DOCKED: ENDBRANCH  22  36
DOCKED: BRANCH  12  42
DOCKED: ATOM     42  C   UNL d   1       4.439  -0.129  20.516 -0.24 -0.00    +0.004 C 
DOCKED: ATOM     43  C   UNL d   1       4.914   0.910  21.216 -0.24 -0.01    +0.012 C 
DOCKED: ENDBRANCH  12  42
DOCKED: BRANCH  17  44
DOCKED: ATOM     44  C   UNL d   1      12.404  -0.398  20.089 -0.01 +0.00    +0.004 C 
DOCKED: ATOM     45  C   UNL d   1      13.127   0.727  20.065 -0.01 +0.00    +0.012 C 
DOCKED: ENDBRANCH  17  44
DOCKED: TORSDOF 10
DOCKED: TER
DOCKED: ENDMDL
________________________________________________________________________________


	BEGINNING GENETIC ALGORITHM DOCKING 63 of 100
Run: 63 Seed: 1038238724 1829833265 [ Run 63 of 100 GA/GALS ]
Beginning LAMARCKIAN GENETIC ALGORITHM (LGA), with a maximum of 25000000 energy evaluations.

Final-Value: -11.764


	FINAL GENETIC ALGORITHM DOCKED STATE
	_______________________________________________


Detailed state:  trans 2.077 -19.948 -3.434 quatxyzw -0.637125 0.041960 0.140137 0.756751 center -0.174 -0.001 -0.047 ntor 10 151.6849 149.5377 64.4613 -1.0928 180.0000 -83.9348 44.0504 36.9768 9.5971 138.5634
State:	  2.077 -19.948  -3.434  -0.975  0.064  0.214 81.643    151.68  149.54   64.46   -1.09  180.00  -83.93   44.05   36.98    9.60  138.56

DOCKED: MODEL       63
DOCKED: USER    Run = 63
DOCKED: USER    DPF = D:/Protein_go_brrr/autodock/final/mut_N102T/heme_Fe/dock.dpf
DOCKED: USER  
DOCKED: USER    Estimated Free Energy of Binding    =   -7.41 kcal/mol  [=(1)+(2)+(3)-(4)]
DOCKED: USER    Estimated Inhibition Constant, Ki   =    3.69 uM (micromolar)  [Temperature = 298.15 K]
DOCKED: USER    
DOCKED: USER    (1) Final Intermolecular Energy     =  -10.40 kcal/mol
DOCKED: USER        vdW + Hbond + desolv Energy     =   -6.21 kcal/mol
DOCKED: USER        Electrostatic Energy            =   -4.18 kcal/mol
DOCKED: USER    (2) Final Total Internal Energy     =   -1.37 kcal/mol
DOCKED: USER    (3) Torsional Free Energy           =   +2.98 kcal/mol
DOCKED: USER    (4) Unbound System's Energy  [=(2)] =   -1.37 kcal/mol
DOCKED: USER    
DOCKED: USER    
DOCKED: USER    NEWDPF move heme_Fe_opt.pdbqt
DOCKED: USER    NEWDPF about -0.174000 -0.001000 -0.047000
DOCKED: USER    NEWDPF tran0 2.076660 -19.947617 -3.434103
DOCKED: USER    NEWDPF quaternion0 -0.637125 0.041960 0.140137 0.756751
DOCKED: USER    NEWDPF axisangle0 -0.974640 0.064188 0.214375 81.642795
DOCKED: USER    NEWDPF quat0 -0.974640 0.064188 0.214375 81.642795
DOCKED: USER    NEWDPF dihe0 151.68 149.54 64.46 -1.09 180.00 -83.93 44.05 36.98 9.60 138.56 
DOCKED: USER  keepresnum = 1 
DOCKED: USER  
DOCKED: REMARK  10 active torsions:
DOCKED: REMARK  status: ('A' for Active; 'I' for Inactive)
DOCKED: REMARK    1  A    between atoms: C_6  and  C_10 
DOCKED: REMARK    2  A    between atoms: C_10  and  C_11 
DOCKED: REMARK    3  A    between atoms: C_11  and  C_12 
DOCKED: REMARK    4  A    between atoms: C_12  and  O_14 
DOCKED: REMARK    5  A    between atoms: C_17  and  C_20 
DOCKED: REMARK    6  A    between atoms: C_24  and  C_27 
DOCKED: REMARK    7  A    between atoms: C_31  and  C_34 
DOCKED: REMARK    8  A    between atoms: C_34  and  C_35 
DOCKED: REMARK    9  A    between atoms: C_35  and  C_36 
DOCKED: REMARK   10  A    between atoms: C_36  and  O_38 
DOCKED: USER                              x       y       z     vdW  Elec       q    Type
DOCKED: USER                           _______ _______ _______ _____ _____    ______ ____
DOCKED: ROOT
DOCKED: ATOM      1  C   UNL d   1       0.042 -19.937  -3.166 -0.19 +0.03    +0.064 C 
DOCKED: ATOM      2  C   UNL d   1       3.058 -21.217  -6.867 -0.11 -0.00    +0.064 A 
DOCKED: ATOM      3  C   UNL d   1       6.741 -21.185  -3.785 -0.10 +0.00    +0.064 C 
DOCKED: ATOM      4  C   UNL d   1       3.858 -19.844  -0.211 -0.18 +0.01    +0.064 C 
DOCKED: ATOM      5  C   UNL d   1       0.563 -20.219  -4.510 -0.15 +0.01    +0.066 A 
DOCKED: ATOM      6  C   UNL d   1      -0.193 -20.201  -5.671 -0.12 -0.01    -0.021 A 
DOCKED: ATOM      7  C   UNL d   1       0.644 -20.560  -6.698 -0.12 -0.00    -0.025 A 
DOCKED: ATOM      8  C   UNL d   1       1.881 -20.783  -6.124 -0.12 -0.00    +0.066 A 
DOCKED: ATOM      9  C   UNL d   1       0.273 -20.662  -8.145 -0.12 +0.00    +0.051 C 
DOCKED: ATOM     10  C   UNL d   1       4.275 -21.384  -6.348 -0.10 -0.00    +0.066 A 
DOCKED: ATOM     11  C   UNL d   1       5.356 -21.910  -7.060 -0.08 +0.00    -0.021 A 
DOCKED: ATOM     12  C   UNL d   1       6.426 -21.927  -6.188 -0.07 -0.00    +0.000 A 
DOCKED: ATOM     13  C   UNL d   1       5.936 -21.413  -4.975 -0.08 +0.00    +0.070 A 
DOCKED: ATOM     14  C   UNL d   1       5.351 -22.435  -8.481 -0.03 -0.00    +0.052 C 
DOCKED: ATOM     15  C   UNL d   1       6.264 -20.740  -2.599 -0.13 +0.00    +0.066 A 
DOCKED: ATOM     16  C   UNL d   1       7.081 -20.440  -1.517 -0.11 -0.00    -0.021 A 
DOCKED: ATOM     17  C   UNL d   1       6.251 -20.057  -0.483 -0.15 +0.00    +0.000 A 
DOCKED: ATOM     18  C   UNL d   1       4.944 -20.135  -0.960 -0.05 +0.01    +0.070 A 
DOCKED: ATOM     19  C   UNL d   1       8.581 -20.535  -1.445 -0.05 -0.00    +0.052 C 
DOCKED: ATOM     20  C   UNL d   1       2.473 -19.856  -0.696 -0.22 +0.01    +0.066 A 
DOCKED: ATOM     21  C   UNL d   1       1.331 -19.753   0.111 -0.26 -0.01    -0.025 A 
DOCKED: ATOM     22  C   UNL d   1       0.256 -19.769  -0.753 -0.24 -0.01    -0.021 A 
DOCKED: ATOM     23  C   UNL d   1       0.780 -19.886  -2.045 -0.16 +0.02    +0.066 A 
DOCKED: ATOM     24  C   UNL d   1       1.246 -19.650   1.616 -0.27 +0.01    +0.051 C 
DOCKED: ATOM     25  N   UNL d   1       1.830 -20.566  -4.795 -0.10 -0.01    -0.248 N 
DOCKED: ATOM     26  N   UNL d   1       4.623 -21.090  -5.069 -0.09 +0.01    -0.248 N 
DOCKED: ATOM     27  N   UNL d   1       4.953 -20.513  -2.274 -0.12 -0.02    -0.248 N 
DOCKED: ATOM     28  N   UNL d   1       2.131 -19.984  -2.001 -0.17 -0.04    -0.248 N 
DOCKED: ATOM     29 FE   UNL d   1       3.377 -20.537  -3.533 -0.04 -0.00    +0.000 Fe
DOCKED: ENDROOT
DOCKED: BRANCH   6  30
DOCKED: ATOM     30  C   UNL d   1      -1.633 -19.841  -5.803 -0.13 +0.03    +0.052 C 
DOCKED: BRANCH  30  31
DOCKED: ATOM     31  C   UNL d   1      -1.788 -18.400  -6.278 -0.24 +0.09    +0.115 C 
DOCKED: BRANCH  31  32
DOCKED: ATOM     32  C   UNL d   1      -2.857 -17.698  -5.487 -0.20 +0.20    +0.139 C 
DOCKED: ATOM     33  O   UNL d   1      -3.134 -16.529  -5.715 -0.27 -1.58    -0.650 OA
DOCKED: BRANCH  32  34
DOCKED: ATOM     34  O   UNL d   1      -3.520 -18.353  -4.519 +0.06 -1.31    -0.776 OA
DOCKED: ATOM     35  H   UNL d   1      -3.628 -19.312  -4.590 +0.02 +0.22    +0.167 HD
DOCKED: ENDBRANCH  32  34
DOCKED: ENDBRANCH  31  32
DOCKED: ENDBRANCH  30  31
DOCKED: ENDBRANCH   6  30
DOCKED: BRANCH  22  36
DOCKED: ATOM     36  C   UNL d   1      -1.195 -19.724  -0.352 -0.02 +0.03    +0.052 C 
DOCKED: BRANCH  36  37
DOCKED: ATOM     37  C   UNL d   1      -1.928 -20.920  -0.941 -0.19 +0.07    +0.115 C 
DOCKED: BRANCH  37  38
DOCKED: ATOM     38  C   UNL d   1      -3.325 -20.547  -1.350 -0.09 +0.19    +0.139 C 
DOCKED: ATOM     39  O   UNL d   1      -4.236 -20.545  -0.536 -0.69 -0.97    -0.650 OA
DOCKED: BRANCH  38  40
DOCKED: ATOM     40  O   UNL d   1      -3.584 -20.215  -2.628 -0.31 -1.41    -0.776 OA
DOCKED: ATOM     41  H   UNL d   1      -2.891 -19.789  -3.152 +0.02 +0.25    +0.167 HD
DOCKED: ENDBRANCH  38  40
DOCKED: ENDBRANCH  37  38
DOCKED: ENDBRANCH  36  37
DOCKED: ENDBRANCH  22  36
DOCKED: BRANCH  12  42
DOCKED: ATOM     42  C   UNL d   1       7.796 -22.424  -6.525 -0.03 -0.00    +0.004 C 
DOCKED: ATOM     43  C   UNL d   1       8.837 -21.584  -6.595 -0.03 -0.00    +0.012 C 
DOCKED: ENDBRANCH  12  42
DOCKED: BRANCH  17  44
DOCKED: ATOM     44  C   UNL d   1       6.682 -19.623   0.865 -0.18 -0.00    +0.004 C 
DOCKED: ATOM     45  C   UNL d   1       7.585 -18.649   1.015 -0.20 -0.00    +0.012 C 
DOCKED: ENDBRANCH  17  44
DOCKED: TORSDOF 10
DOCKED: TER
DOCKED: ENDMDL
________________________________________________________________________________


	BEGINNING GENETIC ALGORITHM DOCKING 64 of 100
Run: 64 Seed: 976897564 1928756653 [ Run 64 of 100 GA/GALS ]
Beginning LAMARCKIAN GENETIC ALGORITHM (LGA), with a maximum of 25000000 energy evaluations.

Final-Value: -12.128


	FINAL GENETIC ALGORITHM DOCKED STATE
	_______________________________________________


Detailed state:  trans 10.063 -6.493 8.960 quatxyzw 0.577431 0.361041 -0.711245 -0.174223 center -0.174 -0.001 -0.047 ntor 10 -48.3460 -145.2146 -115.5781 -151.7399 39.1603 -74.5020 -54.3543 -32.7813 -168.9505 136.7756
State:	 10.063  -6.493   8.960   0.586  0.367 -0.722 -159.933    -48.35 -145.21 -115.58 -151.74   39.16  -74.50  -54.35  -32.78 -168.95  136.78

DOCKED: MODEL       64
DOCKED: USER    Run = 64
DOCKED: USER    DPF = D:/Protein_go_brrr/autodock/final/mut_N102T/heme_Fe/dock.dpf
DOCKED: USER  
DOCKED: USER    Estimated Free Energy of Binding    =   -7.54 kcal/mol  [=(1)+(2)+(3)-(4)]
DOCKED: USER    Estimated Inhibition Constant, Ki   =    2.96 uM (micromolar)  [Temperature = 298.15 K]
DOCKED: USER    
DOCKED: USER    (1) Final Intermolecular Energy     =  -10.52 kcal/mol
DOCKED: USER        vdW + Hbond + desolv Energy     =   -8.26 kcal/mol
DOCKED: USER        Electrostatic Energy            =   -2.26 kcal/mol
DOCKED: USER    (2) Final Total Internal Energy     =   -1.60 kcal/mol
DOCKED: USER    (3) Torsional Free Energy           =   +2.98 kcal/mol
DOCKED: USER    (4) Unbound System's Energy  [=(2)] =   -1.60 kcal/mol
DOCKED: USER    
DOCKED: USER    
DOCKED: USER    NEWDPF move heme_Fe_opt.pdbqt
DOCKED: USER    NEWDPF about -0.174000 -0.001000 -0.047000
DOCKED: USER    NEWDPF tran0 10.062733 -6.492893 8.960128
DOCKED: USER    NEWDPF quaternion0 0.577431 0.361041 -0.711245 -0.174223
DOCKED: USER    NEWDPF axisangle0 0.586399 0.366649 -0.722291 -159.933061
DOCKED: USER    NEWDPF quat0 0.586399 0.366649 -0.722291 -159.933061
DOCKED: USER    NEWDPF dihe0 -48.35 -145.21 -115.58 -151.74 39.16 -74.50 -54.35 -32.78 -168.95 136.78 
DOCKED: USER  keepresnum = 1 
DOCKED: USER  
DOCKED: REMARK  10 active torsions:
DOCKED: REMARK  status: ('A' for Active; 'I' for Inactive)
DOCKED: REMARK    1  A    between atoms: C_6  and  C_10 
DOCKED: REMARK    2  A    between atoms: C_10  and  C_11 
DOCKED: REMARK    3  A    between atoms: C_11  and  C_12 
DOCKED: REMARK    4  A    between atoms: C_12  and  O_14 
DOCKED: REMARK    5  A    between atoms: C_17  and  C_20 
DOCKED: REMARK    6  A    between atoms: C_24  and  C_27 
DOCKED: REMARK    7  A    between atoms: C_31  and  C_34 
DOCKED: REMARK    8  A    between atoms: C_34  and  C_35 
DOCKED: REMARK    9  A    between atoms: C_35  and  C_36 
DOCKED: REMARK   10  A    between atoms: C_36  and  O_38 
DOCKED: USER                              x       y       z     vdW  Elec       q    Type
DOCKED: USER                           _______ _______ _______ _____ _____    ______ ____
DOCKED: ROOT
DOCKED: ATOM      1  C   UNL d   1      10.193  -7.168  10.893 -0.09 +0.04    +0.064 C 
DOCKED: ATOM      2  C   UNL d   1       7.123  -4.156   8.459 -0.26 +0.03    +0.064 A 
DOCKED: ATOM      3  C   UNL d   1       8.898  -5.809   4.314 -0.35 +0.02    +0.064 C 
DOCKED: ATOM      4  C   UNL d   1      11.951  -8.655   6.651 -0.11 +0.03    +0.064 C 
DOCKED: ATOM      5  C   UNL d   1       9.223  -6.106  10.594 -0.11 +0.05    +0.066 A 
DOCKED: ATOM      6  C   UNL d   1       8.587  -5.324  11.544 -0.21 -0.01    -0.021 A 
DOCKED: ATOM      7  C   UNL d   1       7.732  -4.490  10.867 -0.25 -0.01    -0.025 A 
DOCKED: ATOM      8  C   UNL d   1       7.879  -4.796   9.528 -0.29 +0.04    +0.066 A 
DOCKED: ATOM      9  C   UNL d   1       6.844  -3.451  11.480 -0.25 +0.01    +0.051 C 
DOCKED: ATOM     10  C   UNL d   1       7.286  -4.391   7.156 -0.38 +0.03    +0.066 A 
DOCKED: ATOM     11  C   UNL d   1       6.468  -3.847   6.162 -0.44 -0.01    -0.021 A 
DOCKED: ATOM     12  C   UNL d   1       6.949  -4.322   4.958 -0.49 +0.00    +0.000 A 
DOCKED: ATOM     13  C   UNL d   1       8.041  -5.146   5.284 -0.29 +0.03    +0.070 A 
DOCKED: ATOM     14  C   UNL d   1       5.246  -2.972   6.354 -0.28 +0.01    +0.052 C 
DOCKED: ATOM     15  C   UNL d   1       9.918  -6.644   4.623 -0.24 +0.02    +0.066 A 
DOCKED: ATOM     16  C   UNL d   1      10.775  -7.180   3.671 -0.19 -0.00    -0.021 A 
DOCKED: ATOM     17  C   UNL d   1      11.655  -8.004   4.342 -0.11 +0.00    +0.000 A 
DOCKED: ATOM     18  C   UNL d   1      11.309  -7.955   5.691 -0.13 +0.03    +0.070 A 
DOCKED: ATOM     19  C   UNL d   1      10.756  -6.948   2.184 -0.25 -0.01    +0.052 C 
DOCKED: ATOM     20  C   UNL d   1      11.655  -8.582   8.087 -0.11 +0.04    +0.066 A 
DOCKED: ATOM     21  C   UNL d   1      12.171  -9.443   9.065 -0.07 -0.01    -0.025 A 
DOCKED: ATOM     22  C   UNL d   1      11.667  -8.993  10.268 -0.09 -0.01    -0.021 A 
DOCKED: ATOM     23  C   UNL d   1      10.863  -7.885   9.977 -0.10 +0.04    +0.066 A 
DOCKED: ATOM     24  C   UNL d   1      13.087 -10.632   8.887 -0.03 +0.01    +0.051 C 
DOCKED: ATOM     25  N   UNL d   1       8.794  -5.772   9.364 -0.16 -0.24    -0.248 N 
DOCKED: ATOM     26  N   UNL d   1       8.241  -5.195   6.624 -0.21 -0.17    -0.248 N 
DOCKED: ATOM     27  N   UNL d   1      10.270  -7.086   5.870 -0.14 -0.16    -0.248 N 
DOCKED: ATOM     28  N   UNL d   1      10.824  -7.666   8.640 -0.11 -0.24    -0.248 N 
DOCKED: ATOM     29 FE   UNL d   1       9.534  -6.432   7.631 -0.06 +0.00    +0.000 Fe
DOCKED: ENDROOT
DOCKED: BRANCH   6  30
DOCKED: ATOM     30  C   UNL d   1       8.796  -5.351  13.020 -0.17 +0.02    +0.052 C 
DOCKED: BRANCH  30  31
DOCKED: ATOM     31  C   UNL d   1       8.038  -6.514  13.651 -0.07 +0.02    +0.115 C 
DOCKED: BRANCH  31  32
DOCKED: ATOM     32  C   UNL d   1       8.969  -7.366  14.469 -0.17 +0.04    +0.139 C 
DOCKED: ATOM     33  O   UNL d   1       9.850  -6.855  15.146 +0.02 -0.15    -0.650 OA
DOCKED: BRANCH  32  34
DOCKED: ATOM     34  O   UNL d   1       8.840  -8.704  14.462 +0.00 -0.32    -0.776 OA
DOCKED: ATOM     35  H   UNL d   1       9.627  -9.250  14.324 +0.04 +0.09    +0.167 HD
DOCKED: ENDBRANCH  32  34
DOCKED: ENDBRANCH  31  32
DOCKED: ENDBRANCH  30  31
DOCKED: ENDBRANCH   6  30
DOCKED: BRANCH  22  36
DOCKED: ATOM     36  C   UNL d   1      11.908  -9.625  11.614 -0.08 +0.02    +0.052 C 
DOCKED: BRANCH  36  37
DOCKED: ATOM     37  C   UNL d   1      10.576  -9.912  12.292 -0.11 +0.06    +0.115 C 
DOCKED: BRANCH  37  38
DOCKED: ATOM     38  C   UNL d   1      10.653 -11.159  13.126 -0.14 +0.15    +0.139 C 
DOCKED: ATOM     39  O   UNL d   1      10.665 -12.262  12.602 -0.51 -0.85    -0.650 OA
DOCKED: BRANCH  38  40
DOCKED: ATOM     40  O   UNL d   1      10.706 -11.066  14.467 -0.11 -1.08    -0.776 OA
DOCKED: ATOM     41  H   UNL d   1      10.220 -10.356  14.909 +0.02 +0.17    +0.167 HD
DOCKED: ENDBRANCH  38  40
DOCKED: ENDBRANCH  37  38
DOCKED: ENDBRANCH  36  37
DOCKED: ENDBRANCH  22  36
DOCKED: BRANCH  12  42
DOCKED: ATOM     42  C   UNL d   1       6.367  -4.003   3.618 -0.54 +0.00    +0.004 C 
DOCKED: ATOM     43  C   UNL d   1       5.154  -4.452   3.269 -0.55 +0.00    +0.012 C 
DOCKED: ENDBRANCH  12  42
DOCKED: BRANCH  17  44
DOCKED: ATOM     44  C   UNL d   1      12.766  -8.771   3.736 -0.05 +0.00    +0.004 C 
DOCKED: ATOM     45  C   UNL d   1      12.619 -10.065   3.432 -0.04 -0.00    +0.012 C 
DOCKED: ENDBRANCH  17  44
DOCKED: TORSDOF 10
DOCKED: TER
DOCKED: ENDMDL
________________________________________________________________________________


	BEGINNING GENETIC ALGORITHM DOCKING 65 of 100
Run: 65 Seed: 1324964490 1900613476 [ Run 65 of 100 GA/GALS ]
Beginning LAMARCKIAN GENETIC ALGORITHM (LGA), with a maximum of 25000000 energy evaluations.

Final-Value: -11.366


	FINAL GENETIC ALGORITHM DOCKED STATE
	_______________________________________________


Detailed state:  trans 6.925 -6.644 15.393 quatxyzw 0.225975 0.351969 0.760606 -0.496519 center -0.174 -0.001 -0.047 ntor 10 164.0993 -103.1719 177.7850 48.1916 119.9644 -70.4668 10.8553 51.0695 172.4791 122.5274
State:	  6.925  -6.644  15.393   0.260  0.405  0.876 -120.460    164.10 -103.17  177.78   48.19  119.96  -70.47   10.86   51.07  172.48  122.53

DOCKED: MODEL       65
DOCKED: USER    Run = 65
DOCKED: USER    DPF = D:/Protein_go_brrr/autodock/final/mut_N102T/heme_Fe/dock.dpf
DOCKED: USER  
DOCKED: USER    Estimated Free Energy of Binding    =   -6.91 kcal/mol  [=(1)+(2)+(3)-(4)]
DOCKED: USER    Estimated Inhibition Constant, Ki   =    8.63 uM (micromolar)  [Temperature = 298.15 K]
DOCKED: USER    
DOCKED: USER    (1) Final Intermolecular Energy     =   -9.89 kcal/mol
DOCKED: USER        vdW + Hbond + desolv Energy     =   -7.91 kcal/mol
DOCKED: USER        Electrostatic Energy            =   -1.98 kcal/mol
DOCKED: USER    (2) Final Total Internal Energy     =   -1.47 kcal/mol
DOCKED: USER    (3) Torsional Free Energy           =   +2.98 kcal/mol
DOCKED: USER    (4) Unbound System's Energy  [=(2)] =   -1.47 kcal/mol
DOCKED: USER    
DOCKED: USER    
DOCKED: USER    NEWDPF move heme_Fe_opt.pdbqt
DOCKED: USER    NEWDPF about -0.174000 -0.001000 -0.047000
DOCKED: USER    NEWDPF tran0 6.924783 -6.643859 15.392511
DOCKED: USER    NEWDPF quaternion0 0.225975 0.351969 0.760606 -0.496519
DOCKED: USER    NEWDPF axisangle0 0.260332 0.405482 0.876248 -120.460005
DOCKED: USER    NEWDPF quat0 0.260332 0.405482 0.876248 -120.460005
DOCKED: USER    NEWDPF dihe0 164.10 -103.17 177.78 48.19 119.96 -70.47 10.86 51.07 172.48 122.53 
DOCKED: USER  keepresnum = 1 
DOCKED: USER  
DOCKED: REMARK  10 active torsions:
DOCKED: REMARK  status: ('A' for Active; 'I' for Inactive)
DOCKED: REMARK    1  A    between atoms: C_6  and  C_10 
DOCKED: REMARK    2  A    between atoms: C_10  and  C_11 
DOCKED: REMARK    3  A    between atoms: C_11  and  C_12 
DOCKED: REMARK    4  A    between atoms: C_12  and  O_14 
DOCKED: REMARK    5  A    between atoms: C_17  and  C_20 
DOCKED: REMARK    6  A    between atoms: C_24  and  C_27 
DOCKED: REMARK    7  A    between atoms: C_31  and  C_34 
DOCKED: REMARK    8  A    between atoms: C_34  and  C_35 
DOCKED: REMARK    9  A    between atoms: C_35  and  C_36 
DOCKED: REMARK   10  A    between atoms: C_36  and  O_38 
DOCKED: USER                              x       y       z     vdW  Elec       q    Type
DOCKED: USER                           _______ _______ _______ _____ _____    ______ ____
DOCKED: ROOT
DOCKED: ATOM      1  C   UNL d   1       8.131  -8.275  15.705 -0.26 +0.02    +0.064 C 
DOCKED: ATOM      2  C   UNL d   1       8.500  -4.134  13.031 -0.11 +0.02    +0.064 A 
DOCKED: ATOM      3  C   UNL d   1       4.831  -2.284  15.517 -0.26 -0.01    +0.064 C 
DOCKED: ATOM      4  C   UNL d   1       4.387  -6.321  18.044 -0.19 -0.01    +0.064 C 
DOCKED: ATOM      5  C   UNL d   1       8.521  -7.312  14.665 -0.20 +0.02    +0.066 A 
DOCKED: ATOM      6  C   UNL d   1       9.474  -7.547  13.688 -0.17 -0.01    -0.021 A 
DOCKED: ATOM      7  C   UNL d   1       9.579  -6.395  12.948 -0.15 -0.01    -0.025 A 
DOCKED: ATOM      8  C   UNL d   1       8.684  -5.501  13.503 -0.13 +0.02    +0.066 A 
DOCKED: ATOM      9  C   UNL d   1      10.475  -6.183  11.767 -0.14 +0.03    +0.051 C 
DOCKED: ATOM     10  C   UNL d   1       7.605  -3.270  13.512 -0.13 +0.01    +0.066 A 
DOCKED: ATOM     11  C   UNL d   1       7.530  -1.932  13.117 -0.19 -0.00    -0.021 A 
DOCKED: ATOM     12  C   UNL d   1       6.490  -1.371  13.832 -0.29 +0.00    +0.000 A 
DOCKED: ATOM     13  C   UNL d   1       5.984  -2.405  14.640 -0.19 -0.00    +0.070 A 
DOCKED: ATOM     14  C   UNL d   1       8.449  -1.204  12.157 -0.26 +0.01    +0.052 C 
DOCKED: ATOM     15  C   UNL d   1       4.372  -3.260  16.335 -0.20 -0.01    +0.066 A 
DOCKED: ATOM     16  C   UNL d   1       3.208  -3.139  17.083 -0.24 +0.00    -0.021 A 
DOCKED: ATOM     17  C   UNL d   1       3.080  -4.301  17.815 -0.20 -0.00    +0.000 A 
DOCKED: ATOM     18  C   UNL d   1       4.173  -5.104  17.499 -0.20 -0.01    +0.070 A 
DOCKED: ATOM     19  C   UNL d   1       2.264  -1.967  17.129 -0.37 -0.02    +0.052 C 
DOCKED: ATOM     20  C   UNL d   1       5.493  -7.220  17.690 -0.18 -0.01    +0.066 A 
DOCKED: ATOM     21  C   UNL d   1       5.840  -8.388  18.383 -0.20 +0.00    -0.025 A 
DOCKED: ATOM     22  C   UNL d   1       6.901  -8.935  17.692 -0.22 -0.00    -0.021 A 
DOCKED: ATOM     23  C   UNL d   1       7.162  -8.081  16.614 -0.26 +0.01    +0.066 A 
DOCKED: ATOM     24  C   UNL d   1       5.216  -8.965  19.633 -0.16 -0.00    +0.051 C 
DOCKED: ATOM     25  N   UNL d   1       8.036  -6.065  14.542 -0.05 -0.04    -0.248 N 
DOCKED: ATOM     26  N   UNL d   1       6.669  -3.560  14.451 -0.02 -0.02    -0.248 N 
DOCKED: ATOM     27  N   UNL d   1       4.945  -4.484  16.556 -0.01 +0.02    -0.248 N 
DOCKED: ATOM     28  N   UNL d   1       6.329  -7.012  16.644 -0.13 -0.00    -0.248 N 
DOCKED: ATOM     29 FE   UNL d   1       6.498  -5.287  15.549 -0.02 +0.00    +0.000 Fe
DOCKED: ENDROOT
DOCKED: BRANCH   6  30
DOCKED: ATOM     30  C   UNL d   1      10.233  -8.808  13.453 -0.16 +0.02    +0.052 C 
DOCKED: BRANCH  30  31
DOCKED: ATOM     31  C   UNL d   1      11.617  -8.733  14.088 -0.05 +0.04    +0.115 C 
DOCKED: BRANCH  31  32
DOCKED: ATOM     32  C   UNL d   1      12.469  -9.883  13.630 -0.03 +0.06    +0.139 C 
DOCKED: ATOM     33  O   UNL d   1      13.516  -9.683  13.029 +0.02 -0.18    -0.650 OA
DOCKED: BRANCH  32  34
DOCKED: ATOM     34  O   UNL d   1      12.087 -11.147  13.878 +0.01 -0.53    -0.776 OA
DOCKED: ATOM     35  H   UNL d   1      11.401 -11.308  14.540 +0.01 +0.19    +0.167 HD
DOCKED: ENDBRANCH  32  34
DOCKED: ENDBRANCH  31  32
DOCKED: ENDBRANCH  30  31
DOCKED: ENDBRANCH   6  30
DOCKED: BRANCH  22  36
DOCKED: ATOM     36  C   UNL d   1       7.652 -10.183  18.076 -0.18 +0.02    +0.052 C 
DOCKED: BRANCH  36  37
DOCKED: ATOM     37  C   UNL d   1       9.139  -9.987  17.820 -0.12 +0.05    +0.115 C 
DOCKED: BRANCH  37  38
DOCKED: ATOM     38  C   UNL d   1       9.704 -11.130  17.026 -0.03 +0.14    +0.139 C 
DOCKED: ATOM     39  O   UNL d   1       9.831 -12.238  17.527 -0.41 -0.76    -0.650 OA
DOCKED: BRANCH  38  40
DOCKED: ATOM     40  O   UNL d   1      10.079 -10.939  15.749 -0.31 -1.16    -0.776 OA
DOCKED: ATOM     41  H   UNL d   1      10.914 -10.485  15.567 +0.02 +0.15    +0.167 HD
DOCKED: ENDBRANCH  38  40
DOCKED: ENDBRANCH  37  38
DOCKED: ENDBRANCH  36  37
DOCKED: ENDBRANCH  22  36
DOCKED: BRANCH  12  42
DOCKED: ATOM     42  C   UNL d   1       6.056   0.057  13.735 -0.50 -0.00    +0.004 C 
DOCKED: ATOM     43  C   UNL d   1       5.803   0.776  14.836 -0.54 -0.00    +0.012 C 
DOCKED: ENDBRANCH  12  42
DOCKED: BRANCH  17  44
DOCKED: ATOM     44  C   UNL d   1       1.973  -4.630  18.741 -0.18 -0.00    +0.004 C 
DOCKED: ATOM     45  C   UNL d   1       0.995  -5.463  18.370 -0.30 -0.00    +0.012 C 
DOCKED: ENDBRANCH  17  44
DOCKED: TORSDOF 10
DOCKED: TER
DOCKED: ENDMDL
________________________________________________________________________________


	BEGINNING GENETIC ALGORITHM DOCKING 66 of 100
Run: 66 Seed: 1721878960 1935086240 [ Run 66 of 100 GA/GALS ]
Beginning LAMARCKIAN GENETIC ALGORITHM (LGA), with a maximum of 25000000 energy evaluations.

Final-Value: -10.854


	FINAL GENETIC ALGORITHM DOCKED STATE
	_______________________________________________


Detailed state:  trans -8.510 -10.648 -10.744 quatxyzw -0.374043 -0.259313 0.812380 -0.364538 center -0.174 -0.001 -0.047 ntor 10 -180.0000 58.5654 24.4479 51.6023 92.8351 30.2164 3.4665 55.4151 -175.2269 132.7674
State:	 -8.510 -10.648 -10.744  -0.402 -0.278  0.872 -137.242   -180.00   58.57   24.45   51.60   92.84   30.22    3.47   55.42 -175.23  132.77

DOCKED: MODEL       66
DOCKED: USER    Run = 66
DOCKED: USER    DPF = D:/Protein_go_brrr/autodock/final/mut_N102T/heme_Fe/dock.dpf
DOCKED: USER  
DOCKED: USER    Estimated Free Energy of Binding    =   -5.70 kcal/mol  [=(1)+(2)+(3)-(4)]
DOCKED: USER    Estimated Inhibition Constant, Ki   =   66.25 uM (micromolar)  [Temperature = 298.15 K]
DOCKED: USER    
DOCKED: USER    (1) Final Intermolecular Energy     =   -8.68 kcal/mol
DOCKED: USER        vdW + Hbond + desolv Energy     =   -5.84 kcal/mol
DOCKED: USER        Electrostatic Energy            =   -2.84 kcal/mol
DOCKED: USER    (2) Final Total Internal Energy     =   -2.17 kcal/mol
DOCKED: USER    (3) Torsional Free Energy           =   +2.98 kcal/mol
DOCKED: USER    (4) Unbound System's Energy  [=(2)] =   -2.17 kcal/mol
DOCKED: USER    
DOCKED: USER    
DOCKED: USER    NEWDPF move heme_Fe_opt.pdbqt
DOCKED: USER    NEWDPF about -0.174000 -0.001000 -0.047000
DOCKED: USER    NEWDPF tran0 -8.509668 -10.648051 -10.744396
DOCKED: USER    NEWDPF quaternion0 -0.374043 -0.259313 0.812380 -0.364538
DOCKED: USER    NEWDPF axisangle0 -0.401683 -0.278475 0.872412 -137.241711
DOCKED: USER    NEWDPF quat0 -0.401683 -0.278475 0.872412 -137.241711
DOCKED: USER    NEWDPF dihe0 -180.00 58.57 24.45 51.60 92.84 30.22 3.47 55.42 -175.23 132.77 
DOCKED: USER  keepresnum = 1 
DOCKED: USER  
DOCKED: REMARK  10 active torsions:
DOCKED: REMARK  status: ('A' for Active; 'I' for Inactive)
DOCKED: REMARK    1  A    between atoms: C_6  and  C_10 
DOCKED: REMARK    2  A    between atoms: C_10  and  C_11 
DOCKED: REMARK    3  A    between atoms: C_11  and  C_12 
DOCKED: REMARK    4  A    between atoms: C_12  and  O_14 
DOCKED: REMARK    5  A    between atoms: C_17  and  C_20 
DOCKED: REMARK    6  A    between atoms: C_24  and  C_27 
DOCKED: REMARK    7  A    between atoms: C_31  and  C_34 
DOCKED: REMARK    8  A    between atoms: C_34  and  C_35 
DOCKED: REMARK    9  A    between atoms: C_35  and  C_36 
DOCKED: REMARK   10  A    between atoms: C_36  and  O_38 
DOCKED: USER                              x       y       z     vdW  Elec       q    Type
DOCKED: USER                           _______ _______ _______ _____ _____    ______ ____
DOCKED: ROOT
DOCKED: ATOM      1  C   UNL d   1      -8.010 -12.249  -9.562 -0.22 +0.02    +0.064 C 
DOCKED: ATOM      2  C   UNL d   1      -8.190  -7.355  -8.897 -0.26 +0.01    +0.064 A 
DOCKED: ATOM      3  C   UNL d   1     -10.779  -6.973 -12.925 -0.11 +0.02    +0.064 C 
DOCKED: ATOM      4  C   UNL d   1     -10.527 -11.696 -13.644 -0.07 +0.01    +0.064 C 
DOCKED: ATOM      5  C   UNL d   1      -7.750 -10.898  -9.047 -0.20 +0.02    +0.066 A 
DOCKED: ATOM      6  C   UNL d   1      -6.943 -10.609  -7.958 -0.29 -0.01    -0.021 A 
DOCKED: ATOM      7  C   UNL d   1      -6.997  -9.250  -7.772 -0.35 -0.01    -0.025 A 
DOCKED: ATOM      8  C   UNL d   1      -7.835  -8.761  -8.755 -0.23 +0.01    +0.066 A 
DOCKED: ATOM      9  C   UNL d   1      -6.266  -8.474  -6.719 +0.01 +0.01    +0.051 C 
DOCKED: ATOM     10  C   UNL d   1      -8.950  -6.850  -9.871 -0.17 +0.01    +0.066 A 
DOCKED: ATOM     11  C   UNL d   1      -9.367  -5.517  -9.916 -0.23 -0.00    -0.021 A 
DOCKED: ATOM     12  C   UNL d   1     -10.129  -5.385 -11.059 -0.17 +0.00    +0.000 A 
DOCKED: ATOM     13  C   UNL d   1     -10.145  -6.658 -11.654 -0.12 +0.02    +0.070 A 
DOCKED: ATOM     14  C   UNL d   1      -9.109  -4.438  -8.883 -0.37 +0.01    +0.052 C 
DOCKED: ATOM     15  C   UNL d   1     -10.841  -8.208 -13.476 -0.07 +0.02    +0.066 A 
DOCKED: ATOM     16  C   UNL d   1     -11.369  -8.449 -14.738 -0.05 -0.01    -0.021 A 
DOCKED: ATOM     17  C   UNL d   1     -11.300  -9.812 -14.946 -0.03 +0.00    +0.000 A 
DOCKED: ATOM     18  C   UNL d   1     -10.735 -10.370 -13.802 -0.04 +0.01    +0.070 A 
DOCKED: ATOM     19  C   UNL d   1     -11.939  -7.445 -15.703 -0.03 +0.01    +0.052 C 
DOCKED: ATOM     20  C   UNL d   1      -9.879 -12.313 -12.480 -0.10 +0.01    +0.066 A 
DOCKED: ATOM     21  C   UNL d   1      -9.837 -13.689 -12.212 -0.10 -0.00    -0.025 A 
DOCKED: ATOM     22  C   UNL d   1      -9.104 -13.825 -11.051 +0.04 -0.00    -0.021 A 
DOCKED: ATOM     23  C   UNL d   1      -8.735 -12.533 -10.656 -0.15 +0.02    +0.066 A 
DOCKED: ATOM     24  C   UNL d   1     -10.454 -14.822 -12.998 -0.09 +0.01    +0.051 C 
DOCKED: ATOM     25  N   UNL d   1      -8.284  -9.765  -9.535 -0.08 -0.06    -0.248 N 
DOCKED: ATOM     26  N   UNL d   1      -9.434  -7.553 -10.926 -0.11 -0.07    -0.248 N 
DOCKED: ATOM     27  N   UNL d   1     -10.412  -9.381 -12.916 -0.04 -0.06    -0.248 N 
DOCKED: ATOM     28  N   UNL d   1      -9.249 -11.612 -11.507 -0.09 -0.06    -0.248 N 
DOCKED: ATOM     29 FE   UNL d   1      -9.342  -9.584 -11.218 -0.03 +0.00    +0.000 Fe
DOCKED: ENDROOT
DOCKED: BRANCH   6  30
DOCKED: ATOM     30  C   UNL d   1      -6.144 -11.571  -7.147 -0.29 +0.03    +0.052 C 
DOCKED: BRANCH  30  31
DOCKED: ATOM     31  C   UNL d   1      -6.995 -12.182  -6.039 -0.22 +0.08    +0.115 C 
DOCKED: BRANCH  31  32
DOCKED: ATOM     32  C   UNL d   1      -6.162 -13.085  -5.173 -0.24 +0.16    +0.139 C 
DOCKED: ATOM     33  O   UNL d   1      -5.626 -12.658  -4.161 -0.23 -0.62    -0.650 OA
DOCKED: BRANCH  32  34
DOCKED: ATOM     34  O   UNL d   1      -5.999 -14.377  -5.506 +0.19 -1.47    -0.776 OA
DOCKED: ATOM     35  H   UNL d   1      -6.425 -14.712  -6.308 +0.04 +0.36    +0.167 HD
DOCKED: ENDBRANCH  32  34
DOCKED: ENDBRANCH  31  32
DOCKED: ENDBRANCH  30  31
DOCKED: ENDBRANCH   6  30
DOCKED: BRANCH  22  36
DOCKED: ATOM     36  C   UNL d   1      -8.818 -15.120 -10.338 -0.11 +0.02    +0.052 C 
DOCKED: BRANCH  36  37
DOCKED: ATOM     37  C   UNL d   1      -9.158 -14.979  -8.862 -0.08 +0.04    +0.115 C 
DOCKED: BRANCH  37  38
DOCKED: ATOM     38  C   UNL d   1      -7.982 -15.346  -8.001 -0.14 +0.11    +0.139 C 
DOCKED: ATOM     39  O   UNL d   1      -6.839 -15.173  -8.397 -0.58 -1.06    -0.650 OA
DOCKED: BRANCH  38  40
DOCKED: ATOM     40  O   UNL d   1      -8.183 -15.876  -6.781 +0.02 -0.58    -0.776 OA
DOCKED: ATOM     41  H   UNL d   1      -7.817 -15.425  -6.007 +0.03 +0.15    +0.167 HD
DOCKED: ENDBRANCH  38  40
DOCKED: ENDBRANCH  37  38
DOCKED: ENDBRANCH  36  37
DOCKED: ENDBRANCH  22  36
DOCKED: BRANCH  12  42
DOCKED: ATOM     42  C   UNL d   1     -10.793  -4.121 -11.504 -0.17 +0.00    +0.004 C 
DOCKED: ATOM     43  C   UNL d   1     -10.075  -3.102 -11.996 -0.29 +0.00    +0.012 C 
DOCKED: ENDBRANCH  12  42
DOCKED: BRANCH  17  44
DOCKED: ATOM     44  C   UNL d   1     -11.728 -10.529 -16.168 -0.02 +0.00    +0.004 C 
DOCKED: ATOM     45  C   UNL d   1     -10.827 -11.010 -17.031 -0.02 +0.00    +0.012 C 
DOCKED: ENDBRANCH  17  44
DOCKED: TORSDOF 10
DOCKED: TER
DOCKED: ENDMDL
________________________________________________________________________________


	BEGINNING GENETIC ALGORITHM DOCKING 67 of 100
Run: 67 Seed: 1258173164 1823025960 [ Run 67 of 100 GA/GALS ]
Beginning LAMARCKIAN GENETIC ALGORITHM (LGA), with a maximum of 25000000 energy evaluations.

Final-Value: -15.096


	FINAL GENETIC ALGORITHM DOCKED STATE
	_______________________________________________


Detailed state:  trans 6.233 -3.744 7.098 quatxyzw 0.242422 0.576032 -0.779656 -0.039431 center -0.174 -0.001 -0.047 ntor 10 -166.6952 14.9775 97.9643 -126.1136 9.6958 -177.1006 94.5414 26.2787 21.2285 -179.8663
State:	  6.233  -3.744   7.098   0.243  0.576 -0.780 -175.480   -166.70   14.98   97.96 -126.11    9.70 -177.10   94.54   26.28   21.23 -179.87

DOCKED: MODEL       67
DOCKED: USER    Run = 67
DOCKED: USER    DPF = D:/Protein_go_brrr/autodock/final/mut_N102T/heme_Fe/dock.dpf
DOCKED: USER  
DOCKED: USER    Estimated Free Energy of Binding    =  -11.62 kcal/mol  [=(1)+(2)+(3)-(4)]
DOCKED: USER    Estimated Inhibition Constant, Ki   =    3.04 nM (nanomolar)  [Temperature = 298.15 K]
DOCKED: USER    
DOCKED: USER    (1) Final Intermolecular Energy     =  -14.60 kcal/mol
DOCKED: USER        vdW + Hbond + desolv Energy     =  -12.41 kcal/mol
DOCKED: USER        Electrostatic Energy            =   -2.19 kcal/mol
DOCKED: USER    (2) Final Total Internal Energy     =   -0.49 kcal/mol
DOCKED: USER    (3) Torsional Free Energy           =   +2.98 kcal/mol
DOCKED: USER    (4) Unbound System's Energy  [=(2)] =   -0.49 kcal/mol
DOCKED: USER    
DOCKED: USER    
DOCKED: USER    NEWDPF move heme_Fe_opt.pdbqt
DOCKED: USER    NEWDPF about -0.174000 -0.001000 -0.047000
DOCKED: USER    NEWDPF tran0 6.232685 -3.744482 7.097718
DOCKED: USER    NEWDPF quaternion0 0.242422 0.576032 -0.779656 -0.039431
DOCKED: USER    NEWDPF axisangle0 0.242611 0.576480 -0.780263 -175.480408
DOCKED: USER    NEWDPF quat0 0.242611 0.576480 -0.780263 -175.480408
DOCKED: USER    NEWDPF dihe0 -166.70 14.98 97.96 -126.11 9.70 -177.10 94.54 26.28 21.23 -179.87 
DOCKED: USER  keepresnum = 1 
DOCKED: USER  
DOCKED: REMARK  10 active torsions:
DOCKED: REMARK  status: ('A' for Active; 'I' for Inactive)
DOCKED: REMARK    1  A    between atoms: C_6  and  C_10 
DOCKED: REMARK    2  A    between atoms: C_10  and  C_11 
DOCKED: REMARK    3  A    between atoms: C_11  and  C_12 
DOCKED: REMARK    4  A    between atoms: C_12  and  O_14 
DOCKED: REMARK    5  A    between atoms: C_17  and  C_20 
DOCKED: REMARK    6  A    between atoms: C_24  and  C_27 
DOCKED: REMARK    7  A    between atoms: C_31  and  C_34 
DOCKED: REMARK    8  A    between atoms: C_34  and  C_35 
DOCKED: REMARK    9  A    between atoms: C_35  and  C_36 
DOCKED: REMARK   10  A    between atoms: C_36  and  O_38 
DOCKED: USER                              x       y       z     vdW  Elec       q    Type
DOCKED: USER                           _______ _______ _______ _____ _____    ______ ____
DOCKED: ROOT
DOCKED: ATOM      1  C   UNL d   1       7.778  -4.644   8.105 -0.39 +0.05    +0.064 C 
DOCKED: ATOM      2  C   UNL d   1       3.498  -2.563   9.439 -0.43 +0.01    +0.064 A 
DOCKED: ATOM      3  C   UNL d   1       2.059  -2.749   4.860 -0.45 +0.00    +0.064 C 
DOCKED: ATOM      4  C   UNL d   1       6.235  -4.667   3.531 -0.30 +0.01    +0.064 C 
DOCKED: ATOM      5  C   UNL d   1       6.739  -3.965   8.892 -0.15 +0.03    +0.066 A 
DOCKED: ATOM      6  C   UNL d   1       6.852  -3.634  10.232 -0.18 -0.01    -0.021 A 
DOCKED: ATOM      7  C   UNL d   1       5.662  -3.059  10.603 -0.28 -0.00    -0.025 A 
DOCKED: ATOM      8  C   UNL d   1       4.867  -3.061   9.473 -0.30 +0.01    +0.066 A 
DOCKED: ATOM      9  C   UNL d   1       5.325  -2.524  11.961 -0.38 +0.00    +0.051 C 
DOCKED: ATOM     10  C   UNL d   1       2.730  -2.501   8.350 -0.38 +0.01    +0.066 A 
DOCKED: ATOM     11  C   UNL d   1       1.384  -2.126   8.371 -0.49 -0.00    -0.021 A 
DOCKED: ATOM     12  C   UNL d   1       0.941  -2.187   7.065 -0.51 +0.00    +0.000 A 
DOCKED: ATOM     13  C   UNL d   1       2.049  -2.609   6.308 -0.40 +0.01    +0.070 A 
DOCKED: ATOM     14  C   UNL d   1       0.542  -1.791   9.585 -0.52 +0.00    +0.052 C 
DOCKED: ATOM     15  C   UNL d   1       3.107  -3.204   4.133 -0.39 +0.00    +0.066 A 
DOCKED: ATOM     16  C   UNL d   1       3.112  -3.229   2.744 -0.27 -0.00    -0.021 A 
DOCKED: ATOM     17  C   UNL d   1       4.314  -3.785   2.358 -0.42 +0.00    +0.000 A 
DOCKED: ATOM     18  C   UNL d   1       5.014  -4.091   3.524 -0.43 +0.00    +0.070 A 
DOCKED: ATOM     19  C   UNL d   1       2.021  -2.772   1.813 -0.40 +0.00    +0.052 C 
DOCKED: ATOM     20  C   UNL d   1       7.027  -4.947   4.735 -0.29 +0.01    +0.066 A 
DOCKED: ATOM     21  C   UNL d   1       8.197  -5.720   4.773 -0.00 -0.01    -0.025 A 
DOCKED: ATOM     22  C   UNL d   1       8.626  -5.689   6.084 -0.07 -0.01    -0.021 A 
DOCKED: ATOM     23  C   UNL d   1       7.703  -4.909   6.791 -0.35 +0.04    +0.066 A 
DOCKED: ATOM     24  C   UNL d   1       8.879  -6.455   3.643 -0.20 +0.01    +0.051 C 
DOCKED: ATOM     25  N   UNL d   1       5.529  -3.604   8.431 -0.17 -0.08    -0.248 N 
DOCKED: ATOM     26  N   UNL d   1       3.136  -2.809   7.092 -0.04 -0.07    -0.248 N 
DOCKED: ATOM     27  N   UNL d   1       4.291  -3.694   4.614 -0.27 -0.02    -0.248 N 
DOCKED: ATOM     28  N   UNL d   1       6.706  -4.497   5.971 -0.27 -0.07    -0.248 N 
DOCKED: ATOM     29 FE   UNL d   1       4.922  -3.653   6.530 -0.09 +0.00    +0.000 Fe
DOCKED: ENDROOT
DOCKED: BRANCH   6  30
DOCKED: ATOM     30  C   UNL d   1       8.038  -3.833  11.113 -0.24 +0.02    +0.052 C 
DOCKED: BRANCH  30  31
DOCKED: ATOM     31  C   UNL d   1       8.672  -2.494  11.476 -0.17 +0.05    +0.115 C 
DOCKED: BRANCH  31  32
DOCKED: ATOM     32  C   UNL d   1       9.639  -2.063  10.409 +0.00 +0.12    +0.139 C 
DOCKED: ATOM     33  O   UNL d   1       9.700  -2.661   9.344 -0.42 -1.14    -0.650 OA
DOCKED: BRANCH  32  34
DOCKED: ATOM     34  O   UNL d   1      10.450  -1.012  10.618 -0.34 -0.54    -0.776 OA
DOCKED: ATOM     35  H   UNL d   1      10.544  -0.662  11.515 +0.06 +0.07    +0.167 HD
DOCKED: ENDBRANCH  32  34
DOCKED: ENDBRANCH  31  32
DOCKED: ENDBRANCH  30  31
DOCKED: ENDBRANCH   6  30
DOCKED: BRANCH  22  36
DOCKED: ATOM     36  C   UNL d   1       9.829  -6.411   6.632 +0.38 +0.06    +0.052 C 
DOCKED: BRANCH  36  37
DOCKED: ATOM     37  C   UNL d   1       9.463  -7.854   6.946 +0.04 +0.06    +0.115 C 
DOCKED: BRANCH  37  38
DOCKED: ATOM     38  C   UNL d   1      10.359  -8.418   8.012 -0.13 +0.08    +0.139 C 
DOCKED: ATOM     39  O   UNL d   1      10.254  -9.583   8.365 +0.02 -0.21    -0.650 OA
DOCKED: BRANCH  38  40
DOCKED: ATOM     40  O   UNL d   1      11.286  -7.635   8.592 -0.48 -0.79    -0.776 OA
DOCKED: ATOM     41  H   UNL d   1      11.991  -8.047   9.111 +0.02 +0.12    +0.167 HD
DOCKED: ENDBRANCH  38  40
DOCKED: ENDBRANCH  37  38
DOCKED: ENDBRANCH  36  37
DOCKED: ENDBRANCH  22  36
DOCKED: BRANCH  12  42
DOCKED: ATOM     42  C   UNL d   1      -0.451  -1.876   6.617 -0.44 +0.00    +0.004 C 
DOCKED: ATOM     43  C   UNL d   1      -0.682  -1.305   5.428 -0.57 +0.00    +0.012 C 
DOCKED: ENDBRANCH  12  42
DOCKED: BRANCH  17  44
DOCKED: ATOM     44  C   UNL d   1       4.772  -3.991   0.966 -0.59 -0.00    +0.004 C 
DOCKED: ATOM     45  C   UNL d   1       4.226  -4.940   0.199 -0.73 -0.00    +0.012 C 
DOCKED: ENDBRANCH  17  44
DOCKED: TORSDOF 10
DOCKED: TER
DOCKED: ENDMDL
________________________________________________________________________________


	BEGINNING GENETIC ALGORITHM DOCKING 68 of 100
Run: 68 Seed: 1896948344 2057924597 [ Run 68 of 100 GA/GALS ]
Beginning LAMARCKIAN GENETIC ALGORITHM (LGA), with a maximum of 25000000 energy evaluations.

Final-Value: -10.919


	FINAL GENETIC ALGORITHM DOCKED STATE
	_______________________________________________


Detailed state:  trans 7.094 -5.967 14.810 quatxyzw 0.419811 0.267789 0.833878 -0.238107 center -0.174 -0.001 -0.047 ntor 10 -111.3647 123.2538 95.7871 15.8436 -40.7937 32.3355 23.8718 -78.1679 -173.6657 178.8665
State:	  7.094  -5.967  14.810   0.432  0.276  0.859 -152.450   -111.36  123.25   95.79   15.84  -40.79   32.34   23.87  -78.17 -173.67  178.87

DOCKED: MODEL       68
DOCKED: USER    Run = 68
DOCKED: USER    DPF = D:/Protein_go_brrr/autodock/final/mut_N102T/heme_Fe/dock.dpf
DOCKED: USER  
DOCKED: USER    Estimated Free Energy of Binding    =   -7.29 kcal/mol  [=(1)+(2)+(3)-(4)]
DOCKED: USER    Estimated Inhibition Constant, Ki   =    4.50 uM (micromolar)  [Temperature = 298.15 K]
DOCKED: USER    
DOCKED: USER    (1) Final Intermolecular Energy     =  -10.28 kcal/mol
DOCKED: USER        vdW + Hbond + desolv Energy     =   -7.65 kcal/mol
DOCKED: USER        Electrostatic Energy            =   -2.62 kcal/mol
DOCKED: USER    (2) Final Total Internal Energy     =   -0.64 kcal/mol
DOCKED: USER    (3) Torsional Free Energy           =   +2.98 kcal/mol
DOCKED: USER    (4) Unbound System's Energy  [=(2)] =   -0.64 kcal/mol
DOCKED: USER    
DOCKED: USER    
DOCKED: USER    NEWDPF move heme_Fe_opt.pdbqt
DOCKED: USER    NEWDPF about -0.174000 -0.001000 -0.047000
DOCKED: USER    NEWDPF tran0 7.094289 -5.966804 14.809787
DOCKED: USER    NEWDPF quaternion0 0.419811 0.267789 0.833878 -0.238107
DOCKED: USER    NEWDPF axisangle0 0.432243 0.275719 0.858572 -152.450278
DOCKED: USER    NEWDPF quat0 0.432243 0.275719 0.858572 -152.450278
DOCKED: USER    NEWDPF dihe0 -111.36 123.25 95.79 15.84 -40.79 32.34 23.87 -78.17 -173.67 178.87 
DOCKED: USER  keepresnum = 1 
DOCKED: USER  
DOCKED: REMARK  10 active torsions:
DOCKED: REMARK  status: ('A' for Active; 'I' for Inactive)
DOCKED: REMARK    1  A    between atoms: C_6  and  C_10 
DOCKED: REMARK    2  A    between atoms: C_10  and  C_11 
DOCKED: REMARK    3  A    between atoms: C_11  and  C_12 
DOCKED: REMARK    4  A    between atoms: C_12  and  O_14 
DOCKED: REMARK    5  A    between atoms: C_17  and  C_20 
DOCKED: REMARK    6  A    between atoms: C_24  and  C_27 
DOCKED: REMARK    7  A    between atoms: C_31  and  C_34 
DOCKED: REMARK    8  A    between atoms: C_34  and  C_35 
DOCKED: REMARK    9  A    between atoms: C_35  and  C_36 
DOCKED: REMARK   10  A    between atoms: C_36  and  O_38 
DOCKED: USER                              x       y       z     vdW  Elec       q    Type
DOCKED: USER                           _______ _______ _______ _____ _____    ______ ____
DOCKED: ROOT
DOCKED: ATOM      1  C   UNL d   1       8.603  -7.024  13.905 -0.23 +0.02    +0.064 C 
DOCKED: ATOM      2  C   UNL d   1       7.064  -2.329  13.749 -0.16 +0.01    +0.064 A 
DOCKED: ATOM      3  C   UNL d   1       4.463  -3.122  17.708 -0.13 -0.01    +0.064 C 
DOCKED: ATOM      4  C   UNL d   1       5.857  -7.697  17.818 -0.24 -0.00    +0.064 C 
DOCKED: ATOM      5  C   UNL d   1       8.345  -5.652  13.447 -0.11 +0.02    +0.066 A 
DOCKED: ATOM      6  C   UNL d   1       8.839  -5.105  12.273 -0.17 -0.01    -0.021 A 
DOCKED: ATOM      7  C   UNL d   1       8.414  -3.800  12.233 -0.15 -0.01    -0.025 A 
DOCKED: ATOM      8  C   UNL d   1       7.677  -3.600  13.384 -0.12 +0.01    +0.066 A 
DOCKED: ATOM      9  C   UNL d   1       8.690  -2.815  11.138 -0.19 +0.03    +0.051 C 
DOCKED: ATOM     10  C   UNL d   1       6.301  -2.125  14.824 -0.18 -0.00    +0.066 A 
DOCKED: ATOM     11  C   UNL d   1       5.823  -0.870  15.208 -0.34 +0.00    -0.021 A 
DOCKED: ATOM     12  C   UNL d   1       5.084  -1.069  16.357 -0.30 -0.00    +0.000 A 
DOCKED: ATOM     13  C   UNL d   1       5.156  -2.448  16.621 -0.16 -0.01    +0.070 A 
DOCKED: ATOM     14  C   UNL d   1       6.114   0.464  14.552 -0.49 -0.00    +0.052 C 
DOCKED: ATOM     15  C   UNL d   1       4.571  -4.441  17.997 -0.11 -0.01    +0.066 A 
DOCKED: ATOM     16  C   UNL d   1       3.816  -5.066  18.981 -0.10 +0.00    -0.021 A 
DOCKED: ATOM     17  C   UNL d   1       4.219  -6.385  19.017 -0.15 -0.00    +0.000 A 
DOCKED: ATOM     18  C   UNL d   1       5.215  -6.532  18.055 -0.18 -0.01    +0.070 A 
DOCKED: ATOM     19  C   UNL d   1       2.774  -4.445  19.872 -0.06 -0.01    +0.052 C 
DOCKED: ATOM     20  C   UNL d   1       6.866  -7.906  16.772 -0.25 +0.01    +0.066 A 
DOCKED: ATOM     21  C   UNL d   1       7.678  -9.041  16.645 -0.21 -0.01    -0.025 A 
DOCKED: ATOM     22  C   UNL d   1       8.444  -8.834  15.517 -0.24 -0.01    -0.021 A 
DOCKED: ATOM     23  C   UNL d   1       8.075  -7.583  15.006 -0.23 +0.01    +0.066 A 
DOCKED: ATOM     24  C   UNL d   1       7.741 -10.261  17.536 -0.13 +0.02    +0.051 C 
DOCKED: ATOM     25  N   UNL d   1       7.629  -4.732  14.115 +0.06 -0.04    -0.248 N 
DOCKED: ATOM     26  N   UNL d   1       5.905  -3.091  15.692 -0.08 +0.01    -0.248 N 
DOCKED: ATOM     27  N   UNL d   1       5.402  -5.349  17.397 -0.10 +0.02    -0.248 N 
DOCKED: ATOM     28  N   UNL d   1       7.145  -7.002  15.801 +0.00 -0.03    -0.248 N 
DOCKED: ATOM     29 FE   UNL d   1       6.524  -5.048  15.748 -0.04 +0.00    +0.000 Fe
DOCKED: ENDROOT
DOCKED: BRANCH   6  30
DOCKED: ATOM     30  C   UNL d   1       9.655  -5.791  11.232 -0.19 +0.04    +0.052 C 
DOCKED: BRANCH  30  31
DOCKED: ATOM     31  C   UNL d   1      11.133  -5.774  11.605 -0.09 +0.08    +0.115 C 
DOCKED: BRANCH  31  32
DOCKED: ATOM     32  C   UNL d   1      11.988  -5.911  10.376 +0.13 +0.19    +0.139 C 
DOCKED: ATOM     33  O   UNL d   1      11.678  -6.691   9.486 -0.39 -1.06    -0.650 OA
DOCKED: BRANCH  32  34
DOCKED: ATOM     34  O   UNL d   1      13.105  -5.176  10.245 -0.02 -1.05    -0.776 OA
DOCKED: ATOM     35  H   UNL d   1      13.857  -5.357  10.826 +0.01 +0.12    +0.167 HD
DOCKED: ENDBRANCH  32  34
DOCKED: ENDBRANCH  31  32
DOCKED: ENDBRANCH  30  31
DOCKED: ENDBRANCH   6  30
DOCKED: BRANCH  22  36
DOCKED: ATOM     36  C   UNL d   1       9.504  -9.764  14.989 -0.18 +0.04    +0.052 C 
DOCKED: BRANCH  36  37
DOCKED: ATOM     37  C   UNL d   1      10.818  -9.507  15.711 -0.10 +0.06    +0.115 C 
DOCKED: BRANCH  37  38
DOCKED: ATOM     38  C   UNL d   1      11.058 -10.539  16.777 -0.08 +0.09    +0.139 C 
DOCKED: ATOM     39  O   UNL d   1      10.659 -11.686  16.638 -0.60 -0.92    -0.650 OA
DOCKED: BRANCH  38  40
DOCKED: ATOM     40  O   UNL d   1      11.717 -10.203  17.900 +0.02 -0.24    -0.776 OA
DOCKED: ATOM     41  H   UNL d   1      12.606  -9.829  17.830 +0.01 +0.04    +0.167 HD
DOCKED: ENDBRANCH  38  40
DOCKED: ENDBRANCH  37  38
DOCKED: ENDBRANCH  36  37
DOCKED: ENDBRANCH  22  36
DOCKED: BRANCH  12  42
DOCKED: ATOM     42  C   UNL d   1       4.390   0.010  17.126 -0.51 -0.00    +0.004 C 
DOCKED: ATOM     43  C   UNL d   1       3.206  -0.213  17.712 -0.49 -0.00    +0.012 C 
DOCKED: ENDBRANCH  12  42
DOCKED: BRANCH  17  44
DOCKED: ATOM     44  C   UNL d   1       3.672  -7.439  19.900 -0.15 -0.00    +0.004 C 
DOCKED: ATOM     45  C   UNL d   1       2.432  -7.906  19.722 -0.22 -0.00    +0.012 C 
DOCKED: ENDBRANCH  17  44
DOCKED: TORSDOF 10
DOCKED: TER
DOCKED: ENDMDL
________________________________________________________________________________


	BEGINNING GENETIC ALGORITHM DOCKING 69 of 100
Run: 69 Seed: 1118787817 1741686411 [ Run 69 of 100 GA/GALS ]
Beginning LAMARCKIAN GENETIC ALGORITHM (LGA), with a maximum of 25000000 energy evaluations.

Final-Value: -9.393


	FINAL GENETIC ALGORITHM DOCKED STATE
	_______________________________________________


Detailed state:  trans -5.270 11.223 -7.763 quatxyzw 0.705025 -0.089612 -0.595690 0.374250 center -0.174 -0.001 -0.047 ntor 10 -108.5902 -116.4029 172.9602 -126.9305 -94.6724 -100.6856 58.9272 -122.0564 165.2474 151.7725
State:	 -5.270  11.223  -7.763   0.760 -0.097 -0.642 136.044   -108.59 -116.40  172.96 -126.93  -94.67 -100.69   58.93 -122.06  165.25  151.77

DOCKED: MODEL       69
DOCKED: USER    Run = 69
DOCKED: USER    DPF = D:/Protein_go_brrr/autodock/final/mut_N102T/heme_Fe/dock.dpf
DOCKED: USER  
DOCKED: USER    Estimated Free Energy of Binding    =   -5.65 kcal/mol  [=(1)+(2)+(3)-(4)]
DOCKED: USER    Estimated Inhibition Constant, Ki   =   71.69 uM (micromolar)  [Temperature = 298.15 K]
DOCKED: USER    
DOCKED: USER    (1) Final Intermolecular Energy     =   -8.64 kcal/mol
DOCKED: USER        vdW + Hbond + desolv Energy     =   -7.89 kcal/mol
DOCKED: USER        Electrostatic Energy            =   -0.75 kcal/mol
DOCKED: USER    (2) Final Total Internal Energy     =   -0.76 kcal/mol
DOCKED: USER    (3) Torsional Free Energy           =   +2.98 kcal/mol
DOCKED: USER    (4) Unbound System's Energy  [=(2)] =   -0.76 kcal/mol
DOCKED: USER    
DOCKED: USER    
DOCKED: USER    NEWDPF move heme_Fe_opt.pdbqt
DOCKED: USER    NEWDPF about -0.174000 -0.001000 -0.047000
DOCKED: USER    NEWDPF tran0 -5.270260 11.223251 -7.763477
DOCKED: USER    NEWDPF quaternion0 0.705025 -0.089612 -0.595690 0.374250
DOCKED: USER    NEWDPF axisangle0 0.760276 -0.096634 -0.642373 136.044115
DOCKED: USER    NEWDPF quat0 0.760276 -0.096634 -0.642373 136.044115
DOCKED: USER    NEWDPF dihe0 -108.59 -116.40 172.96 -126.93 -94.67 -100.69 58.93 -122.06 165.25 151.77 
DOCKED: USER  keepresnum = 1 
DOCKED: USER  
DOCKED: REMARK  10 active torsions:
DOCKED: REMARK  status: ('A' for Active; 'I' for Inactive)
DOCKED: REMARK    1  A    between atoms: C_6  and  C_10 
DOCKED: REMARK    2  A    between atoms: C_10  and  C_11 
DOCKED: REMARK    3  A    between atoms: C_11  and  C_12 
DOCKED: REMARK    4  A    between atoms: C_12  and  O_14 
DOCKED: REMARK    5  A    between atoms: C_17  and  C_20 
DOCKED: REMARK    6  A    between atoms: C_24  and  C_27 
DOCKED: REMARK    7  A    between atoms: C_31  and  C_34 
DOCKED: REMARK    8  A    between atoms: C_34  and  C_35 
DOCKED: REMARK    9  A    between atoms: C_35  and  C_36 
DOCKED: REMARK   10  A    between atoms: C_36  and  O_38 
DOCKED: USER                              x       y       z     vdW  Elec       q    Type
DOCKED: USER                           _______ _______ _______ _____ _____    ______ ____
DOCKED: ROOT
DOCKED: ATOM      1  C   UNL d   1      -6.191  10.969  -5.947 -0.19 +0.00    +0.064 C 
DOCKED: ATOM      2  C   UNL d   1      -3.137  14.353  -7.858 -0.11 +0.01    +0.064 A 
DOCKED: ATOM      3  C   UNL d   1      -4.055  12.608 -12.238 -0.30 -0.01    +0.064 C 
DOCKED: ATOM      4  C   UNL d   1      -6.933   9.258 -10.399 -0.25 -0.01    +0.064 C 
DOCKED: ATOM      5  C   UNL d   1      -5.181  12.030  -6.071 -0.21 +0.00    +0.066 A 
DOCKED: ATOM      6  C   UNL d   1      -4.592  12.689  -5.005 -0.22 -0.00    -0.021 A 
DOCKED: ATOM      7  C   UNL d   1      -3.747  13.631  -5.536 -0.25 -0.00    -0.025 A 
DOCKED: ATOM      8  C   UNL d   1      -3.853  13.511  -6.908 -0.24 +0.00    +0.066 A 
DOCKED: ATOM      9  C   UNL d   1      -2.878  14.575  -4.763 -0.19 +0.01    +0.051 C 
DOCKED: ATOM     10  C   UNL d   1      -3.177  14.220  -9.185 -0.25 -0.00    +0.066 A 
DOCKED: ATOM     11  C   UNL d   1      -2.571  15.114 -10.072 -0.27 +0.00    -0.021 A 
DOCKED: ATOM     12  C   UNL d   1      -2.836  14.642 -11.342 -0.25 -0.00    +0.000 A 
DOCKED: ATOM     13  C   UNL d   1      -3.603  13.478 -11.163 -0.24 -0.01    +0.070 A 
DOCKED: ATOM     14  C   UNL d   1      -1.835  16.393  -9.728 -0.23 -0.00    +0.052 C 
DOCKED: ATOM     15  C   UNL d   1      -4.837  11.516 -12.074 -0.26 -0.01    +0.066 A 
DOCKED: ATOM     16  C   UNL d   1      -5.165  10.655 -13.114 -0.33 +0.00    -0.021 A 
DOCKED: ATOM     17  C   UNL d   1      -5.998   9.689 -12.586 -0.33 -0.00    +0.000 A 
DOCKED: ATOM     18  C   UNL d   1      -6.163   9.988 -11.236 -0.20 -0.01    +0.070 A 
DOCKED: ATOM     19  C   UNL d   1      -4.733  10.747 -14.553 -0.34 -0.02    +0.052 C 
DOCKED: ATOM     20  C   UNL d   1      -7.081   9.506  -8.960 -0.18 -0.00    +0.066 A 
DOCKED: ATOM     21  C   UNL d   1      -8.023   8.888  -8.125 -0.17 +0.00    -0.025 A 
DOCKED: ATOM     22  C   UNL d   1      -7.786   9.381  -6.859 -0.14 +0.00    -0.021 A 
DOCKED: ATOM     23  C   UNL d   1      -6.718  10.280  -6.971 -0.18 -0.00    +0.066 A 
DOCKED: ATOM     24  C   UNL d   1      -9.097   7.890  -8.491 -0.00 +0.00    +0.051 C 
DOCKED: ATOM     25  N   UNL d   1      -4.719  12.529  -7.230 -0.17 +0.00    -0.248 N 
DOCKED: ATOM     26  N   UNL d   1      -3.819  13.226  -9.849 -0.18 +0.03    -0.248 N 
DOCKED: ATOM     27  N   UNL d   1      -5.415  11.085 -10.910 -0.09 +0.02    -0.248 N 
DOCKED: ATOM     28  N   UNL d   1      -6.322  10.385  -8.263 -0.11 +0.01    -0.248 N 
DOCKED: ATOM     29 FE   UNL d   1      -5.072  11.804  -9.057 -0.05 -0.00    +0.000 Fe
DOCKED: ENDROOT
DOCKED: BRANCH   6  30
DOCKED: ATOM     30  C   UNL d   1      -4.804  12.425  -3.553 -0.23 +0.01    +0.052 C 
DOCKED: BRANCH  30  31
DOCKED: ATOM     31  C   UNL d   1      -5.670  13.512  -2.927 -0.08 +0.03    +0.115 C 
DOCKED: BRANCH  31  32
DOCKED: ATOM     32  C   UNL d   1      -4.933  14.192  -1.807 -0.00 +0.07    +0.139 C 
DOCKED: ATOM     33  O   UNL d   1      -5.082  13.827  -0.649 -0.00 -0.38    -0.650 OA
DOCKED: BRANCH  32  34
DOCKED: ATOM     34  O   UNL d   1      -4.099  15.213  -2.070 -0.41 -0.55    -0.776 OA
DOCKED: ATOM     35  H   UNL d   1      -4.470  16.065  -2.340 +0.02 +0.06    +0.167 HD
DOCKED: ENDBRANCH  32  34
DOCKED: ENDBRANCH  31  32
DOCKED: ENDBRANCH  30  31
DOCKED: ENDBRANCH   6  30
DOCKED: BRANCH  22  36
DOCKED: ATOM     36  C   UNL d   1      -8.574   9.043  -5.621 -0.02 -0.00    +0.052 C 
DOCKED: BRANCH  36  37
DOCKED: ATOM     37  C   UNL d   1      -9.363  10.262  -5.166 -0.05 -0.00    +0.115 C 
DOCKED: BRANCH  37  38
DOCKED: ATOM     38  C   UNL d   1     -10.268  10.756  -6.258 -0.01 -0.00    +0.139 C 
DOCKED: ATOM     39  O   UNL d   1      -9.956  11.721  -6.940 +0.01 +0.00    -0.650 OA
DOCKED: BRANCH  38  40
DOCKED: ATOM     40  O   UNL d   1     -11.439  10.137  -6.491 +0.01 +0.00    -0.776 OA
DOCKED: ATOM     41  H   UNL d   1     -12.116  10.136  -5.801 +0.00 -0.00    +0.167 HD
DOCKED: ENDBRANCH  38  40
DOCKED: ENDBRANCH  37  38
DOCKED: ENDBRANCH  36  37
DOCKED: ENDBRANCH  22  36
DOCKED: BRANCH  12  42
DOCKED: ATOM     42  C   UNL d   1      -2.385  15.297 -12.609 -0.15 +0.00    +0.004 C 
DOCKED: ATOM     43  C   UNL d   1      -3.197  15.373 -13.672 -0.19 +0.00    +0.012 C 
DOCKED: ENDBRANCH  12  42
DOCKED: BRANCH  17  44
DOCKED: ATOM     44  C   UNL d   1      -6.581   8.545 -13.322 -0.44 -0.00    +0.004 C 
DOCKED: ATOM     45  C   UNL d   1      -7.572   8.729 -14.201 -0.39 -0.00    +0.012 C 
DOCKED: ENDBRANCH  17  44
DOCKED: TORSDOF 10
DOCKED: TER
DOCKED: ENDMDL
________________________________________________________________________________


	BEGINNING GENETIC ALGORITHM DOCKING 70 of 100
Run: 70 Seed: 1169909020 1058641157 [ Run 70 of 100 GA/GALS ]
Beginning LAMARCKIAN GENETIC ALGORITHM (LGA), with a maximum of 25000000 energy evaluations.

Final-Value: -12.176


	FINAL GENETIC ALGORITHM DOCKED STATE
	_______________________________________________


Detailed state:  trans 9.277 -6.648 8.444 quatxyzw -0.206292 0.646288 0.362137 -0.639228 center -0.174 -0.001 -0.047 ntor 10 121.6987 -152.7488 -124.7206 3.6332 -169.3328 -98.3425 -56.7997 144.6440 -30.8868 -180.0000
State:	  9.277  -6.648   8.444  -0.268  0.840  0.471 -100.531    121.70 -152.75 -124.72    3.63 -169.33  -98.34  -56.80  144.64  -30.89 -180.00

DOCKED: MODEL       70
DOCKED: USER    Run = 70
DOCKED: USER    DPF = D:/Protein_go_brrr/autodock/final/mut_N102T/heme_Fe/dock.dpf
DOCKED: USER  
DOCKED: USER    Estimated Free Energy of Binding    =   -8.63 kcal/mol  [=(1)+(2)+(3)-(4)]
DOCKED: USER    Estimated Inhibition Constant, Ki   =  469.00 nM (nanomolar)  [Temperature = 298.15 K]
DOCKED: USER    
DOCKED: USER    (1) Final Intermolecular Energy     =  -11.62 kcal/mol
DOCKED: USER        vdW + Hbond + desolv Energy     =   -9.00 kcal/mol
DOCKED: USER        Electrostatic Energy            =   -2.62 kcal/mol
DOCKED: USER    (2) Final Total Internal Energy     =   -0.56 kcal/mol
DOCKED: USER    (3) Torsional Free Energy           =   +2.98 kcal/mol
DOCKED: USER    (4) Unbound System's Energy  [=(2)] =   -0.56 kcal/mol
DOCKED: USER    
DOCKED: USER    
DOCKED: USER    NEWDPF move heme_Fe_opt.pdbqt
DOCKED: USER    NEWDPF about -0.174000 -0.001000 -0.047000
DOCKED: USER    NEWDPF tran0 9.277167 -6.648230 8.443637
DOCKED: USER    NEWDPF quaternion0 -0.206292 0.646288 0.362137 -0.639228
DOCKED: USER    NEWDPF axisangle0 -0.268253 0.840407 0.470909 -100.531453
DOCKED: USER    NEWDPF quat0 -0.268253 0.840407 0.470909 -100.531453
DOCKED: USER    NEWDPF dihe0 121.70 -152.75 -124.72 3.63 -169.33 -98.34 -56.80 144.64 -30.89 -180.00 
DOCKED: USER  keepresnum = 1 
DOCKED: USER  
DOCKED: REMARK  10 active torsions:
DOCKED: REMARK  status: ('A' for Active; 'I' for Inactive)
DOCKED: REMARK    1  A    between atoms: C_6  and  C_10 
DOCKED: REMARK    2  A    between atoms: C_10  and  C_11 
DOCKED: REMARK    3  A    between atoms: C_11  and  C_12 
DOCKED: REMARK    4  A    between atoms: C_12  and  O_14 
DOCKED: REMARK    5  A    between atoms: C_17  and  C_20 
DOCKED: REMARK    6  A    between atoms: C_24  and  C_27 
DOCKED: REMARK    7  A    between atoms: C_31  and  C_34 
DOCKED: REMARK    8  A    between atoms: C_34  and  C_35 
DOCKED: REMARK    9  A    between atoms: C_35  and  C_36 
DOCKED: REMARK   10  A    between atoms: C_36  and  O_38 
DOCKED: USER                              x       y       z     vdW  Elec       q    Type
DOCKED: USER                           _______ _______ _______ _____ _____    ______ ____
DOCKED: ROOT
DOCKED: ATOM      1  C   UNL d   1       9.874  -6.686  10.407 -0.09 +0.05    +0.064 C 
DOCKED: ATOM      2  C   UNL d   1      11.812  -8.281   6.149 -0.11 +0.03    +0.064 A 
DOCKED: ATOM      3  C   UNL d   1       8.640  -5.571   3.770 -0.28 +0.01    +0.064 C 
DOCKED: ATOM      4  C   UNL d   1       6.681  -4.097   7.877 -0.36 +0.02    +0.064 C 
DOCKED: ATOM      5  C   UNL d   1      10.659  -7.451   9.428 -0.09 +0.06    +0.066 A 
DOCKED: ATOM      6  C   UNL d   1      11.597  -8.419   9.749 -0.11 -0.01    -0.021 A 
DOCKED: ATOM      7  C   UNL d   1      12.137  -8.858   8.566 -0.09 -0.01    -0.025 A 
DOCKED: ATOM      8  C   UNL d   1      11.508  -8.142   7.567 -0.13 +0.04    +0.066 A 
DOCKED: ATOM      9  C   UNL d   1      13.183  -9.920   8.414 -0.03 +0.01    +0.051 C 
DOCKED: ATOM     10  C   UNL d   1      11.180  -7.644   5.161 -0.14 +0.02    +0.066 A 
DOCKED: ATOM     11  C   UNL d   1      11.570  -7.711   3.822 -0.12 -0.00    -0.021 A 
DOCKED: ATOM     12  C   UNL d   1      10.681  -6.925   3.117 -0.22 +0.00    +0.000 A 
DOCKED: ATOM     13  C   UNL d   1       9.791  -6.407   4.074 -0.26 +0.02    +0.070 A 
DOCKED: ATOM     14  C   UNL d   1      12.772  -8.435   3.249 -0.05 -0.00    +0.052 C 
DOCKED: ATOM     15  C   UNL d   1       7.811  -5.028   4.692 -0.34 +0.02    +0.066 A 
DOCKED: ATOM     16  C   UNL d   1       6.664  -4.318   4.357 -0.47 -0.00    -0.021 A 
DOCKED: ATOM     17  C   UNL d   1       6.100  -3.889   5.540 -0.46 +0.00    +0.000 A 
DOCKED: ATOM     18  C   UNL d   1       6.919  -4.344   6.571 -0.38 +0.03    +0.070 A 
DOCKED: ATOM     19  C   UNL d   1       6.132  -4.031   2.979 -0.40 +0.00    +0.052 C 
DOCKED: ATOM     20  C   UNL d   1       7.485  -4.611   8.992 -0.33 +0.04    +0.066 A 
DOCKED: ATOM     21  C   UNL d   1       7.372  -4.203  10.329 -0.27 -0.01    -0.025 A 
DOCKED: ATOM     22  C   UNL d   1       8.282  -4.963  11.034 -0.24 -0.01    -0.021 A 
DOCKED: ATOM     23  C   UNL d   1       8.916  -5.795  10.104 -0.18 +0.06    +0.066 A 
DOCKED: ATOM     24  C   UNL d   1       6.462  -3.152  10.920 -0.26 +0.01    +0.051 C 
DOCKED: ATOM     25  N   UNL d   1      10.602  -7.293   8.094 -0.06 -0.30    -0.248 N 
DOCKED: ATOM     26  N   UNL d   1      10.100  -6.838   5.321 -0.14 -0.13    -0.248 N 
DOCKED: ATOM     27  N   UNL d   1       7.946  -5.081   6.053 -0.23 -0.13    -0.248 N 
DOCKED: ATOM     28  N   UNL d   1       8.458  -5.544   8.853 -0.20 -0.23    -0.248 N 
DOCKED: ATOM     29 FE   UNL d   1       9.277  -6.190   7.088 -0.07 +0.00    +0.000 Fe
DOCKED: ENDROOT
DOCKED: BRANCH   6  30
DOCKED: ATOM     30  C   UNL d   1      11.948  -8.918  11.109 -0.08 +0.02    +0.052 C 
DOCKED: BRANCH  30  31
DOCKED: ATOM     31  C   UNL d   1      10.720  -9.490  11.809 -0.13 +0.05    +0.115 C 
DOCKED: BRANCH  31  32
DOCKED: ATOM     32  C   UNL d   1      10.964 -10.915  12.218 -0.15 +0.09    +0.139 C 
DOCKED: ATOM     33  O   UNL d   1      10.045 -11.615  12.620 -0.58 -0.82    -0.650 OA
DOCKED: BRANCH  32  34
DOCKED: ATOM     34  O   UNL d   1      12.201 -11.435  12.147 +0.02 -0.36    -0.776 OA
DOCKED: ATOM     35  H   UNL d   1      12.658 -11.446  11.294 +0.02 +0.05    +0.167 HD
DOCKED: ENDBRANCH  32  34
DOCKED: ENDBRANCH  31  32
DOCKED: ENDBRANCH  30  31
DOCKED: ENDBRANCH   6  30
DOCKED: BRANCH  22  36
DOCKED: ATOM     36  C   UNL d   1       8.560  -4.858  12.510 -0.18 +0.02    +0.052 C 
DOCKED: BRANCH  36  37
DOCKED: ATOM     37  C   UNL d   1       9.540  -3.724  12.769 -0.07 +0.04    +0.115 C 
DOCKED: BRANCH  37  38
DOCKED: ATOM     38  C   UNL d   1      10.560  -3.632  11.669 -0.09 +0.11    +0.139 C 
DOCKED: ATOM     39  O   UNL d   1      11.669  -4.128  11.802 +0.01 -0.50    -0.650 OA
DOCKED: BRANCH  38  40
DOCKED: ATOM     40  O   UNL d   1      10.257  -2.995  10.524 -0.28 -1.04    -0.776 OA
DOCKED: ATOM     41  H   UNL d   1       9.593  -2.291  10.539 +0.04 +0.14    +0.167 HD
DOCKED: ENDBRANCH  38  40
DOCKED: ENDBRANCH  37  38
DOCKED: ENDBRANCH  36  37
DOCKED: ENDBRANCH  22  36
DOCKED: BRANCH  12  42
DOCKED: ATOM     42  C   UNL d   1      10.725  -6.696   1.639 -0.26 -0.00    +0.004 C 
DOCKED: ATOM     43  C   UNL d   1      11.617  -5.856   1.098 -0.34 -0.01    +0.012 C 
DOCKED: ENDBRANCH  12  42
DOCKED: BRANCH  17  44
DOCKED: ATOM     44  C   UNL d   1       4.847  -3.111   5.676 -0.35 +0.00    +0.004 C 
DOCKED: ATOM     45  C   UNL d   1       3.695  -3.577   5.182 -0.48 +0.00    +0.012 C 
DOCKED: ENDBRANCH  17  44
DOCKED: TORSDOF 10
DOCKED: TER
DOCKED: ENDMDL
________________________________________________________________________________


	BEGINNING GENETIC ALGORITHM DOCKING 71 of 100
Run: 71 Seed: 1240266293 255706558 [ Run 71 of 100 GA/GALS ]
Beginning LAMARCKIAN GENETIC ALGORITHM (LGA), with a maximum of 25000000 energy evaluations.

Final-Value: -10.426


	FINAL GENETIC ALGORITHM DOCKED STATE
	_______________________________________________


Detailed state:  trans -4.489 11.919 -10.910 quatxyzw -0.090031 -0.754772 -0.409511 -0.504494 center -0.174 -0.001 -0.047 ntor 10 -145.5251 7.0311 40.4158 -5.7388 41.4474 -78.3905 -12.2074 69.4750 -170.9679 165.6464
State:	 -4.489  11.919 -10.910  -0.104 -0.874 -0.474 -119.404   -145.53    7.03   40.42   -5.74   41.45  -78.39  -12.21   69.47 -170.97  165.65

DOCKED: MODEL       71
DOCKED: USER    Run = 71
DOCKED: USER    DPF = D:/Protein_go_brrr/autodock/final/mut_N102T/heme_Fe/dock.dpf
DOCKED: USER  
DOCKED: USER    Estimated Free Energy of Binding    =   -5.31 kcal/mol  [=(1)+(2)+(3)-(4)]
DOCKED: USER    Estimated Inhibition Constant, Ki   =  127.65 uM (micromolar)  [Temperature = 298.15 K]
DOCKED: USER    
DOCKED: USER    (1) Final Intermolecular Energy     =   -8.30 kcal/mol
DOCKED: USER        vdW + Hbond + desolv Energy     =   -7.90 kcal/mol
DOCKED: USER        Electrostatic Energy            =   -0.39 kcal/mol
DOCKED: USER    (2) Final Total Internal Energy     =   -2.13 kcal/mol
DOCKED: USER    (3) Torsional Free Energy           =   +2.98 kcal/mol
DOCKED: USER    (4) Unbound System's Energy  [=(2)] =   -2.13 kcal/mol
DOCKED: USER    
DOCKED: USER    
DOCKED: USER    NEWDPF move heme_Fe_opt.pdbqt
DOCKED: USER    NEWDPF about -0.174000 -0.001000 -0.047000
DOCKED: USER    NEWDPF tran0 -4.489191 11.919079 -10.909534
DOCKED: USER    NEWDPF quaternion0 -0.090031 -0.754772 -0.409511 -0.504494
DOCKED: USER    NEWDPF axisangle0 -0.104273 -0.874171 -0.474291 -119.404470
DOCKED: USER    NEWDPF quat0 -0.104273 -0.874171 -0.474291 -119.404470
DOCKED: USER    NEWDPF dihe0 -145.53 7.03 40.42 -5.74 41.45 -78.39 -12.21 69.47 -170.97 165.65 
DOCKED: USER  keepresnum = 1 
DOCKED: USER  
DOCKED: REMARK  10 active torsions:
DOCKED: REMARK  status: ('A' for Active; 'I' for Inactive)
DOCKED: REMARK    1  A    between atoms: C_6  and  C_10 
DOCKED: REMARK    2  A    between atoms: C_10  and  C_11 
DOCKED: REMARK    3  A    between atoms: C_11  and  C_12 
DOCKED: REMARK    4  A    between atoms: C_12  and  O_14 
DOCKED: REMARK    5  A    between atoms: C_17  and  C_20 
DOCKED: REMARK    6  A    between atoms: C_24  and  C_27 
DOCKED: REMARK    7  A    between atoms: C_31  and  C_34 
DOCKED: REMARK    8  A    between atoms: C_34  and  C_35 
DOCKED: REMARK    9  A    between atoms: C_35  and  C_36 
DOCKED: REMARK   10  A    between atoms: C_36  and  O_38 
DOCKED: USER                              x       y       z     vdW  Elec       q    Type
DOCKED: USER                           _______ _______ _______ _____ _____    ______ ____
DOCKED: ROOT
DOCKED: ATOM      1  C   UNL d   1      -3.947  12.807 -12.678 -0.29 -0.01    +0.064 C 
DOCKED: ATOM      2  C   UNL d   1      -7.373   9.501 -11.351 -0.17 -0.01    +0.064 A 
DOCKED: ATOM      3  C   UNL d   1      -6.657  10.706  -6.757 -0.19 +0.00    +0.064 C 
DOCKED: ATOM      4  C   UNL d   1      -3.263  13.836  -8.012 -0.14 +0.00    +0.064 C 
DOCKED: ATOM      5  C   UNL d   1      -4.918  11.706 -12.724 -0.25 -0.01    +0.066 A 
DOCKED: ATOM      6  C   UNL d   1      -5.289  11.026 -13.873 -0.29 +0.00    -0.021 A 
DOCKED: ATOM      7  C   UNL d   1      -6.243  10.111 -13.504 -0.26 +0.00    -0.025 A 
DOCKED: ATOM      8  C   UNL d   1      -6.418  10.267 -12.143 -0.19 -0.01    +0.066 A 
DOCKED: ATOM      9  C   UNL d   1      -6.927   9.134 -14.411 -0.39 -0.01    +0.051 C 
DOCKED: ATOM     10  C   UNL d   1      -7.521   9.592 -10.028 -0.16 -0.01    +0.066 A 
DOCKED: ATOM     11  C   UNL d   1      -8.522   8.930  -9.313 -0.14 +0.00    -0.021 A 
DOCKED: ATOM     12  C   UNL d   1      -8.348   9.274  -7.988 -0.13 -0.00    +0.000 A 
DOCKED: ATOM     13  C   UNL d   1      -7.243  10.143  -7.963 -0.13 -0.00    +0.070 A 
DOCKED: ATOM     14  C   UNL d   1      -9.633   8.066  -9.874 -0.02 +0.00    +0.052 C 
DOCKED: ATOM     15  C   UNL d   1      -5.627  11.584  -6.732 -0.21 +0.00    +0.066 A 
DOCKED: ATOM     16  C   UNL d   1      -5.030  12.021  -5.556 -0.23 -0.00    -0.021 A 
DOCKED: ATOM     17  C   UNL d   1      -4.054  12.927  -5.916 -0.30 +0.00    +0.000 A 
DOCKED: ATOM     18  C   UNL d   1      -4.080  13.024  -7.305 -0.27 -0.00    +0.070 A 
DOCKED: ATOM     19  C   UNL d   1      -5.380  11.625  -4.147 -0.19 +0.01    +0.052 C 
DOCKED: ATOM     20  C   UNL d   1      -3.220  13.919  -9.477 -0.25 -0.01    +0.066 A 
DOCKED: ATOM     21  C   UNL d   1      -2.528  14.891 -10.213 -0.29 +0.00    -0.025 A 
DOCKED: ATOM     22  C   UNL d   1      -2.726  14.571 -11.540 -0.25 +0.00    -0.021 A 
DOCKED: ATOM     23  C   UNL d   1      -3.532  13.426 -11.562 -0.24 -0.01    +0.066 A 
DOCKED: ATOM     24  C   UNL d   1      -1.724  16.065  -9.704 -0.26 -0.00    +0.051 C 
DOCKED: ATOM     25  N   UNL d   1      -5.604  11.231 -11.670 -0.10 +0.02    -0.248 N 
DOCKED: ATOM     26  N   UNL d   1      -6.745  10.344  -9.208 -0.08 +0.01    -0.248 N 
DOCKED: ATOM     27  N   UNL d   1      -5.016  12.167  -7.811 -0.16 +0.01    -0.248 N 
DOCKED: ATOM     28  N   UNL d   1      -3.867  13.059 -10.301 -0.17 +0.03    -0.248 N 
DOCKED: ATOM     29 FE   UNL d   1      -5.305  11.703  -9.753 -0.05 -0.00    +0.000 Fe
DOCKED: ENDROOT
DOCKED: BRANCH   6  30
DOCKED: ATOM     30  C   UNL d   1      -4.750  11.220 -15.249 -0.36 -0.01    +0.052 C 
DOCKED: BRANCH  30  31
DOCKED: ATOM     31  C   UNL d   1      -5.424  12.406 -15.931 -0.22 -0.00    +0.115 C 
DOCKED: BRANCH  31  32
DOCKED: ATOM     32  C   UNL d   1      -4.684  12.782 -17.185 -0.23 +0.01    +0.139 C 
DOCKED: ATOM     33  O   UNL d   1      -4.258  11.919 -17.940 -0.05 -0.04    -0.650 OA
DOCKED: BRANCH  32  34
DOCKED: ATOM     34  O   UNL d   1      -4.484  14.075 -17.488 +0.00 -0.21    -0.776 OA
DOCKED: ATOM     35  H   UNL d   1      -4.337  14.708 -16.771 +0.03 +0.05    +0.167 HD
DOCKED: ENDBRANCH  32  34
DOCKED: ENDBRANCH  31  32
DOCKED: ENDBRANCH  30  31
DOCKED: ENDBRANCH   6  30
DOCKED: BRANCH  22  36
DOCKED: ATOM     36  C   UNL d   1      -2.210  15.352 -12.720 -0.08 +0.00    +0.052 C 
DOCKED: BRANCH  36  37
DOCKED: ATOM     37  C   UNL d   1      -3.301  16.275 -13.242 -0.09 +0.01    +0.115 C 
DOCKED: BRANCH  37  38
DOCKED: ATOM     38  C   UNL d   1      -3.783  15.830 -14.593 -0.14 +0.02    +0.139 C 
DOCKED: ATOM     39  O   UNL d   1      -3.134  16.074 -15.600 -0.07 -0.20    -0.650 OA
DOCKED: BRANCH  38  40
DOCKED: ATOM     40  O   UNL d   1      -4.942  15.157 -14.705 +0.04 -0.08    -0.776 OA
DOCKED: ATOM     41  H   UNL d   1      -5.192  14.790 -15.564 +0.04 +0.02    +0.167 HD
DOCKED: ENDBRANCH  38  40
DOCKED: ENDBRANCH  37  38
DOCKED: ENDBRANCH  36  37
DOCKED: ENDBRANCH  22  36
DOCKED: BRANCH  12  42
DOCKED: ATOM     42  C   UNL d   1      -9.208   8.800  -6.860 -0.10 -0.00    +0.004 C 
DOCKED: ATOM     43  C   UNL d   1      -8.934   7.657  -6.217 -0.15 -0.00    +0.012 C 
DOCKED: ENDBRANCH  12  42
DOCKED: BRANCH  17  44
DOCKED: ATOM     44  C   UNL d   1      -3.141  13.637  -4.991 -0.33 +0.00    +0.004 C 
DOCKED: ATOM     45  C   UNL d   1      -2.482  12.974  -4.036 -0.41 +0.00    +0.012 C 
DOCKED: ENDBRANCH  17  44
DOCKED: TORSDOF 10
DOCKED: TER
DOCKED: ENDMDL
________________________________________________________________________________


	BEGINNING GENETIC ALGORITHM DOCKING 72 of 100
Run: 72 Seed: 513749080 599993089 [ Run 72 of 100 GA/GALS ]
Beginning LAMARCKIAN GENETIC ALGORITHM (LGA), with a maximum of 25000000 energy evaluations.

Final-Value: -12.217


	FINAL GENETIC ALGORITHM DOCKED STATE
	_______________________________________________


Detailed state:  trans 7.739 -4.981 14.951 quatxyzw 0.172777 -0.894926 0.141907 -0.386158 center -0.174 -0.001 -0.047 ntor 10 153.0322 -174.7239 175.7446 58.7770 151.9298 127.2136 -31.9156 -33.5597 -168.4755 -16.0992
State:	  7.739  -4.981  14.951   0.187 -0.970  0.154 -134.569    153.03 -174.72  175.74   58.78  151.93  127.21  -31.92  -33.56 -168.48  -16.10

DOCKED: MODEL       72
DOCKED: USER    Run = 72
DOCKED: USER    DPF = D:/Protein_go_brrr/autodock/final/mut_N102T/heme_Fe/dock.dpf
DOCKED: USER  
DOCKED: USER    Estimated Free Energy of Binding    =   -7.93 kcal/mol  [=(1)+(2)+(3)-(4)]
DOCKED: USER    Estimated Inhibition Constant, Ki   =    1.53 uM (micromolar)  [Temperature = 298.15 K]
DOCKED: USER    
DOCKED: USER    (1) Final Intermolecular Energy     =  -10.92 kcal/mol
DOCKED: USER        vdW + Hbond + desolv Energy     =   -7.79 kcal/mol
DOCKED: USER        Electrostatic Energy            =   -3.12 kcal/mol
DOCKED: USER    (2) Final Total Internal Energy     =   -1.30 kcal/mol
DOCKED: USER    (3) Torsional Free Energy           =   +2.98 kcal/mol
DOCKED: USER    (4) Unbound System's Energy  [=(2)] =   -1.30 kcal/mol
DOCKED: USER    
DOCKED: USER    
DOCKED: USER    NEWDPF move heme_Fe_opt.pdbqt
DOCKED: USER    NEWDPF about -0.174000 -0.001000 -0.047000
DOCKED: USER    NEWDPF tran0 7.738947 -4.980869 14.950624
DOCKED: USER    NEWDPF quaternion0 0.172777 -0.894926 0.141907 -0.386158
DOCKED: USER    NEWDPF axisangle0 0.187306 -0.970180 0.153840 -134.568743
DOCKED: USER    NEWDPF quat0 0.187306 -0.970180 0.153840 -134.568743
DOCKED: USER    NEWDPF dihe0 153.03 -174.72 175.74 58.78 151.93 127.21 -31.92 -33.56 -168.48 -16.10 
DOCKED: USER  keepresnum = 1 
DOCKED: USER  
DOCKED: REMARK  10 active torsions:
DOCKED: REMARK  status: ('A' for Active; 'I' for Inactive)
DOCKED: REMARK    1  A    between atoms: C_6  and  C_10 
DOCKED: REMARK    2  A    between atoms: C_10  and  C_11 
DOCKED: REMARK    3  A    between atoms: C_11  and  C_12 
DOCKED: REMARK    4  A    between atoms: C_12  and  O_14 
DOCKED: REMARK    5  A    between atoms: C_17  and  C_20 
DOCKED: REMARK    6  A    between atoms: C_24  and  C_27 
DOCKED: REMARK    7  A    between atoms: C_31  and  C_34 
DOCKED: REMARK    8  A    between atoms: C_34  and  C_35 
DOCKED: REMARK    9  A    between atoms: C_35  and  C_36 
DOCKED: REMARK   10  A    between atoms: C_36  and  O_38 
DOCKED: USER                              x       y       z     vdW  Elec       q    Type
DOCKED: USER                           _______ _______ _______ _____ _____    ______ ____
DOCKED: ROOT
DOCKED: ATOM      1  C   UNL d   1       8.694  -4.845  13.139 -0.14 +0.02    +0.064 C 
DOCKED: ATOM      2  C   UNL d   1       7.866  -8.491  16.372 -0.23 +0.02    +0.064 A 
DOCKED: ATOM      3  C   UNL d   1       4.556  -5.748  18.513 -0.16 -0.01    +0.064 C 
DOCKED: ATOM      4  C   UNL d   1       5.416  -2.167  15.460 -0.24 -0.01    +0.064 C 
DOCKED: ATOM      5  C   UNL d   1       8.827  -6.094  13.902 -0.14 +0.02    +0.066 A 
DOCKED: ATOM      6  C   UNL d   1       9.764  -7.081  13.644 -0.14 -0.01    -0.021 A 
DOCKED: ATOM      7  C   UNL d   1       9.531  -8.095  14.539 -0.16 -0.01    -0.025 A 
DOCKED: ATOM      8  C   UNL d   1       8.460  -7.687  15.311 -0.20 +0.02    +0.066 A 
DOCKED: ATOM      9  C   UNL d   1      10.310  -9.370  14.652 -0.17 +0.03    +0.051 C 
DOCKED: ATOM     10  C   UNL d   1       6.871  -8.098  17.168 -0.23 +0.01    +0.066 A 
DOCKED: ATOM     11  C   UNL d   1       6.247  -8.932  18.099 -0.23 -0.00    -0.021 A 
DOCKED: ATOM     12  C   UNL d   1       5.277  -8.170  18.718 -0.15 -0.00    +0.000 A 
DOCKED: ATOM     13  C   UNL d   1       5.354  -6.899  18.121 -0.18 -0.01    +0.070 A 
DOCKED: ATOM     14  C   UNL d   1       6.516 -10.404  18.339 -0.21 +0.01    +0.052 C 
DOCKED: ATOM     15  C   UNL d   1       4.590  -4.538  17.907 -0.12 -0.01    +0.066 A 
DOCKED: ATOM     16  C   UNL d   1       3.885  -3.436  18.374 -0.09 +0.00    -0.021 A 
DOCKED: ATOM     17  C   UNL d   1       4.129  -2.403  17.493 -0.18 -0.00    +0.000 A 
DOCKED: ATOM     18  C   UNL d   1       4.975  -2.901  16.505 -0.16 -0.01    +0.070 A 
DOCKED: ATOM     19  C   UNL d   1       2.996  -3.361  19.586 -0.07 -0.01    +0.052 C 
DOCKED: ATOM     20  C   UNL d   1       6.355  -2.639  14.436 -0.17 +0.00    +0.066 A 
DOCKED: ATOM     21  C   UNL d   1       6.663  -1.965  13.246 -0.24 -0.00    -0.025 A 
DOCKED: ATOM     22  C   UNL d   1       7.608  -2.739  12.606 -0.19 -0.00    -0.021 A 
DOCKED: ATOM     23  C   UNL d   1       7.835  -3.853  13.423 -0.11 +0.01    +0.066 A 
DOCKED: ATOM     24  C   UNL d   1       6.099  -0.662  12.728 -0.45 -0.00    +0.051 C 
DOCKED: ATOM     25  N   UNL d   1       8.041  -6.465  14.927 -0.09 -0.04    -0.248 N 
DOCKED: ATOM     26  N   UNL d   1       6.320  -6.857  17.170 -0.15 +0.00    -0.248 N 
DOCKED: ATOM     27  N   UNL d   1       5.294  -4.201  16.783 -0.07 +0.02    -0.248 N 
DOCKED: ATOM     28  N   UNL d   1       7.034  -3.809  14.516 +0.02 -0.02    -0.248 N 
DOCKED: ATOM     29 FE   UNL d   1       6.676  -5.332  15.843 -0.04 +0.00    +0.000 Fe
DOCKED: ENDROOT
DOCKED: BRANCH   6  30
DOCKED: ATOM     30  C   UNL d   1      10.840  -7.056  12.613 -0.10 +0.02    +0.052 C 
DOCKED: BRANCH  30  31
DOCKED: ATOM     31  C   UNL d   1      10.278  -7.392  11.236 -0.11 +0.06    +0.115 C 
DOCKED: BRANCH  31  32
DOCKED: ATOM     32  C   UNL d   1      11.041  -6.665  10.164 -0.05 +0.16    +0.139 C 
DOCKED: ATOM     33  O   UNL d   1      11.131  -7.132   9.037 -0.55 -0.90    -0.650 OA
DOCKED: BRANCH  32  34
DOCKED: ATOM     34  O   UNL d   1      11.634  -5.491  10.437 +0.12 -1.25    -0.776 OA
DOCKED: ATOM     35  H   UNL d   1      11.272  -4.934  11.141 +0.02 +0.19    +0.167 HD
DOCKED: ENDBRANCH  32  34
DOCKED: ENDBRANCH  31  32
DOCKED: ENDBRANCH  30  31
DOCKED: ENDBRANCH   6  30
DOCKED: BRANCH  22  36
DOCKED: ATOM     36  C   UNL d   1       8.222  -2.447  11.262 -0.15 +0.02    +0.052 C 
DOCKED: BRANCH  36  37
DOCKED: ATOM     37  C   UNL d   1       9.339  -1.426  11.419 -0.18 +0.05    +0.115 C 
DOCKED: BRANCH  37  38
DOCKED: ATOM     38  C   UNL d   1      10.451  -1.691  10.444 -0.18 +0.12    +0.139 C 
DOCKED: ATOM     39  O   UNL d   1      10.859  -0.807   9.705 -0.55 -0.56    -0.650 OA
DOCKED: BRANCH  38  40
DOCKED: ATOM     40  O   UNL d   1      11.008  -2.913  10.377 -0.10 -1.25    -0.776 OA
DOCKED: ATOM     41  H   UNL d   1      10.634  -3.630  10.909 +0.02 +0.21    +0.167 HD
DOCKED: ENDBRANCH  38  40
DOCKED: ENDBRANCH  37  38
DOCKED: ENDBRANCH  36  37
DOCKED: ENDBRANCH  22  36
DOCKED: BRANCH  12  42
DOCKED: ATOM     42  C   UNL d   1       4.352  -8.663  19.785 -0.18 -0.00    +0.004 C 
DOCKED: ATOM     43  C   UNL d   1       3.048  -8.355  19.763 -0.21 -0.00    +0.012 C 
DOCKED: ENDBRANCH  12  42
DOCKED: BRANCH  17  44
DOCKED: ATOM     44  C   UNL d   1       3.603  -1.023  17.600 -0.41 -0.00    +0.004 C 
DOCKED: ATOM     45  C   UNL d   1       4.422   0.005  17.844 -0.50 -0.00    +0.012 C 
DOCKED: ENDBRANCH  17  44
DOCKED: TORSDOF 10
DOCKED: TER
DOCKED: ENDMDL
________________________________________________________________________________


	BEGINNING GENETIC ALGORITHM DOCKING 73 of 100
Run: 73 Seed: 1831762479 292029865 [ Run 73 of 100 GA/GALS ]
Beginning LAMARCKIAN GENETIC ALGORITHM (LGA), with a maximum of 25000000 energy evaluations.

Final-Value: -9.897


	FINAL GENETIC ALGORITHM DOCKED STATE
	_______________________________________________


Detailed state:  trans -11.644 5.085 11.301 quatxyzw -0.405562 0.596537 -0.383470 -0.576727 center -0.174 -0.001 -0.047 ntor 10 -127.5239 62.7547 160.2598 -126.7896 172.1059 -122.5615 -82.8476 -70.4262 156.3264 19.7933
State:	-11.644   5.085  11.301  -0.496  0.730 -0.469 -109.559   -127.52   62.75  160.26 -126.79  172.11 -122.56  -82.85  -70.43  156.33   19.79

DOCKED: MODEL       73
DOCKED: USER    Run = 73
DOCKED: USER    DPF = D:/Protein_go_brrr/autodock/final/mut_N102T/heme_Fe/dock.dpf
DOCKED: USER  
DOCKED: USER    Estimated Free Energy of Binding    =   -4.72 kcal/mol  [=(1)+(2)+(3)-(4)]
DOCKED: USER    Estimated Inhibition Constant, Ki   =  349.44 uM (micromolar)  [Temperature = 298.15 K]
DOCKED: USER    
DOCKED: USER    (1) Final Intermolecular Energy     =   -7.70 kcal/mol
DOCKED: USER        vdW + Hbond + desolv Energy     =   -7.66 kcal/mol
DOCKED: USER        Electrostatic Energy            =   -0.04 kcal/mol
DOCKED: USER    (2) Final Total Internal Energy     =   -2.20 kcal/mol
DOCKED: USER    (3) Torsional Free Energy           =   +2.98 kcal/mol
DOCKED: USER    (4) Unbound System's Energy  [=(2)] =   -2.20 kcal/mol
DOCKED: USER    
DOCKED: USER    
DOCKED: USER    NEWDPF move heme_Fe_opt.pdbqt
DOCKED: USER    NEWDPF about -0.174000 -0.001000 -0.047000
DOCKED: USER    NEWDPF tran0 -11.644291 5.084869 11.301018
DOCKED: USER    NEWDPF quaternion0 -0.405562 0.596537 -0.383470 -0.576727
DOCKED: USER    NEWDPF axisangle0 -0.496442 0.730212 -0.469400 -109.558677
DOCKED: USER    NEWDPF quat0 -0.496442 0.730212 -0.469400 -109.558677
DOCKED: USER    NEWDPF dihe0 -127.52 62.75 160.26 -126.79 172.11 -122.56 -82.85 -70.43 156.33 19.79 
DOCKED: USER  keepresnum = 1 
DOCKED: USER  
DOCKED: REMARK  10 active torsions:
DOCKED: REMARK  status: ('A' for Active; 'I' for Inactive)
DOCKED: REMARK    1  A    between atoms: C_6  and  C_10 
DOCKED: REMARK    2  A    between atoms: C_10  and  C_11 
DOCKED: REMARK    3  A    between atoms: C_11  and  C_12 
DOCKED: REMARK    4  A    between atoms: C_12  and  O_14 
DOCKED: REMARK    5  A    between atoms: C_17  and  C_20 
DOCKED: REMARK    6  A    between atoms: C_24  and  C_27 
DOCKED: REMARK    7  A    between atoms: C_31  and  C_34 
DOCKED: REMARK    8  A    between atoms: C_34  and  C_35 
DOCKED: REMARK    9  A    between atoms: C_35  and  C_36 
DOCKED: REMARK   10  A    between atoms: C_36  and  O_38 
DOCKED: USER                              x       y       z     vdW  Elec       q    Type
DOCKED: USER                           _______ _______ _______ _____ _____    ______ ____
DOCKED: ROOT
DOCKED: ATOM      1  C   UNL d   1     -11.099   6.903  12.081 -0.25 +0.00    +0.064 C 
DOCKED: ATOM      2  C   UNL d   1     -11.176   2.265  13.788 -0.19 +0.01    +0.064 A 
DOCKED: ATOM      3  C   UNL d   1     -11.696   0.688   9.282 -0.28 -0.01    +0.064 C 
DOCKED: ATOM      4  C   UNL d   1     -11.730   5.173   7.619 -0.24 +0.00    +0.064 C 
DOCKED: ATOM      5  C   UNL d   1     -11.156   5.748  12.988 -0.18 +0.00    +0.066 A 
DOCKED: ATOM      6  C   UNL d   1     -11.149   5.827  14.371 -0.16 -0.00    -0.021 A 
DOCKED: ATOM      7  C   UNL d   1     -11.166   4.539  14.844 -0.14 -0.00    -0.025 A 
DOCKED: ATOM      8  C   UNL d   1     -11.184   3.722  13.730 -0.11 +0.01    +0.066 A 
DOCKED: ATOM      9  C   UNL d   1     -11.184   4.128  16.284 -0.08 +0.00    +0.051 C 
DOCKED: ATOM     10  C   UNL d   1     -11.250   1.454  12.732 -0.23 +0.00    +0.066 A 
DOCKED: ATOM     11  C   UNL d   1     -11.125   0.065  12.811 -0.26 +0.00    -0.021 A 
DOCKED: ATOM     12  C   UNL d   1     -11.254  -0.413  11.522 -0.27 -0.00    +0.000 A 
DOCKED: ATOM     13  C   UNL d   1     -11.446   0.722  10.714 -0.23 -0.01    +0.070 A 
DOCKED: ATOM     14  C   UNL d   1     -10.827  -0.762  14.045 -0.22 +0.01    +0.052 C 
DOCKED: ATOM     15  C   UNL d   1     -11.830   1.779   8.492 -0.25 -0.01    +0.066 A 
DOCKED: ATOM     16  C   UNL d   1     -12.167   1.705   7.146 -0.25 +0.00    -0.021 A 
DOCKED: ATOM     17  C   UNL d   1     -12.174   2.997   6.664 -0.25 -0.00    +0.000 A 
DOCKED: ATOM     18  C   UNL d   1     -11.836   3.831   7.727 -0.26 -0.00    +0.070 A 
DOCKED: ATOM     19  C   UNL d   1     -12.447   0.467   6.337 -0.24 -0.02    +0.052 C 
DOCKED: ATOM     20  C   UNL d   1     -11.437   6.087   8.729 -0.28 -0.00    +0.066 A 
DOCKED: ATOM     21  C   UNL d   1     -11.128   7.449   8.598 -0.32 +0.00    -0.025 A 
DOCKED: ATOM     22  C   UNL d   1     -10.965   7.924   9.882 -0.29 +0.00    -0.021 A 
DOCKED: ATOM     23  C   UNL d   1     -11.173   6.839  10.742 -0.25 +0.00    +0.066 A 
DOCKED: ATOM     24  C   UNL d   1     -10.988   8.266   7.335 -0.21 -0.01    +0.051 C 
DOCKED: ATOM     25  N   UNL d   1     -11.188   4.460  12.603 -0.00 -0.02    -0.248 N 
DOCKED: ATOM     26  N   UNL d   1     -11.435   1.860  11.450 -0.18 +0.02    -0.248 N 
DOCKED: ATOM     27  N   UNL d   1     -11.667   3.087   8.862 -0.16 +0.02    -0.248 N 
DOCKED: ATOM     28  N   UNL d   1     -11.416   5.712  10.031 -0.12 +0.00    -0.248 N 
DOCKED: ATOM     29 FE   UNL d   1     -11.426   3.787  10.739 -0.07 -0.00    +0.000 Fe
DOCKED: ENDROOT
DOCKED: BRANCH   6  30
DOCKED: ATOM     30  C   UNL d   1     -11.147   7.064  15.203 -0.09 +0.00    +0.052 C 
DOCKED: BRANCH  30  31
DOCKED: ATOM     31  C   UNL d   1      -9.845   7.185  15.987 -0.12 +0.00    +0.115 C 
DOCKED: BRANCH  31  32
DOCKED: ATOM     32  C   UNL d   1      -8.881   8.089  15.270 -0.21 +0.00    +0.139 C 
DOCKED: ATOM     33  O   UNL d   1      -7.835   8.433  15.803 -0.04 +0.01    -0.650 OA
DOCKED: BRANCH  32  34
DOCKED: ATOM     34  O   UNL d   1      -9.162   8.529  14.032 -0.02 -0.05    -0.776 OA
DOCKED: ATOM     35  H   UNL d   1     -10.013   8.958  13.868 +0.04 +0.00    +0.167 HD
DOCKED: ENDBRANCH  32  34
DOCKED: ENDBRANCH  31  32
DOCKED: ENDBRANCH  30  31
DOCKED: ENDBRANCH   6  30
DOCKED: BRANCH  22  36
DOCKED: ATOM     36  C   UNL d   1     -10.582   9.332  10.257 -0.22 -0.00    +0.052 C 
DOCKED: BRANCH  36  37
DOCKED: ATOM     37  C   UNL d   1     -11.709   9.977  11.050 -0.09 -0.00    +0.115 C 
DOCKED: BRANCH  37  38
DOCKED: ATOM     38  C   UNL d   1     -11.328  10.137  12.494 -0.08 -0.00    +0.139 C 
DOCKED: ATOM     39  O   UNL d   1     -12.007   9.638  13.379 +0.02 +0.01    -0.650 OA
DOCKED: BRANCH  38  40
DOCKED: ATOM     40  O   UNL d   1     -10.230  10.840  12.825 +0.01 +0.01    -0.776 OA
DOCKED: ATOM     41  H   UNL d   1      -9.503  10.391  13.279 +0.03 +0.00    +0.167 HD
DOCKED: ENDBRANCH  38  40
DOCKED: ENDBRANCH  37  38
DOCKED: ENDBRANCH  36  37
DOCKED: ENDBRANCH  22  36
DOCKED: BRANCH  12  42
DOCKED: ATOM     42  C   UNL d   1     -11.175  -1.854  11.131 -0.24 -0.00    +0.004 C 
DOCKED: ATOM     43  C   UNL d   1     -10.758  -2.216   9.911 -0.27 -0.01    +0.012 C 
DOCKED: ENDBRANCH  12  42
DOCKED: BRANCH  17  44
DOCKED: ATOM     44  C   UNL d   1     -12.503   3.409   5.280 -0.23 -0.00    +0.004 C 
DOCKED: ATOM     45  C   UNL d   1     -11.650   3.180   4.277 -0.19 +0.00    +0.012 C 
DOCKED: ENDBRANCH  17  44
DOCKED: TORSDOF 10
DOCKED: TER
DOCKED: ENDMDL
________________________________________________________________________________


	BEGINNING GENETIC ALGORITHM DOCKING 74 of 100
Run: 74 Seed: 434058230 112476402 [ Run 74 of 100 GA/GALS ]
Beginning LAMARCKIAN GENETIC ALGORITHM (LGA), with a maximum of 25000000 energy evaluations.

Final-Value: -10.826


	FINAL GENETIC ALGORITHM DOCKED STATE
	_______________________________________________


Detailed state:  trans -11.327 4.900 13.050 quatxyzw -0.081374 -0.725319 0.110187 0.674647 center -0.174 -0.001 -0.047 ntor 10 69.9523 55.1715 -179.9040 172.1784 -54.5680 -28.2462 -116.7551 81.6204 160.9227 169.1013
State:	-11.327   4.900  13.050  -0.110 -0.983  0.149 95.146     69.95   55.17 -179.90  172.18  -54.57  -28.25 -116.76   81.62  160.92  169.10

DOCKED: MODEL       74
DOCKED: USER    Run = 74
DOCKED: USER    DPF = D:/Protein_go_brrr/autodock/final/mut_N102T/heme_Fe/dock.dpf
DOCKED: USER  
DOCKED: USER    Estimated Free Energy of Binding    =   -5.43 kcal/mol  [=(1)+(2)+(3)-(4)]
DOCKED: USER    Estimated Inhibition Constant, Ki   =  104.01 uM (micromolar)  [Temperature = 298.15 K]
DOCKED: USER    
DOCKED: USER    (1) Final Intermolecular Energy     =   -8.42 kcal/mol
DOCKED: USER        vdW + Hbond + desolv Energy     =   -7.72 kcal/mol
DOCKED: USER        Electrostatic Energy            =   -0.69 kcal/mol
DOCKED: USER    (2) Final Total Internal Energy     =   -2.41 kcal/mol
DOCKED: USER    (3) Torsional Free Energy           =   +2.98 kcal/mol
DOCKED: USER    (4) Unbound System's Energy  [=(2)] =   -2.41 kcal/mol
DOCKED: USER    
DOCKED: USER    
DOCKED: USER    NEWDPF move heme_Fe_opt.pdbqt
DOCKED: USER    NEWDPF about -0.174000 -0.001000 -0.047000
DOCKED: USER    NEWDPF tran0 -11.327075 4.900384 13.049811
DOCKED: USER    NEWDPF quaternion0 -0.081374 -0.725319 0.110187 0.674647
DOCKED: USER    NEWDPF axisangle0 -0.110242 -0.982631 0.149276 95.146474
DOCKED: USER    NEWDPF quat0 -0.110242 -0.982631 0.149276 95.146474
DOCKED: USER    NEWDPF dihe0 69.95 55.17 -179.90 172.18 -54.57 -28.25 -116.76 81.62 160.92 169.10 
DOCKED: USER  keepresnum = 1 
DOCKED: USER  
DOCKED: REMARK  10 active torsions:
DOCKED: REMARK  status: ('A' for Active; 'I' for Inactive)
DOCKED: REMARK    1  A    between atoms: C_6  and  C_10 
DOCKED: REMARK    2  A    between atoms: C_10  and  C_11 
DOCKED: REMARK    3  A    between atoms: C_11  and  C_12 
DOCKED: REMARK    4  A    between atoms: C_12  and  O_14 
DOCKED: REMARK    5  A    between atoms: C_17  and  C_20 
DOCKED: REMARK    6  A    between atoms: C_24  and  C_27 
DOCKED: REMARK    7  A    between atoms: C_31  and  C_34 
DOCKED: REMARK    8  A    between atoms: C_34  and  C_35 
DOCKED: REMARK    9  A    between atoms: C_35  and  C_36 
DOCKED: REMARK   10  A    between atoms: C_36  and  O_38 
DOCKED: USER                              x       y       z     vdW  Elec       q    Type
DOCKED: USER                           _______ _______ _______ _____ _____    ______ ____
DOCKED: ROOT
DOCKED: ATOM      1  C   UNL d   1     -10.680   4.761  14.992 -0.09 +0.01    +0.064 C 
DOCKED: ATOM      2  C   UNL d   1     -12.033   1.501  11.532 -0.20 -0.01    +0.064 A 
DOCKED: ATOM      3  C   UNL d   1     -11.654   4.961   8.223 -0.30 +0.00    +0.064 C 
DOCKED: ATOM      4  C   UNL d   1     -10.446   8.158  11.571 -0.29 +0.00    +0.064 C 
DOCKED: ATOM      5  C   UNL d   1     -11.177   3.543  14.337 -0.13 +0.01    +0.066 A 
DOCKED: ATOM      6  C   UNL d   1     -11.511   2.371  14.996 -0.12 -0.00    -0.021 A 
DOCKED: ATOM      7  C   UNL d   1     -11.883   1.465  14.034 -0.13 -0.00    -0.025 A 
DOCKED: ATOM      8  C   UNL d   1     -11.762   2.120  12.823 -0.19 +0.00    +0.066 A 
DOCKED: ATOM      9  C   UNL d   1     -12.345   0.061  14.275 -0.07 +0.00    +0.051 C 
DOCKED: ATOM     10  C   UNL d   1     -11.979   2.126  10.354 -0.20 -0.01    +0.066 A 
DOCKED: ATOM     11  C   UNL d   1     -12.132   1.479   9.126 -0.23 +0.00    -0.021 A 
DOCKED: ATOM     12  C   UNL d   1     -12.010   2.453   8.154 -0.27 -0.00    +0.000 A 
DOCKED: ATOM     13  C   UNL d   1     -11.779   3.654   8.847 -0.14 -0.00    +0.070 A 
DOCKED: ATOM     14  C   UNL d   1     -12.316  -0.005   8.886 -0.21 -0.01    +0.052 C 
DOCKED: ATOM     15  C   UNL d   1     -11.380   6.112   8.881 -0.29 -0.00    +0.066 A 
DOCKED: ATOM     16  C   UNL d   1     -11.368   7.356   8.261 -0.28 +0.00    -0.021 A 
DOCKED: ATOM     17  C   UNL d   1     -11.016   8.279   9.225 -0.28 -0.00    +0.000 A 
DOCKED: ATOM     18  C   UNL d   1     -10.818   7.575  10.410 -0.29 -0.00    +0.070 A 
DOCKED: ATOM     19  C   UNL d   1     -11.650   7.664   6.816 -0.25 -0.00    +0.052 C 
DOCKED: ATOM     20  C   UNL d   1     -10.288   7.458  12.851 -0.29 +0.01    +0.066 A 
DOCKED: ATOM     21  C   UNL d   1      -9.714   8.006  14.008 -0.27 -0.00    -0.025 A 
DOCKED: ATOM     22  C   UNL d   1      -9.803   7.025  14.974 -0.21 -0.00    -0.021 A 
DOCKED: ATOM     23  C   UNL d   1     -10.418   5.921  14.371 -0.12 +0.01    +0.066 A 
DOCKED: ATOM     24  C   UNL d   1      -9.108   9.376  14.202 -0.15 +0.00    +0.051 C 
DOCKED: ATOM     25  N   UNL d   1     -11.341   3.386  13.012 -0.12 -0.02    -0.248 N 
DOCKED: ATOM     26  N   UNL d   1     -11.751   3.454  10.188 -0.05 +0.03    -0.248 N 
DOCKED: ATOM     27  N   UNL d   1     -11.084   6.249  10.210 -0.16 -0.00    -0.248 N 
DOCKED: ATOM     28  N   UNL d   1     -10.670   6.176  13.064 -0.17 -0.02    -0.248 N 
DOCKED: ATOM     29 FE   UNL d   1     -11.210   4.817  11.626 -0.07 +0.00    +0.000 Fe
DOCKED: ENDROOT
DOCKED: BRANCH   6  30
DOCKED: ATOM     30  C   UNL d   1     -11.499   2.128  16.466 -0.07 +0.01    +0.052 C 
DOCKED: BRANCH  30  31
DOCKED: ATOM     31  C   UNL d   1     -10.369   1.178  16.848 -0.11 +0.04    +0.115 C 
DOCKED: BRANCH  31  32
DOCKED: ATOM     32  C   UNL d   1      -9.034   1.792  16.527 -0.15 +0.07    +0.139 C 
DOCKED: ATOM     33  O   UNL d   1      -8.789   2.196  15.399 -0.03 -0.32    -0.650 OA
DOCKED: BRANCH  32  34
DOCKED: ATOM     34  O   UNL d   1      -8.095   1.902  17.482 -0.26 -0.41    -0.776 OA
DOCKED: ATOM     35  H   UNL d   1      -7.870   2.780  17.819 +0.05 +0.04    +0.167 HD
DOCKED: ENDBRANCH  32  34
DOCKED: ENDBRANCH  31  32
DOCKED: ENDBRANCH  30  31
DOCKED: ENDBRANCH   6  30
DOCKED: BRANCH  22  36
DOCKED: ATOM     36  C   UNL d   1      -9.280   7.128  16.382 -0.14 +0.00    +0.052 C 
DOCKED: BRANCH  36  37
DOCKED: ATOM     37  C   UNL d   1      -7.877   6.543  16.454 -0.21 +0.00    +0.115 C 
DOCKED: BRANCH  37  38
DOCKED: ATOM     38  C   UNL d   1      -7.905   5.139  16.987 -0.18 +0.01    +0.139 C 
DOCKED: ATOM     39  O   UNL d   1      -8.787   4.778  17.752 +0.03 -0.04    -0.650 OA
DOCKED: BRANCH  38  40
DOCKED: ATOM     40  O   UNL d   1      -6.949   4.264  16.625 +0.03 -0.12    -0.776 OA
DOCKED: ATOM     41  H   UNL d   1      -7.210   3.419  16.233 +0.02 +0.05    +0.167 HD
DOCKED: ENDBRANCH  38  40
DOCKED: ENDBRANCH  37  38
DOCKED: ENDBRANCH  36  37
DOCKED: ENDBRANCH  22  36
DOCKED: BRANCH  12  42
DOCKED: ATOM     42  C   UNL d   1     -12.096   2.208   6.681 -0.31 -0.00    +0.004 C 
DOCKED: ATOM     43  C   UNL d   1     -11.180   2.712   5.844 -0.35 -0.00    +0.012 C 
DOCKED: ENDBRANCH  12  42
DOCKED: BRANCH  17  44
DOCKED: ATOM     44  C   UNL d   1     -10.898   9.741   9.028 -0.25 -0.00    +0.004 C 
DOCKED: ATOM     45  C   UNL d   1      -9.843  10.413   9.501 -0.23 -0.00    +0.012 C 
DOCKED: ENDBRANCH  17  44
DOCKED: TORSDOF 10
DOCKED: TER
DOCKED: ENDMDL
________________________________________________________________________________


	BEGINNING GENETIC ALGORITHM DOCKING 75 of 100
Run: 75 Seed: 912783600 1389474539 [ Run 75 of 100 GA/GALS ]
Beginning LAMARCKIAN GENETIC ALGORITHM (LGA), with a maximum of 25000000 energy evaluations.

Final-Value: -11.456


	FINAL GENETIC ALGORITHM DOCKED STATE
	_______________________________________________


Detailed state:  trans 7.425 -6.308 15.735 quatxyzw -0.422682 -0.797482 0.385149 -0.192412 center -0.174 -0.001 -0.047 ntor 10 -95.6833 -143.8600 59.0920 28.8479 -75.0355 65.8499 42.3483 12.6678 -41.4348 -0.0477
State:	  7.425  -6.308  15.735  -0.431 -0.813  0.392 -157.813    -95.68 -143.86   59.09   28.85  -75.04   65.85   42.35   12.67  -41.43   -0.05

DOCKED: MODEL       75
DOCKED: USER    Run = 75
DOCKED: USER    DPF = D:/Protein_go_brrr/autodock/final/mut_N102T/heme_Fe/dock.dpf
DOCKED: USER  
DOCKED: USER    Estimated Free Energy of Binding    =   -6.86 kcal/mol  [=(1)+(2)+(3)-(4)]
DOCKED: USER    Estimated Inhibition Constant, Ki   =    9.29 uM (micromolar)  [Temperature = 298.15 K]
DOCKED: USER    
DOCKED: USER    (1) Final Intermolecular Energy     =   -9.85 kcal/mol
DOCKED: USER        vdW + Hbond + desolv Energy     =   -7.93 kcal/mol
DOCKED: USER        Electrostatic Energy            =   -1.92 kcal/mol
DOCKED: USER    (2) Final Total Internal Energy     =   -1.61 kcal/mol
DOCKED: USER    (3) Torsional Free Energy           =   +2.98 kcal/mol
DOCKED: USER    (4) Unbound System's Energy  [=(2)] =   -1.61 kcal/mol
DOCKED: USER    
DOCKED: USER    
DOCKED: USER    NEWDPF move heme_Fe_opt.pdbqt
DOCKED: USER    NEWDPF about -0.174000 -0.001000 -0.047000
DOCKED: USER    NEWDPF tran0 7.425411 -6.307992 15.735273
DOCKED: USER    NEWDPF quaternion0 -0.422682 -0.797482 0.385149 -0.192412
DOCKED: USER    NEWDPF axisangle0 -0.430730 -0.812668 0.392483 -157.812803
DOCKED: USER    NEWDPF quat0 -0.430730 -0.812668 0.392483 -157.812803
DOCKED: USER    NEWDPF dihe0 -95.68 -143.86 59.09 28.85 -75.04 65.85 42.35 12.67 -41.43 -0.05 
DOCKED: USER  keepresnum = 1 
DOCKED: USER  
DOCKED: REMARK  10 active torsions:
DOCKED: REMARK  status: ('A' for Active; 'I' for Inactive)
DOCKED: REMARK    1  A    between atoms: C_6  and  C_10 
DOCKED: REMARK    2  A    between atoms: C_10  and  C_11 
DOCKED: REMARK    3  A    between atoms: C_11  and  C_12 
DOCKED: REMARK    4  A    between atoms: C_12  and  O_14 
DOCKED: REMARK    5  A    between atoms: C_17  and  C_20 
DOCKED: REMARK    6  A    between atoms: C_24  and  C_27 
DOCKED: REMARK    7  A    between atoms: C_31  and  C_34 
DOCKED: REMARK    8  A    between atoms: C_34  and  C_35 
DOCKED: REMARK    9  A    between atoms: C_35  and  C_36 
DOCKED: REMARK   10  A    between atoms: C_36  and  O_38 
DOCKED: USER                              x       y       z     vdW  Elec       q    Type
DOCKED: USER                           _______ _______ _______ _____ _____    ______ ____
DOCKED: ROOT
DOCKED: ATOM      1  C   UNL d   1       8.184  -8.198  15.483 -0.27 +0.02    +0.064 C 
DOCKED: ATOM      2  C   UNL d   1       4.482  -6.257  18.121 -0.18 -0.01    +0.064 A 
DOCKED: ATOM      3  C   UNL d   1       4.798  -2.252  15.489 -0.25 -0.01    +0.064 C 
DOCKED: ATOM      4  C   UNL d   1       8.452  -4.071  12.994 -0.14 +0.02    +0.064 C 
DOCKED: ATOM      5  C   UNL d   1       7.168  -7.991  16.525 -0.26 +0.01    +0.066 A 
DOCKED: ATOM      6  C   UNL d   1       6.880  -8.891  17.537 -0.23 -0.00    -0.021 A 
DOCKED: ATOM      7  C   UNL d   1       5.849  -8.354  18.267 -0.21 +0.00    -0.025 A 
DOCKED: ATOM      8  C   UNL d   1       5.548  -7.144  17.671 -0.20 -0.01    +0.066 A 
DOCKED: ATOM      9  C   UNL d   1       5.210  -8.965  19.476 -0.17 -0.00    +0.051 C 
DOCKED: ATOM     10  C   UNL d   1       4.208  -5.060  17.600 -0.19 -0.01    +0.066 A 
DOCKED: ATOM     11  C   UNL d   1       3.109  -4.284  17.976 -0.17 +0.00    -0.021 A 
DOCKED: ATOM     12  C   UNL d   1       3.168  -3.131  17.219 -0.23 -0.00    +0.000 A 
DOCKED: ATOM     13  C   UNL d   1       4.307  -3.268  16.407 -0.20 -0.01    +0.070 A 
DOCKED: ATOM     14  C   UNL d   1       2.017  -4.653  18.959 -0.14 -0.01    +0.052 C 
DOCKED: ATOM     15  C   UNL d   1       5.864  -2.400  14.667 -0.20 -0.00    +0.066 A 
DOCKED: ATOM     16  C   UNL d   1       6.361  -1.371  13.878 -0.29 +0.00    -0.021 A 
DOCKED: ATOM     17  C   UNL d   1       7.413  -1.894  13.155 -0.21 +0.00    +0.000 A 
DOCKED: ATOM     18  C   UNL d   1       7.530  -3.234  13.517 -0.13 +0.01    +0.070 A 
DOCKED: ATOM     19  C   UNL d   1       5.854   0.043  13.786 -0.49 -0.01    +0.052 C 
DOCKED: ATOM     20  C   UNL d   1       8.645  -5.469  13.396 -0.14 +0.02    +0.066 A 
DOCKED: ATOM     21  C   UNL d   1       9.454  -6.400  12.729 -0.17 -0.01    -0.025 A 
DOCKED: ATOM     22  C   UNL d   1       9.373  -7.565  13.463 -0.18 -0.01    -0.021 A 
DOCKED: ATOM     23  C   UNL d   1       8.517  -7.304  14.539 -0.20 +0.02    +0.066 A 
DOCKED: ATOM     24  C   UNL d   1      10.262  -6.213  11.466 -0.16 +0.03    +0.051 C 
DOCKED: ATOM     25  N   UNL d   1       6.359  -6.922  16.617 -0.10 -0.00    -0.248 N 
DOCKED: ATOM     26  N   UNL d   1       4.936  -4.447  16.632 -0.07 +0.02    -0.248 N 
DOCKED: ATOM     27  N   UNL d   1       6.606  -3.535  14.479 -0.02 -0.01    -0.248 N 
DOCKED: ATOM     28  N   UNL d   1       8.040  -6.037  14.468 -0.05 -0.04    -0.248 N 
DOCKED: ATOM     29 FE   UNL d   1       6.489  -5.241  15.548 -0.02 +0.00    +0.000 Fe
DOCKED: ENDROOT
DOCKED: BRANCH   6  30
DOCKED: ATOM     30  C   UNL d   1       7.561 -10.188  17.813 -0.17 +0.02    +0.052 C 
DOCKED: BRANCH  30  31
DOCKED: ATOM     31  C   UNL d   1       9.076 -10.015  17.802 -0.12 +0.05    +0.115 C 
DOCKED: BRANCH  31  32
DOCKED: ATOM     32  C   UNL d   1       9.731 -11.157  17.076 -0.07 +0.14    +0.139 C 
DOCKED: ATOM     33  O   UNL d   1       9.826 -12.257  17.602 -0.37 -0.73    -0.650 OA
DOCKED: BRANCH  32  34
DOCKED: ATOM     34  O   UNL d   1      10.221 -10.978  15.838 -0.37 -1.13    -0.776 OA
DOCKED: ATOM     35  H   UNL d   1      11.112 -10.615  15.734 +0.01 +0.14    +0.167 HD
DOCKED: ENDBRANCH  32  34
DOCKED: ENDBRANCH  31  32
DOCKED: ENDBRANCH  30  31
DOCKED: ENDBRANCH   6  30
DOCKED: BRANCH  22  36
DOCKED: ATOM     36  C   UNL d   1      10.043  -8.870  13.119 -0.08 +0.02    +0.052 C 
DOCKED: BRANCH  36  37
DOCKED: ATOM     37  C   UNL d   1      11.345  -8.998  13.894 -0.08 +0.05    +0.115 C 
DOCKED: BRANCH  37  38
DOCKED: ATOM     38  C   UNL d   1      12.175 -10.136  13.370 -0.05 +0.06    +0.139 C 
DOCKED: ATOM     39  O   UNL d   1      12.642 -10.101  12.241 +0.02 -0.23    -0.650 OA
DOCKED: BRANCH  38  40
DOCKED: ATOM     40  O   UNL d   1      12.406 -11.211  14.145 +0.01 -0.48    -0.776 OA
DOCKED: ATOM     41  H   UNL d   1      11.710 -11.519  14.741 +0.01 +0.18    +0.167 HD
DOCKED: ENDBRANCH  38  40
DOCKED: ENDBRANCH  37  38
DOCKED: ENDBRANCH  36  37
DOCKED: ENDBRANCH  22  36
DOCKED: BRANCH  12  42
DOCKED: ATOM     42  C   UNL d   1       2.177  -2.012  17.285 -0.39 -0.00    +0.004 C 
DOCKED: ATOM     43  C   UNL d   1       2.491  -0.846  17.865 -0.46 -0.01    +0.012 C 
DOCKED: ENDBRANCH  12  42
DOCKED: BRANCH  17  44
DOCKED: ATOM     44  C   UNL d   1       8.264  -1.155  12.195 -0.30 +0.00    +0.004 C 
DOCKED: ATOM     45  C   UNL d   1       9.296  -0.418  12.620 -0.27 +0.00    +0.012 C 
DOCKED: ENDBRANCH  17  44
DOCKED: TORSDOF 10
DOCKED: TER
DOCKED: ENDMDL
________________________________________________________________________________


	BEGINNING GENETIC ALGORITHM DOCKING 76 of 100
Run: 76 Seed: 1662859380 1279457674 [ Run 76 of 100 GA/GALS ]
Beginning LAMARCKIAN GENETIC ALGORITHM (LGA), with a maximum of 25000000 energy evaluations.

Final-Value: -11.268


	FINAL GENETIC ALGORITHM DOCKED STATE
	_______________________________________________


Detailed state:  trans -8.170 -13.552 -8.317 quatxyzw 0.078486 0.802852 -0.090138 -0.584076 center -0.174 -0.001 -0.047 ntor 10 -54.7101 -179.9332 -164.0962 60.6579 107.3617 100.5929 91.3335 51.5004 -145.6572 179.4524
State:	 -8.170 -13.552  -8.317   0.097  0.989 -0.111 -108.525    -54.71 -179.93 -164.10   60.66  107.36  100.59   91.33   51.50 -145.66  179.45

DOCKED: MODEL       76
DOCKED: USER    Run = 76
DOCKED: USER    DPF = D:/Protein_go_brrr/autodock/final/mut_N102T/heme_Fe/dock.dpf
DOCKED: USER  
DOCKED: USER    Estimated Free Energy of Binding    =   -7.81 kcal/mol  [=(1)+(2)+(3)-(4)]
DOCKED: USER    Estimated Inhibition Constant, Ki   =    1.88 uM (micromolar)  [Temperature = 298.15 K]
DOCKED: USER    
DOCKED: USER    (1) Final Intermolecular Energy     =  -10.80 kcal/mol
DOCKED: USER        vdW + Hbond + desolv Energy     =   -7.07 kcal/mol
DOCKED: USER        Electrostatic Energy            =   -3.73 kcal/mol
DOCKED: USER    (2) Final Total Internal Energy     =   -0.47 kcal/mol
DOCKED: USER    (3) Torsional Free Energy           =   +2.98 kcal/mol
DOCKED: USER    (4) Unbound System's Energy  [=(2)] =   -0.47 kcal/mol
DOCKED: USER    
DOCKED: USER    
DOCKED: USER    NEWDPF move heme_Fe_opt.pdbqt
DOCKED: USER    NEWDPF about -0.174000 -0.001000 -0.047000
DOCKED: USER    NEWDPF tran0 -8.169734 -13.552405 -8.316999
DOCKED: USER    NEWDPF quaternion0 0.078486 0.802852 -0.090138 -0.584076
DOCKED: USER    NEWDPF axisangle0 0.096693 0.989100 -0.111049 -108.524573
DOCKED: USER    NEWDPF quat0 0.096693 0.989100 -0.111049 -108.524573
DOCKED: USER    NEWDPF dihe0 -54.71 -179.93 -164.10 60.66 107.36 100.59 91.33 51.50 -145.66 179.45 
DOCKED: USER  keepresnum = 1 
DOCKED: USER  
DOCKED: REMARK  10 active torsions:
DOCKED: REMARK  status: ('A' for Active; 'I' for Inactive)
DOCKED: REMARK    1  A    between atoms: C_6  and  C_10 
DOCKED: REMARK    2  A    between atoms: C_10  and  C_11 
DOCKED: REMARK    3  A    between atoms: C_11  and  C_12 
DOCKED: REMARK    4  A    between atoms: C_12  and  O_14 
DOCKED: REMARK    5  A    between atoms: C_17  and  C_20 
DOCKED: REMARK    6  A    between atoms: C_24  and  C_27 
DOCKED: REMARK    7  A    between atoms: C_31  and  C_34 
DOCKED: REMARK    8  A    between atoms: C_34  and  C_35 
DOCKED: REMARK    9  A    between atoms: C_35  and  C_36 
DOCKED: REMARK   10  A    between atoms: C_36  and  O_38 
DOCKED: USER                              x       y       z     vdW  Elec       q    Type
DOCKED: USER                           _______ _______ _______ _____ _____    ______ ____
DOCKED: ROOT
DOCKED: ATOM      1  C   UNL d   1      -7.087 -13.777  -6.588 -0.14 +0.07    +0.064 C 
DOCKED: ATOM      2  C   UNL d   1      -9.151 -16.885  -9.830 -0.07 +0.02    +0.064 A 
DOCKED: ATOM      3  C   UNL d   1      -9.611 -13.242 -12.926 -0.08 +0.01    +0.064 C 
DOCKED: ATOM      4  C   UNL d   1      -7.712 -10.195  -9.764 -0.28 +0.02    +0.064 C 
DOCKED: ATOM      5  C   UNL d   1      -7.701 -14.972  -7.182 -0.12 +0.07    +0.066 A 
DOCKED: ATOM      6  C   UNL d   1      -7.853 -16.187  -6.535 -0.07 -0.02    -0.021 A 
DOCKED: ATOM      7  C   UNL d   1      -8.423 -17.051  -7.437 -0.04 -0.01    -0.025 A 
DOCKED: ATOM      8  C   UNL d   1      -8.598 -16.329  -8.602 -0.08 +0.03    +0.066 A 
DOCKED: ATOM      9  C   UNL d   1      -8.792 -18.480  -7.179 -0.01 +0.02    +0.051 C 
DOCKED: ATOM     10  C   UNL d   1      -9.383 -16.196 -10.949 -0.09 +0.02    +0.066 A 
DOCKED: ATOM     11  C   UNL d   1      -9.806 -16.780 -12.145 -0.09 -0.00    -0.021 A 
DOCKED: ATOM     12  C   UNL d   1      -9.930 -15.753 -13.059 -0.11 +0.00    +0.000 A 
DOCKED: ATOM     13  C   UNL d   1      -9.564 -14.584 -12.368 +0.02 +0.01    +0.070 A 
DOCKED: ATOM     14  C   UNL d   1     -10.015 -18.255 -12.424 -0.04 +0.01    +0.052 C 
DOCKED: ATOM     15  C   UNL d   1      -9.211 -12.120 -12.282 -0.12 +0.01    +0.066 A 
DOCKED: ATOM     16  C   UNL d   1      -9.364 -10.845 -12.812 -0.16 -0.01    -0.021 A 
DOCKED: ATOM     17  C   UNL d   1      -8.814  -9.965 -11.903 -0.22 +0.00    +0.000 A 
DOCKED: ATOM     18  C   UNL d   1      -8.333 -10.726 -10.840 -0.21 +0.02    +0.070 A 
DOCKED: ATOM     19  C   UNL d   1      -9.980 -10.468 -14.132 -0.11 +0.01    +0.052 C 
DOCKED: ATOM     20  C   UNL d   1      -7.249 -10.957  -8.598 -0.23 +0.02    +0.066 A 
DOCKED: ATOM     21  C   UNL d   1      -6.431 -10.456  -7.575 -0.36 -0.01    -0.025 A 
DOCKED: ATOM     22  C   UNL d   1      -6.276 -11.489  -6.675 -0.34 -0.01    -0.021 A 
DOCKED: ATOM     23  C   UNL d   1      -6.996 -12.577  -7.184 -0.12 +0.05    +0.066 A 
DOCKED: ATOM     24  C   UNL d   1      -5.820  -9.080  -7.445 -0.44 +0.01    +0.051 C 
DOCKED: ATOM     25  N   UNL d   1      -8.166 -15.062  -8.440 -0.11 -0.16    -0.248 N 
DOCKED: ATOM     26  N   UNL d   1      -9.222 -14.855 -11.084 -0.06 -0.06    -0.248 N 
DOCKED: ATOM     27  N   UNL d   1      -8.616 -12.046 -11.051 -0.13 -0.06    -0.248 N 
DOCKED: ATOM     28  N   UNL d   1      -7.550 -12.260  -8.380 -0.10 -0.10    -0.248 N 
DOCKED: ATOM     29 FE   UNL d   1      -8.386 -13.556  -9.732 -0.04 +0.00    +0.000 Fe
DOCKED: ENDROOT
DOCKED: BRANCH   6  30
DOCKED: ATOM     30  C   UNL d   1      -7.496 -16.508  -5.124 -0.07 +0.05    +0.052 C 
DOCKED: BRANCH  30  31
DOCKED: ATOM     31  C   UNL d   1      -6.025 -16.208  -4.858 -0.14 +0.18    +0.115 C 
DOCKED: BRANCH  31  32
DOCKED: ATOM     32  C   UNL d   1      -5.176 -17.405  -5.182 -0.13 +0.24    +0.139 C 
DOCKED: ATOM     33  O   UNL d   1      -4.464 -17.414  -6.177 -0.48 -1.42    -0.650 OA
DOCKED: BRANCH  32  34
DOCKED: ATOM     34  O   UNL d   1      -5.192 -18.482  -4.377 -0.07 -1.40    -0.776 OA
DOCKED: ATOM     35  H   UNL d   1      -5.394 -19.348  -4.757 +0.02 +0.20    +0.167 HD
DOCKED: ENDBRANCH  32  34
DOCKED: ENDBRANCH  31  32
DOCKED: ENDBRANCH  30  31
DOCKED: ENDBRANCH   6  30
DOCKED: BRANCH  22  36
DOCKED: ATOM     36  C   UNL d   1      -5.443 -11.446  -5.421 -0.36 +0.04    +0.052 C 
DOCKED: BRANCH  36  37
DOCKED: ATOM     37  C   UNL d   1      -3.990 -11.745  -5.760 -0.29 +0.12    +0.115 C 
DOCKED: BRANCH  37  38
DOCKED: ATOM     38  C   UNL d   1      -3.438 -12.820  -4.867 -0.45 +0.16    +0.139 C 
DOCKED: ATOM     39  O   UNL d   1      -3.345 -13.973  -5.260 -0.06 -1.41    -0.650 OA
DOCKED: BRANCH  38  40
DOCKED: ATOM     40  O   UNL d   1      -3.044 -12.517  -3.617 +0.03 -0.47    -0.776 OA
DOCKED: ATOM     41  H   UNL d   1      -3.119 -11.603  -3.309 -0.48 +0.03    +0.167 HD
DOCKED: ENDBRANCH  38  40
DOCKED: ENDBRANCH  37  38
DOCKED: ENDBRANCH  36  37
DOCKED: ENDBRANCH  22  36
DOCKED: BRANCH  12  42
DOCKED: ATOM     42  C   UNL d   1     -10.351 -15.921 -14.484 -0.08 +0.00    +0.004 C 
DOCKED: ATOM     43  C   UNL d   1      -9.517 -15.624 -15.489 -0.11 +0.00    +0.012 C 
DOCKED: ENDBRANCH  12  42
DOCKED: BRANCH  17  44
DOCKED: ATOM     44  C   UNL d   1      -8.770  -8.491 -12.034 -0.24 +0.00    +0.004 C 
DOCKED: ATOM     45  C   UNL d   1      -9.447  -7.708 -11.188 -0.19 +0.00    +0.012 C 
DOCKED: ENDBRANCH  17  44
DOCKED: TORSDOF 10
DOCKED: TER
DOCKED: ENDMDL
________________________________________________________________________________


	BEGINNING GENETIC ALGORITHM DOCKING 77 of 100
Run: 77 Seed: 1398712954 273128156 [ Run 77 of 100 GA/GALS ]
Beginning LAMARCKIAN GENETIC ALGORITHM (LGA), with a maximum of 25000000 energy evaluations.

Final-Value: -9.661


	FINAL GENETIC ALGORITHM DOCKED STATE
	_______________________________________________


Detailed state:  trans -10.912 3.996 12.378 quatxyzw -0.633612 0.007476 0.744046 -0.211841 center -0.174 -0.001 -0.047 ntor 10 -180.0000 141.8518 176.3285 -152.4936 -35.3367 124.6081 85.5867 71.5543 -0.6000 5.7447
State:	-10.912   3.996  12.378  -0.648  0.008  0.761 -155.540   -180.00  141.85  176.33 -152.49  -35.34  124.61   85.59   71.55   -0.60    5.74

DOCKED: MODEL       77
DOCKED: USER    Run = 77
DOCKED: USER    DPF = D:/Protein_go_brrr/autodock/final/mut_N102T/heme_Fe/dock.dpf
DOCKED: USER  
DOCKED: USER    Estimated Free Energy of Binding    =   -5.98 kcal/mol  [=(1)+(2)+(3)-(4)]
DOCKED: USER    Estimated Inhibition Constant, Ki   =   41.42 uM (micromolar)  [Temperature = 298.15 K]
DOCKED: USER    
DOCKED: USER    (1) Final Intermolecular Energy     =   -8.96 kcal/mol
DOCKED: USER        vdW + Hbond + desolv Energy     =   -8.07 kcal/mol
DOCKED: USER        Electrostatic Energy            =   -0.89 kcal/mol
DOCKED: USER    (2) Final Total Internal Energy     =   -0.70 kcal/mol
DOCKED: USER    (3) Torsional Free Energy           =   +2.98 kcal/mol
DOCKED: USER    (4) Unbound System's Energy  [=(2)] =   -0.70 kcal/mol
DOCKED: USER    
DOCKED: USER    
DOCKED: USER    NEWDPF move heme_Fe_opt.pdbqt
DOCKED: USER    NEWDPF about -0.174000 -0.001000 -0.047000
DOCKED: USER    NEWDPF tran0 -10.912417 3.995827 12.378192
DOCKED: USER    NEWDPF quaternion0 -0.633612 0.007476 0.744046 -0.211841
DOCKED: USER    NEWDPF axisangle0 -0.648326 0.007650 0.761324 -155.539503
DOCKED: USER    NEWDPF quat0 -0.648326 0.007650 0.761324 -155.539503
DOCKED: USER    NEWDPF dihe0 -180.00 141.85 176.33 -152.49 -35.34 124.61 85.59 71.55 -0.60 5.74 
DOCKED: USER  keepresnum = 1 
DOCKED: USER  
DOCKED: REMARK  10 active torsions:
DOCKED: REMARK  status: ('A' for Active; 'I' for Inactive)
DOCKED: REMARK    1  A    between atoms: C_6  and  C_10 
DOCKED: REMARK    2  A    between atoms: C_10  and  C_11 
DOCKED: REMARK    3  A    between atoms: C_11  and  C_12 
DOCKED: REMARK    4  A    between atoms: C_12  and  O_14 
DOCKED: REMARK    5  A    between atoms: C_17  and  C_20 
DOCKED: REMARK    6  A    between atoms: C_24  and  C_27 
DOCKED: REMARK    7  A    between atoms: C_31  and  C_34 
DOCKED: REMARK    8  A    between atoms: C_34  and  C_35 
DOCKED: REMARK    9  A    between atoms: C_35  and  C_36 
DOCKED: REMARK   10  A    between atoms: C_36  and  O_38 
DOCKED: USER                              x       y       z     vdW  Elec       q    Type
DOCKED: USER                           _______ _______ _______ _____ _____    ______ ____
DOCKED: ROOT
DOCKED: ATOM      1  C   UNL d   1     -11.181   3.593  14.372 -0.16 +0.01    +0.064 C 
DOCKED: ATOM      2  C   UNL d   1     -10.311   7.681  11.735 -0.32 +0.00    +0.064 A 
DOCKED: ATOM      3  C   UNL d   1     -11.486   5.276   7.747 -0.17 +0.00    +0.064 C 
DOCKED: ATOM      4  C   UNL d   1     -12.232   1.279  10.268 -0.22 -0.01    +0.064 C 
DOCKED: ATOM      5  C   UNL d   1     -10.746   4.943  13.990 +0.08 +0.01    +0.066 A 
DOCKED: ATOM      6  C   UNL d   1     -10.231   5.886  14.865 -0.15 -0.00    -0.021 A 
DOCKED: ATOM      7  C   UNL d   1      -9.993   7.022  14.133 -0.25 -0.00    -0.025 A 
DOCKED: ATOM      8  C   UNL d   1     -10.372   6.729  12.837 -0.28 +0.01    +0.066 A 
DOCKED: ATOM      9  C   UNL d   1      -9.417   8.303  14.652 -0.24 +0.00    +0.051 C 
DOCKED: ATOM     10  C   UNL d   1     -10.616   7.407  10.465 -0.33 +0.00    +0.066 A 
DOCKED: ATOM     11  C   UNL d   1     -10.656   8.369   9.453 -0.31 +0.00    -0.021 A 
DOCKED: ATOM     12  C   UNL d   1     -11.010   7.704   8.296 -0.33 -0.00    +0.000 A 
DOCKED: ATOM     13  C   UNL d   1     -11.176   6.358   8.668 -0.31 -0.00    +0.070 A 
DOCKED: ATOM     14  C   UNL d   1     -10.437   9.862   9.595 -0.25 -0.01    +0.052 C 
DOCKED: ATOM     15  C   UNL d   1     -11.698   3.988   8.108 -0.26 +0.00    +0.066 A 
DOCKED: ATOM     16  C   UNL d   1     -11.894   2.965   7.188 -0.29 +0.00    -0.021 A 
DOCKED: ATOM     17  C   UNL d   1     -12.113   1.812   7.913 -0.26 -0.00    +0.000 A 
DOCKED: ATOM     18  C   UNL d   1     -12.049   2.160   9.261 -0.22 -0.01    +0.070 A 
DOCKED: ATOM     19  C   UNL d   1     -11.901   3.069   5.687 -0.29 -0.00    +0.052 C 
DOCKED: ATOM     20  C   UNL d   1     -12.112   1.596  11.696 -0.19 -0.00    +0.066 A 
DOCKED: ATOM     21  C   UNL d   1     -12.492   0.751  12.748 -0.10 +0.00    -0.025 A 
DOCKED: ATOM     22  C   UNL d   1     -12.172   1.425  13.909 -0.10 -0.00    -0.021 A 
DOCKED: ATOM     23  C   UNL d   1     -11.618   2.651  13.521 -0.17 +0.00    +0.066 A 
DOCKED: ATOM     24  C   UNL d   1     -13.127  -0.618  12.676 -0.05 -0.01    +0.051 C 
DOCKED: ATOM     25  N   UNL d   1     -10.821   5.461  12.751 -0.05 -0.03    -0.248 N 
DOCKED: ATOM     26  N   UNL d   1     -10.944   6.179   9.991 -0.15 -0.00    -0.248 N 
DOCKED: ATOM     27  N   UNL d   1     -11.751   3.489   9.381 -0.11 +0.02    -0.248 N 
DOCKED: ATOM     28  N   UNL d   1     -11.625   2.768  12.171 -0.16 +0.00    -0.248 N 
DOCKED: ATOM     29 FE   UNL d   1     -11.285   4.472  11.081 -0.07 -0.00    +0.000 Fe
DOCKED: ENDROOT
DOCKED: BRANCH   6  30
DOCKED: ATOM     30  C   UNL d   1      -9.958   5.711  16.320 -0.13 +0.00    +0.052 C 
DOCKED: BRANCH  30  31
DOCKED: ATOM     31  C   UNL d   1      -8.549   5.173  16.544 -0.16 +0.01    +0.115 C 
DOCKED: BRANCH  31  32
DOCKED: ATOM     32  C   UNL d   1      -8.571   3.674  16.662 -0.20 +0.03    +0.139 C 
DOCKED: ATOM     33  O   UNL d   1      -9.508   3.105  17.205 +0.02 -0.12    -0.650 OA
DOCKED: BRANCH  32  34
DOCKED: ATOM     34  O   UNL d   1      -7.556   2.943  16.170 -0.01 -0.30    -0.776 OA
DOCKED: ATOM     35  H   UNL d   1      -6.816   3.396  15.742 -0.29 +0.05    +0.167 HD
DOCKED: ENDBRANCH  32  34
DOCKED: ENDBRANCH  31  32
DOCKED: ENDBRANCH  30  31
DOCKED: ENDBRANCH   6  30
DOCKED: BRANCH  22  36
DOCKED: ATOM     36  C   UNL d   1     -12.430   0.936  15.310 -0.05 +0.00    +0.052 C 
DOCKED: BRANCH  36  37
DOCKED: ATOM     37  C   UNL d   1     -11.136   0.418  15.919 -0.10 +0.03    +0.115 C 
DOCKED: BRANCH  37  38
DOCKED: ATOM     38  C   UNL d   1     -11.166  -1.078  16.056 -0.07 +0.05    +0.139 C 
DOCKED: ATOM     39  O   UNL d   1     -10.290  -1.769  15.556 -0.52 -0.55    -0.650 OA
DOCKED: BRANCH  38  40
DOCKED: ATOM     40  O   UNL d   1     -12.167  -1.670  16.731 +0.02 -0.10    -0.776 OA
DOCKED: ATOM     41  H   UNL d   1     -12.506  -1.249  17.533 +0.01 +0.01    +0.167 HD
DOCKED: ENDBRANCH  38  40
DOCKED: ENDBRANCH  37  38
DOCKED: ENDBRANCH  36  37
DOCKED: ENDBRANCH  22  36
DOCKED: BRANCH  12  42
DOCKED: ATOM     42  C   UNL d   1     -11.184   8.348   6.958 -0.31 -0.00    +0.004 C 
DOCKED: ATOM     43  C   UNL d   1     -12.227   8.042   6.176 -0.20 -0.00    +0.012 C 
DOCKED: ENDBRANCH  12  42
DOCKED: BRANCH  17  44
DOCKED: ATOM     44  C   UNL d   1     -12.347   0.462   7.353 -0.26 -0.00    +0.004 C 
DOCKED: ATOM     45  C   UNL d   1     -13.586  -0.026   7.238 -0.13 -0.00    +0.012 C 
DOCKED: ENDBRANCH  17  44
DOCKED: TORSDOF 10
DOCKED: TER
DOCKED: ENDMDL
________________________________________________________________________________


	BEGINNING GENETIC ALGORITHM DOCKING 78 of 100
Run: 78 Seed: 756481948 573389713 [ Run 78 of 100 GA/GALS ]
Beginning LAMARCKIAN GENETIC ALGORITHM (LGA), with a maximum of 25000000 energy evaluations.

Final-Value: -11.505


	FINAL GENETIC ALGORITHM DOCKED STATE
	_______________________________________________


Detailed state:  trans 3.529 14.470 -12.649 quatxyzw -0.811276 0.034772 -0.269338 -0.517763 center -0.174 -0.001 -0.047 ntor 10 -13.7682 -177.0355 85.6332 -143.6334 -138.1343 -91.0790 -89.5248 7.2127 -176.4158 175.4445
State:	  3.529  14.470 -12.649  -0.948  0.041 -0.315 -117.635    -13.77 -177.04   85.63 -143.63 -138.13  -91.08  -89.52    7.21 -176.42  175.44

DOCKED: MODEL       78
DOCKED: USER    Run = 78
DOCKED: USER    DPF = D:/Protein_go_brrr/autodock/final/mut_N102T/heme_Fe/dock.dpf
DOCKED: USER  
DOCKED: USER    Estimated Free Energy of Binding    =   -6.24 kcal/mol  [=(1)+(2)+(3)-(4)]
DOCKED: USER    Estimated Inhibition Constant, Ki   =   26.85 uM (micromolar)  [Temperature = 298.15 K]
DOCKED: USER    
DOCKED: USER    (1) Final Intermolecular Energy     =   -9.22 kcal/mol
DOCKED: USER        vdW + Hbond + desolv Energy     =   -8.21 kcal/mol
DOCKED: USER        Electrostatic Energy            =   -1.00 kcal/mol
DOCKED: USER    (2) Final Total Internal Energy     =   -2.29 kcal/mol
DOCKED: USER    (3) Torsional Free Energy           =   +2.98 kcal/mol
DOCKED: USER    (4) Unbound System's Energy  [=(2)] =   -2.29 kcal/mol
DOCKED: USER    
DOCKED: USER    
DOCKED: USER    NEWDPF move heme_Fe_opt.pdbqt
DOCKED: USER    NEWDPF about -0.174000 -0.001000 -0.047000
DOCKED: USER    NEWDPF tran0 3.528768 14.470375 -12.648559
DOCKED: USER    NEWDPF quaternion0 -0.811276 0.034772 -0.269338 -0.517763
DOCKED: USER    NEWDPF axisangle0 -0.948280 0.040644 -0.314822 -117.635367
DOCKED: USER    NEWDPF quat0 -0.948280 0.040644 -0.314822 -117.635367
DOCKED: USER    NEWDPF dihe0 -13.77 -177.04 85.63 -143.63 -138.13 -91.08 -89.52 7.21 -176.42 175.44 
DOCKED: USER  keepresnum = 1 
DOCKED: USER  
DOCKED: REMARK  10 active torsions:
DOCKED: REMARK  status: ('A' for Active; 'I' for Inactive)
DOCKED: REMARK    1  A    between atoms: C_6  and  C_10 
DOCKED: REMARK    2  A    between atoms: C_10  and  C_11 
DOCKED: REMARK    3  A    between atoms: C_11  and  C_12 
DOCKED: REMARK    4  A    between atoms: C_12  and  O_14 
DOCKED: REMARK    5  A    between atoms: C_17  and  C_20 
DOCKED: REMARK    6  A    between atoms: C_24  and  C_27 
DOCKED: REMARK    7  A    between atoms: C_31  and  C_34 
DOCKED: REMARK    8  A    between atoms: C_34  and  C_35 
DOCKED: REMARK    9  A    between atoms: C_35  and  C_36 
DOCKED: REMARK   10  A    between atoms: C_36  and  O_38 
DOCKED: USER                              x       y       z     vdW  Elec       q    Type
DOCKED: USER                           _______ _______ _______ _____ _____    ______ ____
DOCKED: ROOT
DOCKED: ATOM      1  C   UNL d   1       2.078  15.599 -13.562 -0.27 -0.01    +0.064 C 
DOCKED: ATOM      2  C   UNL d   1       4.360  15.749  -9.180 -0.25 -0.02    +0.064 A 
DOCKED: ATOM      3  C   UNL d   1       7.690  12.739 -10.888 -0.23 -0.02    +0.064 C 
DOCKED: ATOM      4  C   UNL d   1       5.440  12.496 -15.103 -0.28 -0.05    +0.064 C 
DOCKED: ATOM      5  C   UNL d   1       2.366  15.855 -12.144 -0.23 -0.02    +0.066 A 
DOCKED: ATOM      6  C   UNL d   1       1.558  16.591 -11.293 -0.18 +0.01    -0.021 A 
DOCKED: ATOM      7  C   UNL d   1       2.194  16.636 -10.078 -0.20 +0.01    -0.025 A 
DOCKED: ATOM      8  C   UNL d   1       3.367  15.923 -10.233 -0.21 -0.03    +0.066 A 
DOCKED: ATOM      9  C   UNL d   1       1.687  17.310  -8.840 -0.18 -0.01    +0.051 C 
DOCKED: ATOM     10  C   UNL d   1       5.472  15.019  -9.286 -0.23 -0.03    +0.066 A 
DOCKED: ATOM     11  C   UNL d   1       6.460  14.965  -8.299 -0.21 +0.01    -0.021 A 
DOCKED: ATOM     12  C   UNL d   1       7.439  14.116  -8.775 -0.21 -0.00    +0.000 A 
DOCKED: ATOM     13  C   UNL d   1       6.998  13.699 -10.043 -0.20 -0.03    +0.070 A 
DOCKED: ATOM     14  C   UNL d   1       6.502  15.737  -6.997 -0.18 -0.03    +0.052 C 
DOCKED: ATOM     15  C   UNL d   1       7.296  12.374 -12.131 -0.23 -0.02    +0.066 A 
DOCKED: ATOM     16  C   UNL d   1       7.929  11.380 -12.866 -0.24 +0.01    -0.021 A 
DOCKED: ATOM     17  C   UNL d   1       7.283  11.310 -14.084 -0.28 -0.00    +0.000 A 
DOCKED: ATOM     18  C   UNL d   1       6.273  12.269 -14.064 -0.29 -0.04    +0.070 A 
DOCKED: ATOM     19  C   UNL d   1       9.110  10.543 -12.453 -0.29 -0.01    +0.052 C 
DOCKED: ATOM     20  C   UNL d   1       4.327  13.453 -15.096 -0.30 -0.03    +0.066 A 
DOCKED: ATOM     21  C   UNL d   1       3.586  13.842 -16.221 -0.31 +0.01    -0.025 A 
DOCKED: ATOM     22  C   UNL d   1       2.626  14.717 -15.757 -0.30 +0.00    -0.021 A 
DOCKED: ATOM     23  C   UNL d   1       2.821  14.831 -14.375 -0.27 -0.01    +0.066 A 
DOCKED: ATOM     24  C   UNL d   1       3.768  13.422 -17.661 -0.26 -0.02    +0.051 C 
DOCKED: ATOM     25  N   UNL d   1       3.464  15.441 -11.488 -0.15 +0.10    -0.248 N 
DOCKED: ATOM     26  N   UNL d   1       5.803  14.256 -10.358 -0.02 +0.12    -0.248 N 
DOCKED: ATOM     27  N   UNL d   1       6.252  12.893 -12.848 -0.12 +0.12    -0.248 N 
DOCKED: ATOM     28  N   UNL d   1       3.888  14.093 -13.985 -0.20 +0.10    -0.248 N 
DOCKED: ATOM     29 FE   UNL d   1       4.846  14.174 -12.174 -0.06 -0.00    +0.000 Fe
DOCKED: ENDROOT
DOCKED: BRANCH   6  30
DOCKED: ATOM     30  C   UNL d   1       0.238  17.205 -11.611 -0.13 -0.01    +0.052 C 
DOCKED: BRANCH  30  31
DOCKED: ATOM     31  C   UNL d   1       0.418  18.598 -12.205 -0.03 -0.00    +0.115 C 
DOCKED: BRANCH  31  32
DOCKED: ATOM     32  C   UNL d   1       0.520  18.523 -13.703 -0.02 +0.01    +0.139 C 
DOCKED: ATOM     33  O   UNL d   1       1.337  19.203 -14.307 +0.03 -0.05    -0.650 OA
DOCKED: BRANCH  32  34
DOCKED: ATOM     34  O   UNL d   1      -0.291  17.704 -14.394 +0.05 -0.12    -0.776 OA
DOCKED: ATOM     35  H   UNL d   1      -0.357  17.809 -15.353 +0.03 +0.05    +0.167 HD
DOCKED: ENDBRANCH  32  34
DOCKED: ENDBRANCH  31  32
DOCKED: ENDBRANCH  30  31
DOCKED: ENDBRANCH   6  30
DOCKED: BRANCH  22  36
DOCKED: ATOM     36  C   UNL d   1       1.610  15.438 -16.603 -0.28 +0.01    +0.052 C 
DOCKED: BRANCH  36  37
DOCKED: ATOM     37  C   UNL d   1       2.201  16.745 -17.111 -0.13 +0.03    +0.115 C 
DOCKED: BRANCH  37  38
DOCKED: ATOM     38  C   UNL d   1       1.164  17.562 -17.829 -0.11 +0.08    +0.139 C 
DOCKED: ATOM     39  O   UNL d   1       1.005  17.449 -19.036 -0.12 -0.69    -0.650 OA
DOCKED: BRANCH  38  40
DOCKED: ATOM     40  O   UNL d   1       0.401  18.432 -17.144 -0.01 -0.45    -0.776 OA
DOCKED: ATOM     41  H   UNL d   1       0.558  18.549 -16.196 +0.02 +0.06    +0.167 HD
DOCKED: ENDBRANCH  38  40
DOCKED: ENDBRANCH  37  38
DOCKED: ENDBRANCH  36  37
DOCKED: ENDBRANCH  22  36
DOCKED: BRANCH  12  42
DOCKED: ATOM     42  C   UNL d   1       8.700  13.770  -8.047 -0.22 -0.00    +0.004 C 
DOCKED: ATOM     43  C   UNL d   1       9.115  12.500  -7.953 -0.26 -0.01    +0.012 C 
DOCKED: ENDBRANCH  12  42
DOCKED: BRANCH  17  44
DOCKED: ATOM     44  C   UNL d   1       7.600  10.374 -15.186 -0.37 -0.00    +0.004 C 
DOCKED: ATOM     45  C   UNL d   1       8.489  10.702 -16.129 -0.28 -0.00    +0.012 C 
DOCKED: ENDBRANCH  17  44
DOCKED: TORSDOF 10
DOCKED: TER
DOCKED: ENDMDL
________________________________________________________________________________


	BEGINNING GENETIC ALGORITHM DOCKING 79 of 100
Run: 79 Seed: 1269771091 1971590732 [ Run 79 of 100 GA/GALS ]
Beginning LAMARCKIAN GENETIC ALGORITHM (LGA), with a maximum of 25000000 energy evaluations.

Final-Value: -13.186


	FINAL GENETIC ALGORITHM DOCKED STATE
	_______________________________________________


Detailed state:  trans 6.859 -4.732 7.973 quatxyzw 0.063302 0.768191 0.570727 -0.283103 center -0.174 -0.001 -0.047 ntor 10 3.9395 167.7170 28.5888 90.2746 -177.0034 114.0119 69.4511 -25.0078 -19.1396 -29.3438
State:	  6.859  -4.732   7.973   0.066  0.801  0.595 -147.109      3.94  167.72   28.59   90.27 -177.00  114.01   69.45  -25.01  -19.14  -29.34

DOCKED: MODEL       79
DOCKED: USER    Run = 79
DOCKED: USER    DPF = D:/Protein_go_brrr/autodock/final/mut_N102T/heme_Fe/dock.dpf
DOCKED: USER  
DOCKED: USER    Estimated Free Energy of Binding    =   -8.22 kcal/mol  [=(1)+(2)+(3)-(4)]
DOCKED: USER    Estimated Inhibition Constant, Ki   =  939.66 nM (nanomolar)  [Temperature = 298.15 K]
DOCKED: USER    
DOCKED: USER    (1) Final Intermolecular Energy     =  -11.21 kcal/mol
DOCKED: USER        vdW + Hbond + desolv Energy     =   -9.36 kcal/mol
DOCKED: USER        Electrostatic Energy            =   -1.85 kcal/mol
DOCKED: USER    (2) Final Total Internal Energy     =   -1.98 kcal/mol
DOCKED: USER    (3) Torsional Free Energy           =   +2.98 kcal/mol
DOCKED: USER    (4) Unbound System's Energy  [=(2)] =   -1.98 kcal/mol
DOCKED: USER    
DOCKED: USER    
DOCKED: USER    NEWDPF move heme_Fe_opt.pdbqt
DOCKED: USER    NEWDPF about -0.174000 -0.001000 -0.047000
DOCKED: USER    NEWDPF tran0 6.859356 -4.731719 7.973003
DOCKED: USER    NEWDPF quaternion0 0.063302 0.768191 0.570727 -0.283103
DOCKED: USER    NEWDPF axisangle0 0.066002 0.800958 0.595071 -147.109015
DOCKED: USER    NEWDPF quat0 0.066002 0.800958 0.595071 -147.109015
DOCKED: USER    NEWDPF dihe0 3.94 167.72 28.59 90.27 -177.00 114.01 69.45 -25.01 -19.14 -29.34 
DOCKED: USER  keepresnum = 1 
DOCKED: USER  
DOCKED: REMARK  10 active torsions:
DOCKED: REMARK  status: ('A' for Active; 'I' for Inactive)
DOCKED: REMARK    1  A    between atoms: C_6  and  C_10 
DOCKED: REMARK    2  A    between atoms: C_10  and  C_11 
DOCKED: REMARK    3  A    between atoms: C_11  and  C_12 
DOCKED: REMARK    4  A    between atoms: C_12  and  O_14 
DOCKED: REMARK    5  A    between atoms: C_17  and  C_20 
DOCKED: REMARK    6  A    between atoms: C_24  and  C_27 
DOCKED: REMARK    7  A    between atoms: C_31  and  C_34 
DOCKED: REMARK    8  A    between atoms: C_34  and  C_35 
DOCKED: REMARK    9  A    between atoms: C_35  and  C_36 
DOCKED: REMARK   10  A    between atoms: C_36  and  O_38 
DOCKED: USER                              x       y       z     vdW  Elec       q    Type
DOCKED: USER                           _______ _______ _______ _____ _____    ______ ____
DOCKED: ROOT
DOCKED: ATOM      1  C   UNL d   1       8.790  -5.137   8.538 +0.14 +0.09    +0.064 C 
DOCKED: ATOM      2  C   UNL d   1       6.405  -4.897   4.215 -0.21 +0.01    +0.064 A 
DOCKED: ATOM      3  C   UNL d   1       2.783  -2.640   6.417 -0.45 +0.01    +0.064 C 
DOCKED: ATOM      4  C   UNL d   1       5.027  -2.955  10.630 -0.38 +0.01    +0.064 C 
DOCKED: ATOM      5  C   UNL d   1       8.418  -5.353   7.132 -0.24 +0.06    +0.066 A 
DOCKED: ATOM      6  C   UNL d   1       9.171  -6.070   6.216 +0.10 -0.02    -0.021 A 
DOCKED: ATOM      7  C   UNL d   1       8.510  -5.999   5.015 +0.28 -0.01    -0.025 A 
DOCKED: ATOM      8  C   UNL d   1       7.377  -5.242   5.245 -0.09 +0.02    +0.066 A 
DOCKED: ATOM      9  C   UNL d   1       8.940  -6.642   3.732 -0.23 +0.01    +0.051 C 
DOCKED: ATOM     10  C   UNL d   1       5.276  -4.218   4.421 -0.41 +0.01    +0.066 A 
DOCKED: ATOM     11  C   UNL d   1       4.422  -3.804   3.396 -0.42 -0.00    -0.021 A 
DOCKED: ATOM     12  C   UNL d   1       3.378  -3.136   4.004 -0.40 +0.00    +0.000 A 
DOCKED: ATOM     13  C   UNL d   1       3.656  -3.170   5.381 -0.38 +0.01    +0.070 A 
DOCKED: ATOM     14  C   UNL d   1       4.626  -3.976   1.904 -0.55 -0.00    +0.052 C 
DOCKED: ATOM     15  C   UNL d   1       3.070  -2.624   7.740 -0.20 +0.02    +0.066 A 
DOCKED: ATOM     16  C   UNL d   1       2.168  -2.199   8.707 -0.48 -0.00    -0.021 A 
DOCKED: ATOM     17  C   UNL d   1       2.814  -2.286   9.923 -0.51 +0.00    +0.000 A 
DOCKED: ATOM     18  C   UNL d   1       4.100  -2.758   9.668 -0.40 +0.01    +0.070 A 
DOCKED: ATOM     19  C   UNL d   1       0.761  -1.707   8.497 -0.55 +0.00    +0.052 C 
DOCKED: ATOM     20  C   UNL d   1       6.368  -3.508  10.407 -0.20 +0.02    +0.066 A 
DOCKED: ATOM     21  C   UNL d   1       7.403  -3.530  11.353 -0.23 -0.01    -0.025 A 
DOCKED: ATOM     22  C   UNL d   1       8.462  -4.168  10.740 -0.23 -0.01    -0.021 A 
DOCKED: ATOM     23  C   UNL d   1       8.036  -4.502   9.448 -0.29 +0.05    +0.066 A 
DOCKED: ATOM     24  C   UNL d   1       7.407  -2.980  12.760 -0.20 +0.01    +0.051 C 
DOCKED: ATOM     25  N   UNL d   1       7.320  -4.859   6.536 -0.25 -0.11    -0.248 N 
DOCKED: ATOM     26  N   UNL d   1       4.817  -3.821   5.636 -0.24 -0.04    -0.248 N 
DOCKED: ATOM     27  N   UNL d   1       4.244  -3.008   8.331 +0.24 -0.11    -0.248 N 
DOCKED: ATOM     28  N   UNL d   1       6.773  -4.057   9.236 -0.21 -0.09    -0.248 N 
DOCKED: ATOM     29 FE   UNL d   1       5.795  -3.938   7.438 -0.09 +0.00    +0.000 Fe
DOCKED: ENDROOT
DOCKED: BRANCH   6  30
DOCKED: ATOM     30  C   UNL d   1      10.444  -6.802   6.472 +0.15 +0.05    +0.052 C 
DOCKED: BRANCH  30  31
DOCKED: ATOM     31  C   UNL d   1      10.192  -8.041   7.324 -0.21 +0.07    +0.115 C 
DOCKED: BRANCH  31  32
DOCKED: ATOM     32  C   UNL d   1      10.778  -7.863   8.697 -0.14 +0.12    +0.139 C 
DOCKED: ATOM     33  O   UNL d   1      10.729  -8.768   9.519 +0.01 -0.31    -0.650 OA
DOCKED: BRANCH  32  34
DOCKED: ATOM     34  O   UNL d   1      11.363  -6.702   9.035 -0.15 -1.57    -0.776 OA
DOCKED: ATOM     35  H   UNL d   1      11.786  -6.624   9.902 +0.01 +0.23    +0.167 HD
DOCKED: ENDBRANCH  32  34
DOCKED: ENDBRANCH  31  32
DOCKED: ENDBRANCH  30  31
DOCKED: ENDBRANCH   6  30
DOCKED: BRANCH  22  36
DOCKED: ATOM     36  C   UNL d   1       9.821  -4.398  11.346 -0.15 +0.04    +0.052 C 
DOCKED: BRANCH  36  37
DOCKED: ATOM     37  C   UNL d   1       9.709  -5.388  12.495 -0.11 +0.05    +0.115 C 
DOCKED: BRANCH  37  38
DOCKED: ATOM     38  C   UNL d   1      11.009  -6.111  12.712 -0.06 +0.06    +0.139 C 
DOCKED: ATOM     39  O   UNL d   1      11.652  -5.948  13.738 +0.02 -0.19    -0.650 OA
DOCKED: BRANCH  38  40
DOCKED: ATOM     40  O   UNL d   1      11.477  -6.946  11.767 +0.03 -0.41    -0.776 OA
DOCKED: ATOM     41  H   UNL d   1      10.893  -7.215  11.045 +0.03 +0.11    +0.167 HD
DOCKED: ENDBRANCH  38  40
DOCKED: ENDBRANCH  37  38
DOCKED: ENDBRANCH  36  37
DOCKED: ENDBRANCH  22  36
DOCKED: BRANCH  12  42
DOCKED: ATOM     42  C   UNL d   1       2.228  -2.508   3.282 -0.05 +0.00    +0.004 C 
DOCKED: ATOM     43  C   UNL d   1       1.232  -3.257   2.790 -0.50 +0.00    +0.012 C 
DOCKED: ENDBRANCH  12  42
DOCKED: BRANCH  17  44
DOCKED: ATOM     44  C   UNL d   1       2.233  -1.959  11.244 -0.59 +0.00    +0.004 C 
DOCKED: ATOM     45  C   UNL d   1       2.559  -2.666  12.330 -0.57 -0.00    +0.012 C 
DOCKED: ENDBRANCH  17  44
DOCKED: TORSDOF 10
DOCKED: TER
DOCKED: ENDMDL
________________________________________________________________________________


	BEGINNING GENETIC ALGORITHM DOCKING 80 of 100
Run: 80 Seed: 436975605 1493963081 [ Run 80 of 100 GA/GALS ]
Beginning LAMARCKIAN GENETIC ALGORITHM (LGA), with a maximum of 25000000 energy evaluations.

Final-Value: -11.259


	FINAL GENETIC ALGORITHM DOCKED STATE
	_______________________________________________


Detailed state:  trans 7.767 -5.237 16.046 quatxyzw 0.119826 0.935685 -0.221348 0.247267 center -0.174 -0.001 -0.047 ntor 10 121.2344 80.8196 -140.1271 165.3816 165.7083 -166.8303 50.6938 -87.7995 -157.5002 159.1433
State:	  7.767  -5.237  16.046   0.124  0.966 -0.228 151.368    121.23   80.82 -140.13  165.38  165.71 -166.83   50.69  -87.80 -157.50  159.14

DOCKED: MODEL       80
DOCKED: USER    Run = 80
DOCKED: USER    DPF = D:/Protein_go_brrr/autodock/final/mut_N102T/heme_Fe/dock.dpf
DOCKED: USER  
DOCKED: USER    Estimated Free Energy of Binding    =   -7.68 kcal/mol  [=(1)+(2)+(3)-(4)]
DOCKED: USER    Estimated Inhibition Constant, Ki   =    2.36 uM (micromolar)  [Temperature = 298.15 K]
DOCKED: USER    
DOCKED: USER    (1) Final Intermolecular Energy     =  -10.66 kcal/mol
DOCKED: USER        vdW + Hbond + desolv Energy     =   -7.05 kcal/mol
DOCKED: USER        Electrostatic Energy            =   -3.61 kcal/mol
DOCKED: USER    (2) Final Total Internal Energy     =   -0.60 kcal/mol
DOCKED: USER    (3) Torsional Free Energy           =   +2.98 kcal/mol
DOCKED: USER    (4) Unbound System's Energy  [=(2)] =   -0.60 kcal/mol
DOCKED: USER    
DOCKED: USER    
DOCKED: USER    NEWDPF move heme_Fe_opt.pdbqt
DOCKED: USER    NEWDPF about -0.174000 -0.001000 -0.047000
DOCKED: USER    NEWDPF tran0 7.767351 -5.237286 16.045966
DOCKED: USER    NEWDPF quaternion0 0.119826 0.935685 -0.221348 0.247267
DOCKED: USER    NEWDPF axisangle0 0.123666 0.965671 -0.228442 151.368325
DOCKED: USER    NEWDPF quat0 0.123666 0.965671 -0.228442 151.368325
DOCKED: USER    NEWDPF dihe0 121.23 80.82 -140.13 165.38 165.71 -166.83 50.69 -87.80 -157.50 159.14 
DOCKED: USER  keepresnum = 1 
DOCKED: USER  
DOCKED: REMARK  10 active torsions:
DOCKED: REMARK  status: ('A' for Active; 'I' for Inactive)
DOCKED: REMARK    1  A    between atoms: C_6  and  C_10 
DOCKED: REMARK    2  A    between atoms: C_10  and  C_11 
DOCKED: REMARK    3  A    between atoms: C_11  and  C_12 
DOCKED: REMARK    4  A    between atoms: C_12  and  O_14 
DOCKED: REMARK    5  A    between atoms: C_17  and  C_20 
DOCKED: REMARK    6  A    between atoms: C_24  and  C_27 
DOCKED: REMARK    7  A    between atoms: C_31  and  C_34 
DOCKED: REMARK    8  A    between atoms: C_34  and  C_35 
DOCKED: REMARK    9  A    between atoms: C_35  and  C_36 
DOCKED: REMARK   10  A    between atoms: C_36  and  O_38 
DOCKED: USER                              x       y       z     vdW  Elec       q    Type
DOCKED: USER                           _______ _______ _______ _____ _____    ______ ____
DOCKED: ROOT
DOCKED: ATOM      1  C   UNL d   1       9.168  -6.139  14.848 -0.12 +0.01    +0.064 C 
DOCKED: ATOM      2  C   UNL d   1       5.786  -7.755  18.069 -0.20 -0.01    +0.064 A 
DOCKED: ATOM      3  C   UNL d   1       3.695  -3.433  17.937 -0.14 -0.01    +0.064 C 
DOCKED: ATOM      4  C   UNL d   1       7.019  -1.817  14.900 -0.20 +0.00    +0.064 C 
DOCKED: ATOM      5  C   UNL d   1       8.459  -6.969  15.831 -0.14 +0.01    +0.066 A 
DOCKED: ATOM      6  C   UNL d   1       8.845  -8.242  16.216 -0.16 -0.01    -0.021 A 
DOCKED: ATOM      7  C   UNL d   1       7.903  -8.692  17.108 -0.19 -0.01    -0.025 A 
DOCKED: ATOM      8  C   UNL d   1       6.977  -7.674  17.233 -0.21 +0.00    +0.066 A 
DOCKED: ATOM      9  C   UNL d   1       7.912 -10.016  17.809 -0.17 +0.02    +0.051 C 
DOCKED: ATOM     10  C   UNL d   1       4.908  -6.767  18.252 -0.16 -0.01    +0.066 A 
DOCKED: ATOM     11  C   UNL d   1       3.717  -6.912  18.967 -0.11 +0.01    -0.021 A 
DOCKED: ATOM     12  C   UNL d   1       3.087  -5.684  18.930 -0.16 -0.00    +0.000 A 
DOCKED: ATOM     13  C   UNL d   1       3.931  -4.848  18.179 -0.14 -0.01    +0.070 A 
DOCKED: ATOM     14  C   UNL d   1       3.171  -8.178  19.598 -0.12 -0.01    +0.052 C 
DOCKED: ATOM     15  C   UNL d   1       4.478  -2.636  17.172 -0.15 -0.01    +0.066 A 
DOCKED: ATOM     16  C   UNL d   1       4.275  -1.268  17.047 -0.29 +0.00    -0.021 A 
DOCKED: ATOM     17  C   UNL d   1       5.230  -0.800  16.168 -0.32 -0.00    +0.000 A 
DOCKED: ATOM     18  C   UNL d   1       5.993  -1.897  15.775 -0.19 -0.00    +0.070 A 
DOCKED: ATOM     19  C   UNL d   1       3.209  -0.434  17.706 -0.46 -0.02    +0.052 C 
DOCKED: ATOM     20  C   UNL d   1       7.883  -2.938  14.510 -0.09 +0.01    +0.066 A 
DOCKED: ATOM     21  C   UNL d   1       8.815  -2.916  13.462 -0.08 -0.01    -0.025 A 
DOCKED: ATOM     22  C   UNL d   1       9.425  -4.153  13.474 -0.07 -0.01    -0.021 A 
DOCKED: ATOM     23  C   UNL d   1       8.839  -4.880  14.517 -0.08 +0.01    +0.066 A 
DOCKED: ATOM     24  C   UNL d   1       9.120  -1.796  12.495 -0.16 +0.02    +0.051 C 
DOCKED: ATOM     25  N   UNL d   1       7.323  -6.624  16.462 -0.09 -0.02    -0.248 N 
DOCKED: ATOM     26  N   UNL d   1       5.037  -5.510  17.758 -0.11 +0.03    -0.248 N 
DOCKED: ATOM     27  N   UNL d   1       5.559  -3.018  16.425 -0.08 +0.02    -0.248 N 
DOCKED: ATOM     28  N   UNL d   1       7.868  -4.149  15.117 -0.05 -0.03    -0.248 N 
DOCKED: ATOM     29 FE   UNL d   1       6.453  -4.827  16.437 -0.03 +0.00    +0.000 Fe
DOCKED: ENDROOT
DOCKED: BRANCH   6  30
DOCKED: ATOM     30  C   UNL d   1      10.059  -8.988  15.777 -0.14 +0.02    +0.052 C 
DOCKED: BRANCH  30  31
DOCKED: ATOM     31  C   UNL d   1       9.958  -9.363  14.303 -0.18 +0.07    +0.115 C 
DOCKED: BRANCH  31  32
DOCKED: ATOM     32  C   UNL d   1      10.243 -10.828  14.112 +0.05 +0.18    +0.139 C 
DOCKED: ATOM     33  O   UNL d   1       9.963 -11.385  13.061 -0.44 -0.95    -0.650 OA
DOCKED: BRANCH  32  34
DOCKED: ATOM     34  O   UNL d   1      10.809 -11.539  15.102 -0.05 -1.47    -0.776 OA
DOCKED: ATOM     35  H   UNL d   1      11.674 -11.268  15.439 +0.01 +0.16    +0.167 HD
DOCKED: ENDBRANCH  32  34
DOCKED: ENDBRANCH  31  32
DOCKED: ENDBRANCH  30  31
DOCKED: ENDBRANCH   6  30
DOCKED: BRANCH  22  36
DOCKED: ATOM     36  C   UNL d   1      10.475  -4.625  12.504 -0.07 +0.03    +0.052 C 
DOCKED: BRANCH  36  37
DOCKED: ATOM     37  C   UNL d   1       9.853  -5.581  11.497 -0.15 +0.08    +0.115 C 
DOCKED: BRANCH  37  38
DOCKED: ATOM     38  C   UNL d   1       9.367  -4.844  10.282 -0.07 +0.17    +0.139 C 
DOCKED: ATOM     39  O   UNL d   1       8.631  -5.388   9.472 -0.08 -0.64    -0.650 OA
DOCKED: BRANCH  38  40
DOCKED: ATOM     40  O   UNL d   1       9.746  -3.570  10.074 -0.32 -1.39    -0.776 OA
DOCKED: ATOM     41  H   UNL d   1       9.140  -2.855  10.312 +0.04 +0.16    +0.167 HD
DOCKED: ENDBRANCH  38  40
DOCKED: ENDBRANCH  37  38
DOCKED: ENDBRANCH  36  37
DOCKED: ENDBRANCH  22  36
DOCKED: BRANCH  12  42
DOCKED: ATOM     42  C   UNL d   1       1.766  -5.380  19.562 -0.14 -0.00    +0.004 C 
DOCKED: ATOM     43  C   UNL d   1       0.626  -5.500  18.870 -0.25 -0.00    +0.012 C 
DOCKED: ENDBRANCH  12  42
DOCKED: BRANCH  17  44
DOCKED: ATOM     44  C   UNL d   1       5.414   0.608  15.749 -0.40 -0.00    +0.004 C 
DOCKED: ATOM     45  C   UNL d   1       5.724   0.911  14.485 -0.41 -0.00    +0.012 C 
DOCKED: ENDBRANCH  17  44
DOCKED: TORSDOF 10
DOCKED: TER
DOCKED: ENDMDL
________________________________________________________________________________


	BEGINNING GENETIC ALGORITHM DOCKING 81 of 100
Run: 81 Seed: 664984850 804611413 [ Run 81 of 100 GA/GALS ]
Beginning LAMARCKIAN GENETIC ALGORITHM (LGA), with a maximum of 25000000 energy evaluations.

Final-Value: -9.410


	FINAL GENETIC ALGORITHM DOCKED STATE
	_______________________________________________


Detailed state:  trans -12.500 6.662 5.690 quatxyzw 0.774038 -0.103596 0.624004 -0.027404 center -0.174 -0.001 -0.047 ntor 10 -139.5281 -98.6972 176.6335 -153.1674 53.2686 130.9165 -80.2756 -52.4284 180.0000 -152.1322
State:	-12.500   6.662   5.690   0.774 -0.104  0.624 -176.859   -139.53  -98.70  176.63 -153.17   53.27  130.92  -80.28  -52.43  180.00 -152.13

DOCKED: MODEL       81
DOCKED: USER    Run = 81
DOCKED: USER    DPF = D:/Protein_go_brrr/autodock/final/mut_N102T/heme_Fe/dock.dpf
DOCKED: USER  
DOCKED: USER    Estimated Free Energy of Binding    =   -5.84 kcal/mol  [=(1)+(2)+(3)-(4)]
DOCKED: USER    Estimated Inhibition Constant, Ki   =   52.74 uM (micromolar)  [Temperature = 298.15 K]
DOCKED: USER    
DOCKED: USER    (1) Final Intermolecular Energy     =   -8.82 kcal/mol
DOCKED: USER        vdW + Hbond + desolv Energy     =   -7.88 kcal/mol
DOCKED: USER        Electrostatic Energy            =   -0.94 kcal/mol
DOCKED: USER    (2) Final Total Internal Energy     =   -0.59 kcal/mol
DOCKED: USER    (3) Torsional Free Energy           =   +2.98 kcal/mol
DOCKED: USER    (4) Unbound System's Energy  [=(2)] =   -0.59 kcal/mol
DOCKED: USER    
DOCKED: USER    
DOCKED: USER    NEWDPF move heme_Fe_opt.pdbqt
DOCKED: USER    NEWDPF about -0.174000 -0.001000 -0.047000
DOCKED: USER    NEWDPF tran0 -12.499666 6.661810 5.690094
DOCKED: USER    NEWDPF quaternion0 0.774038 -0.103596 0.624004 -0.027404
DOCKED: USER    NEWDPF axisangle0 0.774329 -0.103635 0.624239 -176.859387
DOCKED: USER    NEWDPF quat0 0.774329 -0.103635 0.624239 -176.859387
DOCKED: USER    NEWDPF dihe0 -139.53 -98.70 176.63 -153.17 53.27 130.92 -80.28 -52.43 180.00 -152.13 
DOCKED: USER  keepresnum = 1 
DOCKED: USER  
DOCKED: REMARK  10 active torsions:
DOCKED: REMARK  status: ('A' for Active; 'I' for Inactive)
DOCKED: REMARK    1  A    between atoms: C_6  and  C_10 
DOCKED: REMARK    2  A    between atoms: C_10  and  C_11 
DOCKED: REMARK    3  A    between atoms: C_11  and  C_12 
DOCKED: REMARK    4  A    between atoms: C_12  and  O_14 
DOCKED: REMARK    5  A    between atoms: C_17  and  C_20 
DOCKED: REMARK    6  A    between atoms: C_24  and  C_27 
DOCKED: REMARK    7  A    between atoms: C_31  and  C_34 
DOCKED: REMARK    8  A    between atoms: C_34  and  C_35 
DOCKED: REMARK    9  A    between atoms: C_35  and  C_36 
DOCKED: REMARK   10  A    between atoms: C_36  and  O_38 
DOCKED: USER                              x       y       z     vdW  Elec       q    Type
DOCKED: USER                           _______ _______ _______ _____ _____    ______ ____
DOCKED: ROOT
DOCKED: ATOM      1  C   UNL d   1     -12.373   6.878   3.653 -0.15 +0.01    +0.064 C 
DOCKED: ATOM      2  C   UNL d   1     -11.183   9.699   7.533 -0.17 -0.01    +0.064 A 
DOCKED: ATOM      3  C   UNL d   1     -11.590   5.846  10.372 -0.20 -0.00    +0.064 C 
DOCKED: ATOM      4  C   UNL d   1     -12.846   3.121   6.647 -0.16 -0.00    +0.064 C 
DOCKED: ATOM      5  C   UNL d   1     -12.082   8.047   4.495 -0.17 -0.00    +0.066 A 
DOCKED: ATOM      6  C   UNL d   1     -12.004   9.352   4.036 -0.13 +0.00    -0.021 A 
DOCKED: ATOM      7  C   UNL d   1     -11.669  10.134   5.113 -0.14 +0.00    -0.025 A 
DOCKED: ATOM      8  C   UNL d   1     -11.557   9.276   6.190 -0.19 -0.01    +0.066 A 
DOCKED: ATOM      9  C   UNL d   1     -11.490  11.621   5.103 -0.10 -0.00    +0.051 C 
DOCKED: ATOM     10  C   UNL d   1     -11.123   8.901   8.601 -0.21 -0.01    +0.066 A 
DOCKED: ATOM     11  C   UNL d   1     -10.651   9.313   9.850 -0.23 +0.00    -0.021 A 
DOCKED: ATOM     12  C   UNL d   1     -10.742   8.215  10.682 -0.29 -0.00    +0.000 A 
DOCKED: ATOM     13  C   UNL d   1     -11.262   7.178   9.888 -0.25 -0.00    +0.070 A 
DOCKED: ATOM     14  C   UNL d   1     -10.077  10.666  10.215 -0.18 -0.00    +0.052 C 
DOCKED: ATOM     15  C   UNL d   1     -12.042   4.830   9.600 -0.19 -0.00    +0.066 A 
DOCKED: ATOM     16  C   UNL d   1     -12.438   3.603  10.117 -0.19 +0.00    -0.021 A 
DOCKED: ATOM     17  C   UNL d   1     -12.797   2.814   9.044 -0.17 -0.00    +0.000 A 
DOCKED: ATOM     18  C   UNL d   1     -12.608   3.579   7.895 -0.17 -0.00    +0.070 A 
DOCKED: ATOM     19  C   UNL d   1     -12.454   3.177  11.561 -0.19 -0.00    +0.052 C 
DOCKED: ATOM     20  C   UNL d   1     -12.717   3.916   5.419 -0.15 -0.00    +0.066 A 
DOCKED: ATOM     21  C   UNL d   1     -12.766   3.405   4.115 -0.17 -0.00    -0.025 A 
DOCKED: ATOM     22  C   UNL d   1     -12.642   4.494   3.278 -0.16 -0.00    -0.021 A 
DOCKED: ATOM     23  C   UNL d   1     -12.517   5.620   4.100 -0.11 +0.01    +0.066 A 
DOCKED: ATOM     24  C   UNL d   1     -12.916   1.969   3.669 -0.17 +0.01    +0.051 C 
DOCKED: ATOM     25  N   UNL d   1     -11.818   8.008   5.812 -0.14 +0.02    -0.248 N 
DOCKED: ATOM     26  N   UNL d   1     -11.486   7.594   8.617 -0.15 +0.02    -0.248 N 
DOCKED: ATOM     27  N   UNL d   1     -12.185   4.832   8.239 -0.14 +0.00    -0.248 N 
DOCKED: ATOM     28  N   UNL d   1     -12.518   5.256   5.405 -0.10 -0.01    -0.248 N 
DOCKED: ATOM     29 FE   UNL d   1     -12.003   6.423   7.011 -0.05 -0.00    +0.000 Fe
DOCKED: ENDROOT
DOCKED: BRANCH   6  30
DOCKED: ATOM     30  C   UNL d   1     -12.254   9.836   2.648 -0.07 -0.00    +0.052 C 
DOCKED: BRANCH  30  31
DOCKED: ATOM     31  C   UNL d   1     -10.965   9.836   1.835 -0.10 -0.00    +0.115 C 
DOCKED: BRANCH  31  32
DOCKED: ATOM     32  C   UNL d   1     -10.896   8.618   0.957 -0.12 +0.00    +0.139 C 
DOCKED: ATOM     33  O   UNL d   1     -11.816   8.344   0.198 +0.01 -0.01    -0.650 OA
DOCKED: BRANCH  32  34
DOCKED: ATOM     34  O   UNL d   1      -9.819   7.815   0.999 +0.04 +0.04    -0.776 OA
DOCKED: ATOM     35  H   UNL d   1      -9.415   7.617   1.855 -0.47 -0.03    +0.167 HD
DOCKED: ENDBRANCH  32  34
DOCKED: ENDBRANCH  31  32
DOCKED: ENDBRANCH  30  31
DOCKED: ENDBRANCH   6  30
DOCKED: BRANCH  22  36
DOCKED: ATOM     36  C   UNL d   1     -12.597   4.447   1.773 -0.14 +0.01    +0.052 C 
DOCKED: BRANCH  36  37
DOCKED: ATOM     37  C   UNL d   1     -11.487   3.508   1.322 -0.25 +0.04    +0.115 C 
DOCKED: BRANCH  37  38
DOCKED: ATOM     38  C   UNL d   1     -12.012   2.475   0.366 -0.07 +0.10    +0.139 C 
DOCKED: ATOM     39  O   UNL d   1     -11.441   2.255  -0.692 -0.47 -0.51    -0.650 OA
DOCKED: BRANCH  38  40
DOCKED: ATOM     40  O   UNL d   1     -13.124   1.782   0.670 -0.41 -0.63    -0.776 OA
DOCKED: ATOM     41  H   UNL d   1     -13.988   2.188   0.516 +0.02 +0.06    +0.167 HD
DOCKED: ENDBRANCH  38  40
DOCKED: ENDBRANCH  37  38
DOCKED: ENDBRANCH  36  37
DOCKED: ENDBRANCH  22  36
DOCKED: BRANCH  12  42
DOCKED: ATOM     42  C   UNL d   1     -10.333   8.195  12.121 -0.32 +0.00    +0.004 C 
DOCKED: ATOM     43  C   UNL d   1      -9.624   7.175  12.622 -0.39 +0.00    +0.012 C 
DOCKED: ENDBRANCH  12  42
DOCKED: BRANCH  17  44
DOCKED: ATOM     44  C   UNL d   1     -13.308   1.426   9.115 -0.12 -0.00    +0.004 C 
DOCKED: ATOM     45  C   UNL d   1     -12.497   0.386   8.895 -0.20 -0.00    +0.012 C 
DOCKED: ENDBRANCH  17  44
DOCKED: TORSDOF 10
DOCKED: TER
DOCKED: ENDMDL
________________________________________________________________________________


	BEGINNING GENETIC ALGORITHM DOCKING 82 of 100
Run: 82 Seed: 446757729 1960454221 [ Run 82 of 100 GA/GALS ]
Beginning LAMARCKIAN GENETIC ALGORITHM (LGA), with a maximum of 25000000 energy evaluations.

Final-Value: -11.262


	FINAL GENETIC ALGORITHM DOCKED STATE
	_______________________________________________


Detailed state:  trans 7.514 -5.292 14.904 quatxyzw 0.391377 0.229423 0.881504 -0.130917 center -0.174 -0.001 -0.047 ntor 10 -100.5449 131.0249 66.0740 -169.6124 -81.7525 173.0588 1.1674 74.3518 175.8787 -0.0650
State:	  7.514  -5.292  14.904   0.395  0.231  0.889 -164.955   -100.54  131.02   66.07 -169.61  -81.75  173.06    1.17   74.35  175.88   -0.06

DOCKED: MODEL       82
DOCKED: USER    Run = 82
DOCKED: USER    DPF = D:/Protein_go_brrr/autodock/final/mut_N102T/heme_Fe/dock.dpf
DOCKED: USER  
DOCKED: USER    Estimated Free Energy of Binding    =   -7.63 kcal/mol  [=(1)+(2)+(3)-(4)]
DOCKED: USER    Estimated Inhibition Constant, Ki   =    2.54 uM (micromolar)  [Temperature = 298.15 K]
DOCKED: USER    
DOCKED: USER    (1) Final Intermolecular Energy     =  -10.62 kcal/mol
DOCKED: USER        vdW + Hbond + desolv Energy     =   -7.16 kcal/mol
DOCKED: USER        Electrostatic Energy            =   -3.46 kcal/mol
DOCKED: USER    (2) Final Total Internal Energy     =   -0.65 kcal/mol
DOCKED: USER    (3) Torsional Free Energy           =   +2.98 kcal/mol
DOCKED: USER    (4) Unbound System's Energy  [=(2)] =   -0.65 kcal/mol
DOCKED: USER    
DOCKED: USER    
DOCKED: USER    NEWDPF move heme_Fe_opt.pdbqt
DOCKED: USER    NEWDPF about -0.174000 -0.001000 -0.047000
DOCKED: USER    NEWDPF tran0 7.513705 -5.291737 14.903637
DOCKED: USER    NEWDPF quaternion0 0.391377 0.229423 0.881504 -0.130917
DOCKED: USER    NEWDPF axisangle0 0.394774 0.231415 0.889157 -164.954850
DOCKED: USER    NEWDPF quat0 0.394774 0.231415 0.889157 -164.954850
DOCKED: USER    NEWDPF dihe0 -100.54 131.02 66.07 -169.61 -81.75 173.06 1.17 74.35 175.88 -0.06 
DOCKED: USER  keepresnum = 1 
DOCKED: USER  
DOCKED: REMARK  10 active torsions:
DOCKED: REMARK  status: ('A' for Active; 'I' for Inactive)
DOCKED: REMARK    1  A    between atoms: C_6  and  C_10 
DOCKED: REMARK    2  A    between atoms: C_10  and  C_11 
DOCKED: REMARK    3  A    between atoms: C_11  and  C_12 
DOCKED: REMARK    4  A    between atoms: C_12  and  O_14 
DOCKED: REMARK    5  A    between atoms: C_17  and  C_20 
DOCKED: REMARK    6  A    between atoms: C_24  and  C_27 
DOCKED: REMARK    7  A    between atoms: C_31  and  C_34 
DOCKED: REMARK    8  A    between atoms: C_34  and  C_35 
DOCKED: REMARK    9  A    between atoms: C_35  and  C_36 
DOCKED: REMARK   10  A    between atoms: C_36  and  O_38 
DOCKED: USER                              x       y       z     vdW  Elec       q    Type
DOCKED: USER                           _______ _______ _______ _____ _____    ______ ____
DOCKED: ROOT
DOCKED: ATOM      1  C   UNL d   1       9.222  -5.893  13.939 -0.13 +0.02    +0.064 C 
DOCKED: ATOM      2  C   UNL d   1       6.839  -1.592  14.440 -0.20 +0.00    +0.064 A 
DOCKED: ATOM      3  C   UNL d   1       4.304  -3.496  18.048 -0.11 -0.01    +0.064 C 
DOCKED: ATOM      4  C   UNL d   1       6.524  -7.699  17.511 -0.24 +0.00    +0.064 C 
DOCKED: ATOM      5  C   UNL d   1       8.728  -4.532  13.690 -0.09 +0.01    +0.066 A 
DOCKED: ATOM      6  C   UNL d   1       9.148  -3.715  12.653 -0.10 -0.01    -0.021 A 
DOCKED: ATOM      7  C   UNL d   1       8.488  -2.520  12.796 -0.13 -0.01    -0.025 A 
DOCKED: ATOM      8  C   UNL d   1       7.690  -2.653  13.915 -0.11 +0.01    +0.066 A 
DOCKED: ATOM      9  C   UNL d   1       8.611  -1.331  11.892 -0.24 +0.01    +0.051 C 
DOCKED: ATOM     10  C   UNL d   1       6.016  -1.713  15.483 -0.21 -0.00    +0.066 A 
DOCKED: ATOM     11  C   UNL d   1       5.300  -0.647  16.032 -0.31 +0.00    -0.021 A 
DOCKED: ATOM     12  C   UNL d   1       4.573  -1.166  17.085 -0.31 -0.00    +0.000 A 
DOCKED: ATOM     13  C   UNL d   1       4.894  -2.535  17.129 -0.14 -0.01    +0.070 A 
DOCKED: ATOM     14  C   UNL d   1       5.357   0.809  15.618 -0.27 -0.01    +0.052 C 
DOCKED: ATOM     15  C   UNL d   1       4.647  -4.803  18.128 -0.12 -0.01    +0.066 A 
DOCKED: ATOM     16  C   UNL d   1       3.991  -5.710  18.950 -0.13 +0.00    -0.021 A 
DOCKED: ATOM     17  C   UNL d   1       4.632  -6.923  18.799 -0.15 -0.00    +0.000 A 
DOCKED: ATOM     18  C   UNL d   1       5.669  -6.725  17.891 -0.18 -0.01    +0.070 A 
DOCKED: ATOM     19  C   UNL d   1       2.823  -5.446  19.861 -0.09 -0.01    +0.052 C 
DOCKED: ATOM     20  C   UNL d   1       7.588  -7.543  16.512 -0.20 +0.01    +0.066 A 
DOCKED: ATOM     21  C   UNL d   1       8.602  -8.477  16.256 -0.19 -0.01    -0.025 A 
DOCKED: ATOM     22  C   UNL d   1       9.352  -7.948  15.226 -0.15 -0.01    -0.021 A 
DOCKED: ATOM     23  C   UNL d   1       8.773  -6.716  14.900 -0.14 +0.01    +0.066 A 
DOCKED: ATOM     24  C   UNL d   1       8.863  -9.798  16.942 -0.17 +0.03    +0.051 C 
DOCKED: ATOM     25  N   UNL d   1       7.830  -3.882  14.451 -0.06 -0.03    -0.248 N 
DOCKED: ATOM     26  N   UNL d   1       5.780  -2.866  16.158 -0.08 +0.01    -0.248 N 
DOCKED: ATOM     27  N   UNL d   1       5.652  -5.433  17.444 -0.09 +0.02    -0.248 N 
DOCKED: ATOM     28  N   UNL d   1       7.724  -6.454  15.718 -0.07 -0.03    -0.248 N 
DOCKED: ATOM     29 FE   UNL d   1       6.752  -4.662  15.939 -0.03 +0.00    +0.000 Fe
DOCKED: ENDROOT
DOCKED: BRANCH   6  30
DOCKED: ATOM     30  C   UNL d   1      10.111  -4.058  11.569 -0.13 +0.04    +0.052 C 
DOCKED: BRANCH  30  31
DOCKED: ATOM     31  C   UNL d   1      11.520  -3.601  11.933 -0.07 +0.08    +0.115 C 
DOCKED: BRANCH  31  32
DOCKED: ATOM     32  C   UNL d   1      12.481  -3.924  10.823 +0.02 +0.18    +0.139 C 
DOCKED: ATOM     33  O   UNL d   1      12.957  -5.046  10.717 -0.04 -0.73    -0.650 OA
DOCKED: BRANCH  32  34
DOCKED: ATOM     34  O   UNL d   1      12.827  -2.977   9.934 -0.37 -1.35    -0.776 OA
DOCKED: ATOM     35  H   UNL d   1      13.493  -2.321  10.183 +0.02 +0.15    +0.167 HD
DOCKED: ENDBRANCH  32  34
DOCKED: ENDBRANCH  31  32
DOCKED: ENDBRANCH  30  31
DOCKED: ENDBRANCH   6  30
DOCKED: BRANCH  22  36
DOCKED: ATOM     36  C   UNL d   1      10.584  -8.571  14.624 -0.11 +0.02    +0.052 C 
DOCKED: BRANCH  36  37
DOCKED: ATOM     37  C   UNL d   1      10.209  -9.336  13.364 -0.13 +0.06    +0.115 C 
DOCKED: BRANCH  37  38
DOCKED: ATOM     38  C   UNL d   1      10.254 -10.820  13.600 -0.09 +0.16    +0.139 C 
DOCKED: ATOM     39  O   UNL d   1       9.862 -11.601  12.746 -0.55 -0.92    -0.650 OA
DOCKED: BRANCH  38  40
DOCKED: ATOM     40  O   UNL d   1      10.726 -11.299  14.765 -0.06 -1.29    -0.776 OA
DOCKED: ATOM     41  H   UNL d   1      11.574 -10.973  15.098 +0.01 +0.15    +0.167 HD
DOCKED: ENDBRANCH  38  40
DOCKED: ENDBRANCH  37  38
DOCKED: ENDBRANCH  36  37
DOCKED: ENDBRANCH  22  36
DOCKED: BRANCH  12  42
DOCKED: ATOM     42  C   UNL d   1       3.666  -0.375  17.972 -0.49 -0.00    +0.004 C 
DOCKED: ATOM     43  C   UNL d   1       2.344  -0.590  17.973 -0.47 -0.01    +0.012 C 
DOCKED: ENDBRANCH  12  42
DOCKED: BRANCH  17  44
DOCKED: ATOM     44  C   UNL d   1       4.263  -8.192  19.466 -0.15 -0.00    +0.004 C 
DOCKED: ATOM     45  C   UNL d   1       5.096  -8.778  20.332 -0.11 -0.00    +0.012 C 
DOCKED: ENDBRANCH  17  44
DOCKED: TORSDOF 10
DOCKED: TER
DOCKED: ENDMDL
________________________________________________________________________________


	BEGINNING GENETIC ALGORITHM DOCKING 83 of 100
Run: 83 Seed: 998256929 602467500 [ Run 83 of 100 GA/GALS ]
Beginning LAMARCKIAN GENETIC ALGORITHM (LGA), with a maximum of 25000000 energy evaluations.

Final-Value: -12.544


	FINAL GENETIC ALGORITHM DOCKED STATE
	_______________________________________________


Detailed state:  trans 7.408 -4.708 15.218 quatxyzw -0.188058 0.900067 -0.150325 0.363204 center -0.174 -0.001 -0.047 ntor 10 33.2674 170.9092 -179.9707 33.8401 -145.3756 122.0164 -70.2060 -6.1590 -165.0064 18.0840
State:	  7.408  -4.708  15.218  -0.202  0.966 -0.161 137.406     33.27  170.91 -179.97   33.84 -145.38  122.02  -70.21   -6.16 -165.01   18.08

DOCKED: MODEL       83
DOCKED: USER    Run = 83
DOCKED: USER    DPF = D:/Protein_go_brrr/autodock/final/mut_N102T/heme_Fe/dock.dpf
DOCKED: USER  
DOCKED: USER    Estimated Free Energy of Binding    =   -7.40 kcal/mol  [=(1)+(2)+(3)-(4)]
DOCKED: USER    Estimated Inhibition Constant, Ki   =    3.80 uM (micromolar)  [Temperature = 298.15 K]
DOCKED: USER    
DOCKED: USER    (1) Final Intermolecular Energy     =  -10.38 kcal/mol
DOCKED: USER        vdW + Hbond + desolv Energy     =   -7.56 kcal/mol
DOCKED: USER        Electrostatic Energy            =   -2.81 kcal/mol
DOCKED: USER    (2) Final Total Internal Energy     =   -2.17 kcal/mol
DOCKED: USER    (3) Torsional Free Energy           =   +2.98 kcal/mol
DOCKED: USER    (4) Unbound System's Energy  [=(2)] =   -2.17 kcal/mol
DOCKED: USER    
DOCKED: USER    
DOCKED: USER    NEWDPF move heme_Fe_opt.pdbqt
DOCKED: USER    NEWDPF about -0.174000 -0.001000 -0.047000
DOCKED: USER    NEWDPF tran0 7.408289 -4.707558 15.218188
DOCKED: USER    NEWDPF quaternion0 -0.188058 0.900067 -0.150325 0.363204
DOCKED: USER    NEWDPF axisangle0 -0.201842 0.966037 -0.161343 137.405855
DOCKED: USER    NEWDPF quat0 -0.201842 0.966037 -0.161343 137.405855
DOCKED: USER    NEWDPF dihe0 33.27 170.91 -179.97 33.84 -145.38 122.02 -70.21 -6.16 -165.01 18.08 
DOCKED: USER  keepresnum = 1 
DOCKED: USER  
DOCKED: REMARK  10 active torsions:
DOCKED: REMARK  status: ('A' for Active; 'I' for Inactive)
DOCKED: REMARK    1  A    between atoms: C_6  and  C_10 
DOCKED: REMARK    2  A    between atoms: C_10  and  C_11 
DOCKED: REMARK    3  A    between atoms: C_11  and  C_12 
DOCKED: REMARK    4  A    between atoms: C_12  and  O_14 
DOCKED: REMARK    5  A    between atoms: C_17  and  C_20 
DOCKED: REMARK    6  A    between atoms: C_24  and  C_27 
DOCKED: REMARK    7  A    between atoms: C_31  and  C_34 
DOCKED: REMARK    8  A    between atoms: C_34  and  C_35 
DOCKED: REMARK    9  A    between atoms: C_35  and  C_36 
DOCKED: REMARK   10  A    between atoms: C_36  and  O_38 
DOCKED: USER                              x       y       z     vdW  Elec       q    Type
DOCKED: USER                           _______ _______ _______ _____ _____    ______ ____
DOCKED: ROOT
DOCKED: ATOM      1  C   UNL d   1       8.435  -4.522  13.451 -0.13 +0.01    +0.064 C 
DOCKED: ATOM      2  C   UNL d   1       7.610  -8.220  16.625 -0.22 +0.01    +0.064 A 
DOCKED: ATOM      3  C   UNL d   1       4.105  -5.622  18.634 -0.16 -0.01    +0.064 C 
DOCKED: ATOM      4  C   UNL d   1       4.958  -1.989  15.640 -0.25 -0.01    +0.064 C 
DOCKED: ATOM      5  C   UNL d   1       8.584  -5.770  14.212 -0.12 +0.01    +0.066 A 
DOCKED: ATOM      6  C   UNL d   1       9.568  -6.719  13.990 -0.13 -0.01    -0.021 A 
DOCKED: ATOM      7  C   UNL d   1       9.336  -7.748  14.869 -0.16 -0.01    -0.025 A 
DOCKED: ATOM      8  C   UNL d   1       8.217  -7.386  15.595 -0.19 +0.01    +0.066 A 
DOCKED: ATOM      9  C   UNL d   1      10.157  -8.992  15.010 -0.15 +0.02    +0.051 C 
DOCKED: ATOM     10  C   UNL d   1       6.566  -7.871  17.379 -0.23 +0.00    +0.066 A 
DOCKED: ATOM     11  C   UNL d   1       5.935  -8.735  18.277 -0.21 +0.00    -0.021 A 
DOCKED: ATOM     12  C   UNL d   1       4.910  -8.015  18.858 -0.13 -0.00    +0.000 A 
DOCKED: ATOM     13  C   UNL d   1       4.964  -6.738  18.271 -0.17 -0.01    +0.070 A 
DOCKED: ATOM     14  C   UNL d   1       6.250 -10.197  18.521 -0.23 +0.01    +0.052 C 
DOCKED: ATOM     15  C   UNL d   1       4.119  -4.407  18.036 -0.12 -0.01    +0.066 A 
DOCKED: ATOM     16  C   UNL d   1       3.352  -3.336  18.478 -0.10 +0.00    -0.021 A 
DOCKED: ATOM     17  C   UNL d   1       3.594  -2.288  17.613 -0.21 -0.00    +0.000 A 
DOCKED: ATOM     18  C   UNL d   1       4.501  -2.747  16.661 -0.17 -0.01    +0.070 A 
DOCKED: ATOM     19  C   UNL d   1       2.409  -3.303  19.650 -0.08 -0.02    +0.052 C 
DOCKED: ATOM     20  C   UNL d   1       5.959  -2.418  14.656 -0.19 -0.00    +0.066 A 
DOCKED: ATOM     21  C   UNL d   1       6.291  -1.723  13.484 -0.27 -0.00    -0.025 A 
DOCKED: ATOM     22  C   UNL d   1       7.293  -2.456  12.882 -0.20 -0.00    -0.021 A 
DOCKED: ATOM     23  C   UNL d   1       7.526  -3.566  13.703 -0.11 +0.01    +0.066 A 
DOCKED: ATOM     24  C   UNL d   1       5.701  -0.439  12.948 -0.47 -0.00    +0.051 C 
DOCKED: ATOM     25  N   UNL d   1       7.768  -6.179  15.200 +0.06 -0.03    -0.248 N 
DOCKED: ATOM     26  N   UNL d   1       5.967  -6.653  17.364 -0.14 +0.01    -0.248 N 
DOCKED: ATOM     27  N   UNL d   1       4.858  -4.035  16.946 -0.08 +0.02    -0.248 N 
DOCKED: ATOM     28  N   UNL d   1       6.678  -3.561  14.760 -0.04 -0.01    -0.248 N 
DOCKED: ATOM     29 FE   UNL d   1       6.322  -5.105  16.061 -0.04 +0.00    +0.000 Fe
DOCKED: ENDROOT
DOCKED: BRANCH   6  30
DOCKED: ATOM     30  C   UNL d   1      10.686  -6.646  13.008 -0.09 +0.02    +0.052 C 
DOCKED: BRANCH  30  31
DOCKED: ATOM     31  C   UNL d   1      10.181  -6.909  11.593 -0.14 +0.06    +0.115 C 
DOCKED: BRANCH  31  32
DOCKED: ATOM     32  C   UNL d   1      10.224  -5.648  10.776 -0.12 +0.15    +0.139 C 
DOCKED: ATOM     33  O   UNL d   1       9.371  -5.426   9.928 -0.09 -0.82    -0.650 OA
DOCKED: BRANCH  32  34
DOCKED: ATOM     34  O   UNL d   1      11.205  -4.751  10.970 +0.04 -1.01    -0.776 OA
DOCKED: ATOM     35  H   UNL d   1      11.012  -3.811  10.852 +0.02 +0.24    +0.167 HD
DOCKED: ENDBRANCH  32  34
DOCKED: ENDBRANCH  31  32
DOCKED: ENDBRANCH  30  31
DOCKED: ENDBRANCH   6  30
DOCKED: BRANCH  22  36
DOCKED: ATOM     36  C   UNL d   1       7.953  -2.131  11.568 -0.17 +0.01    +0.052 C 
DOCKED: BRANCH  36  37
DOCKED: ATOM     37  C   UNL d   1       9.422  -1.809  11.797 -0.17 +0.05    +0.115 C 
DOCKED: BRANCH  37  38
DOCKED: ATOM     38  C   UNL d   1      10.147  -1.646  10.491 -0.09 +0.12    +0.139 C 
DOCKED: ATOM     39  O   UNL d   1      10.730  -0.606  10.225 -0.58 -0.47    -0.650 OA
DOCKED: BRANCH  38  40
DOCKED: ATOM     40  O   UNL d   1      10.157  -2.653   9.599 -0.25 -1.50    -0.776 OA
DOCKED: ATOM     41  H   UNL d   1       9.813  -3.518   9.862 +0.05 +0.36    +0.167 HD
DOCKED: ENDBRANCH  38  40
DOCKED: ENDBRANCH  37  38
DOCKED: ENDBRANCH  36  37
DOCKED: ENDBRANCH  22  36
DOCKED: BRANCH  12  42
DOCKED: ATOM     42  C   UNL d   1       3.959  -8.551  19.880 -0.18 -0.00    +0.004 C 
DOCKED: ATOM     43  C   UNL d   1       2.638  -8.365  19.757 -0.22 -0.00    +0.012 C 
DOCKED: ENDBRANCH  12  42
DOCKED: BRANCH  17  44
DOCKED: ATOM     44  C   UNL d   1       3.011  -0.930  17.705 -0.45 -0.00    +0.004 C 
DOCKED: ATOM     45  C   UNL d   1       3.599   0.019  18.440 -0.47 -0.00    +0.012 C 
DOCKED: ENDBRANCH  17  44
DOCKED: TORSDOF 10
DOCKED: TER
DOCKED: ENDMDL
________________________________________________________________________________


	BEGINNING GENETIC ALGORITHM DOCKING 84 of 100
Run: 84 Seed: 57776230 423024008 [ Run 84 of 100 GA/GALS ]
Beginning LAMARCKIAN GENETIC ALGORITHM (LGA), with a maximum of 25000000 energy evaluations.

Final-Value: -11.111


	FINAL GENETIC ALGORITHM DOCKED STATE
	_______________________________________________


Detailed state:  trans 14.325 -4.280 5.203 quatxyzw 0.531031 0.293469 -0.660526 0.442253 center -0.174 -0.001 -0.047 ntor 10 -31.0509 -46.7339 17.3348 63.2274 62.0207 82.4253 -80.0052 93.7232 166.7942 -178.3268
State:	 14.325  -4.280   5.203   0.592  0.327 -0.736 127.505    -31.05  -46.73   17.33   63.23   62.02   82.43  -80.01   93.72  166.79 -178.33

DOCKED: MODEL       84
DOCKED: USER    Run = 84
DOCKED: USER    DPF = D:/Protein_go_brrr/autodock/final/mut_N102T/heme_Fe/dock.dpf
DOCKED: USER  
DOCKED: USER    Estimated Free Energy of Binding    =   -5.64 kcal/mol  [=(1)+(2)+(3)-(4)]
DOCKED: USER    Estimated Inhibition Constant, Ki   =   72.95 uM (micromolar)  [Temperature = 298.15 K]
DOCKED: USER    
DOCKED: USER    (1) Final Intermolecular Energy     =   -8.63 kcal/mol
DOCKED: USER        vdW + Hbond + desolv Energy     =   -6.33 kcal/mol
DOCKED: USER        Electrostatic Energy            =   -2.30 kcal/mol
DOCKED: USER    (2) Final Total Internal Energy     =   -2.48 kcal/mol
DOCKED: USER    (3) Torsional Free Energy           =   +2.98 kcal/mol
DOCKED: USER    (4) Unbound System's Energy  [=(2)] =   -2.48 kcal/mol
DOCKED: USER    
DOCKED: USER    
DOCKED: USER    NEWDPF move heme_Fe_opt.pdbqt
DOCKED: USER    NEWDPF about -0.174000 -0.001000 -0.047000
DOCKED: USER    NEWDPF tran0 14.324912 -4.279933 5.202915
DOCKED: USER    NEWDPF quaternion0 0.531031 0.293469 -0.660526 0.442253
DOCKED: USER    NEWDPF axisangle0 0.592080 0.327208 -0.736462 127.504506
DOCKED: USER    NEWDPF quat0 0.592080 0.327208 -0.736462 127.504506
DOCKED: USER    NEWDPF dihe0 -31.05 -46.73 17.33 63.23 62.02 82.43 -80.01 93.72 166.79 -178.33 
DOCKED: USER  keepresnum = 1 
DOCKED: USER  
DOCKED: REMARK  10 active torsions:
DOCKED: REMARK  status: ('A' for Active; 'I' for Inactive)
DOCKED: REMARK    1  A    between atoms: C_6  and  C_10 
DOCKED: REMARK    2  A    between atoms: C_10  and  C_11 
DOCKED: REMARK    3  A    between atoms: C_11  and  C_12 
DOCKED: REMARK    4  A    between atoms: C_12  and  O_14 
DOCKED: REMARK    5  A    between atoms: C_17  and  C_20 
DOCKED: REMARK    6  A    between atoms: C_24  and  C_27 
DOCKED: REMARK    7  A    between atoms: C_31  and  C_34 
DOCKED: REMARK    8  A    between atoms: C_34  and  C_35 
DOCKED: REMARK    9  A    between atoms: C_35  and  C_36 
DOCKED: REMARK   10  A    between atoms: C_36  and  O_38 
DOCKED: USER                              x       y       z     vdW  Elec       q    Type
DOCKED: USER                           _______ _______ _______ _____ _____    ______ ____
DOCKED: ROOT
DOCKED: ATOM      1  C   UNL d   1      13.919  -5.985   6.269 -0.06 +0.05    +0.064 C 
DOCKED: ATOM      2  C   UNL d   1      14.847  -1.278   7.455 -0.12 +0.03    +0.064 A 
DOCKED: ATOM      3  C   UNL d   1      14.065  -0.043   2.880 -0.34 +0.01    +0.064 C 
DOCKED: ATOM      4  C   UNL d   1      13.265  -4.607   1.690 -0.21 -0.01    +0.064 C 
DOCKED: ATOM      5  C   UNL d   1      14.334  -4.787   7.010 +0.00 +0.06    +0.066 A 
DOCKED: ATOM      6  C   UNL d   1      14.748  -4.778   8.332 -0.08 -0.02    -0.021 A 
DOCKED: ATOM      7  C   UNL d   1      15.002  -3.470   8.662 -0.08 -0.02    -0.025 A 
DOCKED: ATOM      8  C   UNL d   1      14.734  -2.729   7.527 -0.11 +0.05    +0.066 A 
DOCKED: ATOM      9  C   UNL d   1      15.492  -2.972   9.987 -0.03 +0.02    +0.051 C 
DOCKED: ATOM     10  C   UNL d   1      14.650  -0.545   6.357 -0.17 +0.02    +0.066 A 
DOCKED: ATOM     11  C   UNL d   1      14.654   0.852   6.347 -0.23 -0.00    -0.021 A 
DOCKED: ATOM     12  C   UNL d   1      14.414   1.233   5.042 -0.35 +0.00    +0.000 A 
DOCKED: ATOM     13  C   UNL d   1      14.266   0.037   4.318 -0.28 +0.02    +0.070 A 
DOCKED: ATOM     14  C   UNL d   1      14.811   1.779   7.535 -0.19 +0.01    +0.052 C 
DOCKED: ATOM     15  C   UNL d   1      13.870  -1.190   2.187 -0.29 +0.01    +0.066 A 
DOCKED: ATOM     16  C   UNL d   1      13.781  -1.233   0.801 -0.35 -0.00    -0.021 A 
DOCKED: ATOM     17  C   UNL d   1      13.547  -2.548   0.456 -0.28 -0.00    +0.000 A 
DOCKED: ATOM     18  C   UNL d   1      13.494  -3.277   1.641 -0.23 -0.00    +0.070 A 
DOCKED: ATOM     19  C   UNL d   1      13.885  -0.080  -0.162 -0.38 +0.00    +0.052 C 
DOCKED: ATOM     20  C   UNL d   1      13.264  -5.418   2.913 -0.12 +0.00    +0.066 A 
DOCKED: ATOM     21  C   UNL d   1      12.834  -6.749   3.003 -0.09 +0.00    -0.025 A 
DOCKED: ATOM     22  C   UNL d   1      13.041  -7.126   4.313 -0.08 -0.00    -0.021 A 
DOCKED: ATOM     23  C   UNL d   1      13.580  -6.013   4.970 -0.08 +0.03    +0.066 A 
DOCKED: ATOM     24  C   UNL d   1      12.253  -7.628   1.919 -0.13 -0.02    +0.051 C 
DOCKED: ATOM     25  N   UNL d   1      14.337  -3.534   6.521 -0.06 -0.21    -0.248 N 
DOCKED: ATOM     26  N   UNL d   1      14.401  -1.047   5.121 -0.14 -0.08    -0.248 N 
DOCKED: ATOM     27  N   UNL d   1      13.737  -2.451   2.703 -0.17 -0.04    -0.248 N 
DOCKED: ATOM     28  N   UNL d   1      13.673  -4.961   4.122 -0.09 -0.08    -0.248 N 
DOCKED: ATOM     29 FE   UNL d   1      14.036  -3.005   4.620 -0.05 +0.00    +0.000 Fe
DOCKED: ENDROOT
DOCKED: BRANCH   6  30
DOCKED: ATOM     30  C   UNL d   1      14.914  -5.954   9.233 -0.05 +0.03    +0.052 C 
DOCKED: BRANCH  30  31
DOCKED: ATOM     31  C   UNL d   1      13.760  -6.043  10.225 -0.05 +0.09    +0.115 C 
DOCKED: BRANCH  31  32
DOCKED: ATOM     32  C   UNL d   1      12.752  -7.061   9.769 -0.06 +0.13    +0.139 C 
DOCKED: ATOM     33  O   UNL d   1      13.065  -8.238   9.650 +0.00 -0.32    -0.650 OA
DOCKED: BRANCH  32  34
DOCKED: ATOM     34  O   UNL d   1      11.493  -6.686   9.487 -0.37 -1.28    -0.776 OA
DOCKED: ATOM     35  H   UNL d   1      11.000  -7.167   8.808 +0.02 +0.23    +0.167 HD
DOCKED: ENDBRANCH  32  34
DOCKED: ENDBRANCH  31  32
DOCKED: ENDBRANCH  30  31
DOCKED: ENDBRANCH   6  30
DOCKED: BRANCH  22  36
DOCKED: ATOM     36  C   UNL d   1      12.693  -8.464   4.910 -0.06 +0.01    +0.052 C 
DOCKED: BRANCH  36  37
DOCKED: ATOM     37  C   UNL d   1      11.213  -8.501   5.260 -0.13 +0.03    +0.115 C 
DOCKED: BRANCH  37  38
DOCKED: ATOM     38  C   UNL d   1      10.972  -7.953   6.638 -0.16 +0.08    +0.139 C 
DOCKED: ATOM     39  O   UNL d   1      10.890  -6.749   6.827 +0.00 -0.87    -0.650 OA
DOCKED: BRANCH  38  40
DOCKED: ATOM     40  O   UNL d   1      10.847  -8.793   7.681 +0.03 -0.36    -0.776 OA
DOCKED: ATOM     41  H   UNL d   1      11.337  -8.609   8.495 +0.04 +0.09    +0.167 HD
DOCKED: ENDBRANCH  38  40
DOCKED: ENDBRANCH  37  38
DOCKED: ENDBRANCH  36  37
DOCKED: ENDBRANCH  22  36
DOCKED: BRANCH  12  42
DOCKED: ATOM     42  C   UNL d   1      14.321   2.648   4.567 -0.32 +0.00    +0.004 C 
DOCKED: ATOM     43  C   UNL d   1      15.385   3.460   4.608 -0.27 +0.00    +0.012 C 
DOCKED: ENDBRANCH  12  42
DOCKED: BRANCH  17  44
DOCKED: ATOM     44  C   UNL d   1      13.403  -3.075  -0.920 -0.01 -0.00    +0.004 C 
DOCKED: ATOM     45  C   UNL d   1      14.272  -3.967  -1.406 -0.18 -0.00    +0.012 C 
DOCKED: ENDBRANCH  17  44
DOCKED: TORSDOF 10
DOCKED: TER
DOCKED: ENDMDL
________________________________________________________________________________


	BEGINNING GENETIC ALGORITHM DOCKING 85 of 100
Run: 85 Seed: 1464710039 425110976 [ Run 85 of 100 GA/GALS ]
Beginning LAMARCKIAN GENETIC ALGORITHM (LGA), with a maximum of 25000000 energy evaluations.

Final-Value: -10.771


	FINAL GENETIC ALGORITHM DOCKED STATE
	_______________________________________________


Detailed state:  trans 3.643 15.255 -12.892 quatxyzw -0.528956 0.321802 0.090637 0.780021 center -0.174 -0.001 -0.047 ntor 10 -105.8037 -129.3932 170.1485 -160.1462 -55.4337 57.3436 -50.4286 -87.0070 -7.8038 176.7566
State:	  3.643  15.255 -12.892  -0.845  0.514  0.145 77.475   -105.80 -129.39  170.15 -160.15  -55.43   57.34  -50.43  -87.01   -7.80  176.76

DOCKED: MODEL       85
DOCKED: USER    Run = 85
DOCKED: USER    DPF = D:/Protein_go_brrr/autodock/final/mut_N102T/heme_Fe/dock.dpf
DOCKED: USER  
DOCKED: USER    Estimated Free Energy of Binding    =   -7.05 kcal/mol  [=(1)+(2)+(3)-(4)]
DOCKED: USER    Estimated Inhibition Constant, Ki   =    6.76 uM (micromolar)  [Temperature = 298.15 K]
DOCKED: USER    
DOCKED: USER    (1) Final Intermolecular Energy     =  -10.04 kcal/mol
DOCKED: USER        vdW + Hbond + desolv Energy     =   -9.17 kcal/mol
DOCKED: USER        Electrostatic Energy            =   -0.87 kcal/mol
DOCKED: USER    (2) Final Total Internal Energy     =   -0.74 kcal/mol
DOCKED: USER    (3) Torsional Free Energy           =   +2.98 kcal/mol
DOCKED: USER    (4) Unbound System's Energy  [=(2)] =   -0.74 kcal/mol
DOCKED: USER    
DOCKED: USER    
DOCKED: USER    NEWDPF move heme_Fe_opt.pdbqt
DOCKED: USER    NEWDPF about -0.174000 -0.001000 -0.047000
DOCKED: USER    NEWDPF tran0 3.643298 15.254887 -12.892339
DOCKED: USER    NEWDPF quaternion0 -0.528956 0.321802 0.090637 0.780021
DOCKED: USER    NEWDPF axisangle0 -0.845312 0.514264 0.144845 77.474935
DOCKED: USER    NEWDPF quat0 -0.845312 0.514264 0.144845 77.474935
DOCKED: USER    NEWDPF dihe0 -105.80 -129.39 170.15 -160.15 -55.43 57.34 -50.43 -87.01 -7.80 176.76 
DOCKED: USER  keepresnum = 1 
DOCKED: USER  
DOCKED: REMARK  10 active torsions:
DOCKED: REMARK  status: ('A' for Active; 'I' for Inactive)
DOCKED: REMARK    1  A    between atoms: C_6  and  C_10 
DOCKED: REMARK    2  A    between atoms: C_10  and  C_11 
DOCKED: REMARK    3  A    between atoms: C_11  and  C_12 
DOCKED: REMARK    4  A    between atoms: C_12  and  O_14 
DOCKED: REMARK    5  A    between atoms: C_17  and  C_20 
DOCKED: REMARK    6  A    between atoms: C_24  and  C_27 
DOCKED: REMARK    7  A    between atoms: C_31  and  C_34 
DOCKED: REMARK    8  A    between atoms: C_34  and  C_35 
DOCKED: REMARK    9  A    between atoms: C_35  and  C_36 
DOCKED: REMARK   10  A    between atoms: C_36  and  O_38 
DOCKED: USER                              x       y       z     vdW  Elec       q    Type
DOCKED: USER                           _______ _______ _______ _____ _____    ______ ____
DOCKED: ROOT
DOCKED: ATOM      1  C   UNL d   1       1.799  15.776 -13.625 -0.25 -0.00    +0.064 C 
DOCKED: ATOM      2  C   UNL d   1       5.412  12.756 -15.125 -0.25 -0.05    +0.064 A 
DOCKED: ATOM      3  C   UNL d   1       7.363  13.028 -10.744 -0.24 -0.02    +0.064 C 
DOCKED: ATOM      4  C   UNL d   1       3.934  16.035  -9.303 -0.27 -0.02    +0.064 C 
DOCKED: ATOM      5  C   UNL d   1       2.681  14.968 -14.478 -0.26 -0.01    +0.066 A 
DOCKED: ATOM      6  C   UNL d   1       2.496  14.761 -15.835 -0.31 +0.00    -0.021 A 
DOCKED: ATOM      7  C   UNL d   1       3.498  13.919 -16.250 -0.31 +0.01    -0.025 A 
DOCKED: ATOM      8  C   UNL d   1       4.256  13.644 -15.129 -0.29 -0.03    +0.066 A 
DOCKED: ATOM      9  C   UNL d   1       3.716  13.429 -17.649 -0.28 -0.02    +0.051 C 
DOCKED: ATOM     10  C   UNL d   1       6.195  12.519 -14.071 -0.27 -0.03    +0.066 A 
DOCKED: ATOM     11  C   UNL d   1       7.225  11.575 -14.067 -0.27 +0.01    -0.021 A 
DOCKED: ATOM     12  C   UNL d   1       7.793  11.622 -12.810 -0.25 -0.00    +0.000 A 
DOCKED: ATOM     13  C   UNL d   1       7.067  12.595 -12.101 -0.20 -0.03    +0.070 A 
DOCKED: ATOM     14  C   UNL d   1       7.606  10.626 -15.185 -0.32 -0.03    +0.052 C 
DOCKED: ATOM     15  C   UNL d   1       6.636  13.926 -10.040 -0.20 -0.03    +0.066 A 
DOCKED: ATOM     16  C   UNL d   1       7.009  14.387  -8.784 -0.22 +0.01    -0.021 A 
DOCKED: ATOM     17  C   UNL d   1       6.019  15.252  -8.365 -0.22 -0.00    +0.000 A 
DOCKED: ATOM     18  C   UNL d   1       5.062  15.296  -9.376 -0.23 -0.03    +0.070 A 
DOCKED: ATOM     19  C   UNL d   1       8.234  14.011  -7.995 -0.21 -0.04    +0.052 C 
DOCKED: ATOM     20  C   UNL d   1       2.935  16.154 -10.372 -0.20 -0.02    +0.066 A 
DOCKED: ATOM     21  C   UNL d   1       1.673  16.751 -10.239 -0.18 +0.01    -0.025 A 
DOCKED: ATOM     22  C   UNL d   1       1.087  16.677 -11.485 -0.17 +0.00    -0.021 A 
DOCKED: ATOM     23  C   UNL d   1       2.006  16.036 -12.324 -0.21 -0.01    +0.066 A 
DOCKED: ATOM     24  C   UNL d   1       1.042  17.357  -9.007 -0.13 -0.01    +0.051 C 
DOCKED: ATOM     25  N   UNL d   1       3.762  14.291 -14.054 -0.20 +0.08    -0.248 N 
DOCKED: ATOM     26  N   UNL d   1       6.087  13.136 -12.866 -0.01 +0.13    -0.248 N 
DOCKED: ATOM     27  N   UNL d   1       5.461  14.515 -10.425 +0.13 +0.13    -0.248 N 
DOCKED: ATOM     28  N   UNL d   1       3.113  15.680 -11.629 -0.16 +0.09    -0.248 N 
DOCKED: ATOM     29 FE   UNL d   1       4.600  14.409 -12.246 -0.06 -0.00    +0.000 Fe
DOCKED: ENDROOT
DOCKED: BRANCH   6  30
DOCKED: ATOM     30  C   UNL d   1       1.435  15.350 -16.701 -0.26 +0.02    +0.052 C 
DOCKED: BRANCH  30  31
DOCKED: ATOM     31  C   UNL d   1       1.809  16.765 -17.127 -0.15 +0.03    +0.115 C 
DOCKED: BRANCH  31  32
DOCKED: ATOM     32  C   UNL d   1       1.669  16.920 -18.616 -0.11 +0.08    +0.139 C 
DOCKED: ATOM     33  O   UNL d   1       2.258  16.168 -19.380 -0.02 -0.25    -0.650 OA
DOCKED: BRANCH  32  34
DOCKED: ATOM     34  O   UNL d   1       0.891  17.892 -19.123 -0.25 -0.95    -0.776 OA
DOCKED: ATOM     35  H   UNL d   1       1.204  18.807 -19.093 +0.00 +0.15    +0.167 HD
DOCKED: ENDBRANCH  32  34
DOCKED: ENDBRANCH  31  32
DOCKED: ENDBRANCH  30  31
DOCKED: ENDBRANCH   6  30
DOCKED: BRANCH  22  36
DOCKED: ATOM     36  C   UNL d   1      -0.299  17.153 -11.836 -0.12 -0.00    +0.052 C 
DOCKED: BRANCH  36  37
DOCKED: ATOM     37  C   UNL d   1      -1.309  16.054 -11.539 -0.19 -0.01    +0.115 C 
DOCKED: BRANCH  37  38
DOCKED: ATOM     38  C   UNL d   1      -1.864  16.193 -10.150 -0.21 -0.01    +0.139 C 
DOCKED: ATOM     39  O   UNL d   1      -2.421  17.223  -9.799 +0.01 +0.02    -0.650 OA
DOCKED: BRANCH  38  40
DOCKED: ATOM     40  O   UNL d   1      -1.747  15.178  -9.276 -0.22 +0.04    -0.776 OA
DOCKED: ATOM     41  H   UNL d   1      -0.880  14.771  -9.141 -0.44 -0.04    +0.167 HD
DOCKED: ENDBRANCH  38  40
DOCKED: ENDBRANCH  37  38
DOCKED: ENDBRANCH  36  37
DOCKED: ENDBRANCH  22  36
DOCKED: BRANCH  12  42
DOCKED: ATOM     42  C   UNL d   1       8.933  10.768 -12.352 -0.30 -0.00    +0.004 C 
DOCKED: ATOM     43  C   UNL d   1       8.973  10.282 -11.105 -0.36 -0.00    +0.012 C 
DOCKED: ENDBRANCH  12  42
DOCKED: BRANCH  17  44
DOCKED: ATOM     44  C   UNL d   1       6.001  16.003  -7.089 -0.19 -0.00    +0.004 C 
DOCKED: ATOM     45  C   UNL d   1       5.183  15.645  -6.095 -0.29 -0.01    +0.012 C 
DOCKED: ENDBRANCH  17  44
DOCKED: TORSDOF 10
DOCKED: TER
DOCKED: ENDMDL
________________________________________________________________________________


	BEGINNING GENETIC ALGORITHM DOCKING 86 of 100
Run: 86 Seed: 588592040 450397945 [ Run 86 of 100 GA/GALS ]
Beginning LAMARCKIAN GENETIC ALGORITHM (LGA), with a maximum of 25000000 energy evaluations.

Final-Value: -10.972


	FINAL GENETIC ALGORITHM DOCKED STATE
	_______________________________________________


Detailed state:  trans 3.585 14.425 -12.404 quatxyzw -0.810982 0.058325 -0.260136 -0.520803 center -0.174 -0.001 -0.047 ntor 10 -172.0703 -132.0816 85.1071 -130.3940 81.2489 -65.4473 -65.9563 -43.0164 -21.9203 -166.6290
State:	  3.585  14.425 -12.404  -0.950  0.068 -0.305 -117.228   -172.07 -132.08   85.11 -130.39   81.25  -65.45  -65.96  -43.02  -21.92 -166.63

DOCKED: MODEL       86
DOCKED: USER    Run = 86
DOCKED: USER    DPF = D:/Protein_go_brrr/autodock/final/mut_N102T/heme_Fe/dock.dpf
DOCKED: USER  
DOCKED: USER    Estimated Free Energy of Binding    =   -7.32 kcal/mol  [=(1)+(2)+(3)-(4)]
DOCKED: USER    Estimated Inhibition Constant, Ki   =    4.33 uM (micromolar)  [Temperature = 298.15 K]
DOCKED: USER    
DOCKED: USER    (1) Final Intermolecular Energy     =  -10.30 kcal/mol
DOCKED: USER        vdW + Hbond + desolv Energy     =   -9.50 kcal/mol
DOCKED: USER        Electrostatic Energy            =   -0.80 kcal/mol
DOCKED: USER    (2) Final Total Internal Energy     =   -0.67 kcal/mol
DOCKED: USER    (3) Torsional Free Energy           =   +2.98 kcal/mol
DOCKED: USER    (4) Unbound System's Energy  [=(2)] =   -0.67 kcal/mol
DOCKED: USER    
DOCKED: USER    
DOCKED: USER    NEWDPF move heme_Fe_opt.pdbqt
DOCKED: USER    NEWDPF about -0.174000 -0.001000 -0.047000
DOCKED: USER    NEWDPF tran0 3.584838 14.424868 -12.403729
DOCKED: USER    NEWDPF quaternion0 -0.810982 0.058325 -0.260136 -0.520803
DOCKED: USER    NEWDPF axisangle0 -0.949987 0.068322 -0.304725 -117.227735
DOCKED: USER    NEWDPF quat0 -0.949987 0.068322 -0.304725 -117.227735
DOCKED: USER    NEWDPF dihe0 -172.07 -132.08 85.11 -130.39 81.25 -65.45 -65.96 -43.02 -21.92 -166.63 
DOCKED: USER  keepresnum = 1 
DOCKED: USER  
DOCKED: REMARK  10 active torsions:
DOCKED: REMARK  status: ('A' for Active; 'I' for Inactive)
DOCKED: REMARK    1  A    between atoms: C_6  and  C_10 
DOCKED: REMARK    2  A    between atoms: C_10  and  C_11 
DOCKED: REMARK    3  A    between atoms: C_11  and  C_12 
DOCKED: REMARK    4  A    between atoms: C_12  and  O_14 
DOCKED: REMARK    5  A    between atoms: C_17  and  C_20 
DOCKED: REMARK    6  A    between atoms: C_24  and  C_27 
DOCKED: REMARK    7  A    between atoms: C_31  and  C_34 
DOCKED: REMARK    8  A    between atoms: C_34  and  C_35 
DOCKED: REMARK    9  A    between atoms: C_35  and  C_36 
DOCKED: REMARK   10  A    between atoms: C_36  and  O_38 
DOCKED: USER                              x       y       z     vdW  Elec       q    Type
DOCKED: USER                           _______ _______ _______ _____ _____    ______ ____
DOCKED: ROOT
DOCKED: ATOM      1  C   UNL d   1       2.132  15.609 -13.239 -0.28 -0.01    +0.064 C 
DOCKED: ATOM      2  C   UNL d   1       4.585  15.615  -8.948 -0.26 -0.02    +0.064 A 
DOCKED: ATOM      3  C   UNL d   1       7.762  12.550 -10.839 -0.25 -0.02    +0.064 C 
DOCKED: ATOM      4  C   UNL d   1       5.345  12.448 -14.966 -0.30 -0.05    +0.064 C 
DOCKED: ATOM      5  C   UNL d   1       2.481  15.830 -11.829 -0.23 -0.02    +0.066 A 
DOCKED: ATOM      6  C   UNL d   1       1.727  16.572 -10.934 -0.19 +0.01    -0.021 A 
DOCKED: ATOM      7  C   UNL d   1       2.411  16.576  -9.744 -0.22 +0.01    -0.025 A 
DOCKED: ATOM      8  C   UNL d   1       3.557  15.835  -9.958 -0.23 -0.03    +0.066 A 
DOCKED: ATOM      9  C   UNL d   1       1.970  17.239  -8.475 -0.08 -0.02    +0.051 C 
DOCKED: ATOM     10  C   UNL d   1       5.671  14.857  -9.110 -0.24 -0.03    +0.066 A 
DOCKED: ATOM     11  C   UNL d   1       6.694  14.757  -8.165 -0.21 +0.01    -0.021 A 
DOCKED: ATOM     12  C   UNL d   1       7.631  13.892  -8.694 -0.21 -0.00    +0.000 A 
DOCKED: ATOM     13  C   UNL d   1       7.130  13.512  -9.950 -0.21 -0.03    +0.070 A 
DOCKED: ATOM     14  C   UNL d   1       6.808  15.504  -6.851 -0.19 -0.04    +0.052 C 
DOCKED: ATOM     15  C   UNL d   1       7.310  12.219 -12.072 -0.24 -0.02    +0.066 A 
DOCKED: ATOM     16  C   UNL d   1       7.887  11.222 -12.849 -0.25 +0.01    -0.021 A 
DOCKED: ATOM     17  C   UNL d   1       7.193  11.194 -14.042 -0.28 -0.00    +0.000 A 
DOCKED: ATOM     18  C   UNL d   1       6.211  12.178 -13.965 -0.30 -0.04    +0.070 A 
DOCKED: ATOM     19  C   UNL d   1       9.059  10.347 -12.498 -0.30 -0.01    +0.052 C 
DOCKED: ATOM     20  C   UNL d   1       4.259  13.433 -14.899 -0.31 -0.03    +0.066 A 
DOCKED: ATOM     21  C   UNL d   1       3.487  13.864 -15.987 -0.32 +0.01    -0.025 A 
DOCKED: ATOM     22  C   UNL d   1       2.569  14.755 -15.469 -0.30 +0.00    -0.021 A 
DOCKED: ATOM     23  C   UNL d   1       2.821  14.837 -14.095 -0.27 -0.01    +0.066 A 
DOCKED: ATOM     24  C   UNL d   1       3.601  13.467 -17.440 -0.31 -0.02    +0.051 C 
DOCKED: ATOM     25  N   UNL d   1       3.592  15.375 -11.224 -0.14 +0.11    -0.248 N 
DOCKED: ATOM     26  N   UNL d   1       5.939  14.106 -10.209 -0.04 +0.12    -0.248 N 
DOCKED: ATOM     27  N   UNL d   1       6.254  12.780 -12.738 -0.09 +0.13    -0.248 N 
DOCKED: ATOM     28  N   UNL d   1       3.882  14.064 -13.760 -0.20 +0.10    -0.248 N 
DOCKED: ATOM     29 FE   UNL d   1       4.911  14.084 -11.986 -0.05 -0.00    +0.000 Fe
DOCKED: ENDROOT
DOCKED: BRANCH   6  30
DOCKED: ATOM     30  C   UNL d   1       0.412  17.226 -11.189 -0.14 -0.01    +0.052 C 
DOCKED: BRANCH  30  31
DOCKED: ATOM     31  C   UNL d   1      -0.676  16.183 -11.415 -0.21 -0.01    +0.115 C 
DOCKED: BRANCH  31  32
DOCKED: ATOM     32  C   UNL d   1      -1.689  16.231 -10.304 -0.21 -0.01    +0.139 C 
DOCKED: ATOM     33  O   UNL d   1      -2.582  17.067 -10.310 +0.03 +0.01    -0.650 OA
DOCKED: BRANCH  32  34
DOCKED: ATOM     34  O   UNL d   1      -1.620  15.352  -9.290 -0.21 +0.05    -0.776 OA
DOCKED: ATOM     35  H   UNL d   1      -0.851  14.769  -9.226 -0.46 -0.05    +0.167 HD
DOCKED: ENDBRANCH  32  34
DOCKED: ENDBRANCH  31  32
DOCKED: ENDBRANCH  30  31
DOCKED: ENDBRANCH   6  30
DOCKED: BRANCH  22  36
DOCKED: ATOM     36  C   UNL d   1       1.542  15.519 -16.262 -0.28 +0.01    +0.052 C 
DOCKED: BRANCH  36  37
DOCKED: ATOM     37  C   UNL d   1       2.233  16.564 -17.125 -0.14 +0.03    +0.115 C 
DOCKED: BRANCH  37  38
DOCKED: ATOM     38  C   UNL d   1       1.656  16.584 -18.512 -0.09 +0.07    +0.139 C 
DOCKED: ATOM     39  O   UNL d   1       1.781  15.622 -19.256 -0.03 -0.29    -0.650 OA
DOCKED: BRANCH  38  40
DOCKED: ATOM     40  O   UNL d   1       0.996  17.672 -18.949 -0.13 -0.81    -0.776 OA
DOCKED: ATOM     41  H   UNL d   1       1.392  18.545 -18.820 +0.01 +0.13    +0.167 HD
DOCKED: ENDBRANCH  38  40
DOCKED: ENDBRANCH  37  38
DOCKED: ENDBRANCH  36  37
DOCKED: ENDBRANCH  22  36
DOCKED: BRANCH  12  42
DOCKED: ATOM     42  C   UNL d   1       8.909  13.499  -8.022 -0.23 -0.00    +0.004 C 
DOCKED: ATOM     43  C   UNL d   1       9.287  12.216  -7.958 -0.27 -0.01    +0.012 C 
DOCKED: ENDBRANCH  12  42
DOCKED: BRANCH  17  44
DOCKED: ATOM     44  C   UNL d   1       7.441  10.270 -15.172 -0.34 -0.00    +0.004 C 
DOCKED: ATOM     45  C   UNL d   1       8.477  10.460 -15.996 -0.29 -0.00    +0.012 C 
DOCKED: ENDBRANCH  17  44
DOCKED: TORSDOF 10
DOCKED: TER
DOCKED: ENDMDL
________________________________________________________________________________


	BEGINNING GENETIC ALGORITHM DOCKING 87 of 100
Run: 87 Seed: 1723489162 877499082 [ Run 87 of 100 GA/GALS ]
Beginning LAMARCKIAN GENETIC ALGORITHM (LGA), with a maximum of 25000000 energy evaluations.

Final-Value: -10.999


	FINAL GENETIC ALGORITHM DOCKED STATE
	_______________________________________________


Detailed state:  trans 9.189 -5.246 10.527 quatxyzw 0.233801 0.572748 -0.775414 0.126611 center -0.174 -0.001 -0.047 ntor 10 167.4517 -180.0000 169.0944 57.2088 131.3682 -105.2160 -17.3600 -123.7786 -149.5795 -8.3769
State:	  9.189  -5.246  10.527   0.236  0.577 -0.782 165.452    167.45 -180.00  169.09   57.21  131.37 -105.22  -17.36 -123.78 -149.58   -8.38

DOCKED: MODEL       87
DOCKED: USER    Run = 87
DOCKED: USER    DPF = D:/Protein_go_brrr/autodock/final/mut_N102T/heme_Fe/dock.dpf
DOCKED: USER  
DOCKED: USER    Estimated Free Energy of Binding    =   -6.29 kcal/mol  [=(1)+(2)+(3)-(4)]
DOCKED: USER    Estimated Inhibition Constant, Ki   =   24.70 uM (micromolar)  [Temperature = 298.15 K]
DOCKED: USER    
DOCKED: USER    (1) Final Intermolecular Energy     =   -9.27 kcal/mol
DOCKED: USER        vdW + Hbond + desolv Energy     =   -7.69 kcal/mol
DOCKED: USER        Electrostatic Energy            =   -1.58 kcal/mol
DOCKED: USER    (2) Final Total Internal Energy     =   -1.73 kcal/mol
DOCKED: USER    (3) Torsional Free Energy           =   +2.98 kcal/mol
DOCKED: USER    (4) Unbound System's Energy  [=(2)] =   -1.73 kcal/mol
DOCKED: USER    
DOCKED: USER    
DOCKED: USER    NEWDPF move heme_Fe_opt.pdbqt
DOCKED: USER    NEWDPF about -0.174000 -0.001000 -0.047000
DOCKED: USER    NEWDPF tran0 9.189125 -5.245752 10.527473
DOCKED: USER    NEWDPF quaternion0 0.233801 0.572748 -0.775414 0.126611
DOCKED: USER    NEWDPF axisangle0 0.235697 0.577395 -0.781704 165.452457
DOCKED: USER    NEWDPF quat0 0.235697 0.577395 -0.781704 165.452457
DOCKED: USER    NEWDPF dihe0 167.45 -180.00 169.09 57.21 131.37 -105.22 -17.36 -123.78 -149.58 -8.38 
DOCKED: USER  keepresnum = 1 
DOCKED: USER  
DOCKED: REMARK  10 active torsions:
DOCKED: REMARK  status: ('A' for Active; 'I' for Inactive)
DOCKED: REMARK    1  A    between atoms: C_6  and  C_10 
DOCKED: REMARK    2  A    between atoms: C_10  and  C_11 
DOCKED: REMARK    3  A    between atoms: C_11  and  C_12 
DOCKED: REMARK    4  A    between atoms: C_12  and  O_14 
DOCKED: REMARK    5  A    between atoms: C_17  and  C_20 
DOCKED: REMARK    6  A    between atoms: C_24  and  C_27 
DOCKED: REMARK    7  A    between atoms: C_31  and  C_34 
DOCKED: REMARK    8  A    between atoms: C_34  and  C_35 
DOCKED: REMARK    9  A    between atoms: C_35  and  C_36 
DOCKED: REMARK   10  A    between atoms: C_36  and  O_38 
DOCKED: USER                              x       y       z     vdW  Elec       q    Type
DOCKED: USER                           _______ _______ _______ _____ _____    ______ ____
DOCKED: ROOT
DOCKED: ATOM      1  C   UNL d   1      10.616  -6.588  11.139 -0.15 +0.05    +0.064 C 
DOCKED: ATOM      2  C   UNL d   1       7.341  -3.695  13.449 -0.09 +0.01    +0.064 A 
DOCKED: ATOM      3  C   UNL d   1       5.061  -3.056   9.271 -0.16 +0.01    +0.064 C 
DOCKED: ATOM      4  C   UNL d   1       8.280  -5.767   6.995 -0.19 +0.04    +0.064 C 
DOCKED: ATOM      5  C   UNL d   1       9.954  -5.765  12.161 -0.12 +0.03    +0.066 A 
DOCKED: ATOM      6  C   UNL d   1      10.400  -5.612  13.464 -0.06 -0.01    -0.021 A 
DOCKED: ATOM      7  C   UNL d   1       9.487  -4.812  14.105 -0.07 -0.01    -0.025 A 
DOCKED: ATOM      8  C   UNL d   1       8.519  -4.506  13.169 -0.12 +0.02    +0.066 A 
DOCKED: ATOM      9  C   UNL d   1       9.561  -4.356  15.531 -0.04 +0.01    +0.051 C 
DOCKED: ATOM     10  C   UNL d   1       6.422  -3.339  12.550 -0.15 +0.01    +0.066 A 
DOCKED: ATOM     11  C   UNL d   1       5.246  -2.657  12.873 -0.31 +0.00    -0.021 A 
DOCKED: ATOM     12  C   UNL d   1       4.563  -2.476  11.687 -0.43 +0.00    +0.000 A 
DOCKED: ATOM     13  C   UNL d   1       5.361  -3.069  10.694 -0.29 +0.01    +0.070 A 
DOCKED: ATOM     14  C   UNL d   1       4.763  -2.260  14.253 -0.28 -0.01    +0.052 C 
DOCKED: ATOM     15  C   UNL d   1       5.800  -3.670   8.317 -0.12 +0.02    +0.066 A 
DOCKED: ATOM     16  C   UNL d   1       5.536  -3.551   6.958 -0.23 -0.01    -0.021 A 
DOCKED: ATOM     17  C   UNL d   1       6.461  -4.335   6.300 -0.41 +0.00    +0.000 A 
DOCKED: ATOM     18  C   UNL d   1       7.267  -4.918   7.275 -0.36 +0.03    +0.070 A 
DOCKED: ATOM     19  C   UNL d   1       4.441  -2.753   6.303 -0.34 +0.01    +0.052 C 
DOCKED: ATOM     20  C   UNL d   1       9.188  -6.351   7.990 -0.07 +0.07    +0.066 A 
DOCKED: ATOM     21  C   UNL d   1      10.107  -7.380   7.741 -0.16 -0.02    -0.025 A 
DOCKED: ATOM     22  C   UNL d   1      10.771  -7.590   8.933 -0.14 -0.02    -0.021 A 
DOCKED: ATOM     23  C   UNL d   1      10.229  -6.689   9.858 -0.09 +0.07    +0.066 A 
DOCKED: ATOM     24  C   UNL d   1      10.353  -8.136   6.456 -0.22 +0.02    +0.051 C 
DOCKED: ATOM     25  N   UNL d   1       8.810  -5.080  11.984 -0.11 -0.11    -0.248 N 
DOCKED: ATOM     26  N   UNL d   1       6.491  -3.602  11.221 -0.13 -0.05    -0.248 N 
DOCKED: ATOM     27  N   UNL d   1       6.890  -4.476   8.512 -0.25 -0.10    -0.248 N 
DOCKED: ATOM     28  N   UNL d   1       9.233  -5.968   9.289 -0.10 -0.30    -0.248 N 
DOCKED: ATOM     29 FE   UNL d   1       7.862  -4.786  10.253 -0.05 +0.00    +0.000 Fe
DOCKED: ENDROOT
DOCKED: BRANCH   6  30
DOCKED: ATOM     30  C   UNL d   1      11.640  -6.179  14.064 -0.02 +0.01    +0.052 C 
DOCKED: BRANCH  30  31
DOCKED: ATOM     31  C   UNL d   1      11.625  -7.702  14.000 -0.04 +0.03    +0.115 C 
DOCKED: BRANCH  31  32
DOCKED: ATOM     32  C   UNL d   1      13.009  -8.251  14.204 -0.00 +0.04    +0.139 C 
DOCKED: ATOM     33  O   UNL d   1      13.209  -9.156  15.002 +0.02 -0.17    -0.650 OA
DOCKED: BRANCH  32  34
DOCKED: ATOM     34  O   UNL d   1      14.044  -7.750  13.509 +0.01 -0.18    -0.776 OA
DOCKED: ATOM     35  H   UNL d   1      13.866  -7.170  12.755 +0.01 +0.05    +0.167 HD
DOCKED: ENDBRANCH  32  34
DOCKED: ENDBRANCH  31  32
DOCKED: ENDBRANCH  30  31
DOCKED: ENDBRANCH   6  30
DOCKED: BRANCH  22  36
DOCKED: ATOM     36  C   UNL d   1      11.831  -8.630   9.178 -0.11 +0.03    +0.052 C 
DOCKED: BRANCH  36  37
DOCKED: ATOM     37  C   UNL d   1      13.200  -8.060   8.835 -0.06 +0.06    +0.115 C 
DOCKED: BRANCH  37  38
DOCKED: ATOM     38  C   UNL d   1      13.461  -6.792   9.598 -0.06 +0.12    +0.139 C 
DOCKED: ATOM     39  O   UNL d   1      13.405  -5.705   9.042 +0.04 -1.04    -0.650 OA
DOCKED: BRANCH  38  40
DOCKED: ATOM     40  O   UNL d   1      13.764  -6.846  10.907 +0.02 -0.39    -0.776 OA
DOCKED: ATOM     41  H   UNL d   1      13.806  -7.708  11.344 +0.01 +0.06    +0.167 HD
DOCKED: ENDBRANCH  38  40
DOCKED: ENDBRANCH  37  38
DOCKED: ENDBRANCH  36  37
DOCKED: ENDBRANCH  22  36
DOCKED: BRANCH  12  42
DOCKED: ATOM     42  C   UNL d   1       3.236  -1.796  11.559 -0.59 -0.00    +0.004 C 
DOCKED: ATOM     43  C   UNL d   1       2.320  -2.233  10.684 -0.58 +0.00    +0.012 C 
DOCKED: ENDBRANCH  12  42
DOCKED: BRANCH  17  44
DOCKED: ATOM     44  C   UNL d   1       6.579  -4.499   4.834 -0.51 +0.00    +0.004 C 
DOCKED: ATOM     45  C   UNL d   1       7.627  -4.000   4.171 -0.59 +0.00    +0.012 C 
DOCKED: ENDBRANCH  17  44
DOCKED: TORSDOF 10
DOCKED: TER
DOCKED: ENDMDL
________________________________________________________________________________


	BEGINNING GENETIC ALGORITHM DOCKING 88 of 100
Run: 88 Seed: 1813391612 1624269135 [ Run 88 of 100 GA/GALS ]
Beginning LAMARCKIAN GENETIC ALGORITHM (LGA), with a maximum of 25000000 energy evaluations.

Final-Value: -15.589


	FINAL GENETIC ALGORITHM DOCKED STATE
	_______________________________________________


Detailed state:  trans 6.252 -3.791 6.978 quatxyzw -0.249999 -0.575447 0.777737 0.038546 center -0.174 -0.001 -0.047 ntor 10 142.6326 28.0552 77.9045 -122.4478 112.7583 -164.5951 73.9482 19.3820 10.1376 140.8100
State:	  6.252  -3.791   6.978  -0.250 -0.576  0.778 175.582    142.63   28.06   77.90 -122.45  112.76 -164.60   73.95   19.38   10.14  140.81

DOCKED: MODEL       88
DOCKED: USER    Run = 88
DOCKED: USER    DPF = D:/Protein_go_brrr/autodock/final/mut_N102T/heme_Fe/dock.dpf
DOCKED: USER  
DOCKED: USER    Estimated Free Energy of Binding    =  -12.24 kcal/mol  [=(1)+(2)+(3)-(4)]
DOCKED: USER    Estimated Inhibition Constant, Ki   =    1.06 nM (nanomolar)  [Temperature = 298.15 K]
DOCKED: USER    
DOCKED: USER    (1) Final Intermolecular Energy     =  -15.23 kcal/mol
DOCKED: USER        vdW + Hbond + desolv Energy     =  -12.34 kcal/mol
DOCKED: USER        Electrostatic Energy            =   -2.89 kcal/mol
DOCKED: USER    (2) Final Total Internal Energy     =   -0.36 kcal/mol
DOCKED: USER    (3) Torsional Free Energy           =   +2.98 kcal/mol
DOCKED: USER    (4) Unbound System's Energy  [=(2)] =   -0.36 kcal/mol
DOCKED: USER    
DOCKED: USER    
DOCKED: USER    NEWDPF move heme_Fe_opt.pdbqt
DOCKED: USER    NEWDPF about -0.174000 -0.001000 -0.047000
DOCKED: USER    NEWDPF tran0 6.252047 -3.790650 6.977727
DOCKED: USER    NEWDPF quaternion0 -0.249999 -0.575447 0.777737 0.038546
DOCKED: USER    NEWDPF axisangle0 -0.250185 -0.575875 0.778316 175.581888
DOCKED: USER    NEWDPF quat0 -0.250185 -0.575875 0.778316 175.581888
DOCKED: USER    NEWDPF dihe0 142.63 28.06 77.90 -122.45 112.76 -164.60 73.95 19.38 10.14 140.81 
DOCKED: USER  keepresnum = 1 
DOCKED: USER  
DOCKED: REMARK  10 active torsions:
DOCKED: REMARK  status: ('A' for Active; 'I' for Inactive)
DOCKED: REMARK    1  A    between atoms: C_6  and  C_10 
DOCKED: REMARK    2  A    between atoms: C_10  and  C_11 
DOCKED: REMARK    3  A    between atoms: C_11  and  C_12 
DOCKED: REMARK    4  A    between atoms: C_12  and  O_14 
DOCKED: REMARK    5  A    between atoms: C_17  and  C_20 
DOCKED: REMARK    6  A    between atoms: C_24  and  C_27 
DOCKED: REMARK    7  A    between atoms: C_31  and  C_34 
DOCKED: REMARK    8  A    between atoms: C_34  and  C_35 
DOCKED: REMARK    9  A    between atoms: C_35  and  C_36 
DOCKED: REMARK   10  A    between atoms: C_36  and  O_38 
DOCKED: USER                              x       y       z     vdW  Elec       q    Type
DOCKED: USER                           _______ _______ _______ _____ _____    ______ ____
DOCKED: ROOT
DOCKED: ATOM      1  C   UNL d   1       7.776  -4.709   8.001 -0.39 +0.05    +0.064 C 
DOCKED: ATOM      2  C   UNL d   1       3.502  -2.586   9.289 -0.42 +0.01    +0.064 A 
DOCKED: ATOM      3  C   UNL d   1       2.116  -2.747   4.694 -0.45 +0.00    +0.064 C 
DOCKED: ATOM      4  C   UNL d   1       6.287  -4.705   3.409 -0.25 +0.01    +0.064 C 
DOCKED: ATOM      5  C   UNL d   1       6.735  -4.020   8.777 -0.23 +0.03    +0.066 A 
DOCKED: ATOM      6  C   UNL d   1       6.836  -3.693  10.119 -0.17 -0.01    -0.021 A 
DOCKED: ATOM      7  C   UNL d   1       5.647  -3.107  10.477 -0.29 -0.00    -0.025 A 
DOCKED: ATOM      8  C   UNL d   1       4.866  -3.099   9.338 -0.28 +0.01    +0.066 A 
DOCKED: ATOM      9  C   UNL d   1       5.299  -2.572  11.833 -0.38 +0.00    +0.051 C 
DOCKED: ATOM     10  C   UNL d   1       2.748  -2.514   8.192 -0.36 +0.01    +0.066 A 
DOCKED: ATOM     11  C   UNL d   1       1.406  -2.125   8.198 -0.49 -0.00    -0.021 A 
DOCKED: ATOM     12  C   UNL d   1       0.978  -2.179   6.886 -0.50 +0.00    +0.000 A 
DOCKED: ATOM     13  C   UNL d   1       2.089  -2.610   6.142 -0.40 +0.01    +0.070 A 
DOCKED: ATOM     14  C   UNL d   1       0.553  -1.785   9.403 -0.54 +0.00    +0.052 C 
DOCKED: ATOM     15  C   UNL d   1       3.167  -3.211   3.978 -0.38 +0.00    +0.066 A 
DOCKED: ATOM     16  C   UNL d   1       3.188  -3.233   2.589 -0.23 -0.00    -0.021 A 
DOCKED: ATOM     17  C   UNL d   1       4.389  -3.801   2.216 -0.43 +0.00    +0.000 A 
DOCKED: ATOM     18  C   UNL d   1       5.072  -4.116   3.389 -0.43 +0.00    +0.070 A 
DOCKED: ATOM     19  C   UNL d   1       2.113  -2.763   1.647 -0.41 +0.00    +0.052 C 
DOCKED: ATOM     20  C   UNL d   1       7.062  -4.996   4.621 -0.24 +0.01    +0.066 A 
DOCKED: ATOM     21  C   UNL d   1       8.223  -5.781   4.672 -0.02 -0.01    -0.025 A 
DOCKED: ATOM     22  C   UNL d   1       8.637  -5.757   5.987 -0.06 -0.01    -0.021 A 
DOCKED: ATOM     23  C   UNL d   1       7.714  -4.970   6.685 -0.33 +0.04    +0.066 A 
DOCKED: ATOM     24  C   UNL d   1       8.911  -6.520   3.548 -0.17 +0.01    +0.051 C 
DOCKED: ATOM     25  N   UNL d   1       5.534  -3.646   8.303 -0.13 -0.08    -0.248 N 
DOCKED: ATOM     26  N   UNL d   1       3.166  -2.823   6.938 -0.09 -0.07    -0.248 N 
DOCKED: ATOM     27  N   UNL d   1       4.340  -3.715   4.471 -0.27 -0.02    -0.248 N 
DOCKED: ATOM     28  N   UNL d   1       6.731  -4.545   5.855 -0.27 -0.07    -0.248 N 
DOCKED: ATOM     29 FE   UNL d   1       4.949  -3.685   6.395 -0.09 +0.00    +0.000 Fe
DOCKED: ENDROOT
DOCKED: BRANCH   6  30
DOCKED: ATOM     30  C   UNL d   1       8.009  -3.906  11.014 -0.25 +0.02    +0.052 C 
DOCKED: BRANCH  30  31
DOCKED: ATOM     31  C   UNL d   1       8.812  -2.619  11.167 -0.17 +0.06    +0.115 C 
DOCKED: BRANCH  31  32
DOCKED: ATOM     32  C   UNL d   1      10.093  -2.701  10.384 -0.10 +0.17    +0.139 C 
DOCKED: ATOM     33  O   UNL d   1      10.272  -1.988   9.407 -0.42 -0.95    -0.650 OA
DOCKED: BRANCH  32  34
DOCKED: ATOM     34  O   UNL d   1      11.055  -3.564  10.753 -0.02 -1.16    -0.776 OA
DOCKED: ATOM     35  H   UNL d   1      11.216  -3.712  11.695 +0.03 +0.13    +0.167 HD
DOCKED: ENDBRANCH  32  34
DOCKED: ENDBRANCH  31  32
DOCKED: ENDBRANCH  30  31
DOCKED: ENDBRANCH   6  30
DOCKED: BRANCH  22  36
DOCKED: ATOM     36  C   UNL d   1       9.826  -6.493   6.548 +0.21 +0.05    +0.052 C 
DOCKED: BRANCH  36  37
DOCKED: ATOM     37  C   UNL d   1       9.375  -7.420   7.667 -0.07 +0.08    +0.115 C 
DOCKED: BRANCH  37  38
DOCKED: ATOM     38  C   UNL d   1      10.534  -7.820   8.536 -0.10 +0.11    +0.139 C 
DOCKED: ATOM     39  O   UNL d   1      10.441  -8.763   9.307 +0.12 -0.31    -0.650 OA
DOCKED: BRANCH  38  40
DOCKED: ATOM     40  O   UNL d   1      11.689  -7.133   8.472 -0.56 -1.18    -0.776 OA
DOCKED: ATOM     41  H   UNL d   1      12.517  -7.585   8.686 +0.01 +0.15    +0.167 HD
DOCKED: ENDBRANCH  38  40
DOCKED: ENDBRANCH  37  38
DOCKED: ENDBRANCH  36  37
DOCKED: ENDBRANCH  22  36
DOCKED: BRANCH  12  42
DOCKED: ATOM     42  C   UNL d   1      -0.406  -1.853   6.423 -0.52 +0.00    +0.004 C 
DOCKED: ATOM     43  C   UNL d   1      -0.615  -0.947   5.459 -0.52 +0.00    +0.012 C 
DOCKED: ENDBRANCH  12  42
DOCKED: BRANCH  17  44
DOCKED: ATOM     44  C   UNL d   1       4.862  -4.008   0.829 -0.56 -0.00    +0.004 C 
DOCKED: ATOM     45  C   UNL d   1       4.267  -4.900   0.029 -0.73 -0.00    +0.012 C 
DOCKED: ENDBRANCH  17  44
DOCKED: TORSDOF 10
DOCKED: TER
DOCKED: ENDMDL
________________________________________________________________________________


	BEGINNING GENETIC ALGORITHM DOCKING 89 of 100
Run: 89 Seed: 1777488955 2070007659 [ Run 89 of 100 GA/GALS ]
Beginning LAMARCKIAN GENETIC ALGORITHM (LGA), with a maximum of 25000000 energy evaluations.

Final-Value: -10.600


	FINAL GENETIC ALGORITHM DOCKED STATE
	_______________________________________________


Detailed state:  trans -9.217 -12.566 -1.569 quatxyzw -0.462907 -0.660049 -0.523138 0.276368 center -0.174 -0.001 -0.047 ntor 10 -128.6245 -174.0350 -163.6067 -128.2008 159.1677 151.9541 -60.1999 -63.3378 180.0000 -26.0526
State:	 -9.217 -12.566  -1.569  -0.482 -0.687 -0.544 147.913   -128.62 -174.03 -163.61 -128.20  159.17  151.95  -60.20  -63.34  180.00  -26.05

DOCKED: MODEL       89
DOCKED: USER    Run = 89
DOCKED: USER    DPF = D:/Protein_go_brrr/autodock/final/mut_N102T/heme_Fe/dock.dpf
DOCKED: USER  
DOCKED: USER    Estimated Free Energy of Binding    =   -6.16 kcal/mol  [=(1)+(2)+(3)-(4)]
DOCKED: USER    Estimated Inhibition Constant, Ki   =   30.32 uM (micromolar)  [Temperature = 298.15 K]
DOCKED: USER    
DOCKED: USER    (1) Final Intermolecular Energy     =   -9.15 kcal/mol
DOCKED: USER        vdW + Hbond + desolv Energy     =   -5.56 kcal/mol
DOCKED: USER        Electrostatic Energy            =   -3.58 kcal/mol
DOCKED: USER    (2) Final Total Internal Energy     =   -1.45 kcal/mol
DOCKED: USER    (3) Torsional Free Energy           =   +2.98 kcal/mol
DOCKED: USER    (4) Unbound System's Energy  [=(2)] =   -1.45 kcal/mol
DOCKED: USER    
DOCKED: USER    
DOCKED: USER    NEWDPF move heme_Fe_opt.pdbqt
DOCKED: USER    NEWDPF about -0.174000 -0.001000 -0.047000
DOCKED: USER    NEWDPF tran0 -9.216744 -12.565769 -1.569105
DOCKED: USER    NEWDPF quaternion0 -0.462907 -0.660049 -0.523138 0.276368
DOCKED: USER    NEWDPF axisangle0 -0.481667 -0.686798 -0.544339 147.912939
DOCKED: USER    NEWDPF quat0 -0.481667 -0.686798 -0.544339 147.912939
DOCKED: USER    NEWDPF dihe0 -128.62 -174.03 -163.61 -128.20 159.17 151.95 -60.20 -63.34 180.00 -26.05 
DOCKED: USER  keepresnum = 1 
DOCKED: USER  
DOCKED: REMARK  10 active torsions:
DOCKED: REMARK  status: ('A' for Active; 'I' for Inactive)
DOCKED: REMARK    1  A    between atoms: C_6  and  C_10 
DOCKED: REMARK    2  A    between atoms: C_10  and  C_11 
DOCKED: REMARK    3  A    between atoms: C_11  and  C_12 
DOCKED: REMARK    4  A    between atoms: C_12  and  O_14 
DOCKED: REMARK    5  A    between atoms: C_17  and  C_20 
DOCKED: REMARK    6  A    between atoms: C_24  and  C_27 
DOCKED: REMARK    7  A    between atoms: C_31  and  C_34 
DOCKED: REMARK    8  A    between atoms: C_34  and  C_35 
DOCKED: REMARK    9  A    between atoms: C_35  and  C_36 
DOCKED: REMARK   10  A    between atoms: C_36  and  O_38 
DOCKED: USER                              x       y       z     vdW  Elec       q    Type
DOCKED: USER                           _______ _______ _______ _____ _____    ______ ____
DOCKED: ROOT
DOCKED: ATOM      1  C   UNL d   1      -7.955 -14.119  -2.021 -0.15 +0.03    +0.064 C 
DOCKED: ATOM      2  C   UNL d   1     -10.719 -10.996  -4.674 -0.06 +0.01    +0.064 A 
DOCKED: ATOM      3  C   UNL d   1     -11.185  -8.215  -0.785 -0.09 -0.00    +0.064 C 
DOCKED: ATOM      4  C   UNL d   1      -8.600 -11.278   1.827 -0.30 -0.00    +0.064 C 
DOCKED: ATOM      5  C   UNL d   1      -8.759 -13.541  -3.106 -0.09 +0.02    +0.066 A 
DOCKED: ATOM      6  C   UNL d   1      -8.953 -14.127  -4.346 -0.04 -0.01    -0.021 A 
DOCKED: ATOM      7  C   UNL d   1      -9.717 -13.257  -5.083 -0.04 -0.01    -0.025 A 
DOCKED: ATOM      8  C   UNL d   1      -9.961 -12.172  -4.264 -0.06 +0.01    +0.066 A 
DOCKED: ATOM      9  C   UNL d   1     -10.197 -13.474  -6.486 -0.01 +0.01    +0.051 C 
DOCKED: ATOM     10  C   UNL d   1     -11.017  -9.962  -3.885 -0.07 +0.01    +0.066 A 
DOCKED: ATOM     11  C   UNL d   1     -11.645  -8.799  -4.337 -0.04 -0.00    -0.021 A 
DOCKED: ATOM     12  C   UNL d   1     -11.776  -7.974  -3.238 -0.05 +0.00    +0.000 A 
DOCKED: ATOM     13  C   UNL d   1     -11.208  -8.680  -2.164 -0.09 +0.00    +0.070 A 
DOCKED: ATOM     14  C   UNL d   1     -12.039  -8.461  -5.761 -0.02 +0.00    +0.052 C 
DOCKED: ATOM     15  C   UNL d   1     -10.594  -8.868   0.243 -0.09 -0.01    +0.066 A 
DOCKED: ATOM     16  C   UNL d   1     -10.680  -8.441   1.562 -0.09 +0.00    -0.021 A 
DOCKED: ATOM     17  C   UNL d   1      -9.932  -9.321   2.317 -0.15 -0.00    +0.000 A 
DOCKED: ATOM     18  C   UNL d   1      -9.403 -10.263   1.438 -0.16 -0.01    +0.070 A 
DOCKED: ATOM     19  C   UNL d   1     -11.414  -7.239   2.092 -0.11 -0.01    +0.052 C 
DOCKED: ATOM     20  C   UNL d   1      -8.075 -12.324   0.941 -0.27 +0.00    +0.066 A 
DOCKED: ATOM     21  C   UNL d   1      -7.088 -13.258   1.286 -0.39 -0.00    -0.025 A 
DOCKED: ATOM     22  C   UNL d   1      -6.929 -14.066   0.179 -0.31 -0.01    -0.021 A 
DOCKED: ATOM     23  C   UNL d   1      -7.816 -13.591  -0.795 -0.18 +0.02    +0.066 A 
DOCKED: ATOM     24  C   UNL d   1      -6.327 -13.389   2.585 -0.29 -0.00    +0.051 C 
DOCKED: ATOM     25  N   UNL d   1      -9.385 -12.352  -3.059 -0.04 -0.05    -0.248 N 
DOCKED: ATOM     26  N   UNL d   1     -10.737  -9.888  -2.559 -0.08 -0.02    -0.248 N 
DOCKED: ATOM     27  N   UNL d   1      -9.844 -10.012   0.170 -0.04 +0.05    -0.248 N 
DOCKED: ATOM     28  N   UNL d   1      -8.479 -12.500  -0.340 -0.13 -0.02    -0.248 N 
DOCKED: ATOM     29 FE   UNL d   1      -9.608 -11.194  -1.448 -0.04 -0.00    +0.000 Fe
DOCKED: ENDROOT
DOCKED: BRANCH   6  30
DOCKED: ATOM     30  C   UNL d   1      -8.456 -15.456  -4.802 -0.03 +0.03    +0.052 C 
DOCKED: BRANCH  30  31
DOCKED: ATOM     31  C   UNL d   1      -7.088 -15.324  -5.462 -0.10 +0.14    +0.115 C 
DOCKED: BRANCH  31  32
DOCKED: ATOM     32  C   UNL d   1      -6.065 -16.141  -4.721 -0.13 +0.22    +0.139 C 
DOCKED: ATOM     33  O   UNL d   1      -5.027 -16.484  -5.267 -0.13 -1.45    -0.650 OA
DOCKED: BRANCH  32  34
DOCKED: ATOM     34  O   UNL d   1      -6.286 -16.502  -3.445 -0.03 -1.39    -0.776 OA
DOCKED: ATOM     35  H   UNL d   1      -7.121 -16.933  -3.217 +0.02 +0.24    +0.167 HD
DOCKED: ENDBRANCH  32  34
DOCKED: ENDBRANCH  31  32
DOCKED: ENDBRANCH  30  31
DOCKED: ENDBRANCH   6  30
DOCKED: BRANCH  22  36
DOCKED: ATOM     36  C   UNL d   1      -5.945 -15.198   0.051 -0.37 +0.04    +0.052 C 
DOCKED: BRANCH  36  37
DOCKED: ATOM     37  C   UNL d   1      -6.382 -16.360   0.931 -0.15 +0.07    +0.115 C 
DOCKED: BRANCH  37  38
DOCKED: ATOM     38  C   UNL d   1      -6.720 -17.567   0.101 -0.04 +0.17    +0.139 C 
DOCKED: ATOM     39  O   UNL d   1      -6.596 -18.694   0.557 -0.06 -0.59    -0.650 OA
DOCKED: BRANCH  38  40
DOCKED: ATOM     40  O   UNL d   1      -7.161 -17.412  -1.160 -0.38 -1.32    -0.776 OA
DOCKED: ATOM     41  H   UNL d   1      -7.177 -16.525  -1.547 +0.03 +0.24    +0.167 HD
DOCKED: ENDBRANCH  38  40
DOCKED: ENDBRANCH  37  38
DOCKED: ENDBRANCH  36  37
DOCKED: ENDBRANCH  22  36
DOCKED: BRANCH  12  42
DOCKED: ATOM     42  C   UNL d   1     -12.388  -6.609  -3.260 -0.03 +0.00    +0.004 C 
DOCKED: ATOM     43  C   UNL d   1     -11.658  -5.521  -2.981 -0.08 +0.00    +0.012 C 
DOCKED: ENDBRANCH  12  42
DOCKED: BRANCH  17  44
DOCKED: ATOM     44  C   UNL d   1      -9.752  -9.275   3.786 -0.25 -0.00    +0.004 C 
DOCKED: ATOM     45  C   UNL d   1      -8.960  -8.358   4.350 -0.33 -0.00    +0.012 C 
DOCKED: ENDBRANCH  17  44
DOCKED: TORSDOF 10
DOCKED: TER
DOCKED: ENDMDL
________________________________________________________________________________


	BEGINNING GENETIC ALGORITHM DOCKING 90 of 100
Run: 90 Seed: 1632048187 1434351056 [ Run 90 of 100 GA/GALS ]
Beginning LAMARCKIAN GENETIC ALGORITHM (LGA), with a maximum of 25000000 energy evaluations.

Final-Value: -10.640


	FINAL GENETIC ALGORITHM DOCKED STATE
	_______________________________________________


Detailed state:  trans -11.043 -0.455 -7.433 quatxyzw -0.005856 0.631570 -0.045604 -0.773954 center -0.174 -0.001 -0.047 ntor 10 179.6344 -133.4662 70.5259 59.1546 -143.1730 104.5736 -100.7817 -49.9252 173.1003 -6.6747
State:	-11.043  -0.455  -7.433  -0.009  0.997 -0.072 -78.579    179.63 -133.47   70.53   59.15 -143.17  104.57 -100.78  -49.93  173.10   -6.67

DOCKED: MODEL       90
DOCKED: USER    Run = 90
DOCKED: USER    DPF = D:/Protein_go_brrr/autodock/final/mut_N102T/heme_Fe/dock.dpf
DOCKED: USER  
DOCKED: USER    Estimated Free Energy of Binding    =   -5.95 kcal/mol  [=(1)+(2)+(3)-(4)]
DOCKED: USER    Estimated Inhibition Constant, Ki   =   43.34 uM (micromolar)  [Temperature = 298.15 K]
DOCKED: USER    
DOCKED: USER    (1) Final Intermolecular Energy     =   -8.94 kcal/mol
DOCKED: USER        vdW + Hbond + desolv Energy     =   -7.60 kcal/mol
DOCKED: USER        Electrostatic Energy            =   -1.33 kcal/mol
DOCKED: USER    (2) Final Total Internal Energy     =   -1.70 kcal/mol
DOCKED: USER    (3) Torsional Free Energy           =   +2.98 kcal/mol
DOCKED: USER    (4) Unbound System's Energy  [=(2)] =   -1.70 kcal/mol
DOCKED: USER    
DOCKED: USER    
DOCKED: USER    NEWDPF move heme_Fe_opt.pdbqt
DOCKED: USER    NEWDPF about -0.174000 -0.001000 -0.047000
DOCKED: USER    NEWDPF tran0 -11.043306 -0.454909 -7.433416
DOCKED: USER    NEWDPF quaternion0 -0.005856 0.631570 -0.045604 -0.773954
DOCKED: USER    NEWDPF axisangle0 -0.009247 0.997361 -0.072017 -78.579409
DOCKED: USER    NEWDPF quat0 -0.009247 0.997361 -0.072017 -78.579409
DOCKED: USER    NEWDPF dihe0 179.63 -133.47 70.53 59.15 -143.17 104.57 -100.78 -49.93 173.10 -6.67 
DOCKED: USER  keepresnum = 1 
DOCKED: USER  
DOCKED: REMARK  10 active torsions:
DOCKED: REMARK  status: ('A' for Active; 'I' for Inactive)
DOCKED: REMARK    1  A    between atoms: C_6  and  C_10 
DOCKED: REMARK    2  A    between atoms: C_10  and  C_11 
DOCKED: REMARK    3  A    between atoms: C_11  and  C_12 
DOCKED: REMARK    4  A    between atoms: C_12  and  O_14 
DOCKED: REMARK    5  A    between atoms: C_17  and  C_20 
DOCKED: REMARK    6  A    between atoms: C_24  and  C_27 
DOCKED: REMARK    7  A    between atoms: C_31  and  C_34 
DOCKED: REMARK    8  A    between atoms: C_34  and  C_35 
DOCKED: REMARK    9  A    between atoms: C_35  and  C_36 
DOCKED: REMARK   10  A    between atoms: C_36  and  O_38 
DOCKED: USER                              x       y       z     vdW  Elec       q    Type
DOCKED: USER                           _______ _______ _______ _____ _____    ______ ____
DOCKED: ROOT
DOCKED: ATOM      1  C   UNL d   1     -10.919  -0.385  -5.386 -0.13 +0.01    +0.064 C 
DOCKED: ATOM      2  C   UNL d   1     -10.596  -3.971  -8.772 -0.15 +0.01    +0.064 A 
DOCKED: ATOM      3  C   UNL d   1     -10.087  -0.619 -12.174 -0.19 +0.01    +0.064 C 
DOCKED: ATOM      4  C   UNL d   1     -10.503   2.869  -8.927 -0.20 +0.00    +0.064 C 
DOCKED: ATOM      5  C   UNL d   1     -10.959  -1.703  -6.034 -0.11 +0.01    +0.066 A 
DOCKED: ATOM      6  C   UNL d   1     -11.203  -2.899  -5.379 -0.12 -0.00    -0.021 A 
DOCKED: ATOM      7  C   UNL d   1     -11.109  -3.895  -6.320 -0.10 -0.00    -0.025 A 
DOCKED: ATOM      8  C   UNL d   1     -10.811  -3.268  -7.514 -0.14 +0.01    +0.066 A 
DOCKED: ATOM      9  C   UNL d   1     -11.314  -5.359  -6.079 -0.07 +0.01    +0.051 C 
DOCKED: ATOM     10  C   UNL d   1     -10.364  -3.387  -9.949 -0.19 +0.01    +0.066 A 
DOCKED: ATOM     11  C   UNL d   1     -10.048  -4.090 -11.114 -0.23 -0.00    -0.021 A 
DOCKED: ATOM     12  C   UNL d   1      -9.880  -3.144 -12.106 -0.29 +0.00    +0.000 A 
DOCKED: ATOM     13  C   UNL d   1     -10.096  -1.901 -11.487 -0.24 +0.01    +0.070 A 
DOCKED: ATOM     14  C   UNL d   1      -9.847  -5.584 -11.260 -0.17 +0.01    +0.052 C 
DOCKED: ATOM     15  C   UNL d   1     -10.244   0.584 -11.573 -0.23 +0.01    +0.066 A 
DOCKED: ATOM     16  C   UNL d   1     -10.328   1.778 -12.277 -0.25 -0.00    -0.021 A 
DOCKED: ATOM     17  C   UNL d   1     -10.445   2.786 -11.342 -0.23 +0.00    +0.000 A 
DOCKED: ATOM     18  C   UNL d   1     -10.424   2.182 -10.087 -0.21 +0.00    +0.070 A 
DOCKED: ATOM     19  C   UNL d   1     -10.276   1.970 -13.769 -0.30 +0.00    +0.052 C 
DOCKED: ATOM     20  C   UNL d   1     -10.547   2.264  -7.591 -0.16 +0.00    +0.066 A 
DOCKED: ATOM     21  C   UNL d   1     -10.427   2.962  -6.381 -0.16 +0.00    -0.025 A 
DOCKED: ATOM     22  C   UNL d   1     -10.561   2.017  -5.385 -0.20 -0.00    -0.021 A 
DOCKED: ATOM     23  C   UNL d   1     -10.750   0.785  -6.023 -0.11 +0.00    +0.066 A 
DOCKED: ATOM     24  C   UNL d   1     -10.194   4.439  -6.163 -0.14 +0.00    +0.051 C 
DOCKED: ATOM     25  N   UNL d   1     -10.730  -1.934  -7.339 -0.03 -0.05    -0.248 N 
DOCKED: ATOM     26  N   UNL d   1     -10.383  -2.048 -10.170 -0.12 -0.04    -0.248 N 
DOCKED: ATOM     27  N   UNL d   1     -10.345   0.825 -10.229 -0.14 -0.02    -0.248 N 
DOCKED: ATOM     28  N   UNL d   1     -10.695   0.935  -7.368 -0.08 -0.02    -0.248 N 
DOCKED: ATOM     29 FE   UNL d   1     -10.539  -0.554  -8.769 -0.05 +0.00    +0.000 Fe
DOCKED: ENDROOT
DOCKED: BRANCH   6  30
DOCKED: ATOM     30  C   UNL d   1     -11.530  -3.087  -3.937 -0.12 +0.01    +0.052 C 
DOCKED: BRANCH  30  31
DOCKED: ATOM     31  C   UNL d   1     -10.282  -3.462  -3.145 -0.20 +0.04    +0.115 C 
DOCKED: BRANCH  31  32
DOCKED: ATOM     32  C   UNL d   1      -9.453  -2.241  -2.859 -0.25 +0.07    +0.139 C 
DOCKED: ATOM     33  O   UNL d   1      -8.232  -2.299  -2.870 -0.10 -0.16    -0.650 OA
DOCKED: BRANCH  32  34
DOCKED: ATOM     34  O   UNL d   1     -10.051  -1.068  -2.587 -0.57 -0.67    -0.776 OA
DOCKED: ATOM     35  H   UNL d   1     -11.018  -1.024  -2.584 +0.03 +0.15    +0.167 HD
DOCKED: ENDBRANCH  32  34
DOCKED: ENDBRANCH  31  32
DOCKED: ENDBRANCH  30  31
DOCKED: ENDBRANCH   6  30
DOCKED: BRANCH  22  36
DOCKED: ATOM     36  C   UNL d   1     -10.463   2.278  -3.905 -0.14 +0.00    +0.052 C 
DOCKED: BRANCH  36  37
DOCKED: ATOM     37  C   UNL d   1     -11.841   2.606  -3.349 -0.10 +0.02    +0.115 C 
DOCKED: BRANCH  37  38
DOCKED: ATOM     38  C   UNL d   1     -12.152   1.763  -2.145 -0.11 +0.07    +0.139 C 
DOCKED: ATOM     39  O   UNL d   1     -12.104   2.239  -1.020 -0.56 -0.43    -0.650 OA
DOCKED: BRANCH  38  40
DOCKED: ATOM     40  O   UNL d   1     -12.483   0.469  -2.299 -0.06 -0.51    -0.776 OA
DOCKED: ATOM     41  H   UNL d   1     -11.953  -0.085  -2.889 +0.03 +0.09    +0.167 HD
DOCKED: ENDBRANCH  38  40
DOCKED: ENDBRANCH  37  38
DOCKED: ENDBRANCH  36  37
DOCKED: ENDBRANCH  22  36
DOCKED: BRANCH  12  42
DOCKED: ATOM     42  C   UNL d   1      -9.520  -3.448 -13.526 -0.27 +0.00    +0.004 C 
DOCKED: ATOM     43  C   UNL d   1     -10.345  -3.125 -14.530 -0.19 +0.00    +0.012 C 
DOCKED: ENDBRANCH  12  42
DOCKED: BRANCH  17  44
DOCKED: ATOM     44  C   UNL d   1     -10.587   4.231 -11.632 -0.16 -0.00    +0.004 C 
DOCKED: ATOM     45  C   UNL d   1     -11.720   4.879 -11.343 -0.12 -0.00    +0.012 C 
DOCKED: ENDBRANCH  17  44
DOCKED: TORSDOF 10
DOCKED: TER
DOCKED: ENDMDL
________________________________________________________________________________


	BEGINNING GENETIC ALGORITHM DOCKING 91 of 100
Run: 91 Seed: 1650708080 144226629 [ Run 91 of 100 GA/GALS ]
Beginning LAMARCKIAN GENETIC ALGORITHM (LGA), with a maximum of 25000000 energy evaluations.

Final-Value: -10.670


	FINAL GENETIC ALGORITHM DOCKED STATE
	_______________________________________________


Detailed state:  trans -11.480 4.361 12.793 quatxyzw -0.055765 0.732394 -0.105862 -0.670285 center -0.174 -0.001 -0.047 ntor 10 72.3797 33.0208 172.8387 -140.8362 -108.5338 -16.4736 -84.7060 81.9492 143.4239 156.9829
State:	-11.480   4.361  12.793  -0.075  0.987 -0.143 -95.822     72.38   33.02  172.84 -140.84 -108.53  -16.47  -84.71   81.95  143.42  156.98

DOCKED: MODEL       91
DOCKED: USER    Run = 91
DOCKED: USER    DPF = D:/Protein_go_brrr/autodock/final/mut_N102T/heme_Fe/dock.dpf
DOCKED: USER  
DOCKED: USER    Estimated Free Energy of Binding    =   -5.12 kcal/mol  [=(1)+(2)+(3)-(4)]
DOCKED: USER    Estimated Inhibition Constant, Ki   =  177.34 uM (micromolar)  [Temperature = 298.15 K]
DOCKED: USER    
DOCKED: USER    (1) Final Intermolecular Energy     =   -8.10 kcal/mol
DOCKED: USER        vdW + Hbond + desolv Energy     =   -7.50 kcal/mol
DOCKED: USER        Electrostatic Energy            =   -0.60 kcal/mol
DOCKED: USER    (2) Final Total Internal Energy     =   -2.57 kcal/mol
DOCKED: USER    (3) Torsional Free Energy           =   +2.98 kcal/mol
DOCKED: USER    (4) Unbound System's Energy  [=(2)] =   -2.57 kcal/mol
DOCKED: USER    
DOCKED: USER    
DOCKED: USER    NEWDPF move heme_Fe_opt.pdbqt
DOCKED: USER    NEWDPF about -0.174000 -0.001000 -0.047000
DOCKED: USER    NEWDPF tran0 -11.480276 4.360761 12.793267
DOCKED: USER    NEWDPF quaternion0 -0.055765 0.732394 -0.105862 -0.670285
DOCKED: USER    NEWDPF axisangle0 -0.075144 0.986916 -0.142652 -95.821833
DOCKED: USER    NEWDPF quat0 -0.075144 0.986916 -0.142652 -95.821833
DOCKED: USER    NEWDPF dihe0 72.38 33.02 172.84 -140.84 -108.53 -16.47 -84.71 81.95 143.42 156.98 
DOCKED: USER  keepresnum = 1 
DOCKED: USER  
DOCKED: REMARK  10 active torsions:
DOCKED: REMARK  status: ('A' for Active; 'I' for Inactive)
DOCKED: REMARK    1  A    between atoms: C_6  and  C_10 
DOCKED: REMARK    2  A    between atoms: C_10  and  C_11 
DOCKED: REMARK    3  A    between atoms: C_11  and  C_12 
DOCKED: REMARK    4  A    between atoms: C_12  and  O_14 
DOCKED: REMARK    5  A    between atoms: C_17  and  C_20 
DOCKED: REMARK    6  A    between atoms: C_24  and  C_27 
DOCKED: REMARK    7  A    between atoms: C_31  and  C_34 
DOCKED: REMARK    8  A    between atoms: C_34  and  C_35 
DOCKED: REMARK    9  A    between atoms: C_35  and  C_36 
DOCKED: REMARK   10  A    between atoms: C_36  and  O_38 
DOCKED: USER                              x       y       z     vdW  Elec       q    Type
DOCKED: USER                           _______ _______ _______ _____ _____    ______ ____
DOCKED: ROOT
DOCKED: ATOM      1  C   UNL d   1     -10.767   4.704  14.686 -0.08 +0.01    +0.064 C 
DOCKED: ATOM      2  C   UNL d   1     -11.507   0.673  11.923 -0.23 -0.01    +0.064 A 
DOCKED: ATOM      3  C   UNL d   1     -11.943   3.488   8.056 -0.28 -0.00    +0.064 C 
DOCKED: ATOM      4  C   UNL d   1     -11.333   7.409  10.729 -0.24 -0.00    +0.064 C 
DOCKED: ATOM      5  C   UNL d   1     -11.018   3.314  14.281 -0.07 +0.01    +0.066 A 
DOCKED: ATOM      6  C   UNL d   1     -11.084   2.237  15.149 -0.15 -0.00    -0.021 A 
DOCKED: ATOM      7  C   UNL d   1     -11.286   1.117  14.381 -0.17 -0.00    -0.025 A 
DOCKED: ATOM      8  C   UNL d   1     -11.336   1.555  13.071 -0.22 +0.00    +0.066 A 
DOCKED: ATOM      9  C   UNL d   1     -11.441  -0.285  14.886 -0.13 +0.01    +0.051 C 
DOCKED: ATOM     10  C   UNL d   1     -11.616   1.075  10.656 -0.23 -0.01    +0.066 A 
DOCKED: ATOM     11  C   UNL d   1     -11.664   0.200   9.567 -0.26 +0.01    -0.021 A 
DOCKED: ATOM     12  C   UNL d   1     -11.773   0.988   8.439 -0.28 -0.00    +0.000 A 
DOCKED: ATOM     13  C   UNL d   1     -11.777   2.316   8.901 -0.21 -0.01    +0.070 A 
DOCKED: ATOM     14  C   UNL d   1     -11.544  -1.310   9.595 -0.28 -0.02    +0.052 C 
DOCKED: ATOM     15  C   UNL d   1     -11.895   4.770   8.490 -0.23 -0.00    +0.066 A 
DOCKED: ATOM     16  C   UNL d   1     -12.157   5.859   7.669 -0.20 +0.00    -0.021 A 
DOCKED: ATOM     17  C   UNL d   1     -11.978   6.991   8.437 -0.21 -0.00    +0.000 A 
DOCKED: ATOM     18  C   UNL d   1     -11.607   6.565   9.710 -0.22 -0.00    +0.070 A 
DOCKED: ATOM     19  C   UNL d   1     -12.536   5.840   6.213 -0.16 -0.00    +0.052 C 
DOCKED: ATOM     20  C   UNL d   1     -10.999   6.996  12.097 -0.23 +0.00    +0.066 A 
DOCKED: ATOM     21  C   UNL d   1     -10.520   7.845  13.105 -0.24 -0.00    -0.025 A 
DOCKED: ATOM     22  C   UNL d   1     -10.377   7.056  14.228 -0.21 -0.00    -0.021 A 
DOCKED: ATOM     23  C   UNL d   1     -10.767   5.762  13.861 -0.15 +0.01    +0.066 A 
DOCKED: ATOM     24  C   UNL d   1     -10.206   9.321  13.025 -0.19 +0.00    +0.051 C 
DOCKED: ATOM     25  N   UNL d   1     -11.182   2.893  13.015 -0.15 -0.02    -0.248 N 
DOCKED: ATOM     26  N   UNL d   1     -11.672   2.369  10.252 -0.16 +0.04    -0.248 N 
DOCKED: ATOM     27  N   UNL d   1     -11.598   5.199   9.756 -0.13 +0.01    -0.248 N 
DOCKED: ATOM     28  N   UNL d   1     -11.102   5.723  12.548 -0.12 -0.02    -0.248 N 
DOCKED: ATOM     29 FE   UNL d   1     -11.387   4.048  11.400 -0.07 -0.00    +0.000 Fe
DOCKED: ENDROOT
DOCKED: BRANCH   6  30
DOCKED: ATOM     30  C   UNL d   1     -10.982   2.269  16.636 -0.09 +0.01    +0.052 C 
DOCKED: BRANCH  30  31
DOCKED: ATOM     31  C   UNL d   1      -9.919   1.292  17.126 -0.11 +0.05    +0.115 C 
DOCKED: BRANCH  31  32
DOCKED: ATOM     32  C   UNL d   1      -8.609   2.000  17.331 -0.16 +0.06    +0.139 C 
DOCKED: ATOM     33  O   UNL d   1      -7.671   1.808  16.570 -0.22 -0.50    -0.650 OA
DOCKED: BRANCH  32  34
DOCKED: ATOM     34  O   UNL d   1      -8.456   2.855  18.356 +0.05 -0.14    -0.776 OA
DOCKED: ATOM     35  H   UNL d   1      -8.416   3.804  18.175 +0.04 +0.02    +0.167 HD
DOCKED: ENDBRANCH  32  34
DOCKED: ENDBRANCH  31  32
DOCKED: ENDBRANCH  30  31
DOCKED: ENDBRANCH   6  30
DOCKED: BRANCH  22  36
DOCKED: ATOM     36  C   UNL d   1      -9.850   7.512  15.562 -0.15 +0.00    +0.052 C 
DOCKED: BRANCH  36  37
DOCKED: ATOM     37  C   UNL d   1      -8.440   6.978  15.767 -0.23 +0.00    +0.115 C 
DOCKED: BRANCH  37  38
DOCKED: ATOM     38  C   UNL d   1      -8.450   5.746  16.626 -0.17 +0.01    +0.139 C 
DOCKED: ATOM     39  O   UNL d   1      -9.426   5.465  17.305 +0.03 -0.03    -0.650 OA
DOCKED: BRANCH  38  40
DOCKED: ATOM     40  O   UNL d   1      -7.373   4.941  16.657 +0.05 -0.09    -0.776 OA
DOCKED: ATOM     41  H   UNL d   1      -7.501   3.990  16.780 +0.06 +0.03    +0.167 HD
DOCKED: ENDBRANCH  38  40
DOCKED: ENDBRANCH  37  38
DOCKED: ENDBRANCH  36  37
DOCKED: ENDBRANCH  22  36
DOCKED: BRANCH  12  42
DOCKED: ATOM     42  C   UNL d   1     -11.846   0.471   7.037 -0.31 -0.00    +0.004 C 
DOCKED: ATOM     43  C   UNL d   1     -11.187   1.079   6.043 -0.34 -0.01    +0.012 C 
DOCKED: ENDBRANCH  12  42
DOCKED: BRANCH  17  44
DOCKED: ATOM     44  C   UNL d   1     -12.171   8.388   7.987 -0.17 -0.00    +0.004 C 
DOCKED: ATOM     45  C   UNL d   1     -11.176   9.062   7.401 -0.24 -0.00    +0.012 C 
DOCKED: ENDBRANCH  17  44
DOCKED: TORSDOF 10
DOCKED: TER
DOCKED: ENDMDL
________________________________________________________________________________


	BEGINNING GENETIC ALGORITHM DOCKING 92 of 100
Run: 92 Seed: 1923076306 1362980034 [ Run 92 of 100 GA/GALS ]
Beginning LAMARCKIAN GENETIC ALGORITHM (LGA), with a maximum of 25000000 energy evaluations.

Final-Value: -13.132


	FINAL GENETIC ALGORITHM DOCKED STATE
	_______________________________________________


Detailed state:  trans 6.213 -3.535 8.999 quatxyzw -0.313459 -0.525609 0.784471 0.100417 center -0.174 -0.001 -0.047 ntor 10 -56.5839 90.2469 92.1752 -92.6994 180.0000 112.4499 -33.3130 72.7414 21.2075 65.1293
State:	  6.213  -3.535   8.999  -0.315 -0.528  0.788 168.474    -56.58   90.25   92.18  -92.70  180.00  112.45  -33.31   72.74   21.21   65.13

DOCKED: MODEL       92
DOCKED: USER    Run = 92
DOCKED: USER    DPF = D:/Protein_go_brrr/autodock/final/mut_N102T/heme_Fe/dock.dpf
DOCKED: USER  
DOCKED: USER    Estimated Free Energy of Binding    =  -10.26 kcal/mol  [=(1)+(2)+(3)-(4)]
DOCKED: USER    Estimated Inhibition Constant, Ki   =   29.94 nM (nanomolar)  [Temperature = 298.15 K]
DOCKED: USER    
DOCKED: USER    (1) Final Intermolecular Energy     =  -13.25 kcal/mol
DOCKED: USER        vdW + Hbond + desolv Energy     =  -11.60 kcal/mol
DOCKED: USER        Electrostatic Energy            =   -1.65 kcal/mol
DOCKED: USER    (2) Final Total Internal Energy     =   +0.12 kcal/mol
DOCKED: USER    (3) Torsional Free Energy           =   +2.98 kcal/mol
DOCKED: USER    (4) Unbound System's Energy  [=(2)] =   +0.12 kcal/mol
DOCKED: USER    
DOCKED: USER    
DOCKED: USER    NEWDPF move heme_Fe_opt.pdbqt
DOCKED: USER    NEWDPF about -0.174000 -0.001000 -0.047000
DOCKED: USER    NEWDPF tran0 6.213412 -3.535220 8.998975
DOCKED: USER    NEWDPF quaternion0 -0.313459 -0.525609 0.784471 0.100417
DOCKED: USER    NEWDPF axisangle0 -0.315051 -0.528279 0.788456 168.473590
DOCKED: USER    NEWDPF quat0 -0.315051 -0.528279 0.788456 168.473590
DOCKED: USER    NEWDPF dihe0 -56.58 90.25 92.18 -92.70 180.00 112.45 -33.31 72.74 21.21 65.13 
DOCKED: USER  keepresnum = 1 
DOCKED: USER  
DOCKED: REMARK  10 active torsions:
DOCKED: REMARK  status: ('A' for Active; 'I' for Inactive)
DOCKED: REMARK    1  A    between atoms: C_6  and  C_10 
DOCKED: REMARK    2  A    between atoms: C_10  and  C_11 
DOCKED: REMARK    3  A    between atoms: C_11  and  C_12 
DOCKED: REMARK    4  A    between atoms: C_12  and  O_14 
DOCKED: REMARK    5  A    between atoms: C_17  and  C_20 
DOCKED: REMARK    6  A    between atoms: C_24  and  C_27 
DOCKED: REMARK    7  A    between atoms: C_31  and  C_34 
DOCKED: REMARK    8  A    between atoms: C_34  and  C_35 
DOCKED: REMARK    9  A    between atoms: C_35  and  C_36 
DOCKED: REMARK   10  A    between atoms: C_36  and  O_38 
DOCKED: USER                              x       y       z     vdW  Elec       q    Type
DOCKED: USER                           _______ _______ _______ _____ _____    ______ ____
DOCKED: ROOT
DOCKED: ATOM      1  C   UNL d   1       7.531  -4.323  10.361 -0.30 +0.03    +0.064 C 
DOCKED: ATOM      2  C   UNL d   1       3.126  -2.102  10.663 -0.46 +0.00    +0.064 A 
DOCKED: ATOM      3  C   UNL d   1       2.536  -2.782   5.945 -0.46 +0.01    +0.064 C 
DOCKED: ATOM      4  C   UNL d   1       6.842  -4.840   5.611 -0.39 +0.02    +0.064 C 
DOCKED: ATOM      5  C   UNL d   1       6.382  -3.560  10.868 -0.20 +0.01    +0.066 A 
DOCKED: ATOM      6  C   UNL d   1       6.258  -3.086  12.164 -0.25 -0.00    -0.021 A 
DOCKED: ATOM      7  C   UNL d   1       5.033  -2.472  12.248 -0.36 +0.00    -0.025 A 
DOCKED: ATOM      8  C   UNL d   1       4.455  -2.596  10.999 -0.40 +0.00    +0.066 A 
DOCKED: ATOM      9  C   UNL d   1       4.466  -1.793  13.457 -0.10 -0.01    +0.051 C 
DOCKED: ATOM     10  C   UNL d   1       2.569  -2.157   9.452 -0.44 +0.01    +0.066 A 
DOCKED: ATOM     11  C   UNL d   1       1.250  -1.780   9.187 -0.50 -0.00    -0.021 A 
DOCKED: ATOM     12  C   UNL d   1       1.050  -1.982   7.836 -0.51 +0.00    +0.000 A 
DOCKED: ATOM     13  C   UNL d   1       2.267  -2.485   7.344 -0.40 +0.01    +0.070 A 
DOCKED: ATOM     14  C   UNL d   1       0.210  -1.314  10.185 -0.49 +0.00    +0.052 C 
DOCKED: ATOM     15  C   UNL d   1       3.688  -3.315   5.474 -0.37 +0.01    +0.066 A 
DOCKED: ATOM     16  C   UNL d   1       3.944  -3.490   4.120 -0.40 -0.00    -0.021 A 
DOCKED: ATOM     17  C   UNL d   1       5.184  -4.087   4.021 -0.47 +0.00    +0.000 A 
DOCKED: ATOM     18  C   UNL d   1       5.654  -4.266   5.320 -0.37 +0.01    +0.070 A 
DOCKED: ATOM     19  C   UNL d   1       3.050  -3.135   2.963 -0.32 +0.00    +0.052 C 
DOCKED: ATOM     20  C   UNL d   1       7.397  -4.989   6.962 -0.33 +0.03    +0.066 A 
DOCKED: ATOM     21  C   UNL d   1       8.523  -5.754   7.295 -0.25 -0.02    -0.025 A 
DOCKED: ATOM     22  C   UNL d   1       8.709  -5.582   8.651 -0.17 -0.02    -0.021 A 
DOCKED: ATOM     23  C   UNL d   1       7.690  -4.729   9.091 -0.32 +0.04    +0.066 A 
DOCKED: ATOM     24  C   UNL d   1       9.383  -6.609   6.393 -0.10 +0.04    +0.051 C 
DOCKED: ATOM     25  N   UNL d   1       5.283  -3.250  10.159 -0.23 -0.04    -0.248 N 
DOCKED: ATOM     26  N   UNL d   1       3.190  -2.600   8.329 -0.25 -0.06    -0.248 N 
DOCKED: ATOM     27  N   UNL d   1       4.755  -3.752   6.212 +0.02 -0.06    -0.248 N 
DOCKED: ATOM     28  N   UNL d   1       6.866  -4.406   8.064 -0.25 -0.10    -0.248 N 
DOCKED: ATOM     29 FE   UNL d   1       5.029  -3.504   8.195 -0.10 +0.00    +0.000 Fe
DOCKED: ENDROOT
DOCKED: BRANCH   6  30
DOCKED: ATOM     30  C   UNL d   1       7.260  -3.190  13.262 -0.18 +0.01    +0.052 C 
DOCKED: BRANCH  30  31
DOCKED: ATOM     31  C   UNL d   1       7.846  -1.821  13.590 -0.16 +0.02    +0.115 C 
DOCKED: BRANCH  31  32
DOCKED: ATOM     32  C   UNL d   1       8.165  -1.723  15.056 -0.12 +0.02    +0.139 C 
DOCKED: ATOM     33  O   UNL d   1       8.647  -0.700  15.522 -0.35 -0.23    -0.650 OA
DOCKED: BRANCH  32  34
DOCKED: ATOM     34  O   UNL d   1       7.921  -2.763  15.871 +0.05 -0.08    -0.776 OA
DOCKED: ATOM     35  H   UNL d   1       8.648  -3.131  16.392 +0.02 +0.02    +0.167 HD
DOCKED: ENDBRANCH  32  34
DOCKED: ENDBRANCH  31  32
DOCKED: ENDBRANCH  30  31
DOCKED: ENDBRANCH   6  30
DOCKED: BRANCH  22  36
DOCKED: ATOM     36  C   UNL d   1       9.777  -6.242   9.484 +0.01 +0.07    +0.052 C 
DOCKED: BRANCH  36  37
DOCKED: ATOM     37  C   UNL d   1       9.938  -5.493  10.798 -0.15 +0.11    +0.115 C 
DOCKED: BRANCH  37  38
DOCKED: ATOM     38  C   UNL d   1      11.228  -4.723  10.824 +0.14 +0.20    +0.139 C 
DOCKED: ATOM     39  O   UNL d   1      11.227  -3.501  10.820 -0.06 -0.91    -0.650 OA
DOCKED: BRANCH  38  40
DOCKED: ATOM     40  O   UNL d   1      12.402  -5.380  10.849 +0.01 -0.87    -0.776 OA
DOCKED: ATOM     41  H   UNL d   1      12.794  -5.609  11.704 +0.01 +0.10    +0.167 HD
DOCKED: ENDBRANCH  38  40
DOCKED: ENDBRANCH  37  38
DOCKED: ENDBRANCH  36  37
DOCKED: ENDBRANCH  22  36
DOCKED: BRANCH  12  42
DOCKED: ATOM     42  C   UNL d   1      -0.232  -1.719   7.112 -0.32 +0.00    +0.004 C 
DOCKED: ATOM     43  C   UNL d   1      -0.233  -1.172   5.889 -0.59 +0.00    +0.012 C 
DOCKED: ENDBRANCH  12  42
DOCKED: BRANCH  17  44
DOCKED: ATOM     44  C   UNL d   1       5.882  -4.444   2.765 -0.42 +0.00    +0.004 C 
DOCKED: ATOM     45  C   UNL d   1       5.206  -4.938   1.723 -0.34 -0.00    +0.012 C 
DOCKED: ENDBRANCH  17  44
DOCKED: TORSDOF 10
DOCKED: TER
DOCKED: ENDMDL
________________________________________________________________________________


	BEGINNING GENETIC ALGORITHM DOCKING 93 of 100
Run: 93 Seed: 535013637 416233797 [ Run 93 of 100 GA/GALS ]
Beginning LAMARCKIAN GENETIC ALGORITHM (LGA), with a maximum of 25000000 energy evaluations.

Final-Value: -10.494


	FINAL GENETIC ALGORITHM DOCKED STATE
	_______________________________________________


Detailed state:  trans -9.576 -11.134 -9.925 quatxyzw -0.344340 -0.700338 -0.214197 0.587433 center -0.174 -0.001 -0.047 ntor 10 -171.9711 -7.5572 74.0262 62.4980 90.3318 177.6022 -69.4430 -75.5861 176.1526 159.7683
State:	 -9.576 -11.134  -9.925  -0.425 -0.865 -0.265 108.050   -171.97   -7.56   74.03   62.50   90.33  177.60  -69.44  -75.59  176.15  159.77

DOCKED: MODEL       93
DOCKED: USER    Run = 93
DOCKED: USER    DPF = D:/Protein_go_brrr/autodock/final/mut_N102T/heme_Fe/dock.dpf
DOCKED: USER  
DOCKED: USER    Estimated Free Energy of Binding    =   -6.84 kcal/mol  [=(1)+(2)+(3)-(4)]
DOCKED: USER    Estimated Inhibition Constant, Ki   =    9.72 uM (micromolar)  [Temperature = 298.15 K]
DOCKED: USER    
DOCKED: USER    (1) Final Intermolecular Energy     =   -9.82 kcal/mol
DOCKED: USER        vdW + Hbond + desolv Energy     =   -7.02 kcal/mol
DOCKED: USER        Electrostatic Energy            =   -2.80 kcal/mol
DOCKED: USER    (2) Final Total Internal Energy     =   -0.67 kcal/mol
DOCKED: USER    (3) Torsional Free Energy           =   +2.98 kcal/mol
DOCKED: USER    (4) Unbound System's Energy  [=(2)] =   -0.67 kcal/mol
DOCKED: USER    
DOCKED: USER    
DOCKED: USER    NEWDPF move heme_Fe_opt.pdbqt
DOCKED: USER    NEWDPF about -0.174000 -0.001000 -0.047000
DOCKED: USER    NEWDPF tran0 -9.576040 -11.134031 -9.924639
DOCKED: USER    NEWDPF quaternion0 -0.344340 -0.700338 -0.214197 0.587433
DOCKED: USER    NEWDPF axisangle0 -0.425493 -0.865391 -0.264678 108.049927
DOCKED: USER    NEWDPF quat0 -0.425493 -0.865391 -0.264678 108.049927
DOCKED: USER    NEWDPF dihe0 -171.97 -7.56 74.03 62.50 90.33 177.60 -69.44 -75.59 176.15 159.77 
DOCKED: USER  keepresnum = 1 
DOCKED: USER  
DOCKED: REMARK  10 active torsions:
DOCKED: REMARK  status: ('A' for Active; 'I' for Inactive)
DOCKED: REMARK    1  A    between atoms: C_6  and  C_10 
DOCKED: REMARK    2  A    between atoms: C_10  and  C_11 
DOCKED: REMARK    3  A    between atoms: C_11  and  C_12 
DOCKED: REMARK    4  A    between atoms: C_12  and  O_14 
DOCKED: REMARK    5  A    between atoms: C_17  and  C_20 
DOCKED: REMARK    6  A    between atoms: C_24  and  C_27 
DOCKED: REMARK    7  A    between atoms: C_31  and  C_34 
DOCKED: REMARK    8  A    between atoms: C_34  and  C_35 
DOCKED: REMARK    9  A    between atoms: C_35  and  C_36 
DOCKED: REMARK   10  A    between atoms: C_36  and  O_38 
DOCKED: USER                              x       y       z     vdW  Elec       q    Type
DOCKED: USER                           _______ _______ _______ _____ _____    ______ ____
DOCKED: ROOT
DOCKED: ATOM      1  C   UNL d   1      -8.929 -12.683  -8.744 -0.11 +0.02    +0.064 C 
DOCKED: ATOM      2  C   UNL d   1     -10.150 -12.214 -13.511 -0.09 +0.01    +0.064 A 
DOCKED: ATOM      3  C   UNL d   1      -9.893  -7.442 -13.036 +0.02 +0.03    +0.064 C 
DOCKED: ATOM      4  C   UNL d   1      -8.814  -7.870  -8.395 -0.21 +0.01    +0.064 C 
DOCKED: ATOM      5  C   UNL d   1      -9.379 -12.991 -10.109 -0.10 +0.02    +0.066 A 
DOCKED: ATOM      6  C   UNL d   1      -9.670 -14.262 -10.578 -0.10 -0.00    -0.021 A 
DOCKED: ATOM      7  C   UNL d   1     -10.005 -14.131 -11.902 -0.10 -0.00    -0.025 A 
DOCKED: ATOM      8  C   UNL d   1      -9.906 -12.784 -12.192 -0.10 +0.01    +0.066 A 
DOCKED: ATOM      9  C   UNL d   1     -10.415 -15.240 -12.823 -0.09 +0.01    +0.051 C 
DOCKED: ATOM     10  C   UNL d   1     -10.117 -10.913 -13.803 -0.08 +0.01    +0.066 A 
DOCKED: ATOM     11  C   UNL d   1     -10.242 -10.406 -15.099 -0.07 -0.00    -0.021 A 
DOCKED: ATOM     12  C   UNL d   1     -10.155  -9.033 -14.991 -0.11 +0.00    +0.000 A 
DOCKED: ATOM     13  C   UNL d   1      -9.970  -8.770 -13.623 -0.12 +0.03    +0.070 A 
DOCKED: ATOM     14  C   UNL d   1     -10.370 -11.195 -16.386 -0.04 +0.01    +0.052 C 
DOCKED: ATOM     15  C   UNL d   1      -9.664  -7.184 -11.726 -0.10 +0.02    +0.066 A 
DOCKED: ATOM     16  C   UNL d   1      -9.696  -5.904 -11.188 -0.06 -0.01    -0.021 A 
DOCKED: ATOM     17  C   UNL d   1      -9.382  -6.025  -9.850 -0.22 +0.00    +0.000 A 
DOCKED: ATOM     18  C   UNL d   1      -9.160  -7.378  -9.604 -0.17 +0.01    +0.070 A 
DOCKED: ATOM     19  C   UNL d   1      -9.986  -4.613 -11.905 -0.21 +0.01    +0.052 C 
DOCKED: ATOM     20  C   UNL d   1      -8.632  -9.293  -8.085 -0.11 +0.01    +0.066 A 
DOCKED: ATOM     21  C   UNL d   1      -8.083  -9.801  -6.899 -0.19 -0.01    -0.025 A 
DOCKED: ATOM     22  C   UNL d   1      -8.137 -11.174  -7.015 -0.14 -0.01    -0.021 A 
DOCKED: ATOM     23  C   UNL d   1      -8.709 -11.450  -8.263 -0.09 +0.02    +0.066 A 
DOCKED: ATOM     24  C   UNL d   1      -7.529  -9.041  -5.716 -0.20 +0.01    +0.051 C 
DOCKED: ATOM     25  N   UNL d   1      -9.534 -12.092 -11.097 -0.06 -0.05    -0.248 N 
DOCKED: ATOM     26  N   UNL d   1      -9.938  -9.916 -12.899 -0.05 -0.06    -0.248 N 
DOCKED: ATOM     27  N   UNL d   1      -9.376  -8.097 -10.747 -0.09 -0.06    -0.248 N 
DOCKED: ATOM     28  N   UNL d   1      -8.968 -10.299  -8.930 -0.03 -0.05    -0.248 N 
DOCKED: ATOM     29 FE   UNL d   1      -9.452 -10.106 -10.913 -0.03 +0.00    +0.000 Fe
DOCKED: ENDROOT
DOCKED: BRANCH   6  30
DOCKED: ATOM     30  C   UNL d   1      -9.653 -15.535  -9.802 -0.09 +0.01    +0.052 C 
DOCKED: BRANCH  30  31
DOCKED: ATOM     31  C   UNL d   1      -8.311 -16.243  -9.956 -0.11 +0.05    +0.115 C 
DOCKED: BRANCH  31  32
DOCKED: ATOM     32  C   UNL d   1      -7.545 -16.205  -8.663 -0.18 +0.12    +0.139 C 
DOCKED: ATOM     33  O   UNL d   1      -7.670 -17.100  -7.838 -0.02 -0.49    -0.650 OA
DOCKED: BRANCH  32  34
DOCKED: ATOM     34  O   UNL d   1      -6.713 -15.183  -8.400 -0.51 -1.38    -0.776 OA
DOCKED: ATOM     35  H   UNL d   1      -6.703 -14.421  -8.996 -0.54 +0.16    +0.167 HD
DOCKED: ENDBRANCH  32  34
DOCKED: ENDBRANCH  31  32
DOCKED: ENDBRANCH  30  31
DOCKED: ENDBRANCH   6  30
DOCKED: BRANCH  22  36
DOCKED: ATOM     36  C   UNL d   1      -7.622 -12.163  -6.003 -0.18 +0.03    +0.052 C 
DOCKED: BRANCH  36  37
DOCKED: ATOM     37  C   UNL d   1      -6.297 -12.741  -6.477 -0.20 +0.13    +0.115 C 
DOCKED: BRANCH  37  38
DOCKED: ATOM     38  C   UNL d   1      -5.145 -12.128  -5.732 -0.36 +0.16    +0.139 C 
DOCKED: ATOM     39  O   UNL d   1      -3.998 -12.496  -5.941 -0.58 -1.06    -0.650 OA
DOCKED: BRANCH  38  40
DOCKED: ATOM     40  O   UNL d   1      -5.371 -11.165  -4.821 -0.44 -0.63    -0.776 OA
DOCKED: ATOM     41  H   UNL d   1      -4.638 -10.860  -4.268 -0.07 +0.11    +0.167 HD
DOCKED: ENDBRANCH  38  40
DOCKED: ENDBRANCH  37  38
DOCKED: ENDBRANCH  36  37
DOCKED: ENDBRANCH  22  36
DOCKED: BRANCH  12  42
DOCKED: ATOM     42  C   UNL d   1     -10.227  -8.077 -16.140 -0.11 +0.00    +0.004 C 
DOCKED: ATOM     43  C   UNL d   1     -11.161  -7.118 -16.180 -0.07 +0.00    +0.012 C 
DOCKED: ENDBRANCH  12  42
DOCKED: BRANCH  17  44
DOCKED: ATOM     44  C   UNL d   1      -9.318  -4.921  -8.866 -0.35 +0.00    +0.004 C 
DOCKED: ATOM     45  C   UNL d   1     -10.157  -4.881  -7.826 -0.20 +0.00    +0.012 C 
DOCKED: ENDBRANCH  17  44
DOCKED: TORSDOF 10
DOCKED: TER
DOCKED: ENDMDL
________________________________________________________________________________


	BEGINNING GENETIC ALGORITHM DOCKING 94 of 100
Run: 94 Seed: 1522028442 1375621948 [ Run 94 of 100 GA/GALS ]
Beginning LAMARCKIAN GENETIC ALGORITHM (LGA), with a maximum of 25000000 energy evaluations.

Final-Value: -11.467


	FINAL GENETIC ALGORITHM DOCKED STATE
	_______________________________________________


Detailed state:  trans -8.611 -13.260 -9.453 quatxyzw 0.018517 -0.768149 0.163484 0.618771 center -0.174 -0.001 -0.047 ntor 10 -113.5883 -85.4882 -163.1925 53.6238 116.5939 164.3694 80.6558 69.0159 -158.4209 155.7922
State:	 -8.611 -13.260  -9.453   0.024 -0.978  0.208 103.547   -113.59  -85.49 -163.19   53.62  116.59  164.37   80.66   69.02 -158.42  155.79

DOCKED: MODEL       94
DOCKED: USER    Run = 94
DOCKED: USER    DPF = D:/Protein_go_brrr/autodock/final/mut_N102T/heme_Fe/dock.dpf
DOCKED: USER  
DOCKED: USER    Estimated Free Energy of Binding    =   -7.81 kcal/mol  [=(1)+(2)+(3)-(4)]
DOCKED: USER    Estimated Inhibition Constant, Ki   =    1.88 uM (micromolar)  [Temperature = 298.15 K]
DOCKED: USER    
DOCKED: USER    (1) Final Intermolecular Energy     =  -10.80 kcal/mol
DOCKED: USER        vdW + Hbond + desolv Energy     =   -6.97 kcal/mol
DOCKED: USER        Electrostatic Energy            =   -3.83 kcal/mol
DOCKED: USER    (2) Final Total Internal Energy     =   -0.67 kcal/mol
DOCKED: USER    (3) Torsional Free Energy           =   +2.98 kcal/mol
DOCKED: USER    (4) Unbound System's Energy  [=(2)] =   -0.67 kcal/mol
DOCKED: USER    
DOCKED: USER    
DOCKED: USER    NEWDPF move heme_Fe_opt.pdbqt
DOCKED: USER    NEWDPF about -0.174000 -0.001000 -0.047000
DOCKED: USER    NEWDPF tran0 -8.610562 -13.260082 -9.453426
DOCKED: USER    NEWDPF quaternion0 0.018517 -0.768149 0.163484 0.618771
DOCKED: USER    NEWDPF axisangle0 0.023571 -0.977822 0.208109 103.547127
DOCKED: USER    NEWDPF quat0 0.023571 -0.977822 0.208109 103.547127
DOCKED: USER    NEWDPF dihe0 -113.59 -85.49 -163.19 53.62 116.59 164.37 80.66 69.02 -158.42 155.79 
DOCKED: USER  keepresnum = 1 
DOCKED: USER  
DOCKED: REMARK  10 active torsions:
DOCKED: REMARK  status: ('A' for Active; 'I' for Inactive)
DOCKED: REMARK    1  A    between atoms: C_6  and  C_10 
DOCKED: REMARK    2  A    between atoms: C_10  and  C_11 
DOCKED: REMARK    3  A    between atoms: C_11  and  C_12 
DOCKED: REMARK    4  A    between atoms: C_12  and  O_14 
DOCKED: REMARK    5  A    between atoms: C_17  and  C_20 
DOCKED: REMARK    6  A    between atoms: C_24  and  C_27 
DOCKED: REMARK    7  A    between atoms: C_31  and  C_34 
DOCKED: REMARK    8  A    between atoms: C_34  and  C_35 
DOCKED: REMARK    9  A    between atoms: C_35  and  C_36 
DOCKED: REMARK   10  A    between atoms: C_36  and  O_38 
DOCKED: USER                              x       y       z     vdW  Elec       q    Type
DOCKED: USER                           _______ _______ _______ _____ _____    ______ ____
DOCKED: ROOT
DOCKED: ATOM      1  C   UNL d   1      -7.649 -12.980  -7.662 -0.17 +0.04    +0.064 C 
DOCKED: ATOM      2  C   UNL d   1      -9.266 -16.924 -10.165 -0.07 +0.02    +0.064 A 
DOCKED: ATOM      3  C   UNL d   1      -9.717 -14.171 -14.075 -0.13 +0.01    +0.064 C 
DOCKED: ATOM      4  C   UNL d   1      -8.255 -10.319 -11.644 -0.30 +0.02    +0.064 C 
DOCKED: ATOM      5  C   UNL d   1      -8.142 -14.327  -7.982 -0.13 +0.04    +0.066 A 
DOCKED: ATOM      6  C   UNL d   1      -8.266 -15.361  -7.069 -0.08 -0.02    -0.021 A 
DOCKED: ATOM      7  C   UNL d   1      -8.711 -16.457  -7.766 -0.05 -0.01    -0.025 A 
DOCKED: ATOM      8  C   UNL d   1      -8.842 -16.049  -9.079 -0.09 +0.03    +0.066 A 
DOCKED: ATOM      9  C   UNL d   1      -9.010 -17.808  -7.190 -0.01 +0.02    +0.051 C 
DOCKED: ATOM     10  C   UNL d   1      -9.455 -16.541 -11.429 -0.09 +0.01    +0.066 A 
DOCKED: ATOM     11  C   UNL d   1      -9.750 -17.425 -12.470 -0.08 -0.00    -0.021 A 
DOCKED: ATOM     12  C   UNL d   1      -9.868 -16.658 -13.612 -0.10 +0.00    +0.000 A 
DOCKED: ATOM     13  C   UNL d   1      -9.629 -15.334 -13.206 -0.09 +0.01    +0.070 A 
DOCKED: ATOM     14  C   UNL d   1      -9.846 -18.936 -12.394 -0.03 +0.01    +0.052 C 
DOCKED: ATOM     15  C   UNL d   1      -9.437 -12.900 -13.701 -0.11 +0.01    +0.066 A 
DOCKED: ATOM     16  C   UNL d   1      -9.629 -11.804 -14.533 -0.12 -0.00    -0.021 A 
DOCKED: ATOM     17  C   UNL d   1      -9.204 -10.693 -13.835 -0.19 +0.00    +0.000 A 
DOCKED: ATOM     18  C   UNL d   1      -8.759 -11.138 -12.593 -0.19 +0.02    +0.070 A 
DOCKED: ATOM     19  C   UNL d   1     -10.166 -11.802 -15.939 -0.06 +0.01    +0.052 C 
DOCKED: ATOM     20  C   UNL d   1      -7.834 -10.743 -10.303 -0.26 +0.02    +0.066 A 
DOCKED: ATOM     21  C   UNL d   1      -7.129  -9.949  -9.387 -0.34 -0.01    -0.025 A 
DOCKED: ATOM     22  C   UNL d   1      -6.978 -10.723  -8.255 -0.28 -0.01    -0.021 A 
DOCKED: ATOM     23  C   UNL d   1      -7.588 -11.954  -8.525 -0.15 +0.02    +0.066 A 
DOCKED: ATOM     24  C   UNL d   1      -6.616  -8.538  -9.560 -0.44 +0.01    +0.051 C 
DOCKED: ATOM     25  N   UNL d   1      -8.504 -14.750  -9.206 -0.11 -0.11    -0.248 N 
DOCKED: ATOM     26  N   UNL d   1      -9.369 -15.263 -11.877 -0.07 -0.04    -0.248 N 
DOCKED: ATOM     27  N   UNL d   1      -8.942 -12.489 -12.492 -0.05 -0.06    -0.248 N 
DOCKED: ATOM     28  N   UNL d   1      -8.069 -11.975  -9.792 -0.14 -0.07    -0.248 N 
DOCKED: ATOM     29 FE   UNL d   1      -8.719 -13.617 -10.835 -0.04 +0.00    +0.000 Fe
DOCKED: ENDROOT
DOCKED: BRANCH   6  30
DOCKED: ATOM     30  C   UNL d   1      -7.996 -15.308  -5.604 -0.07 +0.04    +0.052 C 
DOCKED: BRANCH  30  31
DOCKED: ATOM     31  C   UNL d   1      -6.504 -15.147  -5.335 -0.06 +0.17    +0.115 C 
DOCKED: BRANCH  31  32
DOCKED: ATOM     32  C   UNL d   1      -5.885 -16.475  -4.994 -0.12 +0.23    +0.139 C 
DOCKED: ATOM     33  O   UNL d   1      -5.030 -16.968  -5.716 -0.26 -1.43    -0.650 OA
DOCKED: BRANCH  32  34
DOCKED: ATOM     34  O   UNL d   1      -6.270 -17.134  -3.888 +0.00 -1.34    -0.776 OA
DOCKED: ATOM     35  H   UNL d   1      -7.173 -17.477  -3.835 +0.02 +0.20    +0.167 HD
DOCKED: ENDBRANCH  32  34
DOCKED: ENDBRANCH  31  32
DOCKED: ENDBRANCH  30  31
DOCKED: ENDBRANCH   6  30
DOCKED: BRANCH  22  36
DOCKED: ATOM     36  C   UNL d   1      -6.245 -10.317  -7.003 -0.43 +0.02    +0.052 C 
DOCKED: BRANCH  36  37
DOCKED: ATOM     37  C   UNL d   1      -4.926 -11.071  -6.913 -0.26 +0.08    +0.115 C 
DOCKED: BRANCH  37  38
DOCKED: ATOM     38  C   UNL d   1      -4.943 -12.053  -5.776 -0.39 +0.16    +0.139 C 
DOCKED: ATOM     39  O   UNL d   1      -4.110 -12.944  -5.707 -0.53 -1.34    -0.650 OA
DOCKED: BRANCH  38  40
DOCKED: ATOM     40  O   UNL d   1      -5.886 -11.958  -4.822 -0.49 -0.73    -0.776 OA
DOCKED: ATOM     41  H   UNL d   1      -6.694 -12.484  -4.906 +0.06 +0.14    +0.167 HD
DOCKED: ENDBRANCH  38  40
DOCKED: ENDBRANCH  37  38
DOCKED: ENDBRANCH  36  37
DOCKED: ENDBRANCH  22  36
DOCKED: BRANCH  12  42
DOCKED: ATOM     42  C   UNL d   1     -10.170 -17.193 -14.976 -0.05 +0.00    +0.004 C 
DOCKED: ATOM     43  C   UNL d   1      -9.275 -17.097 -15.968 -0.06 +0.00    +0.012 C 
DOCKED: ENDBRANCH  12  42
DOCKED: BRANCH  17  44
DOCKED: ATOM     44  C   UNL d   1      -9.242  -9.294 -14.318 -0.22 +0.00    +0.004 C 
DOCKED: ATOM     45  C   UNL d   1     -10.127  -8.422 -13.823 -0.13 +0.01    +0.012 C 
DOCKED: ENDBRANCH  17  44
DOCKED: TORSDOF 10
DOCKED: TER
DOCKED: ENDMDL
________________________________________________________________________________


	BEGINNING GENETIC ALGORITHM DOCKING 95 of 100
Run: 95 Seed: 835330063 2013531763 [ Run 95 of 100 GA/GALS ]
Beginning LAMARCKIAN GENETIC ALGORITHM (LGA), with a maximum of 25000000 energy evaluations.

Final-Value: -12.201


	FINAL GENETIC ALGORITHM DOCKED STATE
	_______________________________________________


Detailed state:  trans 9.256 -6.638 8.349 quatxyzw 0.207289 -0.645258 -0.362993 0.639460 center -0.174 -0.001 -0.047 ntor 10 117.9827 -151.0875 -124.4569 3.9487 -178.0815 -97.8833 -55.3703 144.9136 -26.5656 -180.0000
State:	  9.256  -6.638   8.349   0.270 -0.839 -0.472 100.497    117.98 -151.09 -124.46    3.95 -178.08  -97.88  -55.37  144.91  -26.57 -180.00

DOCKED: MODEL       95
DOCKED: USER    Run = 95
DOCKED: USER    DPF = D:/Protein_go_brrr/autodock/final/mut_N102T/heme_Fe/dock.dpf
DOCKED: USER  
DOCKED: USER    Estimated Free Energy of Binding    =   -8.64 kcal/mol  [=(1)+(2)+(3)-(4)]
DOCKED: USER    Estimated Inhibition Constant, Ki   =  463.22 nM (nanomolar)  [Temperature = 298.15 K]
DOCKED: USER    
DOCKED: USER    (1) Final Intermolecular Energy     =  -11.62 kcal/mol
DOCKED: USER        vdW + Hbond + desolv Energy     =   -9.00 kcal/mol
DOCKED: USER        Electrostatic Energy            =   -2.63 kcal/mol
DOCKED: USER    (2) Final Total Internal Energy     =   -0.58 kcal/mol
DOCKED: USER    (3) Torsional Free Energy           =   +2.98 kcal/mol
DOCKED: USER    (4) Unbound System's Energy  [=(2)] =   -0.58 kcal/mol
DOCKED: USER    
DOCKED: USER    
DOCKED: USER    NEWDPF move heme_Fe_opt.pdbqt
DOCKED: USER    NEWDPF about -0.174000 -0.001000 -0.047000
DOCKED: USER    NEWDPF tran0 9.255790 -6.638175 8.348608
DOCKED: USER    NEWDPF quaternion0 0.207289 -0.645258 -0.362993 0.639460
DOCKED: USER    NEWDPF axisangle0 0.269618 -0.839279 -0.472141 100.496897
DOCKED: USER    NEWDPF quat0 0.269618 -0.839279 -0.472141 100.496897
DOCKED: USER    NEWDPF dihe0 117.98 -151.09 -124.46 3.95 -178.08 -97.88 -55.37 144.91 -26.57 -180.00 
DOCKED: USER  keepresnum = 1 
DOCKED: USER  
DOCKED: REMARK  10 active torsions:
DOCKED: REMARK  status: ('A' for Active; 'I' for Inactive)
DOCKED: REMARK    1  A    between atoms: C_6  and  C_10 
DOCKED: REMARK    2  A    between atoms: C_10  and  C_11 
DOCKED: REMARK    3  A    between atoms: C_11  and  C_12 
DOCKED: REMARK    4  A    between atoms: C_12  and  O_14 
DOCKED: REMARK    5  A    between atoms: C_17  and  C_20 
DOCKED: REMARK    6  A    between atoms: C_24  and  C_27 
DOCKED: REMARK    7  A    between atoms: C_31  and  C_34 
DOCKED: REMARK    8  A    between atoms: C_34  and  C_35 
DOCKED: REMARK    9  A    between atoms: C_35  and  C_36 
DOCKED: REMARK   10  A    between atoms: C_36  and  O_38 
DOCKED: USER                              x       y       z     vdW  Elec       q    Type
DOCKED: USER                           _______ _______ _______ _____ _____    ______ ____
DOCKED: ROOT
DOCKED: ATOM      1  C   UNL d   1       9.849  -6.676  10.313 -0.08 +0.05    +0.064 C 
DOCKED: ATOM      2  C   UNL d   1      11.799  -8.263   6.058 -0.11 +0.03    +0.064 A 
DOCKED: ATOM      3  C   UNL d   1       8.625  -5.560   3.674 -0.25 +0.01    +0.064 C 
DOCKED: ATOM      4  C   UNL d   1       6.654  -4.093   7.779 -0.36 +0.02    +0.064 C 
DOCKED: ATOM      5  C   UNL d   1      10.638  -7.438   9.335 -0.07 +0.06    +0.066 A 
DOCKED: ATOM      6  C   UNL d   1      11.577  -8.403   9.658 -0.11 -0.01    -0.021 A 
DOCKED: ATOM      7  C   UNL d   1      12.121  -8.841   8.476 -0.09 -0.01    -0.025 A 
DOCKED: ATOM      8  C   UNL d   1      11.492  -8.125   7.476 -0.13 +0.04    +0.066 A 
DOCKED: ATOM      9  C   UNL d   1      13.170  -9.900   8.325 -0.03 +0.01    +0.051 C 
DOCKED: ATOM     10  C   UNL d   1      11.168  -7.627   5.069 -0.14 +0.02    +0.066 A 
DOCKED: ATOM     11  C   UNL d   1      11.560  -7.692   3.730 -0.12 -0.00    -0.021 A 
DOCKED: ATOM     12  C   UNL d   1      10.671  -6.907   3.024 -0.23 +0.00    +0.000 A 
DOCKED: ATOM     13  C   UNL d   1       9.777  -6.392   3.980 -0.27 +0.02    +0.070 A 
DOCKED: ATOM     14  C   UNL d   1      12.765  -8.412   3.160 -0.05 -0.00    +0.052 C 
DOCKED: ATOM     15  C   UNL d   1       7.792  -5.019   4.595 -0.35 +0.02    +0.066 A 
DOCKED: ATOM     16  C   UNL d   1       6.645  -4.312   4.258 -0.47 -0.00    -0.021 A 
DOCKED: ATOM     17  C   UNL d   1       6.077  -3.885   5.441 -0.46 +0.00    +0.000 A 
DOCKED: ATOM     18  C   UNL d   1       6.895  -4.339   6.473 -0.39 +0.02    +0.070 A 
DOCKED: ATOM     19  C   UNL d   1       6.115  -4.026   2.879 -0.37 +0.00    +0.052 C 
DOCKED: ATOM     20  C   UNL d   1       7.458  -4.606   8.895 -0.33 +0.04    +0.066 A 
DOCKED: ATOM     21  C   UNL d   1       7.341  -4.199  10.231 -0.28 -0.01    -0.025 A 
DOCKED: ATOM     22  C   UNL d   1       8.251  -4.957  10.938 -0.24 -0.01    -0.021 A 
DOCKED: ATOM     23  C   UNL d   1       8.890  -5.787  10.009 -0.18 +0.06    +0.066 A 
DOCKED: ATOM     24  C   UNL d   1       6.426  -3.151  10.822 -0.26 +0.01    +0.051 C 
DOCKED: ATOM     25  N   UNL d   1      10.583  -7.279   8.001 -0.07 -0.30    -0.248 N 
DOCKED: ATOM     26  N   UNL d   1      10.085  -6.823   5.228 -0.15 -0.13    -0.248 N 
DOCKED: ATOM     27  N   UNL d   1       7.926  -5.073   5.956 -0.22 -0.12    -0.248 N 
DOCKED: ATOM     28  N   UNL d   1       8.433  -5.537   8.757 -0.20 -0.23    -0.248 N 
DOCKED: ATOM     29 FE   UNL d   1       9.258  -6.179   6.993 -0.07 +0.00    +0.000 Fe
DOCKED: ENDROOT
DOCKED: BRANCH   6  30
DOCKED: ATOM     30  C   UNL d   1      11.927  -8.902  11.018 -0.08 +0.02    +0.052 C 
DOCKED: BRANCH  30  31
DOCKED: ATOM     31  C   UNL d   1      10.725  -9.574  11.673 -0.13 +0.05    +0.115 C 
DOCKED: BRANCH  31  32
DOCKED: ATOM     32  C   UNL d   1      11.071 -10.974  12.096 -0.14 +0.08    +0.139 C 
DOCKED: ATOM     33  O   UNL d   1      10.229 -11.695  12.613 -0.58 -0.81    -0.650 OA
DOCKED: BRANCH  32  34
DOCKED: ATOM     34  O   UNL d   1      12.314 -11.449  11.908 +0.03 -0.33    -0.776 OA
DOCKED: ATOM     35  H   UNL d   1      12.658 -11.521  11.007 +0.02 +0.05    +0.167 HD
DOCKED: ENDBRANCH  32  34
DOCKED: ENDBRANCH  31  32
DOCKED: ENDBRANCH  30  31
DOCKED: ENDBRANCH   6  30
DOCKED: BRANCH  22  36
DOCKED: ATOM     36  C   UNL d   1       8.525  -4.852  12.415 -0.18 +0.02    +0.052 C 
DOCKED: BRANCH  36  37
DOCKED: ATOM     37  C   UNL d   1       9.503  -3.716  12.676 -0.08 +0.04    +0.115 C 
DOCKED: BRANCH  37  38
DOCKED: ATOM     38  C   UNL d   1      10.520  -3.616  11.575 -0.10 +0.11    +0.139 C 
DOCKED: ATOM     39  O   UNL d   1      11.628  -4.116  11.701 +0.01 -0.53    -0.650 OA
DOCKED: BRANCH  38  40
DOCKED: ATOM     40  O   UNL d   1      10.216  -2.968  10.437 -0.32 -1.07    -0.776 OA
DOCKED: ATOM     41  H   UNL d   1       9.573  -2.246  10.464 +0.04 +0.14    +0.167 HD
DOCKED: ENDBRANCH  38  40
DOCKED: ENDBRANCH  37  38
DOCKED: ENDBRANCH  36  37
DOCKED: ENDBRANCH  22  36
DOCKED: BRANCH  12  42
DOCKED: ATOM     42  C   UNL d   1      10.717  -6.677   1.547 -0.24 -0.00    +0.004 C 
DOCKED: ATOM     43  C   UNL d   1      11.612  -5.839   1.008 -0.34 -0.01    +0.012 C 
DOCKED: ENDBRANCH  12  42
DOCKED: BRANCH  17  44
DOCKED: ATOM     44  C   UNL d   1       4.822  -3.111   5.575 -0.32 +0.00    +0.004 C 
DOCKED: ATOM     45  C   UNL d   1       3.671  -3.582   5.084 -0.49 +0.00    +0.012 C 
DOCKED: ENDBRANCH  17  44
DOCKED: TORSDOF 10
DOCKED: TER
DOCKED: ENDMDL
________________________________________________________________________________


	BEGINNING GENETIC ALGORITHM DOCKING 96 of 100
Run: 96 Seed: 2094666829 194127378 [ Run 96 of 100 GA/GALS ]
Beginning LAMARCKIAN GENETIC ALGORITHM (LGA), with a maximum of 25000000 energy evaluations.

Final-Value: -11.870


	FINAL GENETIC ALGORITHM DOCKED STATE
	_______________________________________________


Detailed state:  trans 12.254 -8.439 6.542 quatxyzw -0.530623 0.219656 0.760899 -0.302032 center -0.174 -0.001 -0.047 ntor 10 150.0225 -170.0527 22.2341 26.9552 126.8706 103.3150 141.8267 24.8309 -149.3032 -46.1193
State:	 12.254  -8.439   6.542  -0.557  0.230  0.798 -144.841    150.02 -170.05   22.23   26.96  126.87  103.31  141.83   24.83 -149.30  -46.12

DOCKED: MODEL       96
DOCKED: USER    Run = 96
DOCKED: USER    DPF = D:/Protein_go_brrr/autodock/final/mut_N102T/heme_Fe/dock.dpf
DOCKED: USER  
DOCKED: USER    Estimated Free Energy of Binding    =   -8.34 kcal/mol  [=(1)+(2)+(3)-(4)]
DOCKED: USER    Estimated Inhibition Constant, Ki   =  776.87 nM (nanomolar)  [Temperature = 298.15 K]
DOCKED: USER    
DOCKED: USER    (1) Final Intermolecular Energy     =  -11.32 kcal/mol
DOCKED: USER        vdW + Hbond + desolv Energy     =   -7.77 kcal/mol
DOCKED: USER        Electrostatic Energy            =   -3.54 kcal/mol
DOCKED: USER    (2) Final Total Internal Energy     =   -0.55 kcal/mol
DOCKED: USER    (3) Torsional Free Energy           =   +2.98 kcal/mol
DOCKED: USER    (4) Unbound System's Energy  [=(2)] =   -0.55 kcal/mol
DOCKED: USER    
DOCKED: USER    
DOCKED: USER    NEWDPF move heme_Fe_opt.pdbqt
DOCKED: USER    NEWDPF about -0.174000 -0.001000 -0.047000
DOCKED: USER    NEWDPF tran0 12.254338 -8.438839 6.541741
DOCKED: USER    NEWDPF quaternion0 -0.530623 0.219656 0.760899 -0.302032
DOCKED: USER    NEWDPF axisangle0 -0.556619 0.230417 0.798175 -144.840611
DOCKED: USER    NEWDPF quat0 -0.556619 0.230417 0.798175 -144.840611
DOCKED: USER    NEWDPF dihe0 150.02 -170.05 22.23 26.96 126.87 103.31 141.83 24.83 -149.30 -46.12 
DOCKED: USER  keepresnum = 1 
DOCKED: USER  
DOCKED: REMARK  10 active torsions:
DOCKED: REMARK  status: ('A' for Active; 'I' for Inactive)
DOCKED: REMARK    1  A    between atoms: C_6  and  C_10 
DOCKED: REMARK    2  A    between atoms: C_10  and  C_11 
DOCKED: REMARK    3  A    between atoms: C_11  and  C_12 
DOCKED: REMARK    4  A    between atoms: C_12  and  O_14 
DOCKED: REMARK    5  A    between atoms: C_17  and  C_20 
DOCKED: REMARK    6  A    between atoms: C_24  and  C_27 
DOCKED: REMARK    7  A    between atoms: C_31  and  C_34 
DOCKED: REMARK    8  A    between atoms: C_34  and  C_35 
DOCKED: REMARK    9  A    between atoms: C_35  and  C_36 
DOCKED: REMARK   10  A    between atoms: C_36  and  O_38 
DOCKED: USER                              x       y       z     vdW  Elec       q    Type
DOCKED: USER                           _______ _______ _______ _____ _____    ______ ____
DOCKED: ROOT
DOCKED: ATOM      1  C   UNL d   1      12.440  -8.497   8.585 -0.09 +0.03    +0.064 C 
DOCKED: ATOM      2  C   UNL d   1      13.945  -5.399   5.039 -0.08 +0.03    +0.064 A 
DOCKED: ATOM      3  C   UNL d   1      10.887  -7.507   1.995 -0.22 -0.02    +0.064 C 
DOCKED: ATOM      4  C   UNL d   1       9.492 -10.584   5.382 -0.35 +0.01    +0.064 C 
DOCKED: ATOM      5  C   UNL d   1      13.208  -7.484   7.847 -0.07 +0.05    +0.066 A 
DOCKED: ATOM      6  C   UNL d   1      14.257  -6.749   8.372 -0.06 -0.01    -0.021 A 
DOCKED: ATOM      7  C   UNL d   1      14.672  -5.886   7.388 -0.08 -0.02    -0.025 A 
DOCKED: ATOM      8  C   UNL d   1      13.859  -6.128   6.298 -0.06 +0.05    +0.066 A 
DOCKED: ATOM      9  C   UNL d   1      15.798  -4.904   7.493 -0.06 +0.02    +0.051 C 
DOCKED: ATOM     10  C   UNL d   1      13.212  -5.651   3.954 -0.11 +0.02    +0.066 A 
DOCKED: ATOM     11  C   UNL d   1      13.237  -4.862   2.801 -0.17 -0.00    -0.021 A 
DOCKED: ATOM     12  C   UNL d   1      12.350  -5.439   1.914 -0.25 -0.00    +0.000 A 
DOCKED: ATOM     13  C   UNL d   1      11.820  -6.557   2.581 -0.16 -0.01    +0.070 A 
DOCKED: ATOM     14  C   UNL d   1      14.015  -3.581   2.581 -0.19 +0.00    +0.052 C 
DOCKED: ATOM     15  C   UNL d   1      10.334  -8.555   2.649 -0.18 -0.01    +0.066 A 
DOCKED: ATOM     16  C   UNL d   1       9.525  -9.497   2.026 -0.27 +0.00    -0.021 A 
DOCKED: ATOM     17  C   UNL d   1       9.118 -10.384   3.002 -0.34 -0.00    +0.000 A 
DOCKED: ATOM     18  C   UNL d   1       9.687  -9.958   4.201 -0.24 +0.01    +0.070 A 
DOCKED: ATOM     19  C   UNL d   1       9.127  -9.550   0.576 -0.43 -0.02    +0.052 C 
DOCKED: ATOM     20  C   UNL d   1      10.123 -10.201   6.652 -0.24 +0.01    +0.066 A 
DOCKED: ATOM     21  C   UNL d   1       9.779 -10.710   7.912 -0.29 -0.01    -0.025 A 
DOCKED: ATOM     22  C   UNL d   1      10.640 -10.111   8.808 -0.15 -0.01    -0.021 A 
DOCKED: ATOM     23  C   UNL d   1      11.466  -9.260   8.064 -0.11 +0.03    +0.066 A 
DOCKED: ATOM     24  C   UNL d   1       8.697 -11.703   8.266 -0.14 +0.00    +0.051 C 
DOCKED: ATOM     25  N   UNL d   1      12.976  -7.108   6.577 -0.07 -0.18    -0.248 N 
DOCKED: ATOM     26  N   UNL d   1      12.338  -6.682   3.827 -0.07 -0.05    -0.248 N 
DOCKED: ATOM     27  N   UNL d   1      10.469  -8.860   3.977 -0.09 -0.02    -0.248 N 
DOCKED: ATOM     28  N   UNL d   1      11.116  -9.286   6.755 -0.07 -0.08    -0.248 N 
DOCKED: ATOM     29 FE   UNL d   1      11.726  -7.985   5.291 -0.03 +0.00    +0.000 Fe
DOCKED: ENDROOT
DOCKED: BRANCH   6  30
DOCKED: ATOM     30  C   UNL d   1      14.852  -6.873   9.733 -0.03 +0.02    +0.052 C 
DOCKED: BRANCH  30  31
DOCKED: ATOM     31  C   UNL d   1      13.805  -6.597  10.807 -0.04 +0.06    +0.115 C 
DOCKED: BRANCH  31  32
DOCKED: ATOM     32  C   UNL d   1      12.891  -5.483  10.378 +0.03 +0.17    +0.139 C 
DOCKED: ATOM     33  O   UNL d   1      11.678  -5.636  10.382 +0.04 -1.03    -0.650 OA
DOCKED: BRANCH  32  34
DOCKED: ATOM     34  O   UNL d   1      13.403  -4.305   9.983 -0.27 -1.21    -0.776 OA
DOCKED: ATOM     35  H   UNL d   1      14.242  -4.007  10.361 +0.01 +0.14    +0.167 HD
DOCKED: ENDBRANCH  32  34
DOCKED: ENDBRANCH  31  32
DOCKED: ENDBRANCH  30  31
DOCKED: ENDBRANCH   6  30
DOCKED: BRANCH  22  36
DOCKED: ATOM     36  C   UNL d   1      10.634 -10.310  10.301 -0.15 +0.02    +0.052 C 
DOCKED: BRANCH  36  37
DOCKED: ATOM     37  C   UNL d   1      10.645 -11.797  10.621 -0.17 +0.05    +0.115 C 
DOCKED: BRANCH  37  38
DOCKED: ATOM     38  C   UNL d   1      10.070 -12.060  11.984 -0.15 +0.14    +0.139 C 
DOCKED: ATOM     39  O   UNL d   1       8.937 -12.500  12.110 -0.47 -0.81    -0.650 OA
DOCKED: BRANCH  38  40
DOCKED: ATOM     40  O   UNL d   1      10.803 -11.806  13.082 -0.37 -1.06    -0.776 OA
DOCKED: ATOM     41  H   UNL d   1      11.638 -11.326  12.989 +0.02 +0.12    +0.167 HD
DOCKED: ENDBRANCH  38  40
DOCKED: ENDBRANCH  37  38
DOCKED: ENDBRANCH  36  37
DOCKED: ENDBRANCH  22  36
DOCKED: BRANCH  12  42
DOCKED: ATOM     42  C   UNL d   1      12.048  -4.918   0.545 -0.31 -0.00    +0.004 C 
DOCKED: ATOM     43  C   UNL d   1      12.958  -4.985  -0.435 -0.29 -0.01    +0.012 C 
DOCKED: ENDBRANCH  12  42
DOCKED: BRANCH  17  44
DOCKED: ATOM     44  C   UNL d   1       8.259 -11.572   2.798 -0.51 +0.00    +0.004 C 
DOCKED: ATOM     45  C   UNL d   1       8.772 -12.715   2.331 -0.47 -0.00    +0.012 C 
DOCKED: ENDBRANCH  17  44
DOCKED: TORSDOF 10
DOCKED: TER
DOCKED: ENDMDL
________________________________________________________________________________


	BEGINNING GENETIC ALGORITHM DOCKING 97 of 100
Run: 97 Seed: 110111688 140113585 [ Run 97 of 100 GA/GALS ]
Beginning LAMARCKIAN GENETIC ALGORITHM (LGA), with a maximum of 25000000 energy evaluations.

Final-Value: -11.090


	FINAL GENETIC ALGORITHM DOCKED STATE
	_______________________________________________


Detailed state:  trans 10.189 -7.229 10.980 quatxyzw 0.392008 0.538004 -0.725549 0.174528 center -0.174 -0.001 -0.047 ntor 10 73.3073 -134.8274 -142.7998 -14.2827 180.0000 114.8914 60.2875 87.1491 -156.2262 175.9137
State:	 10.189  -7.229  10.980   0.398  0.546 -0.737 159.898     73.31 -134.83 -142.80  -14.28  180.00  114.89   60.29   87.15 -156.23  175.91

DOCKED: MODEL       97
DOCKED: USER    Run = 97
DOCKED: USER    DPF = D:/Protein_go_brrr/autodock/final/mut_N102T/heme_Fe/dock.dpf
DOCKED: USER  
DOCKED: USER    Estimated Free Energy of Binding    =   -7.63 kcal/mol  [=(1)+(2)+(3)-(4)]
DOCKED: USER    Estimated Inhibition Constant, Ki   =    2.56 uM (micromolar)  [Temperature = 298.15 K]
DOCKED: USER    
DOCKED: USER    (1) Final Intermolecular Energy     =  -10.61 kcal/mol
DOCKED: USER        vdW + Hbond + desolv Energy     =   -8.00 kcal/mol
DOCKED: USER        Electrostatic Energy            =   -2.61 kcal/mol
DOCKED: USER    (2) Final Total Internal Energy     =   -0.48 kcal/mol
DOCKED: USER    (3) Torsional Free Energy           =   +2.98 kcal/mol
DOCKED: USER    (4) Unbound System's Energy  [=(2)] =   -0.48 kcal/mol
DOCKED: USER    
DOCKED: USER    
DOCKED: USER    NEWDPF move heme_Fe_opt.pdbqt
DOCKED: USER    NEWDPF about -0.174000 -0.001000 -0.047000
DOCKED: USER    NEWDPF tran0 10.188892 -7.228817 10.980190
DOCKED: USER    NEWDPF quaternion0 0.392008 0.538004 -0.725549 0.174528
DOCKED: USER    NEWDPF axisangle0 0.398118 0.546390 -0.736858 159.897648
DOCKED: USER    NEWDPF quat0 0.398118 0.546390 -0.736858 159.897648
DOCKED: USER    NEWDPF dihe0 73.31 -134.83 -142.80 -14.28 180.00 114.89 60.29 87.15 -156.23 175.91 
DOCKED: USER  keepresnum = 1 
DOCKED: USER  
DOCKED: REMARK  10 active torsions:
DOCKED: REMARK  status: ('A' for Active; 'I' for Inactive)
DOCKED: REMARK    1  A    between atoms: C_6  and  C_10 
DOCKED: REMARK    2  A    between atoms: C_10  and  C_11 
DOCKED: REMARK    3  A    between atoms: C_11  and  C_12 
DOCKED: REMARK    4  A    between atoms: C_12  and  O_14 
DOCKED: REMARK    5  A    between atoms: C_17  and  C_20 
DOCKED: REMARK    6  A    between atoms: C_24  and  C_27 
DOCKED: REMARK    7  A    between atoms: C_31  and  C_34 
DOCKED: REMARK    8  A    between atoms: C_34  and  C_35 
DOCKED: REMARK    9  A    between atoms: C_35  and  C_36 
DOCKED: REMARK   10  A    between atoms: C_36  and  O_38 
DOCKED: USER                              x       y       z     vdW  Elec       q    Type
DOCKED: USER                           _______ _______ _______ _____ _____    ______ ____
DOCKED: ROOT
DOCKED: ATOM      1  C   UNL d   1      11.028  -8.887  11.850 -0.12 +0.03    +0.064 C 
DOCKED: ATOM      2  C   UNL d   1       8.307  -5.100  13.487 -0.10 +0.01    +0.064 A 
DOCKED: ATOM      3  C   UNL d   1       7.182  -4.033   8.941 -0.26 +0.03    +0.064 C 
DOCKED: ATOM      4  C   UNL d   1       9.895  -7.629   7.330 -0.23 +0.05    +0.064 C 
DOCKED: ATOM      5  C   UNL d   1      10.434  -7.870  12.727 -0.12 +0.02    +0.066 A 
DOCKED: ATOM      6  C   UNL d   1      10.635  -7.790  14.096 -0.09 -0.01    -0.021 A 
DOCKED: ATOM      7  C   UNL d   1       9.876  -6.740  14.550 -0.09 -0.01    -0.025 A 
DOCKED: ATOM      8  C   UNL d   1       9.240  -6.218  13.440 -0.14 +0.02    +0.066 A 
DOCKED: ATOM      9  C   UNL d   1       9.789  -6.262  15.967 -0.06 +0.01    +0.051 C 
DOCKED: ATOM     10  C   UNL d   1       7.725  -4.541  12.425 -0.14 +0.02    +0.066 A 
DOCKED: ATOM     11  C   UNL d   1       6.748  -3.545  12.511 -0.17 -0.00    -0.021 A 
DOCKED: ATOM     12  C   UNL d   1       6.395  -3.232  11.213 -0.26 +0.00    +0.000 A 
DOCKED: ATOM     13  C   UNL d   1       7.176  -4.067  10.395 -0.25 +0.03    +0.070 A 
DOCKED: ATOM     14  C   UNL d   1       6.131  -2.969  13.769 -0.18 +0.00    +0.052 C 
DOCKED: ATOM     15  C   UNL d   1       7.894  -4.869   8.149 -0.33 +0.05    +0.066 A 
DOCKED: ATOM     16  C   UNL d   1       7.950  -4.740   6.767 -0.36 -0.01    -0.021 A 
DOCKED: ATOM     17  C   UNL d   1       8.729  -5.778   6.300 -0.08 +0.00    +0.000 A 
DOCKED: ATOM     18  C   UNL d   1       9.127  -6.520   7.409 -0.12 +0.06    +0.070 A 
DOCKED: ATOM     19  C   UNL d   1       7.279  -3.697   5.914 -0.51 +0.02    +0.052 C 
DOCKED: ATOM     20  C   UNL d   1      10.383  -8.399   8.479 -0.01 +0.04    +0.066 A 
DOCKED: ATOM     21  C   UNL d   1      11.006  -9.653   8.408 -0.14 -0.01    -0.025 A 
DOCKED: ATOM     22  C   UNL d   1      11.332  -9.987   9.706 -0.11 -0.01    -0.021 A 
DOCKED: ATOM     23  C   UNL d   1      10.892  -8.932  10.515 -0.08 +0.03    +0.066 A 
DOCKED: ATOM     24  C   UNL d   1      11.281 -10.502   7.189 -0.14 +0.01    +0.051 C 
DOCKED: ATOM     25  N   UNL d   1       9.589  -6.902  12.332 -0.11 -0.10    -0.248 N 
DOCKED: ATOM     26  N   UNL d   1       7.980  -4.870  11.133 -0.15 -0.11    -0.248 N 
DOCKED: ATOM     27  N   UNL d   1       8.650  -5.937   8.550 -0.17 -0.24    -0.248 N 
DOCKED: ATOM     28  N   UNL d   1      10.274  -7.987   9.766 +0.12 -0.15    -0.248 N 
DOCKED: ATOM     29 FE   UNL d   1       9.127  -6.430  10.448 -0.05 +0.00    +0.000 Fe
DOCKED: ENDROOT
DOCKED: BRANCH   6  30
DOCKED: ATOM     30  C   UNL d   1      11.520  -8.653  14.928 -0.05 +0.02    +0.052 C 
DOCKED: BRANCH  30  31
DOCKED: ATOM     31  C   UNL d   1      10.994 -10.084  14.971 -0.12 +0.08    +0.115 C 
DOCKED: BRANCH  31  32
DOCKED: ATOM     32  C   UNL d   1      10.682 -10.488  16.385 -0.10 +0.11    +0.139 C 
DOCKED: ATOM     33  O   UNL d   1      10.245 -11.603  16.633 -0.59 -1.03    -0.650 OA
DOCKED: BRANCH  32  34
DOCKED: ATOM     34  O   UNL d   1      10.881  -9.622  17.393 +0.02 -0.28    -0.776 OA
DOCKED: ATOM     35  H   UNL d   1      11.627  -9.762  17.993 +0.01 +0.05    +0.167 HD
DOCKED: ENDBRANCH  32  34
DOCKED: ENDBRANCH  31  32
DOCKED: ENDBRANCH  30  31
DOCKED: ENDBRANCH   6  30
DOCKED: BRANCH  22  36
DOCKED: ATOM     36  C   UNL d   1      11.986 -11.270  10.147 -0.07 +0.01    +0.052 C 
DOCKED: BRANCH  36  37
DOCKED: ATOM     37  C   UNL d   1      10.922 -12.330  10.394 -0.14 +0.04    +0.115 C 
DOCKED: BRANCH  37  38
DOCKED: ATOM     38  C   UNL d   1      10.511 -12.355  11.839 -0.15 +0.12    +0.139 C 
DOCKED: ATOM     39  O   UNL d   1       9.376 -12.050  12.172 -0.60 -0.78    -0.650 OA
DOCKED: BRANCH  38  40
DOCKED: ATOM     40  O   UNL d   1      11.400 -12.713  12.783 -0.19 -0.84    -0.776 OA
DOCKED: ATOM     41  H   UNL d   1      12.296 -12.349  12.748 +0.02 +0.10    +0.167 HD
DOCKED: ENDBRANCH  38  40
DOCKED: ENDBRANCH  37  38
DOCKED: ENDBRANCH  36  37
DOCKED: ENDBRANCH  22  36
DOCKED: BRANCH  12  42
DOCKED: ATOM     42  C   UNL d   1       5.367  -2.217  10.828 -0.38 +0.00    +0.004 C 
DOCKED: ATOM     43  C   UNL d   1       4.101  -2.577  10.579 -0.52 +0.00    +0.012 C 
DOCKED: ENDBRANCH  12  42
DOCKED: BRANCH  17  44
DOCKED: ATOM     44  C   UNL d   1       9.086  -6.032   4.886 -0.26 +0.00    +0.004 C 
DOCKED: ATOM     45  C   UNL d   1       9.386  -5.021   4.063 -0.40 +0.00    +0.012 C 
DOCKED: ENDBRANCH  17  44
DOCKED: TORSDOF 10
DOCKED: TER
DOCKED: ENDMDL
________________________________________________________________________________


	BEGINNING GENETIC ALGORITHM DOCKING 98 of 100
Run: 98 Seed: 486463616 2012068757 [ Run 98 of 100 GA/GALS ]
Beginning LAMARCKIAN GENETIC ALGORITHM (LGA), with a maximum of 25000000 energy evaluations.

Final-Value: -10.125


	FINAL GENETIC ALGORITHM DOCKED STATE
	_______________________________________________


Detailed state:  trans -10.686 4.411 12.752 quatxyzw -0.621364 0.100588 0.776317 -0.033465 center -0.174 -0.001 -0.047 ntor 10 10.3678 -148.5558 -178.6415 41.3404 -87.0210 -78.7869 74.5959 111.4746 -2.4966 28.0456
State:	-10.686   4.411  12.752  -0.622  0.101  0.777 -176.164     10.37 -148.56 -178.64   41.34  -87.02  -78.79   74.60  111.47   -2.50   28.05

DOCKED: MODEL       98
DOCKED: USER    Run = 98
DOCKED: USER    DPF = D:/Protein_go_brrr/autodock/final/mut_N102T/heme_Fe/dock.dpf
DOCKED: USER  
DOCKED: USER    Estimated Free Energy of Binding    =   -5.34 kcal/mol  [=(1)+(2)+(3)-(4)]
DOCKED: USER    Estimated Inhibition Constant, Ki   =  121.31 uM (micromolar)  [Temperature = 298.15 K]
DOCKED: USER    
DOCKED: USER    (1) Final Intermolecular Energy     =   -8.33 kcal/mol
DOCKED: USER        vdW + Hbond + desolv Energy     =   -7.47 kcal/mol
DOCKED: USER        Electrostatic Energy            =   -0.86 kcal/mol
DOCKED: USER    (2) Final Total Internal Energy     =   -1.80 kcal/mol
DOCKED: USER    (3) Torsional Free Energy           =   +2.98 kcal/mol
DOCKED: USER    (4) Unbound System's Energy  [=(2)] =   -1.80 kcal/mol
DOCKED: USER    
DOCKED: USER    
DOCKED: USER    NEWDPF move heme_Fe_opt.pdbqt
DOCKED: USER    NEWDPF about -0.174000 -0.001000 -0.047000
DOCKED: USER    NEWDPF tran0 -10.685572 4.410511 12.752469
DOCKED: USER    NEWDPF quaternion0 -0.621364 0.100588 0.776317 -0.033465
DOCKED: USER    NEWDPF axisangle0 -0.621712 0.100645 0.776753 -176.164467
DOCKED: USER    NEWDPF quat0 -0.621712 0.100645 0.776753 -176.164467
DOCKED: USER    NEWDPF dihe0 10.37 -148.56 -178.64 41.34 -87.02 -78.79 74.60 111.47 -2.50 28.05 
DOCKED: USER  keepresnum = 1 
DOCKED: USER  
DOCKED: REMARK  10 active torsions:
DOCKED: REMARK  status: ('A' for Active; 'I' for Inactive)
DOCKED: REMARK    1  A    between atoms: C_6  and  C_10 
DOCKED: REMARK    2  A    between atoms: C_10  and  C_11 
DOCKED: REMARK    3  A    between atoms: C_11  and  C_12 
DOCKED: REMARK    4  A    between atoms: C_12  and  O_14 
DOCKED: REMARK    5  A    between atoms: C_17  and  C_20 
DOCKED: REMARK    6  A    between atoms: C_24  and  C_27 
DOCKED: REMARK    7  A    between atoms: C_31  and  C_34 
DOCKED: REMARK    8  A    between atoms: C_34  and  C_35 
DOCKED: REMARK    9  A    between atoms: C_35  and  C_36 
DOCKED: REMARK   10  A    between atoms: C_36  and  O_38 
DOCKED: USER                              x       y       z     vdW  Elec       q    Type
DOCKED: USER                           _______ _______ _______ _____ _____    ______ ____
DOCKED: ROOT
DOCKED: ATOM      1  C   UNL d   1     -10.738   4.718  14.781 -0.10 +0.01    +0.064 C 
DOCKED: ATOM      2  C   UNL d   1     -10.787   7.663  10.812 -0.28 +0.00    +0.064 A 
DOCKED: ATOM      3  C   UNL d   1     -11.799   3.846   8.078 -0.29 -0.00    +0.064 C 
DOCKED: ATOM      4  C   UNL d   1     -11.652   0.961  11.891 -0.25 -0.00    +0.064 C 
DOCKED: ATOM      5  C   UNL d   1     -10.576   5.887  13.906 -0.11 +0.01    +0.066 A 
DOCKED: ATOM      6  C   UNL d   1     -10.174   7.143  14.330 -0.22 -0.00    -0.021 A 
DOCKED: ATOM      7  C   UNL d   1     -10.192   7.961  13.228 -0.27 -0.00    -0.025 A 
DOCKED: ATOM      8  C   UNL d   1     -10.603   7.173  12.172 -0.29 +0.00    +0.066 A 
DOCKED: ATOM      9  C   UNL d   1      -9.815   9.411  13.198 -0.19 +0.00    +0.051 C 
DOCKED: ATOM     10  C   UNL d   1     -11.128   6.911   9.763 -0.29 -0.00    +0.066 A 
DOCKED: ATOM     11  C   UNL d   1     -11.408   7.430   8.497 -0.28 +0.00    -0.021 A 
DOCKED: ATOM     12  C   UNL d   1     -11.719   6.350   7.694 -0.24 -0.00    +0.000 A 
DOCKED: ATOM     13  C   UNL d   1     -11.620   5.219   8.523 -0.26 -0.00    +0.070 A 
DOCKED: ATOM     14  C   UNL d   1     -11.445   8.888   8.088 -0.22 -0.01    +0.052 C 
DOCKED: ATOM     15  C   UNL d   1     -11.756   2.758   8.882 -0.17 -0.01    +0.066 A 
DOCKED: ATOM     16  C   UNL d   1     -11.833   1.457   8.403 -0.27 +0.00    -0.021 A 
DOCKED: ATOM     17  C   UNL d   1     -11.794   0.623   9.501 -0.26 -0.00    +0.000 A 
DOCKED: ATOM     18  C   UNL d   1     -11.698   1.437  10.627 -0.23 -0.01    +0.070 A 
DOCKED: ATOM     19  C   UNL d   1     -11.963   1.012   6.971 -0.30 -0.02    +0.052 C 
DOCKED: ATOM     20  C   UNL d   1     -11.490   1.784  13.095 -0.20 +0.00    +0.066 A 
DOCKED: ATOM     21  C   UNL d   1     -11.640   1.330  14.413 -0.13 -0.00    -0.025 A 
DOCKED: ATOM     22  C   UNL d   1     -11.363   2.413  15.220 -0.12 -0.00    -0.021 A 
DOCKED: ATOM     23  C   UNL d   1     -11.062   3.482  14.368 -0.08 +0.01    +0.066 A 
DOCKED: ATOM     24  C   UNL d   1     -12.029  -0.048  14.897 -0.08 +0.01    +0.051 C 
DOCKED: ATOM     25  N   UNL d   1     -10.827   5.909  12.585 -0.14 -0.02    -0.248 N 
DOCKED: ATOM     26  N   UNL d   1     -11.268   5.562   9.786 -0.11 +0.00    -0.248 N 
DOCKED: ATOM     27  N   UNL d   1     -11.630   2.748  10.246 -0.12 +0.03    -0.248 N 
DOCKED: ATOM     28  N   UNL d   1     -11.184   3.104  13.073 -0.14 -0.02    -0.248 N 
DOCKED: ATOM     29 FE   UNL d   1     -11.227   4.331  11.430 -0.07 -0.00    +0.000 Fe
DOCKED: ENDROOT
DOCKED: BRANCH   6  30
DOCKED: ATOM     30  C   UNL d   1      -9.773   7.543  15.709 -0.15 +0.00    +0.052 C 
DOCKED: BRANCH  30  31
DOCKED: ATOM     31  C   UNL d   1      -8.289   7.280  15.938 -0.22 +0.00    +0.115 C 
DOCKED: BRANCH  31  32
DOCKED: ATOM     32  C   UNL d   1      -8.097   6.072  16.811 -0.17 +0.01    +0.139 C 
DOCKED: ATOM     33  O   UNL d   1      -8.093   6.178  18.030 +0.04 +0.00    -0.650 OA
DOCKED: BRANCH  32  34
DOCKED: ATOM     34  O   UNL d   1      -7.927   4.859  16.258 +0.09 -0.14    -0.776 OA
DOCKED: ATOM     35  H   UNL d   1      -7.957   4.076  16.825 +0.06 +0.03    +0.167 HD
DOCKED: ENDBRANCH  32  34
DOCKED: ENDBRANCH  31  32
DOCKED: ENDBRANCH  30  31
DOCKED: ENDBRANCH   6  30
DOCKED: BRANCH  22  36
DOCKED: ATOM     36  C   UNL d   1     -11.432   2.430  16.725 -0.06 +0.01    +0.052 C 
DOCKED: BRANCH  36  37
DOCKED: ATOM     37  C   UNL d   1     -10.102   2.901  17.295 -0.09 +0.02    +0.115 C 
DOCKED: BRANCH  37  38
DOCKED: ATOM     38  C   UNL d   1      -9.027   1.874  17.072 -0.16 +0.06    +0.139 C 
DOCKED: ATOM     39  O   UNL d   1      -8.946   0.888  17.789 -0.16 -0.41    -0.650 OA
DOCKED: BRANCH  38  40
DOCKED: ATOM     40  O   UNL d   1      -8.139   2.039  16.075 -0.05 -0.48    -0.776 OA
DOCKED: ATOM     41  H   UNL d   1      -7.885   2.935  15.814 +0.04 +0.07    +0.167 HD
DOCKED: ENDBRANCH  38  40
DOCKED: ENDBRANCH  37  38
DOCKED: ENDBRANCH  36  37
DOCKED: ENDBRANCH  22  36
DOCKED: BRANCH  12  42
DOCKED: ATOM     42  C   UNL d   1     -12.098   6.439   6.249 -0.13 -0.00    +0.004 C 
DOCKED: ATOM     43  C   UNL d   1     -13.183   5.809   5.781 -0.13 -0.00    +0.012 C 
DOCKED: ENDBRANCH  12  42
DOCKED: BRANCH  17  44
DOCKED: ATOM     44  C   UNL d   1     -11.826  -0.857   9.474 -0.26 -0.00    +0.004 C 
DOCKED: ATOM     45  C   UNL d   1     -10.693  -1.567   9.506 -0.38 -0.01    +0.012 C 
DOCKED: ENDBRANCH  17  44
DOCKED: TORSDOF 10
DOCKED: TER
DOCKED: ENDMDL
________________________________________________________________________________


	BEGINNING GENETIC ALGORITHM DOCKING 99 of 100
Run: 99 Seed: 1561599086 1687134542 [ Run 99 of 100 GA/GALS ]
Beginning LAMARCKIAN GENETIC ALGORITHM (LGA), with a maximum of 25000000 energy evaluations.

Final-Value: -10.875


	FINAL GENETIC ALGORITHM DOCKED STATE
	_______________________________________________


Detailed state:  trans -11.793 5.280 5.006 quatxyzw 0.276054 0.620064 -0.236890 0.695124 center -0.174 -0.001 -0.047 ntor 10 87.5330 76.8781 35.8225 0.4551 -99.5197 -83.7774 -92.5513 -74.3472 -174.1519 1.0002
State:	-11.793   5.280   5.006   0.384  0.863 -0.330 91.926     87.53   76.88   35.82    0.46  -99.52  -83.78  -92.55  -74.35 -174.15    1.00

DOCKED: MODEL       99
DOCKED: USER    Run = 99
DOCKED: USER    DPF = D:/Protein_go_brrr/autodock/final/mut_N102T/heme_Fe/dock.dpf
DOCKED: USER  
DOCKED: USER    Estimated Free Energy of Binding    =   -5.67 kcal/mol  [=(1)+(2)+(3)-(4)]
DOCKED: USER    Estimated Inhibition Constant, Ki   =   70.27 uM (micromolar)  [Temperature = 298.15 K]
DOCKED: USER    
DOCKED: USER    (1) Final Intermolecular Energy     =   -8.65 kcal/mol
DOCKED: USER        vdW + Hbond + desolv Energy     =   -7.45 kcal/mol
DOCKED: USER        Electrostatic Energy            =   -1.20 kcal/mol
DOCKED: USER    (2) Final Total Internal Energy     =   -2.23 kcal/mol
DOCKED: USER    (3) Torsional Free Energy           =   +2.98 kcal/mol
DOCKED: USER    (4) Unbound System's Energy  [=(2)] =   -2.23 kcal/mol
DOCKED: USER    
DOCKED: USER    
DOCKED: USER    NEWDPF move heme_Fe_opt.pdbqt
DOCKED: USER    NEWDPF about -0.174000 -0.001000 -0.047000
DOCKED: USER    NEWDPF tran0 -11.793002 5.280000 5.005868
DOCKED: USER    NEWDPF quaternion0 0.276054 0.620064 -0.236890 0.695124
DOCKED: USER    NEWDPF axisangle0 0.384001 0.862530 -0.329522 91.925753
DOCKED: USER    NEWDPF quat0 0.384001 0.862530 -0.329522 91.925753
DOCKED: USER    NEWDPF dihe0 87.53 76.88 35.82 0.46 -99.52 -83.78 -92.55 -74.35 -174.15 1.00 
DOCKED: USER  keepresnum = 1 
DOCKED: USER  
DOCKED: REMARK  10 active torsions:
DOCKED: REMARK  status: ('A' for Active; 'I' for Inactive)
DOCKED: REMARK    1  A    between atoms: C_6  and  C_10 
DOCKED: REMARK    2  A    between atoms: C_10  and  C_11 
DOCKED: REMARK    3  A    between atoms: C_11  and  C_12 
DOCKED: REMARK    4  A    between atoms: C_12  and  O_14 
DOCKED: REMARK    5  A    between atoms: C_17  and  C_20 
DOCKED: REMARK    6  A    between atoms: C_24  and  C_27 
DOCKED: REMARK    7  A    between atoms: C_31  and  C_34 
DOCKED: REMARK    8  A    between atoms: C_34  and  C_35 
DOCKED: REMARK    9  A    between atoms: C_35  and  C_36 
DOCKED: REMARK   10  A    between atoms: C_36  and  O_38 
DOCKED: USER                              x       y       z     vdW  Elec       q    Type
DOCKED: USER                           _______ _______ _______ _____ _____    ______ ____
DOCKED: ROOT
DOCKED: ATOM      1  C   UNL d   1     -12.557   3.954   3.639 -0.20 +0.01    +0.064 C 
DOCKED: ATOM      2  C   UNL d   1     -11.974   3.944   8.547 -0.22 -0.00    +0.064 A 
DOCKED: ATOM      3  C   UNL d   1     -11.201   8.682   8.395 -0.26 -0.01    +0.064 C 
DOCKED: ATOM      4  C   UNL d   1     -11.657   8.696   3.633 -0.19 -0.00    +0.064 C 
DOCKED: ATOM      5  C   UNL d   1     -12.382   3.498   5.025 -0.19 +0.00    +0.066 A 
DOCKED: ATOM      6  C   UNL d   1     -12.421   2.175   5.433 -0.24 +0.00    -0.021 A 
DOCKED: ATOM      7  C   UNL d   1     -12.263   2.173   6.797 -0.24 +0.00    -0.025 A 
DOCKED: ATOM      8  C   UNL d   1     -12.133   3.497   7.169 -0.23 -0.00    +0.066 A 
DOCKED: ATOM      9  C   UNL d   1     -12.221   0.964   7.679 -0.26 -0.01    +0.051 C 
DOCKED: ATOM     10  C   UNL d   1     -11.789   5.210   8.928 -0.24 -0.00    +0.066 A 
DOCKED: ATOM     11  C   UNL d   1     -11.755   5.620  10.263 -0.17 +0.00    -0.021 A 
DOCKED: ATOM     12  C   UNL d   1     -11.550   6.985  10.246 -0.23 -0.00    +0.000 A 
DOCKED: ATOM     13  C   UNL d   1     -11.477   7.342   8.888 -0.24 -0.00    +0.070 A 
DOCKED: ATOM     14  C   UNL d   1     -11.976   4.765  11.493 -0.11 -0.00    +0.052 C 
DOCKED: ATOM     15  C   UNL d   1     -11.181   9.040   7.090 -0.20 -0.01    +0.066 A 
DOCKED: ATOM     16  C   UNL d   1     -10.816  10.308   6.656 -0.17 +0.00    -0.021 A 
DOCKED: ATOM     17  C   UNL d   1     -10.950  10.315   5.283 -0.20 -0.00    +0.000 A 
DOCKED: ATOM     18  C   UNL d   1     -11.399   9.050   4.911 -0.21 -0.00    +0.070 A 
DOCKED: ATOM     19  C   UNL d   1     -10.381  11.477   7.499 -0.20 -0.01    +0.052 C 
DOCKED: ATOM     20  C   UNL d   1     -12.072   7.357   3.198 -0.15 +0.01    +0.066 A 
DOCKED: ATOM     21  C   UNL d   1     -12.534   7.030   1.915 -0.10 -0.00    -0.025 A 
DOCKED: ATOM     22  C   UNL d   1     -12.772   5.671   1.936 -0.10 -0.00    -0.021 A 
DOCKED: ATOM     23  C   UNL d   1     -12.455   5.227   3.225 -0.12 +0.01    +0.066 A 
DOCKED: ATOM     24  C   UNL d   1     -12.747   7.940   0.728 -0.04 +0.00    +0.051 C 
DOCKED: ATOM     25  N   UNL d   1     -12.196   4.300   6.088 -0.12 +0.00    -0.248 N 
DOCKED: ATOM     26  N   UNL d   1     -11.632   6.261   8.084 -0.17 +0.01    -0.248 N 
DOCKED: ATOM     27  N   UNL d   1     -11.500   8.252   6.016 -0.17 +0.02    -0.248 N 
DOCKED: ATOM     28  N   UNL d   1     -12.071   6.268   4.003 -0.04 -0.03    -0.248 N 
DOCKED: ATOM     29 FE   UNL d   1     -11.851   6.266   6.042 -0.05 +0.00    +0.000 Fe
DOCKED: ENDROOT
DOCKED: BRANCH   6  30
DOCKED: ATOM     30  C   UNL d   1     -12.580   0.970   4.571 -0.09 -0.02    +0.052 C 
DOCKED: BRANCH  30  31
DOCKED: ATOM     31  C   UNL d   1     -14.054   0.691   4.296 -0.12 -0.02    +0.115 C 
DOCKED: BRANCH  31  32
DOCKED: ATOM     32  C   UNL d   1     -14.518   1.457   3.089 -0.07 +0.02    +0.139 C 
DOCKED: ATOM     33  O   UNL d   1     -15.135   2.506   3.215 +0.03 -0.04    -0.650 OA
DOCKED: BRANCH  32  34
DOCKED: ATOM     34  O   UNL d   1     -14.257   0.994   1.855 -0.10 -0.31    -0.776 OA
DOCKED: ATOM     35  H   UNL d   1     -13.456   1.290   1.401 +0.02 +0.15    +0.167 HD
DOCKED: ENDBRANCH  32  34
DOCKED: ENDBRANCH  31  32
DOCKED: ENDBRANCH  30  31
DOCKED: ENDBRANCH   6  30
DOCKED: BRANCH  22  36
DOCKED: ATOM     36  C   UNL d   1     -13.321   4.857   0.794 -0.05 +0.01    +0.052 C 
DOCKED: BRANCH  36  37
DOCKED: ATOM     37  C   UNL d   1     -12.180   4.173   0.055 -0.11 +0.03    +0.115 C 
DOCKED: BRANCH  37  38
DOCKED: ATOM     38  C   UNL d   1     -12.124   2.709   0.387 -0.17 +0.08    +0.139 C 
DOCKED: ATOM     39  O   UNL d   1     -11.550   2.317   1.392 -0.35 -0.54    -0.650 OA
DOCKED: BRANCH  38  40
DOCKED: ATOM     40  O   UNL d   1     -12.708   1.813  -0.429 -0.49 -0.65    -0.776 OA
DOCKED: ATOM     41  H   UNL d   1     -13.556   1.425  -0.171 +0.02 +0.11    +0.167 HD
DOCKED: ENDBRANCH  38  40
DOCKED: ENDBRANCH  37  38
DOCKED: ENDBRANCH  36  37
DOCKED: ENDBRANCH  22  36
DOCKED: BRANCH  12  42
DOCKED: ATOM     42  C   UNL d   1     -11.456   7.852  11.461 -0.20 -0.00    +0.004 C 
DOCKED: ATOM     43  C   UNL d   1     -10.301   7.981  12.128 -0.35 +0.00    +0.012 C 
DOCKED: ENDBRANCH  12  42
DOCKED: BRANCH  17  44
DOCKED: ATOM     44  C   UNL d   1     -10.648  11.452   4.384 -0.16 -0.00    +0.004 C 
DOCKED: ATOM     45  C   UNL d   1      -9.451  12.047   4.410 -0.19 -0.00    +0.012 C 
DOCKED: ENDBRANCH  17  44
DOCKED: TORSDOF 10
DOCKED: TER
DOCKED: ENDMDL
________________________________________________________________________________


	BEGINNING GENETIC ALGORITHM DOCKING 100 of 100
Run: 100 Seed: 1732368820 2085728700 [ Run 100 of 100 GA/GALS ]
Beginning LAMARCKIAN GENETIC ALGORITHM (LGA), with a maximum of 25000000 energy evaluations.

Final-Value: -10.460


	FINAL GENETIC ALGORITHM DOCKED STATE
	_______________________________________________


Detailed state:  trans -11.777 5.457 4.968 quatxyzw -0.302068 -0.597607 0.259086 -0.696057 center -0.174 -0.001 -0.047 ntor 10 -67.0432 -160.2745 7.0750 4.3975 90.3971 -138.6086 -74.0500 -106.6665 -168.3316 -10.2774
State:	-11.777   5.457   4.968  -0.421 -0.832  0.361 -91.777    -67.04 -160.27    7.07    4.40   90.40 -138.61  -74.05 -106.67 -168.33  -10.28

DOCKED: MODEL      100
DOCKED: USER    Run = 100
DOCKED: USER    DPF = D:/Protein_go_brrr/autodock/final/mut_N102T/heme_Fe/dock.dpf
DOCKED: USER  
DOCKED: USER    Estimated Free Energy of Binding    =   -5.56 kcal/mol  [=(1)+(2)+(3)-(4)]
DOCKED: USER    Estimated Inhibition Constant, Ki   =   84.54 uM (micromolar)  [Temperature = 298.15 K]
DOCKED: USER    
DOCKED: USER    (1) Final Intermolecular Energy     =   -8.54 kcal/mol
DOCKED: USER        vdW + Hbond + desolv Energy     =   -7.47 kcal/mol
DOCKED: USER        Electrostatic Energy            =   -1.07 kcal/mol
DOCKED: USER    (2) Final Total Internal Energy     =   -1.92 kcal/mol
DOCKED: USER    (3) Torsional Free Energy           =   +2.98 kcal/mol
DOCKED: USER    (4) Unbound System's Energy  [=(2)] =   -1.92 kcal/mol
DOCKED: USER    
DOCKED: USER    
DOCKED: USER    NEWDPF move heme_Fe_opt.pdbqt
DOCKED: USER    NEWDPF about -0.174000 -0.001000 -0.047000
DOCKED: USER    NEWDPF tran0 -11.776579 5.457032 4.968051
DOCKED: USER    NEWDPF quaternion0 -0.302068 -0.597607 0.259086 -0.696057
DOCKED: USER    NEWDPF axisangle0 -0.420715 -0.832337 0.360851 -91.777015
DOCKED: USER    NEWDPF quat0 -0.420715 -0.832337 0.360851 -91.777015
DOCKED: USER    NEWDPF dihe0 -67.04 -160.27 7.07 4.40 90.40 -138.61 -74.05 -106.67 -168.33 -10.28 
DOCKED: USER  keepresnum = 1 
DOCKED: USER  
DOCKED: REMARK  10 active torsions:
DOCKED: REMARK  status: ('A' for Active; 'I' for Inactive)
DOCKED: REMARK    1  A    between atoms: C_6  and  C_10 
DOCKED: REMARK    2  A    between atoms: C_10  and  C_11 
DOCKED: REMARK    3  A    between atoms: C_11  and  C_12 
DOCKED: REMARK    4  A    between atoms: C_12  and  O_14 
DOCKED: REMARK    5  A    between atoms: C_17  and  C_20 
DOCKED: REMARK    6  A    between atoms: C_24  and  C_27 
DOCKED: REMARK    7  A    between atoms: C_31  and  C_34 
DOCKED: REMARK    8  A    between atoms: C_34  and  C_35 
DOCKED: REMARK    9  A    between atoms: C_35  and  C_36 
DOCKED: REMARK   10  A    between atoms: C_36  and  O_38 
DOCKED: USER                              x       y       z     vdW  Elec       q    Type
DOCKED: USER                           _______ _______ _______ _____ _____    ______ ____
DOCKED: ROOT
DOCKED: ATOM      1  C   UNL d   1     -12.603   4.046   3.728 -0.19 +0.01    +0.064 C 
DOCKED: ATOM      2  C   UNL d   1     -11.859   4.388   8.602 -0.23 -0.00    +0.064 A 
DOCKED: ATOM      3  C   UNL d   1     -11.029   9.090   8.076 -0.18 -0.01    +0.064 C 
DOCKED: ATOM      4  C   UNL d   1     -11.642   8.761   3.343 -0.18 -0.00    +0.064 C 
DOCKED: ATOM      5  C   UNL d   1     -12.388   3.691   5.138 -0.18 +0.00    +0.066 A 
DOCKED: ATOM      6  C   UNL d   1     -12.431   2.402   5.643 -0.22 +0.00    -0.021 A 
DOCKED: ATOM      7  C   UNL d   1     -12.228   2.498   6.998 -0.24 +0.00    -0.025 A 
DOCKED: ATOM      8  C   UNL d   1     -12.068   3.844   7.267 -0.23 -0.00    +0.066 A 
DOCKED: ATOM      9  C   UNL d   1     -12.173   1.356   7.966 -0.26 -0.01    +0.051 C 
DOCKED: ATOM     10  C   UNL d   1     -11.645   5.675   8.882 -0.25 -0.00    +0.066 A 
DOCKED: ATOM     11  C   UNL d   1     -11.561   6.182  10.181 -0.23 +0.00    -0.021 A 
DOCKED: ATOM     12  C   UNL d   1     -11.339   7.539  10.057 -0.25 -0.00    +0.000 A 
DOCKED: ATOM     13  C   UNL d   1     -11.306   7.793   8.675 -0.25 -0.01    +0.070 A 
DOCKED: ATOM     14  C   UNL d   1     -11.753   5.423  11.478 -0.14 +0.00    +0.052 C 
DOCKED: ATOM     15  C   UNL d   1     -11.048   9.350   6.747 -0.13 -0.01    +0.066 A 
DOCKED: ATOM     16  C   UNL d   1     -10.680  10.577   6.210 -0.19 +0.00    -0.021 A 
DOCKED: ATOM     17  C   UNL d   1     -10.859  10.486   4.845 -0.19 -0.00    +0.000 A 
DOCKED: ATOM     18  C   UNL d   1     -11.337   9.204   4.582 -0.20 -0.00    +0.070 A 
DOCKED: ATOM     19  C   UNL d   1     -10.203  11.798   6.950 -0.21 -0.01    +0.052 C 
DOCKED: ATOM     20  C   UNL d   1     -12.088   7.400   3.021 -0.15 +0.01    +0.066 A 
DOCKED: ATOM     21  C   UNL d   1     -12.596   6.986   1.781 -0.09 -0.00    -0.025 A 
DOCKED: ATOM     22  C   UNL d   1     -12.851   5.636   1.910 -0.10 -0.00    -0.021 A 
DOCKED: ATOM     23  C   UNL d   1     -12.497   5.283   3.218 -0.13 +0.01    +0.066 A 
DOCKED: ATOM     24  C   UNL d   1     -12.835   7.810   0.538 -0.03 +0.00    +0.051 C 
DOCKED: ATOM     25  N   UNL d   1     -12.157   4.566   6.132 -0.11 -0.00    -0.248 N 
DOCKED: ATOM     26  N   UNL d   1     -11.501   6.659   7.958 -0.17 +0.01    -0.248 N 
DOCKED: ATOM     27  N   UNL d   1     -11.412   8.491   5.746 -0.17 +0.02    -0.248 N 
DOCKED: ATOM     28  N   UNL d   1     -12.074   6.372   3.904 -0.07 -0.03    -0.248 N 
DOCKED: ATOM     29 FE   UNL d   1     -11.788   6.517   5.930 -0.05 -0.00    +0.000 Fe
DOCKED: ENDROOT
DOCKED: BRANCH   6  30
DOCKED: ATOM     30  C   UNL d   1     -12.633   1.139   4.878 -0.21 -0.02    +0.052 C 
DOCKED: BRANCH  30  31
DOCKED: ATOM     31  C   UNL d   1     -14.108   0.938   4.548 -0.11 -0.02    +0.115 C 
DOCKED: BRANCH  31  32
DOCKED: ATOM     32  C   UNL d   1     -14.364   1.213   3.092 -0.08 +0.02    +0.139 C 
DOCKED: ATOM     33  O   UNL d   1     -14.287   0.315   2.265 +0.01 -0.19    -0.650 OA
DOCKED: BRANCH  32  34
DOCKED: ATOM     34  O   UNL d   1     -14.680   2.454   2.685 +0.04 -0.10    -0.776 OA
DOCKED: ATOM     35  H   UNL d   1     -14.054   2.939   2.129 +0.03 +0.03    +0.167 HD
DOCKED: ENDBRANCH  32  34
DOCKED: ENDBRANCH  31  32
DOCKED: ENDBRANCH  30  31
DOCKED: ENDBRANCH   6  30
DOCKED: BRANCH  22  36
DOCKED: ATOM     36  C   UNL d   1     -13.448   4.749   0.849 -0.04 +0.01    +0.052 C 
DOCKED: BRANCH  36  37
DOCKED: ATOM     37  C   UNL d   1     -12.345   4.212  -0.051 -0.09 +0.03    +0.115 C 
DOCKED: BRANCH  37  38
DOCKED: ATOM     38  C   UNL d   1     -11.525   3.174   0.661 -0.24 +0.07    +0.139 C 
DOCKED: ATOM     39  O   UNL d   1     -10.309   3.149   0.543 -0.49 -0.32    -0.650 OA
DOCKED: BRANCH  38  40
DOCKED: ATOM     40  O   UNL d   1     -12.130   2.257   1.437 -0.44 -0.67    -0.776 OA
DOCKED: ATOM     41  H   UNL d   1     -13.075   2.087   1.314 +0.03 +0.12    +0.167 HD
DOCKED: ENDBRANCH  38  40
DOCKED: ENDBRANCH  37  38
DOCKED: ENDBRANCH  36  37
DOCKED: ENDBRANCH  22  36
DOCKED: BRANCH  12  42
DOCKED: ATOM     42  C   UNL d   1     -11.194   8.491  11.201 -0.21 -0.00    +0.004 C 
DOCKED: ATOM     43  C   UNL d   1     -10.284   8.281  12.161 -0.32 +0.00    +0.012 C 
DOCKED: ENDBRANCH  12  42
DOCKED: BRANCH  17  44
DOCKED: ATOM     44  C   UNL d   1     -10.572  11.548   3.855 -0.14 -0.00    +0.004 C 
DOCKED: ATOM     45  C   UNL d   1      -9.346  12.070   3.747 -0.17 -0.00    +0.012 C 
DOCKED: ENDBRANCH  17  44
DOCKED: TORSDOF 10
DOCKED: TER
DOCKED: ENDMDL
________________________________________________________________________________

DPF> analysis                             # perform a ranked cluster analysis


		CLUSTER ANALYSIS OF CONFORMATIONS
		_________________________________

Number of conformations = 100

RMSD cluster analysis will be performed using the ligand atoms only (45 / 45 total atoms).

Outputting structurally similar clusters, ranked in order of increasing energy.


________________________________________________________________________________

Number of distinct conformational clusters found = 30,  out of 100 runs,
Using an rmsd-tolerance of 2.0 A


	CLUSTERING HISTOGRAM
	____________________

________________________________________________________________________________
     |           |     |           |     |                                    
Clus | Lowest    | Run | Mean      | Num | Histogram                          
-ter | Binding   |     | Binding   | in  |                                    
Rank | Energy    |     | Energy    | Clus|    5    10   15   20   25   30   35
_____|___________|_____|___________|_____|____:____|____:____|____:____|____:___
   1 |    -12.24 |  88 |    -10.81 |   7 |#######
   2 |    -10.26 |  92 |    -10.26 |   1 |#
   3 |     -8.64 |  95 |     -8.00 |   4 |####
   4 |     -8.43 |   1 |     -8.22 |  10 |##########
   5 |     -7.98 |  43 |     -7.48 |  17 |#################
   6 |     -7.95 |  33 |     -7.95 |   1 |#
   7 |     -7.90 |   8 |     -7.90 |   1 |#
   8 |     -7.81 |  94 |     -7.39 |   7 |#######
   9 |     -7.64 |   7 |     -7.64 |   1 |#
  10 |     -7.63 |  97 |     -7.33 |   2 |##
  11 |     -7.41 |  63 |     -7.41 |   1 |#
  12 |     -7.32 |  86 |     -6.75 |   7 |#######
  13 |     -7.22 |  11 |     -6.47 |   4 |####
  14 |     -7.17 |  31 |     -5.96 |   4 |####
  15 |     -6.34 |  62 |     -6.34 |   1 |#
  16 |     -6.33 |  14 |     -6.33 |   1 |#
  17 |     -6.29 |  87 |     -6.29 |   1 |#
  18 |     -6.16 |  89 |     -6.16 |   1 |#
  19 |     -6.06 |  41 |     -6.06 |   1 |#
  20 |     -5.98 |  77 |     -5.27 |  11 |###########
  21 |     -5.95 |  90 |     -5.95 |   1 |#
  22 |     -5.95 |  53 |     -5.72 |   4 |####
  23 |     -5.84 |  81 |     -5.84 |   1 |#
  24 |     -5.65 |  69 |     -5.65 |   1 |#
  25 |     -5.64 |  84 |     -5.64 |   1 |#
  26 |     -5.64 |  51 |     -5.10 |   2 |##
  27 |     -5.56 |  29 |     -5.43 |   3 |###
  28 |     -4.91 |  48 |     -4.91 |   1 |#
  29 |     -4.91 |  45 |     -4.91 |   1 |#
  30 |     -4.72 |  73 |     -4.40 |   2 |##
_____|___________|_____|___________|_____|______________________________________


Number of multi-member conformational clusters found = 14, out of 100 runs.

	RMSD TABLE
	__________

_____________________________________________________________________
     |      |      |           |         |                 |
Rank | Sub- | Run  | Binding   | Cluster | Reference       | Grep
     | Rank |      | Energy    | RMSD    | RMSD            | Pattern
_____|______|______|___________|_________|_________________|___________
   1      1     88      -12.24      0.00     10.36           RANKING
   1      2     61      -12.05      0.62     10.47           RANKING
   1      3      3      -11.65      0.74     10.23           RANKING
   1      4     67      -11.62      0.65     10.28           RANKING
   1      5     57       -9.98      0.94     10.24           RANKING
   1      6     17       -9.92      1.40     11.17           RANKING
   1      7     79       -8.22      1.66     11.39           RANKING
   2      1     92      -10.26      0.00     11.77           RANKING
   3      1     95       -8.64      0.00     12.37           RANKING
   3      2     70       -8.63      0.12     12.44           RANKING
   3      3     64       -7.54      1.73     13.18           RANKING
   3      4     37       -7.19      1.35     12.68           RANKING
   4      1      1       -8.43      0.00     13.14           RANKING
   4      2     23       -8.37      0.14     13.11           RANKING
   4      3     30       -8.36      0.84     13.47           RANKING
   4      4     96       -8.34      0.73     13.24           RANKING
   4      5     35       -8.33      0.76     13.24           RANKING
   4      6     56       -8.30      0.45     13.19           RANKING
   4      7      4       -8.21      0.39     13.15           RANKING
   4      8     26       -8.20      0.53     13.38           RANKING
   4      9      2       -7.83      0.62     13.33           RANKING
   4     10     46       -7.81      0.66     13.37           RANKING
   5      1     43       -7.98      0.00     17.45           RANKING
   5      2     72       -7.93      1.73     16.78           RANKING
   5      3     50       -7.83      1.29     17.90           RANKING
   5      4     55       -7.75      1.12     17.72           RANKING
   5      5     59       -7.68      1.66     16.89           RANKING
   5      6     13       -7.68      1.61     17.34           RANKING
   5      7     80       -7.68      0.37     17.32           RANKING
   5      8     82       -7.63      1.55     17.40           RANKING
   5      9     28       -7.54      1.69     16.65           RANKING
   5     10     21       -7.52      1.71     16.66           RANKING
   5     11     25       -7.51      1.62     17.68           RANKING
   5     12     83       -7.40      1.50     16.78           RANKING
   5     13     42       -7.37      1.08     17.23           RANKING
   5     14     68       -7.29      1.73     17.61           RANKING
   5     15     65       -6.91      1.69     17.64           RANKING
   5     16     75       -6.86      1.63     17.57           RANKING
   5     17     47       -6.52      1.90     16.92           RANKING
   6      1     33       -7.95      0.00     15.35           RANKING
   7      1      8       -7.90      0.00     17.67           RANKING
   8      1     94       -7.81      0.00     16.04           RANKING
   8      2     76       -7.81      1.47     15.43           RANKING
   8      3      9       -7.56      0.91     16.04           RANKING
   8      4     15       -7.31      0.59     16.16           RANKING
   8      5     18       -7.26      0.85     15.91           RANKING
   8      6     39       -7.11      0.65     15.87           RANKING
   8      7     24       -6.84      1.42     16.61           RANKING
   9      1      7       -7.64      0.00     15.05           RANKING
  10      1     97       -7.63      0.00     14.92           RANKING
  10      2     16       -7.03      1.89     13.72           RANKING
  11      1     63       -7.41      0.00     17.37           RANKING
  12      1     86       -7.32      0.00     16.73           RANKING
  12      2     40       -7.31      0.84     16.90           RANKING
  12      3     27       -7.12      0.76     16.92           RANKING
  12      4     85       -7.05      0.78     16.95           RANKING
  12      5     78       -6.24      1.41     17.31           RANKING
  12      6     34       -6.20      1.61     18.20           RANKING
  12      7     32       -6.04      1.53     17.80           RANKING
  13      1     11       -7.22      0.00     14.31           RANKING
  13      2     93       -6.84      1.19     14.66           RANKING
  13      3     38       -6.14      1.51     14.84           RANKING
  13      4     66       -5.70      1.07     14.68           RANKING
  14      1     31       -7.17      0.00     14.35           RANKING
  14      2      5       -6.20      1.70     14.57           RANKING
  14      3     98       -5.34      1.93     14.82           RANKING
  14      4     91       -5.12      1.84     14.85           RANKING
  15      1     62       -6.34      0.00     17.29           RANKING
  16      1     14       -6.33      0.00     17.27           RANKING
  17      1     87       -6.29      0.00     14.02           RANKING
  18      1     89       -6.16      0.00     12.09           RANKING
  19      1     41       -6.06      0.00     19.67           RANKING
  20      1     77       -5.98      0.00     14.68           RANKING
  20      2     49       -5.48      1.18     14.71           RANKING
  20      3     74       -5.43      1.21     14.94           RANKING
  20      4      6       -5.37      2.00     14.83           RANKING
  20      5     60       -5.25      1.17     14.66           RANKING
  20      6     10       -5.15      1.69     15.47           RANKING
  20      7     19       -5.14      1.18     14.72           RANKING
  20      8     44       -5.14      1.47     15.03           RANKING
  20      9     22       -5.12      1.17     14.71           RANKING
  20     10     54       -5.03      1.04     14.71           RANKING
  20     11     36       -4.89      1.64     14.88           RANKING
  21      1     90       -5.95      0.00     11.17           RANKING
  22      1     53       -5.95      0.00     11.27           RANKING
  22      2     12       -5.72      0.61     11.36           RANKING
  22      3     99       -5.67      1.13     11.13           RANKING
  22      4    100       -5.56      1.02     11.10           RANKING
  23      1     81       -5.84      0.00     11.52           RANKING
  24      1     69       -5.65      0.00     13.39           RANKING
  25      1     84       -5.64      0.00     12.55           RANKING
  26      1     51       -5.64      0.00     15.16           RANKING
  26      2     20       -4.57      1.99     14.34           RANKING
  27      1     29       -5.56      0.00     15.51           RANKING
  27      2     52       -5.42      1.05     15.08           RANKING
  27      3     71       -5.31      0.58     15.33           RANKING
  28      1     48       -4.91      0.00     13.08           RANKING
  29      1     45       -4.91      0.00     16.14           RANKING
  30      1     73       -4.72      0.00     14.15           RANKING
  30      2     58       -4.09      1.52     14.33           RANKING
_______________________________________________________________________



	INFORMATION ENTROPY ANALYSIS FOR THIS CLUSTERING
	________________________________________________


Information entropy for this clustering = 0.64  (rmstol = 2.00 Angstrom)

_______________________________________________________________________


	STATISTICAL MECHANICAL ANALYSIS
	_______________________________


Partition function, Q =   101.19            at Temperature, T = 298.15 K
Free energy,        A ~ -2735.50 kcal/mol   at Temperature, T = 298.15 K
Internal energy,    U =    -7.02 kcal/mol   at Temperature, T = 298.15 K
Entropy,            S =     9.15 kcal/mol/K at Temperature, T = 298.15 K

_______________________________________________________________________


	LOWEST ENERGY DOCKED CONFORMATION from EACH CLUSTER
	___________________________________________________



Keeping original residue number (specified in the input PDBQ file) for outputting.

MODEL       88
USER    Run = 88
USER    Cluster Rank = 1
USER    Number of conformations in this cluster = 7
USER  
USER    RMSD from reference structure       = 10.358 A
USER  
USER    Estimated Free Energy of Binding    =  -12.24 kcal/mol  [=(1)+(2)+(3)-(4)]
USER    Estimated Inhibition Constant, Ki   =    1.06 nM (nanomolar)  [Temperature = 298.15 K]
USER    
USER    (1) Final Intermolecular Energy     =  -15.23 kcal/mol
USER        vdW + Hbond + desolv Energy     =  -12.34 kcal/mol
USER        Electrostatic Energy            =   -2.89 kcal/mol
USER    (2) Final Total Internal Energy     =   -0.36 kcal/mol
USER    (3) Torsional Free Energy           =   +2.98 kcal/mol
USER    (4) Unbound System's Energy  [=(2)] =   -0.36 kcal/mol
USER    
USER    
USER  
USER    DPF = D:/Protein_go_brrr/autodock/final/mut_N102T/heme_Fe/dock.dpf
USER    NEWDPF move	heme_Fe_opt.pdbqt
USER    NEWDPF about	-0.174000 -0.001000 -0.047000
USER    NEWDPF tran0	6.252047 -3.790650 6.977727
USER    NEWDPF axisangle0	-0.250185 -0.575875 0.778316 175.581888
USER    NEWDPF quaternion0	-0.249999 -0.575447 0.777737 0.038546
USER    NEWDPF dihe0	142.63 28.06 77.90 -122.45 112.76 -164.60 73.95 19.38 10.14 140.81 
USER  
USER                              x       y       z    vdW   Elec        q     RMS 
ATOM      1  C   UNL d   1       7.776  -4.709   8.001 -0.39 +0.05    +0.064    10.358
ATOM      2  C   UNL d   1       3.502  -2.586   9.289 -0.42 +0.01    +0.064    10.358
ATOM      3  C   UNL d   1       2.116  -2.747   4.694 -0.45 +0.00    +0.064    10.358
ATOM      4  C   UNL d   1       6.287  -4.705   3.409 -0.25 +0.01    +0.064    10.358
ATOM      5  C   UNL d   1       6.735  -4.020   8.777 -0.23 +0.03    +0.066    10.358
ATOM      6  C   UNL d   1       6.836  -3.693  10.119 -0.17 -0.01    -0.021    10.358
ATOM      7  C   UNL d   1       5.647  -3.107  10.477 -0.29 -0.00    -0.025    10.358
ATOM      8  C   UNL d   1       4.866  -3.099   9.338 -0.28 +0.01    +0.066    10.358
ATOM      9  C   UNL d   1       5.299  -2.572  11.833 -0.38 +0.00    +0.051    10.358
ATOM     10  C   UNL d   1       2.748  -2.514   8.192 -0.36 +0.01    +0.066    10.358
ATOM     11  C   UNL d   1       1.406  -2.125   8.198 -0.49 -0.00    -0.021    10.358
ATOM     12  C   UNL d   1       0.978  -2.179   6.886 -0.50 +0.00    +0.000    10.358
ATOM     13  C   UNL d   1       2.089  -2.610   6.142 -0.40 +0.01    +0.070    10.358
ATOM     14  C   UNL d   1       0.553  -1.785   9.403 -0.54 +0.00    +0.052    10.358
ATOM     15  C   UNL d   1       3.167  -3.211   3.978 -0.38 +0.00    +0.066    10.358
ATOM     16  C   UNL d   1       3.188  -3.233   2.589 -0.23 -0.00    -0.021    10.358
ATOM     17  C   UNL d   1       4.389  -3.801   2.216 -0.43 +0.00    +0.000    10.358
ATOM     18  C   UNL d   1       5.072  -4.116   3.389 -0.43 +0.00    +0.070    10.358
ATOM     19  C   UNL d   1       2.113  -2.763   1.647 -0.41 +0.00    +0.052    10.358
ATOM     20  C   UNL d   1       7.062  -4.996   4.621 -0.24 +0.01    +0.066    10.358
ATOM     21  C   UNL d   1       8.223  -5.781   4.672 -0.02 -0.01    -0.025    10.358
ATOM     22  C   UNL d   1       8.637  -5.757   5.987 -0.06 -0.01    -0.021    10.358
ATOM     23  C   UNL d   1       7.714  -4.970   6.685 -0.33 +0.04    +0.066    10.358
ATOM     24  C   UNL d   1       8.911  -6.520   3.548 -0.17 +0.01    +0.051    10.358
ATOM     25  N   UNL d   1       5.534  -3.646   8.303 -0.13 -0.08    -0.248    10.358
ATOM     26  N   UNL d   1       3.166  -2.823   6.938 -0.09 -0.07    -0.248    10.358
ATOM     27  N   UNL d   1       4.340  -3.715   4.471 -0.27 -0.02    -0.248    10.358
ATOM     28  N   UNL d   1       6.731  -4.545   5.855 -0.27 -0.07    -0.248    10.358
ATOM     29 FE   UNL d   1       4.949  -3.685   6.395 -0.09 +0.00    +0.000    10.358
ATOM     30  C   UNL d   1       8.009  -3.906  11.014 -0.25 +0.02    +0.052    10.358
ATOM     31  C   UNL d   1       8.812  -2.619  11.167 -0.17 +0.06    +0.115    10.358
ATOM     32  C   UNL d   1      10.093  -2.701  10.384 -0.10 +0.17    +0.139    10.358
ATOM     33  O   UNL d   1      10.272  -1.988   9.407 -0.42 -0.95    -0.650    10.358
ATOM     34  O   UNL d   1      11.055  -3.564  10.753 -0.02 -1.16    -0.776    10.358
ATOM     35  H   UNL d   1      11.216  -3.712  11.695 +0.03 +0.13    +0.167    10.358
ATOM     36  C   UNL d   1       9.826  -6.493   6.548 +0.21 +0.05    +0.052    10.358
ATOM     37  C   UNL d   1       9.375  -7.420   7.667 -0.07 +0.08    +0.115    10.358
ATOM     38  C   UNL d   1      10.534  -7.820   8.536 -0.10 +0.11    +0.139    10.358
ATOM     39  O   UNL d   1      10.441  -8.763   9.307 +0.12 -0.31    -0.650    10.358
ATOM     40  O   UNL d   1      11.689  -7.133   8.472 -0.56 -1.18    -0.776    10.358
ATOM     41  H   UNL d   1      12.517  -7.585   8.686 +0.01 +0.15    +0.167    10.358
ATOM     42  C   UNL d   1      -0.406  -1.853   6.423 -0.52 +0.00    +0.004    10.358
ATOM     43  C   UNL d   1      -0.615  -0.947   5.459 -0.52 +0.00    +0.012    10.358
ATOM     44  C   UNL d   1       4.862  -4.008   0.829 -0.56 -0.00    +0.004    10.358
ATOM     45  C   UNL d   1       4.267  -4.900   0.029 -0.73 -0.00    +0.012    10.358
TER
ENDMDL
MODEL       92
USER    Run = 92
USER    Cluster Rank = 2
USER    Number of conformations in this cluster = 1
USER  
USER    RMSD from reference structure       = 11.769 A
USER  
USER    Estimated Free Energy of Binding    =  -10.26 kcal/mol  [=(1)+(2)+(3)-(4)]
USER    Estimated Inhibition Constant, Ki   =   29.94 nM (nanomolar)  [Temperature = 298.15 K]
USER    
USER    (1) Final Intermolecular Energy     =  -13.25 kcal/mol
USER        vdW + Hbond + desolv Energy     =  -11.60 kcal/mol
USER        Electrostatic Energy            =   -1.65 kcal/mol
USER    (2) Final Total Internal Energy     =   +0.12 kcal/mol
USER    (3) Torsional Free Energy           =   +2.98 kcal/mol
USER    (4) Unbound System's Energy  [=(2)] =   +0.12 kcal/mol
USER    
USER    
USER  
USER    DPF = D:/Protein_go_brrr/autodock/final/mut_N102T/heme_Fe/dock.dpf
USER    NEWDPF move	heme_Fe_opt.pdbqt
USER    NEWDPF about	-0.174000 -0.001000 -0.047000
USER    NEWDPF tran0	6.213412 -3.535220 8.998975
USER    NEWDPF axisangle0	-0.315051 -0.528279 0.788456 168.473590
USER    NEWDPF quaternion0	-0.313459 -0.525609 0.784471 0.100417
USER    NEWDPF dihe0	-56.58 90.25 92.18 -92.70 180.00 112.45 -33.31 72.74 21.21 65.13 
USER  
USER                              x       y       z    vdW   Elec        q     RMS 
ATOM      1  C   UNL d   1       7.531  -4.323  10.361 -0.30 +0.03    +0.064    11.769
ATOM      2  C   UNL d   1       3.126  -2.102  10.663 -0.46 +0.00    +0.064    11.769
ATOM      3  C   UNL d   1       2.536  -2.782   5.945 -0.46 +0.01    +0.064    11.769
ATOM      4  C   UNL d   1       6.842  -4.840   5.611 -0.39 +0.02    +0.064    11.769
ATOM      5  C   UNL d   1       6.382  -3.560  10.868 -0.20 +0.01    +0.066    11.769
ATOM      6  C   UNL d   1       6.258  -3.086  12.164 -0.25 -0.00    -0.021    11.769
ATOM      7  C   UNL d   1       5.033  -2.472  12.248 -0.36 +0.00    -0.025    11.769
ATOM      8  C   UNL d   1       4.455  -2.596  10.999 -0.40 +0.00    +0.066    11.769
ATOM      9  C   UNL d   1       4.466  -1.793  13.457 -0.10 -0.01    +0.051    11.769
ATOM     10  C   UNL d   1       2.569  -2.157   9.452 -0.44 +0.01    +0.066    11.769
ATOM     11  C   UNL d   1       1.250  -1.780   9.187 -0.50 -0.00    -0.021    11.769
ATOM     12  C   UNL d   1       1.050  -1.982   7.836 -0.51 +0.00    +0.000    11.769
ATOM     13  C   UNL d   1       2.267  -2.485   7.344 -0.40 +0.01    +0.070    11.769
ATOM     14  C   UNL d   1       0.210  -1.314  10.185 -0.49 +0.00    +0.052    11.769
ATOM     15  C   UNL d   1       3.688  -3.315   5.474 -0.37 +0.01    +0.066    11.769
ATOM     16  C   UNL d   1       3.944  -3.490   4.120 -0.40 -0.00    -0.021    11.769
ATOM     17  C   UNL d   1       5.184  -4.087   4.021 -0.47 +0.00    +0.000    11.769
ATOM     18  C   UNL d   1       5.654  -4.266   5.320 -0.37 +0.01    +0.070    11.769
ATOM     19  C   UNL d   1       3.050  -3.135   2.963 -0.32 +0.00    +0.052    11.769
ATOM     20  C   UNL d   1       7.397  -4.989   6.962 -0.33 +0.03    +0.066    11.769
ATOM     21  C   UNL d   1       8.523  -5.754   7.295 -0.25 -0.02    -0.025    11.769
ATOM     22  C   UNL d   1       8.709  -5.582   8.651 -0.17 -0.02    -0.021    11.769
ATOM     23  C   UNL d   1       7.690  -4.729   9.091 -0.32 +0.04    +0.066    11.769
ATOM     24  C   UNL d   1       9.383  -6.609   6.393 -0.10 +0.04    +0.051    11.769
ATOM     25  N   UNL d   1       5.283  -3.250  10.159 -0.23 -0.04    -0.248    11.769
ATOM     26  N   UNL d   1       3.190  -2.600   8.329 -0.25 -0.06    -0.248    11.769
ATOM     27  N   UNL d   1       4.755  -3.752   6.212 +0.02 -0.06    -0.248    11.769
ATOM     28  N   UNL d   1       6.866  -4.406   8.064 -0.25 -0.10    -0.248    11.769
ATOM     29 FE   UNL d   1       5.029  -3.504   8.195 -0.10 +0.00    +0.000    11.769
ATOM     30  C   UNL d   1       7.260  -3.190  13.262 -0.18 +0.01    +0.052    11.769
ATOM     31  C   UNL d   1       7.846  -1.821  13.590 -0.16 +0.02    +0.115    11.769
ATOM     32  C   UNL d   1       8.165  -1.723  15.056 -0.12 +0.02    +0.139    11.769
ATOM     33  O   UNL d   1       8.647  -0.700  15.522 -0.35 -0.23    -0.650    11.769
ATOM     34  O   UNL d   1       7.921  -2.763  15.871 +0.05 -0.08    -0.776    11.769
ATOM     35  H   UNL d   1       8.648  -3.131  16.392 +0.02 +0.02    +0.167    11.769
ATOM     36  C   UNL d   1       9.777  -6.242   9.484 +0.01 +0.07    +0.052    11.769
ATOM     37  C   UNL d   1       9.938  -5.493  10.798 -0.15 +0.11    +0.115    11.769
ATOM     38  C   UNL d   1      11.228  -4.723  10.824 +0.14 +0.20    +0.139    11.769
ATOM     39  O   UNL d   1      11.227  -3.501  10.820 -0.06 -0.91    -0.650    11.769
ATOM     40  O   UNL d   1      12.402  -5.380  10.849 +0.01 -0.87    -0.776    11.769
ATOM     41  H   UNL d   1      12.794  -5.609  11.704 +0.01 +0.10    +0.167    11.769
ATOM     42  C   UNL d   1      -0.232  -1.719   7.112 -0.32 +0.00    +0.004    11.769
ATOM     43  C   UNL d   1      -0.233  -1.172   5.889 -0.59 +0.00    +0.012    11.769
ATOM     44  C   UNL d   1       5.882  -4.444   2.765 -0.42 +0.00    +0.004    11.769
ATOM     45  C   UNL d   1       5.206  -4.938   1.723 -0.34 -0.00    +0.012    11.769
TER
ENDMDL
MODEL       95
USER    Run = 95
USER    Cluster Rank = 3
USER    Number of conformations in this cluster = 4
USER  
USER    RMSD from reference structure       = 12.372 A
USER  
USER    Estimated Free Energy of Binding    =   -8.64 kcal/mol  [=(1)+(2)+(3)-(4)]
USER    Estimated Inhibition Constant, Ki   =  463.22 nM (nanomolar)  [Temperature = 298.15 K]
USER    
USER    (1) Final Intermolecular Energy     =  -11.62 kcal/mol
USER        vdW + Hbond + desolv Energy     =   -9.00 kcal/mol
USER        Electrostatic Energy            =   -2.63 kcal/mol
USER    (2) Final Total Internal Energy     =   -0.58 kcal/mol
USER    (3) Torsional Free Energy           =   +2.98 kcal/mol
USER    (4) Unbound System's Energy  [=(2)] =   -0.58 kcal/mol
USER    
USER    
USER  
USER    DPF = D:/Protein_go_brrr/autodock/final/mut_N102T/heme_Fe/dock.dpf
USER    NEWDPF move	heme_Fe_opt.pdbqt
USER    NEWDPF about	-0.174000 -0.001000 -0.047000
USER    NEWDPF tran0	9.255790 -6.638175 8.348608
USER    NEWDPF axisangle0	0.269618 -0.839279 -0.472141 100.496897
USER    NEWDPF quaternion0	0.207289 -0.645258 -0.362993 0.639460
USER    NEWDPF dihe0	117.98 -151.09 -124.46 3.95 -178.08 -97.88 -55.37 144.91 -26.57 -180.00 
USER  
USER                              x       y       z    vdW   Elec        q     RMS 
ATOM      1  C   UNL d   1       9.849  -6.676  10.313 -0.08 +0.05    +0.064    12.372
ATOM      2  C   UNL d   1      11.799  -8.263   6.058 -0.11 +0.03    +0.064    12.372
ATOM      3  C   UNL d   1       8.625  -5.560   3.674 -0.25 +0.01    +0.064    12.372
ATOM      4  C   UNL d   1       6.654  -4.093   7.779 -0.36 +0.02    +0.064    12.372
ATOM      5  C   UNL d   1      10.638  -7.438   9.335 -0.07 +0.06    +0.066    12.372
ATOM      6  C   UNL d   1      11.577  -8.403   9.658 -0.11 -0.01    -0.021    12.372
ATOM      7  C   UNL d   1      12.121  -8.841   8.476 -0.09 -0.01    -0.025    12.372
ATOM      8  C   UNL d   1      11.492  -8.125   7.476 -0.13 +0.04    +0.066    12.372
ATOM      9  C   UNL d   1      13.170  -9.900   8.325 -0.03 +0.01    +0.051    12.372
ATOM     10  C   UNL d   1      11.168  -7.627   5.069 -0.14 +0.02    +0.066    12.372
ATOM     11  C   UNL d   1      11.560  -7.692   3.730 -0.12 -0.00    -0.021    12.372
ATOM     12  C   UNL d   1      10.671  -6.907   3.024 -0.23 +0.00    +0.000    12.372
ATOM     13  C   UNL d   1       9.777  -6.392   3.980 -0.27 +0.02    +0.070    12.372
ATOM     14  C   UNL d   1      12.765  -8.412   3.160 -0.05 -0.00    +0.052    12.372
ATOM     15  C   UNL d   1       7.792  -5.019   4.595 -0.35 +0.02    +0.066    12.372
ATOM     16  C   UNL d   1       6.645  -4.312   4.258 -0.47 -0.00    -0.021    12.372
ATOM     17  C   UNL d   1       6.077  -3.885   5.441 -0.46 +0.00    +0.000    12.372
ATOM     18  C   UNL d   1       6.895  -4.339   6.473 -0.39 +0.02    +0.070    12.372
ATOM     19  C   UNL d   1       6.115  -4.026   2.879 -0.37 +0.00    +0.052    12.372
ATOM     20  C   UNL d   1       7.458  -4.606   8.895 -0.33 +0.04    +0.066    12.372
ATOM     21  C   UNL d   1       7.341  -4.199  10.231 -0.28 -0.01    -0.025    12.372
ATOM     22  C   UNL d   1       8.251  -4.957  10.938 -0.24 -0.01    -0.021    12.372
ATOM     23  C   UNL d   1       8.890  -5.787  10.009 -0.18 +0.06    +0.066    12.372
ATOM     24  C   UNL d   1       6.426  -3.151  10.822 -0.26 +0.01    +0.051    12.372
ATOM     25  N   UNL d   1      10.583  -7.279   8.001 -0.07 -0.30    -0.248    12.372
ATOM     26  N   UNL d   1      10.085  -6.823   5.228 -0.15 -0.13    -0.248    12.372
ATOM     27  N   UNL d   1       7.926  -5.073   5.956 -0.22 -0.12    -0.248    12.372
ATOM     28  N   UNL d   1       8.433  -5.537   8.757 -0.20 -0.23    -0.248    12.372
ATOM     29 FE   UNL d   1       9.258  -6.179   6.993 -0.07 +0.00    +0.000    12.372
ATOM     30  C   UNL d   1      11.927  -8.902  11.018 -0.08 +0.02    +0.052    12.372
ATOM     31  C   UNL d   1      10.725  -9.574  11.673 -0.13 +0.05    +0.115    12.372
ATOM     32  C   UNL d   1      11.071 -10.974  12.096 -0.14 +0.08    +0.139    12.372
ATOM     33  O   UNL d   1      10.229 -11.695  12.613 -0.58 -0.81    -0.650    12.372
ATOM     34  O   UNL d   1      12.314 -11.449  11.908 +0.03 -0.33    -0.776    12.372
ATOM     35  H   UNL d   1      12.658 -11.521  11.007 +0.02 +0.05    +0.167    12.372
ATOM     36  C   UNL d   1       8.525  -4.852  12.415 -0.18 +0.02    +0.052    12.372
ATOM     37  C   UNL d   1       9.503  -3.716  12.676 -0.08 +0.04    +0.115    12.372
ATOM     38  C   UNL d   1      10.520  -3.616  11.575 -0.10 +0.11    +0.139    12.372
ATOM     39  O   UNL d   1      11.628  -4.116  11.701 +0.01 -0.53    -0.650    12.372
ATOM     40  O   UNL d   1      10.216  -2.968  10.437 -0.32 -1.07    -0.776    12.372
ATOM     41  H   UNL d   1       9.573  -2.246  10.464 +0.04 +0.14    +0.167    12.372
ATOM     42  C   UNL d   1      10.717  -6.677   1.547 -0.24 -0.00    +0.004    12.372
ATOM     43  C   UNL d   1      11.612  -5.839   1.008 -0.34 -0.01    +0.012    12.372
ATOM     44  C   UNL d   1       4.822  -3.111   5.575 -0.32 +0.00    +0.004    12.372
ATOM     45  C   UNL d   1       3.671  -3.582   5.084 -0.49 +0.00    +0.012    12.372
TER
ENDMDL
MODEL        1
USER    Run = 1
USER    Cluster Rank = 4
USER    Number of conformations in this cluster = 10
USER  
USER    RMSD from reference structure       = 13.138 A
USER  
USER    Estimated Free Energy of Binding    =   -8.43 kcal/mol  [=(1)+(2)+(3)-(4)]
USER    Estimated Inhibition Constant, Ki   =  660.92 nM (nanomolar)  [Temperature = 298.15 K]
USER    
USER    (1) Final Intermolecular Energy     =  -11.41 kcal/mol
USER        vdW + Hbond + desolv Energy     =   -8.07 kcal/mol
USER        Electrostatic Energy            =   -3.34 kcal/mol
USER    (2) Final Total Internal Energy     =   -0.58 kcal/mol
USER    (3) Torsional Free Energy           =   +2.98 kcal/mol
USER    (4) Unbound System's Energy  [=(2)] =   -0.58 kcal/mol
USER    
USER    
USER  
USER    DPF = D:/Protein_go_brrr/autodock/final/mut_N102T/heme_Fe/dock.dpf
USER    NEWDPF move	heme_Fe_opt.pdbqt
USER    NEWDPF about	-0.174000 -0.001000 -0.047000
USER    NEWDPF tran0	11.678903 -7.883484 6.581196
USER    NEWDPF axisangle0	0.302269 0.883581 -0.357657 -107.546724
USER    NEWDPF quaternion0	0.243836 0.712772 -0.288517 -0.590981
USER    NEWDPF dihe0	-176.82 146.15 72.99 23.41 93.01 58.76 31.33 -140.26 146.40 -37.30 
USER  
USER                              x       y       z    vdW   Elec        q     RMS 
ATOM      1  C   UNL d   1      12.373  -8.311   8.464 -0.10 +0.04    +0.064    13.138
ATOM      2  C   UNL d   1       9.281 -10.527   5.309 -0.29 +0.01    +0.064    13.138
ATOM      3  C   UNL d   1      10.933  -7.689   1.804 -0.22 -0.02    +0.064    13.138
ATOM      4  C   UNL d   1      13.857  -5.459   4.863 -0.11 +0.03    +0.064    13.138
ATOM      5  C   UNL d   1      11.290  -9.141   7.919 -0.12 +0.03    +0.066    13.138
ATOM      6  C   UNL d   1      10.504 -10.004   8.665 -0.13 -0.01    -0.021    13.138
ATOM      7  C   UNL d   1       9.648 -10.622   7.787 -0.29 -0.01    -0.025    13.138
ATOM      8  C   UNL d   1       9.945 -10.111   6.538 -0.26 +0.01    +0.066    13.138
ATOM      9  C   UNL d   1       8.597 -11.629   8.140 -0.18 +0.00    +0.051    13.138
ATOM     10  C   UNL d   1       9.508 -10.009   4.101 -0.25 +0.00    +0.066    13.138
ATOM     11  C   UNL d   1       8.939 -10.507   2.926 -0.35 +0.00    -0.021    13.138
ATOM     12  C   UNL d   1       9.413  -9.716   1.898 -0.30 -0.00    +0.000    13.138
ATOM     13  C   UNL d   1      10.261  -8.772   2.505 -0.18 -0.01    +0.070    13.138
ATOM     14  C   UNL d   1       8.043 -11.720   2.780 -0.49 +0.00    +0.052    13.138
ATOM     15  C   UNL d   1      11.790  -6.810   2.375 -0.15 -0.01    +0.066    13.138
ATOM     16  C   UNL d   1      12.333  -5.729   1.694 -0.23 +0.01    -0.021    13.138
ATOM     17  C   UNL d   1      13.180  -5.086   2.573 -0.17 +0.00    +0.000    13.138
ATOM     18  C   UNL d   1      13.136  -5.795   3.772 -0.11 +0.02    +0.070    13.138
ATOM     19  C   UNL d   1      12.088  -5.327   0.264 -0.28 -0.04    +0.052    13.138
ATOM     20  C   UNL d   1      13.791  -6.144   6.160 -0.05 +0.05    +0.066    13.138
ATOM     21  C   UNL d   1      14.671  -5.937   7.232 -0.08 -0.02    -0.025    13.138
ATOM     22  C   UNL d   1      14.221  -6.750   8.252 -0.07 -0.01    -0.021    13.138
ATOM     23  C   UNL d   1      13.095  -7.423   7.763 -0.07 +0.05    +0.066    13.138
ATOM     24  C   UNL d   1      15.875  -5.028   7.301 -0.05 +0.02    +0.051    13.138
ATOM     25  N   UNL d   1      10.937  -9.203   6.624 -0.08 -0.08    -0.248    13.138
ATOM     26  N   UNL d   1      10.326  -8.956   3.846 -0.10 -0.01    -0.248    13.138
ATOM     27  N   UNL d   1      12.249  -6.829   3.665 -0.06 -0.03    -0.248    13.138
ATOM     28  N   UNL d   1      12.864  -7.082   6.471 -0.07 -0.19    -0.248    13.138
ATOM     29 FE   UNL d   1      11.596  -8.018   5.158 -0.03 +0.00    +0.000    13.138
ATOM     30  C   UNL d   1      10.548 -10.218  10.139 -0.11 +0.02    +0.052    13.138
ATOM     31  C   UNL d   1      10.770 -11.691  10.465 -0.16 +0.04    +0.115    13.138
ATOM     32  C   UNL d   1      10.092 -12.051  11.759 -0.20 +0.12    +0.139    13.138
ATOM     33  O   UNL d   1       8.954 -12.499  11.762 -0.38 -0.60    -0.650    13.138
ATOM     34  O   UNL d   1      10.735 -11.882  12.927 -0.41 -1.05    -0.776    13.138
ATOM     35  H   UNL d   1      11.617 -11.485  12.924 +0.02 +0.13    +0.167    13.138
ATOM     36  C   UNL d   1      14.869  -6.907   9.602 -0.03 +0.02    +0.052    13.138
ATOM     37  C   UNL d   1      14.911  -5.561  10.310 -0.03 +0.06    +0.115    13.138
ATOM     38  C   UNL d   1      13.651  -4.782  10.063 +0.08 +0.17    +0.139    13.138
ATOM     39  O   UNL d   1      12.562  -5.238  10.380 +0.02 -0.97    -0.650    13.138
ATOM     40  O   UNL d   1      13.713  -3.571   9.482 -0.47 -1.24    -0.776    13.138
ATOM     41  H   UNL d   1      14.473  -3.000   9.665 +0.01 +0.13    +0.167    13.138
ATOM     42  C   UNL d   1       9.072  -9.894   0.453 -0.46 -0.00    +0.004    13.138
ATOM     43  C   UNL d   1       8.482  -8.912  -0.242 -0.58 -0.01    +0.012    13.138
ATOM     44  C   UNL d   1      13.964  -3.862   2.291 -0.19 +0.00    +0.004    13.138
ATOM     45  C   UNL d   1      13.379  -2.660   2.286 -0.32 +0.00    +0.012    13.138
TER
ENDMDL
MODEL       43
USER    Run = 43
USER    Cluster Rank = 5
USER    Number of conformations in this cluster = 17
USER  
USER    RMSD from reference structure       = 17.454 A
USER  
USER    Estimated Free Energy of Binding    =   -7.98 kcal/mol  [=(1)+(2)+(3)-(4)]
USER    Estimated Inhibition Constant, Ki   =    1.42 uM (micromolar)  [Temperature = 298.15 K]
USER    
USER    (1) Final Intermolecular Energy     =  -10.96 kcal/mol
USER        vdW + Hbond + desolv Energy     =   -7.56 kcal/mol
USER        Electrostatic Energy            =   -3.40 kcal/mol
USER    (2) Final Total Internal Energy     =   -0.52 kcal/mol
USER    (3) Torsional Free Energy           =   +2.98 kcal/mol
USER    (4) Unbound System's Energy  [=(2)] =   -0.52 kcal/mol
USER    
USER    
USER  
USER    DPF = D:/Protein_go_brrr/autodock/final/mut_N102T/heme_Fe/dock.dpf
USER    NEWDPF move	heme_Fe_opt.pdbqt
USER    NEWDPF about	-0.174000 -0.001000 -0.047000
USER    NEWDPF tran0	7.462513 -5.275935 16.253799
USER    NEWDPF axisangle0	0.145591 0.963439 -0.224921 151.536424
USER    NEWDPF quaternion0	0.141123 0.933870 -0.218018 0.245845
USER    NEWDPF dihe0	105.10 84.84 -146.97 159.76 178.96 172.27 29.68 -75.24 -154.54 162.74 
USER  
USER                              x       y       z    vdW   Elec        q     RMS 
ATOM      1  C   UNL d   1       8.839  -6.241  15.077 -0.13 +0.01    +0.064    17.454
ATOM      2  C   UNL d   1       5.355  -7.698  18.266 -0.14 -0.01    +0.064    17.454
ATOM      3  C   UNL d   1       3.447  -3.294  18.086 -0.14 -0.01    +0.064    17.454
ATOM      4  C   UNL d   1       6.870  -1.834  15.081 -0.20 +0.00    +0.064    17.454
ATOM      5  C   UNL d   1       8.084  -7.036  16.056 -0.15 +0.01    +0.066    17.454
ATOM      6  C   UNL d   1       8.413  -8.322  16.453 -0.19 -0.01    -0.021    17.454
ATOM      7  C   UNL d   1       7.443  -8.727  17.335 -0.21 -0.00    -0.025    17.454
ATOM      8  C   UNL d   1       6.558  -7.671  17.444 -0.22 +0.00    +0.066    17.454
ATOM      9  C   UNL d   1       7.388 -10.046  18.043 -0.20 +0.01    +0.051    17.454
ATOM     10  C   UNL d   1       4.516  -6.674  18.433 -0.16 -0.01    +0.066    17.454
ATOM     11  C   UNL d   1       3.312  -6.766  19.135 -0.15 +0.01    -0.021    17.454
ATOM     12  C   UNL d   1       2.734  -5.513  19.083 -0.15 -0.00    +0.000    17.454
ATOM     13  C   UNL d   1       3.621  -4.716  18.338 -0.13 -0.01    +0.070    17.454
ATOM     14  C   UNL d   1       2.707  -8.004  19.765 -0.20 -0.01    +0.052    17.454
ATOM     15  C   UNL d   1       4.270  -2.535  17.327 -0.15 -0.01    +0.066    17.454
ATOM     16  C   UNL d   1       4.125  -1.160  17.192 -0.31 +0.00    -0.021    17.454
ATOM     17  C   UNL d   1       5.110  -0.737  16.322 -0.32 -0.00    +0.000    17.454
ATOM     18  C   UNL d   1       5.831  -1.867  15.944 -0.19 -0.00    +0.070    17.454
ATOM     19  C   UNL d   1       3.087  -0.279  17.833 -0.47 -0.02    +0.052    17.454
ATOM     20  C   UNL d   1       7.691  -2.992  14.707 -0.09 +0.01    +0.066    17.454
ATOM     21  C   UNL d   1       8.636  -3.014  13.671 -0.09 -0.01    -0.025    17.454
ATOM     22  C   UNL d   1       9.194  -4.276  13.696 -0.08 -0.01    -0.021    17.454
ATOM     23  C   UNL d   1       8.566  -4.972  14.737 -0.09 +0.01    +0.066    17.454
ATOM     24  C   UNL d   1       8.998  -1.914  12.701 -0.15 +0.01    +0.051    17.454
ATOM     25  N   UNL d   1       6.956  -6.641  16.672 -0.11 -0.01    -0.248    17.454
ATOM     26  N   UNL d   1       4.703  -5.426  17.934 -0.11 +0.03    -0.248    17.454
ATOM     27  N   UNL d   1       5.344  -2.966  16.594 -0.08 +0.02    -0.248    17.454
ATOM     28  N   UNL d   1       7.619  -4.198  15.320 -0.05 -0.02    -0.248    17.454
ATOM     29 FE   UNL d   1       6.161  -4.810  16.626 -0.03 -0.00    +0.000    17.454
ATOM     30  C   UNL d   1       9.600  -9.119  16.032 -0.16 +0.02    +0.052    17.454
ATOM     31  C   UNL d   1       9.537  -9.437  14.542 -0.19 +0.07    +0.115    17.454
ATOM     32  C   UNL d   1      10.230 -10.739  14.252 -0.04 +0.17    +0.139    17.454
ATOM     33  O   UNL d   1      10.272 -11.183  13.113 -0.40 -0.79    -0.650    17.454
ATOM     34  O   UNL d   1      10.811 -11.431  15.247 -0.15 -1.37    -0.776    17.454
ATOM     35  H   UNL d   1      11.651 -11.117  15.609 +0.01 +0.15    +0.167    17.454
ATOM     36  C   UNL d   1      10.235  -4.796  12.741 -0.07 +0.02    +0.052    17.454
ATOM     37  C   UNL d   1       9.572  -5.661  11.679 -0.16 +0.07    +0.115    17.454
ATOM     38  C   UNL d   1       9.466  -4.924  10.374 -0.10 +0.17    +0.139    17.454
ATOM     39  O   UNL d   1       9.092  -5.497   9.361 -0.05 -0.84    -0.650    17.454
ATOM     40  O   UNL d   1       9.788  -3.620  10.311 -0.37 -1.20    -0.776    17.454
ATOM     41  H   UNL d   1       9.087  -2.958  10.392 +0.05 +0.15    +0.167    17.454
ATOM     42  C   UNL d   1       1.419  -5.151  19.698 -0.12 -0.00    +0.004    17.454
ATOM     43  C   UNL d   1       0.304  -5.096  18.958 -0.21 -0.00    +0.012    17.454
ATOM     44  C   UNL d   1       5.357   0.660  15.898 -0.41 -0.00    +0.004    17.454
ATOM     45  C   UNL d   1       5.802   0.933  14.668 -0.49 -0.00    +0.012    17.454
TER
ENDMDL
MODEL       33
USER    Run = 33
USER    Cluster Rank = 6
USER    Number of conformations in this cluster = 1
USER  
USER    RMSD from reference structure       = 15.350 A
USER  
USER    Estimated Free Energy of Binding    =   -7.95 kcal/mol  [=(1)+(2)+(3)-(4)]
USER    Estimated Inhibition Constant, Ki   =    1.48 uM (micromolar)  [Temperature = 298.15 K]
USER    
USER    (1) Final Intermolecular Energy     =  -10.93 kcal/mol
USER        vdW + Hbond + desolv Energy     =   -9.16 kcal/mol
USER        Electrostatic Energy            =   -1.78 kcal/mol
USER    (2) Final Total Internal Energy     =   -0.42 kcal/mol
USER    (3) Torsional Free Energy           =   +2.98 kcal/mol
USER    (4) Unbound System's Energy  [=(2)] =   -0.42 kcal/mol
USER    
USER    
USER  
USER    DPF = D:/Protein_go_brrr/autodock/final/mut_N102T/heme_Fe/dock.dpf
USER    NEWDPF move	heme_Fe_opt.pdbqt
USER    NEWDPF about	-0.174000 -0.001000 -0.047000
USER    NEWDPF tran0	6.860592 -4.074353 13.643810
USER    NEWDPF axisangle0	0.082578 0.696938 0.712361 -165.537410
USER    NEWDPF quaternion0	0.081921 0.691394 0.706695 -0.125875
USER    NEWDPF dihe0	102.95 126.88 -30.93 28.63 68.90 -76.16 87.62 143.01 -154.17 -176.30 
USER  
USER                              x       y       z    vdW   Elec        q     RMS 
ATOM      1  C   UNL d   1       8.910  -4.142  13.717 -0.09 +0.01    +0.064    15.350
ATOM      2  C   UNL d   1       5.582  -3.223  10.180 -0.22 +0.01    +0.064    15.350
ATOM      3  C   UNL d   1       2.227  -2.684  13.574 -0.36 -0.01    +0.064    15.350
ATOM      4  C   UNL d   1       5.409  -3.674  17.006 -0.13 -0.00    +0.064    15.350
ATOM      5  C   UNL d   1       8.267  -4.015  12.402 -0.14 +0.02    +0.066    15.350
ATOM      6  C   UNL d   1       8.902  -4.219  11.188 -0.19 -0.01    -0.021    15.350
ATOM      7  C   UNL d   1       7.978  -3.960  10.206 -0.25 -0.02    -0.025    15.350
ATOM      8  C   UNL d   1       6.812  -3.608  10.859 -0.22 +0.02    +0.066    15.350
ATOM      9  C   UNL d   1       8.205  -4.067   8.729 -0.24 +0.05    +0.051    15.350
ATOM     10  C   UNL d   1       4.428  -2.935  10.785 -0.36 +0.00    +0.066    15.350
ATOM     11  C   UNL d   1       3.299  -2.458  10.115 -0.49 -0.00    -0.021    15.350
ATOM     12  C   UNL d   1       2.323  -2.279  11.074 -0.50 +0.00    +0.000    15.350
ATOM     13  C   UNL d   1       2.915  -2.651  12.293 -0.48 -0.00    +0.070    15.350
ATOM     14  C   UNL d   1       3.178  -2.125   8.642 -0.47 +0.01    +0.052    15.350
ATOM     15  C   UNL d   1       2.806  -2.991  14.758 -0.37 -0.01    +0.066    15.350
ATOM     16  C   UNL d   1       2.093  -3.109  15.944 -0.43 +0.01    -0.021    15.350
ATOM     17  C   UNL d   1       3.009  -3.391  16.936 -0.28 -0.00    +0.000    15.350
ATOM     18  C   UNL d   1       4.263  -3.435  16.332 -0.20 -0.01    +0.070    15.350
ATOM     19  C   UNL d   1       0.611  -2.938  16.145 -0.32 -0.01    +0.052    15.350
ATOM     20  C   UNL d   1       6.738  -3.788  16.394 -0.08 +0.00    +0.066    15.350
ATOM     21  C   UNL d   1       7.951  -3.835  17.096 -0.05 -0.00    -0.025    15.350
ATOM     22  C   UNL d   1       8.935  -3.982  16.139 -0.04 -0.00    -0.021    15.350
ATOM     23  C   UNL d   1       8.287  -4.011  14.898 -0.07 +0.01    +0.066    15.350
ATOM     24  C   UNL d   1       8.183  -3.744  18.586 -0.02 +0.00    +0.051    15.350
ATOM     25  N   UNL d   1       6.989  -3.652  12.195 -0.12 -0.05    -0.248    15.350
ATOM     26  N   UNL d   1       4.201  -3.042  12.119 -0.23 +0.00    -0.248    15.350
ATOM     27  N   UNL d   1       4.135  -3.233  14.986 -0.16 +0.03    -0.248    15.350
ATOM     28  N   UNL d   1       6.951  -3.848  15.058 +0.00 -0.02    -0.248    15.350
ATOM     29 FE   UNL d   1       5.576  -3.445  13.590 -0.07 +0.00    +0.000    15.350
ATOM     30  C   UNL d   1      10.309  -4.659  10.969 -0.08 +0.06    +0.052    15.350
ATOM     31  C   UNL d   1      11.289  -3.608  11.480 -0.09 +0.11    +0.115    15.350
ATOM     32  C   UNL d   1      11.667  -2.660  10.376 +0.05 +0.20    +0.139    15.350
ATOM     33  O   UNL d   1      10.848  -1.875   9.921 -0.27 -0.80    -0.650    15.350
ATOM     34  O   UNL d   1      12.915  -2.668   9.878 -0.45 -1.16    -0.776    15.350
ATOM     35  H   UNL d   1      13.625  -2.249  10.384 +0.02 +0.13    +0.167    15.350
ATOM     36  C   UNL d   1      10.416  -4.040  16.403 -0.01 +0.01    +0.052    15.350
ATOM     37  C   UNL d   1      10.954  -2.634  16.625 -0.01 +0.02    +0.115    15.350
ATOM     38  C   UNL d   1      10.279  -1.649  15.712 -0.05 +0.03    +0.139    15.350
ATOM     39  O   UNL d   1      10.578  -1.587  14.529 +0.04 -0.15    -0.650    15.350
ATOM     40  O   UNL d   1       9.337  -0.821  16.197 -0.54 -0.29    -0.776    15.350
ATOM     41  H   UNL d   1       8.587  -1.194  16.681 +0.04 +0.05    +0.167    15.350
ATOM     42  C   UNL d   1       0.943  -1.768  10.805 -0.30 +0.00    +0.004    15.350
ATOM     43  C   UNL d   1       0.440  -1.759   9.564 -0.57 +0.00    +0.012    15.350
ATOM     44  C   UNL d   1       2.702  -3.624  18.366 -0.16 -0.00    +0.004    15.350
ATOM     45  C   UNL d   1       2.294  -4.823  18.792 -0.18 -0.00    +0.012    15.350
TER
ENDMDL
MODEL        8
USER    Run = 8
USER    Cluster Rank = 7
USER    Number of conformations in this cluster = 1
USER  
USER    RMSD from reference structure       = 17.669 A
USER  
USER    Estimated Free Energy of Binding    =   -7.90 kcal/mol  [=(1)+(2)+(3)-(4)]
USER    Estimated Inhibition Constant, Ki   =    1.63 uM (micromolar)  [Temperature = 298.15 K]
USER    
USER    (1) Final Intermolecular Energy     =  -10.88 kcal/mol
USER        vdW + Hbond + desolv Energy     =   -7.85 kcal/mol
USER        Electrostatic Energy            =   -3.03 kcal/mol
USER    (2) Final Total Internal Energy     =   -0.66 kcal/mol
USER    (3) Torsional Free Energy           =   +2.98 kcal/mol
USER    (4) Unbound System's Energy  [=(2)] =   -0.66 kcal/mol
USER    
USER    
USER  
USER    DPF = D:/Protein_go_brrr/autodock/final/mut_N102T/heme_Fe/dock.dpf
USER    NEWDPF move	heme_Fe_opt.pdbqt
USER    NEWDPF about	-0.174000 -0.001000 -0.047000
USER    NEWDPF tran0	7.478845 -2.182611 15.857551
USER    NEWDPF axisangle0	0.075603 0.705830 0.704335 143.942855
USER    NEWDPF quaternion0	0.071891 0.671176 0.669754 0.309491
USER    NEWDPF dihe0	-166.63 126.48 -113.78 -154.02 -98.55 87.30 -51.21 -54.52 -23.40 160.41 
USER  
USER                              x       y       z    vdW   Elec        q     RMS 
ATOM      1  C   UNL d   1       8.860  -1.056  14.841 -0.16 +0.01    +0.064    17.669
ATOM      2  C   UNL d   1       4.308  -2.708  13.851 -0.30 -0.01    +0.064    17.669
ATOM      3  C   UNL d   1       3.735  -3.715  18.512 -0.11 -0.01    +0.064    17.669
ATOM      4  C   UNL d   1       8.175  -2.218  19.475 -0.04 +0.00    +0.064    17.669
ATOM      5  C   UNL d   1       7.663  -1.505  14.117 -0.16 +0.01    +0.066    17.669
ATOM      6  C   UNL d   1       7.514  -1.477  12.740 -0.24 -0.00    -0.021    17.669
ATOM      7  C   UNL d   1       6.248  -1.932  12.466 -0.31 -0.00    -0.025    17.669
ATOM      8  C   UNL d   1       5.672  -2.222  13.688 -0.25 -0.00    +0.066    17.669
ATOM      9  C   UNL d   1       5.643  -2.095  11.105 -0.29 +0.00    +0.051    17.669
ATOM     10  C   UNL d   1       3.748  -3.049  15.013 -0.31 -0.01    +0.066    17.669
ATOM     11  C   UNL d   1       2.403  -3.403  15.151 -0.47 +0.00    -0.021    17.669
ATOM     12  C   UNL d   1       2.208  -3.681  16.489 -0.38 -0.00    +0.000    17.669
ATOM     13  C   UNL d   1       3.454  -3.474  17.105 -0.20 -0.01    +0.070    17.669
ATOM     14  C   UNL d   1       1.339  -3.408  14.072 -0.34 -0.01    +0.052    17.669
ATOM     15  C   UNL d   1       4.918  -3.467  19.121 -0.04 -0.01    +0.066    17.669
ATOM     16  C   UNL d   1       5.176  -3.804  20.443 -0.01 +0.00    -0.021    17.669
ATOM     17  C   UNL d   1       6.455  -3.370  20.724 -0.01 -0.00    +0.000    17.669
ATOM     18  C   UNL d   1       6.947  -2.774  19.565 -0.02 -0.00    +0.070    17.669
ATOM     19  C   UNL d   1       4.250  -4.484  21.415 -0.01 -0.01    +0.052    17.669
ATOM     20  C   UNL d   1       8.749  -1.637  18.256 -0.07 +0.01    +0.066    17.669
ATOM     21  C   UNL d   1       9.930  -0.884  18.196 -0.07 -0.01    -0.025    17.669
ATOM     22  C   UNL d   1      10.113  -0.574  16.864 -0.06 -0.01    -0.021    17.669
ATOM     23  C   UNL d   1       9.039  -1.142  16.168 -0.02 +0.02    +0.066    17.669
ATOM     24  C   UNL d   1      10.843  -0.470  19.326 -0.05 +0.01    +0.051    17.669
ATOM     25  N   UNL d   1       6.539  -1.970  14.689 -0.10 -0.00    -0.248    17.669
ATOM     26  N   UNL d   1       4.391  -3.080  16.208 -0.13 +0.03    -0.248    17.669
ATOM     27  N   UNL d   1       6.019  -2.872  18.566 -0.02 +0.02    -0.248    17.669
ATOM     28  N   UNL d   1       8.186  -1.750  17.028 -0.07 -0.04    -0.248    17.669
ATOM     29 FE   UNL d   1       6.290  -2.415  16.620 -0.03 -0.00    +0.000    17.669
ATOM     30  C   UNL d   1       8.529  -1.059  11.732 -0.25 +0.01    +0.052    17.669
ATOM     31  C   UNL d   1       9.711  -2.022  11.723 -0.15 +0.06    +0.115    17.669
ATOM     32  C   UNL d   1       9.999  -2.489  10.324 -0.12 +0.16    +0.139    17.669
ATOM     33  O   UNL d   1       9.587  -3.571   9.930 -0.43 -1.16    -0.650    17.669
ATOM     34  O   UNL d   1      10.716  -1.718   9.489 -0.36 -1.01    -0.776    17.669
ATOM     35  H   UNL d   1      11.204  -0.964   9.849 +0.05 +0.14    +0.167    17.669
ATOM     36  C   UNL d   1      11.232   0.262  16.301 -0.12 +0.02    +0.052    17.669
ATOM     37  C   UNL d   1      10.720   1.660  15.986 -0.25 +0.06    +0.115    17.669
ATOM     38  C   UNL d   1      11.545   2.705  16.683 -0.23 +0.13    +0.139    17.669
ATOM     39  O   UNL d   1      12.557   3.151  16.164 -0.06 -0.65    -0.650    17.669
ATOM     40  O   UNL d   1      11.172   3.156  17.894 -0.40 -0.94    -0.776    17.669
ATOM     41  H   UNL d   1      10.276   3.500  18.013 -0.49 +0.18    +0.167    17.669
ATOM     42  C   UNL d   1       0.905  -4.094  17.096 -0.35 -0.00    +0.004    17.669
ATOM     43  C   UNL d   1      -0.137  -3.253  17.130 -0.44 -0.00    +0.012    17.669
ATOM     44  C   UNL d   1       7.168  -3.534  22.011 -0.00 -0.00    +0.004    17.669
ATOM     45  C   UNL d   1       7.247  -2.524  22.884 -0.00 -0.00    +0.012    17.669
TER
ENDMDL
MODEL       94
USER    Run = 94
USER    Cluster Rank = 8
USER    Number of conformations in this cluster = 7
USER  
USER    RMSD from reference structure       = 16.040 A
USER  
USER    Estimated Free Energy of Binding    =   -7.81 kcal/mol  [=(1)+(2)+(3)-(4)]
USER    Estimated Inhibition Constant, Ki   =    1.88 uM (micromolar)  [Temperature = 298.15 K]
USER    
USER    (1) Final Intermolecular Energy     =  -10.80 kcal/mol
USER        vdW + Hbond + desolv Energy     =   -6.97 kcal/mol
USER        Electrostatic Energy            =   -3.83 kcal/mol
USER    (2) Final Total Internal Energy     =   -0.67 kcal/mol
USER    (3) Torsional Free Energy           =   +2.98 kcal/mol
USER    (4) Unbound System's Energy  [=(2)] =   -0.67 kcal/mol
USER    
USER    
USER  
USER    DPF = D:/Protein_go_brrr/autodock/final/mut_N102T/heme_Fe/dock.dpf
USER    NEWDPF move	heme_Fe_opt.pdbqt
USER    NEWDPF about	-0.174000 -0.001000 -0.047000
USER    NEWDPF tran0	-8.610562 -13.260082 -9.453426
USER    NEWDPF axisangle0	0.023571 -0.977822 0.208109 103.547127
USER    NEWDPF quaternion0	0.018517 -0.768149 0.163484 0.618771
USER    NEWDPF dihe0	-113.59 -85.49 -163.19 53.62 116.59 164.37 80.66 69.02 -158.42 155.79 
USER  
USER                              x       y       z    vdW   Elec        q     RMS 
ATOM      1  C   UNL d   1      -7.649 -12.980  -7.662 -0.17 +0.04    +0.064    16.040
ATOM      2  C   UNL d   1      -9.266 -16.924 -10.165 -0.07 +0.02    +0.064    16.040
ATOM      3  C   UNL d   1      -9.717 -14.171 -14.075 -0.13 +0.01    +0.064    16.040
ATOM      4  C   UNL d   1      -8.255 -10.319 -11.644 -0.30 +0.02    +0.064    16.040
ATOM      5  C   UNL d   1      -8.142 -14.327  -7.982 -0.13 +0.04    +0.066    16.040
ATOM      6  C   UNL d   1      -8.266 -15.361  -7.069 -0.08 -0.02    -0.021    16.040
ATOM      7  C   UNL d   1      -8.711 -16.457  -7.766 -0.05 -0.01    -0.025    16.040
ATOM      8  C   UNL d   1      -8.842 -16.049  -9.079 -0.09 +0.03    +0.066    16.040
ATOM      9  C   UNL d   1      -9.010 -17.808  -7.190 -0.01 +0.02    +0.051    16.040
ATOM     10  C   UNL d   1      -9.455 -16.541 -11.429 -0.09 +0.01    +0.066    16.040
ATOM     11  C   UNL d   1      -9.750 -17.425 -12.470 -0.08 -0.00    -0.021    16.040
ATOM     12  C   UNL d   1      -9.868 -16.658 -13.612 -0.10 +0.00    +0.000    16.040
ATOM     13  C   UNL d   1      -9.629 -15.334 -13.206 -0.09 +0.01    +0.070    16.040
ATOM     14  C   UNL d   1      -9.846 -18.936 -12.394 -0.03 +0.01    +0.052    16.040
ATOM     15  C   UNL d   1      -9.437 -12.900 -13.701 -0.11 +0.01    +0.066    16.040
ATOM     16  C   UNL d   1      -9.629 -11.804 -14.533 -0.12 -0.00    -0.021    16.040
ATOM     17  C   UNL d   1      -9.204 -10.693 -13.835 -0.19 +0.00    +0.000    16.040
ATOM     18  C   UNL d   1      -8.759 -11.138 -12.593 -0.19 +0.02    +0.070    16.040
ATOM     19  C   UNL d   1     -10.166 -11.802 -15.939 -0.06 +0.01    +0.052    16.040
ATOM     20  C   UNL d   1      -7.834 -10.743 -10.303 -0.26 +0.02    +0.066    16.040
ATOM     21  C   UNL d   1      -7.129  -9.949  -9.387 -0.34 -0.01    -0.025    16.040
ATOM     22  C   UNL d   1      -6.978 -10.723  -8.255 -0.28 -0.01    -0.021    16.040
ATOM     23  C   UNL d   1      -7.588 -11.954  -8.525 -0.15 +0.02    +0.066    16.040
ATOM     24  C   UNL d   1      -6.616  -8.538  -9.560 -0.44 +0.01    +0.051    16.040
ATOM     25  N   UNL d   1      -8.504 -14.750  -9.206 -0.11 -0.11    -0.248    16.040
ATOM     26  N   UNL d   1      -9.369 -15.263 -11.877 -0.07 -0.04    -0.248    16.040
ATOM     27  N   UNL d   1      -8.942 -12.489 -12.492 -0.05 -0.06    -0.248    16.040
ATOM     28  N   UNL d   1      -8.069 -11.975  -9.792 -0.14 -0.07    -0.248    16.040
ATOM     29 FE   UNL d   1      -8.719 -13.617 -10.835 -0.04 +0.00    +0.000    16.040
ATOM     30  C   UNL d   1      -7.996 -15.308  -5.604 -0.07 +0.04    +0.052    16.040
ATOM     31  C   UNL d   1      -6.504 -15.147  -5.335 -0.06 +0.17    +0.115    16.040
ATOM     32  C   UNL d   1      -5.885 -16.475  -4.994 -0.12 +0.23    +0.139    16.040
ATOM     33  O   UNL d   1      -5.030 -16.968  -5.716 -0.26 -1.43    -0.650    16.040
ATOM     34  O   UNL d   1      -6.270 -17.134  -3.888 +0.00 -1.34    -0.776    16.040
ATOM     35  H   UNL d   1      -7.173 -17.477  -3.835 +0.02 +0.20    +0.167    16.040
ATOM     36  C   UNL d   1      -6.245 -10.317  -7.003 -0.43 +0.02    +0.052    16.040
ATOM     37  C   UNL d   1      -4.926 -11.071  -6.913 -0.26 +0.08    +0.115    16.040
ATOM     38  C   UNL d   1      -4.943 -12.053  -5.776 -0.39 +0.16    +0.139    16.040
ATOM     39  O   UNL d   1      -4.110 -12.944  -5.707 -0.53 -1.34    -0.650    16.040
ATOM     40  O   UNL d   1      -5.886 -11.958  -4.822 -0.49 -0.73    -0.776    16.040
ATOM     41  H   UNL d   1      -6.694 -12.484  -4.906 +0.06 +0.14    +0.167    16.040
ATOM     42  C   UNL d   1     -10.170 -17.193 -14.976 -0.05 +0.00    +0.004    16.040
ATOM     43  C   UNL d   1      -9.275 -17.097 -15.968 -0.06 +0.00    +0.012    16.040
ATOM     44  C   UNL d   1      -9.242  -9.294 -14.318 -0.22 +0.00    +0.004    16.040
ATOM     45  C   UNL d   1     -10.127  -8.422 -13.823 -0.13 +0.01    +0.012    16.040
TER
ENDMDL
MODEL        7
USER    Run = 7
USER    Cluster Rank = 9
USER    Number of conformations in this cluster = 1
USER  
USER    RMSD from reference structure       = 15.047 A
USER  
USER    Estimated Free Energy of Binding    =   -7.64 kcal/mol  [=(1)+(2)+(3)-(4)]
USER    Estimated Inhibition Constant, Ki   =    2.50 uM (micromolar)  [Temperature = 298.15 K]
USER    
USER    (1) Final Intermolecular Energy     =  -10.63 kcal/mol
USER        vdW + Hbond + desolv Energy     =   -6.96 kcal/mol
USER        Electrostatic Energy            =   -3.67 kcal/mol
USER    (2) Final Total Internal Energy     =   -0.46 kcal/mol
USER    (3) Torsional Free Energy           =   +2.98 kcal/mol
USER    (4) Unbound System's Energy  [=(2)] =   -0.46 kcal/mol
USER    
USER    
USER  
USER    DPF = D:/Protein_go_brrr/autodock/final/mut_N102T/heme_Fe/dock.dpf
USER    NEWDPF move	heme_Fe_opt.pdbqt
USER    NEWDPF about	-0.174000 -0.001000 -0.047000
USER    NEWDPF tran0	10.980617 -4.915409 11.230479
USER    NEWDPF axisangle0	0.196437 0.187653 0.962392 -112.098384
USER    NEWDPF quaternion0	0.162948 0.155661 0.798321 -0.558481
USER    NEWDPF dihe0	150.36 146.47 10.21 1.64 74.42 19.91 -156.07 -23.83 -26.95 -158.80 
USER  
USER                              x       y       z    vdW   Elec        q     RMS 
ATOM      1  C   UNL d   1      11.901  -6.728  11.512 -0.08 +0.04    +0.064    15.047
ATOM      2  C   UNL d   1      13.433  -2.209  10.221 -0.08 +0.05    +0.064    15.047
ATOM      3  C   UNL d   1       9.233  -0.431  11.726 -0.27 +0.02    +0.064    15.047
ATOM      4  C   UNL d   1       7.690  -4.808  12.884 -0.06 +0.01    +0.064    15.047
ATOM      5  C   UNL d   1      12.690  -5.632  10.932 -0.06 +0.06    +0.066    15.047
ATOM      6  C   UNL d   1      13.912  -5.786  10.299 -0.05 -0.02    -0.021    15.047
ATOM      7  C   UNL d   1      14.339  -4.530   9.945 -0.06 -0.02    -0.025    15.047
ATOM      8  C   UNL d   1      13.359  -3.657  10.375 +0.03 +0.08    +0.066    15.047
ATOM      9  C   UNL d   1      15.607  -4.201   9.218 -0.05 +0.03    +0.051    15.047
ATOM     10  C   UNL d   1      12.477  -1.349  10.575 -0.11 +0.04    +0.066    15.047
ATOM     11  C   UNL d   1      12.624   0.039  10.522 -0.13 -0.01    -0.021    15.047
ATOM     12  C   UNL d   1      11.432   0.575  10.966 -0.24 +0.00    +0.000    15.047
ATOM     13  C   UNL d   1      10.614  -0.524  11.279 -0.19 +0.03    +0.070    15.047
ATOM     14  C   UNL d   1      13.864   0.817  10.131 -0.11 +0.02    +0.052    15.047
ATOM     15  C   UNL d   1       8.459  -1.484  12.078 -0.20 +0.02    +0.066    15.047
ATOM     16  C   UNL d   1       7.114  -1.361  12.403 -0.30 -0.00    -0.021    15.047
ATOM     17  C   UNL d   1       6.668  -2.622  12.741 -0.24 +0.00    +0.000    15.047
ATOM     18  C   UNL d   1       7.754  -3.485  12.618 -0.15 +0.02    +0.070    15.047
ATOM     19  C   UNL d   1       6.284  -0.106  12.422 -0.41 +0.00    +0.052    15.047
ATOM     20  C   UNL d   1       8.796  -5.757  12.707 -0.17 +0.02    +0.066    15.047
ATOM     21  C   UNL d   1       8.807  -7.082  13.165 -0.20 -0.01    -0.025    15.047
ATOM     22  C   UNL d   1      10.011  -7.614  12.751 -0.14 -0.01    -0.021    15.047
ATOM     23  C   UNL d   1      10.686  -6.597  12.067 -0.10 +0.03    +0.066    15.047
ATOM     24  C   UNL d   1       7.748  -7.817  13.953 +0.02 +0.01    +0.051    15.047
ATOM     25  N   UNL d   1      12.352  -4.331  10.966 -0.04 -0.30    -0.248    15.047
ATOM     26  N   UNL d   1      11.253  -1.697  11.050 -0.10 -0.18    -0.248    15.047
ATOM     27  N   UNL d   1       8.844  -2.794  12.168 -0.07 -0.09    -0.248    15.047
ATOM     28  N   UNL d   1       9.959  -5.453  12.082 -0.07 -0.13    -0.248    15.047
ATOM     29 FE   UNL d   1      10.605  -3.576  11.567 -0.02 +0.00    +0.000    15.047
ATOM     30  C   UNL d   1      14.631  -7.063  10.026 -0.02 +0.02    +0.052    15.047
ATOM     31  C   UNL d   1      13.812  -7.956   9.101 -0.04 +0.06    +0.115    15.047
ATOM     32  C   UNL d   1      12.855  -7.133   8.285 -0.02 +0.15    +0.139    15.047
ATOM     33  O   UNL d   1      13.257  -6.453   7.351 -0.06 -0.77    -0.650    15.047
ATOM     34  O   UNL d   1      11.543  -7.136   8.576 -0.57 -1.19    -0.776    15.047
ATOM     35  H   UNL d   1      11.152  -7.927   8.973 +0.03 +0.13    +0.167    15.047
ATOM     36  C   UNL d   1      10.503  -9.008  13.042 -0.14 +0.02    +0.052    15.047
ATOM     37  C   UNL d   1      10.644  -9.199  14.545 -0.13 +0.06    +0.115    15.047
ATOM     38  C   UNL d   1      10.541 -10.652  14.915 -0.09 +0.16    +0.139    15.047
ATOM     39  O   UNL d   1      10.727 -11.524  14.080 -0.06 -1.12    -0.650    15.047
ATOM     40  O   UNL d   1      10.238 -11.003  16.178 -0.46 -1.03    -0.776    15.047
ATOM     41  H   UNL d   1      10.554 -10.452  16.907 +0.02 +0.11    +0.167    15.047
ATOM     42  C   UNL d   1      11.144   2.038  11.086 -0.47 +0.00    +0.004    15.047
ATOM     43  C   UNL d   1      11.231   2.847  10.023 -0.56 +0.00    +0.012    15.047
ATOM     44  C   UNL d   1       5.287  -2.981  13.137 -0.27 -0.00    +0.004    15.047
ATOM     45  C   UNL d   1       4.250  -2.692  12.343 -0.47 -0.00    +0.012    15.047
TER
ENDMDL
MODEL       97
USER    Run = 97
USER    Cluster Rank = 10
USER    Number of conformations in this cluster = 2
USER  
USER    RMSD from reference structure       = 14.923 A
USER  
USER    Estimated Free Energy of Binding    =   -7.63 kcal/mol  [=(1)+(2)+(3)-(4)]
USER    Estimated Inhibition Constant, Ki   =    2.56 uM (micromolar)  [Temperature = 298.15 K]
USER    
USER    (1) Final Intermolecular Energy     =  -10.61 kcal/mol
USER        vdW + Hbond + desolv Energy     =   -8.00 kcal/mol
USER        Electrostatic Energy            =   -2.61 kcal/mol
USER    (2) Final Total Internal Energy     =   -0.48 kcal/mol
USER    (3) Torsional Free Energy           =   +2.98 kcal/mol
USER    (4) Unbound System's Energy  [=(2)] =   -0.48 kcal/mol
USER    
USER    
USER  
USER    DPF = D:/Protein_go_brrr/autodock/final/mut_N102T/heme_Fe/dock.dpf
USER    NEWDPF move	heme_Fe_opt.pdbqt
USER    NEWDPF about	-0.174000 -0.001000 -0.047000
USER    NEWDPF tran0	10.188892 -7.228817 10.980190
USER    NEWDPF axisangle0	0.398118 0.546390 -0.736858 159.897648
USER    NEWDPF quaternion0	0.392008 0.538004 -0.725549 0.174528
USER    NEWDPF dihe0	73.31 -134.83 -142.80 -14.28 180.00 114.89 60.29 87.15 -156.23 175.91 
USER  
USER                              x       y       z    vdW   Elec        q     RMS 
ATOM      1  C   UNL d   1      11.028  -8.887  11.850 -0.12 +0.03    +0.064    14.923
ATOM      2  C   UNL d   1       8.307  -5.100  13.487 -0.10 +0.01    +0.064    14.923
ATOM      3  C   UNL d   1       7.182  -4.033   8.941 -0.26 +0.03    +0.064    14.923
ATOM      4  C   UNL d   1       9.895  -7.629   7.330 -0.23 +0.05    +0.064    14.923
ATOM      5  C   UNL d   1      10.434  -7.870  12.727 -0.12 +0.02    +0.066    14.923
ATOM      6  C   UNL d   1      10.635  -7.790  14.096 -0.09 -0.01    -0.021    14.923
ATOM      7  C   UNL d   1       9.876  -6.740  14.550 -0.09 -0.01    -0.025    14.923
ATOM      8  C   UNL d   1       9.240  -6.218  13.440 -0.14 +0.02    +0.066    14.923
ATOM      9  C   UNL d   1       9.789  -6.262  15.967 -0.06 +0.01    +0.051    14.923
ATOM     10  C   UNL d   1       7.725  -4.541  12.425 -0.14 +0.02    +0.066    14.923
ATOM     11  C   UNL d   1       6.748  -3.545  12.511 -0.17 -0.00    -0.021    14.923
ATOM     12  C   UNL d   1       6.395  -3.232  11.213 -0.26 +0.00    +0.000    14.923
ATOM     13  C   UNL d   1       7.176  -4.067  10.395 -0.25 +0.03    +0.070    14.923
ATOM     14  C   UNL d   1       6.131  -2.969  13.769 -0.18 +0.00    +0.052    14.923
ATOM     15  C   UNL d   1       7.894  -4.869   8.149 -0.33 +0.05    +0.066    14.923
ATOM     16  C   UNL d   1       7.950  -4.740   6.767 -0.36 -0.01    -0.021    14.923
ATOM     17  C   UNL d   1       8.729  -5.778   6.300 -0.08 +0.00    +0.000    14.923
ATOM     18  C   UNL d   1       9.127  -6.520   7.409 -0.12 +0.06    +0.070    14.923
ATOM     19  C   UNL d   1       7.279  -3.697   5.914 -0.51 +0.02    +0.052    14.923
ATOM     20  C   UNL d   1      10.383  -8.399   8.479 -0.01 +0.04    +0.066    14.923
ATOM     21  C   UNL d   1      11.006  -9.653   8.408 -0.14 -0.01    -0.025    14.923
ATOM     22  C   UNL d   1      11.332  -9.987   9.706 -0.11 -0.01    -0.021    14.923
ATOM     23  C   UNL d   1      10.892  -8.932  10.515 -0.08 +0.03    +0.066    14.923
ATOM     24  C   UNL d   1      11.281 -10.502   7.189 -0.14 +0.01    +0.051    14.923
ATOM     25  N   UNL d   1       9.589  -6.902  12.332 -0.11 -0.10    -0.248    14.923
ATOM     26  N   UNL d   1       7.980  -4.870  11.133 -0.15 -0.11    -0.248    14.923
ATOM     27  N   UNL d   1       8.650  -5.937   8.550 -0.17 -0.24    -0.248    14.923
ATOM     28  N   UNL d   1      10.274  -7.987   9.766 +0.12 -0.15    -0.248    14.923
ATOM     29 FE   UNL d   1       9.127  -6.430  10.448 -0.05 +0.00    +0.000    14.923
ATOM     30  C   UNL d   1      11.520  -8.653  14.928 -0.05 +0.02    +0.052    14.923
ATOM     31  C   UNL d   1      10.994 -10.084  14.971 -0.12 +0.08    +0.115    14.923
ATOM     32  C   UNL d   1      10.682 -10.488  16.385 -0.10 +0.11    +0.139    14.923
ATOM     33  O   UNL d   1      10.245 -11.603  16.633 -0.59 -1.03    -0.650    14.923
ATOM     34  O   UNL d   1      10.881  -9.622  17.393 +0.02 -0.28    -0.776    14.923
ATOM     35  H   UNL d   1      11.627  -9.762  17.993 +0.01 +0.05    +0.167    14.923
ATOM     36  C   UNL d   1      11.986 -11.270  10.147 -0.07 +0.01    +0.052    14.923
ATOM     37  C   UNL d   1      10.922 -12.330  10.394 -0.14 +0.04    +0.115    14.923
ATOM     38  C   UNL d   1      10.511 -12.355  11.839 -0.15 +0.12    +0.139    14.923
ATOM     39  O   UNL d   1       9.376 -12.050  12.172 -0.60 -0.78    -0.650    14.923
ATOM     40  O   UNL d   1      11.400 -12.713  12.783 -0.19 -0.84    -0.776    14.923
ATOM     41  H   UNL d   1      12.296 -12.349  12.748 +0.02 +0.10    +0.167    14.923
ATOM     42  C   UNL d   1       5.367  -2.217  10.828 -0.38 +0.00    +0.004    14.923
ATOM     43  C   UNL d   1       4.101  -2.577  10.579 -0.52 +0.00    +0.012    14.923
ATOM     44  C   UNL d   1       9.086  -6.032   4.886 -0.26 +0.00    +0.004    14.923
ATOM     45  C   UNL d   1       9.386  -5.021   4.063 -0.40 +0.00    +0.012    14.923
TER
ENDMDL
MODEL       63
USER    Run = 63
USER    Cluster Rank = 11
USER    Number of conformations in this cluster = 1
USER  
USER    RMSD from reference structure       = 17.367 A
USER  
USER    Estimated Free Energy of Binding    =   -7.41 kcal/mol  [=(1)+(2)+(3)-(4)]
USER    Estimated Inhibition Constant, Ki   =    3.69 uM (micromolar)  [Temperature = 298.15 K]
USER    
USER    (1) Final Intermolecular Energy     =  -10.40 kcal/mol
USER        vdW + Hbond + desolv Energy     =   -6.21 kcal/mol
USER        Electrostatic Energy            =   -4.18 kcal/mol
USER    (2) Final Total Internal Energy     =   -1.37 kcal/mol
USER    (3) Torsional Free Energy           =   +2.98 kcal/mol
USER    (4) Unbound System's Energy  [=(2)] =   -1.37 kcal/mol
USER    
USER    
USER  
USER    DPF = D:/Protein_go_brrr/autodock/final/mut_N102T/heme_Fe/dock.dpf
USER    NEWDPF move	heme_Fe_opt.pdbqt
USER    NEWDPF about	-0.174000 -0.001000 -0.047000
USER    NEWDPF tran0	2.076660 -19.947617 -3.434103
USER    NEWDPF axisangle0	-0.974640 0.064188 0.214375 81.642795
USER    NEWDPF quaternion0	-0.637125 0.041960 0.140137 0.756751
USER    NEWDPF dihe0	151.68 149.54 64.46 -1.09 180.00 -83.93 44.05 36.98 9.60 138.56 
USER  
USER                              x       y       z    vdW   Elec        q     RMS 
ATOM      1  C   UNL d   1       0.042 -19.937  -3.166 -0.19 +0.03    +0.064    17.367
ATOM      2  C   UNL d   1       3.058 -21.217  -6.867 -0.11 -0.00    +0.064    17.367
ATOM      3  C   UNL d   1       6.741 -21.185  -3.785 -0.10 +0.00    +0.064    17.367
ATOM      4  C   UNL d   1       3.858 -19.844  -0.211 -0.18 +0.01    +0.064    17.367
ATOM      5  C   UNL d   1       0.563 -20.219  -4.510 -0.15 +0.01    +0.066    17.367
ATOM      6  C   UNL d   1      -0.193 -20.201  -5.671 -0.12 -0.01    -0.021    17.367
ATOM      7  C   UNL d   1       0.644 -20.560  -6.698 -0.12 -0.00    -0.025    17.367
ATOM      8  C   UNL d   1       1.881 -20.783  -6.124 -0.12 -0.00    +0.066    17.367
ATOM      9  C   UNL d   1       0.273 -20.662  -8.145 -0.12 +0.00    +0.051    17.367
ATOM     10  C   UNL d   1       4.275 -21.384  -6.348 -0.10 -0.00    +0.066    17.367
ATOM     11  C   UNL d   1       5.356 -21.910  -7.060 -0.08 +0.00    -0.021    17.367
ATOM     12  C   UNL d   1       6.426 -21.927  -6.188 -0.07 -0.00    +0.000    17.367
ATOM     13  C   UNL d   1       5.936 -21.413  -4.975 -0.08 +0.00    +0.070    17.367
ATOM     14  C   UNL d   1       5.351 -22.435  -8.481 -0.03 -0.00    +0.052    17.367
ATOM     15  C   UNL d   1       6.264 -20.740  -2.599 -0.13 +0.00    +0.066    17.367
ATOM     16  C   UNL d   1       7.081 -20.440  -1.517 -0.11 -0.00    -0.021    17.367
ATOM     17  C   UNL d   1       6.251 -20.057  -0.483 -0.15 +0.00    +0.000    17.367
ATOM     18  C   UNL d   1       4.944 -20.135  -0.960 -0.05 +0.01    +0.070    17.367
ATOM     19  C   UNL d   1       8.581 -20.535  -1.445 -0.05 -0.00    +0.052    17.367
ATOM     20  C   UNL d   1       2.473 -19.856  -0.696 -0.22 +0.01    +0.066    17.367
ATOM     21  C   UNL d   1       1.331 -19.753   0.111 -0.26 -0.01    -0.025    17.367
ATOM     22  C   UNL d   1       0.256 -19.769  -0.753 -0.24 -0.01    -0.021    17.367
ATOM     23  C   UNL d   1       0.780 -19.886  -2.045 -0.16 +0.02    +0.066    17.367
ATOM     24  C   UNL d   1       1.246 -19.650   1.616 -0.27 +0.01    +0.051    17.367
ATOM     25  N   UNL d   1       1.830 -20.566  -4.795 -0.10 -0.01    -0.248    17.367
ATOM     26  N   UNL d   1       4.623 -21.090  -5.069 -0.09 +0.01    -0.248    17.367
ATOM     27  N   UNL d   1       4.953 -20.513  -2.274 -0.12 -0.02    -0.248    17.367
ATOM     28  N   UNL d   1       2.131 -19.984  -2.001 -0.17 -0.04    -0.248    17.367
ATOM     29 FE   UNL d   1       3.377 -20.537  -3.533 -0.04 -0.00    +0.000    17.367
ATOM     30  C   UNL d   1      -1.633 -19.841  -5.803 -0.13 +0.03    +0.052    17.367
ATOM     31  C   UNL d   1      -1.788 -18.400  -6.278 -0.24 +0.09    +0.115    17.367
ATOM     32  C   UNL d   1      -2.857 -17.698  -5.487 -0.20 +0.20    +0.139    17.367
ATOM     33  O   UNL d   1      -3.134 -16.529  -5.715 -0.27 -1.58    -0.650    17.367
ATOM     34  O   UNL d   1      -3.520 -18.353  -4.519 +0.06 -1.31    -0.776    17.367
ATOM     35  H   UNL d   1      -3.628 -19.312  -4.590 +0.02 +0.22    +0.167    17.367
ATOM     36  C   UNL d   1      -1.195 -19.724  -0.352 -0.02 +0.03    +0.052    17.367
ATOM     37  C   UNL d   1      -1.928 -20.920  -0.941 -0.19 +0.07    +0.115    17.367
ATOM     38  C   UNL d   1      -3.325 -20.547  -1.350 -0.09 +0.19    +0.139    17.367
ATOM     39  O   UNL d   1      -4.236 -20.545  -0.536 -0.69 -0.97    -0.650    17.367
ATOM     40  O   UNL d   1      -3.584 -20.215  -2.628 -0.31 -1.41    -0.776    17.367
ATOM     41  H   UNL d   1      -2.891 -19.789  -3.152 +0.02 +0.25    +0.167    17.367
ATOM     42  C   UNL d   1       7.796 -22.424  -6.525 -0.03 -0.00    +0.004    17.367
ATOM     43  C   UNL d   1       8.837 -21.584  -6.595 -0.03 -0.00    +0.012    17.367
ATOM     44  C   UNL d   1       6.682 -19.623   0.865 -0.18 -0.00    +0.004    17.367
ATOM     45  C   UNL d   1       7.585 -18.649   1.015 -0.20 -0.00    +0.012    17.367
TER
ENDMDL
MODEL       86
USER    Run = 86
USER    Cluster Rank = 12
USER    Number of conformations in this cluster = 7
USER  
USER    RMSD from reference structure       = 16.735 A
USER  
USER    Estimated Free Energy of Binding    =   -7.32 kcal/mol  [=(1)+(2)+(3)-(4)]
USER    Estimated Inhibition Constant, Ki   =    4.33 uM (micromolar)  [Temperature = 298.15 K]
USER    
USER    (1) Final Intermolecular Energy     =  -10.30 kcal/mol
USER        vdW + Hbond + desolv Energy     =   -9.50 kcal/mol
USER        Electrostatic Energy            =   -0.80 kcal/mol
USER    (2) Final Total Internal Energy     =   -0.67 kcal/mol
USER    (3) Torsional Free Energy           =   +2.98 kcal/mol
USER    (4) Unbound System's Energy  [=(2)] =   -0.67 kcal/mol
USER    
USER    
USER  
USER    DPF = D:/Protein_go_brrr/autodock/final/mut_N102T/heme_Fe/dock.dpf
USER    NEWDPF move	heme_Fe_opt.pdbqt
USER    NEWDPF about	-0.174000 -0.001000 -0.047000
USER    NEWDPF tran0	3.584838 14.424868 -12.403729
USER    NEWDPF axisangle0	-0.949987 0.068322 -0.304725 -117.227735
USER    NEWDPF quaternion0	-0.810982 0.058325 -0.260136 -0.520803
USER    NEWDPF dihe0	-172.07 -132.08 85.11 -130.39 81.25 -65.45 -65.96 -43.02 -21.92 -166.63 
USER  
USER                              x       y       z    vdW   Elec        q     RMS 
ATOM      1  C   UNL d   1       2.132  15.609 -13.239 -0.28 -0.01    +0.064    16.735
ATOM      2  C   UNL d   1       4.585  15.615  -8.948 -0.26 -0.02    +0.064    16.735
ATOM      3  C   UNL d   1       7.762  12.550 -10.839 -0.25 -0.02    +0.064    16.735
ATOM      4  C   UNL d   1       5.345  12.448 -14.966 -0.30 -0.05    +0.064    16.735
ATOM      5  C   UNL d   1       2.481  15.830 -11.829 -0.23 -0.02    +0.066    16.735
ATOM      6  C   UNL d   1       1.727  16.572 -10.934 -0.19 +0.01    -0.021    16.735
ATOM      7  C   UNL d   1       2.411  16.576  -9.744 -0.22 +0.01    -0.025    16.735
ATOM      8  C   UNL d   1       3.557  15.835  -9.958 -0.23 -0.03    +0.066    16.735
ATOM      9  C   UNL d   1       1.970  17.239  -8.475 -0.08 -0.02    +0.051    16.735
ATOM     10  C   UNL d   1       5.671  14.857  -9.110 -0.24 -0.03    +0.066    16.735
ATOM     11  C   UNL d   1       6.694  14.757  -8.165 -0.21 +0.01    -0.021    16.735
ATOM     12  C   UNL d   1       7.631  13.892  -8.694 -0.21 -0.00    +0.000    16.735
ATOM     13  C   UNL d   1       7.130  13.512  -9.950 -0.21 -0.03    +0.070    16.735
ATOM     14  C   UNL d   1       6.808  15.504  -6.851 -0.19 -0.04    +0.052    16.735
ATOM     15  C   UNL d   1       7.310  12.219 -12.072 -0.24 -0.02    +0.066    16.735
ATOM     16  C   UNL d   1       7.887  11.222 -12.849 -0.25 +0.01    -0.021    16.735
ATOM     17  C   UNL d   1       7.193  11.194 -14.042 -0.28 -0.00    +0.000    16.735
ATOM     18  C   UNL d   1       6.211  12.178 -13.965 -0.30 -0.04    +0.070    16.735
ATOM     19  C   UNL d   1       9.059  10.347 -12.498 -0.30 -0.01    +0.052    16.735
ATOM     20  C   UNL d   1       4.259  13.433 -14.899 -0.31 -0.03    +0.066    16.735
ATOM     21  C   UNL d   1       3.487  13.864 -15.987 -0.32 +0.01    -0.025    16.735
ATOM     22  C   UNL d   1       2.569  14.755 -15.469 -0.30 +0.00    -0.021    16.735
ATOM     23  C   UNL d   1       2.821  14.837 -14.095 -0.27 -0.01    +0.066    16.735
ATOM     24  C   UNL d   1       3.601  13.467 -17.440 -0.31 -0.02    +0.051    16.735
ATOM     25  N   UNL d   1       3.592  15.375 -11.224 -0.14 +0.11    -0.248    16.735
ATOM     26  N   UNL d   1       5.939  14.106 -10.209 -0.04 +0.12    -0.248    16.735
ATOM     27  N   UNL d   1       6.254  12.780 -12.738 -0.09 +0.13    -0.248    16.735
ATOM     28  N   UNL d   1       3.882  14.064 -13.760 -0.20 +0.10    -0.248    16.735
ATOM     29 FE   UNL d   1       4.911  14.084 -11.986 -0.05 -0.00    +0.000    16.735
ATOM     30  C   UNL d   1       0.412  17.226 -11.189 -0.14 -0.01    +0.052    16.735
ATOM     31  C   UNL d   1      -0.676  16.183 -11.415 -0.21 -0.01    +0.115    16.735
ATOM     32  C   UNL d   1      -1.689  16.231 -10.304 -0.21 -0.01    +0.139    16.735
ATOM     33  O   UNL d   1      -2.582  17.067 -10.310 +0.03 +0.01    -0.650    16.735
ATOM     34  O   UNL d   1      -1.620  15.352  -9.290 -0.21 +0.05    -0.776    16.735
ATOM     35  H   UNL d   1      -0.851  14.769  -9.226 -0.46 -0.05    +0.167    16.735
ATOM     36  C   UNL d   1       1.542  15.519 -16.262 -0.28 +0.01    +0.052    16.735
ATOM     37  C   UNL d   1       2.233  16.564 -17.125 -0.14 +0.03    +0.115    16.735
ATOM     38  C   UNL d   1       1.656  16.584 -18.512 -0.09 +0.07    +0.139    16.735
ATOM     39  O   UNL d   1       1.781  15.622 -19.256 -0.03 -0.29    -0.650    16.735
ATOM     40  O   UNL d   1       0.996  17.672 -18.949 -0.13 -0.81    -0.776    16.735
ATOM     41  H   UNL d   1       1.392  18.545 -18.820 +0.01 +0.13    +0.167    16.735
ATOM     42  C   UNL d   1       8.909  13.499  -8.022 -0.23 -0.00    +0.004    16.735
ATOM     43  C   UNL d   1       9.287  12.216  -7.958 -0.27 -0.01    +0.012    16.735
ATOM     44  C   UNL d   1       7.441  10.270 -15.172 -0.34 -0.00    +0.004    16.735
ATOM     45  C   UNL d   1       8.477  10.460 -15.996 -0.29 -0.00    +0.012    16.735
TER
ENDMDL
MODEL       11
USER    Run = 11
USER    Cluster Rank = 13
USER    Number of conformations in this cluster = 4
USER  
USER    RMSD from reference structure       = 14.311 A
USER  
USER    Estimated Free Energy of Binding    =   -7.22 kcal/mol  [=(1)+(2)+(3)-(4)]
USER    Estimated Inhibition Constant, Ki   =    5.07 uM (micromolar)  [Temperature = 298.15 K]
USER    
USER    (1) Final Intermolecular Energy     =  -10.21 kcal/mol
USER        vdW + Hbond + desolv Energy     =   -7.00 kcal/mol
USER        Electrostatic Energy            =   -3.20 kcal/mol
USER    (2) Final Total Internal Energy     =   -0.41 kcal/mol
USER    (3) Torsional Free Energy           =   +2.98 kcal/mol
USER    (4) Unbound System's Energy  [=(2)] =   -0.41 kcal/mol
USER    
USER    
USER  
USER    DPF = D:/Protein_go_brrr/autodock/final/mut_N102T/heme_Fe/dock.dpf
USER    NEWDPF move	heme_Fe_opt.pdbqt
USER    NEWDPF about	-0.174000 -0.001000 -0.047000
USER    NEWDPF tran0	-8.524902 -10.650862 -10.285664
USER    NEWDPF axisangle0	0.459954 0.324235 -0.826628 134.454964
USER    NEWDPF quaternion0	0.424100 0.298961 -0.762192 0.387073
USER    NEWDPF dihe0	96.82 -111.56 36.41 -160.76 102.14 180.00 -25.19 -61.15 22.92 34.76 
USER  
USER                              x       y       z    vdW   Elec        q     RMS 
ATOM      1  C   UNL d   1      -8.297 -12.359  -9.172 -0.18 +0.02    +0.064    14.311
ATOM      2  C   UNL d   1      -8.252  -7.519  -8.170 -0.25 +0.01    +0.064    14.311
ATOM      3  C   UNL d   1     -10.230  -6.682 -12.466 -0.11 +0.02    +0.064    14.311
ATOM      4  C   UNL d   1     -10.186 -11.353 -13.498 -0.10 +0.01    +0.064    14.311
ATOM      5  C   UNL d   1      -8.024 -11.068  -8.525 -0.15 +0.02    +0.066    14.311
ATOM      6  C   UNL d   1      -7.359 -10.912  -7.321 -0.23 -0.01    -0.021    14.311
ATOM      7  C   UNL d   1      -7.350  -9.568  -7.041 -0.29 -0.01    -0.025    14.311
ATOM      8  C   UNL d   1      -8.011  -8.954  -8.088 -0.20 +0.01    +0.066    14.311
ATOM      9  C   UNL d   1      -6.724  -8.918  -5.846 -0.07 +0.01    +0.051    14.311
ATOM     10  C   UNL d   1      -8.836  -6.896  -9.195 -0.22 +0.01    +0.066    14.311
ATOM     11  C   UNL d   1      -9.156  -5.536  -9.194 -0.28 -0.00    -0.021    14.311
ATOM     12  C   UNL d   1      -9.743  -5.273 -10.416 -0.21 +0.00    +0.000    14.311
ATOM     13  C   UNL d   1      -9.758  -6.500 -11.102 -0.11 +0.02    +0.070    14.311
ATOM     14  C   UNL d   1      -8.974  -4.550  -8.059 -0.37 +0.01    +0.052    14.311
ATOM     15  C   UNL d   1     -10.295  -7.870 -13.112 -0.10 +0.03    +0.066    14.311
ATOM     16  C   UNL d   1     -10.657  -7.988 -14.448 -0.09 -0.01    -0.021    14.311
ATOM     17  C   UNL d   1     -10.649  -9.335 -14.747 -0.07 +0.00    +0.000    14.311
ATOM     18  C   UNL d   1     -10.284 -10.008 -13.583 -0.07 +0.02    +0.070    14.311
ATOM     19  C   UNL d   1     -11.023  -6.883 -15.401 -0.08 +0.02    +0.052    14.311
ATOM     20  C   UNL d   1      -9.746 -12.092 -12.309 -0.11 +0.01    +0.066    14.311
ATOM     21  C   UNL d   1      -9.830 -13.482 -12.142 -0.11 -0.00    -0.025    14.311
ATOM     22  C   UNL d   1      -9.275 -13.748 -10.907 -0.07 -0.00    -0.021    14.311
ATOM     23  C   UNL d   1      -8.882 -12.516 -10.370 -0.14 +0.02    +0.066    14.311
ATOM     24  C   UNL d   1     -10.405 -14.512 -13.086 -0.10 +0.01    +0.051    14.311
ATOM     25  N   UNL d   1      -8.411  -9.869  -8.994 -0.05 -0.06    -0.248    14.311
ATOM     26  N   UNL d   1      -9.214  -7.491 -10.355 -0.11 -0.06    -0.248    14.311
ATOM     27  N   UNL d   1     -10.024  -9.106 -12.590 -0.06 -0.07    -0.248    14.311
ATOM     28  N   UNL d   1      -9.213 -11.505 -11.210 -0.08 -0.06    -0.248    14.311
ATOM     29 FE   UNL d   1      -9.214  -9.499 -10.784 -0.03 +0.00    +0.000    14.311
ATOM     30  C   UNL d   1      -6.743 -11.982  -6.485 -0.29 +0.04    +0.052    14.311
ATOM     31  C   UNL d   1      -5.224 -11.851  -6.474 -0.33 +0.12    +0.115    14.311
ATOM     32  C   UNL d   1      -4.652 -12.471  -5.229 -0.37 +0.18    +0.139    14.311
ATOM     33  O   UNL d   1      -4.131 -13.576  -5.266 -0.15 -1.48    -0.650    14.311
ATOM     34  O   UNL d   1      -4.709 -11.811  -4.060 +0.06 -0.61    -0.776    14.311
ATOM     35  H   UNL d   1      -4.032 -11.149  -3.861 -0.46 +0.08    +0.167    14.311
ATOM     36  C   UNL d   1      -9.174 -15.105 -10.262 -0.13 +0.02    +0.052    14.311
ATOM     37  C   UNL d   1      -7.761 -15.321  -9.741 -0.16 +0.07    +0.115    14.311
ATOM     38  C   UNL d   1      -7.759 -15.502  -8.250 -0.16 +0.12    +0.139    14.311
ATOM     39  O   UNL d   1      -6.714 -15.691  -7.644 -0.35 -1.37    -0.650    14.311
ATOM     40  O   UNL d   1      -8.917 -15.461  -7.567 +0.05 -0.39    -0.776    14.311
ATOM     41  H   UNL d   1      -9.560 -16.173  -7.690 +0.02 +0.06    +0.167    14.311
ATOM     42  C   UNL d   1     -10.256  -3.936 -10.849 -0.24 +0.00    +0.004    14.311
ATOM     43  C   UNL d   1      -9.435  -3.024 -11.387 -0.40 +0.00    +0.012    14.311
ATOM     44  C   UNL d   1     -10.949  -9.937 -16.065 -0.04 +0.00    +0.004    14.311
ATOM     45  C   UNL d   1     -12.098 -10.588 -16.275 -0.01 +0.00    +0.012    14.311
TER
ENDMDL
MODEL       31
USER    Run = 31
USER    Cluster Rank = 14
USER    Number of conformations in this cluster = 4
USER  
USER    RMSD from reference structure       = 14.349 A
USER  
USER    Estimated Free Energy of Binding    =   -7.17 kcal/mol  [=(1)+(2)+(3)-(4)]
USER    Estimated Inhibition Constant, Ki   =    5.58 uM (micromolar)  [Temperature = 298.15 K]
USER    
USER    (1) Final Intermolecular Energy     =  -10.15 kcal/mol
USER        vdW + Hbond + desolv Energy     =   -9.02 kcal/mol
USER        Electrostatic Energy            =   -1.13 kcal/mol
USER    (2) Final Total Internal Energy     =   -0.10 kcal/mol
USER    (3) Torsional Free Energy           =   +2.98 kcal/mol
USER    (4) Unbound System's Energy  [=(2)] =   -0.10 kcal/mol
USER    
USER    
USER  
USER    DPF = D:/Protein_go_brrr/autodock/final/mut_N102T/heme_Fe/dock.dpf
USER    NEWDPF move	heme_Fe_opt.pdbqt
USER    NEWDPF about	-0.174000 -0.001000 -0.047000
USER    NEWDPF tran0	-11.821528 2.360463 11.629633
USER    NEWDPF axisangle0	-0.242265 -0.908090 -0.341586 103.826112
USER    NEWDPF quaternion0	-0.190681 -0.714735 -0.268854 0.616857
USER    NEWDPF dihe0	-163.62 91.83 76.04 -157.18 166.62 85.55 21.92 -50.29 -65.75 144.95 
USER  
USER                              x       y       z    vdW   Elec        q     RMS 
ATOM      1  C   UNL d   1     -10.965   1.197  13.087 -0.28 +0.01    +0.064    14.349
ATOM      2  C   UNL d   1     -11.567   0.772   8.199 -0.28 -0.02    +0.064    14.349
ATOM      3  C   UNL d   1     -12.653   5.446   7.996 -0.17 -0.00    +0.064    14.349
ATOM      4  C   UNL d   1     -12.178   5.856  12.739 -0.14 +0.00    +0.064    14.349
ATOM      5  C   UNL d   1     -11.115   0.625  11.741 -0.25 -0.01    +0.066    14.349
ATOM      6  C   UNL d   1     -10.990  -0.720  11.435 -0.28 +0.01    -0.021    14.349
ATOM      7  C   UNL d   1     -11.153  -0.837  10.077 -0.29 +0.01    -0.025    14.349
ATOM      8  C   UNL d   1     -11.373   0.443   9.606 -0.22 -0.02    +0.066    14.349
ATOM      9  C   UNL d   1     -11.118  -2.110   9.289 -0.28 -0.04    +0.051    14.349
ATOM     10  C   UNL d   1     -11.837   1.989   7.725 -0.26 -0.01    +0.066    14.349
ATOM     11  C   UNL d   1     -11.904   2.293   6.363 -0.29 +0.00    -0.021    14.349
ATOM     12  C   UNL d   1     -12.199   3.639   6.277 -0.23 -0.00    +0.000    14.349
ATOM     13  C   UNL d   1     -12.290   4.093   7.605 -0.20 -0.00    +0.070    14.349
ATOM     14  C   UNL d   1     -11.632   1.362   5.199 -0.27 -0.02    +0.052    14.349
ATOM     15  C   UNL d   1     -12.691   5.901   9.271 -0.12 -0.00    +0.066    14.349
ATOM     16  C   UNL d   1     -13.138   7.171   9.610 -0.06 +0.00    -0.021    14.349
ATOM     17  C   UNL d   1     -12.999   7.293  10.977 -0.06 -0.00    +0.000    14.349
ATOM     18  C   UNL d   1     -12.465   6.093  11.440 -0.11 -0.00    +0.070    14.349
ATOM     19  C   UNL d   1     -13.653   8.241   8.684 -0.04 -0.00    +0.052    14.349
ATOM     20  C   UNL d   1     -11.674   4.584  13.271 -0.16 +0.00    +0.066    14.349
ATOM     21  C   UNL d   1     -11.186   4.387  14.571 -0.14 -0.00    -0.025    14.349
ATOM     22  C   UNL d   1     -10.858   3.050  14.652 -0.13 -0.00    -0.021    14.349
ATOM     23  C   UNL d   1     -11.150   2.488  13.404 -0.17 +0.01    +0.066    14.349
ATOM     24  C   UNL d   1     -11.029   5.398  15.683 -0.11 +0.00    +0.051    14.349
ATOM     25  N   UNL d   1     -11.359   1.329  10.622 -0.18 +0.04    -0.248    14.349
ATOM     26  N   UNL d   1     -12.061   3.090   8.487 -0.16 +0.02    -0.248    14.349
ATOM     27  N   UNL d   1     -12.316   5.221  10.398 -0.10 +0.01    -0.248    14.349
ATOM     28  N   UNL d   1     -11.606   3.438  12.552 -0.14 -0.01    -0.248    14.349
ATOM     29 FE   UNL d   1     -11.833   3.265  10.521 -0.06 -0.00    +0.000    14.349
ATOM     30  C   UNL d   1     -10.748  -1.842  12.385 -0.20 -0.03    +0.052    14.349
ATOM     31  C   UNL d   1     -11.208  -1.469  13.790 -0.16 +0.00    +0.115    14.349
ATOM     32  C   UNL d   1     -10.512  -2.321  14.815 -0.06 +0.06    +0.139    14.349
ATOM     33  O   UNL d   1     -10.549  -2.025  16.001 -0.56 -0.39    -0.650    14.349
ATOM     34  O   UNL d   1      -9.839  -3.420  14.435 -0.54 -0.14    -0.776    14.349
ATOM     35  H   UNL d   1      -9.604  -3.528  13.502 -0.38 -0.10    +0.167    14.349
ATOM     36  C   UNL d   1     -10.251   2.364  15.848 -0.20 +0.01    +0.052    14.349
ATOM     37  C   UNL d   1      -8.883   1.807  15.481 -0.21 +0.07    +0.115    14.349
ATOM     38  C   UNL d   1      -7.842   2.240  16.474 -0.25 +0.08    +0.139    14.349
ATOM     39  O   UNL d   1      -7.659   1.608  17.504 -0.46 -0.46    -0.650    14.349
ATOM     40  O   UNL d   1      -7.101   3.337  16.234 +0.03 -0.23    -0.776    14.349
ATOM     41  H   UNL d   1      -6.278   3.248  15.734 -0.48 +0.02    +0.167    14.349
ATOM     42  C   UNL d   1     -12.356   4.402   5.000 -0.14 +0.00    +0.004    14.349
ATOM     43  C   UNL d   1     -13.479   5.082   4.737 -0.11 +0.00    +0.012    14.349
ATOM     44  C   UNL d   1     -13.372   8.473  11.789 -0.04 -0.00    +0.004    14.349
ATOM     45  C   UNL d   1     -12.438   9.315  12.243 -0.06 -0.00    +0.012    14.349
TER
ENDMDL
MODEL       62
USER    Run = 62
USER    Cluster Rank = 15
USER    Number of conformations in this cluster = 1
USER  
USER    RMSD from reference structure       = 17.286 A
USER  
USER    Estimated Free Energy of Binding    =   -6.34 kcal/mol  [=(1)+(2)+(3)-(4)]
USER    Estimated Inhibition Constant, Ki   =   22.57 uM (micromolar)  [Temperature = 298.15 K]
USER    
USER    (1) Final Intermolecular Energy     =   -9.32 kcal/mol
USER        vdW + Hbond + desolv Energy     =   -6.39 kcal/mol
USER        Electrostatic Energy            =   -2.93 kcal/mol
USER    (2) Final Total Internal Energy     =   -2.04 kcal/mol
USER    (3) Torsional Free Energy           =   +2.98 kcal/mol
USER    (4) Unbound System's Energy  [=(2)] =   -2.04 kcal/mol
USER    
USER    
USER  
USER    DPF = D:/Protein_go_brrr/autodock/final/mut_N102T/heme_Fe/dock.dpf
USER    NEWDPF move	heme_Fe_opt.pdbqt
USER    NEWDPF about	-0.174000 -0.001000 -0.047000
USER    NEWDPF tran0	8.643469 -1.527428 15.152063
USER    NEWDPF axisangle0	0.490514 0.714243 0.499253 132.915510
USER    NEWDPF quaternion0	0.449686 0.654793 0.457698 0.399425
USER    NEWDPF dihe0	30.27 148.72 177.49 -155.70 -68.08 113.18 58.84 -22.25 -12.75 5.51 
USER  
USER                              x       y       z    vdW   Elec        q     RMS 
ATOM      1  C   UNL d   1       9.076  -1.470  13.147 -0.15 +0.02    +0.064    17.286
ATOM      2  C   UNL d   1       4.914  -1.428  15.813 -0.16 -0.01    +0.064    17.286
ATOM      3  C   UNL d   1       7.512  -0.425  19.726 -0.04 +0.01    +0.064    17.286
ATOM      4  C   UNL d   1      11.562  -0.565  17.184 -0.06 +0.01    +0.064    17.286
ATOM      5  C   UNL d   1       7.672  -1.634  13.550 -0.17 +0.01    +0.066    17.286
ATOM      6  C   UNL d   1       6.649  -2.033  12.706 -0.27 -0.00    -0.021    17.286
ATOM      7  C   UNL d   1       5.493  -2.018  13.446 -0.31 +0.00    -0.025    17.286
ATOM      8  C   UNL d   1       5.855  -1.609  14.715 -0.25 -0.01    +0.066    17.286
ATOM      9  C   UNL d   1       4.127  -2.394  12.959 -0.43 -0.01    +0.051    17.286
ATOM     10  C   UNL d   1       5.244  -1.090  17.060 -0.26 -0.01    +0.066    17.286
ATOM     11  C   UNL d   1       4.311  -0.813  18.061 -0.33 +0.00    -0.021    17.286
ATOM     12  C   UNL d   1       5.035  -0.504  19.196 -0.26 -0.00    +0.000    17.286
ATOM     13  C   UNL d   1       6.386  -0.602  18.822 -0.11 +0.00    +0.070    17.286
ATOM     14  C   UNL d   1       2.802  -0.776  17.926 -0.44 -0.02    +0.052    17.286
ATOM     15  C   UNL d   1       8.815  -0.467  19.359 +0.05 +0.01    +0.066    17.286
ATOM     16  C   UNL d   1       9.861  -0.392  20.269 -0.05 -0.00    -0.021    17.286
ATOM     17  C   UNL d   1      11.031  -0.429  19.538 -0.04 +0.00    +0.000    17.286
ATOM     18  C   UNL d   1      10.669  -0.522  18.196 -0.06 +0.02    +0.070    17.286
ATOM     19  C   UNL d   1       9.769  -0.265  21.766 -0.03 +0.00    +0.052    17.286
ATOM     20  C   UNL d   1      11.221  -0.724  15.765 -0.05 +0.02    +0.066    17.286
ATOM     21  C   UNL d   1      12.113  -0.571  14.695 -0.03 -0.01    -0.025    17.286
ATOM     22  C   UNL d   1      11.386  -0.846  13.555 -0.05 -0.01    -0.021    17.286
ATOM     23  C   UNL d   1      10.084  -1.148  13.972 -0.08 +0.02    +0.066    17.286
ATOM     24  C   UNL d   1      13.573  -0.182  14.732 -0.01 +0.01    +0.051    17.286
ATOM     25  N   UNL d   1       7.183  -1.386  14.777 -0.11 -0.02    -0.248    17.286
ATOM     26  N   UNL d   1       6.515  -0.951  17.518 -0.12 -0.01    -0.248    17.286
ATOM     27  N   UNL d   1       9.308  -0.590  18.088 -0.01 -0.08    -0.248    17.286
ATOM     28  N   UNL d   1       9.978  -1.029  15.318 -0.05 -0.06    -0.248    17.286
ATOM     29 FE   UNL d   1       8.248  -0.989  16.418 -0.04 +0.00    +0.000    17.286
ATOM     30  C   UNL d   1       6.764  -2.431  11.274 -0.17 +0.01    +0.052    17.286
ATOM     31  C   UNL d   1       7.335  -3.839  11.149 -0.22 +0.04    +0.115    17.286
ATOM     32  C   UNL d   1       8.605  -3.823  10.344 -0.21 +0.11    +0.139    17.286
ATOM     33  O   UNL d   1       8.582  -3.565   9.148 -0.44 -0.78    -0.650    17.286
ATOM     34  O   UNL d   1       9.781  -4.093  10.934 -0.14 -0.81    -0.776    17.286
ATOM     35  H   UNL d   1      10.585  -3.679  10.590 +0.02 +0.27    +0.167    17.286
ATOM     36  C   UNL d   1      11.904  -0.773  12.143 -0.08 +0.02    +0.052    17.286
ATOM     37  C   UNL d   1      12.189  -2.176  11.627 -0.06 +0.07    +0.115    17.286
ATOM     38  C   UNL d   1      12.160  -2.215  10.126 -0.04 +0.18    +0.139    17.286
ATOM     39  O   UNL d   1      13.178  -2.434   9.486 -0.50 -0.92    -0.650    17.286
ATOM     40  O   UNL d   1      11.004  -2.003   9.471 -0.13 -1.24    -0.776    17.286
ATOM     41  H   UNL d   1      10.173  -2.276   9.884 +0.03 +0.23    +0.167    17.286
ATOM     42  C   UNL d   1       4.439  -0.129  20.516 -0.24 -0.00    +0.004    17.286
ATOM     43  C   UNL d   1       4.914   0.910  21.216 -0.24 -0.01    +0.012    17.286
ATOM     44  C   UNL d   1      12.404  -0.398  20.089 -0.01 +0.00    +0.004    17.286
ATOM     45  C   UNL d   1      13.127   0.727  20.065 -0.01 +0.00    +0.012    17.286
TER
ENDMDL
MODEL       14
USER    Run = 14
USER    Cluster Rank = 16
USER    Number of conformations in this cluster = 1
USER  
USER    RMSD from reference structure       = 17.267 A
USER  
USER    Estimated Free Energy of Binding    =   -6.33 kcal/mol  [=(1)+(2)+(3)-(4)]
USER    Estimated Inhibition Constant, Ki   =   23.06 uM (micromolar)  [Temperature = 298.15 K]
USER    
USER    (1) Final Intermolecular Energy     =   -9.31 kcal/mol
USER        vdW + Hbond + desolv Energy     =   -6.61 kcal/mol
USER        Electrostatic Energy            =   -2.70 kcal/mol
USER    (2) Final Total Internal Energy     =   -1.50 kcal/mol
USER    (3) Torsional Free Energy           =   +2.98 kcal/mol
USER    (4) Unbound System's Energy  [=(2)] =   -1.50 kcal/mol
USER    
USER    
USER  
USER    DPF = D:/Protein_go_brrr/autodock/final/mut_N102T/heme_Fe/dock.dpf
USER    NEWDPF move	heme_Fe_opt.pdbqt
USER    NEWDPF about	-0.174000 -0.001000 -0.047000
USER    NEWDPF tran0	10.403893 0.956038 14.129265
USER    NEWDPF axisangle0	-0.818768 0.131408 -0.558884 138.468666
USER    NEWDPF quaternion0	-0.765579 0.122872 -0.522578 0.354547
USER    NEWDPF dihe0	-10.42 -147.78 65.69 48.73 -105.25 -179.25 -120.21 43.18 178.29 -152.77 
USER  
USER                              x       y       z    vdW   Elec        q     RMS 
ATOM      1  C   UNL d   1       9.977   0.280  12.239 -0.25 +0.02    +0.064    17.267
ATOM      2  C   UNL d   1      13.243   3.465  14.141 -0.13 +0.04    +0.064    17.267
ATOM      3  C   UNL d   1      12.322   1.695  18.510 -0.10 +0.03    +0.064    17.267
ATOM      4  C   UNL d   1       9.080  -1.323  16.703 -0.09 +0.02    +0.064    17.267
ATOM      5  C   UNL d   1      10.920   1.398  12.380 -0.23 +0.02    +0.066    17.267
ATOM      6  C   UNL d   1      11.333   2.219  11.343 -0.38 -0.01    -0.021    17.267
ATOM      7  C   UNL d   1      12.243   3.101  11.872 -0.32 -0.01    -0.025    17.267
ATOM      8  C   UNL d   1      12.351   2.784  13.212 -0.22 +0.03    +0.066    17.267
ATOM      9  C   UNL d   1      12.947   4.194  11.128 -0.35 +0.02    +0.051    17.267
ATOM     10  C   UNL d   1      13.325   3.217  15.449 -0.09 +0.05    +0.066    17.267
ATOM     11  C   UNL d   1      14.270   3.806  16.292 -0.08 -0.01    -0.021    17.267
ATOM     12  C   UNL d   1      14.037   3.299  17.555 -0.09 +0.00    +0.000    17.267
ATOM     13  C   UNL d   1      12.955   2.412  17.414 -0.11 +0.04    +0.070    17.267
ATOM     14  C   UNL d   1      15.386   4.753  15.902 -0.08 +0.03    +0.052    17.267
ATOM     15  C   UNL d   1      11.315   0.801  18.372 -0.09 +0.02    +0.066    17.267
ATOM     16  C   UNL d   1      10.670   0.212  19.452 -0.07 -0.00    -0.021    17.267
ATOM     17  C   UNL d   1       9.737  -0.662  18.933 -0.06 +0.00    +0.000    17.267
ATOM     18  C   UNL d   1       9.837  -0.588  17.546 -0.04 +0.02    +0.070    17.267
ATOM     19  C   UNL d   1      10.936   0.440  20.916 -0.04 +0.01    +0.052    17.267
ATOM     20  C   UNL d   1       9.115  -1.228  15.239 -0.10 +0.02    +0.066    17.267
ATOM     21  C   UNL d   1       8.487  -2.116  14.354 -0.10 -0.00    -0.025    17.267
ATOM     22  C   UNL d   1       8.745  -1.633  13.088 -0.15 -0.00    -0.021    17.267
ATOM     23  C   UNL d   1       9.521  -0.479  13.249 -0.17 +0.02    +0.066    17.267
ATOM     24  C   UNL d   1       7.688  -3.358  14.673 -0.11 +0.01    +0.051    17.267
ATOM     25  N   UNL d   1      11.538   1.753  13.520 -0.13 -0.09    -0.248    17.267
ATOM     26  N   UNL d   1      12.527   2.355  16.129 -0.11 -0.16    -0.248    17.267
ATOM     27  N   UNL d   1      10.776   0.343  17.199 -0.08 -0.09    -0.248    17.267
ATOM     28  N   UNL d   1       9.781  -0.262  14.561 -0.10 -0.07    -0.248    17.267
ATOM     29 FE   UNL d   1      11.153   1.045  15.346 -0.03 +0.00    +0.000    17.267
ATOM     30  C   UNL d   1      10.871   2.184   9.927 -0.46 +0.01    +0.052    17.267
ATOM     31  C   UNL d   1      11.781   1.299   9.083 -0.39 +0.04    +0.115    17.267
ATOM     32  C   UNL d   1      11.788  -0.107   9.616 -0.26 +0.08    +0.139    17.267
ATOM     33  O   UNL d   1      12.751  -0.534  10.238 +0.03 -0.34    -0.650    17.267
ATOM     34  O   UNL d   1      10.731  -0.911   9.412 -0.46 -0.75    -0.776    17.267
ATOM     35  H   UNL d   1      10.809  -1.852   9.624 +0.03 +0.23    +0.167    17.267
ATOM     36  C   UNL d   1       8.311  -2.274  11.796 -0.21 +0.02    +0.052    17.267
ATOM     37  C   UNL d   1       8.814  -3.709  11.741 -0.16 +0.05    +0.115    17.267
ATOM     38  C   UNL d   1       9.348  -4.040  10.376 -0.09 +0.17    +0.139    17.267
ATOM     39  O   UNL d   1       9.787  -5.153  10.129 -0.03 -0.99    -0.650    17.267
ATOM     40  O   UNL d   1       9.348  -3.104   9.410 -0.49 -1.34    -0.776    17.267
ATOM     41  H   UNL d   1       9.463  -2.175   9.656 +0.04 +0.19    +0.167    17.267
ATOM     42  C   UNL d   1      14.825   3.649  18.777 -0.05 +0.00    +0.004    17.267
ATOM     43  C   UNL d   1      14.265   4.326  19.788 -0.05 +0.01    +0.012    17.267
ATOM     44  C   UNL d   1       8.796  -1.497  19.714 -0.06 +0.00    +0.004    17.267
ATOM     45  C   UNL d   1       7.511  -1.150  19.835 -0.10 +0.00    +0.012    17.267
TER
ENDMDL
MODEL       87
USER    Run = 87
USER    Cluster Rank = 17
USER    Number of conformations in this cluster = 1
USER  
USER    RMSD from reference structure       = 14.020 A
USER  
USER    Estimated Free Energy of Binding    =   -6.29 kcal/mol  [=(1)+(2)+(3)-(4)]
USER    Estimated Inhibition Constant, Ki   =   24.70 uM (micromolar)  [Temperature = 298.15 K]
USER    
USER    (1) Final Intermolecular Energy     =   -9.27 kcal/mol
USER        vdW + Hbond + desolv Energy     =   -7.69 kcal/mol
USER        Electrostatic Energy            =   -1.58 kcal/mol
USER    (2) Final Total Internal Energy     =   -1.73 kcal/mol
USER    (3) Torsional Free Energy           =   +2.98 kcal/mol
USER    (4) Unbound System's Energy  [=(2)] =   -1.73 kcal/mol
USER    
USER    
USER  
USER    DPF = D:/Protein_go_brrr/autodock/final/mut_N102T/heme_Fe/dock.dpf
USER    NEWDPF move	heme_Fe_opt.pdbqt
USER    NEWDPF about	-0.174000 -0.001000 -0.047000
USER    NEWDPF tran0	9.189125 -5.245752 10.527473
USER    NEWDPF axisangle0	0.235697 0.577395 -0.781704 165.452457
USER    NEWDPF quaternion0	0.233801 0.572748 -0.775414 0.126611
USER    NEWDPF dihe0	167.45 -180.00 169.09 57.21 131.37 -105.22 -17.36 -123.78 -149.58 -8.38 
USER  
USER                              x       y       z    vdW   Elec        q     RMS 
ATOM      1  C   UNL d   1      10.616  -6.588  11.139 -0.15 +0.05    +0.064    14.020
ATOM      2  C   UNL d   1       7.341  -3.695  13.449 -0.09 +0.01    +0.064    14.020
ATOM      3  C   UNL d   1       5.061  -3.056   9.271 -0.16 +0.01    +0.064    14.020
ATOM      4  C   UNL d   1       8.280  -5.767   6.995 -0.19 +0.04    +0.064    14.020
ATOM      5  C   UNL d   1       9.954  -5.765  12.161 -0.12 +0.03    +0.066    14.020
ATOM      6  C   UNL d   1      10.400  -5.612  13.464 -0.06 -0.01    -0.021    14.020
ATOM      7  C   UNL d   1       9.487  -4.812  14.105 -0.07 -0.01    -0.025    14.020
ATOM      8  C   UNL d   1       8.519  -4.506  13.169 -0.12 +0.02    +0.066    14.020
ATOM      9  C   UNL d   1       9.561  -4.356  15.531 -0.04 +0.01    +0.051    14.020
ATOM     10  C   UNL d   1       6.422  -3.339  12.550 -0.15 +0.01    +0.066    14.020
ATOM     11  C   UNL d   1       5.246  -2.657  12.873 -0.31 +0.00    -0.021    14.020
ATOM     12  C   UNL d   1       4.563  -2.476  11.687 -0.43 +0.00    +0.000    14.020
ATOM     13  C   UNL d   1       5.361  -3.069  10.694 -0.29 +0.01    +0.070    14.020
ATOM     14  C   UNL d   1       4.763  -2.260  14.253 -0.28 -0.01    +0.052    14.020
ATOM     15  C   UNL d   1       5.800  -3.670   8.317 -0.12 +0.02    +0.066    14.020
ATOM     16  C   UNL d   1       5.536  -3.551   6.958 -0.23 -0.01    -0.021    14.020
ATOM     17  C   UNL d   1       6.461  -4.335   6.300 -0.41 +0.00    +0.000    14.020
ATOM     18  C   UNL d   1       7.267  -4.918   7.275 -0.36 +0.03    +0.070    14.020
ATOM     19  C   UNL d   1       4.441  -2.753   6.303 -0.34 +0.01    +0.052    14.020
ATOM     20  C   UNL d   1       9.188  -6.351   7.990 -0.07 +0.07    +0.066    14.020
ATOM     21  C   UNL d   1      10.107  -7.380   7.741 -0.16 -0.02    -0.025    14.020
ATOM     22  C   UNL d   1      10.771  -7.590   8.933 -0.14 -0.02    -0.021    14.020
ATOM     23  C   UNL d   1      10.229  -6.689   9.858 -0.09 +0.07    +0.066    14.020
ATOM     24  C   UNL d   1      10.353  -8.136   6.456 -0.22 +0.02    +0.051    14.020
ATOM     25  N   UNL d   1       8.810  -5.080  11.984 -0.11 -0.11    -0.248    14.020
ATOM     26  N   UNL d   1       6.491  -3.602  11.221 -0.13 -0.05    -0.248    14.020
ATOM     27  N   UNL d   1       6.890  -4.476   8.512 -0.25 -0.10    -0.248    14.020
ATOM     28  N   UNL d   1       9.233  -5.968   9.289 -0.10 -0.30    -0.248    14.020
ATOM     29 FE   UNL d   1       7.862  -4.786  10.253 -0.05 +0.00    +0.000    14.020
ATOM     30  C   UNL d   1      11.640  -6.179  14.064 -0.02 +0.01    +0.052    14.020
ATOM     31  C   UNL d   1      11.625  -7.702  14.000 -0.04 +0.03    +0.115    14.020
ATOM     32  C   UNL d   1      13.009  -8.251  14.204 -0.00 +0.04    +0.139    14.020
ATOM     33  O   UNL d   1      13.209  -9.156  15.002 +0.02 -0.17    -0.650    14.020
ATOM     34  O   UNL d   1      14.044  -7.750  13.509 +0.01 -0.18    -0.776    14.020
ATOM     35  H   UNL d   1      13.866  -7.170  12.755 +0.01 +0.05    +0.167    14.020
ATOM     36  C   UNL d   1      11.831  -8.630   9.178 -0.11 +0.03    +0.052    14.020
ATOM     37  C   UNL d   1      13.200  -8.060   8.835 -0.06 +0.06    +0.115    14.020
ATOM     38  C   UNL d   1      13.461  -6.792   9.598 -0.06 +0.12    +0.139    14.020
ATOM     39  O   UNL d   1      13.405  -5.705   9.042 +0.04 -1.04    -0.650    14.020
ATOM     40  O   UNL d   1      13.764  -6.846  10.907 +0.02 -0.39    -0.776    14.020
ATOM     41  H   UNL d   1      13.806  -7.708  11.344 +0.01 +0.06    +0.167    14.020
ATOM     42  C   UNL d   1       3.236  -1.796  11.559 -0.59 -0.00    +0.004    14.020
ATOM     43  C   UNL d   1       2.320  -2.233  10.684 -0.58 +0.00    +0.012    14.020
ATOM     44  C   UNL d   1       6.579  -4.499   4.834 -0.51 +0.00    +0.004    14.020
ATOM     45  C   UNL d   1       7.627  -4.000   4.171 -0.59 +0.00    +0.012    14.020
TER
ENDMDL
MODEL       89
USER    Run = 89
USER    Cluster Rank = 18
USER    Number of conformations in this cluster = 1
USER  
USER    RMSD from reference structure       = 12.088 A
USER  
USER    Estimated Free Energy of Binding    =   -6.16 kcal/mol  [=(1)+(2)+(3)-(4)]
USER    Estimated Inhibition Constant, Ki   =   30.32 uM (micromolar)  [Temperature = 298.15 K]
USER    
USER    (1) Final Intermolecular Energy     =   -9.15 kcal/mol
USER        vdW + Hbond + desolv Energy     =   -5.56 kcal/mol
USER        Electrostatic Energy            =   -3.58 kcal/mol
USER    (2) Final Total Internal Energy     =   -1.45 kcal/mol
USER    (3) Torsional Free Energy           =   +2.98 kcal/mol
USER    (4) Unbound System's Energy  [=(2)] =   -1.45 kcal/mol
USER    
USER    
USER  
USER    DPF = D:/Protein_go_brrr/autodock/final/mut_N102T/heme_Fe/dock.dpf
USER    NEWDPF move	heme_Fe_opt.pdbqt
USER    NEWDPF about	-0.174000 -0.001000 -0.047000
USER    NEWDPF tran0	-9.216744 -12.565769 -1.569105
USER    NEWDPF axisangle0	-0.481667 -0.686798 -0.544339 147.912939
USER    NEWDPF quaternion0	-0.462907 -0.660049 -0.523138 0.276368
USER    NEWDPF dihe0	-128.62 -174.03 -163.61 -128.20 159.17 151.95 -60.20 -63.34 180.00 -26.05 
USER  
USER                              x       y       z    vdW   Elec        q     RMS 
ATOM      1  C   UNL d   1      -7.955 -14.119  -2.021 -0.15 +0.03    +0.064    12.088
ATOM      2  C   UNL d   1     -10.719 -10.996  -4.674 -0.06 +0.01    +0.064    12.088
ATOM      3  C   UNL d   1     -11.185  -8.215  -0.785 -0.09 -0.00    +0.064    12.088
ATOM      4  C   UNL d   1      -8.600 -11.278   1.827 -0.30 -0.00    +0.064    12.088
ATOM      5  C   UNL d   1      -8.759 -13.541  -3.106 -0.09 +0.02    +0.066    12.088
ATOM      6  C   UNL d   1      -8.953 -14.127  -4.346 -0.04 -0.01    -0.021    12.088
ATOM      7  C   UNL d   1      -9.717 -13.257  -5.083 -0.04 -0.01    -0.025    12.088
ATOM      8  C   UNL d   1      -9.961 -12.172  -4.264 -0.06 +0.01    +0.066    12.088
ATOM      9  C   UNL d   1     -10.197 -13.474  -6.486 -0.01 +0.01    +0.051    12.088
ATOM     10  C   UNL d   1     -11.017  -9.962  -3.885 -0.07 +0.01    +0.066    12.088
ATOM     11  C   UNL d   1     -11.645  -8.799  -4.337 -0.04 -0.00    -0.021    12.088
ATOM     12  C   UNL d   1     -11.776  -7.974  -3.238 -0.05 +0.00    +0.000    12.088
ATOM     13  C   UNL d   1     -11.208  -8.680  -2.164 -0.09 +0.00    +0.070    12.088
ATOM     14  C   UNL d   1     -12.039  -8.461  -5.761 -0.02 +0.00    +0.052    12.088
ATOM     15  C   UNL d   1     -10.594  -8.868   0.243 -0.09 -0.01    +0.066    12.088
ATOM     16  C   UNL d   1     -10.680  -8.441   1.562 -0.09 +0.00    -0.021    12.088
ATOM     17  C   UNL d   1      -9.932  -9.321   2.317 -0.15 -0.00    +0.000    12.088
ATOM     18  C   UNL d   1      -9.403 -10.263   1.438 -0.16 -0.01    +0.070    12.088
ATOM     19  C   UNL d   1     -11.414  -7.239   2.092 -0.11 -0.01    +0.052    12.088
ATOM     20  C   UNL d   1      -8.075 -12.324   0.941 -0.27 +0.00    +0.066    12.088
ATOM     21  C   UNL d   1      -7.088 -13.258   1.286 -0.39 -0.00    -0.025    12.088
ATOM     22  C   UNL d   1      -6.929 -14.066   0.179 -0.31 -0.01    -0.021    12.088
ATOM     23  C   UNL d   1      -7.816 -13.591  -0.795 -0.18 +0.02    +0.066    12.088
ATOM     24  C   UNL d   1      -6.327 -13.389   2.585 -0.29 -0.00    +0.051    12.088
ATOM     25  N   UNL d   1      -9.385 -12.352  -3.059 -0.04 -0.05    -0.248    12.088
ATOM     26  N   UNL d   1     -10.737  -9.888  -2.559 -0.08 -0.02    -0.248    12.088
ATOM     27  N   UNL d   1      -9.844 -10.012   0.170 -0.04 +0.05    -0.248    12.088
ATOM     28  N   UNL d   1      -8.479 -12.500  -0.340 -0.13 -0.02    -0.248    12.088
ATOM     29 FE   UNL d   1      -9.608 -11.194  -1.448 -0.04 -0.00    +0.000    12.088
ATOM     30  C   UNL d   1      -8.456 -15.456  -4.802 -0.03 +0.03    +0.052    12.088
ATOM     31  C   UNL d   1      -7.088 -15.324  -5.462 -0.10 +0.14    +0.115    12.088
ATOM     32  C   UNL d   1      -6.065 -16.141  -4.721 -0.13 +0.22    +0.139    12.088
ATOM     33  O   UNL d   1      -5.027 -16.484  -5.267 -0.13 -1.45    -0.650    12.088
ATOM     34  O   UNL d   1      -6.286 -16.502  -3.445 -0.03 -1.39    -0.776    12.088
ATOM     35  H   UNL d   1      -7.121 -16.933  -3.217 +0.02 +0.24    +0.167    12.088
ATOM     36  C   UNL d   1      -5.945 -15.198   0.051 -0.37 +0.04    +0.052    12.088
ATOM     37  C   UNL d   1      -6.382 -16.360   0.931 -0.15 +0.07    +0.115    12.088
ATOM     38  C   UNL d   1      -6.720 -17.567   0.101 -0.04 +0.17    +0.139    12.088
ATOM     39  O   UNL d   1      -6.596 -18.694   0.557 -0.06 -0.59    -0.650    12.088
ATOM     40  O   UNL d   1      -7.161 -17.412  -1.160 -0.38 -1.32    -0.776    12.088
ATOM     41  H   UNL d   1      -7.177 -16.525  -1.547 +0.03 +0.24    +0.167    12.088
ATOM     42  C   UNL d   1     -12.388  -6.609  -3.260 -0.03 +0.00    +0.004    12.088
ATOM     43  C   UNL d   1     -11.658  -5.521  -2.981 -0.08 +0.00    +0.012    12.088
ATOM     44  C   UNL d   1      -9.752  -9.275   3.786 -0.25 -0.00    +0.004    12.088
ATOM     45  C   UNL d   1      -8.960  -8.358   4.350 -0.33 -0.00    +0.012    12.088
TER
ENDMDL
MODEL       41
USER    Run = 41
USER    Cluster Rank = 19
USER    Number of conformations in this cluster = 1
USER  
USER    RMSD from reference structure       = 19.669 A
USER  
USER    Estimated Free Energy of Binding    =   -6.06 kcal/mol  [=(1)+(2)+(3)-(4)]
USER    Estimated Inhibition Constant, Ki   =   36.08 uM (micromolar)  [Temperature = 298.15 K]
USER    
USER    (1) Final Intermolecular Energy     =   -9.04 kcal/mol
USER        vdW + Hbond + desolv Energy     =   -6.01 kcal/mol
USER        Electrostatic Energy            =   -3.04 kcal/mol
USER    (2) Final Total Internal Energy     =   -1.82 kcal/mol
USER    (3) Torsional Free Energy           =   +2.98 kcal/mol
USER    (4) Unbound System's Energy  [=(2)] =   -1.82 kcal/mol
USER    
USER    
USER  
USER    DPF = D:/Protein_go_brrr/autodock/final/mut_N102T/heme_Fe/dock.dpf
USER    NEWDPF move	heme_Fe_opt.pdbqt
USER    NEWDPF about	-0.174000 -0.001000 -0.047000
USER    NEWDPF tran0	10.463408 17.497896 10.483903
USER    NEWDPF axisangle0	-0.328888 0.900575 -0.284249 137.024701
USER    NEWDPF quaternion0	-0.306029 0.837982 -0.264493 0.366301
USER    NEWDPF dihe0	98.75 -78.03 -107.08 -96.04 -82.97 171.22 -124.18 76.19 157.61 172.76 
USER  
USER                              x       y       z    vdW   Elec        q     RMS 
ATOM      1  C   UNL d   1      11.343  17.735   8.645 -0.10 +0.01    +0.064    19.669
ATOM      2  C   UNL d   1      11.792  14.462  12.322 -0.04 +0.00    +0.064    19.669
ATOM      3  C   UNL d   1       7.688  16.109  14.196 -0.26 -0.02    +0.064    19.669
ATOM      4  C   UNL d   1       7.289  19.354  10.705 -0.19 -0.01    +0.064    19.669
ATOM      5  C   UNL d   1      11.893  16.718   9.551 -0.11 +0.01    +0.066    19.669
ATOM      6  C   UNL d   1      13.122  16.099   9.392 -0.11 -0.00    -0.021    19.669
ATOM      7  C   UNL d   1      13.245  15.187  10.411 -0.17 -0.00    -0.025    19.669
ATOM      8  C   UNL d   1      12.085  15.286  11.155 -0.18 +0.00    +0.066    19.669
ATOM      9  C   UNL d   1      14.420  14.293  10.659 -0.15 +0.01    +0.051    19.669
ATOM     10  C   UNL d   1      10.707  14.576  13.090 -0.21 -0.00    +0.066    19.669
ATOM     11  C   UNL d   1      10.400  13.698  14.132 -0.23 -0.00    -0.021    19.669
ATOM     12  C   UNL d   1       9.212  14.141  14.678 -0.25 -0.00    +0.000    19.669
ATOM     13  C   UNL d   1       8.848  15.273  13.928 -0.20 -0.01    +0.070    19.669
ATOM     14  C   UNL d   1      11.166  12.457  14.544 -0.23 +0.01    +0.052    19.669
ATOM     15  C   UNL d   1       7.305  17.168  13.446 -0.18 -0.02    +0.066    19.669
ATOM     16  C   UNL d   1       6.249  18.001  13.792 -0.16 +0.01    -0.021    19.669
ATOM     17  C   UNL d   1       6.129  18.936  12.784 -0.23 -0.00    +0.000    19.669
ATOM     18  C   UNL d   1       7.115  18.648  11.843 -0.20 -0.02    +0.070    19.669
ATOM     19  C   UNL d   1       5.368  17.908  15.009 -0.10 -0.04    +0.052    19.669
ATOM     20  C   UNL d   1       8.353  19.120   9.722 -0.12 -0.01    +0.066    19.669
ATOM     21  C   UNL d   1       8.426  19.706   8.451 -0.08 +0.00    -0.025    19.669
ATOM     22  C   UNL d   1       9.596  19.241   7.886 -0.06 -0.00    -0.021    19.669
ATOM     23  C   UNL d   1      10.184  18.388   8.828 -0.08 +0.01    +0.066    19.669
ATOM     24  C   UNL d   1       7.450  20.652   7.791 -0.08 -0.01    +0.051    19.669
ATOM     25  N   UNL d   1      11.269  16.224  10.635 -0.11 +0.00    -0.248    19.669
ATOM     26  N   UNL d   1       9.755  15.533  12.954 -0.12 +0.02    -0.248    19.669
ATOM     27  N   UNL d   1       7.867  17.589  12.270 -0.14 +0.05    -0.248    19.669
ATOM     28  N   UNL d   1       9.399  18.283   9.928 -0.07 +0.00    -0.248    19.669
ATOM     29 FE   UNL d   1       9.576  16.910  11.440 -0.04 -0.00    +0.000    19.669
ATOM     30  C   UNL d   1      14.140  16.373   8.338 -0.05 +0.01    +0.052    19.669
ATOM     31  C   UNL d   1      14.288  15.175   7.406 -0.09 +0.04    +0.115    19.669
ATOM     32  C   UNL d   1      12.959  14.806   6.808 -0.03 +0.16    +0.139    19.669
ATOM     33  O   UNL d   1      12.172  14.102   7.425 -0.58 -0.86    -0.650    19.669
ATOM     34  O   UNL d   1      12.623  15.249   5.585 +0.31 -1.41    -0.776    19.669
ATOM     35  H   UNL d   1      12.276  16.147   5.489 +0.02 +0.22    +0.167    19.669
ATOM     36  C   UNL d   1      10.092  19.561   6.501 -0.03 +0.00    +0.052    19.669
ATOM     37  C   UNL d   1       9.561  18.530   5.515 -0.07 +0.03    +0.115    19.669
ATOM     38  C   UNL d   1      10.638  17.561   5.117 -0.08 +0.10    +0.139    19.669
ATOM     39  O   UNL d   1      10.371  16.566   4.459 -0.09 -1.01    -0.650    19.669
ATOM     40  O   UNL d   1      11.911  17.783   5.488 +0.02 -0.38    -0.776    19.669
ATOM     41  H   UNL d   1      12.277  17.288   6.234 +0.02 +0.09    +0.167    19.669
ATOM     42  C   UNL d   1       8.500  13.491  15.821 -0.35 -0.00    +0.004    19.669
ATOM     43  C   UNL d   1       8.091  12.217  15.743 -0.30 -0.00    +0.012    19.669
ATOM     44  C   UNL d   1       5.149  20.044  12.736 -0.25 -0.00    +0.004    19.669
ATOM     45  C   UNL d   1       3.876  19.849  13.094 -0.24 -0.00    +0.012    19.669
TER
ENDMDL
MODEL       77
USER    Run = 77
USER    Cluster Rank = 20
USER    Number of conformations in this cluster = 11
USER  
USER    RMSD from reference structure       = 14.680 A
USER  
USER    Estimated Free Energy of Binding    =   -5.98 kcal/mol  [=(1)+(2)+(3)-(4)]
USER    Estimated Inhibition Constant, Ki   =   41.42 uM (micromolar)  [Temperature = 298.15 K]
USER    
USER    (1) Final Intermolecular Energy     =   -8.96 kcal/mol
USER        vdW + Hbond + desolv Energy     =   -8.07 kcal/mol
USER        Electrostatic Energy            =   -0.89 kcal/mol
USER    (2) Final Total Internal Energy     =   -0.70 kcal/mol
USER    (3) Torsional Free Energy           =   +2.98 kcal/mol
USER    (4) Unbound System's Energy  [=(2)] =   -0.70 kcal/mol
USER    
USER    
USER  
USER    DPF = D:/Protein_go_brrr/autodock/final/mut_N102T/heme_Fe/dock.dpf
USER    NEWDPF move	heme_Fe_opt.pdbqt
USER    NEWDPF about	-0.174000 -0.001000 -0.047000
USER    NEWDPF tran0	-10.912417 3.995827 12.378192
USER    NEWDPF axisangle0	-0.648326 0.007650 0.761324 -155.539503
USER    NEWDPF quaternion0	-0.633612 0.007476 0.744046 -0.211841
USER    NEWDPF dihe0	-180.00 141.85 176.33 -152.49 -35.34 124.61 85.59 71.55 -0.60 5.74 
USER  
USER                              x       y       z    vdW   Elec        q     RMS 
ATOM      1  C   UNL d   1     -11.181   3.593  14.372 -0.16 +0.01    +0.064    14.680
ATOM      2  C   UNL d   1     -10.311   7.681  11.735 -0.32 +0.00    +0.064    14.680
ATOM      3  C   UNL d   1     -11.486   5.276   7.747 -0.17 +0.00    +0.064    14.680
ATOM      4  C   UNL d   1     -12.232   1.279  10.268 -0.22 -0.01    +0.064    14.680
ATOM      5  C   UNL d   1     -10.746   4.943  13.990 +0.08 +0.01    +0.066    14.680
ATOM      6  C   UNL d   1     -10.231   5.886  14.865 -0.15 -0.00    -0.021    14.680
ATOM      7  C   UNL d   1      -9.993   7.022  14.133 -0.25 -0.00    -0.025    14.680
ATOM      8  C   UNL d   1     -10.372   6.729  12.837 -0.28 +0.01    +0.066    14.680
ATOM      9  C   UNL d   1      -9.417   8.303  14.652 -0.24 +0.00    +0.051    14.680
ATOM     10  C   UNL d   1     -10.616   7.407  10.465 -0.33 +0.00    +0.066    14.680
ATOM     11  C   UNL d   1     -10.656   8.369   9.453 -0.31 +0.00    -0.021    14.680
ATOM     12  C   UNL d   1     -11.010   7.704   8.296 -0.33 -0.00    +0.000    14.680
ATOM     13  C   UNL d   1     -11.176   6.358   8.668 -0.31 -0.00    +0.070    14.680
ATOM     14  C   UNL d   1     -10.437   9.862   9.595 -0.25 -0.01    +0.052    14.680
ATOM     15  C   UNL d   1     -11.698   3.988   8.108 -0.26 +0.00    +0.066    14.680
ATOM     16  C   UNL d   1     -11.894   2.965   7.188 -0.29 +0.00    -0.021    14.680
ATOM     17  C   UNL d   1     -12.113   1.812   7.913 -0.26 -0.00    +0.000    14.680
ATOM     18  C   UNL d   1     -12.049   2.160   9.261 -0.22 -0.01    +0.070    14.680
ATOM     19  C   UNL d   1     -11.901   3.069   5.687 -0.29 -0.00    +0.052    14.680
ATOM     20  C   UNL d   1     -12.112   1.596  11.696 -0.19 -0.00    +0.066    14.680
ATOM     21  C   UNL d   1     -12.492   0.751  12.748 -0.10 +0.00    -0.025    14.680
ATOM     22  C   UNL d   1     -12.172   1.425  13.909 -0.10 -0.00    -0.021    14.680
ATOM     23  C   UNL d   1     -11.618   2.651  13.521 -0.17 +0.00    +0.066    14.680
ATOM     24  C   UNL d   1     -13.127  -0.618  12.676 -0.05 -0.01    +0.051    14.680
ATOM     25  N   UNL d   1     -10.821   5.461  12.751 -0.05 -0.03    -0.248    14.680
ATOM     26  N   UNL d   1     -10.944   6.179   9.991 -0.15 -0.00    -0.248    14.680
ATOM     27  N   UNL d   1     -11.751   3.489   9.381 -0.11 +0.02    -0.248    14.680
ATOM     28  N   UNL d   1     -11.625   2.768  12.171 -0.16 +0.00    -0.248    14.680
ATOM     29 FE   UNL d   1     -11.285   4.472  11.081 -0.07 -0.00    +0.000    14.680
ATOM     30  C   UNL d   1      -9.958   5.711  16.320 -0.13 +0.00    +0.052    14.680
ATOM     31  C   UNL d   1      -8.549   5.173  16.544 -0.16 +0.01    +0.115    14.680
ATOM     32  C   UNL d   1      -8.571   3.674  16.662 -0.20 +0.03    +0.139    14.680
ATOM     33  O   UNL d   1      -9.508   3.105  17.205 +0.02 -0.12    -0.650    14.680
ATOM     34  O   UNL d   1      -7.556   2.943  16.170 -0.01 -0.30    -0.776    14.680
ATOM     35  H   UNL d   1      -6.816   3.396  15.742 -0.29 +0.05    +0.167    14.680
ATOM     36  C   UNL d   1     -12.430   0.936  15.310 -0.05 +0.00    +0.052    14.680
ATOM     37  C   UNL d   1     -11.136   0.418  15.919 -0.10 +0.03    +0.115    14.680
ATOM     38  C   UNL d   1     -11.166  -1.078  16.056 -0.07 +0.05    +0.139    14.680
ATOM     39  O   UNL d   1     -10.290  -1.769  15.556 -0.52 -0.55    -0.650    14.680
ATOM     40  O   UNL d   1     -12.167  -1.670  16.731 +0.02 -0.10    -0.776    14.680
ATOM     41  H   UNL d   1     -12.506  -1.249  17.533 +0.01 +0.01    +0.167    14.680
ATOM     42  C   UNL d   1     -11.184   8.348   6.958 -0.31 -0.00    +0.004    14.680
ATOM     43  C   UNL d   1     -12.227   8.042   6.176 -0.20 -0.00    +0.012    14.680
ATOM     44  C   UNL d   1     -12.347   0.462   7.353 -0.26 -0.00    +0.004    14.680
ATOM     45  C   UNL d   1     -13.586  -0.026   7.238 -0.13 -0.00    +0.012    14.680
TER
ENDMDL
MODEL       90
USER    Run = 90
USER    Cluster Rank = 21
USER    Number of conformations in this cluster = 1
USER  
USER    RMSD from reference structure       = 11.168 A
USER  
USER    Estimated Free Energy of Binding    =   -5.95 kcal/mol  [=(1)+(2)+(3)-(4)]
USER    Estimated Inhibition Constant, Ki   =   43.34 uM (micromolar)  [Temperature = 298.15 K]
USER    
USER    (1) Final Intermolecular Energy     =   -8.94 kcal/mol
USER        vdW + Hbond + desolv Energy     =   -7.60 kcal/mol
USER        Electrostatic Energy            =   -1.33 kcal/mol
USER    (2) Final Total Internal Energy     =   -1.70 kcal/mol
USER    (3) Torsional Free Energy           =   +2.98 kcal/mol
USER    (4) Unbound System's Energy  [=(2)] =   -1.70 kcal/mol
USER    
USER    
USER  
USER    DPF = D:/Protein_go_brrr/autodock/final/mut_N102T/heme_Fe/dock.dpf
USER    NEWDPF move	heme_Fe_opt.pdbqt
USER    NEWDPF about	-0.174000 -0.001000 -0.047000
USER    NEWDPF tran0	-11.043306 -0.454909 -7.433416
USER    NEWDPF axisangle0	-0.009247 0.997361 -0.072017 -78.579409
USER    NEWDPF quaternion0	-0.005856 0.631570 -0.045604 -0.773954
USER    NEWDPF dihe0	179.63 -133.47 70.53 59.15 -143.17 104.57 -100.78 -49.93 173.10 -6.67 
USER  
USER                              x       y       z    vdW   Elec        q     RMS 
ATOM      1  C   UNL d   1     -10.919  -0.385  -5.386 -0.13 +0.01    +0.064    11.168
ATOM      2  C   UNL d   1     -10.596  -3.971  -8.772 -0.15 +0.01    +0.064    11.168
ATOM      3  C   UNL d   1     -10.087  -0.619 -12.174 -0.19 +0.01    +0.064    11.168
ATOM      4  C   UNL d   1     -10.503   2.869  -8.927 -0.20 +0.00    +0.064    11.168
ATOM      5  C   UNL d   1     -10.959  -1.703  -6.034 -0.11 +0.01    +0.066    11.168
ATOM      6  C   UNL d   1     -11.203  -2.899  -5.379 -0.12 -0.00    -0.021    11.168
ATOM      7  C   UNL d   1     -11.109  -3.895  -6.320 -0.10 -0.00    -0.025    11.168
ATOM      8  C   UNL d   1     -10.811  -3.268  -7.514 -0.14 +0.01    +0.066    11.168
ATOM      9  C   UNL d   1     -11.314  -5.359  -6.079 -0.07 +0.01    +0.051    11.168
ATOM     10  C   UNL d   1     -10.364  -3.387  -9.949 -0.19 +0.01    +0.066    11.168
ATOM     11  C   UNL d   1     -10.048  -4.090 -11.114 -0.23 -0.00    -0.021    11.168
ATOM     12  C   UNL d   1      -9.880  -3.144 -12.106 -0.29 +0.00    +0.000    11.168
ATOM     13  C   UNL d   1     -10.096  -1.901 -11.487 -0.24 +0.01    +0.070    11.168
ATOM     14  C   UNL d   1      -9.847  -5.584 -11.260 -0.17 +0.01    +0.052    11.168
ATOM     15  C   UNL d   1     -10.244   0.584 -11.573 -0.23 +0.01    +0.066    11.168
ATOM     16  C   UNL d   1     -10.328   1.778 -12.277 -0.25 -0.00    -0.021    11.168
ATOM     17  C   UNL d   1     -10.445   2.786 -11.342 -0.23 +0.00    +0.000    11.168
ATOM     18  C   UNL d   1     -10.424   2.182 -10.087 -0.21 +0.00    +0.070    11.168
ATOM     19  C   UNL d   1     -10.276   1.970 -13.769 -0.30 +0.00    +0.052    11.168
ATOM     20  C   UNL d   1     -10.547   2.264  -7.591 -0.16 +0.00    +0.066    11.168
ATOM     21  C   UNL d   1     -10.427   2.962  -6.381 -0.16 +0.00    -0.025    11.168
ATOM     22  C   UNL d   1     -10.561   2.017  -5.385 -0.20 -0.00    -0.021    11.168
ATOM     23  C   UNL d   1     -10.750   0.785  -6.023 -0.11 +0.00    +0.066    11.168
ATOM     24  C   UNL d   1     -10.194   4.439  -6.163 -0.14 +0.00    +0.051    11.168
ATOM     25  N   UNL d   1     -10.730  -1.934  -7.339 -0.03 -0.05    -0.248    11.168
ATOM     26  N   UNL d   1     -10.383  -2.048 -10.170 -0.12 -0.04    -0.248    11.168
ATOM     27  N   UNL d   1     -10.345   0.825 -10.229 -0.14 -0.02    -0.248    11.168
ATOM     28  N   UNL d   1     -10.695   0.935  -7.368 -0.08 -0.02    -0.248    11.168
ATOM     29 FE   UNL d   1     -10.539  -0.554  -8.769 -0.05 +0.00    +0.000    11.168
ATOM     30  C   UNL d   1     -11.530  -3.087  -3.937 -0.12 +0.01    +0.052    11.168
ATOM     31  C   UNL d   1     -10.282  -3.462  -3.145 -0.20 +0.04    +0.115    11.168
ATOM     32  C   UNL d   1      -9.453  -2.241  -2.859 -0.25 +0.07    +0.139    11.168
ATOM     33  O   UNL d   1      -8.232  -2.299  -2.870 -0.10 -0.16    -0.650    11.168
ATOM     34  O   UNL d   1     -10.051  -1.068  -2.587 -0.57 -0.67    -0.776    11.168
ATOM     35  H   UNL d   1     -11.018  -1.024  -2.584 +0.03 +0.15    +0.167    11.168
ATOM     36  C   UNL d   1     -10.463   2.278  -3.905 -0.14 +0.00    +0.052    11.168
ATOM     37  C   UNL d   1     -11.841   2.606  -3.349 -0.10 +0.02    +0.115    11.168
ATOM     38  C   UNL d   1     -12.152   1.763  -2.145 -0.11 +0.07    +0.139    11.168
ATOM     39  O   UNL d   1     -12.104   2.239  -1.020 -0.56 -0.43    -0.650    11.168
ATOM     40  O   UNL d   1     -12.483   0.469  -2.299 -0.06 -0.51    -0.776    11.168
ATOM     41  H   UNL d   1     -11.953  -0.085  -2.889 +0.03 +0.09    +0.167    11.168
ATOM     42  C   UNL d   1      -9.520  -3.448 -13.526 -0.27 +0.00    +0.004    11.168
ATOM     43  C   UNL d   1     -10.345  -3.125 -14.530 -0.19 +0.00    +0.012    11.168
ATOM     44  C   UNL d   1     -10.587   4.231 -11.632 -0.16 -0.00    +0.004    11.168
ATOM     45  C   UNL d   1     -11.720   4.879 -11.343 -0.12 -0.00    +0.012    11.168
TER
ENDMDL
MODEL       53
USER    Run = 53
USER    Cluster Rank = 22
USER    Number of conformations in this cluster = 4
USER  
USER    RMSD from reference structure       = 11.267 A
USER  
USER    Estimated Free Energy of Binding    =   -5.95 kcal/mol  [=(1)+(2)+(3)-(4)]
USER    Estimated Inhibition Constant, Ki   =   43.83 uM (micromolar)  [Temperature = 298.15 K]
USER    
USER    (1) Final Intermolecular Energy     =   -8.93 kcal/mol
USER        vdW + Hbond + desolv Energy     =   -7.80 kcal/mol
USER        Electrostatic Energy            =   -1.13 kcal/mol
USER    (2) Final Total Internal Energy     =   -1.47 kcal/mol
USER    (3) Torsional Free Energy           =   +2.98 kcal/mol
USER    (4) Unbound System's Energy  [=(2)] =   -1.47 kcal/mol
USER    
USER    
USER  
USER    DPF = D:/Protein_go_brrr/autodock/final/mut_N102T/heme_Fe/dock.dpf
USER    NEWDPF move	heme_Fe_opt.pdbqt
USER    NEWDPF about	-0.174000 -0.001000 -0.047000
USER    NEWDPF tran0	-12.366432 5.627358 5.504431
USER    NEWDPF axisangle0	-0.770384 -0.341906 -0.538153 135.931627
USER    NEWDPF quaternion0	-0.714115 -0.316933 -0.498847 0.375160
USER    NEWDPF dihe0	150.69 -88.39 -162.12 -104.59 158.30 -126.97 -19.17 -101.98 -179.89 5.34 
USER  
USER                              x       y       z    vdW   Elec        q     RMS 
ATOM      1  C   UNL d   1     -12.463   3.903   4.396 -0.20 +0.00    +0.064    11.267
ATOM      2  C   UNL d   1     -11.807   8.687   3.340 -0.15 -0.00    +0.064    11.267
ATOM      3  C   UNL d   1     -10.907   9.518   7.984 -0.13 -0.02    +0.064    11.267
ATOM      4  C   UNL d   1     -11.641   4.911   9.045 -0.27 -0.00    +0.064    11.267
ATOM      5  C   UNL d   1     -12.444   5.187   3.682 -0.11 +0.01    +0.066    11.267
ATOM      6  C   UNL d   1     -12.766   5.352   2.345 -0.11 -0.00    -0.021    11.267
ATOM      7  C   UNL d   1     -12.580   6.680   2.051 -0.11 -0.00    -0.025    11.267
ATOM      8  C   UNL d   1     -12.151   7.275   3.222 -0.15 +0.01    +0.066    11.267
ATOM      9  C   UNL d   1     -12.823   7.334   0.725 -0.05 +0.00    +0.051    11.267
ATOM     10  C   UNL d   1     -11.445   9.297   4.470 -0.18 -0.00    +0.066    11.267
ATOM     11  C   UNL d   1     -11.011  10.623   4.529 -0.15 +0.00    -0.021    11.267
ATOM     12  C   UNL d   1     -10.729  10.883   5.855 -0.20 -0.00    +0.000    11.267
ATOM     13  C   UNL d   1     -11.001   9.687   6.542 -0.15 -0.01    +0.070    11.267
ATOM     14  C   UNL d   1     -10.809  11.577   3.369 -0.10 -0.00    +0.052    11.267
ATOM     15  C   UNL d   1     -11.117   8.355   8.644 -0.25 -0.01    +0.066    11.267
ATOM     16  C   UNL d   1     -11.115   8.258  10.029 -0.24 +0.00    -0.021    11.267
ATOM     17  C   UNL d   1     -11.323   6.929  10.338 -0.27 -0.00    +0.000    11.267
ATOM     18  C   UNL d   1     -11.443   6.245   9.130 -0.27 -0.00    +0.070    11.267
ATOM     19  C   UNL d   1     -10.901   9.364  11.027 -0.19 -0.00    +0.052    11.267
ATOM     20  C   UNL d   1     -11.833   4.167   7.795 -0.25 -0.00    +0.066    11.267
ATOM     21  C   UNL d   1     -11.838   2.770   7.676 -0.29 +0.00    -0.025    11.267
ATOM     22  C   UNL d   1     -12.087   2.504   6.345 -0.26 +0.00    -0.021    11.267
ATOM     23  C   UNL d   1     -12.216   3.743   5.706 -0.19 -0.00    +0.066    11.267
ATOM     24  C   UNL d   1     -11.618   1.731   8.752 -0.30 -0.01    +0.051    11.267
ATOM     25  N   UNL d   1     -12.078   6.366   4.214 -0.03 -0.02    -0.248    11.267
ATOM     26  N   UNL d   1     -11.429   8.717   5.697 -0.17 +0.02    -0.248    11.267
ATOM     27  N   UNL d   1     -11.360   7.127   8.089 -0.19 +0.02    -0.248    11.267
ATOM     28  N   UNL d   1     -12.016   4.754   6.587 -0.11 -0.00    -0.248    11.267
ATOM     29 FE   UNL d   1     -11.722   6.734   6.144 -0.05 -0.00    +0.000    11.267
ATOM     30  C   UNL d   1     -13.248   4.307   1.397 -0.08 +0.01    +0.052    11.267
ATOM     31  C   UNL d   1     -12.076   3.647   0.680 -0.18 +0.04    +0.115    11.267
ATOM     32  C   UNL d   1     -12.492   2.323   0.100 -0.09 +0.10    +0.139    11.267
ATOM     33  O   UNL d   1     -11.865   1.822  -0.823 -0.47 -0.67    -0.650    11.267
ATOM     34  O   UNL d   1     -13.562   1.677   0.593 -0.31 -0.50    -0.776    11.267
ATOM     35  H   UNL d   1     -13.797   1.801   1.524 +0.02 +0.08    +0.167    11.267
ATOM     36  C   UNL d   1     -12.147   1.137   5.717 -0.28 -0.02    +0.052    11.267
ATOM     37  C   UNL d   1     -13.598   0.737   5.496 -0.14 -0.03    +0.115    11.267
ATOM     38  C   UNL d   1     -14.172   1.436   4.296 -0.09 -0.01    +0.139    11.267
ATOM     39  O   UNL d   1     -15.214   2.069   4.380 +0.03 +0.01    -0.650    11.267
ATOM     40  O   UNL d   1     -13.539   1.364   3.111 -0.04 -0.20    -0.776    11.267
ATOM     41  H   UNL d   1     -13.773   0.655   2.495 +0.03 +0.07    +0.167    11.267
ATOM     42  C   UNL d   1     -10.221  12.187   6.384 -0.19 -0.00    +0.004    11.267
ATOM     43  C   UNL d   1      -8.997  12.284   6.918 -0.31 -0.00    +0.012    11.267
ATOM     44  C   UNL d   1     -11.422   6.355  11.699 -0.24 +0.00    +0.004    11.267
ATOM     45  C   UNL d   1     -10.488   6.613  12.620 -0.32 +0.00    +0.012    11.267
TER
ENDMDL
MODEL       81
USER    Run = 81
USER    Cluster Rank = 23
USER    Number of conformations in this cluster = 1
USER  
USER    RMSD from reference structure       = 11.519 A
USER  
USER    Estimated Free Energy of Binding    =   -5.84 kcal/mol  [=(1)+(2)+(3)-(4)]
USER    Estimated Inhibition Constant, Ki   =   52.74 uM (micromolar)  [Temperature = 298.15 K]
USER    
USER    (1) Final Intermolecular Energy     =   -8.82 kcal/mol
USER        vdW + Hbond + desolv Energy     =   -7.88 kcal/mol
USER        Electrostatic Energy            =   -0.94 kcal/mol
USER    (2) Final Total Internal Energy     =   -0.59 kcal/mol
USER    (3) Torsional Free Energy           =   +2.98 kcal/mol
USER    (4) Unbound System's Energy  [=(2)] =   -0.59 kcal/mol
USER    
USER    
USER  
USER    DPF = D:/Protein_go_brrr/autodock/final/mut_N102T/heme_Fe/dock.dpf
USER    NEWDPF move	heme_Fe_opt.pdbqt
USER    NEWDPF about	-0.174000 -0.001000 -0.047000
USER    NEWDPF tran0	-12.499666 6.661810 5.690094
USER    NEWDPF axisangle0	0.774329 -0.103635 0.624239 -176.859387
USER    NEWDPF quaternion0	0.774038 -0.103596 0.624004 -0.027404
USER    NEWDPF dihe0	-139.53 -98.70 176.63 -153.17 53.27 130.92 -80.28 -52.43 180.00 -152.13 
USER  
USER                              x       y       z    vdW   Elec        q     RMS 
ATOM      1  C   UNL d   1     -12.373   6.878   3.653 -0.15 +0.01    +0.064    11.519
ATOM      2  C   UNL d   1     -11.183   9.699   7.533 -0.17 -0.01    +0.064    11.519
ATOM      3  C   UNL d   1     -11.590   5.846  10.372 -0.20 -0.00    +0.064    11.519
ATOM      4  C   UNL d   1     -12.846   3.121   6.647 -0.16 -0.00    +0.064    11.519
ATOM      5  C   UNL d   1     -12.082   8.047   4.495 -0.17 -0.00    +0.066    11.519
ATOM      6  C   UNL d   1     -12.004   9.352   4.036 -0.13 +0.00    -0.021    11.519
ATOM      7  C   UNL d   1     -11.669  10.134   5.113 -0.14 +0.00    -0.025    11.519
ATOM      8  C   UNL d   1     -11.557   9.276   6.190 -0.19 -0.01    +0.066    11.519
ATOM      9  C   UNL d   1     -11.490  11.621   5.103 -0.10 -0.00    +0.051    11.519
ATOM     10  C   UNL d   1     -11.123   8.901   8.601 -0.21 -0.01    +0.066    11.519
ATOM     11  C   UNL d   1     -10.651   9.313   9.850 -0.23 +0.00    -0.021    11.519
ATOM     12  C   UNL d   1     -10.742   8.215  10.682 -0.29 -0.00    +0.000    11.519
ATOM     13  C   UNL d   1     -11.262   7.178   9.888 -0.25 -0.00    +0.070    11.519
ATOM     14  C   UNL d   1     -10.077  10.666  10.215 -0.18 -0.00    +0.052    11.519
ATOM     15  C   UNL d   1     -12.042   4.830   9.600 -0.19 -0.00    +0.066    11.519
ATOM     16  C   UNL d   1     -12.438   3.603  10.117 -0.19 +0.00    -0.021    11.519
ATOM     17  C   UNL d   1     -12.797   2.814   9.044 -0.17 -0.00    +0.000    11.519
ATOM     18  C   UNL d   1     -12.608   3.579   7.895 -0.17 -0.00    +0.070    11.519
ATOM     19  C   UNL d   1     -12.454   3.177  11.561 -0.19 -0.00    +0.052    11.519
ATOM     20  C   UNL d   1     -12.717   3.916   5.419 -0.15 -0.00    +0.066    11.519
ATOM     21  C   UNL d   1     -12.766   3.405   4.115 -0.17 -0.00    -0.025    11.519
ATOM     22  C   UNL d   1     -12.642   4.494   3.278 -0.16 -0.00    -0.021    11.519
ATOM     23  C   UNL d   1     -12.517   5.620   4.100 -0.11 +0.01    +0.066    11.519
ATOM     24  C   UNL d   1     -12.916   1.969   3.669 -0.17 +0.01    +0.051    11.519
ATOM     25  N   UNL d   1     -11.818   8.008   5.812 -0.14 +0.02    -0.248    11.519
ATOM     26  N   UNL d   1     -11.486   7.594   8.617 -0.15 +0.02    -0.248    11.519
ATOM     27  N   UNL d   1     -12.185   4.832   8.239 -0.14 +0.00    -0.248    11.519
ATOM     28  N   UNL d   1     -12.518   5.256   5.405 -0.10 -0.01    -0.248    11.519
ATOM     29 FE   UNL d   1     -12.003   6.423   7.011 -0.05 -0.00    +0.000    11.519
ATOM     30  C   UNL d   1     -12.254   9.836   2.648 -0.07 -0.00    +0.052    11.519
ATOM     31  C   UNL d   1     -10.965   9.836   1.835 -0.10 -0.00    +0.115    11.519
ATOM     32  C   UNL d   1     -10.896   8.618   0.957 -0.12 +0.00    +0.139    11.519
ATOM     33  O   UNL d   1     -11.816   8.344   0.198 +0.01 -0.01    -0.650    11.519
ATOM     34  O   UNL d   1      -9.819   7.815   0.999 +0.04 +0.04    -0.776    11.519
ATOM     35  H   UNL d   1      -9.415   7.617   1.855 -0.47 -0.03    +0.167    11.519
ATOM     36  C   UNL d   1     -12.597   4.447   1.773 -0.14 +0.01    +0.052    11.519
ATOM     37  C   UNL d   1     -11.487   3.508   1.322 -0.25 +0.04    +0.115    11.519
ATOM     38  C   UNL d   1     -12.012   2.475   0.366 -0.07 +0.10    +0.139    11.519
ATOM     39  O   UNL d   1     -11.441   2.255  -0.692 -0.47 -0.51    -0.650    11.519
ATOM     40  O   UNL d   1     -13.124   1.782   0.670 -0.41 -0.63    -0.776    11.519
ATOM     41  H   UNL d   1     -13.988   2.188   0.516 +0.02 +0.06    +0.167    11.519
ATOM     42  C   UNL d   1     -10.333   8.195  12.121 -0.32 +0.00    +0.004    11.519
ATOM     43  C   UNL d   1      -9.624   7.175  12.622 -0.39 +0.00    +0.012    11.519
ATOM     44  C   UNL d   1     -13.308   1.426   9.115 -0.12 -0.00    +0.004    11.519
ATOM     45  C   UNL d   1     -12.497   0.386   8.895 -0.20 -0.00    +0.012    11.519
TER
ENDMDL
MODEL       69
USER    Run = 69
USER    Cluster Rank = 24
USER    Number of conformations in this cluster = 1
USER  
USER    RMSD from reference structure       = 13.394 A
USER  
USER    Estimated Free Energy of Binding    =   -5.65 kcal/mol  [=(1)+(2)+(3)-(4)]
USER    Estimated Inhibition Constant, Ki   =   71.69 uM (micromolar)  [Temperature = 298.15 K]
USER    
USER    (1) Final Intermolecular Energy     =   -8.64 kcal/mol
USER        vdW + Hbond + desolv Energy     =   -7.89 kcal/mol
USER        Electrostatic Energy            =   -0.75 kcal/mol
USER    (2) Final Total Internal Energy     =   -0.76 kcal/mol
USER    (3) Torsional Free Energy           =   +2.98 kcal/mol
USER    (4) Unbound System's Energy  [=(2)] =   -0.76 kcal/mol
USER    
USER    
USER  
USER    DPF = D:/Protein_go_brrr/autodock/final/mut_N102T/heme_Fe/dock.dpf
USER    NEWDPF move	heme_Fe_opt.pdbqt
USER    NEWDPF about	-0.174000 -0.001000 -0.047000
USER    NEWDPF tran0	-5.270260 11.223251 -7.763477
USER    NEWDPF axisangle0	0.760276 -0.096634 -0.642373 136.044115
USER    NEWDPF quaternion0	0.705025 -0.089612 -0.595690 0.374250
USER    NEWDPF dihe0	-108.59 -116.40 172.96 -126.93 -94.67 -100.69 58.93 -122.06 165.25 151.77 
USER  
USER                              x       y       z    vdW   Elec        q     RMS 
ATOM      1  C   UNL d   1      -6.191  10.969  -5.947 -0.19 +0.00    +0.064    13.394
ATOM      2  C   UNL d   1      -3.137  14.353  -7.858 -0.11 +0.01    +0.064    13.394
ATOM      3  C   UNL d   1      -4.055  12.608 -12.238 -0.30 -0.01    +0.064    13.394
ATOM      4  C   UNL d   1      -6.933   9.258 -10.399 -0.25 -0.01    +0.064    13.394
ATOM      5  C   UNL d   1      -5.181  12.030  -6.071 -0.21 +0.00    +0.066    13.394
ATOM      6  C   UNL d   1      -4.592  12.689  -5.005 -0.22 -0.00    -0.021    13.394
ATOM      7  C   UNL d   1      -3.747  13.631  -5.536 -0.25 -0.00    -0.025    13.394
ATOM      8  C   UNL d   1      -3.853  13.511  -6.908 -0.24 +0.00    +0.066    13.394
ATOM      9  C   UNL d   1      -2.878  14.575  -4.763 -0.19 +0.01    +0.051    13.394
ATOM     10  C   UNL d   1      -3.177  14.220  -9.185 -0.25 -0.00    +0.066    13.394
ATOM     11  C   UNL d   1      -2.571  15.114 -10.072 -0.27 +0.00    -0.021    13.394
ATOM     12  C   UNL d   1      -2.836  14.642 -11.342 -0.25 -0.00    +0.000    13.394
ATOM     13  C   UNL d   1      -3.603  13.478 -11.163 -0.24 -0.01    +0.070    13.394
ATOM     14  C   UNL d   1      -1.835  16.393  -9.728 -0.23 -0.00    +0.052    13.394
ATOM     15  C   UNL d   1      -4.837  11.516 -12.074 -0.26 -0.01    +0.066    13.394
ATOM     16  C   UNL d   1      -5.165  10.655 -13.114 -0.33 +0.00    -0.021    13.394
ATOM     17  C   UNL d   1      -5.998   9.689 -12.586 -0.33 -0.00    +0.000    13.394
ATOM     18  C   UNL d   1      -6.163   9.988 -11.236 -0.20 -0.01    +0.070    13.394
ATOM     19  C   UNL d   1      -4.733  10.747 -14.553 -0.34 -0.02    +0.052    13.394
ATOM     20  C   UNL d   1      -7.081   9.506  -8.960 -0.18 -0.00    +0.066    13.394
ATOM     21  C   UNL d   1      -8.023   8.888  -8.125 -0.17 +0.00    -0.025    13.394
ATOM     22  C   UNL d   1      -7.786   9.381  -6.859 -0.14 +0.00    -0.021    13.394
ATOM     23  C   UNL d   1      -6.718  10.280  -6.971 -0.18 -0.00    +0.066    13.394
ATOM     24  C   UNL d   1      -9.097   7.890  -8.491 -0.00 +0.00    +0.051    13.394
ATOM     25  N   UNL d   1      -4.719  12.529  -7.230 -0.17 +0.00    -0.248    13.394
ATOM     26  N   UNL d   1      -3.819  13.226  -9.849 -0.18 +0.03    -0.248    13.394
ATOM     27  N   UNL d   1      -5.415  11.085 -10.910 -0.09 +0.02    -0.248    13.394
ATOM     28  N   UNL d   1      -6.322  10.385  -8.263 -0.11 +0.01    -0.248    13.394
ATOM     29 FE   UNL d   1      -5.072  11.804  -9.057 -0.05 -0.00    +0.000    13.394
ATOM     30  C   UNL d   1      -4.804  12.425  -3.553 -0.23 +0.01    +0.052    13.394
ATOM     31  C   UNL d   1      -5.670  13.512  -2.927 -0.08 +0.03    +0.115    13.394
ATOM     32  C   UNL d   1      -4.933  14.192  -1.807 -0.00 +0.07    +0.139    13.394
ATOM     33  O   UNL d   1      -5.082  13.827  -0.649 -0.00 -0.38    -0.650    13.394
ATOM     34  O   UNL d   1      -4.099  15.213  -2.070 -0.41 -0.55    -0.776    13.394
ATOM     35  H   UNL d   1      -4.470  16.065  -2.340 +0.02 +0.06    +0.167    13.394
ATOM     36  C   UNL d   1      -8.574   9.043  -5.621 -0.02 -0.00    +0.052    13.394
ATOM     37  C   UNL d   1      -9.363  10.262  -5.166 -0.05 -0.00    +0.115    13.394
ATOM     38  C   UNL d   1     -10.268  10.756  -6.258 -0.01 -0.00    +0.139    13.394
ATOM     39  O   UNL d   1      -9.956  11.721  -6.940 +0.01 +0.00    -0.650    13.394
ATOM     40  O   UNL d   1     -11.439  10.137  -6.491 +0.01 +0.00    -0.776    13.394
ATOM     41  H   UNL d   1     -12.116  10.136  -5.801 +0.00 -0.00    +0.167    13.394
ATOM     42  C   UNL d   1      -2.385  15.297 -12.609 -0.15 +0.00    +0.004    13.394
ATOM     43  C   UNL d   1      -3.197  15.373 -13.672 -0.19 +0.00    +0.012    13.394
ATOM     44  C   UNL d   1      -6.581   8.545 -13.322 -0.44 -0.00    +0.004    13.394
ATOM     45  C   UNL d   1      -7.572   8.729 -14.201 -0.39 -0.00    +0.012    13.394
TER
ENDMDL
MODEL       84
USER    Run = 84
USER    Cluster Rank = 25
USER    Number of conformations in this cluster = 1
USER  
USER    RMSD from reference structure       = 12.550 A
USER  
USER    Estimated Free Energy of Binding    =   -5.64 kcal/mol  [=(1)+(2)+(3)-(4)]
USER    Estimated Inhibition Constant, Ki   =   72.95 uM (micromolar)  [Temperature = 298.15 K]
USER    
USER    (1) Final Intermolecular Energy     =   -8.63 kcal/mol
USER        vdW + Hbond + desolv Energy     =   -6.33 kcal/mol
USER        Electrostatic Energy            =   -2.30 kcal/mol
USER    (2) Final Total Internal Energy     =   -2.48 kcal/mol
USER    (3) Torsional Free Energy           =   +2.98 kcal/mol
USER    (4) Unbound System's Energy  [=(2)] =   -2.48 kcal/mol
USER    
USER    
USER  
USER    DPF = D:/Protein_go_brrr/autodock/final/mut_N102T/heme_Fe/dock.dpf
USER    NEWDPF move	heme_Fe_opt.pdbqt
USER    NEWDPF about	-0.174000 -0.001000 -0.047000
USER    NEWDPF tran0	14.324912 -4.279933 5.202915
USER    NEWDPF axisangle0	0.592080 0.327208 -0.736462 127.504506
USER    NEWDPF quaternion0	0.531031 0.293469 -0.660526 0.442253
USER    NEWDPF dihe0	-31.05 -46.73 17.33 63.23 62.02 82.43 -80.01 93.72 166.79 -178.33 
USER  
USER                              x       y       z    vdW   Elec        q     RMS 
ATOM      1  C   UNL d   1      13.919  -5.985   6.269 -0.06 +0.05    +0.064    12.550
ATOM      2  C   UNL d   1      14.847  -1.278   7.455 -0.12 +0.03    +0.064    12.550
ATOM      3  C   UNL d   1      14.065  -0.043   2.880 -0.34 +0.01    +0.064    12.550
ATOM      4  C   UNL d   1      13.265  -4.607   1.690 -0.21 -0.01    +0.064    12.550
ATOM      5  C   UNL d   1      14.334  -4.787   7.010 +0.00 +0.06    +0.066    12.550
ATOM      6  C   UNL d   1      14.748  -4.778   8.332 -0.08 -0.02    -0.021    12.550
ATOM      7  C   UNL d   1      15.002  -3.470   8.662 -0.08 -0.02    -0.025    12.550
ATOM      8  C   UNL d   1      14.734  -2.729   7.527 -0.11 +0.05    +0.066    12.550
ATOM      9  C   UNL d   1      15.492  -2.972   9.987 -0.03 +0.02    +0.051    12.550
ATOM     10  C   UNL d   1      14.650  -0.545   6.357 -0.17 +0.02    +0.066    12.550
ATOM     11  C   UNL d   1      14.654   0.852   6.347 -0.23 -0.00    -0.021    12.550
ATOM     12  C   UNL d   1      14.414   1.233   5.042 -0.35 +0.00    +0.000    12.550
ATOM     13  C   UNL d   1      14.266   0.037   4.318 -0.28 +0.02    +0.070    12.550
ATOM     14  C   UNL d   1      14.811   1.779   7.535 -0.19 +0.01    +0.052    12.550
ATOM     15  C   UNL d   1      13.870  -1.190   2.187 -0.29 +0.01    +0.066    12.550
ATOM     16  C   UNL d   1      13.781  -1.233   0.801 -0.35 -0.00    -0.021    12.550
ATOM     17  C   UNL d   1      13.547  -2.548   0.456 -0.28 -0.00    +0.000    12.550
ATOM     18  C   UNL d   1      13.494  -3.277   1.641 -0.23 -0.00    +0.070    12.550
ATOM     19  C   UNL d   1      13.885  -0.080  -0.162 -0.38 +0.00    +0.052    12.550
ATOM     20  C   UNL d   1      13.264  -5.418   2.913 -0.12 +0.00    +0.066    12.550
ATOM     21  C   UNL d   1      12.834  -6.749   3.003 -0.09 +0.00    -0.025    12.550
ATOM     22  C   UNL d   1      13.041  -7.126   4.313 -0.08 -0.00    -0.021    12.550
ATOM     23  C   UNL d   1      13.580  -6.013   4.970 -0.08 +0.03    +0.066    12.550
ATOM     24  C   UNL d   1      12.253  -7.628   1.919 -0.13 -0.02    +0.051    12.550
ATOM     25  N   UNL d   1      14.337  -3.534   6.521 -0.06 -0.21    -0.248    12.550
ATOM     26  N   UNL d   1      14.401  -1.047   5.121 -0.14 -0.08    -0.248    12.550
ATOM     27  N   UNL d   1      13.737  -2.451   2.703 -0.17 -0.04    -0.248    12.550
ATOM     28  N   UNL d   1      13.673  -4.961   4.122 -0.09 -0.08    -0.248    12.550
ATOM     29 FE   UNL d   1      14.036  -3.005   4.620 -0.05 +0.00    +0.000    12.550
ATOM     30  C   UNL d   1      14.914  -5.954   9.233 -0.05 +0.03    +0.052    12.550
ATOM     31  C   UNL d   1      13.760  -6.043  10.225 -0.05 +0.09    +0.115    12.550
ATOM     32  C   UNL d   1      12.752  -7.061   9.769 -0.06 +0.13    +0.139    12.550
ATOM     33  O   UNL d   1      13.065  -8.238   9.650 +0.00 -0.32    -0.650    12.550
ATOM     34  O   UNL d   1      11.493  -6.686   9.487 -0.37 -1.28    -0.776    12.550
ATOM     35  H   UNL d   1      11.000  -7.167   8.808 +0.02 +0.23    +0.167    12.550
ATOM     36  C   UNL d   1      12.693  -8.464   4.910 -0.06 +0.01    +0.052    12.550
ATOM     37  C   UNL d   1      11.213  -8.501   5.260 -0.13 +0.03    +0.115    12.550
ATOM     38  C   UNL d   1      10.972  -7.953   6.638 -0.16 +0.08    +0.139    12.550
ATOM     39  O   UNL d   1      10.890  -6.749   6.827 +0.00 -0.87    -0.650    12.550
ATOM     40  O   UNL d   1      10.847  -8.793   7.681 +0.03 -0.36    -0.776    12.550
ATOM     41  H   UNL d   1      11.337  -8.609   8.495 +0.04 +0.09    +0.167    12.550
ATOM     42  C   UNL d   1      14.321   2.648   4.567 -0.32 +0.00    +0.004    12.550
ATOM     43  C   UNL d   1      15.385   3.460   4.608 -0.27 +0.00    +0.012    12.550
ATOM     44  C   UNL d   1      13.403  -3.075  -0.920 -0.01 -0.00    +0.004    12.550
ATOM     45  C   UNL d   1      14.272  -3.967  -1.406 -0.18 -0.00    +0.012    12.550
TER
ENDMDL
MODEL       51
USER    Run = 51
USER    Cluster Rank = 26
USER    Number of conformations in this cluster = 2
USER  
USER    RMSD from reference structure       = 15.163 A
USER  
USER    Estimated Free Energy of Binding    =   -5.64 kcal/mol  [=(1)+(2)+(3)-(4)]
USER    Estimated Inhibition Constant, Ki   =   73.78 uM (micromolar)  [Temperature = 298.15 K]
USER    
USER    (1) Final Intermolecular Energy     =   -8.62 kcal/mol
USER        vdW + Hbond + desolv Energy     =   -7.86 kcal/mol
USER        Electrostatic Energy            =   -0.76 kcal/mol
USER    (2) Final Total Internal Energy     =   -0.86 kcal/mol
USER    (3) Torsional Free Energy           =   +2.98 kcal/mol
USER    (4) Unbound System's Energy  [=(2)] =   -0.86 kcal/mol
USER    
USER    
USER  
USER    DPF = D:/Protein_go_brrr/autodock/final/mut_N102T/heme_Fe/dock.dpf
USER    NEWDPF move	heme_Fe_opt.pdbqt
USER    NEWDPF about	-0.174000 -0.001000 -0.047000
USER    NEWDPF tran0	-11.280814 4.573469 13.209430
USER    NEWDPF axisangle0	0.096923 -0.981372 0.165874 99.365411
USER    NEWDPF quaternion0	0.073901 -0.748270 0.126475 0.647020
USER    NEWDPF dihe0	-72.04 87.43 174.93 -155.41 -89.83 104.53 116.60 124.54 -151.80 18.16 
USER  
USER                              x       y       z    vdW   Elec        q     RMS 
ATOM      1  C   UNL d   1     -10.458   5.010  15.038 -0.05 +0.01    +0.064    15.163
ATOM      2  C   UNL d   1     -11.380   0.845  12.543 -0.23 -0.00    +0.064    15.163
ATOM      3  C   UNL d   1     -12.018   3.453   8.560 -0.26 -0.00    +0.064    15.163
ATOM      4  C   UNL d   1     -11.232   7.505  10.979 -0.24 -0.00    +0.064    15.163
ATOM      5  C   UNL d   1     -10.741   3.603  14.723 -0.04 +0.01    +0.066    15.163
ATOM      6  C   UNL d   1     -10.764   2.575  15.650 -0.14 -0.00    -0.021    15.163
ATOM      7  C   UNL d   1     -11.017   1.418  14.956 -0.17 -0.01    -0.025    15.163
ATOM      8  C   UNL d   1     -11.138   1.785  13.630 -0.21 +0.01    +0.066    15.163
ATOM      9  C   UNL d   1     -11.151   0.046  15.544 -0.13 +0.02    +0.051    15.163
ATOM     10  C   UNL d   1     -11.559   1.179  11.263 -0.23 -0.01    +0.066    15.163
ATOM     11  C   UNL d   1     -11.675   0.248  10.228 -0.25 +0.00    -0.021    15.163
ATOM     12  C   UNL d   1     -11.843   0.976   9.067 -0.26 -0.00    +0.000    15.163
ATOM     13  C   UNL d   1     -11.812   2.326   9.456 -0.17 -0.01    +0.070    15.163
ATOM     14  C   UNL d   1     -11.562  -1.259  10.331 -0.25 -0.02    +0.052    15.163
ATOM     15  C   UNL d   1     -11.938   4.755   8.921 -0.22 -0.00    +0.066    15.163
ATOM     16  C   UNL d   1     -12.240   5.802   8.059 -0.20 +0.00    -0.021    15.163
ATOM     17  C   UNL d   1     -12.010   6.971   8.753 -0.20 -0.00    +0.000    15.163
ATOM     18  C   UNL d   1     -11.569   6.611  10.024 -0.21 -0.00    +0.070    15.163
ATOM     19  C   UNL d   1     -12.701   5.709   6.629 -0.16 -0.00    +0.052    15.163
ATOM     20  C   UNL d   1     -10.823   7.163  12.346 -0.25 +0.00    +0.066    15.163
ATOM     21  C   UNL d   1     -10.282   8.061  13.278 -0.25 -0.00    -0.025    15.163
ATOM     22  C   UNL d   1     -10.081   7.331  14.432 -0.22 -0.00    -0.021    15.163
ATOM     23  C   UNL d   1     -10.499   6.023  14.158 -0.13 +0.01    +0.066    15.163
ATOM     24  C   UNL d   1      -9.964   9.527  13.100 -0.19 +0.00    +0.051    15.163
ATOM     25  N   UNL d   1     -10.979   3.117  13.492 -0.06 -0.03    -0.248    15.163
ATOM     26  N   UNL d   1     -11.630   2.451  10.794 -0.16 +0.03    -0.248    15.163
ATOM     27  N   UNL d   1     -11.566   5.249  10.143 -0.06 +0.00    -0.248    15.163
ATOM     28  N   UNL d   1     -10.908   5.917  12.870 -0.15 -0.02    -0.248    15.163
ATOM     29 FE   UNL d   1     -11.269   4.186  11.832 -0.07 +0.00    +0.000    15.163
ATOM     30  C   UNL d   1     -10.578   2.686  17.125 -0.09 +0.01    +0.052    15.163
ATOM     31  C   UNL d   1      -9.186   3.215  17.455 -0.12 +0.02    +0.115    15.163
ATOM     32  C   UNL d   1      -8.132   2.252  16.985 -0.25 +0.07    +0.139    15.163
ATOM     33  O   UNL d   1      -7.729   1.361  17.721 -0.49 -0.49    -0.650    15.163
ATOM     34  O   UNL d   1      -7.619   2.363  15.748 -0.02 -0.42    -0.776    15.163
ATOM     35  H   UNL d   1      -6.714   2.687  15.642 -0.45 +0.05    +0.167    15.163
ATOM     36  C   UNL d   1      -9.476   7.853  15.708 -0.16 +0.00    +0.052    15.163
ATOM     37  C   UNL d   1     -10.513   7.818  16.820 -0.04 -0.00    +0.115    15.163
ATOM     38  C   UNL d   1     -11.741   8.593  16.436 -0.02 -0.00    +0.139    15.163
ATOM     39  O   UNL d   1     -12.766   8.017  16.103 +0.01 +0.01    -0.650    15.163
ATOM     40  O   UNL d   1     -11.719   9.938  16.452 +0.02 +0.02    -0.776    15.163
ATOM     41  H   UNL d   1     -12.006  10.403  17.250 +0.00 -0.01    +0.167    15.163
ATOM     42  C   UNL d   1     -11.999   0.385   7.702 -0.30 -0.00    +0.004    15.163
ATOM     43  C   UNL d   1     -11.360   0.908   6.647 -0.37 -0.00    +0.012    15.163
ATOM     44  C   UNL d   1     -12.220   8.344   8.240 -0.17 -0.00    +0.004    15.163
ATOM     45  C   UNL d   1     -11.187   9.085   7.824 -0.25 -0.00    +0.012    15.163
TER
ENDMDL
MODEL       29
USER    Run = 29
USER    Cluster Rank = 27
USER    Number of conformations in this cluster = 3
USER  
USER    RMSD from reference structure       = 15.506 A
USER  
USER    Estimated Free Energy of Binding    =   -5.56 kcal/mol  [=(1)+(2)+(3)-(4)]
USER    Estimated Inhibition Constant, Ki   =   84.29 uM (micromolar)  [Temperature = 298.15 K]
USER    
USER    (1) Final Intermolecular Energy     =   -8.54 kcal/mol
USER        vdW + Hbond + desolv Energy     =   -8.00 kcal/mol
USER        Electrostatic Energy            =   -0.54 kcal/mol
USER    (2) Final Total Internal Energy     =   -1.51 kcal/mol
USER    (3) Torsional Free Energy           =   +2.98 kcal/mol
USER    (4) Unbound System's Energy  [=(2)] =   -1.51 kcal/mol
USER    
USER    
USER  
USER    DPF = D:/Protein_go_brrr/autodock/final/mut_N102T/heme_Fe/dock.dpf
USER    NEWDPF move	heme_Fe_opt.pdbqt
USER    NEWDPF about	-0.174000 -0.001000 -0.047000
USER    NEWDPF tran0	-4.373016 11.959895 -11.032689
USER    NEWDPF axisangle0	0.094147 0.876604 0.471914 120.378734
USER    NEWDPF quaternion0	0.081688 0.760605 0.409467 0.497135
USER    NEWDPF dihe0	120.48 96.86 40.94 -7.08 33.28 -36.99 45.34 24.08 -136.62 148.26 
USER  
USER                              x       y       z    vdW   Elec        q     RMS 
ATOM      1  C   UNL d   1      -3.796  12.856 -12.786 -0.27 -0.01    +0.064    15.506
ATOM      2  C   UNL d   1      -7.227   9.521 -11.548 -0.18 -0.01    +0.064    15.506
ATOM      3  C   UNL d   1      -6.630  10.721  -6.936 -0.19 +0.00    +0.064    15.506
ATOM      4  C   UNL d   1      -3.231  13.879  -8.102 -0.15 +0.00    +0.064    15.506
ATOM      5  C   UNL d   1      -4.757  11.747 -12.858 -0.27 -0.01    +0.066    15.506
ATOM      6  C   UNL d   1      -5.095  11.068 -14.016 -0.31 +0.00    -0.021    15.506
ATOM      7  C   UNL d   1      -6.051  10.144 -13.672 -0.27 +0.01    -0.025    15.506
ATOM      8  C   UNL d   1      -6.259  10.296 -12.315 -0.20 -0.01    +0.066    15.506
ATOM      9  C   UNL d   1      -6.706   9.164 -14.597 -0.39 -0.01    +0.051    15.506
ATOM     10  C   UNL d   1      -7.407   9.607 -10.229 -0.16 -0.01    +0.066    15.506
ATOM     11  C   UNL d   1      -8.420   8.936  -9.539 -0.14 +0.00    -0.021    15.506
ATOM     12  C   UNL d   1      -8.280   9.279  -8.209 -0.13 -0.00    +0.000    15.506
ATOM     13  C   UNL d   1      -7.183  10.156  -8.157 -0.13 -0.00    +0.070    15.506
ATOM     14  C   UNL d   1      -9.511   8.065 -10.128 -0.00 +0.00    +0.052    15.506
ATOM     15  C   UNL d   1      -5.607  11.606  -6.885 -0.21 -0.00    +0.066    15.506
ATOM     16  C   UNL d   1      -5.042  12.046  -5.694 -0.23 -0.00    -0.021    15.506
ATOM     17  C   UNL d   1      -4.064  12.959  -6.028 -0.29 +0.00    +0.000    15.506
ATOM     18  C   UNL d   1      -4.058  13.059  -7.417 -0.28 -0.00    +0.070    15.506
ATOM     19  C   UNL d   1      -5.422  11.643  -4.294 -0.19 +0.01    +0.052    15.506
ATOM     20  C   UNL d   1      -3.154  13.966  -9.566 -0.25 -0.01    +0.066    15.506
ATOM     21  C   UNL d   1      -2.452  14.945 -10.283 -0.29 +0.00    -0.025    15.506
ATOM     22  C   UNL d   1      -2.616  14.627 -11.615 -0.24 +0.00    -0.021    15.506
ATOM     23  C   UNL d   1      -3.412  13.476 -11.659 -0.22 -0.01    +0.066    15.506
ATOM     24  C   UNL d   1      -1.670  16.124  -9.752 -0.26 -0.00    +0.051    15.506
ATOM     25  N   UNL d   1      -5.464  11.265 -11.821 -0.11 +0.03    -0.248    15.506
ATOM     26  N   UNL d   1      -6.656  10.364  -9.388 -0.08 +0.01    -0.248    15.506
ATOM     27  N   UNL d   1      -4.976  12.196  -7.947 -0.16 +0.01    -0.248    15.506
ATOM     28  N   UNL d   1      -3.774  13.104 -10.407 -0.17 +0.03    -0.248    15.506
ATOM     29 FE   UNL d   1      -5.214  11.735  -9.897 -0.05 -0.00    +0.000    15.506
ATOM     30  C   UNL d   1      -4.525  11.269 -15.379 -0.35 -0.01    +0.052    15.506
ATOM     31  C   UNL d   1      -4.483  12.751 -15.733 -0.27 -0.00    +0.115    15.506
ATOM     32  C   UNL d   1      -4.993  12.974 -17.130 -0.22 +0.01    +0.139    15.506
ATOM     33  O   UNL d   1      -5.877  12.265 -17.590 +0.03 -0.04    -0.650    15.506
ATOM     34  O   UNL d   1      -4.480  13.957 -17.887 +0.01 -0.22    -0.776    15.506
ATOM     35  H   UNL d   1      -4.540  14.871 -17.574 +0.03 +0.06    +0.167    15.506
ATOM     36  C   UNL d   1      -2.078  15.415 -12.781 -0.02 +0.00    +0.052    15.506
ATOM     37  C   UNL d   1      -3.232  15.992 -13.587 -0.12 +0.01    +0.115    15.506
ATOM     38  C   UNL d   1      -2.810  16.280 -15.000 -0.18 +0.03    +0.139    15.506
ATOM     39  O   UNL d   1      -1.691  16.706 -15.244 -0.06 -0.21    -0.650    15.506
ATOM     40  O   UNL d   1      -3.671  16.073 -16.013 -0.02 -0.26    -0.776    15.506
ATOM     41  H   UNL d   1      -3.759  15.183 -16.381 +0.03 +0.05    +0.167    15.506
ATOM     42  C   UNL d   1      -9.163   8.795  -7.103 -0.11 -0.00    +0.004    15.506
ATOM     43  C   UNL d   1      -8.890   7.658  -6.450 -0.16 -0.00    +0.012    15.506
ATOM     44  C   UNL d   1      -3.179  13.674  -5.080 -0.31 +0.00    +0.004    15.506
ATOM     45  C   UNL d   1      -2.559  13.018  -4.095 -0.41 +0.00    +0.012    15.506
TER
ENDMDL
MODEL       48
USER    Run = 48
USER    Cluster Rank = 28
USER    Number of conformations in this cluster = 1
USER  
USER    RMSD from reference structure       = 13.075 A
USER  
USER    Estimated Free Energy of Binding    =   -4.91 kcal/mol  [=(1)+(2)+(3)-(4)]
USER    Estimated Inhibition Constant, Ki   =  250.37 uM (micromolar)  [Temperature = 298.15 K]
USER    
USER    (1) Final Intermolecular Energy     =   -7.90 kcal/mol
USER        vdW + Hbond + desolv Energy     =   -7.44 kcal/mol
USER        Electrostatic Energy            =   -0.46 kcal/mol
USER    (2) Final Total Internal Energy     =   -2.26 kcal/mol
USER    (3) Torsional Free Energy           =   +2.98 kcal/mol
USER    (4) Unbound System's Energy  [=(2)] =   -2.26 kcal/mol
USER    
USER    
USER  
USER    DPF = D:/Protein_go_brrr/autodock/final/mut_N102T/heme_Fe/dock.dpf
USER    NEWDPF move	heme_Fe_opt.pdbqt
USER    NEWDPF about	-0.174000 -0.001000 -0.047000
USER    NEWDPF tran0	-11.216064 4.596648 9.172962
USER    NEWDPF axisangle0	0.066350 -0.976708 -0.204059 -93.787274
USER    NEWDPF quaternion0	0.048441 -0.713081 -0.148981 -0.683355
USER    NEWDPF dihe0	175.19 -15.79 65.33 14.36 81.80 140.84 -8.10 74.26 173.81 156.36 
USER  
USER                              x       y       z    vdW   Elec        q     RMS 
ATOM      1  C   UNL d   1     -11.629   5.159   7.243 -0.13 +0.00    +0.064    13.075
ATOM      2  C   UNL d   1     -12.108   0.973   9.827 -0.20 -0.01    +0.064    13.075
ATOM      3  C   UNL d   1     -11.469   3.479  13.874 -0.17 +0.01    +0.064    13.075
ATOM      4  C   UNL d   1     -10.897   7.525  11.386 -0.28 +0.00    +0.064    13.075
ATOM      5  C   UNL d   1     -11.740   3.735   7.590 -0.27 -0.00    +0.066    13.075
ATOM      6  C   UNL d   1     -11.824   2.702   6.671 -0.30 +0.00    -0.021    13.075
ATOM      7  C   UNL d   1     -11.961   1.540   7.390 -0.28 +0.01    -0.025    13.075
ATOM      8  C   UNL d   1     -11.954   1.909   8.721 -0.23 -0.01    +0.066    13.075
ATOM      9  C   UNL d   1     -12.071   0.158   6.821 -0.21 -0.02    +0.051    13.075
ATOM     10  C   UNL d   1     -12.048   1.295  11.120 -0.20 -0.01    +0.066    13.075
ATOM     11  C   UNL d   1     -12.313   0.396  12.156 -0.13 +0.00    -0.021    13.075
ATOM     12  C   UNL d   1     -12.152   1.098  13.333 -0.13 +0.00    +0.000    13.075
ATOM     13  C   UNL d   1     -11.802   2.405  12.951 -0.18 +0.00    +0.070    13.075
ATOM     14  C   UNL d   1     -12.765  -1.045  12.029 -0.07 -0.01    +0.052    13.075
ATOM     15  C   UNL d   1     -11.182   4.751  13.512 -0.12 +0.01    +0.066    13.075
ATOM     16  C   UNL d   1     -10.772   5.723  14.416 -0.16 -0.00    -0.021    13.075
ATOM     17  C   UNL d   1     -10.610   6.892  13.702 -0.23 +0.00    +0.000    13.075
ATOM     18  C   UNL d   1     -10.929   6.606  12.376 -0.23 +0.00    +0.070    13.075
ATOM     19  C   UNL d   1     -10.564   5.568  15.899 -0.12 +0.00    +0.052    13.075
ATOM     20  C   UNL d   1     -11.167   7.247   9.970 -0.27 -0.00    +0.066    13.075
ATOM     21  C   UNL d   1     -11.333   8.217   8.972 -0.24 +0.00    -0.025    13.075
ATOM     22  C   UNL d   1     -11.528   7.520   7.797 -0.25 +0.00    -0.021    13.075
ATOM     23  C   UNL d   1     -11.480   6.160   8.124 -0.24 -0.00    +0.066    13.075
ATOM     24  C   UNL d   1     -11.316   9.722   9.107 -0.19 -0.01    +0.051    13.075
ATOM     25  N   UNL d   1     -11.810   3.244   8.839 -0.16 +0.01    -0.248    13.075
ATOM     26  N   UNL d   1     -11.747   2.528  11.602 -0.16 +0.02    -0.248    13.075
ATOM     27  N   UNL d   1     -11.239   5.281  12.251 -0.05 -0.01    -0.248    13.075
ATOM     28  N   UNL d   1     -11.304   6.000   9.459 -0.19 +0.00    -0.248    13.075
ATOM     29 FE   UNL d   1     -11.525   4.266  10.531 -0.07 -0.00    +0.000    13.075
ATOM     30  C   UNL d   1     -11.756   2.808   5.186 -0.28 -0.00    +0.052    13.075
ATOM     31  C   UNL d   1     -13.156   2.835   4.582 -0.14 -0.00    +0.115    13.075
ATOM     32  C   UNL d   1     -13.089   3.138   3.111 -0.13 +0.02    +0.139    13.075
ATOM     33  O   UNL d   1     -12.841   2.254   2.303 -0.43 -0.34    -0.650    13.075
ATOM     34  O   UNL d   1     -13.301   4.389   2.669 +0.04 -0.10    -0.776    13.075
ATOM     35  H   UNL d   1     -13.566   5.072   3.302 +0.03 +0.01    +0.167    13.075
ATOM     36  C   UNL d   1     -11.794   8.131   6.447 -0.23 -0.00    +0.052    13.075
ATOM     37  C   UNL d   1     -13.255   7.927   6.070 -0.08 -0.00    +0.115    13.075
ATOM     38  C   UNL d   1     -13.395   6.880   5.002 -0.09 +0.00    +0.139    13.075
ATOM     39  O   UNL d   1     -14.315   6.076   5.032 +0.02 +0.00    -0.650    13.075
ATOM     40  O   UNL d   1     -12.498   6.817   4.002 -0.01 -0.05    -0.776    13.075
ATOM     41  H   UNL d   1     -12.453   6.017   3.460 +0.03 +0.02    +0.167    13.075
ATOM     42  C   UNL d   1     -12.347   0.530  14.703 -0.08 +0.00    +0.004    13.075
ATOM     43  C   UNL d   1     -11.314   0.388  15.544 -0.13 +0.00    +0.012    13.075
ATOM     44  C   UNL d   1     -10.159   8.192  14.247 -0.22 +0.00    +0.004    13.075
ATOM     45  C   UNL d   1      -8.905   8.353  14.685 -0.27 +0.00    +0.012    13.075
TER
ENDMDL
MODEL       45
USER    Run = 45
USER    Cluster Rank = 29
USER    Number of conformations in this cluster = 1
USER  
USER    RMSD from reference structure       = 16.144 A
USER  
USER    Estimated Free Energy of Binding    =   -4.91 kcal/mol  [=(1)+(2)+(3)-(4)]
USER    Estimated Inhibition Constant, Ki   =  251.57 uM (micromolar)  [Temperature = 298.15 K]
USER    
USER    (1) Final Intermolecular Energy     =   -7.89 kcal/mol
USER        vdW + Hbond + desolv Energy     =   -6.63 kcal/mol
USER        Electrostatic Energy            =   -1.26 kcal/mol
USER    (2) Final Total Internal Energy     =   -2.44 kcal/mol
USER    (3) Torsional Free Energy           =   +2.98 kcal/mol
USER    (4) Unbound System's Energy  [=(2)] =   -2.44 kcal/mol
USER    
USER    
USER  
USER    DPF = D:/Protein_go_brrr/autodock/final/mut_N102T/heme_Fe/dock.dpf
USER    NEWDPF move	heme_Fe_opt.pdbqt
USER    NEWDPF about	-0.174000 -0.001000 -0.047000
USER    NEWDPF tran0	15.565959 3.906574 7.268193
USER    NEWDPF axisangle0	0.170654 0.976312 0.133013 120.385753
USER    NEWDPF quaternion0	0.148077 0.847149 0.115416 0.497082
USER    NEWDPF dihe0	-18.92 -74.14 70.82 48.24 -139.05 57.65 56.90 -44.94 -21.85 -18.78 
USER  
USER                              x       y       z    vdW   Elec        q     RMS 
ATOM      1  C   UNL d   1      16.030   3.764   5.274 -0.20 +0.02    +0.064    16.144
ATOM      2  C   UNL d   1      13.284   1.104   8.407 -0.25 +0.02    +0.064    16.144
ATOM      3  C   UNL d   1      13.423   4.758  11.522 -0.25 +0.02    +0.064    16.144
ATOM      4  C   UNL d   1      16.169   7.308   8.549 -0.17 +0.01    +0.064    16.144
ATOM      5  C   UNL d   1      15.314   2.645   5.902 -0.19 +0.01    +0.066    16.144
ATOM      6  C   UNL d   1      15.171   1.385   5.343 -0.23 -0.00    -0.021    16.144
ATOM      7  C   UNL d   1      14.405   0.649   6.212 -0.26 -0.01    -0.025    16.144
ATOM      8  C   UNL d   1      14.110   1.487   7.269 -0.22 +0.01    +0.066    16.144
ATOM      9  C   UNL d   1      14.001  -0.783   6.037 -0.15 +0.02    +0.051    16.144
ATOM     10  C   UNL d   1      13.031   1.875   9.467 -0.23 +0.02    +0.066    16.144
ATOM     11  C   UNL d   1      12.144   1.523  10.487 -0.27 -0.01    -0.021    16.144
ATOM     12  C   UNL d   1      12.153   2.568  11.389 -0.32 +0.00    +0.000    16.144
ATOM     13  C   UNL d   1      13.049   3.516  10.864 -0.28 +0.02    +0.070    16.144
ATOM     14  C   UNL d   1      11.277   0.283  10.563 -0.28 +0.02    +0.052    16.144
ATOM     15  C   UNL d   1      14.244   5.697  10.997 -0.29 +0.02    +0.066    16.144
ATOM     16  C   UNL d   1      14.656   6.823  11.698 -0.30 -0.01    -0.021    16.144
ATOM     17  C   UNL d   1      15.445   7.562  10.842 -0.24 +0.00    +0.000    16.144
ATOM     18  C   UNL d   1      15.493   6.870   9.634 -0.21 +0.01    +0.070    16.144
ATOM     19  C   UNL d   1      14.302   7.205  13.111 -0.16 +0.02    +0.052    16.144
ATOM     20  C   UNL d   1      16.292   6.578   7.282 -0.11 +0.01    +0.066    16.144
ATOM     21  C   UNL d   1      16.815   7.103   6.092 -0.08 -0.00    -0.025    16.144
ATOM     22  C   UNL d   1      16.778   6.072   5.175 -0.10 -0.00    -0.021    16.144
ATOM     23  C   UNL d   1      16.231   4.966   5.837 -0.12 +0.01    +0.066    16.144
ATOM     24  C   UNL d   1      17.322   8.500   5.820 -0.04 +0.00    +0.051    16.144
ATOM     25  N   UNL d   1      14.672   2.698   7.082 +0.04 -0.05    -0.248    16.144
ATOM     26  N   UNL d   1      13.578   3.098   9.688 +0.00 -0.06    -0.248    16.144
ATOM     27  N   UNL d   1      14.791   5.702   9.742 -0.05 -0.04    -0.248    16.144
ATOM     28  N   UNL d   1      15.895   5.294   7.109 +0.06 -0.04    -0.248    16.144
ATOM     29 FE   UNL d   1      14.737   4.198   8.398 -0.03 +0.00    +0.000    16.144
ATOM     30  C   UNL d   1      15.749   0.898   4.059 -0.20 +0.01    +0.052    16.144
ATOM     31  C   UNL d   1      17.268   0.805   4.151 -0.08 +0.03    +0.115    16.144
ATOM     32  C   UNL d   1      17.912   1.635   3.075 -0.09 +0.06    +0.139    16.144
ATOM     33  O   UNL d   1      18.890   1.221   2.470 -0.00 -0.21    -0.650    16.144
ATOM     34  O   UNL d   1      17.415   2.846   2.769 +0.02 -0.70    -0.776    16.144
ATOM     35  H   UNL d   1      17.974   3.476   2.293 +0.01 +0.22    +0.167    16.144
ATOM     36  C   UNL d   1      17.199   6.162   3.732 -0.13 +0.02    +0.052    16.144
ATOM     37  C   UNL d   1      18.716   6.105   3.636 -0.05 +0.03    +0.115    16.144
ATOM     38  C   UNL d   1      19.152   5.158   2.553 -0.06 +0.07    +0.139    16.144
ATOM     39  O   UNL d   1      18.782   5.317   1.399 -0.21 -0.63    -0.650    16.144
ATOM     40  O   UNL d   1      19.954   4.121   2.851 +0.01 -0.26    -0.776    16.144
ATOM     41  H   UNL d   1      19.579   3.230   2.880 +0.01 +0.06    +0.167    16.144
ATOM     42  C   UNL d   1      11.336   2.625  12.641 -0.39 +0.00    +0.004    16.144
ATOM     43  C   UNL d   1      11.922   2.700  13.843 -0.30 +0.01    +0.012    16.144
ATOM     44  C   UNL d   1      16.126   8.836  11.164 -0.17 +0.00    +0.004    16.144
ATOM     45  C   UNL d   1      17.435   8.864  11.434 -0.08 +0.00    +0.012    16.144
TER
ENDMDL
MODEL       73
USER    Run = 73
USER    Cluster Rank = 30
USER    Number of conformations in this cluster = 2
USER  
USER    RMSD from reference structure       = 14.155 A
USER  
USER    Estimated Free Energy of Binding    =   -4.72 kcal/mol  [=(1)+(2)+(3)-(4)]
USER    Estimated Inhibition Constant, Ki   =  349.44 uM (micromolar)  [Temperature = 298.15 K]
USER    
USER    (1) Final Intermolecular Energy     =   -7.70 kcal/mol
USER        vdW + Hbond + desolv Energy     =   -7.66 kcal/mol
USER        Electrostatic Energy            =   -0.04 kcal/mol
USER    (2) Final Total Internal Energy     =   -2.20 kcal/mol
USER    (3) Torsional Free Energy           =   +2.98 kcal/mol
USER    (4) Unbound System's Energy  [=(2)] =   -2.20 kcal/mol
USER    
USER    
USER  
USER    DPF = D:/Protein_go_brrr/autodock/final/mut_N102T/heme_Fe/dock.dpf
USER    NEWDPF move	heme_Fe_opt.pdbqt
USER    NEWDPF about	-0.174000 -0.001000 -0.047000
USER    NEWDPF tran0	-11.644291 5.084869 11.301018
USER    NEWDPF axisangle0	-0.496442 0.730212 -0.469400 -109.558677
USER    NEWDPF quaternion0	-0.405562 0.596537 -0.383470 -0.576727
USER    NEWDPF dihe0	-127.52 62.75 160.26 -126.79 172.11 -122.56 -82.85 -70.43 156.33 19.79 
USER  
USER                              x       y       z    vdW   Elec        q     RMS 
ATOM      1  C   UNL d   1     -11.099   6.903  12.081 -0.25 +0.00    +0.064    14.155
ATOM      2  C   UNL d   1     -11.176   2.265  13.788 -0.19 +0.01    +0.064    14.155
ATOM      3  C   UNL d   1     -11.696   0.688   9.282 -0.28 -0.01    +0.064    14.155
ATOM      4  C   UNL d   1     -11.730   5.173   7.619 -0.24 +0.00    +0.064    14.155
ATOM      5  C   UNL d   1     -11.156   5.748  12.988 -0.18 +0.00    +0.066    14.155
ATOM      6  C   UNL d   1     -11.149   5.827  14.371 -0.16 -0.00    -0.021    14.155
ATOM      7  C   UNL d   1     -11.166   4.539  14.844 -0.14 -0.00    -0.025    14.155
ATOM      8  C   UNL d   1     -11.184   3.722  13.730 -0.11 +0.01    +0.066    14.155
ATOM      9  C   UNL d   1     -11.184   4.128  16.284 -0.08 +0.00    +0.051    14.155
ATOM     10  C   UNL d   1     -11.250   1.454  12.732 -0.23 +0.00    +0.066    14.155
ATOM     11  C   UNL d   1     -11.125   0.065  12.811 -0.26 +0.00    -0.021    14.155
ATOM     12  C   UNL d   1     -11.254  -0.413  11.522 -0.27 -0.00    +0.000    14.155
ATOM     13  C   UNL d   1     -11.446   0.722  10.714 -0.23 -0.01    +0.070    14.155
ATOM     14  C   UNL d   1     -10.827  -0.762  14.045 -0.22 +0.01    +0.052    14.155
ATOM     15  C   UNL d   1     -11.830   1.779   8.492 -0.25 -0.01    +0.066    14.155
ATOM     16  C   UNL d   1     -12.167   1.705   7.146 -0.25 +0.00    -0.021    14.155
ATOM     17  C   UNL d   1     -12.174   2.997   6.664 -0.25 -0.00    +0.000    14.155
ATOM     18  C   UNL d   1     -11.836   3.831   7.727 -0.26 -0.00    +0.070    14.155
ATOM     19  C   UNL d   1     -12.447   0.467   6.337 -0.24 -0.02    +0.052    14.155
ATOM     20  C   UNL d   1     -11.437   6.087   8.729 -0.28 -0.00    +0.066    14.155
ATOM     21  C   UNL d   1     -11.128   7.449   8.598 -0.32 +0.00    -0.025    14.155
ATOM     22  C   UNL d   1     -10.965   7.924   9.882 -0.29 +0.00    -0.021    14.155
ATOM     23  C   UNL d   1     -11.173   6.839  10.742 -0.25 +0.00    +0.066    14.155
ATOM     24  C   UNL d   1     -10.988   8.266   7.335 -0.21 -0.01    +0.051    14.155
ATOM     25  N   UNL d   1     -11.188   4.460  12.603 -0.00 -0.02    -0.248    14.155
ATOM     26  N   UNL d   1     -11.435   1.860  11.450 -0.18 +0.02    -0.248    14.155
ATOM     27  N   UNL d   1     -11.667   3.087   8.862 -0.16 +0.02    -0.248    14.155
ATOM     28  N   UNL d   1     -11.416   5.712  10.031 -0.12 +0.00    -0.248    14.155
ATOM     29 FE   UNL d   1     -11.426   3.787  10.739 -0.07 -0.00    +0.000    14.155
ATOM     30  C   UNL d   1     -11.147   7.064  15.203 -0.09 +0.00    +0.052    14.155
ATOM     31  C   UNL d   1      -9.845   7.185  15.987 -0.12 +0.00    +0.115    14.155
ATOM     32  C   UNL d   1      -8.881   8.089  15.270 -0.21 +0.00    +0.139    14.155
ATOM     33  O   UNL d   1      -7.835   8.433  15.803 -0.04 +0.01    -0.650    14.155
ATOM     34  O   UNL d   1      -9.162   8.529  14.032 -0.02 -0.05    -0.776    14.155
ATOM     35  H   UNL d   1     -10.013   8.958  13.868 +0.04 +0.00    +0.167    14.155
ATOM     36  C   UNL d   1     -10.582   9.332  10.257 -0.22 -0.00    +0.052    14.155
ATOM     37  C   UNL d   1     -11.709   9.977  11.050 -0.09 -0.00    +0.115    14.155
ATOM     38  C   UNL d   1     -11.328  10.137  12.494 -0.08 -0.00    +0.139    14.155
ATOM     39  O   UNL d   1     -12.007   9.638  13.379 +0.02 +0.01    -0.650    14.155
ATOM     40  O   UNL d   1     -10.230  10.840  12.825 +0.01 +0.01    -0.776    14.155
ATOM     41  H   UNL d   1      -9.503  10.391  13.279 +0.03 +0.00    +0.167    14.155
ATOM     42  C   UNL d   1     -11.175  -1.854  11.131 -0.24 -0.00    +0.004    14.155
ATOM     43  C   UNL d   1     -10.758  -2.216   9.911 -0.27 -0.01    +0.012    14.155
ATOM     44  C   UNL d   1     -12.503   3.409   5.280 -0.23 -0.00    +0.004    14.155
ATOM     45  C   UNL d   1     -11.650   3.180   4.277 -0.19 +0.00    +0.012    14.155
TER
ENDMDL


AVSFLD: # AVS field file
AVSFLD: #
AVSFLD: # Created by AutoDock
AVSFLD: #
AVSFLD: ndim=2           # number of dimensions in the field
AVSFLD: nspace=1         # number of physical coordinates
AVSFLD: veclen=7         # vector size
AVSFLD: dim1=45          # atoms
AVSFLD: dim2=30          # conformations
AVSFLD: data=Real       # data type (byte,integer,Real,double)
AVSFLD: field=uniform    # field coordinate layout
AVSFLD: label= x y z vdW Elec q RMS
AVSFLD: variable 1 file = D:/Protein_go_brrr/autodock/final/mut_N102T/heme_Fe/dock.dlg.pdb filetype = ascii offset = 5 stride = 12
AVSFLD: variable 2 file = D:/Protein_go_brrr/autodock/final/mut_N102T/heme_Fe/dock.dlg.pdb filetype = ascii offset = 6 stride = 12
AVSFLD: variable 3 file = D:/Protein_go_brrr/autodock/final/mut_N102T/heme_Fe/dock.dlg.pdb filetype = ascii offset = 7 stride = 12
AVSFLD: variable 4 file = D:/Protein_go_brrr/autodock/final/mut_N102T/heme_Fe/dock.dlg.pdb filetype = ascii offset = 8 stride = 12
AVSFLD: variable 5 file = D:/Protein_go_brrr/autodock/final/mut_N102T/heme_Fe/dock.dlg.pdb filetype = ascii offset = 9 stride = 12
AVSFLD: variable 6 file = D:/Protein_go_brrr/autodock/final/mut_N102T/heme_Fe/dock.dlg.pdb filetype = ascii offset = 10 stride = 12
AVSFLD: variable 7 file = D:/Protein_go_brrr/autodock/final/mut_N102T/heme_Fe/dock.dlg.pdb filetype = ascii offset = 11 stride = 12
AVSFLD: # end of file

>>> Closing the docking parameter file (DPF)...
This docking finished at:			3:47 56" a.m., 10/05/2025


________________________________________________________________________________

D:/autodockScripts/autodock4.exe: Successful Completion on "ACER"

Real= 9h 19m 56.17s,  CPU= 1m 51.59s,  System= 1m 01.50s
________________________________________________________________________________

