          AutoDock 4.2 Release 4.2.6   
         (C) 1989-2012 The Scripps Research Institute
        AutoDock comes with ABSOLUTELY NO WARRANTY.
        AutoDock is free software, and you are welcome
        to redistribute it under certain conditions;
        for details type 'autodock4 -C'

                     main.cc  $Revision: 1.213 $

                   Compiled on Jul 18 2014 at 15:34:58


This file was created at:			1:19 25" a.m., 09/26/2025
                   on host:		"ACER"
Current Working Directory = "D:\Protein_go_brrr\autodock\final\1A3N\heme"

      ________________________________________________________________

                   SETTING UP DEFAULT PARAMETER LIBRARY
      ________________________________________________________________


Random number generator was seeded with values 12240, 1758842365.
Docking parameter file (DPF) used for this docking:		D:/Protein_go_brrr/autodock/final/1A3N/heme/dock.dpf
DPF> autodock_parameter_version 4.2       # used by autodock to validate parameter set

	Autodock parameter version 4.2.
DPF> outlev 1                             # diagnostic output level

Output Level = 1  ADT-COMPATIBLE OUTPUT DURING DOCKING.
DPF> intelec                              # calculate internal electrostatics

Electrostatic energies will be calculated for all non-bonds between moving atoms.
DPF> seed pid time                        # seeds for random generator

Random number generator was seeded with values 12240, 1758842365.
DPF> ligand_types A C NA OA N HD          # atoms types in ligand

DPF> fld opt_1A3N_fin.maps.fld            # grid_data_file

Opening Grid Map Dimensions file:		opt_1A3N_fin.maps.fld
Grid Point Spacing =				0.553 Angstroms

Even Number of User-specified Grid Points =	126 x-points
						126 y-points
						126 z-points

Coordinates of Central Grid Point of Maps =	(14.481, 2.083, 13.105)
Macromolecule file used to create Grid Maps =	opt_1A3N_fin.pdbqt
Grid Parameter file used to create Grid Maps =	D:/Protein_go_brrr/autodock/final/1A3N/heme/grid.gpf
Minimum coordinates in grid = (-20.358, -32.756, -21.734)
Maximum coordinates in grid = (49.320, 36.922, 47.944)

DPF> map opt_1A3N_fin.A.map               # atom-specific affinity map

DPF> map opt_1A3N_fin.C.map               # atom-specific affinity map

DPF> map opt_1A3N_fin.NA.map              # atom-specific affinity map

DPF> map opt_1A3N_fin.OA.map              # atom-specific affinity map

DPF> map opt_1A3N_fin.N.map               # atom-specific affinity map

DPF> map opt_1A3N_fin.HD.map              # atom-specific affinity map

DPF> elecmap opt_1A3N_fin.e.map           # electrostatics map

DPF> desolvmap opt_1A3N_fin.d.map         # desolvation map

DPF> move heme_opt.pdbqt                  # small molecule

1,4-interactions will be _ignored_ in the non-bonded internal energy calculation.

Ligand PDBQT file = "heme_opt.pdbqt"

INPUT LIGAND PDBQT FILE:
________________________

INPUT-LIGAND-PDBQT: REMARK  13 active torsions:
INPUT-LIGAND-PDBQT: REMARK  status: ('A' for Active; 'I' for Inactive)
INPUT-LIGAND-PDBQT: REMARK    1  A    between atoms: O_3  and  C_38 
INPUT-LIGAND-PDBQT: REMARK    2  A    between atoms: O_4  and  C_40 
INPUT-LIGAND-PDBQT: REMARK    3  A    between atoms: O_7  and  C_46 
INPUT-LIGAND-PDBQT: REMARK    4  A    between atoms: O_9  and  C_48 
INPUT-LIGAND-PDBQT: REMARK    5  A    between atoms: C_15  and  C_20 
INPUT-LIGAND-PDBQT: REMARK    6  A    between atoms: C_16  and  C_23 
INPUT-LIGAND-PDBQT: REMARK    7  A    between atoms: C_20  and  C_38 
INPUT-LIGAND-PDBQT: REMARK    8  A    between atoms: C_23  and  C_40 
INPUT-LIGAND-PDBQT: REMARK    9  A    between atoms: C_32  and  C_41 
INPUT-LIGAND-PDBQT: REMARK   10  A    between atoms: C_37  and  C_45 
INPUT-LIGAND-PDBQT: REMARK   11  A    between atoms: C_41  and  C_44 
INPUT-LIGAND-PDBQT: REMARK   12  A    between atoms: C_44  and  C_46 
INPUT-LIGAND-PDBQT: REMARK   13  A    between atoms: C_47  and  C_48 
INPUT-LIGAND-PDBQT: ROOT
INPUT-LIGAND-PDBQT: ATOM      1  O   UNL d   1      -5.458   1.707   0.620  0.00  0.00    -0.289 OA
INPUT-LIGAND-PDBQT: ATOM      2  O   UNL d   1      -2.504  -4.828  -1.607  0.00  0.00    -0.289 OA
INPUT-LIGAND-PDBQT: ATOM      3  N   UNL d   1      -2.063   1.218   0.259  0.00  0.00    -0.247 NA
INPUT-LIGAND-PDBQT: ATOM      4  N   UNL d   1      -1.851  -1.684  -0.343  0.00  0.00    -0.247 NA
INPUT-LIGAND-PDBQT: ATOM      5  N   UNL d   1       0.972  -1.489   0.166  0.00  0.00    -0.354 N 
INPUT-LIGAND-PDBQT: ATOM      6  N   UNL d   1       0.740   1.517   0.808  0.00  0.00    -0.354 N 
INPUT-LIGAND-PDBQT: ATOM      7  C   UNL d   1      -3.467   3.037   1.112  0.00  0.00     0.084 A 
INPUT-LIGAND-PDBQT: ATOM      8  C   UNL d   1      -3.784  -2.753  -1.388  0.00  0.00     0.084 A 
INPUT-LIGAND-PDBQT: ATOM      9  C   UNL d   1      -3.156  -1.511  -0.747  0.00  0.00     0.058 A 
INPUT-LIGAND-PDBQT: ATOM     10  C   UNL d   1      -2.069   2.485   0.818  0.00  0.00     0.058 A 
INPUT-LIGAND-PDBQT: ATOM     11  C   UNL d   1      -4.251   1.865   0.603  0.00  0.00     0.193 A 
INPUT-LIGAND-PDBQT: ATOM     12  C   UNL d   1      -3.288   0.840   0.089  0.00  0.00     0.109 A 
INPUT-LIGAND-PDBQT: ATOM     13  C   UNL d   1      -2.606  -3.674  -1.239  0.00  0.00     0.193 A 
INPUT-LIGAND-PDBQT: ATOM     14  C   UNL d   1      -3.721   3.188   2.614  0.00  0.00     0.026 C 
INPUT-LIGAND-PDBQT: ATOM     15  C   UNL d   1      -3.838  -0.372  -0.551  0.00  0.00     0.055 C 
INPUT-LIGAND-PDBQT: ATOM     16  C   UNL d   1      -4.060  -2.544  -2.880  0.00  0.00     0.026 C 
INPUT-LIGAND-PDBQT: ATOM     17  C   UNL d   1      -1.503  -2.907  -0.585  0.00  0.00     0.109 A 
INPUT-LIGAND-PDBQT: ATOM     18  C   UNL d   1      -0.964   3.229   1.013  0.00  0.00     0.050 C 
INPUT-LIGAND-PDBQT: ATOM     19  C   UNL d   1       0.360   2.835   0.692  0.00  0.00     0.045 A 
INPUT-LIGAND-PDBQT: ATOM     20  C   UNL d   1       0.841  -2.851   0.084  0.00  0.00     0.045 A 
INPUT-LIGAND-PDBQT: ATOM     21  C   UNL d   1      -0.229  -3.570  -0.270  0.00  0.00     0.057 C 
INPUT-LIGAND-PDBQT: ATOM     22  C   UNL d   1       2.967  -2.353   0.755  0.00  0.00    -0.019 A 
INPUT-LIGAND-PDBQT: ATOM     23  C   UNL d   1       2.221  -1.093   0.564  0.00  0.00     0.045 A 
INPUT-LIGAND-PDBQT: ATOM     24  C   UNL d   1       2.145  -3.390   0.468  0.00  0.00    -0.022 A 
INPUT-LIGAND-PDBQT: ATOM     25  C   UNL d   1       2.081   1.375   0.536  0.00  0.00     0.049 A 
INPUT-LIGAND-PDBQT: ATOM     26  C   UNL d   1       1.473   3.562   0.299  0.00  0.00    -0.018 A 
INPUT-LIGAND-PDBQT: ATOM     27  C   UNL d   1       2.552   2.632   0.183  0.00  0.00     0.003 A 
INPUT-LIGAND-PDBQT: ATOM     28  C   UNL d   1       2.739   0.132   0.742  0.00  0.00     0.052 C 
INPUT-LIGAND-PDBQT: ATOM     29  C   UNL d   1       2.440  -4.851   0.501  0.00  0.00     0.046 C 
INPUT-LIGAND-PDBQT: ATOM     30  C   UNL d   1       1.533   5.030   0.044  0.00  0.00     0.046 C 
INPUT-LIGAND-PDBQT: ATOM     31  H   UNL d   1       0.223  -0.870  -0.125  0.00  0.00     0.166 HD
INPUT-LIGAND-PDBQT: ATOM     32  H   UNL d   1       0.112   0.776   1.096  0.00  0.00     0.166 HD
INPUT-LIGAND-PDBQT: ENDROOT
INPUT-LIGAND-PDBQT: BRANCH   7  33
INPUT-LIGAND-PDBQT: ATOM     33  C   UNL d   1      -3.845   4.310   0.347  0.00  0.00     0.141 C 
INPUT-LIGAND-PDBQT: BRANCH  33  34
INPUT-LIGAND-PDBQT: ATOM     34  C   UNL d   1      -3.538   4.215  -1.123  0.00  0.00     0.306 C 
INPUT-LIGAND-PDBQT: ATOM     35  O   UNL d   1      -3.917   3.340  -1.883  0.00  0.00    -0.251 OA
INPUT-LIGAND-PDBQT: BRANCH  34  36
INPUT-LIGAND-PDBQT: ATOM     36  O   UNL d   1      -2.771   5.230  -1.559  0.00  0.00    -0.481 OA
INPUT-LIGAND-PDBQT: ATOM     37  H   UNL d   1      -2.612   5.030  -2.506  0.00  0.00     0.295 HD
INPUT-LIGAND-PDBQT: ENDBRANCH  34  36
INPUT-LIGAND-PDBQT: ENDBRANCH  33  34
INPUT-LIGAND-PDBQT: ENDBRANCH   7  33
INPUT-LIGAND-PDBQT: BRANCH  27  38
INPUT-LIGAND-PDBQT: ATOM     38  C   UNL d   1       3.894   2.967  -0.187  0.00  0.00     0.017 C 
INPUT-LIGAND-PDBQT: ATOM     39  C   UNL d   1       4.701   2.208  -0.944  0.00  0.00     0.092 C 
INPUT-LIGAND-PDBQT: BRANCH  39  40
INPUT-LIGAND-PDBQT: ATOM     40  C   UNL d   1       6.052   2.675  -1.266  0.00  0.00     0.330 C 
INPUT-LIGAND-PDBQT: ATOM     41  O   UNL d   1       6.568   3.731  -0.953  0.00  0.00    -0.246 OA
INPUT-LIGAND-PDBQT: BRANCH  40  42
INPUT-LIGAND-PDBQT: ATOM     42  O   UNL d   1       6.703   1.746  -1.983  0.00  0.00    -0.477 OA
INPUT-LIGAND-PDBQT: ATOM     43  H   UNL d   1       7.581   2.148  -2.146  0.00  0.00     0.295 HD
INPUT-LIGAND-PDBQT: ENDBRANCH  40  42
INPUT-LIGAND-PDBQT: ENDBRANCH  39  40
INPUT-LIGAND-PDBQT: ENDBRANCH  27  38
INPUT-LIGAND-PDBQT: BRANCH   8  44
INPUT-LIGAND-PDBQT: ATOM     44  C   UNL d   1      -5.015  -3.316  -0.670  0.00  0.00     0.141 C 
INPUT-LIGAND-PDBQT: BRANCH  44  45
INPUT-LIGAND-PDBQT: ATOM     45  C   UNL d   1      -4.806  -3.504   0.809  0.00  0.00     0.306 C 
INPUT-LIGAND-PDBQT: ATOM     46  O   UNL d   1      -3.825  -3.985   1.349  0.00  0.00    -0.251 OA
INPUT-LIGAND-PDBQT: BRANCH  45  47
INPUT-LIGAND-PDBQT: ATOM     47  O   UNL d   1      -5.864  -3.098   1.534  0.00  0.00    -0.481 OA
INPUT-LIGAND-PDBQT: ATOM     48  H   UNL d   1      -5.613  -3.283   2.464  0.00  0.00     0.295 HD
INPUT-LIGAND-PDBQT: ENDBRANCH  45  47
INPUT-LIGAND-PDBQT: ENDBRANCH  44  45
INPUT-LIGAND-PDBQT: ENDBRANCH   8  44
INPUT-LIGAND-PDBQT: BRANCH  22  49
INPUT-LIGAND-PDBQT: ATOM     49  C   UNL d   1       4.395  -2.426   1.210  0.00  0.00     0.048 C 
INPUT-LIGAND-PDBQT: BRANCH  49  50
INPUT-LIGAND-PDBQT: ATOM     50  C   UNL d   1       5.372  -2.242   0.049  0.00  0.00     0.125 C 
INPUT-LIGAND-PDBQT: BRANCH  50  51
INPUT-LIGAND-PDBQT: ATOM     51  C   UNL d   1       6.794  -2.339   0.524  0.00  0.00     0.305 C 
INPUT-LIGAND-PDBQT: ATOM     52  O   UNL d   1       7.189  -2.431   1.673  0.00  0.00    -0.251 OA
INPUT-LIGAND-PDBQT: BRANCH  51  53
INPUT-LIGAND-PDBQT: ATOM     53  O   UNL d   1       7.671  -2.302  -0.499  0.00  0.00    -0.481 OA
INPUT-LIGAND-PDBQT: ATOM     54  H   UNL d   1       8.547  -2.365  -0.064  0.00  0.00     0.295 HD
INPUT-LIGAND-PDBQT: ENDBRANCH  51  53
INPUT-LIGAND-PDBQT: ENDBRANCH  50  51
INPUT-LIGAND-PDBQT: ENDBRANCH  49  50
INPUT-LIGAND-PDBQT: ENDBRANCH  22  49
INPUT-LIGAND-PDBQT: TORSDOF 13
________________________________________________________________________________

Total charge on ligand                               =	-0.002 e
REMARK  13 active torsions:
REMARK  status: ('A' for Active; 'I' for Inactive)
REMARK    1  A    between atoms: O_3  and  C_38 
REMARK    2  A    between atoms: O_4  and  C_40 
REMARK    3  A    between atoms: O_7  and  C_46 
REMARK    4  A    between atoms: O_9  and  C_48 
REMARK    5  A    between atoms: C_15  and  C_20 
REMARK    6  A    between atoms: C_16  and  C_23 
REMARK    7  A    between atoms: C_20  and  C_38 
REMARK    8  A    between atoms: C_23  and  C_40 
REMARK    9  A    between atoms: C_32  and  C_41 
REMARK   10  A    between atoms: C_37  and  C_45 
REMARK   11  A    between atoms: C_41  and  C_44 
REMARK   12  A    between atoms: C_44  and  C_46 
REMARK   13  A    between atoms: C_47  and  C_48 


Number of Rotatable Bonds in Small Molecule =	13 torsions
Number of atoms in ligand:  54

Number of non-hydrogen atoms in ligand:  48

Number of vibrational degrees of freedom of ligand:  156


Number of torsional degrees of freedom = 13
Estimated loss of torsional free energy upon binding = +3.8779 kcal/mol


DPF> about 0.153 0.018 -0.028            # small molecule center

Small molecule center of rotation =	(+0.153, +0.018, -0.028)

DPF> tran0 random                         # initial coordinates/A or random

Initial translation =			(12.185, -0.395, 18.379) Angstroms
DPF> quaternion0 random                   # initial orientation

Each run will begin with a new, random initial orientation.
Initial quaternion,  (x,y,z,w) =	( 0.331, 0.321, 0.066, -0.885 ),
DPF> dihe0 random                         # initial dihedrals (relative) or random

DPF> torsdof 13                            # torsional degrees of freedom

Number of torsional degrees of freedom = 13
Free energy coefficient for torsional degrees of freedom = 0.2983, the factory default value.

Estimated loss of torsional free energy upon binding = +3.8779 kcal/mol

DPF> rmstol 2.0                           # cluster_tolerance/A

Maximum RMS tolerance for conformational cluster analysis = 2.00 Angstroms
DPF> extnrg 1000.0                        # external grid energy

External grid energy (beyond grid map walls) = 1000.00

DPF> e0max 0.0 10000                      # max initial energy; max number of retries

Using user-specified maximum number of retries for simanneal initialization, 10000 retries.
If the simanneal initial energy is greater than e0max, 0.000,
then a new, random initial state will be created.

DPF> ga_pop_size 150                      # number of individuals in population

A population of 150 individuals will be used
DPF> ga_num_evals 25000000                # maximum number of energy evaluations

There will be at most 25000000 function evaluations used.
DPF> ga_num_generations 27000             # maximum number of generations

The GA will run for at most 27000 generations.
DPF> ga_elitism 1                         # number of top individuals to survive to next generation

The 1 best will be preserved each GA generation.
DPF> ga_mutation_rate 0.02                # rate of gene mutation

The mutation rate is 0.020000.
DPF> ga_crossover_rate 0.8                # rate of crossover

The crossover rate is 0.800000.
DPF> ga_window_size 10                    # 

The GA's selection window is 10 generations.
DPF> ga_cauchy_alpha 0.0                  # Alpha parameter of Cauchy distribution

The alpha parameter (for the Cauchy distribution) is being set to 0.000000.
DPF> ga_cauchy_beta 1.0                   # Beta parameter Cauchy distribution

The beta parameter (for the Cauchy distribution) is being set to 1.000000.
DPF> set_ga                               # set the above parameters for GA or LGA

DPF> sw_max_its 300                       # iterations of Solis & Wets local search

Solis & Wets algorithms will perform at most 300 iterations.
DPF> sw_max_succ 4                        # consecutive successes before changing rho

Solis & Wets algorithms expand rho every 4 in a row successes.
DPF> sw_max_fail 4                        # consecutive failures before changing rho

Solis & Wets algorithms contract rho every 4 in a row failures.
DPF> sw_rho 1.0                           # size of local search space to sample

rho is set to 1.000000.
DPF> sw_lb_rho 0.01                       # lower bound on rho

rho will never get smaller than 0.010000.
DPF> ls_search_freq 0.06                  # probability of performing local search on individual

Local search will be performed with frequency 0.060000.
DPF> set_psw1                             # set the above pseudo-Solis & Wets parameters

Creating a new Local Search object using the pseudo-Solis-Wets algorithm (pSW1) with the current settings.

DPF> unbound_model bound                  # state of unbound ligand

DPF> ga_run 100                           # do this many hybrid GA-LS runs

centering ligand on specified point: 0.153 0.018 -0.028
Furthest true ligand atom from "about" center is 8.726 Angstroms (maxrad).
Number of requested GA dockings = 100 runs
Unbound model to be used is 'same as bound' [AutoDock 4.2 default].

	BEGINNING GENETIC ALGORITHM DOCKING 1 of 100
Run: 1 Seed: 1771839445 1845092702 [ Run 1 of 100 GA/GALS ]
Beginning LAMARCKIAN GENETIC ALGORITHM (LGA), with a maximum of 25000000 energy evaluations.

Final-Value: -11.954


	FINAL GENETIC ALGORITHM DOCKED STATE
	_______________________________________________


Detailed state:  trans 22.732 9.601 -9.525 quatxyzw -0.833438 -0.401586 -0.276856 0.259733 center 0.153 0.018 -0.028 ntor 13 -129.0520 -166.0476 -157.1889 -67.7398 66.1515 62.3058 -70.3491 -111.8597 29.5834 -146.6289 -99.4134 -66.0292 -11.6594
State:	 22.732   9.601  -9.525  -0.863 -0.416 -0.287 149.892   -129.05 -166.05 -157.19  -67.74   66.15   62.31  -70.35 -111.86   29.58 -146.63  -99.41  -66.03  -11.66

DOCKED: MODEL        1
DOCKED: USER    Run = 1
DOCKED: USER    DPF = D:/Protein_go_brrr/autodock/final/1A3N/heme/dock.dpf
DOCKED: USER  
DOCKED: USER    Estimated Free Energy of Binding    =   -3.77 kcal/mol  [=(1)+(2)+(3)-(4)]
DOCKED: USER    Estimated Inhibition Constant, Ki   =    1.74 mM (millimolar)  [Temperature = 298.15 K]
DOCKED: USER    
DOCKED: USER    (1) Final Intermolecular Energy     =   -7.64 kcal/mol
DOCKED: USER        vdW + Hbond + desolv Energy     =   -7.51 kcal/mol
DOCKED: USER        Electrostatic Energy            =   -0.14 kcal/mol
DOCKED: USER    (2) Final Total Internal Energy     =   -4.31 kcal/mol
DOCKED: USER    (3) Torsional Free Energy           =   +3.88 kcal/mol
DOCKED: USER    (4) Unbound System's Energy  [=(2)] =   -4.31 kcal/mol
DOCKED: USER    
DOCKED: USER    
DOCKED: USER    NEWDPF move heme_opt.pdbqt
DOCKED: USER    NEWDPF about 0.153000 0.018000 -0.028000
DOCKED: USER    NEWDPF tran0 22.732171 9.600793 -9.524559
DOCKED: USER    NEWDPF quaternion0 -0.833438 -0.401586 -0.276856 0.259733
DOCKED: USER    NEWDPF axisangle0 -0.863058 -0.415858 -0.286695 149.891509
DOCKED: USER    NEWDPF quat0 -0.863058 -0.415858 -0.286695 149.891509
DOCKED: USER    NEWDPF dihe0 -129.05 -166.05 -157.19 -67.74 66.15 62.31 -70.35 -111.86 29.58 -146.63 -99.41 -66.03 -11.66 
DOCKED: USER  keepresnum = 1 
DOCKED: USER  
DOCKED: REMARK  13 active torsions:
DOCKED: REMARK  status: ('A' for Active; 'I' for Inactive)
DOCKED: REMARK    1  A    between atoms: O_3  and  C_38 
DOCKED: REMARK    2  A    between atoms: O_4  and  C_40 
DOCKED: REMARK    3  A    between atoms: O_7  and  C_46 
DOCKED: REMARK    4  A    between atoms: O_9  and  C_48 
DOCKED: REMARK    5  A    between atoms: C_15  and  C_20 
DOCKED: REMARK    6  A    between atoms: C_16  and  C_23 
DOCKED: REMARK    7  A    between atoms: C_20  and  C_38 
DOCKED: REMARK    8  A    between atoms: C_23  and  C_40 
DOCKED: REMARK    9  A    between atoms: C_32  and  C_41 
DOCKED: REMARK   10  A    between atoms: C_37  and  C_45 
DOCKED: REMARK   11  A    between atoms: C_41  and  C_44 
DOCKED: REMARK   12  A    between atoms: C_44  and  C_46 
DOCKED: REMARK   13  A    between atoms: C_47  and  C_48 
DOCKED: USER                              x       y       z     vdW  Elec       q    Type
DOCKED: USER                           _______ _______ _______ _____ _____    ______ ____
DOCKED: ROOT
DOCKED: ATOM      1  O   UNL d   1      21.113   3.985 -10.298 -0.50 -0.11    -0.289 OA
DOCKED: ATOM      2  O   UNL d   1      17.734  10.402 -12.248 -0.23 -0.27    -0.289 OA
DOCKED: ATOM      3  N   UNL d   1      22.394   7.087  -9.503 -0.10 -0.12    -0.247 NA
DOCKED: ATOM      4  N   UNL d   1      20.576   8.961 -10.922 -0.10 -0.10    -0.247 NA
DOCKED: ATOM      5  N   UNL d   1      22.499  11.044 -10.443 -0.04 -0.14    -0.354 N 
DOCKED: ATOM      6  N   UNL d   1      24.388   9.089  -8.989 -0.11 -0.31    -0.354 N 
DOCKED: ATOM      7  C   UNL d   1      23.185   4.779  -9.273 -0.26 +0.04    +0.084 A 
DOCKED: ATOM      8  C   UNL d   1      18.301   8.189 -11.368 -0.18 +0.03    +0.084 A 
DOCKED: ATOM      9  C   UNL d   1      19.712   7.891 -10.852 -0.16 +0.02    +0.058 A 
DOCKED: ATOM     10  C   UNL d   1      23.431   6.277  -9.072 -0.21 +0.04    +0.058 A 
DOCKED: ATOM     11  C   UNL d   1      21.817   4.884  -9.877 -0.14 +0.07    +0.193 A 
DOCKED: ATOM     12  C   UNL d   1      21.439   6.332  -9.939 -0.12 +0.04    +0.109 A 
DOCKED: ATOM     13  C   UNL d   1      18.534   9.615 -11.780 -0.12 +0.11    +0.193 A 
DOCKED: ATOM     14  C   UNL d   1      24.138   4.174 -10.307 -0.28 +0.01    +0.026 C 
DOCKED: ATOM     15  C   UNL d   1      20.085   6.677 -10.417 -0.07 +0.02    +0.055 C 
DOCKED: ATOM     16  C   UNL d   1      17.266   8.165 -10.239 -0.30 +0.01    +0.026 C 
DOCKED: ATOM     17  C   UNL d   1      19.954   9.958 -11.464 +0.06 +0.05    +0.109 A 
DOCKED: ATOM     18  C   UNL d   1      24.532   6.731  -8.444 -0.27 +0.04    +0.050 C 
DOCKED: ATOM     19  C   UNL d   1      24.804   8.089  -8.139 -0.26 +0.04    +0.045 A 
DOCKED: ATOM     20  C   UNL d   1      21.660  11.693 -11.310 -0.11 +0.02    +0.045 A 
DOCKED: ATOM     21  C   UNL d   1      20.484  11.288 -11.800 -0.11 +0.02    +0.057 C 
DOCKED: ATOM     22  C   UNL d   1      23.486  13.011 -10.924 -0.08 -0.01    -0.019 A 
DOCKED: ATOM     23  C   UNL d   1      23.629  11.761 -10.151 -0.12 +0.02    +0.045 A 
DOCKED: ATOM     24  C   UNL d   1      22.318  12.965 -11.607 -0.08 -0.01    -0.022 A 
DOCKED: ATOM     25  C   UNL d   1      24.834  10.314  -8.549 -0.22 +0.03    +0.049 A 
DOCKED: ATOM     26  C   UNL d   1      25.506   8.683  -7.101 -0.35 -0.01    -0.018 A 
DOCKED: ATOM     27  C   UNL d   1      25.505  10.089  -7.355 -0.30 +0.00    +0.003 A 
DOCKED: ATOM     28  C   UNL d   1      24.664  11.480  -9.344 -0.18 +0.02    +0.052 C 
DOCKED: ATOM     29  C   UNL d   1      21.726  13.991 -12.513 -0.04 +0.01    +0.046 C 
DOCKED: ATOM     30  C   UNL d   1      26.138   7.989  -5.942 -0.29 +0.02    +0.046 C 
DOCKED: ATOM     31  H   UNL d   1      22.237  10.160 -10.020 +0.04 +0.07    +0.166 HD
DOCKED: ATOM     32  H   UNL d   1      23.862   8.920  -9.838 +0.04 +0.15    +0.166 HD
DOCKED: ENDROOT
DOCKED: BRANCH   7  33
DOCKED: ATOM     33  C   UNL d   1      23.144   3.942  -7.990 -0.38 +0.03    +0.141 C 
DOCKED: BRANCH  33  34
DOCKED: ATOM     34  C   UNL d   1      21.843   4.085  -7.247 -0.27 +0.06    +0.306 C 
DOCKED: ATOM     35  O   UNL d   1      21.063   3.186  -6.980 -0.34 -0.03    -0.251 OA
DOCKED: BRANCH  34  36
DOCKED: ATOM     36  O   UNL d   1      21.593   5.354  -6.878 -0.09 -0.11    -0.481 OA
DOCKED: ATOM     37  H   UNL d   1      21.751   5.882  -7.689 +0.14 +0.08    +0.295 HD
DOCKED: ENDBRANCH  34  36
DOCKED: ENDBRANCH  33  34
DOCKED: ENDBRANCH   7  33
DOCKED: BRANCH  27  38
DOCKED: ATOM     38  C   UNL d   1      26.136  11.077  -6.533 -0.25 +0.00    +0.017 C 
DOCKED: ATOM     39  C   UNL d   1      26.632  12.245  -6.968 -0.23 +0.02    +0.092 C 
DOCKED: BRANCH  39  40
DOCKED: ATOM     40  C   UNL d   1      27.241  13.179  -6.018 -0.15 +0.05    +0.330 C 
DOCKED: ATOM     41  O   UNL d   1      28.204  12.988  -5.300 -0.26 -0.02    -0.246 OA
DOCKED: BRANCH  40  42
DOCKED: ATOM     42  O   UNL d   1      26.581  14.348  -6.033 -0.07 -0.07    -0.477 OA
DOCKED: ATOM     43  H   UNL d   1      25.753  14.144  -6.514 +0.12 +0.05    +0.295 HD
DOCKED: ENDBRANCH  40  42
DOCKED: ENDBRANCH  39  40
DOCKED: ENDBRANCH  27  38
DOCKED: BRANCH   8  44
DOCKED: ATOM     44  C   UNL d   1      17.841   7.342 -12.559 -0.08 +0.05    +0.141 C 
DOCKED: BRANCH  44  45
DOCKED: ATOM     45  C   UNL d   1      16.352   7.386 -12.780 -0.04 +0.11    +0.306 C 
DOCKED: ATOM     46  O   UNL d   1      15.573   6.457 -12.666 -0.03 -0.07    -0.251 OA
DOCKED: BRANCH  45  47
DOCKED: ATOM     47  O   UNL d   1      15.925   8.603 -13.163 -0.04 -0.27    -0.481 OA
DOCKED: ATOM     48  H   UNL d   1      16.720   9.039 -13.537 +0.05 +0.17    +0.295 HD
DOCKED: ENDBRANCH  45  47
DOCKED: ENDBRANCH  44  45
DOCKED: ENDBRANCH   8  44
DOCKED: BRANCH  22  49
DOCKED: ATOM     49  C   UNL d   1      24.501  14.116 -10.935 -0.05 +0.01    +0.048 C 
DOCKED: BRANCH  49  50
DOCKED: ATOM     50  C   UNL d   1      24.164  15.207  -9.919 -0.09 +0.02    +0.125 C 
DOCKED: BRANCH  50  51
DOCKED: ATOM     51  C   UNL d   1      24.614  14.814  -8.540 -0.11 +0.06    +0.305 C 
DOCKED: ATOM     52  O   UNL d   1      23.921  14.647  -7.552 -0.24 -0.05    -0.251 OA
DOCKED: BRANCH  51  53
DOCKED: ATOM     53  O   UNL d   1      25.951  14.660  -8.471 -0.01 -0.08    -0.481 OA
DOCKED: ATOM     54  H   UNL d   1      26.248  15.401  -7.903 +0.07 +0.04    +0.295 HD
DOCKED: ENDBRANCH  51  53
DOCKED: ENDBRANCH  50  51
DOCKED: ENDBRANCH  49  50
DOCKED: ENDBRANCH  22  49
DOCKED: TORSDOF 13
DOCKED: TER
DOCKED: ENDMDL
________________________________________________________________________________


	BEGINNING GENETIC ALGORITHM DOCKING 2 of 100
Run: 2 Seed: 1002976815 997373454 [ Run 2 of 100 GA/GALS ]
Beginning LAMARCKIAN GENETIC ALGORITHM (LGA), with a maximum of 25000000 energy evaluations.

Final-Value: -11.672


	FINAL GENETIC ALGORITHM DOCKED STATE
	_______________________________________________


Detailed state:  trans 21.626 22.210 14.113 quatxyzw 0.935916 0.056820 -0.320994 0.133399 center 0.153 0.018 -0.028 ntor 13 113.4413 150.4696 133.5429 -153.3647 179.8986 17.2679 -51.2191 -103.8765 -24.5207 -149.4446 -95.6432 -31.9463 -14.1534
State:	 21.626  22.210  14.113   0.944  0.057 -0.324 164.668    113.44  150.47  133.54 -153.36  179.90   17.27  -51.22 -103.88  -24.52 -149.44  -95.64  -31.95  -14.15

DOCKED: MODEL        2
DOCKED: USER    Run = 2
DOCKED: USER    DPF = D:/Protein_go_brrr/autodock/final/1A3N/heme/dock.dpf
DOCKED: USER  
DOCKED: USER    Estimated Free Energy of Binding    =   -3.93 kcal/mol  [=(1)+(2)+(3)-(4)]
DOCKED: USER    Estimated Inhibition Constant, Ki   =    1.33 mM (millimolar)  [Temperature = 298.15 K]
DOCKED: USER    
DOCKED: USER    (1) Final Intermolecular Energy     =   -7.80 kcal/mol
DOCKED: USER        vdW + Hbond + desolv Energy     =   -7.35 kcal/mol
DOCKED: USER        Electrostatic Energy            =   -0.45 kcal/mol
DOCKED: USER    (2) Final Total Internal Energy     =   -3.87 kcal/mol
DOCKED: USER    (3) Torsional Free Energy           =   +3.88 kcal/mol
DOCKED: USER    (4) Unbound System's Energy  [=(2)] =   -3.87 kcal/mol
DOCKED: USER    
DOCKED: USER    
DOCKED: USER    NEWDPF move heme_opt.pdbqt
DOCKED: USER    NEWDPF about 0.153000 0.018000 -0.028000
DOCKED: USER    NEWDPF tran0 21.625651 22.210216 14.113269
DOCKED: USER    NEWDPF quaternion0 0.935916 0.056820 -0.320994 0.133399
DOCKED: USER    NEWDPF axisangle0 0.944357 0.057332 -0.323888 164.667940
DOCKED: USER    NEWDPF quat0 0.944357 0.057332 -0.323888 164.667940
DOCKED: USER    NEWDPF dihe0 113.44 150.47 133.54 -153.36 179.90 17.27 -51.22 -103.88 -24.52 -149.44 -95.64 -31.95 -14.15 
DOCKED: USER  keepresnum = 1 
DOCKED: USER  
DOCKED: REMARK  13 active torsions:
DOCKED: REMARK  status: ('A' for Active; 'I' for Inactive)
DOCKED: REMARK    1  A    between atoms: O_3  and  C_38 
DOCKED: REMARK    2  A    between atoms: O_4  and  C_40 
DOCKED: REMARK    3  A    between atoms: O_7  and  C_46 
DOCKED: REMARK    4  A    between atoms: O_9  and  C_48 
DOCKED: REMARK    5  A    between atoms: C_15  and  C_20 
DOCKED: REMARK    6  A    between atoms: C_16  and  C_23 
DOCKED: REMARK    7  A    between atoms: C_20  and  C_38 
DOCKED: REMARK    8  A    between atoms: C_23  and  C_40 
DOCKED: REMARK    9  A    between atoms: C_32  and  C_41 
DOCKED: REMARK   10  A    between atoms: C_37  and  C_45 
DOCKED: REMARK   11  A    between atoms: C_41  and  C_44 
DOCKED: REMARK   12  A    between atoms: C_44  and  C_46 
DOCKED: REMARK   13  A    between atoms: C_47  and  C_48 
DOCKED: USER                              x       y       z     vdW  Elec       q    Type
DOCKED: USER                           _______ _______ _______ _____ _____    ______ ____
DOCKED: ROOT
DOCKED: ATOM      1  O   UNL d   1      16.843  19.653  16.425 -0.19 -0.10    -0.289 OA
DOCKED: ATOM      2  O   UNL d   1      20.406  26.006  18.254 -0.01 -0.05    -0.289 OA
DOCKED: ATOM      3  N   UNL d   1      19.729  20.696  14.850 -0.04 -0.12    -0.247 NA
DOCKED: ATOM      4  N   UNL d   1      20.206  23.389  16.013 -0.04 -0.07    -0.247 NA
DOCKED: ATOM      5  N   UNL d   1      22.120  23.852  13.918 -0.05 -0.10    -0.354 N 
DOCKED: ATOM      6  N   UNL d   1      21.604  21.065  12.707 -0.05 -0.16    -0.354 N 
DOCKED: ATOM      7  C   UNL d   1      18.135  18.866  14.505 -0.13 +0.03    +0.084 A 
DOCKED: ATOM      8  C   UNL d   1      19.306  23.819  18.243 -0.09 +0.02    +0.084 A 
DOCKED: ATOM      9  C   UNL d   1      19.431  22.886  17.034 -0.10 +0.02    +0.058 A 
DOCKED: ATOM     10  C   UNL d   1      19.406  19.601  14.067 -0.10 +0.03    +0.058 A 
DOCKED: ATOM     11  C   UNL d   1      17.807  19.730  15.686 -0.11 +0.07    +0.193 A 
DOCKED: ATOM     12  C   UNL d   1      18.861  20.787  15.805 -0.12 +0.04    +0.109 A 
DOCKED: ATOM     13  C   UNL d   1      20.123  24.959  17.704 -0.03 +0.04    +0.193 A 
DOCKED: ATOM     14  C   UNL d   1      17.013  18.993  13.472 -0.13 +0.01    +0.026 C 
DOCKED: ATOM     15  C   UNL d   1      18.797  21.706  16.959 -0.19 +0.02    +0.055 C 
DOCKED: ATOM     16  C   UNL d   1      20.012  23.247  19.477 -0.15 +0.01    +0.026 C 
DOCKED: ATOM     17  C   UNL d   1      20.604  24.576  16.343 -0.05 +0.02    +0.109 A 
DOCKED: ATOM     18  C   UNL d   1      20.171  19.142  13.059 -0.12 +0.02    +0.050 C 
DOCKED: ATOM     19  C   UNL d   1      21.403  19.705  12.640 -0.15 +0.02    +0.045 A 
DOCKED: ATOM     20  C   UNL d   1      22.039  25.115  14.446 -0.06 +0.01    +0.045 A 
DOCKED: ATOM     21  C   UNL d   1      21.400  25.522  15.547 -0.05 +0.01    +0.057 C 
DOCKED: ATOM     22  C   UNL d   1      23.310  25.189  12.550 -0.05 -0.00    -0.019 A 
DOCKED: ATOM     23  C   UNL d   1      22.866  23.798  12.771 -0.09 +0.01    +0.045 A 
DOCKED: ATOM     24  C   UNL d   1      22.818  25.963  13.546 -0.03 -0.00    -0.022 A 
DOCKED: ATOM     25  C   UNL d   1      22.825  21.401  12.168 -0.13 +0.02    +0.049 A 
DOCKED: ATOM     26  C   UNL d   1      22.537  19.138  12.078 -0.24 -0.01    -0.018 A 
DOCKED: ATOM     27  C   UNL d   1      23.439  20.212  11.800 -0.25 +0.00    +0.003 A 
DOCKED: ATOM     28  C   UNL d   1      23.190  22.762  11.982 -0.13 +0.02    +0.052 C 
DOCKED: ATOM     29  C   UNL d   1      23.000  27.426  13.766 -0.01 +0.00    +0.046 C 
DOCKED: ATOM     30  C   UNL d   1      22.772  17.689  11.816 -0.25 +0.02    +0.046 C 
DOCKED: ATOM     31  H   UNL d   1      21.722  23.054  14.400 +0.02 +0.06    +0.166 HD
DOCKED: ATOM     32  H   UNL d   1      20.917  21.716  13.068 +0.02 +0.06    +0.166 HD
DOCKED: ENDROOT
DOCKED: BRANCH   7  33
DOCKED: ATOM     33  C   UNL d   1      18.335  17.411  14.942 -0.18 +0.05    +0.141 C 
DOCKED: BRANCH  33  34
DOCKED: ATOM     34  C   UNL d   1      19.744  17.129  15.390 -0.13 +0.20    +0.306 C 
DOCKED: ATOM     35  O   UNL d   1      20.472  16.249  14.965 -0.11 -0.17    -0.251 OA
DOCKED: BRANCH  34  36
DOCKED: ATOM     36  O   UNL d   1      20.162  17.974  16.349 -0.40 -0.50    -0.481 OA
DOCKED: ATOM     37  H   UNL d   1      20.247  18.840  15.896 +0.09 +0.32    +0.295 HD
DOCKED: ENDBRANCH  34  36
DOCKED: ENDBRANCH  33  34
DOCKED: ENDBRANCH   7  33
DOCKED: BRANCH  27  38
DOCKED: ATOM     38  C   UNL d   1      24.731  20.070  11.199 -0.40 +0.01    +0.017 C 
DOCKED: ATOM     39  C   UNL d   1      25.615  21.063  11.019 -0.38 +0.04    +0.092 C 
DOCKED: BRANCH  39  40
DOCKED: ATOM     40  C   UNL d   1      26.914  20.781  10.404 -0.28 +0.12    +0.330 C 
DOCKED: ATOM     41  O   UNL d   1      27.244  19.788   9.783 -0.36 -0.05    -0.246 OA
DOCKED: BRANCH  40  42
DOCKED: ATOM     42  O   UNL d   1      27.754  21.808  10.607 -0.11 -0.33    -0.477 OA
DOCKED: ATOM     43  H   UNL d   1      27.163  22.588  10.657 +0.14 +0.20    +0.295 HD
DOCKED: ENDBRANCH  40  42
DOCKED: ENDBRANCH  39  40
DOCKED: ENDBRANCH  27  38
DOCKED: BRANCH   8  44
DOCKED: ATOM     44  C   UNL d   1      17.882  24.275  18.581 -0.13 +0.04    +0.141 C 
DOCKED: BRANCH  44  45
DOCKED: ATOM     45  C   UNL d   1      17.741  24.789  19.989 -0.14 +0.12    +0.306 C 
DOCKED: ATOM     46  O   UNL d   1      17.369  24.154  20.961 -0.41 -0.20    -0.251 OA
DOCKED: BRANCH  45  47
DOCKED: ATOM     47  O   UNL d   1      18.053  26.093  20.094 -0.02 -0.11    -0.481 OA
DOCKED: ATOM     48  H   UNL d   1      18.902  26.186  19.611 +0.06 +0.06    +0.295 HD
DOCKED: ENDBRANCH  45  47
DOCKED: ENDBRANCH  44  45
DOCKED: ENDBRANCH   8  44
DOCKED: BRANCH  22  49
DOCKED: ATOM     49  C   UNL d   1      24.153  25.630  11.389 -0.06 +0.00    +0.048 C 
DOCKED: BRANCH  49  50
DOCKED: ATOM     50  C   UNL d   1      25.632  25.722  11.763 -0.09 +0.03    +0.125 C 
DOCKED: BRANCH  50  51
DOCKED: ATOM     51  C   UNL d   1      26.305  24.386  11.627 -0.14 +0.17    +0.305 C 
DOCKED: ATOM     52  O   UNL d   1      26.718  23.668  12.519 -0.73 -0.26    -0.251 OA
DOCKED: BRANCH  51  53
DOCKED: ATOM     53  O   UNL d   1      26.436  24.017  10.337 -0.12 -0.13    -0.481 OA
DOCKED: ATOM     54  H   UNL d   1      26.455  24.866   9.847 -0.35 -0.03    +0.295 HD
DOCKED: ENDBRANCH  51  53
DOCKED: ENDBRANCH  50  51
DOCKED: ENDBRANCH  49  50
DOCKED: ENDBRANCH  22  49
DOCKED: TORSDOF 13
DOCKED: TER
DOCKED: ENDMDL
________________________________________________________________________________


	BEGINNING GENETIC ALGORITHM DOCKING 3 of 100
Run: 3 Seed: 1236301937 273755015 [ Run 3 of 100 GA/GALS ]
Beginning LAMARCKIAN GENETIC ALGORITHM (LGA), with a maximum of 25000000 energy evaluations.

Final-Value: -12.940


	FINAL GENETIC ALGORITHM DOCKED STATE
	_______________________________________________


Detailed state:  trans 19.207 -3.954 10.508 quatxyzw -0.039449 -0.336201 0.261351 -0.903940 center 0.153 0.018 -0.028 ntor 13 -76.6162 -18.9318 -135.5163 -180.0000 -147.5913 173.5005 125.5298 -97.4405 23.8619 -18.2667 -89.6768 19.1629 -179.5933
State:	 19.207  -3.954  10.508  -0.092 -0.786  0.611 -50.638    -76.62  -18.93 -135.52 -180.00 -147.59  173.50  125.53  -97.44   23.86  -18.27  -89.68   19.16 -179.59

DOCKED: MODEL        3
DOCKED: USER    Run = 3
DOCKED: USER    DPF = D:/Protein_go_brrr/autodock/final/1A3N/heme/dock.dpf
DOCKED: USER  
DOCKED: USER    Estimated Free Energy of Binding    =   -7.07 kcal/mol  [=(1)+(2)+(3)-(4)]
DOCKED: USER    Estimated Inhibition Constant, Ki   =    6.60 uM (micromolar)  [Temperature = 298.15 K]
DOCKED: USER    
DOCKED: USER    (1) Final Intermolecular Energy     =  -10.95 kcal/mol
DOCKED: USER        vdW + Hbond + desolv Energy     =  -10.43 kcal/mol
DOCKED: USER        Electrostatic Energy            =   -0.51 kcal/mol
DOCKED: USER    (2) Final Total Internal Energy     =   -2.00 kcal/mol
DOCKED: USER    (3) Torsional Free Energy           =   +3.88 kcal/mol
DOCKED: USER    (4) Unbound System's Energy  [=(2)] =   -2.00 kcal/mol
DOCKED: USER    
DOCKED: USER    
DOCKED: USER    NEWDPF move heme_opt.pdbqt
DOCKED: USER    NEWDPF about 0.153000 0.018000 -0.028000
DOCKED: USER    NEWDPF tran0 19.207160 -3.953888 10.508087
DOCKED: USER    NEWDPF quaternion0 -0.039449 -0.336201 0.261351 -0.903940
DOCKED: USER    NEWDPF axisangle0 -0.092244 -0.786145 0.611120 -50.638110
DOCKED: USER    NEWDPF quat0 -0.092244 -0.786145 0.611120 -50.638110
DOCKED: USER    NEWDPF dihe0 -76.62 -18.93 -135.52 -180.00 -147.59 173.50 125.53 -97.44 23.86 -18.27 -89.68 19.16 -179.59 
DOCKED: USER  keepresnum = 1 
DOCKED: USER  
DOCKED: REMARK  13 active torsions:
DOCKED: REMARK  status: ('A' for Active; 'I' for Inactive)
DOCKED: REMARK    1  A    between atoms: O_3  and  C_38 
DOCKED: REMARK    2  A    between atoms: O_4  and  C_40 
DOCKED: REMARK    3  A    between atoms: O_7  and  C_46 
DOCKED: REMARK    4  A    between atoms: O_9  and  C_48 
DOCKED: REMARK    5  A    between atoms: C_15  and  C_20 
DOCKED: REMARK    6  A    between atoms: C_16  and  C_23 
DOCKED: REMARK    7  A    between atoms: C_20  and  C_38 
DOCKED: REMARK    8  A    between atoms: C_23  and  C_40 
DOCKED: REMARK    9  A    between atoms: C_32  and  C_41 
DOCKED: REMARK   10  A    between atoms: C_37  and  C_45 
DOCKED: REMARK   11  A    between atoms: C_41  and  C_44 
DOCKED: REMARK   12  A    between atoms: C_44  and  C_46 
DOCKED: REMARK   13  A    between atoms: C_47  and  C_48 
DOCKED: USER                              x       y       z     vdW  Elec       q    Type
DOCKED: USER                           _______ _______ _______ _____ _____    ______ ____
DOCKED: ROOT
DOCKED: ATOM      1  O   UNL d   1      14.471  -5.369   7.296 -0.17 -0.07    -0.289 OA
DOCKED: ATOM      2  O   UNL d   1      20.667  -9.284   8.928 -0.16 +0.01    -0.289 OA
DOCKED: ATOM      3  N   UNL d   1      17.079  -4.057   9.132 -0.07 +0.00    -0.247 NA
DOCKED: ATOM      4  N   UNL d   1      18.887  -6.385   9.509 -0.10 -0.01    -0.247 NA
DOCKED: ATOM      5  N   UNL d   1      20.279  -4.862  11.511 -0.07 -0.01    -0.354 N 
DOCKED: ATOM      6  N   UNL d   1      18.387  -2.459  11.127 -0.05 +0.00    -0.354 N 
DOCKED: ATOM      7  C   UNL d   1      14.837  -3.282   8.515 -0.16 -0.01    +0.084 A 
DOCKED: ATOM      8  C   UNL d   1      18.788  -8.160   7.833 -0.21 +0.00    +0.084 A 
DOCKED: ATOM      9  C   UNL d   1      18.232  -6.845   8.389 -0.17 +0.00    +0.058 A 
DOCKED: ATOM     10  C   UNL d   1      16.159  -3.029   9.246 -0.12 -0.00    +0.058 A 
DOCKED: ATOM     11  C   UNL d   1      15.180  -4.629   7.952 -0.09 +0.01    +0.193 A 
DOCKED: ATOM     12  C   UNL d   1      16.574  -4.976   8.375 -0.11 +0.00    +0.109 A 
DOCKED: ATOM     13  C   UNL d   1      19.856  -8.380   8.867 -0.17 -0.00    +0.193 A 
DOCKED: ATOM     14  C   UNL d   1      13.664  -3.436   9.487 -0.23 -0.00    +0.026 C 
DOCKED: ATOM     15  C   UNL d   1      17.166  -6.226   7.858 -0.19 +0.00    +0.055 C 
DOCKED: ATOM     16  C   UNL d   1      19.457  -7.962   6.469 -0.36 +0.00    +0.026 C 
DOCKED: ATOM     17  C   UNL d   1      19.806  -7.238   9.829 -0.17 +0.00    +0.109 A 
DOCKED: ATOM     18  C   UNL d   1      16.409  -1.858   9.861 -0.19 -0.01    +0.050 C 
DOCKED: ATOM     19  C   UNL d   1      17.630  -1.502  10.489 -0.16 -0.00    +0.045 A 
DOCKED: ATOM     20  C   UNL d   1      20.855  -6.090  11.707 -0.20 +0.00    +0.045 A 
DOCKED: ATOM     21  C   UNL d   1      20.716  -7.206  10.984 -0.27 +0.00    +0.057 C 
DOCKED: ATOM     22  C   UNL d   1      21.566  -4.671  13.350 -0.28 +0.00    -0.019 A 
DOCKED: ATOM     23  C   UNL d   1      20.649  -3.940  12.453 -0.19 -0.00    +0.045 A 
DOCKED: ATOM     24  C   UNL d   1      21.685  -5.943  12.902 -0.33 -0.00    -0.022 A 
DOCKED: ATOM     25  C   UNL d   1      19.476  -1.883  11.740 -0.14 -0.00    +0.049 A 
DOCKED: ATOM     26  C   UNL d   1      18.262  -0.280  10.660 -0.23 +0.00    -0.018 A 
DOCKED: ATOM     27  C   UNL d   1      19.438  -0.530  11.434 -0.20 +0.00    +0.003 A 
DOCKED: ATOM     28  C   UNL d   1      20.321  -2.646  12.592 -0.20 -0.00    +0.052 C 
DOCKED: ATOM     29  C   UNL d   1      22.504  -7.057  13.462 -0.38 +0.00    +0.046 C 
DOCKED: ATOM     30  C   UNL d   1      17.806   1.039  10.136 -0.39 +0.00    +0.046 C 
DOCKED: ATOM     31  H   UNL d   1      19.709  -4.673  10.694 +0.05 +0.00    +0.166 HD
DOCKED: ATOM     32  H   UNL d   1      18.137  -3.440  11.163 +0.04 +0.00    +0.166 HD
DOCKED: ENDROOT
DOCKED: BRANCH   7  33
DOCKED: ATOM     33  C   UNL d   1      14.509  -2.296   7.389 -0.30 -0.08    +0.141 C 
DOCKED: BRANCH  33  34
DOCKED: ATOM     34  C   UNL d   1      15.386  -2.484   6.181 -0.27 -0.17    +0.306 C 
DOCKED: ATOM     35  O   UNL d   1      16.426  -1.892   5.946 -0.33 +0.13    -0.251 OA
DOCKED: BRANCH  34  36
DOCKED: ATOM     36  O   UNL d   1      14.907  -3.411   5.332 -0.50 +0.26    -0.481 OA
DOCKED: ATOM     37  H   UNL d   1      14.479  -2.894   4.617 -0.18 -0.45    +0.295 HD
DOCKED: ENDBRANCH  34  36
DOCKED: ENDBRANCH  33  34
DOCKED: ENDBRANCH   7  33
DOCKED: BRANCH  27  38
DOCKED: ATOM     38  C   UNL d   1      20.376   0.466  11.854 -0.33 +0.00    +0.017 C 
DOCKED: ATOM     39  C   UNL d   1      21.693   0.446  11.599 -0.40 -0.00    +0.092 C 
DOCKED: BRANCH  39  40
DOCKED: ATOM     40  C   UNL d   1      22.546   1.540  12.072 -0.23 -0.02    +0.330 C 
DOCKED: ATOM     41  O   UNL d   1      23.760   1.600  12.050 -0.31 +0.03    -0.246 OA
DOCKED: BRANCH  40  42
DOCKED: ATOM     42  O   UNL d   1      21.790   2.538  12.556 -0.10 -0.03    -0.477 OA
DOCKED: ATOM     43  H   UNL d   1      22.409   3.053  13.113 +0.16 -0.01    +0.295 HD
DOCKED: ENDBRANCH  40  42
DOCKED: ENDBRANCH  39  40
DOCKED: ENDBRANCH  27  38
DOCKED: BRANCH   8  44
DOCKED: ATOM     44  C   UNL d   1      17.804  -9.334   7.802 -0.09 +0.01    +0.141 C 
DOCKED: BRANCH  44  45
DOCKED: ATOM     45  C   UNL d   1      17.424  -9.826   9.173 -0.00 +0.04    +0.306 C 
DOCKED: ATOM     46  O   UNL d   1      16.585  -9.341   9.913 -0.01 -0.04    -0.251 OA
DOCKED: BRANCH  45  47
DOCKED: ATOM     47  O   UNL d   1      18.145 -10.896   9.554 +0.02 -0.06    -0.481 OA
DOCKED: ATOM     48  H   UNL d   1      19.066 -10.680   9.294 +0.09 +0.03    +0.295 HD
DOCKED: ENDBRANCH  45  47
DOCKED: ENDBRANCH  44  45
DOCKED: ENDBRANCH   8  44
DOCKED: BRANCH  22  49
DOCKED: ATOM     49  C   UNL d   1      22.223  -4.069  14.557 -0.34 -0.01    +0.048 C 
DOCKED: BRANCH  49  50
DOCKED: ATOM     50  C   UNL d   1      21.456  -4.388  15.840 -0.32 -0.00    +0.125 C 
DOCKED: BRANCH  50  51
DOCKED: ATOM     51  C   UNL d   1      21.969  -5.650  16.472 -0.35 +0.01    +0.305 C 
DOCKED: ATOM     52  O   UNL d   1      21.449  -6.753  16.458 -0.37 -0.03    -0.251 OA
DOCKED: BRANCH  51  53
DOCKED: ATOM     53  O   UNL d   1      23.136  -5.453  17.118 -0.29 +0.04    -0.481 OA
DOCKED: ATOM     54  H   UNL d   1      23.327  -4.502  16.978 -0.34 -0.10    +0.295 HD
DOCKED: ENDBRANCH  51  53
DOCKED: ENDBRANCH  50  51
DOCKED: ENDBRANCH  49  50
DOCKED: ENDBRANCH  22  49
DOCKED: TORSDOF 13
DOCKED: TER
DOCKED: ENDMDL
________________________________________________________________________________


	BEGINNING GENETIC ALGORITHM DOCKING 4 of 100
Run: 4 Seed: 1690806250 1048271424 [ Run 4 of 100 GA/GALS ]
Beginning LAMARCKIAN GENETIC ALGORITHM (LGA), with a maximum of 25000000 energy evaluations.

Final-Value: -16.641


	FINAL GENETIC ALGORITHM DOCKED STATE
	_______________________________________________


Detailed state:  trans 7.623 12.353 29.555 quatxyzw 0.300294 -0.698926 0.002427 0.649092 center 0.153 0.018 -0.028 ntor 13 -91.8647 180.0000 -105.9947 57.4435 41.3954 55.7356 131.6633 99.2996 139.9769 -27.2132 -38.0965 -114.1569 7.6075
State:	  7.623  12.353  29.555   0.395 -0.919  0.003 99.054    -91.86  180.00 -105.99   57.44   41.40   55.74  131.66   99.30  139.98  -27.21  -38.10 -114.16    7.61

DOCKED: MODEL        4
DOCKED: USER    Run = 4
DOCKED: USER    DPF = D:/Protein_go_brrr/autodock/final/1A3N/heme/dock.dpf
DOCKED: USER  
DOCKED: USER    Estimated Free Energy of Binding    =   -8.88 kcal/mol  [=(1)+(2)+(3)-(4)]
DOCKED: USER    Estimated Inhibition Constant, Ki   =  308.23 nM (nanomolar)  [Temperature = 298.15 K]
DOCKED: USER    
DOCKED: USER    (1) Final Intermolecular Energy     =  -12.76 kcal/mol
DOCKED: USER        vdW + Hbond + desolv Energy     =  -12.57 kcal/mol
DOCKED: USER        Electrostatic Energy            =   -0.19 kcal/mol
DOCKED: USER    (2) Final Total Internal Energy     =   -3.88 kcal/mol
DOCKED: USER    (3) Torsional Free Energy           =   +3.88 kcal/mol
DOCKED: USER    (4) Unbound System's Energy  [=(2)] =   -3.88 kcal/mol
DOCKED: USER    
DOCKED: USER    
DOCKED: USER    NEWDPF move heme_opt.pdbqt
DOCKED: USER    NEWDPF about 0.153000 0.018000 -0.028000
DOCKED: USER    NEWDPF tran0 7.623212 12.352691 29.555125
DOCKED: USER    NEWDPF quaternion0 0.300294 -0.698926 0.002427 0.649092
DOCKED: USER    NEWDPF axisangle0 0.394755 -0.918781 0.003190 99.053627
DOCKED: USER    NEWDPF quat0 0.394755 -0.918781 0.003190 99.053627
DOCKED: USER    NEWDPF dihe0 -91.86 180.00 -105.99 57.44 41.40 55.74 131.66 99.30 139.98 -27.21 -38.10 -114.16 7.61 
DOCKED: USER  keepresnum = 1 
DOCKED: USER  
DOCKED: REMARK  13 active torsions:
DOCKED: REMARK  status: ('A' for Active; 'I' for Inactive)
DOCKED: REMARK    1  A    between atoms: O_3  and  C_38 
DOCKED: REMARK    2  A    between atoms: O_4  and  C_40 
DOCKED: REMARK    3  A    between atoms: O_7  and  C_46 
DOCKED: REMARK    4  A    between atoms: O_9  and  C_48 
DOCKED: REMARK    5  A    between atoms: C_15  and  C_20 
DOCKED: REMARK    6  A    between atoms: C_16  and  C_23 
DOCKED: REMARK    7  A    between atoms: C_20  and  C_38 
DOCKED: REMARK    8  A    between atoms: C_23  and  C_40 
DOCKED: REMARK    9  A    between atoms: C_32  and  C_41 
DOCKED: REMARK   10  A    between atoms: C_37  and  C_45 
DOCKED: REMARK   11  A    between atoms: C_41  and  C_44 
DOCKED: REMARK   12  A    between atoms: C_44  and  C_46 
DOCKED: REMARK   13  A    between atoms: C_47  and  C_48 
DOCKED: USER                              x       y       z     vdW  Elec       q    Type
DOCKED: USER                           _______ _______ _______ _____ _____    ______ ____
DOCKED: ROOT
DOCKED: ATOM      1  O   UNL d   1       7.379  16.360  33.872 -0.30 -0.30    -0.289 OA
DOCKED: ATOM      2  O   UNL d   1       8.146   8.894  34.116 -0.50 -0.13    -0.289 OA
DOCKED: ATOM      3  N   UNL d   1       7.333  14.384  31.046 -0.18 -0.09    -0.247 NA
DOCKED: ATOM      4  N   UNL d   1       8.000  11.683  32.089 -0.14 -0.10    -0.247 NA
DOCKED: ATOM      5  N   UNL d   1       8.446  10.846  29.375 -0.18 -0.08    -0.354 N 
DOCKED: ATOM      6  N   UNL d   1       7.772  13.656  28.302 -0.13 -0.04    -0.354 N 
DOCKED: ATOM      7  C   UNL d   1       7.318  16.799  31.468 -0.23 +0.03    +0.084 A 
DOCKED: ATOM      8  C   UNL d   1       7.451  11.221  34.425 -0.26 +0.05    +0.084 A 
DOCKED: ATOM      9  C   UNL d   1       7.531  12.221  33.267 -0.24 +0.03    +0.058 A 
DOCKED: ATOM     10  C   UNL d   1       7.313  15.641  30.465 -0.30 +0.02    +0.058 A 
DOCKED: ATOM     11  C   UNL d   1       7.326  15.973  32.719 -0.17 +0.14    +0.193 A 
DOCKED: ATOM     12  C   UNL d   1       7.308  14.527  32.331 -0.24 +0.07    +0.109 A 
DOCKED: ATOM     13  C   UNL d   1       7.997  10.025  33.697 -0.29 +0.09    +0.193 A 
DOCKED: ATOM     14  C   UNL d   1       8.614  17.610  31.402 +0.13 +0.01    +0.026 C 
DOCKED: ATOM     15  C   UNL d   1       7.219  13.519  33.406 -0.27 +0.05    +0.055 C 
DOCKED: ATOM     16  C   UNL d   1       6.002  10.932  34.828 -0.26 +0.02    +0.026 C 
DOCKED: ATOM     17  C   UNL d   1       8.298  10.440  32.293 -0.32 +0.04    +0.109 A 
DOCKED: ATOM     18  C   UNL d   1       7.206  15.859  29.141 -0.37 +0.01    +0.050 C 
DOCKED: ATOM     19  C   UNL d   1       7.109  14.852  28.147 -0.39 +0.01    +0.045 A 
DOCKED: ATOM     20  C   UNL d   1       8.936   9.753  30.042 -0.39 +0.01    +0.045 A 
DOCKED: ATOM     21  C   UNL d   1       8.889   9.480  31.350 -0.40 +0.02    +0.057 C 
DOCKED: ATOM     22  C   UNL d   1       9.387   9.522  27.815 -0.41 -0.00    -0.019 A 
DOCKED: ATOM     23  C   UNL d   1       8.672  10.796  28.025 -0.30 +0.00    +0.045 A 
DOCKED: ATOM     24  C   UNL d   1       9.540   8.909  29.013 -0.43 -0.00    -0.022 A 
DOCKED: ATOM     25  C   UNL d   1       7.615  12.868  27.186 -0.25 +0.00    +0.049 A 
DOCKED: ATOM     26  C   UNL d   1       6.474  14.826  26.914 -0.43 -0.00    -0.018 A 
DOCKED: ATOM     27  C   UNL d   1       6.781  13.562  26.321 -0.39 +0.00    +0.003 A 
DOCKED: ATOM     28  C   UNL d   1       8.335  11.650  27.047 +0.03 +0.00    +0.052 C 
DOCKED: ATOM     29  C   UNL d   1      10.185   7.599  29.315 -0.40 +0.01    +0.046 C 
DOCKED: ATOM     30  C   UNL d   1       5.632  15.905  26.323 -0.38 +0.00    +0.046 C 
DOCKED: ATOM     31  H   UNL d   1       7.907  11.558  29.856 +0.09 +0.04    +0.166 HD
DOCKED: ATOM     32  H   UNL d   1       8.328  13.426  29.117 +0.07 +0.03    +0.166 HD
DOCKED: ENDROOT
DOCKED: BRANCH   7  33
DOCKED: ATOM     33  C   UNL d   1       6.084  17.706  31.430 -0.20 +0.05    +0.141 C 
DOCKED: BRANCH  33  34
DOCKED: ATOM     34  C   UNL d   1       6.232  18.922  32.305 -0.12 +0.10    +0.306 C 
DOCKED: ATOM     35  O   UNL d   1       6.601  20.027  31.946 -0.07 -0.05    -0.251 OA
DOCKED: BRANCH  34  36
DOCKED: ATOM     36  O   UNL d   1       5.903  18.681  33.587 -0.07 -0.28    -0.481 OA
DOCKED: ATOM     37  H   UNL d   1       6.724  18.326  33.989 +0.05 +0.19    +0.295 HD
DOCKED: ENDBRANCH  34  36
DOCKED: ENDBRANCH  33  34
DOCKED: ENDBRANCH   7  33
DOCKED: BRANCH  27  38
DOCKED: ATOM     38  C   UNL d   1       6.336  13.126  25.032 -0.41 +0.00    +0.017 C 
DOCKED: ATOM     39  C   UNL d   1       7.086  13.107  23.919 -0.38 +0.00    +0.092 C 
DOCKED: BRANCH  39  40
DOCKED: ATOM     40  C   UNL d   1       6.514  12.619  22.662 -0.23 +0.01    +0.330 C 
DOCKED: ATOM     41  O   UNL d   1       5.493  12.991  22.115 -0.31 -0.01    -0.246 OA
DOCKED: BRANCH  40  42
DOCKED: ATOM     42  O   UNL d   1       7.296  11.661  22.140 -0.15 -0.01    -0.477 OA
DOCKED: ATOM     43  H   UNL d   1       8.031  11.583  22.782 +0.21 +0.01    +0.295 HD
DOCKED: ENDBRANCH  40  42
DOCKED: ENDBRANCH  39  40
DOCKED: ENDBRANCH  27  38
DOCKED: BRANCH   8  44
DOCKED: ATOM     44  C   UNL d   1       8.310  11.558  35.649 -0.16 +0.10    +0.141 C 
DOCKED: BRANCH  44  45
DOCKED: ATOM     45  C   UNL d   1       9.771  11.254  35.451 -0.13 +0.29    +0.306 C 
DOCKED: ATOM     46  O   UNL d   1      10.609  11.997  34.969 -0.65 -0.33    -0.251 OA
DOCKED: BRANCH  45  47
DOCKED: ATOM     47  O   UNL d   1      10.097  10.011  35.848 -0.25 -0.45    -0.481 OA
DOCKED: ATOM     48  H   UNL d   1       9.718   9.423  35.160 +0.15 +0.25    +0.295 HD
DOCKED: ENDBRANCH  45  47
DOCKED: ENDBRANCH  44  45
DOCKED: ENDBRANCH   8  44
DOCKED: BRANCH  22  49
DOCKED: ATOM     49  C   UNL d   1       9.864   9.034  26.479 -0.34 +0.01    +0.048 C 
DOCKED: BRANCH  49  50
DOCKED: ATOM     50  C   UNL d   1       8.716   8.491  25.629 -0.42 +0.01    +0.125 C 
DOCKED: BRANCH  50  51
DOCKED: ATOM     51  C   UNL d   1       8.907   8.842  24.181 -0.38 +0.02    +0.305 C 
DOCKED: ATOM     52  O   UNL d   1       9.446   8.171  23.318 -0.54 -0.02    -0.251 OA
DOCKED: BRANCH  51  53
DOCKED: ATOM     53  O   UNL d   1       8.408  10.060  23.887 -0.16 -0.03    -0.481 OA
DOCKED: ATOM     54  H   UNL d   1       7.764   9.886  23.169 +0.22 +0.02    +0.295 HD
DOCKED: ENDBRANCH  51  53
DOCKED: ENDBRANCH  50  51
DOCKED: ENDBRANCH  49  50
DOCKED: ENDBRANCH  22  49
DOCKED: TORSDOF 13
DOCKED: TER
DOCKED: ENDMDL
________________________________________________________________________________


	BEGINNING GENETIC ALGORITHM DOCKING 5 of 100
Run: 5 Seed: 1961736983 1791215420 [ Run 5 of 100 GA/GALS ]
Beginning LAMARCKIAN GENETIC ALGORITHM (LGA), with a maximum of 25000000 energy evaluations.

Final-Value: -11.651


	FINAL GENETIC ALGORITHM DOCKED STATE
	_______________________________________________


Detailed state:  trans -1.482 -10.035 -6.861 quatxyzw -0.669575 -0.294438 -0.317264 0.603589 center 0.153 0.018 -0.028 ntor 13 -155.1042 -165.5926 -160.3125 18.9428 -93.6987 57.5284 135.2692 148.1589 11.8280 -10.9426 -54.1755 -90.8690 12.1269
State:	 -1.482 -10.035  -6.861  -0.840 -0.369 -0.398 105.745   -155.10 -165.59 -160.31   18.94  -93.70   57.53  135.27  148.16   11.83  -10.94  -54.18  -90.87   12.13

DOCKED: MODEL        5
DOCKED: USER    Run = 5
DOCKED: USER    DPF = D:/Protein_go_brrr/autodock/final/1A3N/heme/dock.dpf
DOCKED: USER  
DOCKED: USER    Estimated Free Energy of Binding    =   -3.89 kcal/mol  [=(1)+(2)+(3)-(4)]
DOCKED: USER    Estimated Inhibition Constant, Ki   =    1.41 mM (millimolar)  [Temperature = 298.15 K]
DOCKED: USER    
DOCKED: USER    (1) Final Intermolecular Energy     =   -7.77 kcal/mol
DOCKED: USER        vdW + Hbond + desolv Energy     =   -7.58 kcal/mol
DOCKED: USER        Electrostatic Energy            =   -0.18 kcal/mol
DOCKED: USER    (2) Final Total Internal Energy     =   -3.88 kcal/mol
DOCKED: USER    (3) Torsional Free Energy           =   +3.88 kcal/mol
DOCKED: USER    (4) Unbound System's Energy  [=(2)] =   -3.88 kcal/mol
DOCKED: USER    
DOCKED: USER    
DOCKED: USER    NEWDPF move heme_opt.pdbqt
DOCKED: USER    NEWDPF about 0.153000 0.018000 -0.028000
DOCKED: USER    NEWDPF tran0 -1.481783 -10.035049 -6.861151
DOCKED: USER    NEWDPF quaternion0 -0.669575 -0.294438 -0.317264 0.603589
DOCKED: USER    NEWDPF axisangle0 -0.839807 -0.369296 -0.397925 105.745245
DOCKED: USER    NEWDPF quat0 -0.839807 -0.369296 -0.397925 105.745245
DOCKED: USER    NEWDPF dihe0 -155.10 -165.59 -160.31 18.94 -93.70 57.53 135.27 148.16 11.83 -10.94 -54.18 -90.87 12.13 
DOCKED: USER  keepresnum = 1 
DOCKED: USER  
DOCKED: REMARK  13 active torsions:
DOCKED: REMARK  status: ('A' for Active; 'I' for Inactive)
DOCKED: REMARK    1  A    between atoms: O_3  and  C_38 
DOCKED: REMARK    2  A    between atoms: O_4  and  C_40 
DOCKED: REMARK    3  A    between atoms: O_7  and  C_46 
DOCKED: REMARK    4  A    between atoms: O_9  and  C_48 
DOCKED: REMARK    5  A    between atoms: C_15  and  C_20 
DOCKED: REMARK    6  A    between atoms: C_16  and  C_23 
DOCKED: REMARK    7  A    between atoms: C_20  and  C_38 
DOCKED: REMARK    8  A    between atoms: C_23  and  C_40 
DOCKED: REMARK    9  A    between atoms: C_32  and  C_41 
DOCKED: REMARK   10  A    between atoms: C_37  and  C_45 
DOCKED: REMARK   11  A    between atoms: C_41  and  C_44 
DOCKED: REMARK   12  A    between atoms: C_44  and  C_46 
DOCKED: REMARK   13  A    between atoms: C_47  and  C_48 
DOCKED: USER                              x       y       z     vdW  Elec       q    Type
DOCKED: USER                           _______ _______ _______ _____ _____    ______ ____
DOCKED: ROOT
DOCKED: ATOM      1  O   UNL d   1      -4.466 -14.965  -5.615 -0.01 +0.04    -0.289 OA
DOCKED: ATOM      2  O   UNL d   1      -4.430 -10.644 -11.757 -0.01 -0.08    -0.289 OA
DOCKED: ATOM      3  N   UNL d   1      -2.630 -12.053  -5.841 -0.08 -0.02    -0.247 NA
DOCKED: ATOM      4  N   UNL d   1      -3.000 -11.230  -8.672 -0.07 -0.07    -0.247 NA
DOCKED: ATOM      5  N   UNL d   1      -0.835  -9.371  -8.318 -0.04 -0.22    -0.354 N 
DOCKED: ATOM      6  N   UNL d   1      -0.445 -10.245  -5.387 -0.10 -0.06    -0.354 N 
DOCKED: ATOM      7  C   UNL d   1      -2.822 -13.853  -4.188 -0.12 -0.01    +0.084 A 
DOCKED: ATOM      8  C   UNL d   1      -5.036 -11.979  -9.797 -0.03 +0.01    +0.084 A 
DOCKED: ATOM      9  C   UNL d   1      -4.129 -12.010  -8.562 -0.06 +0.01    +0.058 A 
DOCKED: ATOM     10  C   UNL d   1      -2.183 -12.530  -4.620 -0.18 -0.00    +0.058 A 
DOCKED: ATOM     11  C   UNL d   1      -3.722 -14.031  -5.373 -0.03 -0.02    +0.193 A 
DOCKED: ATOM     12  C   UNL d   1      -3.533 -12.863  -6.290 -0.07 +0.00    +0.109 A 
DOCKED: ATOM     13  C   UNL d   1      -4.194 -11.065 -10.642 -0.03 +0.05    +0.193 A 
DOCKED: ATOM     14  C   UNL d   1      -1.807 -14.999  -4.161 -0.14 -0.00    +0.026 C 
DOCKED: ATOM     15  C   UNL d   1      -4.390 -12.774  -7.490 -0.06 +0.00    +0.055 C 
DOCKED: ATOM     16  C   UNL d   1      -6.371 -11.286  -9.503 -0.04 +0.01    +0.026 C 
DOCKED: ATOM     17  C   UNL d   1      -2.985 -10.690  -9.848 -0.07 +0.04    +0.109 A 
DOCKED: ATOM     18  C   UNL d   1      -1.332 -11.865  -3.816 -0.27 +0.00    +0.050 C 
DOCKED: ATOM     19  C   UNL d   1      -0.759 -10.598  -4.094 -0.31 +0.00    +0.045 A 
DOCKED: ATOM     20  C   UNL d   1      -0.997  -9.289  -9.676 -0.09 +0.03    +0.045 A 
DOCKED: ATOM     21  C   UNL d   1      -1.950  -9.830 -10.441 -0.08 +0.03    +0.057 C 
DOCKED: ATOM     22  C   UNL d   1       0.862  -8.102  -9.080 -0.18 -0.01    -0.019 A 
DOCKED: ATOM     23  C   UNL d   1       0.261  -8.687  -7.865 -0.19 +0.02    +0.045 A 
DOCKED: ATOM     24  C   UNL d   1       0.112  -8.461 -10.149 -0.12 -0.01    -0.022 A 
DOCKED: ATOM     25  C   UNL d   1       0.179  -9.020  -5.416 -0.29 +0.01    +0.049 A 
DOCKED: ATOM     26  C   UNL d   1      -0.361  -9.559  -3.266 -0.43 -0.00    -0.018 A 
DOCKED: ATOM     27  C   UNL d   1       0.212  -8.558  -4.108 -0.41 +0.00    +0.003 A 
DOCKED: ATOM     28  C   UNL d   1       0.737  -8.515  -6.622 -0.30 +0.02    +0.052 C 
DOCKED: ATOM     29  C   UNL d   1       0.306  -8.109 -11.585 -0.07 +0.02    +0.046 C 
DOCKED: ATOM     30  C   UNL d   1      -0.506  -9.498  -1.783 -0.47 +0.00    +0.046 C 
DOCKED: ATOM     31  H   UNL d   1      -1.524  -9.833  -7.733 +0.03 +0.09    +0.166 HD
DOCKED: ATOM     32  H   UNL d   1      -0.622 -10.840  -6.188 +0.06 +0.03    +0.166 HD
DOCKED: ENDROOT
DOCKED: BRANCH   7  33
DOCKED: ATOM     33  C   UNL d   1      -3.641 -13.796  -2.894 -0.18 -0.05    +0.141 C 
DOCKED: BRANCH  33  34
DOCKED: ATOM     34  C   UNL d   1      -4.784 -12.821  -2.974 -0.19 -0.13    +0.306 C 
DOCKED: ATOM     35  O   UNL d   1      -4.760 -11.725  -3.509 -0.28 +0.07    -0.251 OA
DOCKED: BRANCH  34  36
DOCKED: ATOM     36  O   UNL d   1      -5.899 -13.280  -2.379 -0.14 +0.45    -0.481 OA
DOCKED: ATOM     37  H   UNL d   1      -5.580 -13.957  -1.745 -0.34 -0.53    +0.295 HD
DOCKED: ENDBRANCH  34  36
DOCKED: ENDBRANCH  33  34
DOCKED: ENDBRANCH   7  33
DOCKED: BRANCH  27  38
DOCKED: ATOM     38  C   UNL d   1       0.767  -7.317  -3.656 -0.34 +0.00    +0.017 C 
DOCKED: ATOM     39  C   UNL d   1       2.003  -6.874  -3.933 -0.21 +0.01    +0.092 C 
DOCKED: BRANCH  39  40
DOCKED: ATOM     40  C   UNL d   1       2.444  -5.574  -3.421 -0.15 +0.05    +0.330 C 
DOCKED: ATOM     41  O   UNL d   1       2.456  -5.195  -2.266 -0.32 -0.02    -0.246 OA
DOCKED: BRANCH  40  42
DOCKED: ATOM     42  O   UNL d   1       2.869  -4.800  -4.432 -0.66 -0.15    -0.477 OA
DOCKED: ATOM     43  H   UNL d   1       2.537  -5.256  -5.233 +0.17 +0.12    +0.295 HD
DOCKED: ENDBRANCH  40  42
DOCKED: ENDBRANCH  39  40
DOCKED: ENDBRANCH  27  38
DOCKED: BRANCH   8  44
DOCKED: ATOM     44  C   UNL d   1      -5.252 -13.326 -10.493 -0.01 +0.01    +0.141 C 
DOCKED: BRANCH  44  45
DOCKED: ATOM     45  C   UNL d   1      -3.977 -13.943 -11.003 -0.00 +0.02    +0.306 C 
DOCKED: ATOM     46  O   UNL d   1      -3.252 -14.716 -10.401 -0.00 -0.01    -0.251 OA
DOCKED: BRANCH  45  47
DOCKED: ATOM     47  O   UNL d   1      -3.665 -13.528 -12.244 +0.00 -0.05    -0.481 OA
DOCKED: ATOM     48  H   UNL d   1      -4.185 -12.705 -12.368 +0.01 +0.04    +0.295 HD
DOCKED: ENDBRANCH  45  47
DOCKED: ENDBRANCH  44  45
DOCKED: ENDBRANCH   8  44
DOCKED: BRANCH  22  49
DOCKED: ATOM     49  C   UNL d   1       2.109  -7.268  -9.085 -0.20 +0.02    +0.048 C 
DOCKED: BRANCH  49  50
DOCKED: ATOM     50  C   UNL d   1       1.873  -5.888  -8.471 -0.19 +0.06    +0.125 C 
DOCKED: BRANCH  50  51
DOCKED: ATOM     51  C   UNL d   1       2.868  -5.610  -7.380 -0.19 +0.08    +0.305 C 
DOCKED: ATOM     52  O   UNL d   1       3.412  -4.550  -7.123 -0.25 -0.05    -0.251 OA
DOCKED: BRANCH  51  53
DOCKED: ATOM     53  O   UNL d   1       3.143  -6.712  -6.655 -0.04 -0.10    -0.481 OA
DOCKED: ATOM     54  H   UNL d   1       3.535  -6.362  -5.828 +0.16 +0.04    +0.295 HD
DOCKED: ENDBRANCH  51  53
DOCKED: ENDBRANCH  50  51
DOCKED: ENDBRANCH  49  50
DOCKED: ENDBRANCH  22  49
DOCKED: TORSDOF 13
DOCKED: TER
DOCKED: ENDMDL
________________________________________________________________________________


	BEGINNING GENETIC ALGORITHM DOCKING 6 of 100
Run: 6 Seed: 1552041131 1016634581 [ Run 6 of 100 GA/GALS ]
Beginning LAMARCKIAN GENETIC ALGORITHM (LGA), with a maximum of 25000000 energy evaluations.

Final-Value: -11.711


	FINAL GENETIC ALGORITHM DOCKED STATE
	_______________________________________________


Detailed state:  trans 2.275 16.407 -5.970 quatxyzw -0.833441 -0.188691 0.448133 0.262580 center 0.153 0.018 -0.028 ntor 13 179.2143 141.2274 113.4240 39.6550 -149.3712 -35.3847 -47.1307 180.0000 33.0264 -131.6224 70.1516 -22.7398 121.9666
State:	  2.275  16.407  -5.970  -0.864 -0.196  0.464 149.554    179.21  141.23  113.42   39.65 -149.37  -35.38  -47.13  180.00   33.03 -131.62   70.15  -22.74  121.97

DOCKED: MODEL        6
DOCKED: USER    Run = 6
DOCKED: USER    DPF = D:/Protein_go_brrr/autodock/final/1A3N/heme/dock.dpf
DOCKED: USER  
DOCKED: USER    Estimated Free Energy of Binding    =   -3.60 kcal/mol  [=(1)+(2)+(3)-(4)]
DOCKED: USER    Estimated Inhibition Constant, Ki   =    2.30 mM (millimolar)  [Temperature = 298.15 K]
DOCKED: USER    
DOCKED: USER    (1) Final Intermolecular Energy     =   -7.48 kcal/mol
DOCKED: USER        vdW + Hbond + desolv Energy     =   -7.46 kcal/mol
DOCKED: USER        Electrostatic Energy            =   -0.02 kcal/mol
DOCKED: USER    (2) Final Total Internal Energy     =   -4.23 kcal/mol
DOCKED: USER    (3) Torsional Free Energy           =   +3.88 kcal/mol
DOCKED: USER    (4) Unbound System's Energy  [=(2)] =   -4.23 kcal/mol
DOCKED: USER    
DOCKED: USER    
DOCKED: USER    NEWDPF move heme_opt.pdbqt
DOCKED: USER    NEWDPF about 0.153000 0.018000 -0.028000
DOCKED: USER    NEWDPF tran0 2.275479 16.407360 -5.969936
DOCKED: USER    NEWDPF quaternion0 -0.833441 -0.188691 0.448133 0.262580
DOCKED: USER    NEWDPF axisangle0 -0.863750 -0.195553 0.464430 149.553563
DOCKED: USER    NEWDPF quat0 -0.863750 -0.195553 0.464430 149.553563
DOCKED: USER    NEWDPF dihe0 179.21 141.23 113.42 39.65 -149.37 -35.38 -47.13 180.00 33.03 -131.62 70.15 -22.74 121.97 
DOCKED: USER  keepresnum = 1 
DOCKED: USER  
DOCKED: REMARK  13 active torsions:
DOCKED: REMARK  status: ('A' for Active; 'I' for Inactive)
DOCKED: REMARK    1  A    between atoms: O_3  and  C_38 
DOCKED: REMARK    2  A    between atoms: O_4  and  C_40 
DOCKED: REMARK    3  A    between atoms: O_7  and  C_46 
DOCKED: REMARK    4  A    between atoms: O_9  and  C_48 
DOCKED: REMARK    5  A    between atoms: C_15  and  C_20 
DOCKED: REMARK    6  A    between atoms: C_16  and  C_23 
DOCKED: REMARK    7  A    between atoms: C_20  and  C_38 
DOCKED: REMARK    8  A    between atoms: C_23  and  C_40 
DOCKED: REMARK    9  A    between atoms: C_32  and  C_41 
DOCKED: REMARK   10  A    between atoms: C_37  and  C_45 
DOCKED: REMARK   11  A    between atoms: C_41  and  C_44 
DOCKED: REMARK   12  A    between atoms: C_44  and  C_46 
DOCKED: REMARK   13  A    between atoms: C_47  and  C_48 
DOCKED: USER                              x       y       z     vdW  Elec       q    Type
DOCKED: USER                           _______ _______ _______ _____ _____    ______ ____
DOCKED: ROOT
DOCKED: ATOM      1  O   UNL d   1      -0.173  14.234  -1.067 -0.20 +0.01    -0.289 OA
DOCKED: ATOM      2  O   UNL d   1      -0.767  20.988  -4.296 -0.02 +0.01    -0.289 OA
DOCKED: ATOM      3  N   UNL d   1       1.581  15.109  -3.905 -0.17 +0.06    -0.247 NA
DOCKED: ATOM      4  N   UNL d   1       0.487  17.786  -4.586 -0.14 +0.05    -0.247 NA
DOCKED: ATOM      5  N   UNL d   1       1.753  17.546  -7.157 +0.01 +0.11    -0.354 N 
DOCKED: ATOM      6  N   UNL d   1       2.868  14.761  -6.449 -0.10 +0.11    -0.354 N 
DOCKED: ATOM      7  C   UNL d   1       1.289  13.041  -2.621 -0.43 -0.01    +0.084 A 
DOCKED: ATOM      8  C   UNL d   1      -0.442  19.112  -2.757 -0.10 -0.00    +0.084 A 
DOCKED: ATOM      9  C   UNL d   1       0.156  17.791  -3.250 -0.19 -0.00    +0.058 A 
DOCKED: ATOM     10  C   UNL d   1       1.913  13.767  -3.817 -0.34 -0.01    +0.058 A 
DOCKED: ATOM     11  C   UNL d   1       0.561  14.215  -2.038 -0.26 -0.02    +0.193 A 
DOCKED: ATOM     12  C   UNL d   1       0.838  15.414  -2.892 -0.25 -0.01    +0.109 A 
DOCKED: ATOM     13  C   UNL d   1      -0.424  19.844  -4.070 -0.06 -0.01    +0.193 A 
DOCKED: ATOM     14  C   UNL d   1       0.265  11.990  -3.057 -0.72 -0.00    +0.026 C 
DOCKED: ATOM     15  C   UNL d   1       0.296  16.717  -2.457 -0.21 -0.00    +0.055 C 
DOCKED: ATOM     16  C   UNL d   1       0.494  19.831  -1.780 -0.05 -0.00    +0.026 C 
DOCKED: ATOM     17  C   UNL d   1       0.155  18.928  -5.098 -0.13 -0.01    +0.109 A 
DOCKED: ATOM     18  C   UNL d   1       2.778  13.148  -4.642 -0.38 -0.01    +0.050 C 
DOCKED: ATOM     19  C   UNL d   1       3.467  13.759  -5.720 -0.25 -0.01    +0.045 A 
DOCKED: ATOM     20  C   UNL d   1       0.988  18.663  -7.374 -0.14 -0.01    +0.045 A 
DOCKED: ATOM     21  C   UNL d   1       0.258  19.362  -6.499 -0.13 -0.01    +0.057 C 
DOCKED: ATOM     22  C   UNL d   1       1.948  18.030  -9.348 -0.10 +0.00    -0.019 A 
DOCKED: ATOM     23  C   UNL d   1       2.371  17.091  -8.291 -0.12 -0.01    +0.045 A 
DOCKED: ATOM     24  C   UNL d   1       1.130  18.959  -8.799 -0.10 +0.00    -0.022 A 
DOCKED: ATOM     25  C   UNL d   1       3.673  15.145  -7.496 -0.14 -0.01    +0.049 A 
DOCKED: ATOM     26  C   UNL d   1       4.708  13.511  -6.286 -0.16 +0.00    -0.018 A 
DOCKED: ATOM     27  C   UNL d   1       4.841  14.402  -7.395 -0.09 -0.00    +0.003 A 
DOCKED: ATOM     28  C   UNL d   1       3.202  16.055  -8.482 -0.14 -0.01    +0.052 C 
DOCKED: ATOM     29  C   UNL d   1       0.461  20.118  -9.456 -0.04 -0.00    +0.046 C 
DOCKED: ATOM     30  C   UNL d   1       5.712  12.509  -5.825 -0.22 -0.01    +0.046 C 
DOCKED: ATOM     31  H   UNL d   1       1.887  17.174  -6.223 -0.36 -0.07    +0.166 HD
DOCKED: ATOM     32  H   UNL d   1       1.942  15.123  -6.249 -0.35 -0.12    +0.166 HD
DOCKED: ENDROOT
DOCKED: BRANCH   7  33
DOCKED: ATOM     33  C   UNL d   1       2.285  12.469  -1.607 -0.40 -0.02    +0.141 C 
DOCKED: BRANCH  33  34
DOCKED: ATOM     34  C   UNL d   1       2.799  13.509  -0.649 -0.18 -0.06    +0.306 C 
DOCKED: ATOM     35  O   UNL d   1       3.833  14.145  -0.764 -0.17 +0.04    -0.251 OA
DOCKED: BRANCH  34  36
DOCKED: ATOM     36  O   UNL d   1       1.981  13.696   0.401 -0.10 +0.14    -0.481 OA
DOCKED: ATOM     37  H   UNL d   1       1.212  13.113   0.222 -0.15 -0.09    +0.295 HD
DOCKED: ENDBRANCH  34  36
DOCKED: ENDBRANCH  33  34
DOCKED: ENDBRANCH   7  33
DOCKED: BRANCH  27  38
DOCKED: ATOM     38  C   UNL d   1       5.972  14.468  -8.270 -0.05 -0.00    +0.017 C 
DOCKED: ATOM     39  C   UNL d   1       6.224  15.460  -9.137 -0.02 -0.00    +0.092 C 
DOCKED: BRANCH  39  40
DOCKED: ATOM     40  C   UNL d   1       7.430  15.416  -9.967 -0.00 +0.01    +0.330 C 
DOCKED: ATOM     41  O   UNL d   1       8.535  15.016  -9.652 -0.04 -0.02    -0.246 OA
DOCKED: BRANCH  40  42
DOCKED: ATOM     42  O   UNL d   1       7.164  15.888 -11.195 +0.00 -0.01    -0.477 OA
DOCKED: ATOM     43  H   UNL d   1       6.270  15.539 -11.391 +0.01 -0.00    +0.295 HD
DOCKED: ENDBRANCH  40  42
DOCKED: ENDBRANCH  39  40
DOCKED: ENDBRANCH  27  38
DOCKED: BRANCH   8  44
DOCKED: ATOM     44  C   UNL d   1      -1.866  19.025  -2.197 -0.13 -0.00    +0.141 C 
DOCKED: BRANCH  44  45
DOCKED: ATOM     45  C   UNL d   1      -2.392  20.345  -1.700 -0.03 -0.01    +0.306 C 
DOCKED: ATOM     46  O   UNL d   1      -2.303  20.782  -0.566 -0.03 +0.01    -0.251 OA
DOCKED: BRANCH  45  47
DOCKED: ATOM     47  O   UNL d   1      -3.031  21.038  -2.660 +0.00 +0.02    -0.481 OA
DOCKED: ATOM     48  H   UNL d   1      -2.328  21.283  -3.299 +0.03 -0.01    +0.295 HD
DOCKED: ENDBRANCH  45  47
DOCKED: ENDBRANCH  44  45
DOCKED: ENDBRANCH   8  44
DOCKED: BRANCH  22  49
DOCKED: ATOM     49  C   UNL d   1       2.366  17.925 -10.785 -0.05 -0.00    +0.048 C 
DOCKED: BRANCH  49  50
DOCKED: ATOM     50  C   UNL d   1       2.415  16.472 -11.258 -0.07 -0.01    +0.125 C 
DOCKED: BRANCH  50  51
DOCKED: ATOM     51  C   UNL d   1       3.834  16.023 -11.464 -0.01 -0.02    +0.305 C 
DOCKED: ATOM     52  O   UNL d   1       4.226  14.902 -11.734 -0.01 +0.02    -0.251 OA
DOCKED: BRANCH  51  53
DOCKED: ATOM     53  O   UNL d   1       4.711  17.034 -11.304 +0.00 +0.02    -0.481 OA
DOCKED: ATOM     54  H   UNL d   1       5.379  16.883 -12.005 +0.01 -0.01    +0.295 HD
DOCKED: ENDBRANCH  51  53
DOCKED: ENDBRANCH  50  51
DOCKED: ENDBRANCH  49  50
DOCKED: ENDBRANCH  22  49
DOCKED: TORSDOF 13
DOCKED: TER
DOCKED: ENDMDL
________________________________________________________________________________


	BEGINNING GENETIC ALGORITHM DOCKING 7 of 100
Run: 7 Seed: 235534514 1206538824 [ Run 7 of 100 GA/GALS ]
Beginning LAMARCKIAN GENETIC ALGORITHM (LGA), with a maximum of 25000000 energy evaluations.

Final-Value: -10.916


	FINAL GENETIC ALGORITHM DOCKED STATE
	_______________________________________________


Detailed state:  trans 17.315 -23.656 16.896 quatxyzw -0.222988 0.439405 -0.382509 -0.781592 center 0.153 0.018 -0.028 ntor 13 -96.4782 143.9803 -21.9548 15.2269 32.3265 76.8061 111.8003 -140.0886 126.5755 7.4824 60.8404 -103.9361 114.9317
State:	 17.315 -23.656  16.896  -0.357  0.704 -0.613 -77.187    -96.48  143.98  -21.95   15.23   32.33   76.81  111.80 -140.09  126.58    7.48   60.84 -103.94  114.93

DOCKED: MODEL        7
DOCKED: USER    Run = 7
DOCKED: USER    DPF = D:/Protein_go_brrr/autodock/final/1A3N/heme/dock.dpf
DOCKED: USER  
DOCKED: USER    Estimated Free Energy of Binding    =   -3.39 kcal/mol  [=(1)+(2)+(3)-(4)]
DOCKED: USER    Estimated Inhibition Constant, Ki   =    3.30 mM (millimolar)  [Temperature = 298.15 K]
DOCKED: USER    
DOCKED: USER    (1) Final Intermolecular Energy     =   -7.26 kcal/mol
DOCKED: USER        vdW + Hbond + desolv Energy     =   -7.09 kcal/mol
DOCKED: USER        Electrostatic Energy            =   -0.18 kcal/mol
DOCKED: USER    (2) Final Total Internal Energy     =   -3.65 kcal/mol
DOCKED: USER    (3) Torsional Free Energy           =   +3.88 kcal/mol
DOCKED: USER    (4) Unbound System's Energy  [=(2)] =   -3.65 kcal/mol
DOCKED: USER    
DOCKED: USER    
DOCKED: USER    NEWDPF move heme_opt.pdbqt
DOCKED: USER    NEWDPF about 0.153000 0.018000 -0.028000
DOCKED: USER    NEWDPF tran0 17.314903 -23.656127 16.895715
DOCKED: USER    NEWDPF quaternion0 -0.222988 0.439405 -0.382509 -0.781592
DOCKED: USER    NEWDPF axisangle0 -0.357473 0.704413 -0.613201 -77.186836
DOCKED: USER    NEWDPF quat0 -0.357473 0.704413 -0.613201 -77.186836
DOCKED: USER    NEWDPF dihe0 -96.48 143.98 -21.95 15.23 32.33 76.81 111.80 -140.09 126.58 7.48 60.84 -103.94 114.93 
DOCKED: USER  keepresnum = 1 
DOCKED: USER  
DOCKED: REMARK  13 active torsions:
DOCKED: REMARK  status: ('A' for Active; 'I' for Inactive)
DOCKED: REMARK    1  A    between atoms: O_3  and  C_38 
DOCKED: REMARK    2  A    between atoms: O_4  and  C_40 
DOCKED: REMARK    3  A    between atoms: O_7  and  C_46 
DOCKED: REMARK    4  A    between atoms: O_9  and  C_48 
DOCKED: REMARK    5  A    between atoms: C_15  and  C_20 
DOCKED: REMARK    6  A    between atoms: C_16  and  C_23 
DOCKED: REMARK    7  A    between atoms: C_20  and  C_38 
DOCKED: REMARK    8  A    between atoms: C_23  and  C_40 
DOCKED: REMARK    9  A    between atoms: C_32  and  C_41 
DOCKED: REMARK   10  A    between atoms: C_37  and  C_45 
DOCKED: REMARK   11  A    between atoms: C_41  and  C_44 
DOCKED: REMARK   12  A    between atoms: C_44  and  C_46 
DOCKED: REMARK   13  A    between atoms: C_47  and  C_48 
DOCKED: USER                              x       y       z     vdW  Elec       q    Type
DOCKED: USER                           _______ _______ _______ _____ _____    ______ ____
DOCKED: ROOT
DOCKED: ATOM      1  O   UNL d   1      16.747 -18.167  18.969 -0.39 -0.20    -0.289 OA
DOCKED: ATOM      2  O   UNL d   1      13.160 -24.512  20.773 -0.01 -0.03    -0.289 OA
DOCKED: ATOM      3  N   UNL d   1      17.332 -21.164  17.366 -0.13 -0.03    -0.247 NA
DOCKED: ATOM      4  N   UNL d   1      15.717 -23.104  18.934 -0.08 -0.02    -0.247 NA
DOCKED: ATOM      5  N   UNL d   1      17.139 -25.220  17.605 -0.05 +0.07    -0.354 N 
DOCKED: ATOM      6  N   UNL d   1      18.823 -23.200  15.996 +0.01 +0.15    -0.354 N 
DOCKED: ATOM      7  C   UNL d   1      18.343 -18.933  17.284 -0.27 +0.02    +0.084 A 
DOCKED: ATOM      8  C   UNL d   1      13.770 -22.232  20.126 -0.09 +0.03    +0.084 A 
DOCKED: ATOM      9  C   UNL d   1      15.021 -21.968  19.281 -0.15 +0.02    +0.058 A 
DOCKED: ATOM     10  C   UNL d   1      18.318 -20.382  16.789 -0.25 +0.00    +0.058 A 
DOCKED: ATOM     11  C   UNL d   1      17.184 -19.029  18.229 -0.26 +0.09    +0.193 A 
DOCKED: ATOM     12  C   UNL d   1      16.640 -20.423  18.170 -0.23 +0.04    +0.109 A 
DOCKED: ATOM     13  C   UNL d   1      13.906 -23.725  20.225 -0.02 +0.03    +0.193 A 
DOCKED: ATOM     14  C   UNL d   1      19.610 -18.621  18.084 -0.21 +0.01    +0.026 C 
DOCKED: ATOM     15  C   UNL d   1      15.428 -20.731  18.954 -0.26 +0.03    +0.055 C 
DOCKED: ATOM     16  C   UNL d   1      12.486 -21.904  19.358 -0.09 +0.01    +0.026 C 
DOCKED: ATOM     17  C   UNL d   1      15.130 -24.127  19.467 -0.07 +0.01    +0.109 A 
DOCKED: ATOM     18  C   UNL d   1      19.139 -20.804  15.809 -0.29 -0.01    +0.050 C 
DOCKED: ATOM     19  C   UNL d   1      19.131 -22.099  15.230 -0.22 -0.02    +0.045 A 
DOCKED: ATOM     20  C   UNL d   1      16.479 -25.945  18.563 -0.08 -0.00    +0.045 A 
DOCKED: ATOM     21  C   UNL d   1      15.542 -25.537  19.425 -0.07 -0.00    +0.057 C 
DOCKED: ATOM     22  C   UNL d   1      17.937 -27.322  17.469 -0.07 +0.00    -0.019 A 
DOCKED: ATOM     23  C   UNL d   1      18.040 -25.966  16.893 -0.12 -0.01    +0.045 A 
DOCKED: ATOM     24  C   UNL d   1      17.010 -27.303  18.456 -0.05 +0.00    -0.022 A 
DOCKED: ATOM     25  C   UNL d   1      18.963 -24.355  15.261 -0.15 -0.03    +0.049 A 
DOCKED: ATOM     26  C   UNL d   1      19.444 -22.546  13.956 -0.19 +0.01    -0.018 A 
DOCKED: ATOM     27  C   UNL d   1      19.317 -23.969  13.976 -0.13 -0.00    +0.003 A 
DOCKED: ATOM     28  C   UNL d   1      18.852 -25.630  15.879 -0.17 -0.02    +0.052 C 
DOCKED: ATOM     29  C   UNL d   1      16.546 -28.425  19.321 -0.02 -0.00    +0.046 C 
DOCKED: ATOM     30  C   UNL d   1      19.835 -21.704  12.788 -0.16 -0.01    +0.046 C 
DOCKED: ATOM     31  H   UNL d   1      16.897 -24.253  17.418 -0.04 -0.03    +0.166 HD
DOCKED: ATOM     32  H   UNL d   1      18.570 -23.149  16.976 -0.36 -0.09    +0.166 HD
DOCKED: ENDROOT
DOCKED: BRANCH   7  33
DOCKED: ATOM     33  C   UNL d   1      18.077 -17.868  16.214 -0.13 +0.04    +0.141 C 
DOCKED: BRANCH  33  34
DOCKED: ATOM     34  C   UNL d   1      17.979 -16.481  16.789 -0.13 +0.11    +0.306 C 
DOCKED: ATOM     35  O   UNL d   1      18.909 -15.720  16.997 -0.23 -0.08    -0.251 OA
DOCKED: BRANCH  34  36
DOCKED: ATOM     36  O   UNL d   1      16.713 -16.125  17.069 -0.03 -0.26    -0.481 OA
DOCKED: ATOM     37  H   UNL d   1      16.525 -16.543  17.936 +0.15 +0.20    +0.295 HD
DOCKED: ENDBRANCH  34  36
DOCKED: ENDBRANCH  33  34
DOCKED: ENDBRANCH   7  33
DOCKED: BRANCH  27  38
DOCKED: ATOM     38  C   UNL d   1      19.566 -24.835  12.863 -0.12 -0.01    +0.017 C 
DOCKED: ATOM     39  C   UNL d   1      20.570 -25.721  12.781 -0.10 -0.05    +0.092 C 
DOCKED: BRANCH  39  40
DOCKED: ATOM     40  C   UNL d   1      20.704 -26.564  11.590 -0.01 -0.09    +0.330 C 
DOCKED: ATOM     41  O   UNL d   1      21.104 -26.237  10.489 -0.02 +0.04    -0.246 OA
DOCKED: BRANCH  40  42
DOCKED: ATOM     42  O   UNL d   1      20.320 -27.820  11.867 +0.00 +0.09    -0.477 OA
DOCKED: ATOM     43  H   UNL d   1      20.623 -27.960  12.788 +0.02 -0.08    +0.295 HD
DOCKED: ENDBRANCH  40  42
DOCKED: ENDBRANCH  39  40
DOCKED: ENDBRANCH  27  38
DOCKED: BRANCH   8  44
DOCKED: ATOM     44  C   UNL d   1      13.764 -21.588  21.516 -0.19 +0.05    +0.141 C 
DOCKED: BRANCH  44  45
DOCKED: ATOM     45  C   UNL d   1      15.087 -21.696  22.227 -0.15 +0.06    +0.306 C 
DOCKED: ATOM     46  O   UNL d   1      16.127 -21.143  21.915 -0.70 -0.09    -0.251 OA
DOCKED: BRANCH  45  47
DOCKED: ATOM     47  O   UNL d   1      15.036 -22.524  23.286 -0.12 -0.02    -0.481 OA
DOCKED: ATOM     48  H   UNL d   1      15.965 -22.805  23.427 -0.45 -0.10    +0.295 HD
DOCKED: ENDBRANCH  45  47
DOCKED: ENDBRANCH  44  45
DOCKED: ENDBRANCH   8  44
DOCKED: BRANCH  22  49
DOCKED: ATOM     49  C   UNL d   1      18.757 -28.494  17.016 -0.05 -0.01    +0.048 C 
DOCKED: BRANCH  49  50
DOCKED: ATOM     50  C   UNL d   1      20.138 -28.066  16.523 -0.09 -0.04    +0.125 C 
DOCKED: BRANCH  50  51
DOCKED: ATOM     51  C   UNL d   1      20.326 -28.422  15.075 -0.04 -0.10    +0.305 C 
DOCKED: ATOM     52  O   UNL d   1      21.356 -28.760  14.520 -0.04 +0.09    -0.251 OA
DOCKED: BRANCH  51  53
DOCKED: ATOM     53  O   UNL d   1      19.176 -28.319  14.378 +0.00 +0.10    -0.481 OA
DOCKED: ATOM     54  H   UNL d   1      19.362 -28.796  13.542 +0.02 -0.05    +0.295 HD
DOCKED: ENDBRANCH  51  53
DOCKED: ENDBRANCH  50  51
DOCKED: ENDBRANCH  49  50
DOCKED: ENDBRANCH  22  49
DOCKED: TORSDOF 13
DOCKED: TER
DOCKED: ENDMDL
________________________________________________________________________________


	BEGINNING GENETIC ALGORITHM DOCKING 8 of 100
Run: 8 Seed: 1373911599 1855085088 [ Run 8 of 100 GA/GALS ]
Beginning LAMARCKIAN GENETIC ALGORITHM (LGA), with a maximum of 25000000 energy evaluations.

Final-Value: -9.791


	FINAL GENETIC ALGORITHM DOCKED STATE
	_______________________________________________


Detailed state:  trans 6.649 17.763 -1.596 quatxyzw 0.170301 0.532625 -0.316983 -0.766048 center 0.153 0.018 -0.028 ntor 13 91.5839 -53.1708 -119.6126 -13.7565 -148.5788 -91.3025 38.0094 161.8319 65.1306 -124.0977 -59.6817 -174.4924 -167.3888
State:	  6.649  17.763  -1.596   0.265  0.829 -0.493 -79.999     91.58  -53.17 -119.61  -13.76 -148.58  -91.30   38.01  161.83   65.13 -124.10  -59.68 -174.49 -167.39

DOCKED: MODEL        8
DOCKED: USER    Run = 8
DOCKED: USER    DPF = D:/Protein_go_brrr/autodock/final/1A3N/heme/dock.dpf
DOCKED: USER  
DOCKED: USER    Estimated Free Energy of Binding    =   -4.45 kcal/mol  [=(1)+(2)+(3)-(4)]
DOCKED: USER    Estimated Inhibition Constant, Ki   =  548.48 uM (micromolar)  [Temperature = 298.15 K]
DOCKED: USER    
DOCKED: USER    (1) Final Intermolecular Energy     =   -8.33 kcal/mol
DOCKED: USER        vdW + Hbond + desolv Energy     =   -7.71 kcal/mol
DOCKED: USER        Electrostatic Energy            =   -0.61 kcal/mol
DOCKED: USER    (2) Final Total Internal Energy     =   -1.46 kcal/mol
DOCKED: USER    (3) Torsional Free Energy           =   +3.88 kcal/mol
DOCKED: USER    (4) Unbound System's Energy  [=(2)] =   -1.46 kcal/mol
DOCKED: USER    
DOCKED: USER    
DOCKED: USER    NEWDPF move heme_opt.pdbqt
DOCKED: USER    NEWDPF about 0.153000 0.018000 -0.028000
DOCKED: USER    NEWDPF tran0 6.648971 17.762661 -1.596301
DOCKED: USER    NEWDPF quaternion0 0.170301 0.532625 -0.316983 -0.766048
DOCKED: USER    NEWDPF axisangle0 0.264943 0.828624 -0.493141 -79.999348
DOCKED: USER    NEWDPF quat0 0.264943 0.828624 -0.493141 -79.999348
DOCKED: USER    NEWDPF dihe0 91.58 -53.17 -119.61 -13.76 -148.58 -91.30 38.01 161.83 65.13 -124.10 -59.68 -174.49 -167.39 
DOCKED: USER  keepresnum = 1 
DOCKED: USER  
DOCKED: REMARK  13 active torsions:
DOCKED: REMARK  status: ('A' for Active; 'I' for Inactive)
DOCKED: REMARK    1  A    between atoms: O_3  and  C_38 
DOCKED: REMARK    2  A    between atoms: O_4  and  C_40 
DOCKED: REMARK    3  A    between atoms: O_7  and  C_46 
DOCKED: REMARK    4  A    between atoms: O_9  and  C_48 
DOCKED: REMARK    5  A    between atoms: C_15  and  C_20 
DOCKED: REMARK    6  A    between atoms: C_16  and  C_23 
DOCKED: REMARK    7  A    between atoms: C_20  and  C_38 
DOCKED: REMARK    8  A    between atoms: C_23  and  C_40 
DOCKED: REMARK    9  A    between atoms: C_32  and  C_41 
DOCKED: REMARK   10  A    between atoms: C_37  and  C_45 
DOCKED: REMARK   11  A    between atoms: C_41  and  C_44 
DOCKED: REMARK   12  A    between atoms: C_44  and  C_46 
DOCKED: REMARK   13  A    between atoms: C_47  and  C_48 
DOCKED: USER                              x       y       z     vdW  Elec       q    Type
DOCKED: USER                           _______ _______ _______ _____ _____    ______ ____
DOCKED: ROOT
DOCKED: ATOM      1  O   UNL d   1       6.935  20.333   3.701 -0.40 -0.26    -0.289 OA
DOCKED: ATOM      2  O   UNL d   1       1.683  15.925   0.639 -0.06 +0.05    -0.289 OA
DOCKED: ATOM      3  N   UNL d   1       7.139  19.154   0.467 -0.08 +0.06    -0.247 NA
DOCKED: ATOM      4  N   UNL d   1       4.826  17.300   0.268 -0.08 +0.11    -0.247 NA
DOCKED: ATOM      5  N   UNL d   1       5.971  16.281  -2.165 -0.02 +0.07    -0.354 N 
DOCKED: ATOM      6  N   UNL d   1       8.377  18.194  -1.941 -0.04 +0.05    -0.354 N 
DOCKED: ATOM      7  C   UNL d   1       8.631  20.419   1.944 -0.21 +0.02    +0.084 A 
DOCKED: ATOM      8  C   UNL d   1       2.926  17.721   1.745 -0.16 -0.03    +0.084 A 
DOCKED: ATOM      9  C   UNL d   1       4.353  18.067   1.309 -0.15 -0.02    +0.058 A 
DOCKED: ATOM     10  C   UNL d   1       8.379  19.760   0.584 -0.12 -0.00    +0.058 A 
DOCKED: ATOM     11  C   UNL d   1       7.308  20.094   2.568 -0.24 +0.07    +0.193 A 
DOCKED: ATOM     12  C   UNL d   1       6.483  19.349   1.564 -0.17 -0.01    +0.109 A 
DOCKED: ATOM     13  C   UNL d   1       2.690  16.591   0.783 -0.05 -0.05    +0.193 A 
DOCKED: ATOM     14  C   UNL d   1       9.737  19.709   2.730 -0.38 +0.01    +0.026 C 
DOCKED: ATOM     15  C   UNL d   1       5.094  19.001   1.925 -0.25 -0.01    +0.055 C 
DOCKED: ATOM     16  C   UNL d   1       1.945  18.853   1.425 -0.17 -0.01    +0.026 C 
DOCKED: ATOM     17  C   UNL d   1       3.920  16.432  -0.050 -0.10 -0.03    +0.109 A 
DOCKED: ATOM     18  C   UNL d   1       9.269  19.859  -0.421 -0.12 -0.00    +0.050 C 
DOCKED: ATOM     19  C   UNL d   1       9.086  19.356  -1.734 -0.09 -0.00    +0.045 A 
DOCKED: ATOM     20  C   UNL d   1       4.974  15.360  -1.970 -0.12 -0.01    +0.045 A 
DOCKED: ATOM     21  C   UNL d   1       3.996  15.365  -1.059 -0.17 -0.01    +0.057 C 
DOCKED: ATOM     22  C   UNL d   1       6.274  14.681  -3.721 -0.13 +0.00    -0.019 A 
DOCKED: ATOM     23  C   UNL d   1       6.806  15.956  -3.200 -0.11 -0.01    +0.045 A 
DOCKED: ATOM     24  C   UNL d   1       5.188  14.334  -2.990 -0.15 +0.00    -0.022 A 
DOCKED: ATOM     25  C   UNL d   1       8.400  17.844  -3.271 -0.11 -0.00    +0.049 A 
DOCKED: ATOM     26  C   UNL d   1       9.550  19.792  -2.965 -0.10 +0.00    -0.018 A 
DOCKED: ATOM     27  C   UNL d   1       9.098  18.844  -3.935 -0.09 -0.00    +0.003 A 
DOCKED: ATOM     28  C   UNL d   1       7.869  16.599  -3.706 -0.15 -0.01    +0.052 C 
DOCKED: ATOM     29  C   UNL d   1       4.305  13.142  -3.138 -0.16 -0.00    +0.046 C 
DOCKED: ATOM     30  C   UNL d   1      10.363  21.014  -3.229 -0.07 +0.00    +0.046 C 
DOCKED: ATOM     31  H   UNL d   1       6.004  17.141  -1.629 +0.04 -0.04    +0.166 HD
DOCKED: ATOM     32  H   UNL d   1       7.941  17.664  -1.196 +0.06 -0.04    +0.166 HD
DOCKED: ENDROOT
DOCKED: BRANCH   7  33
DOCKED: ATOM     33  C   UNL d   1       8.851  21.935   1.909 -0.15 +0.04    +0.141 C 
DOCKED: BRANCH  33  34
DOCKED: ATOM     34  C   UNL d   1       7.737  22.697   2.574 -0.16 +0.11    +0.306 C 
DOCKED: ATOM     35  O   UNL d   1       6.762  23.176   2.021 -0.15 -0.09    -0.251 OA
DOCKED: BRANCH  34  36
DOCKED: ATOM     36  O   UNL d   1       7.910  22.814   3.903 -0.23 -0.24    -0.481 OA
DOCKED: ATOM     37  H   UNL d   1       7.453  22.032   4.280 +0.12 +0.16    +0.295 HD
DOCKED: ENDBRANCH  34  36
DOCKED: ENDBRANCH  33  34
DOCKED: ENDBRANCH   7  33
DOCKED: BRANCH  27  38
DOCKED: ATOM     38  C   UNL d   1       9.370  18.905  -5.339 -0.11 -0.00    +0.017 C 
DOCKED: ATOM     39  C   UNL d   1      10.553  19.226  -5.885 -0.08 -0.00    +0.092 C 
DOCKED: BRANCH  39  40
DOCKED: ATOM     40  C   UNL d   1      10.706  19.236  -7.342 -0.08 -0.01    +0.330 C 
DOCKED: ATOM     41  O   UNL d   1      11.098  18.331  -8.055 -0.13 -0.00    -0.246 OA
DOCKED: BRANCH  40  42
DOCKED: ATOM     42  O   UNL d   1      10.333  20.426  -7.838 +0.00 +0.01    -0.477 OA
DOCKED: ATOM     43  H   UNL d   1      11.103  20.708  -8.374 +0.03 -0.01    +0.295 HD
DOCKED: ENDBRANCH  40  42
DOCKED: ENDBRANCH  39  40
DOCKED: ENDBRANCH  27  38
DOCKED: BRANCH   8  44
DOCKED: ATOM     44  C   UNL d   1       2.773  17.249   3.194 -0.23 -0.10    +0.141 C 
DOCKED: BRANCH  44  45
DOCKED: ATOM     45  C   UNL d   1       1.380  16.782   3.524 -0.17 -0.20    +0.306 C 
DOCKED: ATOM     46  O   UNL d   1       0.401  16.850   2.802 -0.21 +0.09    -0.251 OA
DOCKED: BRANCH  45  47
DOCKED: ATOM     47  O   UNL d   1       1.288  16.274   4.766 -0.16 +0.39    -0.481 OA
DOCKED: ATOM     48  H   UNL d   1       1.559  17.010   5.356 -0.25 -0.54    +0.295 HD
DOCKED: ENDBRANCH  45  47
DOCKED: ENDBRANCH  44  45
DOCKED: ENDBRANCH   8  44
DOCKED: BRANCH  22  49
DOCKED: ATOM     49  C   UNL d   1       6.878  13.920  -4.865 -0.17 -0.00    +0.048 C 
DOCKED: BRANCH  49  50
DOCKED: ATOM     50  C   UNL d   1       7.554  12.631  -4.396 -0.29 -0.01    +0.125 C 
DOCKED: BRANCH  50  51
DOCKED: ATOM     51  C   UNL d   1       6.945  11.432  -5.067 -0.25 +0.00    +0.305 C 
DOCKED: ATOM     52  O   UNL d   1       7.461  10.345  -5.256 -0.63 -0.07    -0.251 OA
DOCKED: BRANCH  51  53
DOCKED: ATOM     53  O   UNL d   1       5.687  11.674  -5.486 -0.08 +0.09    -0.481 OA
DOCKED: ATOM     54  H   UNL d   1       5.492  10.930  -6.093 -0.17 -0.11    +0.295 HD
DOCKED: ENDBRANCH  51  53
DOCKED: ENDBRANCH  50  51
DOCKED: ENDBRANCH  49  50
DOCKED: ENDBRANCH  22  49
DOCKED: TORSDOF 13
DOCKED: TER
DOCKED: ENDMDL
________________________________________________________________________________


	BEGINNING GENETIC ALGORITHM DOCKING 9 of 100
Run: 9 Seed: 628804204 1269225729 [ Run 9 of 100 GA/GALS ]
Beginning LAMARCKIAN GENETIC ALGORITHM (LGA), with a maximum of 25000000 energy evaluations.

Final-Value: -13.119


	FINAL GENETIC ALGORITHM DOCKED STATE
	_______________________________________________


Detailed state:  trans 19.572 -9.162 -11.623 quatxyzw -0.501107 -0.285085 -0.298361 -0.760657 center 0.153 0.018 -0.028 ntor 13 153.6015 -166.4709 -84.1283 37.9186 -138.7519 -93.6743 133.2906 44.2471 25.9777 -26.8038 -81.5295 13.3366 1.2948
State:	 19.572  -9.162 -11.623  -0.772 -0.439 -0.460 -80.956    153.60 -166.47  -84.13   37.92 -138.75  -93.67  133.29   44.25   25.98  -26.80  -81.53   13.34    1.29

DOCKED: MODEL        9
DOCKED: USER    Run = 9
DOCKED: USER    DPF = D:/Protein_go_brrr/autodock/final/1A3N/heme/dock.dpf
DOCKED: USER  
DOCKED: USER    Estimated Free Energy of Binding    =   -4.41 kcal/mol  [=(1)+(2)+(3)-(4)]
DOCKED: USER    Estimated Inhibition Constant, Ki   =  583.63 uM (micromolar)  [Temperature = 298.15 K]
DOCKED: USER    
DOCKED: USER    (1) Final Intermolecular Energy     =   -8.29 kcal/mol
DOCKED: USER        vdW + Hbond + desolv Energy     =   -8.18 kcal/mol
DOCKED: USER        Electrostatic Energy            =   -0.11 kcal/mol
DOCKED: USER    (2) Final Total Internal Energy     =   -4.83 kcal/mol
DOCKED: USER    (3) Torsional Free Energy           =   +3.88 kcal/mol
DOCKED: USER    (4) Unbound System's Energy  [=(2)] =   -4.83 kcal/mol
DOCKED: USER    
DOCKED: USER    
DOCKED: USER    NEWDPF move heme_opt.pdbqt
DOCKED: USER    NEWDPF about 0.153000 0.018000 -0.028000
DOCKED: USER    NEWDPF tran0 19.571722 -9.162478 -11.622656
DOCKED: USER    NEWDPF quaternion0 -0.501107 -0.285085 -0.298361 -0.760657
DOCKED: USER    NEWDPF axisangle0 -0.771938 -0.439164 -0.459615 -80.955669
DOCKED: USER    NEWDPF quat0 -0.771938 -0.439164 -0.459615 -80.955669
DOCKED: USER    NEWDPF dihe0 153.60 -166.47 -84.13 37.92 -138.75 -93.67 133.29 44.25 25.98 -26.80 -81.53 13.34 1.29 
DOCKED: USER  keepresnum = 1 
DOCKED: USER  
DOCKED: REMARK  13 active torsions:
DOCKED: REMARK  status: ('A' for Active; 'I' for Inactive)
DOCKED: REMARK    1  A    between atoms: O_3  and  C_38 
DOCKED: REMARK    2  A    between atoms: O_4  and  C_40 
DOCKED: REMARK    3  A    between atoms: O_7  and  C_46 
DOCKED: REMARK    4  A    between atoms: O_9  and  C_48 
DOCKED: REMARK    5  A    between atoms: C_15  and  C_20 
DOCKED: REMARK    6  A    between atoms: C_16  and  C_23 
DOCKED: REMARK    7  A    between atoms: C_20  and  C_38 
DOCKED: REMARK    8  A    between atoms: C_23  and  C_40 
DOCKED: REMARK    9  A    between atoms: C_32  and  C_41 
DOCKED: REMARK   10  A    between atoms: C_37  and  C_45 
DOCKED: REMARK   11  A    between atoms: C_41  and  C_44 
DOCKED: REMARK   12  A    between atoms: C_44  and  C_46 
DOCKED: REMARK   13  A    between atoms: C_47  and  C_48 
DOCKED: USER                              x       y       z     vdW  Elec       q    Type
DOCKED: USER                           _______ _______ _______ _____ _____    ______ ____
DOCKED: ROOT
DOCKED: ATOM      1  O   UNL d   1      17.034  -7.075 -16.517 -0.00 -0.00    -0.289 OA
DOCKED: ATOM      2  O   UNL d   1      14.448 -11.737 -11.229 -0.43 -0.23    -0.289 OA
DOCKED: ATOM      3  N   UNL d   1      18.959  -8.138 -13.861 -0.06 +0.03    -0.247 NA
DOCKED: ATOM      4  N   UNL d   1      17.034  -9.663 -12.189 -0.06 -0.00    -0.247 NA
DOCKED: ATOM      5  N   UNL d   1      18.971  -9.601 -10.065 -0.04 +0.05    -0.354 N 
DOCKED: ATOM      6  N   UNL d   1      20.955  -8.002 -11.800 -0.02 +0.15    -0.354 N 
DOCKED: ATOM      7  C   UNL d   1      19.264  -6.525 -15.681 -0.07 -0.00    +0.084 A 
DOCKED: ATOM      8  C   UNL d   1      15.109 -10.654 -13.322 -0.08 +0.02    +0.084 A 
DOCKED: ATOM      9  C   UNL d   1      16.356  -9.765 -13.383 -0.06 +0.00    +0.058 A 
DOCKED: ATOM     10  C   UNL d   1      19.817  -7.211 -14.428 -0.13 -0.01    +0.058 A 
DOCKED: ATOM     11  C   UNL d   1      17.949  -7.243 -15.732 -0.02 -0.00    +0.193 A 
DOCKED: ATOM     12  C   UNL d   1      17.895  -8.212 -14.592 -0.04 -0.00    +0.109 A 
DOCKED: ATOM     13  C   UNL d   1      15.185 -11.008 -11.864 -0.16 +0.06    +0.193 A 
DOCKED: ATOM     14  C   UNL d   1      19.006  -5.034 -15.453 -0.18 -0.00    +0.026 C 
DOCKED: ATOM     15  C   UNL d   1      16.722  -9.104 -14.491 -0.03 +0.00    +0.055 C 
DOCKED: ATOM     16  C   UNL d   1      15.283 -11.932 -14.148 -0.06 +0.01    +0.026 C 
DOCKED: ATOM     17  C   UNL d   1      16.391 -10.339 -11.291 -0.14 +0.01    +0.109 A 
DOCKED: ATOM     18  C   UNL d   1      21.070  -6.977 -13.994 -0.25 -0.01    +0.050 C 
DOCKED: ATOM     19  C   UNL d   1      21.695  -7.625 -12.898 -0.26 -0.01    +0.045 A 
DOCKED: ATOM     20  C   UNL d   1      17.888 -10.091  -9.382 -0.15 -0.01    +0.045 A 
DOCKED: ATOM     21  C   UNL d   1      16.699 -10.471  -9.859 -0.20 -0.01    +0.057 C 
DOCKED: ATOM     22  C   UNL d   1      19.568  -9.664  -7.894 -0.15 +0.00    -0.019 A 
DOCKED: ATOM     23  C   UNL d   1      20.034  -9.314  -9.251 -0.16 -0.01    +0.045 A 
DOCKED: ATOM     24  C   UNL d   1      18.298 -10.125  -7.978 -0.16 +0.00    -0.022 A 
DOCKED: ATOM     25  C   UNL d   1      21.771  -8.527 -10.825 -0.24 -0.02    +0.049 A 
DOCKED: ATOM     26  C   UNL d   1      23.019  -7.946 -12.645 -0.23 +0.01    -0.018 A 
DOCKED: ATOM     27  C   UNL d   1      23.059  -8.533 -11.342 -0.16 -0.00    +0.003 A 
DOCKED: ATOM     28  C   UNL d   1      21.258  -8.843  -9.537 -0.27 -0.01    +0.052 C 
DOCKED: ATOM     29  C   UNL d   1      17.407 -10.611  -6.886 -0.33 -0.02    +0.046 C 
DOCKED: ATOM     30  C   UNL d   1      24.179  -7.725 -13.556 -0.21 -0.01    +0.046 C 
DOCKED: ATOM     31  H   UNL d   1      18.974  -9.549 -11.078 +0.04 -0.02    +0.166 HD
DOCKED: ATOM     32  H   UNL d   1      19.954  -7.865 -11.725 -0.50 -0.09    +0.166 HD
DOCKED: ENDROOT
DOCKED: BRANCH   7  33
DOCKED: ATOM     33  C   UNL d   1      20.059  -6.768 -16.968 -0.02 -0.01    +0.141 C 
DOCKED: BRANCH  33  34
DOCKED: ATOM     34  C   UNL d   1      19.867  -8.157 -17.515 -0.00 -0.01    +0.306 C 
DOCKED: ATOM     35  O   UNL d   1      20.478  -9.156 -17.176 -0.00 +0.01    -0.251 OA
DOCKED: BRANCH  34  36
DOCKED: ATOM     36  O   UNL d   1      18.910  -8.214 -18.459 +0.00 +0.00    -0.481 OA
DOCKED: ATOM     37  H   UNL d   1      18.289  -7.492 -18.224 +0.01 +0.00    +0.295 HD
DOCKED: ENDBRANCH  34  36
DOCKED: ENDBRANCH  33  34
DOCKED: ENDBRANCH   7  33
DOCKED: BRANCH  27  38
DOCKED: ATOM     38  C   UNL d   1      24.241  -8.997 -10.681 -0.28 -0.01    +0.017 C 
DOCKED: ATOM     39  C   UNL d   1      24.386 -10.201 -10.107 -0.26 -0.03    +0.092 C 
DOCKED: BRANCH  39  40
DOCKED: ATOM     40  C   UNL d   1      25.658 -10.561  -9.476 -0.19 -0.17    +0.330 C 
DOCKED: ATOM     41  O   UNL d   1      26.579 -11.188  -9.964 -0.24 +0.18    -0.246 OA
DOCKED: BRANCH  40  42
DOCKED: ATOM     42  O   UNL d   1      25.704 -10.084  -8.223 -0.31 +0.12    -0.477 OA
DOCKED: ATOM     43  H   UNL d   1      24.778  -9.825  -8.036 +0.12 -0.03    +0.295 HD
DOCKED: ENDBRANCH  40  42
DOCKED: ENDBRANCH  39  40
DOCKED: ENDBRANCH  27  38
DOCKED: BRANCH   8  44
DOCKED: ATOM     44  C   UNL d   1      13.784  -9.958 -13.650 -0.11 +0.04    +0.141 C 
DOCKED: BRANCH  44  45
DOCKED: ATOM     45  C   UNL d   1      13.271  -9.099 -12.526 -0.19 +0.06    +0.306 C 
DOCKED: ATOM     46  O   UNL d   1      13.525  -7.922 -12.335 -0.71 -0.06    -0.251 OA
DOCKED: BRANCH  45  47
DOCKED: ATOM     47  O   UNL d   1      12.478  -9.780 -11.678 -0.19 -0.10    -0.481 OA
DOCKED: ATOM     48  H   UNL d   1      13.077 -10.067 -10.956 -0.36 -0.00    +0.295 HD
DOCKED: ENDBRANCH  45  47
DOCKED: ENDBRANCH  44  45
DOCKED: ENDBRANCH   8  44
DOCKED: BRANCH  22  49
DOCKED: ATOM     49  C   UNL d   1      20.395  -9.503  -6.652 -0.24 -0.00    +0.048 C 
DOCKED: BRANCH  49  50
DOCKED: ATOM     50  C   UNL d   1      21.354 -10.676  -6.451 -0.15 +0.02    +0.125 C 
DOCKED: BRANCH  50  51
DOCKED: ATOM     51  C   UNL d   1      22.737 -10.324  -6.921 -0.11 +0.03    +0.305 C 
DOCKED: ATOM     52  O   UNL d   1      23.311  -9.255  -6.808 -0.22 -0.02    -0.251 OA
DOCKED: BRANCH  51  53
DOCKED: ATOM     53  O   UNL d   1      23.339 -11.361  -7.537 +0.01 +0.01    -0.481 OA
DOCKED: ATOM     54  H   UNL d   1      24.275 -11.295  -7.254 +0.09 -0.01    +0.295 HD
DOCKED: ENDBRANCH  51  53
DOCKED: ENDBRANCH  50  51
DOCKED: ENDBRANCH  49  50
DOCKED: ENDBRANCH  22  49
DOCKED: TORSDOF 13
DOCKED: TER
DOCKED: ENDMDL
________________________________________________________________________________


	BEGINNING GENETIC ALGORITHM DOCKING 10 of 100
Run: 10 Seed: 2054997144 1017780429 [ Run 10 of 100 GA/GALS ]
Beginning LAMARCKIAN GENETIC ALGORITHM (LGA), with a maximum of 25000000 energy evaluations.

Final-Value: -13.199


	FINAL GENETIC ALGORITHM DOCKED STATE
	_______________________________________________


Detailed state:  trans 3.892 -6.810 -8.448 quatxyzw -0.017157 -0.791073 -0.230741 -0.566275 center 0.153 0.018 -0.028 ntor 13 170.4159 -118.8508 -133.8214 -82.1084 61.7465 130.2896 124.3779 15.0114 153.8722 -19.6718 -75.2031 -160.5223 24.3829
State:	  3.892  -6.810  -8.448  -0.021 -0.960 -0.280 -111.018    170.42 -118.85 -133.82  -82.11   61.75  130.29  124.38   15.01  153.87  -19.67  -75.20 -160.52   24.38

DOCKED: MODEL       10
DOCKED: USER    Run = 10
DOCKED: USER    DPF = D:/Protein_go_brrr/autodock/final/1A3N/heme/dock.dpf
DOCKED: USER  
DOCKED: USER    Estimated Free Energy of Binding    =   -5.71 kcal/mol  [=(1)+(2)+(3)-(4)]
DOCKED: USER    Estimated Inhibition Constant, Ki   =   65.66 uM (micromolar)  [Temperature = 298.15 K]
DOCKED: USER    
DOCKED: USER    (1) Final Intermolecular Energy     =   -9.58 kcal/mol
DOCKED: USER        vdW + Hbond + desolv Energy     =   -9.41 kcal/mol
DOCKED: USER        Electrostatic Energy            =   -0.18 kcal/mol
DOCKED: USER    (2) Final Total Internal Energy     =   -3.62 kcal/mol
DOCKED: USER    (3) Torsional Free Energy           =   +3.88 kcal/mol
DOCKED: USER    (4) Unbound System's Energy  [=(2)] =   -3.62 kcal/mol
DOCKED: USER    
DOCKED: USER    
DOCKED: USER    NEWDPF move heme_opt.pdbqt
DOCKED: USER    NEWDPF about 0.153000 0.018000 -0.028000
DOCKED: USER    NEWDPF tran0 3.892088 -6.810121 -8.447656
DOCKED: USER    NEWDPF quaternion0 -0.017157 -0.791073 -0.230741 -0.566275
DOCKED: USER    NEWDPF axisangle0 -0.020817 -0.959788 -0.279952 -111.018246
DOCKED: USER    NEWDPF quat0 -0.020817 -0.959788 -0.279952 -111.018246
DOCKED: USER    NEWDPF dihe0 170.42 -118.85 -133.82 -82.11 61.75 130.29 124.38 15.01 153.87 -19.67 -75.20 -160.52 24.38 
DOCKED: USER  keepresnum = 1 
DOCKED: USER  
DOCKED: REMARK  13 active torsions:
DOCKED: REMARK  status: ('A' for Active; 'I' for Inactive)
DOCKED: REMARK    1  A    between atoms: O_3  and  C_38 
DOCKED: REMARK    2  A    between atoms: O_4  and  C_40 
DOCKED: REMARK    3  A    between atoms: O_7  and  C_46 
DOCKED: REMARK    4  A    between atoms: O_9  and  C_48 
DOCKED: REMARK    5  A    between atoms: C_15  and  C_20 
DOCKED: REMARK    6  A    between atoms: C_16  and  C_23 
DOCKED: REMARK    7  A    between atoms: C_20  and  C_38 
DOCKED: REMARK    8  A    between atoms: C_23  and  C_40 
DOCKED: REMARK    9  A    between atoms: C_32  and  C_41 
DOCKED: REMARK   10  A    between atoms: C_37  and  C_45 
DOCKED: REMARK   11  A    between atoms: C_41  and  C_44 
DOCKED: REMARK   12  A    between atoms: C_44  and  C_46 
DOCKED: REMARK   13  A    between atoms: C_47  and  C_48 
DOCKED: USER                              x       y       z     vdW  Elec       q    Type
DOCKED: USER                           _______ _______ _______ _____ _____    ______ ____
DOCKED: ROOT
DOCKED: ATOM      1  O   UNL d   1       5.813  -3.739 -13.099 -0.01 -0.03    -0.289 OA
DOCKED: ATOM      2  O   UNL d   1       4.848 -11.122 -12.126 -0.06 -0.03    -0.289 OA
DOCKED: ATOM      3  N   UNL d   1       4.777  -5.109 -10.108 -0.08 -0.03    -0.247 NA
DOCKED: ATOM      4  N   UNL d   1       4.398  -7.982 -10.768 -0.01 -0.04    -0.247 NA
DOCKED: ATOM      5  N   UNL d   1       2.992  -8.273  -8.277 -0.09 -0.08    -0.354 N 
DOCKED: ATOM      6  N   UNL d   1       3.372  -5.288  -7.610 -0.13 -0.08    -0.354 N 
DOCKED: ATOM      7  C   UNL d   1       5.047  -2.828 -10.964 -0.15 +0.00    +0.084 A 
DOCKED: ATOM      8  C   UNL d   1       5.710  -8.885 -12.621 -0.10 +0.01    +0.084 A 
DOCKED: ATOM      9  C   UNL d   1       5.274  -7.677 -11.786 -0.08 +0.01    +0.058 A 
DOCKED: ATOM     10  C   UNL d   1       4.648  -3.762  -9.817 -0.19 +0.00    +0.058 A 
DOCKED: ATOM     11  C   UNL d   1       5.442  -3.887 -11.949 -0.04 +0.02    +0.193 A 
DOCKED: ATOM     12  C   UNL d   1       5.257  -5.225 -11.303 -0.08 +0.01    +0.109 A 
DOCKED: ATOM     13  C   UNL d   1       4.890  -9.926 -11.912 -0.10 +0.02    +0.193 A 
DOCKED: ATOM     14  C   UNL d   1       3.848  -2.056 -11.520 -0.31 +0.00    +0.026 C 
DOCKED: ATOM     15  C   UNL d   1       5.673  -6.425 -12.058 -0.09 +0.01    +0.055 C 
DOCKED: ATOM     16  C   UNL d   1       7.194  -9.208 -12.422 -0.23 +0.00    +0.026 C 
DOCKED: ATOM     17  C   UNL d   1       4.136  -9.248 -10.815 -0.13 +0.02    +0.109 A 
DOCKED: ATOM     18  C   UNL d   1       4.294  -3.281  -8.610 -0.35 +0.00    +0.050 C 
DOCKED: ATOM     19  C   UNL d   1       3.991  -4.066  -7.468 -0.36 +0.01    +0.045 A 
DOCKED: ATOM     20  C   UNL d   1       2.719  -9.490  -8.846 -0.19 +0.01    +0.045 A 
DOCKED: ATOM     21  C   UNL d   1       3.209 -10.018  -9.972 -0.19 +0.01    +0.057 C 
DOCKED: ATOM     22  C   UNL d   1       1.505  -9.285  -6.921 -0.25 -0.00    -0.019 A 
DOCKED: ATOM     23  C   UNL d   1       2.305  -8.059  -7.112 -0.27 +0.01    +0.045 A 
DOCKED: ATOM     24  C   UNL d   1       1.755 -10.129  -7.950 -0.17 -0.00    -0.022 A 
DOCKED: ATOM     25  C   UNL d   1       3.092  -5.833  -6.378 -0.27 +0.01    +0.049 A 
DOCKED: ATOM     26  C   UNL d   1       4.151  -3.829  -6.112 -0.44 -0.00    -0.018 A 
DOCKED: ATOM     27  C   UNL d   1       3.600  -4.957  -5.429 -0.41 +0.00    +0.003 A 
DOCKED: ATOM     28  C   UNL d   1       2.315  -7.018  -6.265 -0.32 +0.01    +0.052 C 
DOCKED: ATOM     29  C   UNL d   1       1.199 -11.490  -8.197 -0.14 +0.01    +0.046 C 
DOCKED: ATOM     30  C   UNL d   1       4.780  -2.630  -5.486 -0.31 +0.00    +0.046 C 
DOCKED: ATOM     31  H   UNL d   1       3.697  -7.657  -8.667 +0.05 +0.03    +0.166 HD
DOCKED: ATOM     32  H   UNL d   1       3.127  -5.692  -8.506 +0.07 +0.04    +0.166 HD
DOCKED: ENDROOT
DOCKED: BRANCH   7  33
DOCKED: ATOM     33  C   UNL d   1       6.229  -1.897 -10.672 -0.16 -0.01    +0.141 C 
DOCKED: BRANCH  33  34
DOCKED: ATOM     34  C   UNL d   1       6.253  -0.693 -11.574 -0.19 +0.00    +0.306 C 
DOCKED: ATOM     35  O   UNL d   1       6.126   0.470 -11.226 -0.58 -0.02    -0.251 OA
DOCKED: BRANCH  34  36
DOCKED: ATOM     36  O   UNL d   1       6.438  -1.016 -12.866 -0.02 -0.04    -0.481 OA
DOCKED: ATOM     37  H   UNL d   1       6.706  -1.959 -12.848 +0.08 +0.02    +0.295 HD
DOCKED: ENDBRANCH  34  36
DOCKED: ENDBRANCH  33  34
DOCKED: ENDBRANCH   7  33
DOCKED: BRANCH  27  38
DOCKED: ATOM     38  C   UNL d   1       3.544  -5.114  -4.007 -0.45 +0.00    +0.017 C 
DOCKED: ATOM     39  C   UNL d   1       2.972  -4.251  -3.154 -0.40 +0.01    +0.092 C 
DOCKED: BRANCH  39  40
DOCKED: ATOM     40  C   UNL d   1       2.968  -4.538  -1.717 -0.24 +0.02    +0.330 C 
DOCKED: ATOM     41  O   UNL d   1       3.332  -3.812  -0.812 -0.25 -0.01    -0.246 OA
DOCKED: BRANCH  40  42
DOCKED: ATOM     42  O   UNL d   1       2.478  -5.768  -1.494 -0.14 -0.00    -0.477 OA
DOCKED: ATOM     43  H   UNL d   1       3.099  -6.358  -1.968 -0.15 -0.05    +0.295 HD
DOCKED: ENDBRANCH  40  42
DOCKED: ENDBRANCH  39  40
DOCKED: ENDBRANCH  27  38
DOCKED: BRANCH   8  44
DOCKED: ATOM     44  C   UNL d   1       5.351  -8.824 -14.109 -0.03 +0.01    +0.141 C 
DOCKED: BRANCH  44  45
DOCKED: ATOM     45  C   UNL d   1       3.873  -8.943 -14.369 -0.01 +0.04    +0.306 C 
DOCKED: ATOM     46  O   UNL d   1       3.044  -8.055 -14.271 -0.00 -0.04    -0.251 OA
DOCKED: BRANCH  45  47
DOCKED: ATOM     47  O   UNL d   1       3.510 -10.191 -14.716 +0.00 -0.05    -0.481 OA
DOCKED: ATOM     48  H   UNL d   1       3.976 -10.771 -14.076 +0.01 +0.03    +0.295 HD
DOCKED: ENDBRANCH  45  47
DOCKED: ENDBRANCH  44  45
DOCKED: ENDBRANCH   8  44
DOCKED: BRANCH  22  49
DOCKED: ATOM     49  C   UNL d   1       0.569  -9.510  -5.770 -0.31 +0.01    +0.048 C 
DOCKED: BRANCH  49  50
DOCKED: ATOM     50  C   UNL d   1       1.291  -9.431  -4.426 -0.31 +0.02    +0.125 C 
DOCKED: BRANCH  50  51
DOCKED: ATOM     51  C   UNL d   1       0.969  -8.145  -3.718 -0.25 +0.04    +0.305 C 
DOCKED: ATOM     52  O   UNL d   1       0.134  -7.314  -4.030 -0.31 -0.05    -0.251 OA
DOCKED: BRANCH  51  53
DOCKED: ATOM     53  O   UNL d   1       1.745  -7.960  -2.632 -0.05 -0.01    -0.481 OA
DOCKED: ATOM     54  H   UNL d   1       2.460  -7.369  -2.948 -0.23 -0.05    +0.295 HD
DOCKED: ENDBRANCH  51  53
DOCKED: ENDBRANCH  50  51
DOCKED: ENDBRANCH  49  50
DOCKED: ENDBRANCH  22  49
DOCKED: TORSDOF 13
DOCKED: TER
DOCKED: ENDMDL
________________________________________________________________________________


	BEGINNING GENETIC ALGORITHM DOCKING 11 of 100
Run: 11 Seed: 2074230305 1163569402 [ Run 11 of 100 GA/GALS ]
Beginning LAMARCKIAN GENETIC ALGORITHM (LGA), with a maximum of 25000000 energy evaluations.

Final-Value: -10.430


	FINAL GENETIC ALGORITHM DOCKED STATE
	_______________________________________________


Detailed state:  trans 8.443 17.397 -3.325 quatxyzw 0.563394 -0.289181 0.733576 -0.246633 center 0.153 0.018 -0.028 ntor 13 114.3215 114.6125 -68.2849 45.9960 179.9727 -60.0762 -1.1723 -59.7806 -21.7344 -4.4969 -127.8603 40.0464 -12.1583
State:	  8.443  17.397  -3.325   0.581 -0.298  0.757 -151.443    114.32  114.61  -68.28   46.00  179.97  -60.08   -1.17  -59.78  -21.73   -4.50 -127.86   40.05  -12.16

DOCKED: MODEL       11
DOCKED: USER    Run = 11
DOCKED: USER    DPF = D:/Protein_go_brrr/autodock/final/1A3N/heme/dock.dpf
DOCKED: USER  
DOCKED: USER    Estimated Free Energy of Binding    =   -3.47 kcal/mol  [=(1)+(2)+(3)-(4)]
DOCKED: USER    Estimated Inhibition Constant, Ki   =    2.88 mM (millimolar)  [Temperature = 298.15 K]
DOCKED: USER    
DOCKED: USER    (1) Final Intermolecular Energy     =   -7.34 kcal/mol
DOCKED: USER        vdW + Hbond + desolv Energy     =   -6.81 kcal/mol
DOCKED: USER        Electrostatic Energy            =   -0.54 kcal/mol
DOCKED: USER    (2) Final Total Internal Energy     =   -3.09 kcal/mol
DOCKED: USER    (3) Torsional Free Energy           =   +3.88 kcal/mol
DOCKED: USER    (4) Unbound System's Energy  [=(2)] =   -3.09 kcal/mol
DOCKED: USER    
DOCKED: USER    
DOCKED: USER    NEWDPF move heme_opt.pdbqt
DOCKED: USER    NEWDPF about 0.153000 0.018000 -0.028000
DOCKED: USER    NEWDPF tran0 8.442826 17.396850 -3.324882
DOCKED: USER    NEWDPF quaternion0 0.563394 -0.289181 0.733576 -0.246633
DOCKED: USER    NEWDPF axisangle0 0.581352 -0.298399 0.756959 -151.443316
DOCKED: USER    NEWDPF quat0 0.581352 -0.298399 0.756959 -151.443316
DOCKED: USER    NEWDPF dihe0 114.32 114.61 -68.28 46.00 179.97 -60.08 -1.17 -59.78 -21.73 -4.50 -127.86 40.05 -12.16 
DOCKED: USER  keepresnum = 1 
DOCKED: USER  
DOCKED: REMARK  13 active torsions:
DOCKED: REMARK  status: ('A' for Active; 'I' for Inactive)
DOCKED: REMARK    1  A    between atoms: O_3  and  C_38 
DOCKED: REMARK    2  A    between atoms: O_4  and  C_40 
DOCKED: REMARK    3  A    between atoms: O_7  and  C_46 
DOCKED: REMARK    4  A    between atoms: O_9  and  C_48 
DOCKED: REMARK    5  A    between atoms: C_15  and  C_20 
DOCKED: REMARK    6  A    between atoms: C_16  and  C_23 
DOCKED: REMARK    7  A    between atoms: C_20  and  C_38 
DOCKED: REMARK    8  A    between atoms: C_23  and  C_40 
DOCKED: REMARK    9  A    between atoms: C_32  and  C_41 
DOCKED: REMARK   10  A    between atoms: C_37  and  C_45 
DOCKED: REMARK   11  A    between atoms: C_41  and  C_44 
DOCKED: REMARK   12  A    between atoms: C_44  and  C_46 
DOCKED: REMARK   13  A    between atoms: C_47  and  C_48 
DOCKED: USER                              x       y       z     vdW  Elec       q    Type
DOCKED: USER                           _______ _______ _______ _____ _____    ______ ____
DOCKED: ROOT
DOCKED: ATOM      1  O   UNL d   1       9.091  15.539  -8.882 -0.09 -0.02    -0.289 OA
DOCKED: ATOM      2  O   UNL d   1      11.342  21.856  -5.503 -0.01 +0.01    -0.289 OA
DOCKED: ATOM      3  N   UNL d   1       8.354  16.262  -5.592 -0.10 +0.02    -0.247 NA
DOCKED: ATOM      4  N   UNL d   1       9.886  18.756  -5.080 +0.01 +0.01    -0.247 NA
DOCKED: ATOM      5  N   UNL d   1       9.412  18.362  -2.272 -0.07 +0.03    -0.354 N 
DOCKED: ATOM      6  N   UNL d   1       7.841  15.765  -2.810 -0.08 +0.07    -0.354 N 
DOCKED: ATOM      7  C   UNL d   1       8.028  14.319  -7.050 -0.15 -0.00    +0.084 A 
DOCKED: ATOM      8  C   UNL d   1      10.377  20.181  -7.004 -0.06 -0.00    +0.084 A 
DOCKED: ATOM      9  C   UNL d   1       9.808  18.870  -6.451 -0.11 -0.00    +0.058 A 
DOCKED: ATOM     10  C   UNL d   1       7.866  14.969  -5.672 -0.15 -0.01    +0.058 A 
DOCKED: ATOM     11  C   UNL d   1       8.677  15.482  -7.739 -0.12 +0.00    +0.193 A 
DOCKED: ATOM     12  C   UNL d   1       8.796  16.606  -6.757 -0.12 -0.01    +0.109 A 
DOCKED: ATOM     13  C   UNL d   1      10.825  20.773  -5.698 -0.05 -0.00    +0.193 A 
DOCKED: ATOM     14  C   UNL d   1       9.013  13.148  -7.021 -0.29 +0.00    +0.026 C 
DOCKED: ATOM     15  C   UNL d   1       9.325  17.898  -7.239 -0.14 -0.00    +0.055 C 
DOCKED: ATOM     16  C   UNL d   1       9.280  21.070  -7.598 -0.02 -0.00    +0.026 C 
DOCKED: ATOM     17  C   UNL d   1      10.477  19.808  -4.612 -0.10 +0.00    +0.109 A 
DOCKED: ATOM     18  C   UNL d   1       7.219  14.342  -4.671 -0.18 -0.01    +0.050 C 
DOCKED: ATOM     19  C   UNL d   1       6.948  14.896  -3.394 -0.16 -0.01    +0.045 A 
DOCKED: ATOM     20  C   UNL d   1      10.325  19.383  -2.216 -0.17 +0.00    +0.045 A 
DOCKED: ATOM     21  C   UNL d   1      10.838  20.104  -3.218 -0.15 +0.00    +0.057 C 
DOCKED: ATOM     22  C   UNL d   1       9.924  18.634  -0.095 -0.27 +0.00    -0.019 A 
DOCKED: ATOM     23  C   UNL d   1       9.108  17.846  -1.041 -0.25 -0.01    +0.045 A 
DOCKED: ATOM     24  C   UNL d   1      10.641  19.544  -0.797 -0.20 -0.00    -0.022 A 
DOCKED: ATOM     25  C   UNL d   1       7.426  16.105  -1.543 -0.25 -0.02    +0.049 A 
DOCKED: ATOM     26  C   UNL d   1       5.908  14.695  -2.500 -0.18 +0.00    -0.018 A 
DOCKED: ATOM     27  C   UNL d   1       6.205  15.476  -1.341 -0.24 -0.00    +0.003 A 
DOCKED: ATOM     28  C   UNL d   1       8.261  16.868  -0.683 -0.33 -0.02    +0.052 C 
DOCKED: ATOM     29  C   UNL d   1      11.596  20.570  -0.291 -0.19 +0.01    +0.046 C 
DOCKED: ATOM     30  C   UNL d   1       4.709  13.832  -2.707 -0.18 -0.00    +0.046 C 
DOCKED: ATOM     31  H   UNL d   1       8.970  18.099  -3.146 +0.05 -0.01    +0.166 HD
DOCKED: ATOM     32  H   UNL d   1       8.700  16.067  -3.253 +0.06 -0.03    +0.166 HD
DOCKED: ENDROOT
DOCKED: BRANCH   7  33
DOCKED: ATOM     33  C   UNL d   1       6.721  13.938  -7.754 -0.06 -0.00    +0.141 C 
DOCKED: BRANCH  33  34
DOCKED: ATOM     34  C   UNL d   1       5.556  14.780  -7.309 -0.01 -0.02    +0.306 C 
DOCKED: ATOM     35  O   UNL d   1       4.494  14.368  -6.875 -0.07 +0.04    -0.251 OA
DOCKED: BRANCH  34  36
DOCKED: ATOM     36  O   UNL d   1       5.793  16.098  -7.433 +0.01 +0.03    -0.481 OA
DOCKED: ATOM     37  H   UNL d   1       6.484  16.289  -6.763 +0.04 -0.02    +0.295 HD
DOCKED: ENDBRANCH  34  36
DOCKED: ENDBRANCH  33  34
DOCKED: ENDBRANCH   7  33
DOCKED: BRANCH  27  38
DOCKED: ATOM     38  C   UNL d   1       5.395  15.546  -0.162 -0.26 -0.01    +0.017 C 
DOCKED: ATOM     39  C   UNL d   1       4.586  16.566   0.162 -0.15 -0.04    +0.092 C 
DOCKED: BRANCH  39  40
DOCKED: ATOM     40  C   UNL d   1       3.793  16.507   1.393 -0.08 -0.16    +0.330 C 
DOCKED: ATOM     41  O   UNL d   1       2.928  15.702   1.682 -0.14 +0.08    -0.246 OA
DOCKED: BRANCH  40  42
DOCKED: ATOM     42  O   UNL d   1       4.156  17.496   2.224 -0.06 +0.27    -0.477 OA
DOCKED: ATOM     43  H   UNL d   1       5.080  17.275   2.463 -0.40 -0.39    +0.295 HD
DOCKED: ENDBRANCH  40  42
DOCKED: ENDBRANCH  39  40
DOCKED: ENDBRANCH  27  38
DOCKED: BRANCH   8  44
DOCKED: ATOM     44  C   UNL d   1      11.555  20.032  -7.973 -0.07 -0.01    +0.141 C 
DOCKED: BRANCH  44  45
DOCKED: ATOM     45  C   UNL d   1      12.691  19.223  -7.407 -0.10 -0.04    +0.306 C 
DOCKED: ATOM     46  O   UNL d   1      13.172  19.326  -6.292 -0.25 +0.07    -0.251 OA
DOCKED: BRANCH  45  47
DOCKED: ATOM     47  O   UNL d   1      13.185  18.339  -8.293 -0.06 +0.02    -0.481 OA
DOCKED: ATOM     48  H   UNL d   1      14.077  18.680  -8.514 +0.09 -0.05    +0.295 HD
DOCKED: ENDBRANCH  45  47
DOCKED: ENDBRANCH  44  45
DOCKED: ENDBRANCH   8  44
DOCKED: BRANCH  22  49
DOCKED: ATOM     49  C   UNL d   1       9.937  18.418   1.389 -0.33 -0.02    +0.048 C 
DOCKED: BRANCH  49  50
DOCKED: ATOM     50  C   UNL d   1       8.976  19.363   2.110 -0.29 -0.00    +0.125 C 
DOCKED: BRANCH  50  51
DOCKED: ATOM     51  C   UNL d   1       7.597  19.278   1.520 -0.12 -0.06    +0.305 C 
DOCKED: ATOM     52  O   UNL d   1       7.246  19.610   0.402 -0.08 +0.03    -0.251 OA
DOCKED: BRANCH  51  53
DOCKED: ATOM     53  O   UNL d   1       6.703  18.776   2.396 +0.13 +0.04    -0.481 OA
DOCKED: ATOM     54  H   UNL d   1       6.199  18.120   1.871 -0.25 -0.31    +0.295 HD
DOCKED: ENDBRANCH  51  53
DOCKED: ENDBRANCH  50  51
DOCKED: ENDBRANCH  49  50
DOCKED: ENDBRANCH  22  49
DOCKED: TORSDOF 13
DOCKED: TER
DOCKED: ENDMDL
________________________________________________________________________________


	BEGINNING GENETIC ALGORITHM DOCKING 12 of 100
Run: 12 Seed: 769957289 532916249 [ Run 12 of 100 GA/GALS ]
Beginning LAMARCKIAN GENETIC ALGORITHM (LGA), with a maximum of 25000000 energy evaluations.

Final-Value: -14.566


	FINAL GENETIC ALGORITHM DOCKED STATE
	_______________________________________________


Detailed state:  trans 1.846 -6.481 -5.973 quatxyzw 0.252228 -0.698442 0.575256 0.342987 center 0.153 0.018 -0.028 ntor 13 -124.2625 -136.9599 108.7834 -7.4481 -164.8668 34.7210 -47.1134 22.5479 -23.7446 -127.3000 53.0021 -93.2115 106.8394
State:	  1.846  -6.481  -5.973   0.269 -0.744  0.612 139.882   -124.26 -136.96  108.78   -7.45 -164.87   34.72  -47.11   22.55  -23.74 -127.30   53.00  -93.21  106.84

DOCKED: MODEL       12
DOCKED: USER    Run = 12
DOCKED: USER    DPF = D:/Protein_go_brrr/autodock/final/1A3N/heme/dock.dpf
DOCKED: USER  
DOCKED: USER    Estimated Free Energy of Binding    =   -7.23 kcal/mol  [=(1)+(2)+(3)-(4)]
DOCKED: USER    Estimated Inhibition Constant, Ki   =    5.05 uM (micromolar)  [Temperature = 298.15 K]
DOCKED: USER    
DOCKED: USER    (1) Final Intermolecular Energy     =  -11.10 kcal/mol
DOCKED: USER        vdW + Hbond + desolv Energy     =  -10.95 kcal/mol
DOCKED: USER        Electrostatic Energy            =   -0.15 kcal/mol
DOCKED: USER    (2) Final Total Internal Energy     =   -3.46 kcal/mol
DOCKED: USER    (3) Torsional Free Energy           =   +3.88 kcal/mol
DOCKED: USER    (4) Unbound System's Energy  [=(2)] =   -3.46 kcal/mol
DOCKED: USER    
DOCKED: USER    
DOCKED: USER    NEWDPF move heme_opt.pdbqt
DOCKED: USER    NEWDPF about 0.153000 0.018000 -0.028000
DOCKED: USER    NEWDPF tran0 1.845749 -6.480970 -5.973209
DOCKED: USER    NEWDPF quaternion0 0.252228 -0.698442 0.575256 0.342987
DOCKED: USER    NEWDPF axisangle0 0.268516 -0.743545 0.612405 139.882118
DOCKED: USER    NEWDPF quat0 0.268516 -0.743545 0.612405 139.882118
DOCKED: USER    NEWDPF dihe0 -124.26 -136.96 108.78 -7.45 -164.87 34.72 -47.11 22.55 -23.74 -127.30 53.00 -93.21 106.84 
DOCKED: USER  keepresnum = 1 
DOCKED: USER  
DOCKED: REMARK  13 active torsions:
DOCKED: REMARK  status: ('A' for Active; 'I' for Inactive)
DOCKED: REMARK    1  A    between atoms: O_3  and  C_38 
DOCKED: REMARK    2  A    between atoms: O_4  and  C_40 
DOCKED: REMARK    3  A    between atoms: O_7  and  C_46 
DOCKED: REMARK    4  A    between atoms: O_9  and  C_48 
DOCKED: REMARK    5  A    between atoms: C_15  and  C_20 
DOCKED: REMARK    6  A    between atoms: C_16  and  C_23 
DOCKED: REMARK    7  A    between atoms: C_20  and  C_38 
DOCKED: REMARK    8  A    between atoms: C_23  and  C_40 
DOCKED: REMARK    9  A    between atoms: C_32  and  C_41 
DOCKED: REMARK   10  A    between atoms: C_37  and  C_45 
DOCKED: REMARK   11  A    between atoms: C_41  and  C_44 
DOCKED: REMARK   12  A    between atoms: C_44  and  C_46 
DOCKED: REMARK   13  A    between atoms: C_47  and  C_48 
DOCKED: USER                              x       y       z     vdW  Elec       q    Type
DOCKED: USER                           _______ _______ _______ _____ _____    ______ ____
DOCKED: ROOT
DOCKED: ATOM      1  O   UNL d   1       5.993  -2.342  -6.629 +0.03 -0.02    -0.289 OA
DOCKED: ATOM      2  O   UNL d   1       2.120  -4.523  -0.576 -0.23 -0.02    -0.289 OA
DOCKED: ATOM      3  N   UNL d   1       3.530  -4.754  -6.756 -0.22 -0.05    -0.247 NA
DOCKED: ATOM      4  N   UNL d   1       2.809  -5.144  -3.900 -0.77 -0.06    -0.247 NA
DOCKED: ATOM      5  N   UNL d   1       1.409  -7.533  -4.676 -0.17 -0.07    -0.354 N 
DOCKED: ATOM      6  N   UNL d   1       2.178  -7.130  -7.634 -0.11 -0.13    -0.354 N 
DOCKED: ATOM      7  C   UNL d   1       5.158  -3.859  -8.355 -0.30 +0.00    +0.084 A 
DOCKED: ATOM      8  C   UNL d   1       3.192  -3.267  -2.383 -0.36 +0.01    +0.084 A 
DOCKED: ATOM      9  C   UNL d   1       3.337  -3.878  -3.781 -0.37 +0.01    +0.058 A 
DOCKED: ATOM     10  C   UNL d   1       4.017  -4.834  -8.050 -0.27 +0.01    +0.058 A 
DOCKED: ATOM     11  C   UNL d   1       5.217  -3.200  -7.010 -0.34 +0.01    +0.193 A 
DOCKED: ATOM     12  C   UNL d   1       4.164  -3.811  -6.138 -0.38 +0.01    +0.109 A 
DOCKED: ATOM     13  C   UNL d   1       2.517  -4.435  -1.722 -0.28 +0.01    +0.193 A 
DOCKED: ATOM     14  C   UNL d   1       6.482  -4.585  -8.609 -0.09 +0.00    +0.026 C 
DOCKED: ATOM     15  C   UNL d   1       3.971  -3.252  -4.785 -0.40 +0.01    +0.055 C 
DOCKED: ATOM     16  C   UNL d   1       2.229  -2.076  -2.382 -0.34 +0.00    +0.026 C 
DOCKED: ATOM     17  C   UNL d   1       2.349  -5.510  -2.747 -0.31 +0.01    +0.109 A 
DOCKED: ATOM     18  C   UNL d   1       3.494  -5.626  -9.005 -0.22 +0.01    +0.050 C 
DOCKED: ATOM     19  C   UNL d   1       2.387  -6.495  -8.837 -0.20 +0.02    +0.045 A 
DOCKED: ATOM     20  C   UNL d   1       1.372  -7.671  -3.313 -0.28 +0.00    +0.045 A 
DOCKED: ATOM     21  C   UNL d   1       1.751  -6.800  -2.372 -0.33 +0.00    +0.057 C 
DOCKED: ATOM     22  C   UNL d   1       0.554  -9.577  -4.270 -0.34 -0.00    -0.019 A 
DOCKED: ATOM     23  C   UNL d   1       0.936  -8.633  -5.340 -0.32 +0.01    +0.045 A 
DOCKED: ATOM     24  C   UNL d   1       0.813  -9.000  -3.072 -0.37 -0.00    -0.022 A 
DOCKED: ATOM     25  C   UNL d   1       1.108  -7.990  -7.721 -0.23 +0.02    +0.049 A 
DOCKED: ATOM     26  C   UNL d   1       1.406  -6.926  -9.717 -0.17 -0.01    -0.018 A 
DOCKED: ATOM     27  C   UNL d   1       0.589  -7.855  -9.001 -0.19 +0.00    +0.003 A 
DOCKED: ATOM     28  C   UNL d   1       0.794  -8.874  -6.652 -0.29 +0.02    +0.052 C 
DOCKED: ATOM     29  C   UNL d   1       0.589  -9.550  -1.705 -0.47 +0.00    +0.046 C 
DOCKED: ATOM     30  C   UNL d   1       1.233  -6.500 -11.136 -0.10 +0.03    +0.046 C 
DOCKED: ATOM     31  H   UNL d   1       1.689  -6.659  -5.109 +0.08 +0.05    +0.166 HD
DOCKED: ATOM     32  H   UNL d   1       2.769  -6.999  -6.821 +0.07 +0.04    +0.166 HD
DOCKED: ENDROOT
DOCKED: BRANCH   7  33
DOCKED: ATOM     33  C   UNL d   1       4.864  -2.826  -9.448 -0.10 -0.01    +0.141 C 
DOCKED: BRANCH  33  34
DOCKED: ATOM     34  C   UNL d   1       3.392  -2.569  -9.622 -0.22 +0.02    +0.306 C 
DOCKED: ATOM     35  O   UNL d   1       2.713  -2.891 -10.582 -0.18 -0.05    -0.251 OA
DOCKED: BRANCH  34  36
DOCKED: ATOM     36  O   UNL d   1       2.852  -1.922  -8.574 -0.03 -0.01    -0.481 OA
DOCKED: ATOM     37  H   UNL d   1       3.415  -1.128  -8.457 -0.25 -0.09    +0.295 HD
DOCKED: ENDBRANCH  34  36
DOCKED: ENDBRANCH  33  34
DOCKED: ENDBRANCH   7  33
DOCKED: BRANCH  27  38
DOCKED: ATOM     38  C   UNL d   1      -0.537  -8.553  -9.544 -0.08 +0.01    +0.017 C 
DOCKED: ATOM     39  C   UNL d   1      -0.684  -9.887  -9.565 -0.11 +0.04    +0.092 C 
DOCKED: BRANCH  39  40
DOCKED: ATOM     40  C   UNL d   1      -1.897 -10.478 -10.136 -0.05 +0.13    +0.330 C 
DOCKED: ATOM     41  O   UNL d   1      -2.567 -10.055 -11.059 -0.04 -0.10    -0.246 OA
DOCKED: BRANCH  40  42
DOCKED: ATOM     42  O   UNL d   1      -2.202 -11.616  -9.494 -0.01 -0.11    -0.477 OA
DOCKED: ATOM     43  H   UNL d   1      -2.061 -11.397  -8.549 +0.04 +0.08    +0.295 HD
DOCKED: ENDBRANCH  40  42
DOCKED: ENDBRANCH  39  40
DOCKED: ENDBRANCH  27  38
DOCKED: BRANCH   8  44
DOCKED: ATOM     44  C   UNL d   1       4.505  -2.919  -1.675 -0.42 +0.01    +0.141 C 
DOCKED: BRANCH  44  45
DOCKED: ATOM     45  C   UNL d   1       4.306  -2.391  -0.279 -0.33 +0.02    +0.306 C 
DOCKED: ATOM     46  O   UNL d   1       4.179  -1.223   0.044 -0.37 -0.01    -0.251 OA
DOCKED: BRANCH  45  47
DOCKED: ATOM     47  O   UNL d   1       4.304  -3.368   0.646 -0.20 -0.02    -0.481 OA
DOCKED: ATOM     48  H   UNL d   1       3.451  -3.834   0.511 +0.22 +0.01    +0.295 HD
DOCKED: ENDBRANCH  45  47
DOCKED: ENDBRANCH  44  45
DOCKED: ENDBRANCH   8  44
DOCKED: BRANCH  22  49
DOCKED: ATOM     49  C   UNL d   1      -0.009 -10.946  -4.515 -0.24 +0.00    +0.048 C 
DOCKED: BRANCH  49  50
DOCKED: ATOM     50  C   UNL d   1       0.372 -11.479  -5.896 -0.16 +0.02    +0.125 C 
DOCKED: BRANCH  50  51
DOCKED: ATOM     51  C   UNL d   1      -0.848 -11.900  -6.664 -0.09 +0.04    +0.305 C 
DOCKED: ATOM     52  O   UNL d   1      -2.009 -11.612  -6.432 -0.10 -0.04    -0.251 OA
DOCKED: BRANCH  51  53
DOCKED: ATOM     53  O   UNL d   1      -0.537 -12.695  -7.708 -0.01 -0.05    -0.481 OA
DOCKED: ATOM     54  H   UNL d   1      -1.407 -13.001  -8.041 +0.04 +0.03    +0.295 HD
DOCKED: ENDBRANCH  51  53
DOCKED: ENDBRANCH  50  51
DOCKED: ENDBRANCH  49  50
DOCKED: ENDBRANCH  22  49
DOCKED: TORSDOF 13
DOCKED: TER
DOCKED: ENDMDL
________________________________________________________________________________


	BEGINNING GENETIC ALGORITHM DOCKING 13 of 100
Run: 13 Seed: 607560882 2110158910 [ Run 13 of 100 GA/GALS ]
Beginning LAMARCKIAN GENETIC ALGORITHM (LGA), with a maximum of 25000000 energy evaluations.

Final-Value: -12.783


	FINAL GENETIC ALGORITHM DOCKED STATE
	_______________________________________________


Detailed state:  trans 9.935 0.112 13.619 quatxyzw 0.146856 0.906230 -0.351652 -0.183088 center 0.153 0.018 -0.028 ntor 13 97.8892 3.4238 143.9571 -100.9435 -100.3798 -175.5041 133.8314 -180.0000 22.1785 -159.9758 0.7842 76.9345 -170.5354
State:	  9.935   0.112  13.619   0.149  0.922 -0.358 -158.901     97.89    3.42  143.96 -100.94 -100.38 -175.50  133.83 -180.00   22.18 -159.98    0.78   76.93 -170.54

DOCKED: MODEL       13
DOCKED: USER    Run = 13
DOCKED: USER    DPF = D:/Protein_go_brrr/autodock/final/1A3N/heme/dock.dpf
DOCKED: USER  
DOCKED: USER    Estimated Free Energy of Binding    =   -7.85 kcal/mol  [=(1)+(2)+(3)-(4)]
DOCKED: USER    Estimated Inhibition Constant, Ki   =    1.76 uM (micromolar)  [Temperature = 298.15 K]
DOCKED: USER    
DOCKED: USER    (1) Final Intermolecular Energy     =  -11.73 kcal/mol
DOCKED: USER        vdW + Hbond + desolv Energy     =  -11.18 kcal/mol
DOCKED: USER        Electrostatic Energy            =   -0.55 kcal/mol
DOCKED: USER    (2) Final Total Internal Energy     =   -1.05 kcal/mol
DOCKED: USER    (3) Torsional Free Energy           =   +3.88 kcal/mol
DOCKED: USER    (4) Unbound System's Energy  [=(2)] =   -1.05 kcal/mol
DOCKED: USER    
DOCKED: USER    
DOCKED: USER    NEWDPF move heme_opt.pdbqt
DOCKED: USER    NEWDPF about 0.153000 0.018000 -0.028000
DOCKED: USER    NEWDPF tran0 9.934982 0.111649 13.619345
DOCKED: USER    NEWDPF quaternion0 0.146856 0.906230 -0.351652 -0.183088
DOCKED: USER    NEWDPF axisangle0 0.149381 0.921812 -0.357698 -158.900599
DOCKED: USER    NEWDPF quat0 0.149381 0.921812 -0.357698 -158.900599
DOCKED: USER    NEWDPF dihe0 97.89 3.42 143.96 -100.94 -100.38 -175.50 133.83 -180.00 22.18 -159.98 0.78 76.93 -170.54 
DOCKED: USER  keepresnum = 1 
DOCKED: USER  
DOCKED: REMARK  13 active torsions:
DOCKED: REMARK  status: ('A' for Active; 'I' for Inactive)
DOCKED: REMARK    1  A    between atoms: O_3  and  C_38 
DOCKED: REMARK    2  A    between atoms: O_4  and  C_40 
DOCKED: REMARK    3  A    between atoms: O_7  and  C_46 
DOCKED: REMARK    4  A    between atoms: O_9  and  C_48 
DOCKED: REMARK    5  A    between atoms: C_15  and  C_20 
DOCKED: REMARK    6  A    between atoms: C_16  and  C_23 
DOCKED: REMARK    7  A    between atoms: C_20  and  C_38 
DOCKED: REMARK    8  A    between atoms: C_23  and  C_40 
DOCKED: REMARK    9  A    between atoms: C_32  and  C_41 
DOCKED: REMARK   10  A    between atoms: C_37  and  C_45 
DOCKED: REMARK   11  A    between atoms: C_41  and  C_44 
DOCKED: REMARK   12  A    between atoms: C_44  and  C_46 
DOCKED: REMARK   13  A    between atoms: C_47  and  C_48 
DOCKED: USER                              x       y       z     vdW  Elec       q    Type
DOCKED: USER                           _______ _______ _______ _____ _____    ______ ____
DOCKED: ROOT
DOCKED: ATOM      1  O   UNL d   1      15.743   0.091  14.631 -0.06 +0.03    -0.289 OA
DOCKED: ATOM      2  O   UNL d   1      10.024  -2.601  18.686 -0.08 -0.07    -0.289 OA
DOCKED: ATOM      3  N   UNL d   1      12.446   0.460  13.687 -0.20 -0.32    -0.247 NA
DOCKED: ATOM      4  N   UNL d   1      10.974  -1.154  15.701 -0.36 -0.30    -0.247 NA
DOCKED: ATOM      5  N   UNL d   1       8.655  -0.979  14.009 -0.04 -0.32    -0.354 N 
DOCKED: ATOM      6  N   UNL d   1      10.196   0.678  11.916 -0.10 -0.16    -0.354 N 
DOCKED: ATOM      7  C   UNL d   1      14.609   0.968  12.651 -0.08 +0.02    +0.084 A 
DOCKED: ATOM      8  C   UNL d   1      12.033  -1.456  17.882 -0.16 +0.02    +0.084 A 
DOCKED: ATOM      9  C   UNL d   1      12.111  -0.931  16.444 -0.15 +0.04    +0.058 A 
DOCKED: ATOM     10  C   UNL d   1      13.080   0.972  12.566 -0.13 +0.03    +0.058 A 
DOCKED: ATOM     11  C   UNL d   1      14.727   0.381  14.025 -0.05 +0.04    +0.193 A 
DOCKED: ATOM     12  C   UNL d   1      13.348   0.141  14.557 -0.10 +0.07    +0.109 A 
DOCKED: ATOM     13  C   UNL d   1      10.655  -2.050  17.805 -0.09 +0.07    +0.193 A 
DOCKED: ATOM     14  C   UNL d   1      15.238   0.003  11.644 -0.13 +0.00    +0.026 C 
DOCKED: ATOM     15  C   UNL d   1      13.213  -0.352  15.942 -0.11 +0.03    +0.055 C 
DOCKED: ATOM     16  C   UNL d   1      12.020  -0.314  18.903 -0.30 +0.00    +0.026 C 
DOCKED: ATOM     17  C   UNL d   1      10.126  -1.806  16.429 -0.13 +0.08    +0.109 A 
DOCKED: ATOM     18  C   UNL d   1      12.435   1.517  11.518 -0.23 +0.01    +0.050 C 
DOCKED: ATOM     19  C   UNL d   1      11.028   1.641  11.392 -0.22 +0.00    +0.045 A 
DOCKED: ATOM     20  C   UNL d   1       8.215  -1.907  14.917 -0.16 +0.03    +0.045 A 
DOCKED: ATOM     21  C   UNL d   1       8.803  -2.319  16.045 -0.17 +0.03    +0.057 C 
DOCKED: ATOM     22  C   UNL d   1       6.674  -1.725  13.242 -0.24 -0.00    -0.019 A 
DOCKED: ATOM     23  C   UNL d   1       7.791  -0.802  12.962 -0.22 +0.02    +0.045 A 
DOCKED: ATOM     24  C   UNL d   1       6.930  -2.376  14.401 -0.19 -0.01    -0.022 A 
DOCKED: ATOM     25  C   UNL d   1       8.884   0.950  11.602 -0.23 +0.01    +0.049 A 
DOCKED: ATOM     26  C   UNL d   1      10.235   2.582  10.753 -0.21 +0.01    -0.018 A 
DOCKED: ATOM     27  C   UNL d   1       8.881   2.150  10.905 -0.29 -0.00    +0.003 A 
DOCKED: ATOM     28  C   UNL d   1       7.855   0.016  11.900 -0.33 +0.01    +0.052 C 
DOCKED: ATOM     29  C   UNL d   1       6.098  -3.395  15.103 -0.27 +0.01    +0.046 C 
DOCKED: ATOM     30  C   UNL d   1      10.703   3.808  10.045 -0.25 -0.02    +0.046 C 
DOCKED: ATOM     31  H   UNL d   1       9.500  -0.442  14.174 +0.06 +0.32    +0.166 HD
DOCKED: ATOM     32  H   UNL d   1      10.528  -0.133  12.424 +0.04 +0.11    +0.166 HD
DOCKED: ENDROOT
DOCKED: BRANCH   7  33
DOCKED: ATOM     33  C   UNL d   1      15.273   2.349  12.597 -0.15 +0.07    +0.141 C 
DOCKED: BRANCH  33  34
DOCKED: ATOM     34  C   UNL d   1      15.022   3.161  13.839 -0.11 +0.21    +0.306 C 
DOCKED: ATOM     35  O   UNL d   1      13.949   3.309  14.398 -0.17 -0.18    -0.251 OA
DOCKED: BRANCH  34  36
DOCKED: ATOM     36  O   UNL d   1      16.139   3.742  14.312 -0.50 -0.52    -0.481 OA
DOCKED: ATOM     37  H   UNL d   1      16.561   3.051  14.866 +0.10 +0.10    +0.295 HD
DOCKED: ENDBRANCH  34  36
DOCKED: ENDBRANCH  33  34
DOCKED: ENDBRANCH   7  33
DOCKED: BRANCH  27  38
DOCKED: ATOM     38  C   UNL d   1       7.734   2.828  10.380 -0.35 -0.00    +0.017 C 
DOCKED: ATOM     39  C   UNL d   1       7.301   4.036  10.772 -0.28 -0.00    +0.092 C 
DOCKED: BRANCH  39  40
DOCKED: ATOM     40  C   UNL d   1       6.120   4.629  10.140 -0.13 -0.05    +0.330 C 
DOCKED: ATOM     41  O   UNL d   1       5.632   5.722  10.353 -0.16 +0.09    -0.246 OA
DOCKED: BRANCH  40  42
DOCKED: ATOM     42  O   UNL d   1       5.608   3.782   9.233 -0.60 +0.03    -0.477 OA
DOCKED: ATOM     43  H   UNL d   1       4.868   4.285   8.834 -0.17 -0.09    +0.295 HD
DOCKED: ENDBRANCH  40  42
DOCKED: ENDBRANCH  39  40
DOCKED: ENDBRANCH  27  38
DOCKED: BRANCH   8  44
DOCKED: ATOM     44  C   UNL d   1      13.070  -2.520  18.254 -0.10 +0.04    +0.141 C 
DOCKED: BRANCH  44  45
DOCKED: ATOM     45  C   UNL d   1      13.447  -2.500  19.711 -0.18 +0.00    +0.306 C 
DOCKED: ATOM     46  O   UNL d   1      12.905  -3.119  20.611 -0.25 -0.01    -0.251 OA
DOCKED: BRANCH  45  47
DOCKED: ATOM     47  O   UNL d   1      14.476  -1.672  19.965 -0.20 +0.34    -0.481 OA
DOCKED: ATOM     48  H   UNL d   1      15.067  -1.765  19.188 -0.41 -0.35    +0.295 HD
DOCKED: ENDBRANCH  45  47
DOCKED: ENDBRANCH  44  45
DOCKED: ENDBRANCH   8  44
DOCKED: BRANCH  22  49
DOCKED: ATOM     49  C   UNL d   1       5.478  -1.895  12.351 -0.35 +0.00    +0.048 C 
DOCKED: BRANCH  49  50
DOCKED: ATOM     50  C   UNL d   1       5.526  -3.214  11.580 -0.43 +0.02    +0.125 C 
DOCKED: BRANCH  50  51
DOCKED: ATOM     51  C   UNL d   1       4.341  -3.345  10.666 -0.38 +0.01    +0.305 C 
DOCKED: ATOM     52  O   UNL d   1       4.130  -4.218   9.842 -0.56 -0.01    -0.251 OA
DOCKED: BRANCH  51  53
DOCKED: ATOM     53  O   UNL d   1       3.462  -2.336  10.832 -0.27 +0.08    -0.481 OA
DOCKED: ATOM     54  H   UNL d   1       3.864  -1.588  10.344 -0.34 -0.14    +0.295 HD
DOCKED: ENDBRANCH  51  53
DOCKED: ENDBRANCH  50  51
DOCKED: ENDBRANCH  49  50
DOCKED: ENDBRANCH  22  49
DOCKED: TORSDOF 13
DOCKED: TER
DOCKED: ENDMDL
________________________________________________________________________________


	BEGINNING GENETIC ALGORITHM DOCKING 14 of 100
Run: 14 Seed: 1378335561 156713102 [ Run 14 of 100 GA/GALS ]
Beginning LAMARCKIAN GENETIC ALGORITHM (LGA), with a maximum of 25000000 energy evaluations.

Final-Value: -13.026


	FINAL GENETIC ALGORITHM DOCKED STATE
	_______________________________________________


Detailed state:  trans 7.623 17.303 31.226 quatxyzw -0.571129 -0.168999 0.801347 -0.055615 center 0.153 0.018 -0.028 ntor 13 -90.8463 -104.1741 107.8114 -81.2657 30.7331 -16.9440 -45.4278 -19.1138 122.4166 -127.5575 139.3484 -108.5363 -152.6862
State:	  7.623  17.303  31.226  -0.572 -0.169  0.803 -173.624    -90.85 -104.17  107.81  -81.27   30.73  -16.94  -45.43  -19.11  122.42 -127.56  139.35 -108.54 -152.69

DOCKED: MODEL       14
DOCKED: USER    Run = 14
DOCKED: USER    DPF = D:/Protein_go_brrr/autodock/final/1A3N/heme/dock.dpf
DOCKED: USER  
DOCKED: USER    Estimated Free Energy of Binding    =   -6.80 kcal/mol  [=(1)+(2)+(3)-(4)]
DOCKED: USER    Estimated Inhibition Constant, Ki   =   10.41 uM (micromolar)  [Temperature = 298.15 K]
DOCKED: USER    
DOCKED: USER    (1) Final Intermolecular Energy     =  -10.68 kcal/mol
DOCKED: USER        vdW + Hbond + desolv Energy     =  -10.22 kcal/mol
DOCKED: USER        Electrostatic Energy            =   -0.46 kcal/mol
DOCKED: USER    (2) Final Total Internal Energy     =   -2.35 kcal/mol
DOCKED: USER    (3) Torsional Free Energy           =   +3.88 kcal/mol
DOCKED: USER    (4) Unbound System's Energy  [=(2)] =   -2.35 kcal/mol
DOCKED: USER    
DOCKED: USER    
DOCKED: USER    NEWDPF move heme_opt.pdbqt
DOCKED: USER    NEWDPF about 0.153000 0.018000 -0.028000
DOCKED: USER    NEWDPF tran0 7.622815 17.302674 31.226234
DOCKED: USER    NEWDPF quaternion0 -0.571129 -0.168999 0.801347 -0.055615
DOCKED: USER    NEWDPF axisangle0 -0.572015 -0.169261 0.802590 -173.623680
DOCKED: USER    NEWDPF quat0 -0.572015 -0.169261 0.802590 -173.623680
DOCKED: USER    NEWDPF dihe0 -90.85 -104.17 107.81 -81.27 30.73 -16.94 -45.43 -19.11 122.42 -127.56 139.35 -108.54 -152.69 
DOCKED: USER  keepresnum = 1 
DOCKED: USER  
DOCKED: REMARK  13 active torsions:
DOCKED: REMARK  status: ('A' for Active; 'I' for Inactive)
DOCKED: REMARK    1  A    between atoms: O_3  and  C_38 
DOCKED: REMARK    2  A    between atoms: O_4  and  C_40 
DOCKED: REMARK    3  A    between atoms: O_7  and  C_46 
DOCKED: REMARK    4  A    between atoms: O_9  and  C_48 
DOCKED: REMARK    5  A    between atoms: C_15  and  C_20 
DOCKED: REMARK    6  A    between atoms: C_16  and  C_23 
DOCKED: REMARK    7  A    between atoms: C_20  and  C_38 
DOCKED: REMARK    8  A    between atoms: C_23  and  C_40 
DOCKED: REMARK    9  A    between atoms: C_32  and  C_41 
DOCKED: REMARK   10  A    between atoms: C_37  and  C_45 
DOCKED: REMARK   11  A    between atoms: C_41  and  C_44 
DOCKED: REMARK   12  A    between atoms: C_44  and  C_46 
DOCKED: REMARK   13  A    between atoms: C_47  and  C_48 
DOCKED: USER                              x       y       z     vdW  Elec       q    Type
DOCKED: USER                           _______ _______ _______ _____ _____    ______ ____
DOCKED: ROOT
DOCKED: ATOM      1  O   UNL d   1       9.109  14.003  35.880 -0.04 -0.23    -0.289 OA
DOCKED: ATOM      2  O   UNL d   1       9.501  21.420  34.770 -0.01 -0.04    -0.289 OA
DOCKED: ATOM      3  N   UNL d   1       8.236  15.494  32.895 -0.11 -0.15    -0.247 NA
DOCKED: ATOM      4  N   UNL d   1       8.424  18.397  33.501 -0.06 -0.09    -0.247 NA
DOCKED: ATOM      5  N   UNL d   1       7.005  18.905  31.052 -0.08 -0.08    -0.354 N 
DOCKED: ATOM      6  N   UNL d   1       6.797  15.891  30.442 -0.15 -0.11    -0.354 N 
DOCKED: ATOM      7  C   UNL d   1       8.108  13.217  33.793 -0.17 +0.06    +0.084 A 
DOCKED: ATOM      8  C   UNL d   1       9.950  19.069  35.287 -0.04 +0.02    +0.084 A 
DOCKED: ATOM      9  C   UNL d   1       9.265  17.950  34.495 -0.09 +0.02    +0.058 A 
DOCKED: ATOM     10  C   UNL d   1       7.848  14.189  32.639 -0.23 +0.04    +0.058 A 
DOCKED: ATOM     11  C   UNL d   1       8.729  14.199  34.740 -0.09 +0.16    +0.193 A 
DOCKED: ATOM     12  C   UNL d   1       8.774  15.537  34.070 -0.13 +0.08    +0.109 A 
DOCKED: ATOM     13  C   UNL d   1       9.312  20.233  34.583 -0.02 +0.04    +0.193 A 
DOCKED: ATOM     14  C   UNL d   1       6.807  12.692  34.407 -0.28 +0.03    +0.026 C 
DOCKED: ATOM     15  C   UNL d   1       9.434  16.650  34.783 -0.12 +0.03    +0.055 C 
DOCKED: ATOM     16  C   UNL d   1      11.459  19.105  35.032 -0.11 +0.01    +0.026 C 
DOCKED: ATOM     17  C   UNL d   1       8.405  19.691  33.527 -0.06 +0.03    +0.109 A 
DOCKED: ATOM     18  C   UNL d   1       7.365  13.764  31.456 -0.22 +0.02    +0.050 C 
DOCKED: ATOM     19  C   UNL d   1       7.172  14.573  30.308 -0.31 +0.01    +0.045 A 
DOCKED: ATOM     20  C   UNL d   1       6.985  20.161  31.601 -0.12 +0.01    +0.045 A 
DOCKED: ATOM     21  C   UNL d   1       7.606  20.606  32.698 -0.09 +0.01    +0.057 C 
DOCKED: ATOM     22  C   UNL d   1       5.684  20.155  29.724 -0.28 -0.00    -0.019 A 
DOCKED: ATOM     23  C   UNL d   1       6.248  18.804  29.916 -0.28 +0.01    +0.045 A 
DOCKED: ATOM     24  C   UNL d   1       6.125  20.954  30.724 -0.13 -0.00    -0.022 A 
DOCKED: ATOM     25  C   UNL d   1       6.579  16.459  29.208 -0.37 +0.01    +0.049 A 
DOCKED: ATOM     26  C   UNL d   1       7.235  14.288  28.953 -0.38 -0.00    -0.018 A 
DOCKED: ATOM     27  C   UNL d   1       6.878  15.487  28.263 -0.44 +0.00    +0.003 A 
DOCKED: ATOM     28  C   UNL d   1       6.032  17.766  29.093 -0.39 +0.01    +0.052 C 
DOCKED: ATOM     29  C   UNL d   1       5.842  22.399  30.958 -0.07 +0.00    +0.046 C 
DOCKED: ATOM     30  C   UNL d   1       7.605  12.982  28.334 -0.27 +0.01    +0.046 C 
DOCKED: ATOM     31  H   UNL d   1       7.597  18.174  31.432 +0.06 +0.05    +0.166 HD
DOCKED: ATOM     32  H   UNL d   1       6.666  16.348  31.336 +0.08 +0.07    +0.166 HD
DOCKED: ENDROOT
DOCKED: BRANCH   7  33
DOCKED: ATOM     33  C   UNL d   1       9.084  12.077  33.484 -0.21 +0.09    +0.141 C 
DOCKED: BRANCH  33  34
DOCKED: ATOM     34  C   UNL d   1       9.478  11.303  34.713 -0.13 +0.25    +0.306 C 
DOCKED: ATOM     35  O   UNL d   1       8.862  10.376  35.210 -0.71 -0.18    -0.251 OA
DOCKED: BRANCH  34  36
DOCKED: ATOM     36  O   UNL d   1      10.632  11.738  35.251 -0.53 -0.68    -0.481 OA
DOCKED: ATOM     37  H   UNL d   1      10.366  12.468  35.849 +0.08 +0.33    +0.295 HD
DOCKED: ENDBRANCH  34  36
DOCKED: ENDBRANCH  33  34
DOCKED: ENDBRANCH   7  33
DOCKED: BRANCH  27  38
DOCKED: ATOM     38  C   UNL d   1       6.800  15.629  26.840 -0.51 +0.00    +0.017 C 
DOCKED: ATOM     39  C   UNL d   1       5.665  15.749  26.135 -0.36 +0.01    +0.092 C 
DOCKED: BRANCH  39  40
DOCKED: ATOM     40  C   UNL d   1       5.724  15.906  24.679 -0.32 +0.02    +0.330 C 
DOCKED: ATOM     41  O   UNL d   1       6.674  16.258  24.006 -0.34 -0.02    -0.246 OA
DOCKED: BRANCH  40  42
DOCKED: ATOM     42  O   UNL d   1       4.539  15.589  24.133 -0.24 +0.02    -0.477 OA
DOCKED: ATOM     43  H   UNL d   1       3.974  16.363  24.333 -0.36 -0.09    +0.295 HD
DOCKED: ENDBRANCH  40  42
DOCKED: ENDBRANCH  39  40
DOCKED: ENDBRANCH  27  38
DOCKED: BRANCH   8  44
DOCKED: ATOM     44  C   UNL d   1       9.641  19.100  36.788 -0.01 +0.04    +0.141 C 
DOCKED: BRANCH  44  45
DOCKED: ATOM     45  C   UNL d   1      10.285  20.258  37.503 -0.00 +0.05    +0.306 C 
DOCKED: ATOM     46  O   UNL d   1      11.390  20.271  38.016 -0.00 -0.04    -0.251 OA
DOCKED: BRANCH  45  47
DOCKED: ATOM     47  O   UNL d   1       9.485  21.338  37.559 +0.00 -0.07    -0.481 OA
DOCKED: ATOM     48  H   UNL d   1       9.485  21.694  36.645 +0.00 +0.04    +0.295 HD
DOCKED: ENDBRANCH  45  47
DOCKED: ENDBRANCH  44  45
DOCKED: ENDBRANCH   8  44
DOCKED: BRANCH  22  49
DOCKED: ATOM     49  C   UNL d   1       4.764  20.532  28.600 -0.35 -0.00    +0.048 C 
DOCKED: BRANCH  49  50
DOCKED: ATOM     50  C   UNL d   1       3.450  21.120  29.114 -0.28 -0.02    +0.125 C 
DOCKED: BRANCH  50  51
DOCKED: ATOM     51  C   UNL d   1       2.969  20.377  30.328 -0.19 -0.07    +0.305 C 
DOCKED: ATOM     52  O   UNL d   1       3.216  19.226  30.642 -0.28 +0.02    -0.251 OA
DOCKED: BRANCH  51  53
DOCKED: ATOM     53  O   UNL d   1       2.169  21.139  31.101 -0.09 +0.23    -0.481 OA
DOCKED: ATOM     54  H   UNL d   1       1.262  20.869  30.844 -0.39 -0.38    +0.295 HD
DOCKED: ENDBRANCH  51  53
DOCKED: ENDBRANCH  50  51
DOCKED: ENDBRANCH  49  50
DOCKED: ENDBRANCH  22  49
DOCKED: TORSDOF 13
DOCKED: TER
DOCKED: ENDMDL
________________________________________________________________________________


	BEGINNING GENETIC ALGORITHM DOCKING 15 of 100
Run: 15 Seed: 877151213 85380728 [ Run 15 of 100 GA/GALS ]
Beginning LAMARCKIAN GENETIC ALGORITHM (LGA), with a maximum of 25000000 energy evaluations.

Final-Value: -12.412


	FINAL GENETIC ALGORITHM DOCKED STATE
	_______________________________________________


Detailed state:  trans 12.617 12.149 11.036 quatxyzw 0.870930 -0.087451 0.422425 -0.235351 center 0.153 0.018 -0.028 ntor 13 -65.7628 -92.4569 -150.0442 -112.1521 -124.5086 -120.2561 40.7103 -12.2514 -3.3202 -7.3766 -66.8020 35.3607 27.6518
State:	 12.617  12.149  11.036   0.896 -0.090  0.435 -152.775    -65.76  -92.46 -150.04 -112.15 -124.51 -120.26   40.71  -12.25   -3.32   -7.38  -66.80   35.36   27.65

DOCKED: MODEL       15
DOCKED: USER    Run = 15
DOCKED: USER    DPF = D:/Protein_go_brrr/autodock/final/1A3N/heme/dock.dpf
DOCKED: USER  
DOCKED: USER    Estimated Free Energy of Binding    =   -5.94 kcal/mol  [=(1)+(2)+(3)-(4)]
DOCKED: USER    Estimated Inhibition Constant, Ki   =   44.17 uM (micromolar)  [Temperature = 298.15 K]
DOCKED: USER    
DOCKED: USER    (1) Final Intermolecular Energy     =   -9.82 kcal/mol
DOCKED: USER        vdW + Hbond + desolv Energy     =   -9.20 kcal/mol
DOCKED: USER        Electrostatic Energy            =   -0.62 kcal/mol
DOCKED: USER    (2) Final Total Internal Energy     =   -2.59 kcal/mol
DOCKED: USER    (3) Torsional Free Energy           =   +3.88 kcal/mol
DOCKED: USER    (4) Unbound System's Energy  [=(2)] =   -2.59 kcal/mol
DOCKED: USER    
DOCKED: USER    
DOCKED: USER    NEWDPF move heme_opt.pdbqt
DOCKED: USER    NEWDPF about 0.153000 0.018000 -0.028000
DOCKED: USER    NEWDPF tran0 12.616555 12.148986 11.035950
DOCKED: USER    NEWDPF quaternion0 0.870930 -0.087451 0.422425 -0.235351
DOCKED: USER    NEWDPF axisangle0 0.896101 -0.089978 0.434634 -152.775348
DOCKED: USER    NEWDPF quat0 0.896101 -0.089978 0.434634 -152.775348
DOCKED: USER    NEWDPF dihe0 -65.76 -92.46 -150.04 -112.15 -124.51 -120.26 40.71 -12.25 -3.32 -7.38 -66.80 35.36 27.65 
DOCKED: USER  keepresnum = 1 
DOCKED: USER  
DOCKED: REMARK  13 active torsions:
DOCKED: REMARK  status: ('A' for Active; 'I' for Inactive)
DOCKED: REMARK    1  A    between atoms: O_3  and  C_38 
DOCKED: REMARK    2  A    between atoms: O_4  and  C_40 
DOCKED: REMARK    3  A    between atoms: O_7  and  C_46 
DOCKED: REMARK    4  A    between atoms: O_9  and  C_48 
DOCKED: REMARK    5  A    between atoms: C_15  and  C_20 
DOCKED: REMARK    6  A    between atoms: C_16  and  C_23 
DOCKED: REMARK    7  A    between atoms: C_20  and  C_38 
DOCKED: REMARK    8  A    between atoms: C_23  and  C_40 
DOCKED: REMARK    9  A    between atoms: C_32  and  C_41 
DOCKED: REMARK   10  A    between atoms: C_37  and  C_45 
DOCKED: REMARK   11  A    between atoms: C_41  and  C_44 
DOCKED: REMARK   12  A    between atoms: C_44  and  C_46 
DOCKED: REMARK   13  A    between atoms: C_47  and  C_48 
DOCKED: USER                              x       y       z     vdW  Elec       q    Type
DOCKED: USER                           _______ _______ _______ _____ _____    ______ ____
DOCKED: ROOT
DOCKED: ATOM      1  O   UNL d   1       8.951  10.098   6.899 -0.10 -0.23    -0.289 OA
DOCKED: ATOM      2  O   UNL d   1      11.553  17.024   8.184 -0.14 -0.26    -0.289 OA
DOCKED: ATOM      3  N   UNL d   1      11.003  10.858   9.565 -0.06 -0.07    -0.247 NA
DOCKED: ATOM      4  N   UNL d   1      11.737  13.696   9.075 -0.04 -0.07    -0.247 NA
DOCKED: ATOM      5  N   UNL d   1      13.795  13.410  11.063 -0.05 -0.01    -0.354 N 
DOCKED: ATOM      6  N   UNL d   1      13.039  10.462  11.551 +0.01 -0.07    -0.354 N 
DOCKED: ATOM      7  C   UNL d   1      10.076   8.791   8.631 -0.18 +0.01    +0.084 A 
DOCKED: ATOM      8  C   UNL d   1      10.173  15.046   7.770 -0.24 +0.04    +0.084 A 
DOCKED: ATOM      9  C   UNL d   1      10.577  13.679   8.334 -0.19 +0.03    +0.058 A 
DOCKED: ATOM     10  C   UNL d   1      10.943   9.480   9.688 -0.09 +0.01    +0.058 A 
DOCKED: ATOM     11  C   UNL d   1       9.641  10.025   7.899 -0.10 +0.10    +0.193 A 
DOCKED: ATOM     12  C   UNL d   1      10.249  11.214   8.576 -0.14 +0.06    +0.109 A 
DOCKED: ATOM     13  C   UNL d   1      11.340  15.833   8.296 -0.09 +0.10    +0.193 A 
DOCKED: ATOM     14  C   UNL d   1      10.906   7.920   7.685 -0.32 +0.00    +0.026 C 
DOCKED: ATOM     15  C   UNL d   1       9.885  12.557   8.082 -0.13 +0.04    +0.055 C 
DOCKED: ATOM     16  C   UNL d   1       8.890  15.572   8.420 -0.47 +0.02    +0.026 C 
DOCKED: ATOM     17  C   UNL d   1      12.217  14.898   9.063 -0.08 +0.03    +0.109 A 
DOCKED: ATOM     18  C   UNL d   1      11.511   8.787  10.693 -0.07 +0.01    +0.050 C 
DOCKED: ATOM     19  C   UNL d   1      12.257   9.348  11.760 -0.05 +0.01    +0.045 A 
DOCKED: ATOM     20  C   UNL d   1      14.134  14.634  10.547 -0.15 +0.00    +0.045 A 
DOCKED: ATOM     21  C   UNL d   1      13.469  15.384   9.662 -0.14 +0.01    +0.057 C 
DOCKED: ATOM     22  C   UNL d   1      15.760  13.973  12.009 -0.13 -0.00    -0.019 A 
DOCKED: ATOM     23  C   UNL d   1      14.716  12.930  11.954 -0.07 -0.00    +0.045 A 
DOCKED: ATOM     24  C   UNL d   1      15.408  14.980  11.174 -0.14 -0.00    -0.022 A 
DOCKED: ATOM     25  C   UNL d   1      13.742  10.780  12.690 -0.09 +0.01    +0.049 A 
DOCKED: ATOM     26  C   UNL d   1      12.428   8.955  13.078 -0.09 -0.01    -0.018 A 
DOCKED: ATOM     27  C   UNL d   1      13.351   9.874  13.666 -0.11 +0.00    +0.003 A 
DOCKED: ATOM     28  C   UNL d   1      14.735  11.797  12.674 -0.14 +0.00    +0.052 C 
DOCKED: ATOM     29  C   UNL d   1      16.130  16.255  10.895 -0.06 +0.01    +0.046 C 
DOCKED: ATOM     30  C   UNL d   1      11.773   7.798  13.754 -0.18 +0.02    +0.046 C 
DOCKED: ATOM     31  H   UNL d   1      12.905  12.975  10.844 +0.05 +0.02    +0.166 HD
DOCKED: ATOM     32  H   UNL d   1      13.105  10.941  10.660 +0.04 +0.03    +0.166 HD
DOCKED: ENDROOT
DOCKED: BRANCH   7  33
DOCKED: ATOM     33  C   UNL d   1       8.860   8.031   9.172 -0.22 +0.01    +0.141 C 
DOCKED: BRANCH  33  34
DOCKED: ATOM     34  C   UNL d   1       8.110   8.808  10.220 -0.15 +0.00    +0.306 C 
DOCKED: ATOM     35  O   UNL d   1       8.497   9.052  11.351 -0.14 -0.00    -0.251 OA
DOCKED: BRANCH  34  36
DOCKED: ATOM     36  O   UNL d   1       6.913   9.240   9.787 -0.13 +0.11    -0.481 OA
DOCKED: ATOM     37  H   UNL d   1       6.261   8.723  10.307 -0.23 -0.35    +0.295 HD
DOCKED: ENDBRANCH  34  36
DOCKED: ENDBRANCH  33  34
DOCKED: ENDBRANCH   7  33
DOCKED: BRANCH  27  38
DOCKED: ATOM     38  C   UNL d   1      13.819   9.823  15.018 -0.23 +0.00    +0.017 C 
DOCKED: ATOM     39  C   UNL d   1      13.468  10.676  15.992 -0.40 +0.01    +0.092 C 
DOCKED: BRANCH  39  40
DOCKED: ATOM     40  C   UNL d   1      14.007  10.503  17.344 -0.31 +0.01    +0.330 C 
DOCKED: ATOM     41  O   UNL d   1      13.385  10.351  18.378 -0.51 -0.01    -0.246 OA
DOCKED: BRANCH  40  42
DOCKED: ATOM     42  O   UNL d   1      15.348  10.524  17.313 -0.09 +0.02    -0.477 OA
DOCKED: ATOM     43  H   UNL d   1      15.570  11.474  17.390 -0.38 -0.14    +0.295 HD
DOCKED: ENDBRANCH  40  42
DOCKED: ENDBRANCH  39  40
DOCKED: ENDBRANCH  27  38
DOCKED: BRANCH   8  44
DOCKED: ATOM     44  C   UNL d   1      10.097  15.133   6.242 -0.38 +0.05    +0.141 C 
DOCKED: BRANCH  44  45
DOCKED: ATOM     45  C   UNL d   1      11.385  14.757   5.560 -0.31 +0.05    +0.306 C 
DOCKED: ATOM     46  O   UNL d   1      12.437  14.466   6.103 -0.27 -0.03    -0.251 OA
DOCKED: BRANCH  45  47
DOCKED: ATOM     47  O   UNL d   1      11.288  14.795   4.219 -0.77 +0.03    -0.481 OA
DOCKED: ATOM     48  H   UNL d   1      10.608  15.478   4.039 -0.30 -0.15    +0.295 HD
DOCKED: ENDBRANCH  45  47
DOCKED: ENDBRANCH  44  45
DOCKED: ENDBRANCH   8  44
DOCKED: BRANCH  22  49
DOCKED: ATOM     49  C   UNL d   1      16.998  13.883  12.851 -0.16 +0.00    +0.048 C 
DOCKED: BRANCH  49  50
DOCKED: ATOM     50  C   UNL d   1      16.667  13.656  14.326 -0.05 +0.01    +0.125 C 
DOCKED: BRANCH  50  51
DOCKED: ATOM     51  C   UNL d   1      17.144  12.306  14.782 -0.10 +0.03    +0.305 C 
DOCKED: ATOM     52  O   UNL d   1      17.434  11.348  14.088 -0.05 -0.06    -0.251 OA
DOCKED: BRANCH  51  53
DOCKED: ATOM     53  O   UNL d   1      17.222  12.226  16.125 -0.05 +0.02    -0.481 OA
DOCKED: ATOM     54  H   UNL d   1      16.289  12.274  16.421 -0.27 -0.08    +0.295 HD
DOCKED: ENDBRANCH  51  53
DOCKED: ENDBRANCH  50  51
DOCKED: ENDBRANCH  49  50
DOCKED: ENDBRANCH  22  49
DOCKED: TORSDOF 13
DOCKED: TER
DOCKED: ENDMDL
________________________________________________________________________________


	BEGINNING GENETIC ALGORITHM DOCKING 16 of 100
Run: 16 Seed: 1371138720 902238305 [ Run 16 of 100 GA/GALS ]
Beginning LAMARCKIAN GENETIC ALGORITHM (LGA), with a maximum of 25000000 energy evaluations.

Final-Value: -11.047


	FINAL GENETIC ALGORITHM DOCKED STATE
	_______________________________________________


Detailed state:  trans 38.971 -18.212 22.804 quatxyzw 0.015999 0.478898 -0.875009 -0.068993 center 0.153 0.018 -0.028 ntor 13 105.6969 174.2368 -82.8553 -118.2524 -141.9552 -21.4246 179.8739 -48.1508 50.9673 -108.5429 -59.7959 -56.5669 36.9314
State:	 38.971 -18.212  22.804   0.016  0.480 -0.877 -172.088    105.70  174.24  -82.86 -118.25 -141.96  -21.42  179.87  -48.15   50.97 -108.54  -59.80  -56.57   36.93

DOCKED: MODEL       16
DOCKED: USER    Run = 16
DOCKED: USER    DPF = D:/Protein_go_brrr/autodock/final/1A3N/heme/dock.dpf
DOCKED: USER  
DOCKED: USER    Estimated Free Energy of Binding    =   -3.07 kcal/mol  [=(1)+(2)+(3)-(4)]
DOCKED: USER    Estimated Inhibition Constant, Ki   =    5.60 mM (millimolar)  [Temperature = 298.15 K]
DOCKED: USER    
DOCKED: USER    (1) Final Intermolecular Energy     =   -6.95 kcal/mol
DOCKED: USER        vdW + Hbond + desolv Energy     =   -6.89 kcal/mol
DOCKED: USER        Electrostatic Energy            =   -0.06 kcal/mol
DOCKED: USER    (2) Final Total Internal Energy     =   -4.10 kcal/mol
DOCKED: USER    (3) Torsional Free Energy           =   +3.88 kcal/mol
DOCKED: USER    (4) Unbound System's Energy  [=(2)] =   -4.10 kcal/mol
DOCKED: USER    
DOCKED: USER    
DOCKED: USER    NEWDPF move heme_opt.pdbqt
DOCKED: USER    NEWDPF about 0.153000 0.018000 -0.028000
DOCKED: USER    NEWDPF tran0 38.971089 -18.211744 22.804187
DOCKED: USER    NEWDPF quaternion0 0.015999 0.478898 -0.875009 -0.068993
DOCKED: USER    NEWDPF axisangle0 0.016037 0.480042 -0.877099 -172.087664
DOCKED: USER    NEWDPF quat0 0.016037 0.480042 -0.877099 -172.087664
DOCKED: USER    NEWDPF dihe0 105.70 174.24 -82.86 -118.25 -141.96 -21.42 179.87 -48.15 50.97 -108.54 -59.80 -56.57 36.93 
DOCKED: USER  keepresnum = 1 
DOCKED: USER  
DOCKED: REMARK  13 active torsions:
DOCKED: REMARK  status: ('A' for Active; 'I' for Inactive)
DOCKED: REMARK    1  A    between atoms: O_3  and  C_38 
DOCKED: REMARK    2  A    between atoms: O_4  and  C_40 
DOCKED: REMARK    3  A    between atoms: O_7  and  C_46 
DOCKED: REMARK    4  A    between atoms: O_9  and  C_48 
DOCKED: REMARK    5  A    between atoms: C_15  and  C_20 
DOCKED: REMARK    6  A    between atoms: C_16  and  C_23 
DOCKED: REMARK    7  A    between atoms: C_20  and  C_38 
DOCKED: REMARK    8  A    between atoms: C_23  and  C_40 
DOCKED: REMARK    9  A    between atoms: C_32  and  C_41 
DOCKED: REMARK   10  A    between atoms: C_37  and  C_45 
DOCKED: REMARK   11  A    between atoms: C_41  and  C_44 
DOCKED: REMARK   12  A    between atoms: C_44  and  C_46 
DOCKED: REMARK   13  A    between atoms: C_47  and  C_48 
DOCKED: USER                              x       y       z     vdW  Elec       q    Type
DOCKED: USER                           _______ _______ _______ _____ _____    ______ ____
DOCKED: ROOT
DOCKED: ATOM      1  O   UNL d   1      44.780 -19.063  22.271 -0.02 +0.04    -0.289 OA
DOCKED: ATOM      2  O   UNL d   1      40.882 -14.028  26.251 -0.43 +0.05    -0.289 OA
DOCKED: ATOM      3  N   UNL d   1      41.339 -18.857  22.165 -0.02 +0.07    -0.247 NA
DOCKED: ATOM      4  N   UNL d   1      40.711 -16.831  24.245 -0.10 +0.07    -0.247 NA
DOCKED: ATOM      5  N   UNL d   1      37.963 -17.660  24.092 -0.06 +0.09    -0.354 N 
DOCKED: ATOM      6  N   UNL d   1      38.626 -19.773  21.948 -0.06 +0.05    -0.354 N 
DOCKED: ATOM      7  C   UNL d   1      43.009 -20.394  21.238 -0.06 -0.01    +0.084 A 
DOCKED: ATOM      8  C   UNL d   1      42.440 -15.180  24.755 -0.16 -0.02    +0.084 A 
DOCKED: ATOM      9  C   UNL d   1      42.011 -16.446  24.005 -0.16 -0.02    +0.058 A 
DOCKED: ATOM     10  C   UNL d   1      41.539 -20.000  21.409 -0.10 -0.01    +0.058 A 
DOCKED: ATOM     11  C   UNL d   1      43.606 -19.260  22.016 -0.05 -0.04    +0.193 A 
DOCKED: ATOM     12  C   UNL d   1      42.494 -18.384  22.504 -0.04 -0.03    +0.109 A 
DOCKED: ATOM     13  C   UNL d   1      41.154 -14.940  25.495 -0.13 -0.05    +0.193 A 
DOCKED: ATOM     14  C   UNL d   1      43.338 -21.709  21.948 -0.02 -0.00    +0.026 C 
DOCKED: ATOM     15  C   UNL d   1      42.849 -17.144  23.223 -0.14 -0.02    +0.055 C 
DOCKED: ATOM     16  C   UNL d   1      42.685 -14.009  23.800 -0.26 -0.01    +0.026 C 
DOCKED: ATOM     17  C   UNL d   1      40.191 -16.014  25.104 -0.16 -0.03    +0.109 A 
DOCKED: ATOM     18  C   UNL d   1      40.553 -20.676  20.788 -0.13 -0.00    +0.050 C 
DOCKED: ATOM     19  C   UNL d   1      39.177 -20.337  20.819 -0.06 -0.00    +0.045 A 
DOCKED: ATOM     20  C   UNL d   1      37.904 -16.853  25.198 -0.19 -0.01    +0.045 A 
DOCKED: ATOM     21  C   UNL d   1      38.852 -16.060  25.708 -0.23 -0.01    +0.057 C 
DOCKED: ATOM     22  C   UNL d   1      35.893 -17.905  24.945 -0.18 +0.01    -0.019 A 
DOCKED: ATOM     23  C   UNL d   1      36.795 -18.336  23.858 -0.19 -0.01    +0.045 A 
DOCKED: ATOM     24  C   UNL d   1      36.554 -17.026  25.734 -0.18 +0.00    -0.022 A 
DOCKED: ATOM     25  C   UNL d   1      37.269 -19.611  21.794 -0.19 -0.01    +0.049 A 
DOCKED: ATOM     26  C   UNL d   1      38.159 -20.510  19.895 -0.18 +0.00    -0.018 A 
DOCKED: ATOM     27  C   UNL d   1      36.960 -20.032  20.508 -0.27 -0.00    +0.003 A 
DOCKED: ATOM     28  C   UNL d   1      36.456 -19.192  22.882 -0.20 -0.01    +0.052 C 
DOCKED: ATOM     29  C   UNL d   1      36.065 -16.308  26.945 -0.20 -0.01    +0.046 C 
DOCKED: ATOM     30  C   UNL d   1      38.290 -21.083  18.524 -0.27 -0.00    +0.046 C 
DOCKED: ATOM     31  H   UNL d   1      38.777 -17.665  23.487 +0.07 -0.04    +0.166 HD
DOCKED: ATOM     32  H   UNL d   1      39.158 -19.555  22.782 +0.04 -0.03    +0.166 HD
DOCKED: ENDROOT
DOCKED: BRANCH   7  33
DOCKED: ATOM     33  C   UNL d   1      43.527 -20.388  19.796 -0.07 -0.01    +0.141 C 
DOCKED: BRANCH  33  34
DOCKED: ATOM     34  C   UNL d   1      44.279 -19.130  19.455 -0.07 -0.04    +0.306 C 
DOCKED: ATOM     35  O   UNL d   1      43.796 -18.095  19.029 -0.16 +0.05    -0.251 OA
DOCKED: BRANCH  34  36
DOCKED: ATOM     36  O   UNL d   1      45.601 -19.241  19.673 -0.00 +0.03    -0.481 OA
DOCKED: ATOM     37  H   UNL d   1      45.699 -19.161  20.646 +0.03 -0.03    +0.295 HD
DOCKED: ENDBRANCH  34  36
DOCKED: ENDBRANCH  33  34
DOCKED: ENDBRANCH   7  33
DOCKED: BRANCH  27  38
DOCKED: ATOM     38  C   UNL d   1      35.663 -20.041  19.901 -0.37 -0.00    +0.017 C 
DOCKED: ATOM     39  C   UNL d   1      34.498 -19.959  20.563 -0.31 -0.01    +0.092 C 
DOCKED: BRANCH  39  40
DOCKED: ATOM     40  C   UNL d   1      33.235 -19.961  19.820 -0.27 -0.05    +0.330 C 
DOCKED: ATOM     41  O   UNL d   1      33.054 -19.642  18.660 -0.37 +0.04    -0.246 OA
DOCKED: BRANCH  40  42
DOCKED: ATOM     42  O   UNL d   1      32.237 -20.388  20.608 -0.16 +0.10    -0.477 OA
DOCKED: ATOM     43  H   UNL d   1      32.689 -20.663  21.432 +0.16 -0.06    +0.295 HD
DOCKED: ENDBRANCH  40  42
DOCKED: ENDBRANCH  39  40
DOCKED: ENDBRANCH  27  38
DOCKED: BRANCH   8  44
DOCKED: ATOM     44  C   UNL d   1      43.609 -15.354  25.730 -0.06 -0.02    +0.141 C 
DOCKED: BRANCH  44  45
DOCKED: ATOM     45  C   UNL d   1      43.661 -14.289  26.792 -0.05 -0.05    +0.306 C 
DOCKED: ATOM     46  O   UNL d   1      43.864 -14.457  27.982 -0.02 +0.04    -0.251 OA
DOCKED: BRANCH  45  47
DOCKED: ATOM     47  O   UNL d   1      43.427 -13.059  26.299 -0.09 +0.07    -0.481 OA
DOCKED: ATOM     48  H   UNL d   1      42.472 -12.905  26.462 +0.10 -0.04    +0.295 HD
DOCKED: ENDBRANCH  45  47
DOCKED: ENDBRANCH  44  45
DOCKED: ENDBRANCH   8  44
DOCKED: BRANCH  22  49
DOCKED: ATOM     49  C   UNL d   1      34.486 -18.399  25.117 -0.09 -0.03    +0.048 C 
DOCKED: BRANCH  49  50
DOCKED: ATOM     50  C   UNL d   1      33.710 -18.378  23.801 -0.17 -0.07    +0.125 C 
DOCKED: BRANCH  50  51
DOCKED: ATOM     51  C   UNL d   1      33.220 -19.753  23.445 -0.22 -0.12    +0.305 C 
DOCKED: ATOM     52  O   UNL d   1      33.878 -20.773  23.342 -0.09 +0.06    -0.251 OA
DOCKED: BRANCH  51  53
DOCKED: ATOM     53  O   UNL d   1      31.891 -19.771  23.218 -0.17 +0.23    -0.481 OA
DOCKED: ATOM     54  H   UNL d   1      31.771 -19.166  22.457 -0.09 -0.13    +0.295 HD
DOCKED: ENDBRANCH  51  53
DOCKED: ENDBRANCH  50  51
DOCKED: ENDBRANCH  49  50
DOCKED: ENDBRANCH  22  49
DOCKED: TORSDOF 13
DOCKED: TER
DOCKED: ENDMDL
________________________________________________________________________________


	BEGINNING GENETIC ALGORITHM DOCKING 17 of 100
Run: 17 Seed: 1734081045 253441294 [ Run 17 of 100 GA/GALS ]
Beginning LAMARCKIAN GENETIC ALGORITHM (LGA), with a maximum of 25000000 energy evaluations.

Final-Value: -11.930


	FINAL GENETIC ALGORITHM DOCKED STATE
	_______________________________________________


Detailed state:  trans 19.118 -7.930 -12.552 quatxyzw -0.062589 0.368864 0.925936 -0.051613 center 0.153 0.018 -0.028 ntor 13 174.8908 98.8879 -85.0040 -131.8091 -152.9051 -56.5105 143.5294 -89.3126 7.9082 -84.0799 -116.6700 -27.2909 160.8937
State:	 19.118  -7.930 -12.552  -0.063  0.369  0.927 -174.083    174.89   98.89  -85.00 -131.81 -152.91  -56.51  143.53  -89.31    7.91  -84.08 -116.67  -27.29  160.89

DOCKED: MODEL       17
DOCKED: USER    Run = 17
DOCKED: USER    DPF = D:/Protein_go_brrr/autodock/final/1A3N/heme/dock.dpf
DOCKED: USER  
DOCKED: USER    Estimated Free Energy of Binding    =   -5.59 kcal/mol  [=(1)+(2)+(3)-(4)]
DOCKED: USER    Estimated Inhibition Constant, Ki   =   79.76 uM (micromolar)  [Temperature = 298.15 K]
DOCKED: USER    
DOCKED: USER    (1) Final Intermolecular Energy     =   -9.47 kcal/mol
DOCKED: USER        vdW + Hbond + desolv Energy     =   -9.26 kcal/mol
DOCKED: USER        Electrostatic Energy            =   -0.20 kcal/mol
DOCKED: USER    (2) Final Total Internal Energy     =   -2.46 kcal/mol
DOCKED: USER    (3) Torsional Free Energy           =   +3.88 kcal/mol
DOCKED: USER    (4) Unbound System's Energy  [=(2)] =   -2.46 kcal/mol
DOCKED: USER    
DOCKED: USER    
DOCKED: USER    NEWDPF move heme_opt.pdbqt
DOCKED: USER    NEWDPF about 0.153000 0.018000 -0.028000
DOCKED: USER    NEWDPF tran0 19.118329 -7.930210 -12.552215
DOCKED: USER    NEWDPF quaternion0 -0.062589 0.368864 0.925936 -0.051613
DOCKED: USER    NEWDPF axisangle0 -0.062673 0.369356 0.927172 -174.082964
DOCKED: USER    NEWDPF quat0 -0.062673 0.369356 0.927172 -174.082964
DOCKED: USER    NEWDPF dihe0 174.89 98.89 -85.00 -131.81 -152.91 -56.51 143.53 -89.31 7.91 -84.08 -116.67 -27.29 160.89 
DOCKED: USER  keepresnum = 1 
DOCKED: USER  
DOCKED: REMARK  13 active torsions:
DOCKED: REMARK  status: ('A' for Active; 'I' for Inactive)
DOCKED: REMARK    1  A    between atoms: O_3  and  C_38 
DOCKED: REMARK    2  A    between atoms: O_4  and  C_40 
DOCKED: REMARK    3  A    between atoms: O_7  and  C_46 
DOCKED: REMARK    4  A    between atoms: O_9  and  C_48 
DOCKED: REMARK    5  A    between atoms: C_15  and  C_20 
DOCKED: REMARK    6  A    between atoms: C_16  and  C_23 
DOCKED: REMARK    7  A    between atoms: C_20  and  C_38 
DOCKED: REMARK    8  A    between atoms: C_23  and  C_40 
DOCKED: REMARK    9  A    between atoms: C_32  and  C_41 
DOCKED: REMARK   10  A    between atoms: C_37  and  C_45 
DOCKED: REMARK   11  A    between atoms: C_41  and  C_44 
DOCKED: REMARK   12  A    between atoms: C_44  and  C_46 
DOCKED: REMARK   13  A    between atoms: C_47  and  C_48 
DOCKED: USER                              x       y       z     vdW  Elec       q    Type
DOCKED: USER                           _______ _______ _______ _____ _____    ______ ____
DOCKED: ROOT
DOCKED: ATOM      1  O   UNL d   1      24.366  -8.981 -10.079 -0.82 +0.09    -0.289 OA
DOCKED: ATOM      2  O   UNL d   1      22.550  -5.649 -16.559 -0.04 +0.03    -0.289 OA
DOCKED: ATOM      3  N   UNL d   1      21.113  -8.709 -11.192 -0.13 +0.08    -0.247 NA
DOCKED: ATOM      4  N   UNL d   1      21.362  -7.017 -13.622 -0.18 +0.07    -0.247 NA
DOCKED: ATOM      5  N   UNL d   1      18.509  -6.667 -13.558 +0.01 +0.08    -0.354 N 
DOCKED: ATOM      6  N   UNL d   1      18.261  -8.408 -11.026 -0.11 +0.07    -0.354 N 
DOCKED: ATOM      7  C   UNL d   1      22.174  -9.504  -9.131 -0.17 -0.02    +0.084 A 
DOCKED: ATOM      8  C   UNL d   1      23.502  -7.060 -14.800 -0.17 -0.02    +0.084 A 
DOCKED: ATOM      9  C   UNL d   1      22.656  -7.485 -13.595 -0.24 -0.02    +0.058 A 
DOCKED: ATOM     10  C   UNL d   1      20.896  -9.239  -9.932 -0.16 -0.01    +0.058 A 
DOCKED: ATOM     11  C   UNL d   1      23.153  -9.047 -10.170 -0.20 -0.06    +0.193 A 
DOCKED: ATOM     12  C   UNL d   1      22.388  -8.613 -11.382 -0.19 -0.04    +0.109 A 
DOCKED: ATOM     13  C   UNL d   1      22.459  -6.234 -15.497 -0.10 -0.03    +0.193 A 
DOCKED: ATOM     14  C   UNL d   1      22.286  -8.590  -7.908 -0.35 -0.00    +0.026 C 
DOCKED: ATOM     15  C   UNL d   1      23.153  -8.206 -12.578 -0.25 -0.02    +0.055 C 
DOCKED: ATOM     16  C   UNL d   1      23.861  -8.254 -15.691 -0.07 -0.00    +0.026 C 
DOCKED: ATOM     17  C   UNL d   1      21.211  -6.283 -14.677 -0.20 -0.02    +0.109 A 
DOCKED: ATOM     18  C   UNL d   1      19.684  -9.588  -9.458 -0.16 -0.01    +0.050 C 
DOCKED: ATOM     19  C   UNL d   1      18.459  -9.459 -10.160 -0.17 -0.01    +0.045 A 
DOCKED: ATOM     20  C   UNL d   1      18.837  -5.746 -14.519 -0.19 -0.00    +0.045 A 
DOCKED: ATOM     21  C   UNL d   1      20.023  -5.523 -15.095 -0.22 -0.00    +0.057 C 
DOCKED: ATOM     22  C   UNL d   1      16.617  -5.538 -14.026 -0.18 +0.00    -0.019 A 
DOCKED: ATOM     23  C   UNL d   1      17.189  -6.617 -13.196 -0.20 -0.00    +0.045 A 
DOCKED: ATOM     24  C   UNL d   1      17.597  -5.027 -14.808 -0.17 -0.00    -0.022 A 
DOCKED: ATOM     25  C   UNL d   1      16.979  -8.427 -11.525 -0.21 -0.00    +0.049 A 
DOCKED: ATOM     26  C   UNL d   1      17.288 -10.200 -10.122 -0.18 +0.00    -0.018 A 
DOCKED: ATOM     27  C   UNL d   1      16.364  -9.555 -11.001 -0.10 -0.00    +0.003 A 
DOCKED: ATOM     28  C   UNL d   1      16.490  -7.354 -12.319 -0.27 -0.00    +0.052 C 
DOCKED: ATOM     29  C   UNL d   1      17.510  -3.934 -15.818 -0.11 +0.00    +0.046 C 
DOCKED: ATOM     30  C   UNL d   1      17.040 -11.434  -9.322 -0.20 -0.01    +0.046 C 
DOCKED: ATOM     31  H   UNL d   1      19.183  -7.352 -13.234 -0.20 -0.05    +0.166 HD
DOCKED: ATOM     32  H   UNL d   1      18.964  -7.705 -11.224 -0.53 -0.09    +0.166 HD
DOCKED: ENDROOT
DOCKED: BRANCH   7  33
DOCKED: ATOM     33  C   UNL d   1      22.426 -10.970  -8.762 -0.06 -0.02    +0.141 C 
DOCKED: BRANCH  33  34
DOCKED: ATOM     34  C   UNL d   1      22.438 -11.876  -9.964 +0.01 -0.04    +0.306 C 
DOCKED: ATOM     35  O   UNL d   1      21.513 -12.567 -10.355 -0.00 +0.03    -0.251 OA
DOCKED: BRANCH  34  36
DOCKED: ATOM     36  O   UNL d   1      23.617 -11.861 -10.612 +0.02 +0.10    -0.481 OA
DOCKED: ATOM     37  H   UNL d   1      24.128 -11.145 -10.179 +0.08 -0.08    +0.295 HD
DOCKED: ENDBRANCH  34  36
DOCKED: ENDBRANCH  33  34
DOCKED: ENDBRANCH   7  33
DOCKED: BRANCH  27  38
DOCKED: ATOM     38  C   UNL d   1      15.021  -9.986 -11.247 -0.17 +0.00    +0.017 C 
DOCKED: ATOM     39  C   UNL d   1      14.212  -9.494 -12.198 -0.23 +0.02    +0.092 C 
DOCKED: BRANCH  39  40
DOCKED: ATOM     40  C   UNL d   1      12.860 -10.036 -12.358 -0.24 +0.11    +0.330 C 
DOCKED: ATOM     41  O   UNL d   1      12.543 -11.186 -12.592 -0.07 -0.20    -0.246 OA
DOCKED: BRANCH  40  42
DOCKED: ATOM     42  O   UNL d   1      11.950  -9.062 -12.200 -0.19 -0.04    -0.477 OA
DOCKED: ATOM     43  H   UNL d   1      11.862  -8.979 -11.228 -0.37 -0.03    +0.295 HD
DOCKED: ENDBRANCH  40  42
DOCKED: ENDBRANCH  39  40
DOCKED: ENDBRANCH  27  38
DOCKED: BRANCH   8  44
DOCKED: ATOM     44  C   UNL d   1      24.741  -6.219 -14.475 -0.25 -0.04    +0.141 C 
DOCKED: BRANCH  44  45
DOCKED: ATOM     45  C   UNL d   1      24.893  -5.016 -15.366 -0.20 -0.06    +0.306 C 
DOCKED: ATOM     46  O   UNL d   1      24.581  -3.869 -15.099 -0.42 +0.03    -0.251 OA
DOCKED: BRANCH  45  47
DOCKED: ATOM     47  O   UNL d   1      25.411  -5.328 -16.568 -0.02 +0.07    -0.481 OA
DOCKED: ATOM     48  H   UNL d   1      24.630  -5.461 -17.147 +0.05 -0.03    +0.295 HD
DOCKED: ENDBRANCH  45  47
DOCKED: ENDBRANCH  44  45
DOCKED: ENDBRANCH   8  44
DOCKED: BRANCH  22  49
DOCKED: ATOM     49  C   UNL d   1      15.182  -5.101 -13.968 -0.13 +0.00    +0.048 C 
DOCKED: BRANCH  49  50
DOCKED: ATOM     50  C   UNL d   1      14.904  -4.223 -12.747 -0.21 +0.01    +0.125 C 
DOCKED: BRANCH  50  51
DOCKED: ATOM     51  C   UNL d   1      15.678  -2.938 -12.824 -0.16 +0.02    +0.305 C 
DOCKED: ATOM     52  O   UNL d   1      16.757  -2.689 -12.316 -0.29 -0.03    -0.251 OA
DOCKED: BRANCH  51  53
DOCKED: ATOM     53  O   UNL d   1      15.030  -2.002 -13.546 -0.01 -0.04    -0.481 OA
DOCKED: ATOM     54  H   UNL d   1      14.116  -2.019 -13.193 +0.06 +0.02    +0.295 HD
DOCKED: ENDBRANCH  51  53
DOCKED: ENDBRANCH  50  51
DOCKED: ENDBRANCH  49  50
DOCKED: ENDBRANCH  22  49
DOCKED: TORSDOF 13
DOCKED: TER
DOCKED: ENDMDL
________________________________________________________________________________


	BEGINNING GENETIC ALGORITHM DOCKING 18 of 100
Run: 18 Seed: 1609499440 802123340 [ Run 18 of 100 GA/GALS ]
Beginning LAMARCKIAN GENETIC ALGORITHM (LGA), with a maximum of 25000000 energy evaluations.

Final-Value: -11.207


	FINAL GENETIC ALGORITHM DOCKED STATE
	_______________________________________________


Detailed state:  trans 21.253 -4.801 38.012 quatxyzw -0.091465 -0.215213 -0.723479 0.649535 center 0.153 0.018 -0.028 ntor 13 -100.4668 -157.0396 -107.7567 104.2614 33.9716 -42.4102 175.1836 107.7749 125.6147 16.9147 30.6012 56.8217 169.1700
State:	 21.253  -4.801  38.012  -0.120 -0.283 -0.952 98.987   -100.47 -157.04 -107.76  104.26   33.97  -42.41  175.18  107.77  125.61   16.91   30.60   56.82  169.17

DOCKED: MODEL       18
DOCKED: USER    Run = 18
DOCKED: USER    DPF = D:/Protein_go_brrr/autodock/final/1A3N/heme/dock.dpf
DOCKED: USER  
DOCKED: USER    Estimated Free Energy of Binding    =   -5.18 kcal/mol  [=(1)+(2)+(3)-(4)]
DOCKED: USER    Estimated Inhibition Constant, Ki   =  158.58 uM (micromolar)  [Temperature = 298.15 K]
DOCKED: USER    
DOCKED: USER    (1) Final Intermolecular Energy     =   -9.06 kcal/mol
DOCKED: USER        vdW + Hbond + desolv Energy     =   -8.62 kcal/mol
DOCKED: USER        Electrostatic Energy            =   -0.44 kcal/mol
DOCKED: USER    (2) Final Total Internal Energy     =   -2.15 kcal/mol
DOCKED: USER    (3) Torsional Free Energy           =   +3.88 kcal/mol
DOCKED: USER    (4) Unbound System's Energy  [=(2)] =   -2.15 kcal/mol
DOCKED: USER    
DOCKED: USER    
DOCKED: USER    NEWDPF move heme_opt.pdbqt
DOCKED: USER    NEWDPF about 0.153000 0.018000 -0.028000
DOCKED: USER    NEWDPF tran0 21.252903 -4.800834 38.011515
DOCKED: USER    NEWDPF quaternion0 -0.091465 -0.215213 -0.723479 0.649535
DOCKED: USER    NEWDPF axisangle0 -0.120296 -0.283051 -0.951531 98.986865
DOCKED: USER    NEWDPF quat0 -0.120296 -0.283051 -0.951531 98.986865
DOCKED: USER    NEWDPF dihe0 -100.47 -157.04 -107.76 104.26 33.97 -42.41 175.18 107.77 125.61 16.91 30.60 56.82 169.17 
DOCKED: USER  keepresnum = 1 
DOCKED: USER  
DOCKED: REMARK  13 active torsions:
DOCKED: REMARK  status: ('A' for Active; 'I' for Inactive)
DOCKED: REMARK    1  A    between atoms: O_3  and  C_38 
DOCKED: REMARK    2  A    between atoms: O_4  and  C_40 
DOCKED: REMARK    3  A    between atoms: O_7  and  C_46 
DOCKED: REMARK    4  A    between atoms: O_9  and  C_48 
DOCKED: REMARK    5  A    between atoms: C_15  and  C_20 
DOCKED: REMARK    6  A    between atoms: C_16  and  C_23 
DOCKED: REMARK    7  A    between atoms: C_20  and  C_38 
DOCKED: REMARK    8  A    between atoms: C_23  and  C_40 
DOCKED: REMARK    9  A    between atoms: C_32  and  C_41 
DOCKED: REMARK   10  A    between atoms: C_37  and  C_45 
DOCKED: REMARK   11  A    between atoms: C_41  and  C_44 
DOCKED: REMARK   12  A    between atoms: C_44  and  C_46 
DOCKED: REMARK   13  A    between atoms: C_47  and  C_48 
DOCKED: USER                              x       y       z     vdW  Elec       q    Type
DOCKED: USER                           _______ _______ _______ _____ _____    ______ ____
DOCKED: ROOT
DOCKED: ATOM      1  O   UNL d   1      20.782 -10.278  40.141 -0.07 -0.04    -0.289 OA
DOCKED: ATOM      2  O   UNL d   1      25.337  -7.399  34.912 -0.12 -0.17    -0.289 OA
DOCKED: ATOM      3  N   UNL d   1      20.600  -6.992  39.110 -0.10 -0.04    -0.247 NA
DOCKED: ATOM      4  N   UNL d   1      22.935  -6.716  37.294 -0.10 -0.07    -0.247 NA
DOCKED: ATOM      5  N   UNL d   1      22.576  -3.866  37.415 -0.04 -0.06    -0.354 N 
DOCKED: ATOM      6  N   UNL d   1      20.166  -4.160  39.315 +0.04 -0.04    -0.354 N 
DOCKED: ATOM      7  C   UNL d   1      19.509  -8.318  40.859 -0.12 +0.01    +0.084 A 
DOCKED: ATOM      8  C   UNL d   1      23.737  -8.742  36.188 -0.18 +0.03    +0.084 A 
DOCKED: ATOM      9  C   UNL d   1      22.795  -8.082  37.201 -0.17 +0.02    +0.058 A 
DOCKED: ATOM     10  C   UNL d   1      19.690  -6.971  40.154 -0.16 +0.01    +0.058 A 
DOCKED: ATOM     11  C   UNL d   1      20.464  -9.109  40.017 -0.10 +0.03    +0.193 A 
DOCKED: ATOM     12  C   UNL d   1      21.041  -8.200  38.976 -0.16 +0.02    +0.109 A 
DOCKED: ATOM     13  C   UNL d   1      24.463  -7.501  35.751 -0.17 +0.10    +0.193 A 
DOCKED: ATOM     14  C   UNL d   1      20.027  -8.287  42.299 -0.05 +0.00    +0.026 C 
DOCKED: ATOM     15  C   UNL d   1      21.945  -8.785  37.966 -0.17 +0.01    +0.055 C 
DOCKED: ATOM     16  C   UNL d   1      22.973  -9.313  34.989 -0.28 +0.01    +0.026 C 
DOCKED: ATOM     17  C   UNL d   1      23.888  -6.344  36.501 -0.17 +0.04    +0.109 A 
DOCKED: ATOM     18  C   UNL d   1      18.946  -5.898  40.485 -0.18 +0.01    +0.050 C 
DOCKED: ATOM     19  C   UNL d   1      18.984  -4.639  39.834 -0.14 +0.00    +0.045 A 
DOCKED: ATOM     20  C   UNL d   1      23.787  -3.923  36.776 -0.18 +0.01    +0.045 A 
DOCKED: ATOM     21  C   UNL d   1      24.437  -4.993  36.309 -0.23 +0.02    +0.057 C 
DOCKED: ATOM     22  C   UNL d   1      23.318  -1.744  37.275 -0.22 -0.00    -0.019 A 
DOCKED: ATOM     23  C   UNL d   1      22.209  -2.591  37.756 -0.13 +0.00    +0.045 A 
DOCKED: ATOM     24  C   UNL d   1      24.248  -2.538  36.694 -0.27 -0.00    -0.022 A 
DOCKED: ATOM     25  C   UNL d   1      19.994  -2.891  38.814 -0.11 +0.00    +0.049 A 
DOCKED: ATOM     26  C   UNL d   1      18.012  -3.671  39.633 -0.23 -0.00    -0.018 A 
DOCKED: ATOM     27  C   UNL d   1      18.651  -2.577  38.971 -0.22 +0.00    +0.003 A 
DOCKED: ATOM     28  C   UNL d   1      21.107  -2.128  38.366 -0.14 +0.00    +0.052 C 
DOCKED: ATOM     29  C   UNL d   1      25.536  -2.150  36.051 -0.38 +0.01    +0.046 C 
DOCKED: ATOM     30  C   UNL d   1      16.577  -3.754  40.029 -0.09 -0.00    +0.046 C 
DOCKED: ATOM     31  H   UNL d   1      22.003  -4.695  37.533 +0.05 +0.03    +0.166 HD
DOCKED: ATOM     32  H   UNL d   1      21.039  -4.673  39.345 +0.03 +0.02    +0.166 HD
DOCKED: ENDROOT
DOCKED: BRANCH   7  33
DOCKED: ATOM     33  C   UNL d   1      18.100  -8.916  40.781 -0.18 +0.03    +0.141 C 
DOCKED: BRANCH  33  34
DOCKED: ATOM     34  C   UNL d   1      18.029 -10.307  41.350 -0.08 +0.06    +0.306 C 
DOCKED: ATOM     35  O   UNL d   1      17.819 -10.599  42.515 -0.03 -0.05    -0.251 OA
DOCKED: BRANCH  34  36
DOCKED: ATOM     36  O   UNL d   1      18.225 -11.259  40.420 -0.04 -0.07    -0.481 OA
DOCKED: ATOM     37  H   UNL d   1      19.195 -11.260  40.269 +0.05 +0.04    +0.295 HD
DOCKED: ENDBRANCH  34  36
DOCKED: ENDBRANCH  33  34
DOCKED: ENDBRANCH   7  33
DOCKED: BRANCH  27  38
DOCKED: ATOM     38  C   UNL d   1      18.010  -1.356  38.588 -0.25 -0.00    +0.017 C 
DOCKED: ATOM     39  C   UNL d   1      17.350  -1.155  37.437 -0.36 -0.01    +0.092 C 
DOCKED: BRANCH  39  40
DOCKED: ATOM     40  C   UNL d   1      16.721   0.141  37.172 -0.18 +0.00    +0.330 C 
DOCKED: ATOM     41  O   UNL d   1      16.053   0.813  37.935 -0.13 -0.02    -0.246 OA
DOCKED: BRANCH  40  42
DOCKED: ATOM     42  O   UNL d   1      16.988   0.537  35.918 -0.14 +0.00    -0.477 OA
DOCKED: ATOM     43  H   UNL d   1      17.194  -0.297  35.448 -0.19 -0.10    +0.295 HD
DOCKED: ENDBRANCH  40  42
DOCKED: ENDBRANCH  39  40
DOCKED: ENDBRANCH  27  38
DOCKED: BRANCH   8  44
DOCKED: ATOM     44  C   UNL d   1      24.711  -9.773  36.766 -0.15 +0.08    +0.141 C 
DOCKED: BRANCH  44  45
DOCKED: ATOM     45  C   UNL d   1      25.154  -9.451  38.169 -0.07 +0.26    +0.306 C 
DOCKED: ATOM     46  O   UNL d   1      25.162 -10.213  39.121 -0.06 -0.14    -0.251 OA
DOCKED: BRANCH  45  47
DOCKED: ATOM     47  O   UNL d   1      25.539  -8.170  38.306 -0.62 -0.67    -0.481 OA
DOCKED: ATOM     48  H   UNL d   1      24.706  -7.654  38.251 +0.05 +0.23    +0.295 HD
DOCKED: ENDBRANCH  45  47
DOCKED: ENDBRANCH  44  45
DOCKED: ENDBRANCH   8  44
DOCKED: BRANCH  22  49
DOCKED: ATOM     49  C   UNL d   1      23.372  -0.253  37.438 -0.01 -0.01    +0.048 C 
DOCKED: BRANCH  49  50
DOCKED: ATOM     50  C   UNL d   1      23.959   0.150  38.791 -0.26 +0.01    +0.125 C 
DOCKED: BRANCH  50  51
DOCKED: ATOM     51  C   UNL d   1      23.356   1.438  39.275 -0.18 +0.02    +0.305 C 
DOCKED: ATOM     52  O   UNL d   1      22.485   1.582  40.114 -0.10 -0.03    -0.251 OA
DOCKED: BRANCH  51  53
DOCKED: ATOM     53  O   UNL d   1      23.888   2.509  38.652 -0.71 -0.04    -0.481 OA
DOCKED: ATOM     54  H   UNL d   1      24.766   2.619  39.074 -0.43 -0.00    +0.295 HD
DOCKED: ENDBRANCH  51  53
DOCKED: ENDBRANCH  50  51
DOCKED: ENDBRANCH  49  50
DOCKED: ENDBRANCH  22  49
DOCKED: TORSDOF 13
DOCKED: TER
DOCKED: ENDMDL
________________________________________________________________________________


	BEGINNING GENETIC ALGORITHM DOCKING 19 of 100
Run: 19 Seed: 1870753016 686715153 [ Run 19 of 100 GA/GALS ]
Beginning LAMARCKIAN GENETIC ALGORITHM (LGA), with a maximum of 25000000 energy evaluations.

Final-Value: -12.743


	FINAL GENETIC ALGORITHM DOCKED STATE
	_______________________________________________


Detailed state:  trans 18.407 14.364 11.631 quatxyzw 0.136732 0.202790 -0.132716 0.960504 center 0.153 0.018 -0.028 ntor 13 131.0427 -119.8140 179.9059 -162.6154 -137.5486 -43.7908 141.2212 2.4501 16.8632 -22.4992 -17.2938 -12.3567 25.2482
State:	 18.407  14.364  11.631   0.491  0.729 -0.477 32.314    131.04 -119.81  179.91 -162.62 -137.55  -43.79  141.22    2.45   16.86  -22.50  -17.29  -12.36   25.25

DOCKED: MODEL       19
DOCKED: USER    Run = 19
DOCKED: USER    DPF = D:/Protein_go_brrr/autodock/final/1A3N/heme/dock.dpf
DOCKED: USER  
DOCKED: USER    Estimated Free Energy of Binding    =   -5.24 kcal/mol  [=(1)+(2)+(3)-(4)]
DOCKED: USER    Estimated Inhibition Constant, Ki   =  145.04 uM (micromolar)  [Temperature = 298.15 K]
DOCKED: USER    
DOCKED: USER    (1) Final Intermolecular Energy     =   -9.11 kcal/mol
DOCKED: USER        vdW + Hbond + desolv Energy     =   -8.40 kcal/mol
DOCKED: USER        Electrostatic Energy            =   -0.72 kcal/mol
DOCKED: USER    (2) Final Total Internal Energy     =   -3.63 kcal/mol
DOCKED: USER    (3) Torsional Free Energy           =   +3.88 kcal/mol
DOCKED: USER    (4) Unbound System's Energy  [=(2)] =   -3.63 kcal/mol
DOCKED: USER    
DOCKED: USER    
DOCKED: USER    NEWDPF move heme_opt.pdbqt
DOCKED: USER    NEWDPF about 0.153000 0.018000 -0.028000
DOCKED: USER    NEWDPF tran0 18.406532 14.364234 11.630611
DOCKED: USER    NEWDPF quaternion0 0.136732 0.202790 -0.132716 0.960504
DOCKED: USER    NEWDPF axisangle0 0.491368 0.728759 -0.476936 32.313605
DOCKED: USER    NEWDPF quat0 0.491368 0.728759 -0.476936 32.313605
DOCKED: USER    NEWDPF dihe0 131.04 -119.81 179.91 -162.62 -137.55 -43.79 141.22 2.45 16.86 -22.50 -17.29 -12.36 25.25 
DOCKED: USER  keepresnum = 1 
DOCKED: USER  
DOCKED: REMARK  13 active torsions:
DOCKED: REMARK  status: ('A' for Active; 'I' for Inactive)
DOCKED: REMARK    1  A    between atoms: O_3  and  C_38 
DOCKED: REMARK    2  A    between atoms: O_4  and  C_40 
DOCKED: REMARK    3  A    between atoms: O_7  and  C_46 
DOCKED: REMARK    4  A    between atoms: O_9  and  C_48 
DOCKED: REMARK    5  A    between atoms: C_15  and  C_20 
DOCKED: REMARK    6  A    between atoms: C_16  and  C_23 
DOCKED: REMARK    7  A    between atoms: C_20  and  C_38 
DOCKED: REMARK    8  A    between atoms: C_23  and  C_40 
DOCKED: REMARK    9  A    between atoms: C_32  and  C_41 
DOCKED: REMARK   10  A    between atoms: C_37  and  C_45 
DOCKED: REMARK   11  A    between atoms: C_41  and  C_44 
DOCKED: REMARK   12  A    between atoms: C_44  and  C_46 
DOCKED: REMARK   13  A    between atoms: C_47  and  C_48 
DOCKED: USER                              x       y       z     vdW  Elec       q    Type
DOCKED: USER                           _______ _______ _______ _____ _____    ______ ____
DOCKED: ROOT
DOCKED: ATOM      1  O   UNL d   1      12.842  14.324   9.684 -0.05 -0.06    -0.289 OA
DOCKED: ATOM      2  O   UNL d   1      17.701   8.716  10.836 -0.10 -0.25    -0.289 OA
DOCKED: ATOM      3  N   UNL d   1      16.089  14.849  10.721 +0.01 -0.03    -0.247 NA
DOCKED: ATOM      4  N   UNL d   1      17.112  12.098  11.184 -0.07 -0.00    -0.247 NA
DOCKED: ATOM      5  N   UNL d   1      19.347  13.261  12.568 -0.05 -0.02    -0.354 N 
DOCKED: ATOM      6  N   UNL d   1      18.270  16.111  12.100 -0.03 -0.07    -0.354 N 
DOCKED: ATOM      7  C   UNL d   1      14.124  16.278  10.400 -0.13 +0.02    +0.084 A 
DOCKED: ATOM      8  C   UNL d   1      16.064  10.288   9.919 -0.13 +0.02    +0.084 A 
DOCKED: ATOM      9  C   UNL d   1      16.097  11.769  10.313 -0.15 +0.00    +0.058 A 
DOCKED: ATOM     10  C   UNL d   1      15.593  16.139  10.810 -0.13 +0.01    +0.058 A 
DOCKED: ATOM     11  C   UNL d   1      13.883  14.842  10.046 -0.08 +0.03    +0.193 A 
DOCKED: ATOM     12  C   UNL d   1      15.156  14.083  10.258 -0.14 +0.01    +0.109 A 
DOCKED: ATOM     13  C   UNL d   1      17.224   9.831  10.758 -0.11 +0.08    +0.193 A 
DOCKED: ATOM     14  C   UNL d   1      13.230  16.653  11.585 -0.17 +0.00    +0.026 C 
DOCKED: ATOM     15  C   UNL d   1      15.185  12.655   9.884 -0.18 +0.00    +0.055 C 
DOCKED: ATOM     16  C   UNL d   1      16.414  10.085   8.442 -0.34 +0.00    +0.026 C 
DOCKED: ATOM     17  C   UNL d   1      17.766  11.021  11.481 -0.12 +0.02    +0.109 A 
DOCKED: ATOM     18  C   UNL d   1      16.337  17.213  11.136 -0.11 +0.01    +0.050 C 
DOCKED: ATOM     19  C   UNL d   1      17.721  17.191  11.446 +0.00 +0.01    +0.045 A 
DOCKED: ATOM     20  C   UNL d   1      19.538  11.941  12.880 -0.16 +0.01    +0.045 A 
DOCKED: ATOM     21  C   UNL d   1      18.888  10.868  12.418 -0.18 +0.02    +0.057 C 
DOCKED: ATOM     22  C   UNL d   1      21.030  13.202  14.064 -0.17 -0.01    -0.019 A 
DOCKED: ATOM     23  C   UNL d   1      20.201  14.099  13.234 -0.18 +0.01    +0.045 A 
DOCKED: ATOM     24  C   UNL d   1      20.633  11.926  13.850 -0.16 -0.01    -0.022 A 
DOCKED: ATOM     25  C   UNL d   1      19.597  16.339  12.379 -0.14 +0.01    +0.049 A 
DOCKED: ATOM     26  C   UNL d   1      18.725  18.129  11.263 -0.10 -0.00    -0.018 A 
DOCKED: ATOM     27  C   UNL d   1      19.912  17.577  11.837 -0.14 +0.00    +0.003 A 
DOCKED: ATOM     28  C   UNL d   1      20.338  15.433  13.186 -0.20 +0.02    +0.052 C 
DOCKED: ATOM     29  C   UNL d   1      21.171  10.669  14.445 -0.14 +0.02    +0.046 C 
DOCKED: ATOM     30  C   UNL d   1      18.594  19.456  10.595 -0.09 +0.01    +0.046 C 
DOCKED: ATOM     31  H   UNL d   1      18.687  13.542  11.851 -0.43 -0.03    +0.166 HD
DOCKED: ATOM     32  H   UNL d   1      17.740  15.289  12.366 +0.04 +0.02    +0.166 HD
DOCKED: ENDROOT
DOCKED: BRANCH   7  33
DOCKED: ATOM     33  C   UNL d   1      13.862  17.182   9.190 -0.10 +0.06    +0.141 C 
DOCKED: BRANCH  33  34
DOCKED: ATOM     34  C   UNL d   1      14.468  16.643   7.923 -0.12 +0.12    +0.306 C 
DOCKED: ATOM     35  O   UNL d   1      15.624  16.784   7.560 -0.23 -0.09    -0.251 OA
DOCKED: BRANCH  34  36
DOCKED: ATOM     36  O   UNL d   1      13.586  15.951   7.180 -0.08 -0.19    -0.481 OA
DOCKED: ATOM     37  H   UNL d   1      13.194  15.303   7.802 +0.15 +0.09    +0.295 HD
DOCKED: ENDBRANCH  34  36
DOCKED: ENDBRANCH  33  34
DOCKED: ENDBRANCH   7  33
DOCKED: BRANCH  27  38
DOCKED: ATOM     38  C   UNL d   1      21.187  18.227  11.879 -0.20 +0.01    +0.017 C 
DOCKED: ATOM     39  C   UNL d   1      22.372  17.604  11.973 -0.26 +0.04    +0.092 C 
DOCKED: BRANCH  39  40
DOCKED: ATOM     40  C   UNL d   1      23.610  18.387  11.990 -0.22 +0.17    +0.330 C 
DOCKED: ATOM     41  O   UNL d   1      23.915  19.310  11.260 -0.24 -0.11    -0.246 OA
DOCKED: BRANCH  40  42
DOCKED: ATOM     42  O   UNL d   1      24.419  17.951  12.968 -0.08 -0.42    -0.477 OA
DOCKED: ATOM     43  H   UNL d   1      24.584  17.014  12.736 -0.39 +0.08    +0.295 HD
DOCKED: ENDBRANCH  40  42
DOCKED: ENDBRANCH  39  40
DOCKED: ENDBRANCH  27  38
DOCKED: BRANCH   8  44
DOCKED: ATOM     44  C   UNL d   1      14.784   9.534  10.295 -0.08 +0.05    +0.141 C 
DOCKED: BRANCH  44  45
DOCKED: ATOM     45  C   UNL d   1      14.659   9.276  11.773 -0.03 +0.16    +0.306 C 
DOCKED: ATOM     46  O   UNL d   1      14.026   9.940  12.576 -0.03 -0.08    -0.251 OA
DOCKED: BRANCH  45  47
DOCKED: ATOM     47  O   UNL d   1      15.364   8.201  12.169 -0.21 -0.66    -0.481 OA
DOCKED: ATOM     48  H   UNL d   1      15.774   7.856  11.347 +0.06 +0.46    +0.295 HD
DOCKED: ENDBRANCH  45  47
DOCKED: ENDBRANCH  44  45
DOCKED: ENDBRANCH   8  44
DOCKED: BRANCH  22  49
DOCKED: ATOM     49  C   UNL d   1      22.111  13.673  14.993 -0.23 +0.02    +0.048 C 
DOCKED: BRANCH  49  50
DOCKED: ATOM     50  C   UNL d   1      23.184  14.474  14.256 -0.34 +0.07    +0.125 C 
DOCKED: BRANCH  50  51
DOCKED: ATOM     51  C   UNL d   1      24.023  15.261  15.221 -0.22 +0.35    +0.305 C 
DOCKED: ATOM     52  O   UNL d   1      23.879  15.353  16.428 -0.85 -0.36    -0.251 OA
DOCKED: BRANCH  51  53
DOCKED: ATOM     53  O   UNL d   1      25.021  15.922  14.600 -0.42 -0.51    -0.481 OA
DOCKED: ATOM     54  H   UNL d   1      24.755  15.923  13.657 -0.15 +0.16    +0.295 HD
DOCKED: ENDBRANCH  51  53
DOCKED: ENDBRANCH  50  51
DOCKED: ENDBRANCH  49  50
DOCKED: ENDBRANCH  22  49
DOCKED: TORSDOF 13
DOCKED: TER
DOCKED: ENDMDL
________________________________________________________________________________


	BEGINNING GENETIC ALGORITHM DOCKING 20 of 100
Run: 20 Seed: 390768733 1689035774 [ Run 20 of 100 GA/GALS ]
Beginning LAMARCKIAN GENETIC ALGORITHM (LGA), with a maximum of 25000000 energy evaluations.

Final-Value: -11.281


	FINAL GENETIC ALGORITHM DOCKED STATE
	_______________________________________________


Detailed state:  trans 15.734 -2.122 39.037 quatxyzw 0.258268 -0.199675 0.200111 0.923787 center 0.153 0.018 -0.028 ntor 13 -117.3205 148.6691 -141.4609 -88.4508 43.6367 41.0274 128.4057 -54.4574 142.4998 -14.2012 138.6062 -178.9388 -171.6764
State:	 15.734  -2.122  39.037   0.674 -0.521  0.523 45.028   -117.32  148.67 -141.46  -88.45   43.64   41.03  128.41  -54.46  142.50  -14.20  138.61 -178.94 -171.68

DOCKED: MODEL       20
DOCKED: USER    Run = 20
DOCKED: USER    DPF = D:/Protein_go_brrr/autodock/final/1A3N/heme/dock.dpf
DOCKED: USER  
DOCKED: USER    Estimated Free Energy of Binding    =   -4.85 kcal/mol  [=(1)+(2)+(3)-(4)]
DOCKED: USER    Estimated Inhibition Constant, Ki   =  278.96 uM (micromolar)  [Temperature = 298.15 K]
DOCKED: USER    
DOCKED: USER    (1) Final Intermolecular Energy     =   -8.73 kcal/mol
DOCKED: USER        vdW + Hbond + desolv Energy     =   -8.60 kcal/mol
DOCKED: USER        Electrostatic Energy            =   -0.13 kcal/mol
DOCKED: USER    (2) Final Total Internal Energy     =   -2.55 kcal/mol
DOCKED: USER    (3) Torsional Free Energy           =   +3.88 kcal/mol
DOCKED: USER    (4) Unbound System's Energy  [=(2)] =   -2.55 kcal/mol
DOCKED: USER    
DOCKED: USER    
DOCKED: USER    NEWDPF move heme_opt.pdbqt
DOCKED: USER    NEWDPF about 0.153000 0.018000 -0.028000
DOCKED: USER    NEWDPF tran0 15.734261 -2.121729 39.037252
DOCKED: USER    NEWDPF quaternion0 0.258268 -0.199675 0.200111 0.923787
DOCKED: USER    NEWDPF axisangle0 0.674495 -0.521472 0.522612 45.027569
DOCKED: USER    NEWDPF quat0 0.674495 -0.521472 0.522612 45.027569
DOCKED: USER    NEWDPF dihe0 -117.32 148.67 -141.46 -88.45 43.64 41.03 128.41 -54.46 142.50 -14.20 138.61 -178.94 -171.68 
DOCKED: USER  keepresnum = 1 
DOCKED: USER  
DOCKED: REMARK  13 active torsions:
DOCKED: REMARK  status: ('A' for Active; 'I' for Inactive)
DOCKED: REMARK    1  A    between atoms: O_3  and  C_38 
DOCKED: REMARK    2  A    between atoms: O_4  and  C_40 
DOCKED: REMARK    3  A    between atoms: O_7  and  C_46 
DOCKED: REMARK    4  A    between atoms: O_9  and  C_48 
DOCKED: REMARK    5  A    between atoms: C_15  and  C_20 
DOCKED: REMARK    6  A    between atoms: C_16  and  C_23 
DOCKED: REMARK    7  A    between atoms: C_20  and  C_38 
DOCKED: REMARK    8  A    between atoms: C_23  and  C_40 
DOCKED: REMARK    9  A    between atoms: C_32  and  C_41 
DOCKED: REMARK   10  A    between atoms: C_37  and  C_45 
DOCKED: REMARK   11  A    between atoms: C_41  and  C_44 
DOCKED: REMARK   12  A    between atoms: C_44  and  C_46 
DOCKED: REMARK   13  A    between atoms: C_47  and  C_48 
DOCKED: USER                              x       y       z     vdW  Elec       q    Type
DOCKED: USER                           _______ _______ _______ _____ _____    ______ ____
DOCKED: ROOT
DOCKED: ATOM      1  O   UNL d   1      11.776   2.117  40.096 -0.21 -0.04    -0.289 OA
DOCKED: ATOM      2  O   UNL d   1      11.464  -5.304  41.200 -0.14 -0.22    -0.289 OA
DOCKED: ATOM      3  N   UNL d   1      14.328  -0.016  39.183 -0.14 -0.02    -0.247 NA
DOCKED: ATOM      4  N   UNL d   1      13.448  -2.638  40.270 -0.58 -0.04    -0.247 NA
DOCKED: ATOM      5  N   UNL d   1      16.112  -3.617  39.812 +0.17 +0.03    -0.354 N 
DOCKED: ATOM      6  N   UNL d   1      17.022  -0.888  38.704 -0.09 +0.00    -0.354 N 
DOCKED: ATOM      7  C   UNL d   1      14.036   2.417  39.214 -0.12 +0.01    +0.084 A 
DOCKED: ATOM      8  C   UNL d   1      11.046  -2.980  40.556 -0.14 +0.01    +0.084 A 
DOCKED: ATOM      9  C   UNL d   1      12.207  -2.045  40.202 -0.15 +0.01    +0.058 A 
DOCKED: ATOM     10  C   UNL d   1      14.925   1.205  38.919 -0.15 +0.01    +0.058 A 
DOCKED: ATOM     11  C   UNL d   1      12.825   1.664  39.674 -0.15 +0.03    +0.193 A 
DOCKED: ATOM     12  C   UNL d   1      13.118   0.198  39.585 -0.19 +0.01    +0.109 A 
DOCKED: ATOM     13  C   UNL d   1      11.860  -4.202  40.874 -0.15 +0.07    +0.193 A 
DOCKED: ATOM     14  C   UNL d   1      14.572   3.253  40.379 -0.06 +0.00    +0.026 C 
DOCKED: ATOM     15  C   UNL d   1      12.030  -0.749  39.903 -0.24 +0.01    +0.055 C 
DOCKED: ATOM     16  C   UNL d   1      10.165  -3.278  39.339 -0.24 +0.00    +0.026 C 
DOCKED: ATOM     17  C   UNL d   1      13.300  -3.860  40.668 -0.23 +0.03    +0.109 A 
DOCKED: ATOM     18  C   UNL d   1      16.143   1.345  38.364 -0.14 +0.00    +0.050 C 
DOCKED: ATOM     19  C   UNL d   1      16.999   0.282  37.980 -0.18 +0.00    +0.045 A 
DOCKED: ATOM     20  C   UNL d   1      15.600  -4.659  40.541 -0.20 +0.01    +0.045 A 
DOCKED: ATOM     21  C   UNL d   1      14.343  -4.859  40.947 -0.24 +0.02    +0.057 C 
DOCKED: ATOM     22  C   UNL d   1      17.836  -5.006  40.227 -0.24 -0.00    -0.019 A 
DOCKED: ATOM     23  C   UNL d   1      17.455  -3.738  39.573 -0.19 -0.00    +0.045 A 
DOCKED: ATOM     24  C   UNL d   1      16.734  -5.547  40.797 -0.23 -0.01    -0.022 A 
DOCKED: ATOM     25  C   UNL d   1      17.982  -1.742  38.213 -0.27 -0.00    +0.049 A 
DOCKED: ATOM     26  C   UNL d   1      17.942   0.171  36.970 -0.26 -0.00    -0.018 A 
DOCKED: ATOM     27  C   UNL d   1      18.546  -1.116  37.110 -0.32 -0.00    +0.003 A 
DOCKED: ATOM     28  C   UNL d   1      18.301  -2.949  38.893 -0.26 +0.00    +0.052 C 
DOCKED: ATOM     29  C   UNL d   1      16.608  -6.823  41.559 -0.19 +0.02    +0.046 C 
DOCKED: ATOM     30  C   UNL d   1      18.264   1.196  35.935 -0.35 +0.00    +0.046 C 
DOCKED: ATOM     31  H   UNL d   1      15.511  -2.892  39.437 -0.34 -0.04    +0.166 HD
DOCKED: ATOM     32  H   UNL d   1      16.433  -1.060  39.510 +0.04 +0.00    +0.166 HD
DOCKED: ENDROOT
DOCKED: BRANCH   7  33
DOCKED: ATOM     33  C   UNL d   1      13.697   3.293  38.003 +0.01 +0.03    +0.141 C 
DOCKED: BRANCH  33  34
DOCKED: ATOM     34  C   UNL d   1      13.034   4.587  38.392 -0.14 +0.07    +0.306 C 
DOCKED: ATOM     35  O   UNL d   1      13.582   5.669  38.514 -0.07 -0.07    -0.251 OA
DOCKED: BRANCH  34  36
DOCKED: ATOM     36  O   UNL d   1      11.713   4.449  38.604 -0.20 -0.12    -0.481 OA
DOCKED: ATOM     37  H   UNL d   1      11.647   3.799  39.336 +0.10 +0.06    +0.295 HD
DOCKED: ENDBRANCH  34  36
DOCKED: ENDBRANCH  33  34
DOCKED: ENDBRANCH   7  33
DOCKED: BRANCH  27  38
DOCKED: ATOM     38  C   UNL d   1      19.588  -1.634  36.276 -0.41 +0.00    +0.017 C 
DOCKED: ATOM     39  C   UNL d   1      20.609  -0.920  35.777 -0.40 +0.00    +0.092 C 
DOCKED: BRANCH  39  40
DOCKED: ATOM     40  C   UNL d   1      21.623  -1.576  34.948 -0.24 +0.02    +0.330 C 
DOCKED: ATOM     41  O   UNL d   1      21.452  -2.440  34.109 -0.35 -0.02    -0.246 OA
DOCKED: BRANCH  40  42
DOCKED: ATOM     42  O   UNL d   1      22.838  -1.080  35.227 -0.16 +0.00    -0.477 OA
DOCKED: ATOM     43  H   UNL d   1      22.661  -0.150  35.478 -0.32 -0.06    +0.295 HD
DOCKED: ENDBRANCH  40  42
DOCKED: ENDBRANCH  39  40
DOCKED: ENDBRANCH  27  38
DOCKED: BRANCH   8  44
DOCKED: ATOM     44  C   UNL d   1      10.200  -2.555  41.762 -0.05 +0.01    +0.141 C 
DOCKED: BRANCH  44  45
DOCKED: ATOM     45  C   UNL d   1      10.972  -2.543  43.054 +0.00 +0.04    +0.306 C 
DOCKED: ATOM     46  O   UNL d   1      11.670  -1.637  43.475 -0.00 -0.03    -0.251 OA
DOCKED: BRANCH  45  47
DOCKED: ATOM     47  O   UNL d   1      10.845  -3.693  43.740 +0.01 -0.10    -0.481 OA
DOCKED: ATOM     48  H   UNL d   1      10.839  -4.393  43.053 +0.03 +0.10    +0.295 HD
DOCKED: ENDBRANCH  45  47
DOCKED: ENDBRANCH  44  45
DOCKED: ENDBRANCH   8  44
DOCKED: BRANCH  22  49
DOCKED: ATOM     49  C   UNL d   1      19.231  -5.558  40.246 -0.18 +0.01    +0.048 C 
DOCKED: BRANCH  49  50
DOCKED: ATOM     50  C   UNL d   1      19.896  -5.376  41.611 -0.06 +0.02    +0.125 C 
DOCKED: BRANCH  50  51
DOCKED: ATOM     51  C   UNL d   1      19.571  -4.029  42.190 -0.01 +0.04    +0.305 C 
DOCKED: ATOM     52  O   UNL d   1      19.832  -2.935  41.720 -0.01 -0.03    -0.251 OA
DOCKED: BRANCH  51  53
DOCKED: ATOM     53  O   UNL d   1      18.928  -4.129  43.371 +0.00 -0.06    -0.481 OA
DOCKED: ATOM     54  H   UNL d   1      19.648  -4.123  44.036 +0.00 +0.03    +0.295 HD
DOCKED: ENDBRANCH  51  53
DOCKED: ENDBRANCH  50  51
DOCKED: ENDBRANCH  49  50
DOCKED: ENDBRANCH  22  49
DOCKED: TORSDOF 13
DOCKED: TER
DOCKED: ENDMDL
________________________________________________________________________________


	BEGINNING GENETIC ALGORITHM DOCKING 21 of 100
Run: 21 Seed: 577706324 1982277273 [ Run 21 of 100 GA/GALS ]
Beginning LAMARCKIAN GENETIC ALGORITHM (LGA), with a maximum of 25000000 energy evaluations.

Final-Value: -11.668


	FINAL GENETIC ALGORITHM DOCKED STATE
	_______________________________________________


Detailed state:  trans 29.929 16.406 23.362 quatxyzw -0.430802 -0.878640 0.195031 -0.066058 center 0.153 0.018 -0.028 ntor 13 -97.3453 27.3498 -137.1535 -60.8290 33.2814 -95.7755 -33.3097 30.2134 120.8553 -169.7985 -24.6361 -106.7517 141.9517
State:	 29.929  16.406  23.362  -0.432 -0.881  0.195 -172.425    -97.35   27.35 -137.15  -60.83   33.28  -95.78  -33.31   30.21  120.86 -169.80  -24.64 -106.75  141.95

DOCKED: MODEL       21
DOCKED: USER    Run = 21
DOCKED: USER    DPF = D:/Protein_go_brrr/autodock/final/1A3N/heme/dock.dpf
DOCKED: USER  
DOCKED: USER    Estimated Free Energy of Binding    =   -6.22 kcal/mol  [=(1)+(2)+(3)-(4)]
DOCKED: USER    Estimated Inhibition Constant, Ki   =   27.42 uM (micromolar)  [Temperature = 298.15 K]
DOCKED: USER    
DOCKED: USER    (1) Final Intermolecular Energy     =  -10.10 kcal/mol
DOCKED: USER        vdW + Hbond + desolv Energy     =   -9.72 kcal/mol
DOCKED: USER        Electrostatic Energy            =   -0.38 kcal/mol
DOCKED: USER    (2) Final Total Internal Energy     =   -1.57 kcal/mol
DOCKED: USER    (3) Torsional Free Energy           =   +3.88 kcal/mol
DOCKED: USER    (4) Unbound System's Energy  [=(2)] =   -1.57 kcal/mol
DOCKED: USER    
DOCKED: USER    
DOCKED: USER    NEWDPF move heme_opt.pdbqt
DOCKED: USER    NEWDPF about 0.153000 0.018000 -0.028000
DOCKED: USER    NEWDPF tran0 29.929026 16.405789 23.361660
DOCKED: USER    NEWDPF quaternion0 -0.430802 -0.878640 0.195031 -0.066058
DOCKED: USER    NEWDPF axisangle0 -0.431745 -0.880564 0.195458 -172.424742
DOCKED: USER    NEWDPF quat0 -0.431745 -0.880564 0.195458 -172.424742
DOCKED: USER    NEWDPF dihe0 -97.35 27.35 -137.15 -60.83 33.28 -95.78 -33.31 30.21 120.86 -169.80 -24.64 -106.75 141.95 
DOCKED: USER  keepresnum = 1 
DOCKED: USER  
DOCKED: REMARK  13 active torsions:
DOCKED: REMARK  status: ('A' for Active; 'I' for Inactive)
DOCKED: REMARK    1  A    between atoms: O_3  and  C_38 
DOCKED: REMARK    2  A    between atoms: O_4  and  C_40 
DOCKED: REMARK    3  A    between atoms: O_7  and  C_46 
DOCKED: REMARK    4  A    between atoms: O_9  and  C_48 
DOCKED: REMARK    5  A    between atoms: C_15  and  C_20 
DOCKED: REMARK    6  A    between atoms: C_16  and  C_23 
DOCKED: REMARK    7  A    between atoms: C_20  and  C_38 
DOCKED: REMARK    8  A    between atoms: C_23  and  C_40 
DOCKED: REMARK    9  A    between atoms: C_32  and  C_41 
DOCKED: REMARK   10  A    between atoms: C_37  and  C_45 
DOCKED: REMARK   11  A    between atoms: C_41  and  C_44 
DOCKED: REMARK   12  A    between atoms: C_44  and  C_46 
DOCKED: REMARK   13  A    between atoms: C_47  and  C_48 
DOCKED: USER                              x       y       z     vdW  Elec       q    Type
DOCKED: USER                           _______ _______ _______ _____ _____    ______ ____
DOCKED: ROOT
DOCKED: ATOM      1  O   UNL d   1      34.459  12.762  22.385 -0.13 -0.01    -0.289 OA
DOCKED: ATOM      2  O   UNL d   1      28.481  12.099  26.881 -0.21 +0.03    -0.289 OA
DOCKED: ATOM      3  N   UNL d   1      32.099  15.252  22.735 -0.01 +0.04    -0.247 NA
DOCKED: ATOM      4  N   UNL d   1      30.017  13.986  24.434 -0.04 +0.05    -0.247 NA
DOCKED: ATOM      5  N   UNL d   1      28.264  16.158  23.744 -0.03 +0.12    -0.354 N 
DOCKED: ATOM      6  N   UNL d   1      30.424  17.455  21.967 -0.03 +0.04    -0.354 N 
DOCKED: ATOM      7  C   UNL d   1      34.058  14.915  21.300 -0.18 -0.01    +0.084 A 
DOCKED: ATOM      8  C   UNL d   1      30.730  12.181  25.918 -0.28 -0.01    +0.084 A 
DOCKED: ATOM      9  C   UNL d   1      31.067  13.176  24.803 -0.17 -0.01    +0.058 A 
DOCKED: ATOM     10  C   UNL d   1      32.871  15.788  21.717 -0.12 -0.01    +0.058 A 
DOCKED: ATOM     11  C   UNL d   1      33.831  13.799  22.275 -0.13 -0.02    +0.193 A 
DOCKED: ATOM     12  C   UNL d   1      32.631  14.133  23.105 -0.10 -0.01    +0.109 A 
DOCKED: ATOM     13  C   UNL d   1      29.284  12.551  26.089 -0.15 -0.03    +0.193 A 
DOCKED: ATOM     14  C   UNL d   1      33.899  14.370  19.878 -0.45 -0.01    +0.026 C 
DOCKED: ATOM     15  C   UNL d   1      32.267  13.216  24.204 -0.20 -0.00    +0.055 C 
DOCKED: ATOM     16  C   UNL d   1      31.478  12.507  27.215 -0.43 -0.00    +0.026 C 
DOCKED: ATOM     17  C   UNL d   1      28.975  13.652  25.126 -0.12 -0.02    +0.109 A 
DOCKED: ATOM     18  C   UNL d   1      32.674  17.009  21.184 -0.23 -0.01    +0.050 C 
DOCKED: ATOM     19  C   UNL d   1      31.656  17.919  21.566 -0.13 +0.00    +0.045 A 
DOCKED: ATOM     20  C   UNL d   1      27.373  15.327  24.370 -0.18 -0.02    +0.045 A 
DOCKED: ATOM     21  C   UNL d   1      27.611  14.193  25.037 -0.23 -0.01    +0.057 C 
DOCKED: ATOM     22  C   UNL d   1      26.228  17.074  23.446 -0.20 +0.01    -0.019 A 
DOCKED: ATOM     23  C   UNL d   1      27.666  17.241  23.156 -0.11 -0.01    +0.045 A 
DOCKED: ATOM     24  C   UNL d   1      26.061  15.940  24.166 -0.28 +0.01    -0.022 A 
DOCKED: ATOM     25  C   UNL d   1      29.566  18.504  22.203 -0.09 -0.00    +0.049 A 
DOCKED: ATOM     26  C   UNL d   1      31.609  19.305  21.577 -0.04 -0.00    -0.018 A 
DOCKED: ATOM     27  C   UNL d   1      30.293  19.668  21.999 -0.10 +0.00    +0.003 A 
DOCKED: ATOM     28  C   UNL d   1      28.190  18.273  22.477 -0.11 -0.00    +0.052 C 
DOCKED: ATOM     29  C   UNL d   1      24.800  15.354  24.705 -0.30 -0.02    +0.046 C 
DOCKED: ATOM     30  C   UNL d   1      32.718  20.236  21.221 -0.22 +0.02    +0.046 C 
DOCKED: ATOM     31  H   UNL d   1      29.264  15.997  23.802 +0.04 -0.04    +0.166 HD
DOCKED: ATOM     32  H   UNL d   1      30.189  16.471  22.032 +0.06 -0.04    +0.166 HD
DOCKED: ENDROOT
DOCKED: BRANCH   7  33
DOCKED: ATOM     33  C   UNL d   1      35.440  15.541  21.511 -0.17 -0.01    +0.141 C 
DOCKED: BRANCH  33  34
DOCKED: ATOM     34  C   UNL d   1      36.558  14.547  21.346 -0.04 +0.00    +0.306 C 
DOCKED: ATOM     35  O   UNL d   1      37.113  14.255  20.300 -0.73 -0.03    -0.251 OA
DOCKED: BRANCH  34  36
DOCKED: ATOM     36  O   UNL d   1      36.919  13.976  22.508 -0.03 +0.00    -0.481 OA
DOCKED: ATOM     37  H   UNL d   1      36.246  13.278  22.660 +0.13 +0.02    +0.295 HD
DOCKED: ENDBRANCH  34  36
DOCKED: ENDBRANCH  33  34
DOCKED: ENDBRANCH   7  33
DOCKED: BRANCH  27  38
DOCKED: ATOM     38  C   UNL d   1      29.811  21.010  22.134 -0.11 +0.00    +0.017 C 
DOCKED: ATOM     39  C   UNL d   1      28.900  21.589  21.338 -0.12 +0.02    +0.092 C 
DOCKED: BRANCH  39  40
DOCKED: ATOM     40  C   UNL d   1      28.477  22.968  21.595 -0.03 +0.06    +0.330 C 
DOCKED: ATOM     41  O   UNL d   1      27.484  23.343  22.188 -0.01 -0.03    -0.246 OA
DOCKED: BRANCH  40  42
DOCKED: ATOM     42  O   UNL d   1      29.368  23.828  21.078 -0.03 -0.09    -0.477 OA
DOCKED: ATOM     43  H   UNL d   1      29.279  24.625  21.640 +0.04 +0.04    +0.295 HD
DOCKED: ENDBRANCH  40  42
DOCKED: ENDBRANCH  39  40
DOCKED: ENDBRANCH  27  38
DOCKED: BRANCH   8  44
DOCKED: ATOM     44  C   UNL d   1      30.878  10.701  25.550 -0.43 -0.02    +0.141 C 
DOCKED: BRANCH  44  45
DOCKED: ATOM     45  C   UNL d   1      31.463   9.868  26.660 -0.42 -0.03    +0.306 C 
DOCKED: ATOM     46  O   UNL d   1      32.636   9.810  26.983 -0.50 +0.03    -0.251 OA
DOCKED: BRANCH  45  47
DOCKED: ATOM     47  O   UNL d   1      30.535   9.125  27.290 -0.19 +0.08    -0.481 OA
DOCKED: ATOM     48  H   UNL d   1      29.967   8.775  26.571 -0.22 -0.11    +0.295 HD
DOCKED: ENDBRANCH  45  47
DOCKED: ENDBRANCH  44  45
DOCKED: ENDBRANCH   8  44
DOCKED: BRANCH  22  49
DOCKED: ATOM     49  C   UNL d   1      25.160  18.022  22.985 -0.28 -0.01    +0.048 C 
DOCKED: BRANCH  49  50
DOCKED: ATOM     50  C   UNL d   1      25.139  18.158  21.463 -0.24 -0.03    +0.125 C 
DOCKED: BRANCH  50  51
DOCKED: ATOM     51  C   UNL d   1      23.788  18.604  20.982 -0.23 +0.01    +0.305 C 
DOCKED: ATOM     52  O   UNL d   1      22.940  19.214  21.609 -0.25 -0.05    -0.251 OA
DOCKED: BRANCH  51  53
DOCKED: ATOM     53  O   UNL d   1      23.561  18.237  19.705 -0.52 -0.22    -0.481 OA
DOCKED: ATOM     54  H   UNL d   1      22.777  17.651  19.761 -0.42 -0.00    +0.295 HD
DOCKED: ENDBRANCH  51  53
DOCKED: ENDBRANCH  50  51
DOCKED: ENDBRANCH  49  50
DOCKED: ENDBRANCH  22  49
DOCKED: TORSDOF 13
DOCKED: TER
DOCKED: ENDMDL
________________________________________________________________________________


	BEGINNING GENETIC ALGORITHM DOCKING 22 of 100
Run: 22 Seed: 748453015 1410735543 [ Run 22 of 100 GA/GALS ]
Beginning LAMARCKIAN GENETIC ALGORITHM (LGA), with a maximum of 25000000 energy evaluations.

Final-Value: -12.176


	FINAL GENETIC ALGORITHM DOCKED STATE
	_______________________________________________


Detailed state:  trans 23.222 12.469 37.089 quatxyzw 0.370398 0.781252 -0.496958 0.074047 center 0.153 0.018 -0.028 ntor 13 110.4466 104.7012 -106.6127 -49.2526 -131.1432 95.1394 124.9492 62.7419 30.5809 -40.6850 -82.8383 -78.0929 -1.6098
State:	 23.222  12.469  37.089   0.371  0.783 -0.498 171.507    110.45  104.70 -106.61  -49.25 -131.14   95.14  124.95   62.74   30.58  -40.68  -82.84  -78.09   -1.61

DOCKED: MODEL       22
DOCKED: USER    Run = 22
DOCKED: USER    DPF = D:/Protein_go_brrr/autodock/final/1A3N/heme/dock.dpf
DOCKED: USER  
DOCKED: USER    Estimated Free Energy of Binding    =   -3.47 kcal/mol  [=(1)+(2)+(3)-(4)]
DOCKED: USER    Estimated Inhibition Constant, Ki   =    2.86 mM (millimolar)  [Temperature = 298.15 K]
DOCKED: USER    
DOCKED: USER    (1) Final Intermolecular Energy     =   -7.35 kcal/mol
DOCKED: USER        vdW + Hbond + desolv Energy     =   -7.32 kcal/mol
DOCKED: USER        Electrostatic Energy            =   -0.03 kcal/mol
DOCKED: USER    (2) Final Total Internal Energy     =   -4.83 kcal/mol
DOCKED: USER    (3) Torsional Free Energy           =   +3.88 kcal/mol
DOCKED: USER    (4) Unbound System's Energy  [=(2)] =   -4.83 kcal/mol
DOCKED: USER    
DOCKED: USER    
DOCKED: USER    NEWDPF move heme_opt.pdbqt
DOCKED: USER    NEWDPF about 0.153000 0.018000 -0.028000
DOCKED: USER    NEWDPF tran0 23.221909 12.468710 37.088672
DOCKED: USER    NEWDPF quaternion0 0.370398 0.781252 -0.496958 0.074047
DOCKED: USER    NEWDPF axisangle0 0.371418 0.783403 -0.498326 171.507039
DOCKED: USER    NEWDPF quat0 0.371418 0.783403 -0.498326 171.507039
DOCKED: USER    NEWDPF dihe0 110.45 104.70 -106.61 -49.25 -131.14 95.14 124.95 62.74 30.58 -40.68 -82.84 -78.09 -1.61 
DOCKED: USER  keepresnum = 1 
DOCKED: USER  
DOCKED: REMARK  13 active torsions:
DOCKED: REMARK  status: ('A' for Active; 'I' for Inactive)
DOCKED: REMARK    1  A    between atoms: O_3  and  C_38 
DOCKED: REMARK    2  A    between atoms: O_4  and  C_40 
DOCKED: REMARK    3  A    between atoms: O_7  and  C_46 
DOCKED: REMARK    4  A    between atoms: O_9  and  C_48 
DOCKED: REMARK    5  A    between atoms: C_15  and  C_20 
DOCKED: REMARK    6  A    between atoms: C_16  and  C_23 
DOCKED: REMARK    7  A    between atoms: C_20  and  C_38 
DOCKED: REMARK    8  A    between atoms: C_23  and  C_40 
DOCKED: REMARK    9  A    between atoms: C_32  and  C_41 
DOCKED: REMARK   10  A    between atoms: C_37  and  C_45 
DOCKED: REMARK   11  A    between atoms: C_41  and  C_44 
DOCKED: REMARK   12  A    between atoms: C_44  and  C_46 
DOCKED: REMARK   13  A    between atoms: C_47  and  C_48 
DOCKED: USER                              x       y       z     vdW  Elec       q    Type
DOCKED: USER                           _______ _______ _______ _____ _____    ______ ____
DOCKED: ROOT
DOCKED: ATOM      1  O   UNL d   1      27.771   8.732  36.780 -0.36 +0.11    -0.289 OA
DOCKED: ATOM      2  O   UNL d   1      23.437  10.752  42.570 -0.01 +0.02    -0.289 OA
DOCKED: ATOM      3  N   UNL d   1      25.273  11.094  36.508 +0.20 +0.24    -0.247 NA
DOCKED: ATOM      4  N   UNL d   1      23.947  10.994  39.165 -0.11 +0.13    -0.247 NA
DOCKED: ATOM      5  N   UNL d   1      21.781  12.514  38.039 -0.05 +0.19    -0.354 N 
DOCKED: ATOM      6  N   UNL d   1      23.155  12.596  35.280 -0.11 +0.19    -0.354 N 
DOCKED: ATOM      7  C   UNL d   1      26.782   9.984  34.928 -0.30 -0.03    +0.084 A 
DOCKED: ATOM      8  C   UNL d   1      25.294  10.240  41.060 -0.10 -0.01    +0.084 A 
DOCKED: ATOM      9  C   UNL d   1      25.162  10.475  39.551 -0.16 -0.02    +0.058 A 
DOCKED: ATOM     10  C   UNL d   1      25.647  10.980  35.180 -0.08 -0.04    +0.058 A 
DOCKED: ATOM     11  C   UNL d   1      26.997   9.568  36.353 -0.26 -0.08    +0.193 A 
DOCKED: ATOM     12  C   UNL d   1      26.040  10.330  37.216 -0.18 -0.06    +0.109 A 
DOCKED: ATOM     13  C   UNL d   1      23.915  10.687  41.454 -0.03 -0.03    +0.193 A 
DOCKED: ATOM     14  C   UNL d   1      26.313   8.769  34.123 -0.36 -0.01    +0.026 C 
DOCKED: ATOM     15  C   UNL d   1      26.130  10.152  38.679 -0.21 -0.02    +0.055 C 
DOCKED: ATOM     16  C   UNL d   1      26.318  11.185  41.694 -0.05 -0.00    +0.026 C 
DOCKED: ATOM     17  C   UNL d   1      23.197  11.113  40.214 -0.08 -0.03    +0.109 A 
DOCKED: ATOM     18  C   UNL d   1      25.139  11.733  34.186 -0.21 -0.01    +0.050 C 
DOCKED: ATOM     19  C   UNL d   1      24.149  12.737  34.338 -0.18 -0.01    +0.045 A 
DOCKED: ATOM     20  C   UNL d   1      21.227  12.172  39.245 -0.07 -0.02    +0.045 A 
DOCKED: ATOM     21  C   UNL d   1      21.800  11.563  40.288 -0.07 -0.02    +0.057 C 
DOCKED: ATOM     22  C   UNL d   1      19.634  13.190  37.962 -0.10 +0.00    -0.019 A 
DOCKED: ATOM     23  C   UNL d   1      20.896  13.133  37.197 -0.13 -0.01    +0.045 A 
DOCKED: ATOM     24  C   UNL d   1      19.837  12.621  39.173 -0.06 +0.00    -0.022 A 
DOCKED: ATOM     25  C   UNL d   1      22.257  13.634  35.195 -0.19 -0.01    +0.049 A 
DOCKED: ATOM     26  C   UNL d   1      23.911  13.915  33.647 -0.16 +0.00    -0.018 A 
DOCKED: ATOM     27  C   UNL d   1      22.726  14.487  34.205 -0.17 -0.00    +0.003 A 
DOCKED: ATOM     28  C   UNL d   1      21.059  13.626  35.960 -0.22 -0.01    +0.052 C 
DOCKED: ATOM     29  C   UNL d   1      18.872  12.451  40.297 -0.03 +0.00    +0.046 C 
DOCKED: ATOM     30  C   UNL d   1      24.733  14.478  32.538 -0.14 -0.00    +0.046 C 
DOCKED: ATOM     31  H   UNL d   1      22.770  12.379  37.857 +0.01 -0.11    +0.166 HD
DOCKED: ATOM     32  H   UNL d   1      23.090  11.806  35.912 -0.44 -0.25    +0.166 HD
DOCKED: ENDROOT
DOCKED: BRANCH   7  33
DOCKED: ATOM     33  C   UNL d   1      28.066  10.584  34.344 -0.29 -0.04    +0.141 C 
DOCKED: BRANCH  33  34
DOCKED: ATOM     34  C   UNL d   1      28.901  11.286  35.381 -0.21 -0.07    +0.306 C 
DOCKED: ATOM     35  O   UNL d   1      28.686  12.389  35.853 -0.09 +0.05    -0.251 OA
DOCKED: BRANCH  34  36
DOCKED: ATOM     36  O   UNL d   1      29.963  10.558  35.770 -0.51 +0.12    -0.481 OA
DOCKED: ATOM     37  H   UNL d   1      29.581   9.836  36.313 -0.37 -0.17    +0.295 HD
DOCKED: ENDBRANCH  34  36
DOCKED: ENDBRANCH  33  34
DOCKED: ENDBRANCH   7  33
DOCKED: BRANCH  27  38
DOCKED: ATOM     38  C   UNL d   1      22.115  15.707  33.771 -0.20 -0.00    +0.017 C 
DOCKED: ATOM     39  C   UNL d   1      20.796  15.905  33.630 -0.24 +0.00    +0.092 C 
DOCKED: BRANCH  39  40
DOCKED: ATOM     40  C   UNL d   1      20.296  17.211  33.193 -0.13 +0.02    +0.330 C 
DOCKED: ATOM     41  O   UNL d   1      20.049  17.571  32.057 -0.21 -0.01    -0.246 OA
DOCKED: BRANCH  40  42
DOCKED: ATOM     42  O   UNL d   1      20.121  18.016  34.252 -0.00 -0.01    -0.477 OA
DOCKED: ATOM     43  H   UNL d   1      19.301  17.680  34.669 +0.09 +0.02    +0.295 HD
DOCKED: ENDBRANCH  40  42
DOCKED: ENDBRANCH  39  40
DOCKED: ENDBRANCH  27  38
DOCKED: BRANCH   8  44
DOCKED: ATOM     44  C   UNL d   1      25.542   8.788  41.483 -0.10 -0.02    +0.141 C 
DOCKED: BRANCH  44  45
DOCKED: ATOM     45  C   UNL d   1      24.273   8.020  41.741 -0.12 -0.02    +0.306 C 
DOCKED: ATOM     46  O   UNL d   1      23.554   7.502  40.905 -0.14 +0.01    -0.251 OA
DOCKED: BRANCH  45  47
DOCKED: ATOM     47  O   UNL d   1      23.960   7.968  43.049 -0.01 -0.01    -0.481 OA
DOCKED: ATOM     48  H   UNL d   1      23.656   8.874  43.267 +0.04 -0.00    +0.295 HD
DOCKED: ENDBRANCH  45  47
DOCKED: ENDBRANCH  44  45
DOCKED: ENDBRANCH   8  44
DOCKED: BRANCH  22  49
DOCKED: ATOM     49  C   UNL d   1      18.357  13.776  37.437 -0.14 +0.01    +0.048 C 
DOCKED: BRANCH  49  50
DOCKED: ATOM     50  C   UNL d   1      18.296  15.289  37.648 -0.09 +0.02    +0.125 C 
DOCKED: BRANCH  50  51
DOCKED: ATOM     51  C   UNL d   1      18.698  16.021  36.399 -0.07 +0.05    +0.305 C 
DOCKED: ATOM     52  O   UNL d   1      18.207  15.922  35.288 -0.15 -0.06    -0.251 OA
DOCKED: BRANCH  51  53
DOCKED: ATOM     53  O   UNL d   1      19.735  16.856  36.615 +0.00 -0.03    -0.481 OA
DOCKED: ATOM     54  H   UNL d   1      20.367  16.640  35.899 +0.06 +0.01    +0.295 HD
DOCKED: ENDBRANCH  51  53
DOCKED: ENDBRANCH  50  51
DOCKED: ENDBRANCH  49  50
DOCKED: ENDBRANCH  22  49
DOCKED: TORSDOF 13
DOCKED: TER
DOCKED: ENDMDL
________________________________________________________________________________


	BEGINNING GENETIC ALGORITHM DOCKING 23 of 100
Run: 23 Seed: 1405546478 503864484 [ Run 23 of 100 GA/GALS ]
Beginning LAMARCKIAN GENETIC ALGORITHM (LGA), with a maximum of 25000000 energy evaluations.

Final-Value: -11.692


	FINAL GENETIC ALGORITHM DOCKED STATE
	_______________________________________________


Detailed state:  trans -2.275 -4.141 33.372 quatxyzw 0.399170 -0.414266 -0.772411 0.269126 center 0.153 0.018 -0.028 ntor 13 140.6778 -170.0386 76.5053 -141.8305 -138.7478 -13.8986 115.9605 22.5669 15.7402 -0.0484 61.1293 -66.7837 114.5965
State:	 -2.275  -4.141  33.372   0.414 -0.430 -0.802 148.775    140.68 -170.04   76.51 -141.83 -138.75  -13.90  115.96   22.57   15.74   -0.05   61.13  -66.78  114.60

DOCKED: MODEL       23
DOCKED: USER    Run = 23
DOCKED: USER    DPF = D:/Protein_go_brrr/autodock/final/1A3N/heme/dock.dpf
DOCKED: USER  
DOCKED: USER    Estimated Free Energy of Binding    =   -4.56 kcal/mol  [=(1)+(2)+(3)-(4)]
DOCKED: USER    Estimated Inhibition Constant, Ki   =  455.69 uM (micromolar)  [Temperature = 298.15 K]
DOCKED: USER    
DOCKED: USER    (1) Final Intermolecular Energy     =   -8.44 kcal/mol
DOCKED: USER        vdW + Hbond + desolv Energy     =   -7.83 kcal/mol
DOCKED: USER        Electrostatic Energy            =   -0.61 kcal/mol
DOCKED: USER    (2) Final Total Internal Energy     =   -3.26 kcal/mol
DOCKED: USER    (3) Torsional Free Energy           =   +3.88 kcal/mol
DOCKED: USER    (4) Unbound System's Energy  [=(2)] =   -3.26 kcal/mol
DOCKED: USER    
DOCKED: USER    
DOCKED: USER    NEWDPF move heme_opt.pdbqt
DOCKED: USER    NEWDPF about 0.153000 0.018000 -0.028000
DOCKED: USER    NEWDPF tran0 -2.274574 -4.140688 33.372447
DOCKED: USER    NEWDPF quaternion0 0.399170 -0.414266 -0.772411 0.269126
DOCKED: USER    NEWDPF axisangle0 0.414461 -0.430135 -0.802001 148.775492
DOCKED: USER    NEWDPF quat0 0.414461 -0.430135 -0.802001 148.775492
DOCKED: USER    NEWDPF dihe0 140.68 -170.04 76.51 -141.83 -138.75 -13.90 115.96 22.57 15.74 -0.05 61.13 -66.78 114.60 
DOCKED: USER  keepresnum = 1 
DOCKED: USER  
DOCKED: REMARK  13 active torsions:
DOCKED: REMARK  status: ('A' for Active; 'I' for Inactive)
DOCKED: REMARK    1  A    between atoms: O_3  and  C_38 
DOCKED: REMARK    2  A    between atoms: O_4  and  C_40 
DOCKED: REMARK    3  A    between atoms: O_7  and  C_46 
DOCKED: REMARK    4  A    between atoms: O_9  and  C_48 
DOCKED: REMARK    5  A    between atoms: C_15  and  C_20 
DOCKED: REMARK    6  A    between atoms: C_16  and  C_23 
DOCKED: REMARK    7  A    between atoms: C_20  and  C_38 
DOCKED: REMARK    8  A    between atoms: C_23  and  C_40 
DOCKED: REMARK    9  A    between atoms: C_32  and  C_41 
DOCKED: REMARK   10  A    between atoms: C_37  and  C_45 
DOCKED: REMARK   11  A    between atoms: C_41  and  C_44 
DOCKED: REMARK   12  A    between atoms: C_44  and  C_46 
DOCKED: REMARK   13  A    between atoms: C_47  and  C_48 
DOCKED: USER                              x       y       z     vdW  Elec       q    Type
DOCKED: USER                           _______ _______ _______ _____ _____    ______ ____
DOCKED: ROOT
DOCKED: ATOM      1  O   UNL d   1      -0.780  -4.928  39.021 -0.01 +0.07    -0.289 OA
DOCKED: ATOM      2  O   UNL d   1       3.390  -3.236  33.009 -0.55 -0.24    -0.289 OA
DOCKED: ATOM      3  N   UNL d   1      -2.095  -4.698  35.840 -0.05 +0.03    -0.247 NA
DOCKED: ATOM      4  N   UNL d   1       0.195  -3.709  34.225 -0.12 -0.00    -0.247 NA
DOCKED: ATOM      5  N   UNL d   1      -1.665  -3.134  32.110 -0.13 +0.01    -0.354 N 
DOCKED: ATOM      6  N   UNL d   1      -4.038  -4.144  33.799 -0.07 -0.01    -0.354 N 
DOCKED: ATOM      7  C   UNL d   1      -3.035  -5.019  38.081 -0.03 -0.02    +0.084 A 
DOCKED: ATOM      8  C   UNL d   1       2.441  -4.219  35.040 -0.08 +0.01    +0.084 A 
DOCKED: ATOM      9  C   UNL d   1       0.925  -4.254  35.258 -0.10 -0.00    +0.058 A 
DOCKED: ATOM     10  C   UNL d   1      -3.257  -4.869  36.573 -0.06 -0.01    +0.058 A 
DOCKED: ATOM     11  C   UNL d   1      -1.539  -4.921  38.069 -0.02 -0.05    +0.193 A 
DOCKED: ATOM     12  C   UNL d   1      -1.088  -4.754  36.651 -0.06 -0.02    +0.109 A 
DOCKED: ATOM     13  C   UNL d   1       2.438  -3.520  33.710 -0.17 +0.07    +0.193 A 
DOCKED: ATOM     14  C   UNL d   1      -3.603  -3.834  38.866 -0.09 -0.01    +0.026 C 
DOCKED: ATOM     15  C   UNL d   1       0.363  -4.727  36.381 -0.07 -0.01    +0.055 C 
DOCKED: ATOM     16  C   UNL d   1       3.021  -5.625  34.856 -0.07 +0.00    +0.026 C 
DOCKED: ATOM     17  C   UNL d   1       1.017  -3.260  33.331 -0.24 +0.02    +0.109 A 
DOCKED: ATOM     18  C   UNL d   1      -4.482  -4.990  36.027 -0.07 -0.00    +0.050 C 
DOCKED: ATOM     19  C   UNL d   1      -4.772  -4.950  34.640 -0.08 -0.00    +0.045 A 
DOCKED: ATOM     20  C   UNL d   1      -0.546  -2.518  31.613 -0.29 +0.00    +0.045 A 
DOCKED: ATOM     21  C   UNL d   1       0.704  -2.543  32.086 -0.37 +0.01    +0.057 C 
DOCKED: ATOM     22  C   UNL d   1      -2.323  -2.018  30.267 -0.33 +0.00    -0.019 A 
DOCKED: ATOM     23  C   UNL d   1      -2.788  -2.890  31.364 -0.29 -0.00    +0.045 A 
DOCKED: ATOM     24  C   UNL d   1      -0.994  -1.803  30.419 -0.37 +0.00    -0.022 A 
DOCKED: ATOM     25  C   UNL d   1      -4.544  -4.189  32.521 -0.15 -0.00    +0.049 A 
DOCKED: ATOM     26  C   UNL d   1      -5.757  -5.563  33.881 -0.04 +0.00    -0.018 A 
DOCKED: ATOM     27  C   UNL d   1      -5.596  -5.094  32.541 -0.07 -0.00    +0.003 A 
DOCKED: ATOM     28  C   UNL d   1      -4.050  -3.321  31.510 -0.25 -0.00    +0.052 C 
DOCKED: ATOM     29  C   UNL d   1      -0.075  -1.002  29.561 -0.52 -0.00    +0.046 C 
DOCKED: ATOM     30  C   UNL d   1      -6.785  -6.527  34.369 -0.01 -0.00    +0.046 C 
DOCKED: ATOM     31  H   UNL d   1      -1.611  -3.763  32.903 +0.05 +0.00    +0.166 HD
DOCKED: ATOM     32  H   UNL d   1      -3.261  -3.571  34.109 +0.04 +0.02    +0.166 HD
DOCKED: ENDROOT
DOCKED: BRANCH   7  33
DOCKED: ATOM     33  C   UNL d   1      -3.481  -6.357  38.681 -0.00 -0.02    +0.141 C 
DOCKED: BRANCH  33  34
DOCKED: ATOM     34  C   UNL d   1      -2.707  -7.525  38.132 +0.00 -0.03    +0.306 C 
DOCKED: ATOM     35  O   UNL d   1      -2.947  -8.127  37.099 -0.00 +0.02    -0.251 OA
DOCKED: BRANCH  34  36
DOCKED: ATOM     36  O   UNL d   1      -1.669  -7.871  38.913 +0.00 +0.04    -0.481 OA
DOCKED: ATOM     37  H   UNL d   1      -1.270  -7.018  39.187 +0.01 -0.03    +0.295 HD
DOCKED: ENDBRANCH  34  36
DOCKED: ENDBRANCH  33  34
DOCKED: ENDBRANCH   7  33
DOCKED: BRANCH  27  38
DOCKED: ATOM     38  C   UNL d   1      -6.420  -5.468  31.431 -0.06 -0.00    +0.017 C 
DOCKED: ATOM     39  C   UNL d   1      -6.686  -4.693  30.369 -0.10 -0.01    +0.092 C 
DOCKED: BRANCH  39  40
DOCKED: ATOM     40  C   UNL d   1      -7.534  -5.203  29.288 -0.05 -0.03    +0.330 C 
DOCKED: ATOM     41  O   UNL d   1      -7.847  -6.358  29.070 -0.04 +0.02    -0.246 OA
DOCKED: BRANCH  40  42
DOCKED: ATOM     42  O   UNL d   1      -7.963  -4.189  28.520 -0.03 +0.04    -0.477 OA
DOCKED: ATOM     43  H   UNL d   1      -7.439  -3.422  28.830 +0.12 -0.05    +0.295 HD
DOCKED: ENDBRANCH  40  42
DOCKED: ENDBRANCH  39  40
DOCKED: ENDBRANCH  27  38
DOCKED: BRANCH   8  44
DOCKED: ATOM     44  C   UNL d   1       3.239  -3.422  36.077 -0.11 -0.01    +0.141 C 
DOCKED: BRANCH  44  45
DOCKED: ATOM     45  C   UNL d   1       2.686  -2.043  36.321 -0.15 -0.03    +0.306 C 
DOCKED: ATOM     46  O   UNL d   1       1.656  -1.768  36.911 -0.78 +0.08    -0.251 OA
DOCKED: BRANCH  45  47
DOCKED: ATOM     47  O   UNL d   1       3.452  -1.079  35.780 -0.52 +0.07    -0.481 OA
DOCKED: ATOM     48  H   UNL d   1       3.926  -0.682  36.542 -0.41 -0.15    +0.295 HD
DOCKED: ENDBRANCH  45  47
DOCKED: ENDBRANCH  44  45
DOCKED: ENDBRANCH   8  44
DOCKED: BRANCH  22  49
DOCKED: ATOM     49  C   UNL d   1      -3.213  -1.471  29.190 -0.03 -0.02    +0.048 C 
DOCKED: BRANCH  49  50
DOCKED: ATOM     50  C   UNL d   1      -4.637  -1.238  29.694 -0.01 -0.11    +0.125 C 
DOCKED: BRANCH  50  51
DOCKED: ATOM     51  C   UNL d   1      -5.619  -2.090  28.941 -0.22 -0.19    +0.305 C 
DOCKED: ATOM     52  O   UNL d   1      -5.379  -3.062  28.247 -0.25 +0.07    -0.251 OA
DOCKED: BRANCH  51  53
DOCKED: ATOM     53  O   UNL d   1      -6.886  -1.656  29.095 -0.15 +0.35    -0.481 OA
DOCKED: ATOM     54  H   UNL d   1      -6.804  -0.680  29.097 -0.37 -0.49    +0.295 HD
DOCKED: ENDBRANCH  51  53
DOCKED: ENDBRANCH  50  51
DOCKED: ENDBRANCH  49  50
DOCKED: ENDBRANCH  22  49
DOCKED: TORSDOF 13
DOCKED: TER
DOCKED: ENDMDL
________________________________________________________________________________


	BEGINNING GENETIC ALGORITHM DOCKING 24 of 100
Run: 24 Seed: 1575463683 1734304692 [ Run 24 of 100 GA/GALS ]
Beginning LAMARCKIAN GENETIC ALGORITHM (LGA), with a maximum of 25000000 energy evaluations.

Final-Value: -10.019


	FINAL GENETIC ALGORITHM DOCKED STATE
	_______________________________________________


Detailed state:  trans -8.836 24.682 16.880 quatxyzw 0.496227 -0.483449 -0.677501 0.247039 center 0.153 0.018 -0.028 ntor 13 -97.2580 -41.3172 -108.9332 -85.2580 36.8286 -13.9805 127.8112 -46.4284 127.1412 -48.1177 138.8816 38.8672 -166.8673
State:	 -8.836  24.682  16.880   0.512 -0.499 -0.699 151.395    -97.26  -41.32 -108.93  -85.26   36.83  -13.98  127.81  -46.43  127.14  -48.12  138.88   38.87 -166.87

DOCKED: MODEL       24
DOCKED: USER    Run = 24
DOCKED: USER    DPF = D:/Protein_go_brrr/autodock/final/1A3N/heme/dock.dpf
DOCKED: USER  
DOCKED: USER    Estimated Free Energy of Binding    =   -3.52 kcal/mol  [=(1)+(2)+(3)-(4)]
DOCKED: USER    Estimated Inhibition Constant, Ki   =    2.63 mM (millimolar)  [Temperature = 298.15 K]
DOCKED: USER    
DOCKED: USER    (1) Final Intermolecular Energy     =   -7.40 kcal/mol
DOCKED: USER        vdW + Hbond + desolv Energy     =   -7.09 kcal/mol
DOCKED: USER        Electrostatic Energy            =   -0.31 kcal/mol
DOCKED: USER    (2) Final Total Internal Energy     =   -2.62 kcal/mol
DOCKED: USER    (3) Torsional Free Energy           =   +3.88 kcal/mol
DOCKED: USER    (4) Unbound System's Energy  [=(2)] =   -2.62 kcal/mol
DOCKED: USER    
DOCKED: USER    
DOCKED: USER    NEWDPF move heme_opt.pdbqt
DOCKED: USER    NEWDPF about 0.153000 0.018000 -0.028000
DOCKED: USER    NEWDPF tran0 -8.835590 24.681897 16.880111
DOCKED: USER    NEWDPF quaternion0 0.496227 -0.483449 -0.677501 0.247039
DOCKED: USER    NEWDPF axisangle0 0.512099 -0.498913 -0.699172 151.395232
DOCKED: USER    NEWDPF quat0 0.512099 -0.498913 -0.699172 151.395232
DOCKED: USER    NEWDPF dihe0 -97.26 -41.32 -108.93 -85.26 36.83 -13.98 127.81 -46.43 127.14 -48.12 138.88 38.87 -166.87 
DOCKED: USER  keepresnum = 1 
DOCKED: USER  
DOCKED: REMARK  13 active torsions:
DOCKED: REMARK  status: ('A' for Active; 'I' for Inactive)
DOCKED: REMARK    1  A    between atoms: O_3  and  C_38 
DOCKED: REMARK    2  A    between atoms: O_4  and  C_40 
DOCKED: REMARK    3  A    between atoms: O_7  and  C_46 
DOCKED: REMARK    4  A    between atoms: O_9  and  C_48 
DOCKED: REMARK    5  A    between atoms: C_15  and  C_20 
DOCKED: REMARK    6  A    between atoms: C_16  and  C_23 
DOCKED: REMARK    7  A    between atoms: C_20  and  C_38 
DOCKED: REMARK    8  A    between atoms: C_23  and  C_40 
DOCKED: REMARK    9  A    between atoms: C_32  and  C_41 
DOCKED: REMARK   10  A    between atoms: C_37  and  C_45 
DOCKED: REMARK   11  A    between atoms: C_41  and  C_44 
DOCKED: REMARK   12  A    between atoms: C_44  and  C_46 
DOCKED: REMARK   13  A    between atoms: C_47  and  C_48 
DOCKED: USER                              x       y       z     vdW  Elec       q    Type
DOCKED: USER                           _______ _______ _______ _____ _____    ______ ____
DOCKED: ROOT
DOCKED: ATOM      1  O   UNL d   1      -8.329  25.386  22.711 -0.03 +0.00    -0.289 OA
DOCKED: ATOM      2  O   UNL d   1      -3.180  25.635  17.252 -0.25 -0.07    -0.289 OA
DOCKED: ATOM      3  N   UNL d   1      -9.083  24.769  19.403 -0.09 +0.01    -0.247 NA
DOCKED: ATOM      4  N   UNL d   1      -6.540  25.388  17.996 -0.11 -0.01    -0.247 NA
DOCKED: ATOM      5  N   UNL d   1      -8.008  25.356  15.524 -0.14 -0.00    -0.354 N 
DOCKED: ATOM      6  N   UNL d   1     -10.645  24.734  16.993 -0.08 +0.01    -0.354 N 
DOCKED: ATOM      7  C   UNL d   1     -10.394  24.994  21.462 -0.09 -0.00    +0.084 A 
DOCKED: ATOM      8  C   UNL d   1      -4.471  25.166  19.277 -0.23 +0.00    +0.084 A 
DOCKED: ATOM      9  C   UNL d   1      -6.003  25.142  19.240 -0.19 +0.00    +0.058 A 
DOCKED: ATOM     10  C   UNL d   1     -10.355  24.753  19.950 -0.13 -0.01    +0.058 A 
DOCKED: ATOM     11  C   UNL d   1      -8.916  25.131  21.676 -0.07 -0.00    +0.193 A 
DOCKED: ATOM     12  C   UNL d   1      -8.229  24.949  20.357 -0.14 -0.00    +0.109 A 
DOCKED: ATOM     13  C   UNL d   1      -4.240  25.507  17.832 -0.23 +0.02    +0.193 A 
DOCKED: ATOM     14  C   UNL d   1     -11.070  26.321  21.816 -0.03 +0.00    +0.026 C 
DOCKED: ATOM     15  C   UNL d   1      -6.753  24.950  20.336 -0.20 -0.00    +0.055 C 
DOCKED: ATOM     16  C   UNL d   1      -3.888  23.777  19.555 -0.40 +0.00    +0.026 C 
DOCKED: ATOM     17  C   UNL d   1      -5.573  25.621  17.168 -0.24 +0.01    +0.109 A 
DOCKED: ATOM     18  C   UNL d   1     -11.472  24.463  19.256 -0.12 -0.01    +0.050 C 
DOCKED: ATOM     19  C   UNL d   1     -11.522  24.144  17.875 -0.09 -0.00    +0.045 A 
DOCKED: ATOM     20  C   UNL d   1      -6.812  25.861  15.082 -0.24 +0.00    +0.045 A 
DOCKED: ATOM     21  C   UNL d   1      -5.661  25.992  15.748 -0.20 +0.01    +0.057 C 
DOCKED: ATOM     22  C   UNL d   1      -8.328  25.952  13.375 -0.20 -0.00    -0.019 A 
DOCKED: ATOM     23  C   UNL d   1      -8.984  25.371  14.564 -0.21 +0.00    +0.045 A 
DOCKED: ATOM     24  C   UNL d   1      -7.043  26.238  13.688 -0.25 -0.00    -0.022 A 
DOCKED: ATOM     25  C   UNL d   1     -10.929  24.353  15.702 -0.19 -0.00    +0.049 A 
DOCKED: ATOM     26  C   UNL d   1     -12.373  23.330  17.143 -0.20 +0.00    -0.018 A 
DOCKED: ATOM     27  C   UNL d   1     -11.981  23.451  15.774 -0.22 -0.00    +0.003 A 
DOCKED: ATOM     28  C   UNL d   1     -10.259  24.953  14.601 -0.18 -0.00    +0.052 C 
DOCKED: ATOM     29  C   UNL d   1      -5.980  26.825  12.821 -0.26 +0.01    +0.046 C 
DOCKED: ATOM     30  C   UNL d   1     -13.481  22.489  17.680 -0.24 +0.01    +0.046 C 
DOCKED: ATOM     31  H   UNL d   1      -8.097  24.949  16.448 +0.05 +0.01    +0.166 HD
DOCKED: ATOM     32  H   UNL d   1      -9.924  25.389  17.273 +0.04 +0.00    +0.166 HD
DOCKED: ENDROOT
DOCKED: BRANCH   7  33
DOCKED: ATOM     33  C   UNL d   1     -10.953  23.838  22.298 -0.14 +0.01    +0.141 C 
DOCKED: BRANCH  33  34
DOCKED: ATOM     34  C   UNL d   1     -10.848  24.088  23.778 -0.10 +0.02    +0.306 C 
DOCKED: ATOM     35  O   UNL d   1     -11.692  24.616  24.481 -0.06 -0.01    -0.251 OA
DOCKED: BRANCH  34  36
DOCKED: ATOM     36  O   UNL d   1      -9.683  23.658  24.294 -0.10 -0.02    -0.481 OA
DOCKED: ATOM     37  H   UNL d   1      -9.039  24.364  24.074 +0.07 +0.00    +0.295 HD
DOCKED: ENDBRANCH  34  36
DOCKED: ENDBRANCH  33  34
DOCKED: ENDBRANCH   7  33
DOCKED: BRANCH  27  38
DOCKED: ATOM     38  C   UNL d   1     -12.611  22.786  14.674 -0.22 +0.00    +0.017 C 
DOCKED: ATOM     39  C   UNL d   1     -12.112  21.723  14.023 -0.28 -0.01    +0.092 C 
DOCKED: BRANCH  39  40
DOCKED: ATOM     40  C   UNL d   1     -12.867  21.122  12.920 -0.14 -0.12    +0.330 C 
DOCKED: ATOM     41  O   UNL d   1     -14.042  21.282  12.649 -0.11 +0.06    -0.246 OA
DOCKED: BRANCH  40  42
DOCKED: ATOM     42  O   UNL d   1     -12.066  20.332  12.189 -0.10 +0.31    -0.477 OA
DOCKED: ATOM     43  H   UNL d   1     -12.621  19.547  11.999 -0.40 -0.52    +0.295 HD
DOCKED: ENDBRANCH  40  42
DOCKED: ENDBRANCH  39  40
DOCKED: ENDBRANCH  27  38
DOCKED: BRANCH   8  44
DOCKED: ATOM     44  C   UNL d   1      -3.850  26.222  20.197 -0.15 +0.01    +0.141 C 
DOCKED: BRANCH  44  45
DOCKED: ATOM     45  C   UNL d   1      -3.426  27.470  19.468 -0.07 +0.03    +0.306 C 
DOCKED: ATOM     46  O   UNL d   1      -4.136  28.416  19.175 -0.03 -0.03    -0.251 OA
DOCKED: BRANCH  45  47
DOCKED: ATOM     47  O   UNL d   1      -2.127  27.447  19.121 -0.08 -0.08    -0.481 OA
DOCKED: ATOM     48  H   UNL d   1      -2.071  26.771  18.413 +0.15 +0.06    +0.295 HD
DOCKED: ENDBRANCH  45  47
DOCKED: ENDBRANCH  44  45
DOCKED: ENDBRANCH   8  44
DOCKED: BRANCH  22  49
DOCKED: ATOM     49  C   UNL d   1      -9.017  26.184  12.062 -0.12 +0.00    +0.048 C 
DOCKED: BRANCH  49  50
DOCKED: ATOM     50  C   UNL d   1      -9.228  27.673  11.787 -0.03 +0.00    +0.125 C 
DOCKED: BRANCH  50  51
DOCKED: ATOM     51  C   UNL d   1      -9.638  28.397  13.037 -0.00 +0.01    +0.305 C 
DOCKED: ATOM     52  O   UNL d   1     -10.553  28.118  13.792 -0.01 -0.01    -0.251 OA
DOCKED: BRANCH  51  53
DOCKED: ATOM     53  O   UNL d   1      -8.861  29.473  13.274 +0.01 -0.03    -0.481 OA
DOCKED: ATOM     54  H   UNL d   1      -9.354  30.217  12.868 +0.00 +0.01    +0.295 HD
DOCKED: ENDBRANCH  51  53
DOCKED: ENDBRANCH  50  51
DOCKED: ENDBRANCH  49  50
DOCKED: ENDBRANCH  22  49
DOCKED: TORSDOF 13
DOCKED: TER
DOCKED: ENDMDL
________________________________________________________________________________


	BEGINNING GENETIC ALGORITHM DOCKING 25 of 100
Run: 25 Seed: 199944393 1175488899 [ Run 25 of 100 GA/GALS ]
Beginning LAMARCKIAN GENETIC ALGORITHM (LGA), with a maximum of 25000000 energy evaluations.

Final-Value: -14.310


	FINAL GENETIC ALGORITHM DOCKED STATE
	_______________________________________________


Detailed state:  trans 16.403 7.127 16.021 quatxyzw 0.206218 0.140393 -0.966564 -0.059313 center 0.153 0.018 -0.028 ntor 13 175.4691 42.8920 161.2262 151.5613 -151.2555 19.9503 -46.9594 46.4628 14.3318 -143.4767 -134.5569 -180.0000 -55.3874
State:	 16.403   7.127  16.021   0.207  0.141 -0.968 -173.199    175.47   42.89  161.23  151.56 -151.26   19.95  -46.96   46.46   14.33 -143.48 -134.56 -180.00  -55.39

DOCKED: MODEL       25
DOCKED: USER    Run = 25
DOCKED: USER    DPF = D:/Protein_go_brrr/autodock/final/1A3N/heme/dock.dpf
DOCKED: USER  
DOCKED: USER    Estimated Free Energy of Binding    =   -8.18 kcal/mol  [=(1)+(2)+(3)-(4)]
DOCKED: USER    Estimated Inhibition Constant, Ki   =    1.00 uM (micromolar)  [Temperature = 298.15 K]
DOCKED: USER    
DOCKED: USER    (1) Final Intermolecular Energy     =  -12.06 kcal/mol
DOCKED: USER        vdW + Hbond + desolv Energy     =  -11.35 kcal/mol
DOCKED: USER        Electrostatic Energy            =   -0.71 kcal/mol
DOCKED: USER    (2) Final Total Internal Energy     =   -2.25 kcal/mol
DOCKED: USER    (3) Torsional Free Energy           =   +3.88 kcal/mol
DOCKED: USER    (4) Unbound System's Energy  [=(2)] =   -2.25 kcal/mol
DOCKED: USER    
DOCKED: USER    
DOCKED: USER    NEWDPF move heme_opt.pdbqt
DOCKED: USER    NEWDPF about 0.153000 0.018000 -0.028000
DOCKED: USER    NEWDPF tran0 16.402983 7.127247 16.020690
DOCKED: USER    NEWDPF quaternion0 0.206218 0.140393 -0.966564 -0.059313
DOCKED: USER    NEWDPF axisangle0 0.206582 0.140640 -0.968269 -173.199232
DOCKED: USER    NEWDPF quat0 0.206582 0.140640 -0.968269 -173.199232
DOCKED: USER    NEWDPF dihe0 175.47 42.89 161.23 151.56 -151.26 19.95 -46.96 46.46 14.33 -143.48 -134.56 -180.00 -55.39 
DOCKED: USER  keepresnum = 1 
DOCKED: USER  
DOCKED: REMARK  13 active torsions:
DOCKED: REMARK  status: ('A' for Active; 'I' for Inactive)
DOCKED: REMARK    1  A    between atoms: O_3  and  C_38 
DOCKED: REMARK    2  A    between atoms: O_4  and  C_40 
DOCKED: REMARK    3  A    between atoms: O_7  and  C_46 
DOCKED: REMARK    4  A    between atoms: O_9  and  C_48 
DOCKED: REMARK    5  A    between atoms: C_15  and  C_20 
DOCKED: REMARK    6  A    between atoms: C_16  and  C_23 
DOCKED: REMARK    7  A    between atoms: C_20  and  C_38 
DOCKED: REMARK    8  A    between atoms: C_23  and  C_40 
DOCKED: REMARK    9  A    between atoms: C_32  and  C_41 
DOCKED: REMARK   10  A    between atoms: C_37  and  C_45 
DOCKED: REMARK   11  A    between atoms: C_41  and  C_44 
DOCKED: REMARK   12  A    between atoms: C_44  and  C_46 
DOCKED: REMARK   13  A    between atoms: C_47  and  C_48 
DOCKED: USER                              x       y       z     vdW  Elec       q    Type
DOCKED: USER                           _______ _______ _______ _____ _____    ______ ____
DOCKED: ROOT
DOCKED: ATOM      1  O   UNL d   1      21.541   5.643  18.501 -0.20 +0.05    -0.289 OA
DOCKED: ATOM      2  O   UNL d   1      18.582  12.366  16.938 -0.18 -0.01    -0.289 OA
DOCKED: ATOM      3  N   UNL d   1      18.512   6.024  16.896 -0.16 -0.01    -0.247 NA
DOCKED: ATOM      4  N   UNL d   1      18.049   8.957  16.997 -0.03 -0.06    -0.247 NA
DOCKED: ATOM      5  N   UNL d   1      15.325   8.460  16.223 -0.11 -0.11    -0.354 N 
DOCKED: ATOM      6  N   UNL d   1      15.809   5.417  16.139 -0.17 -0.16    -0.354 N 
DOCKED: ATOM      7  C   UNL d   1      19.775   4.117  17.777 -0.32 -0.06    +0.084 A 
DOCKED: ATOM      8  C   UNL d   1      20.019  10.395  17.149 -0.20 +0.02    +0.084 A 
DOCKED: ATOM      9  C   UNL d   1      19.418   8.986  17.143 -0.20 +0.01    +0.058 A 
DOCKED: ATOM     10  C   UNL d   1      18.523   4.651  17.075 -0.31 -0.02    +0.058 A 
DOCKED: ATOM     11  C   UNL d   1      20.479   5.429  17.946 -0.26 -0.05    +0.193 A 
DOCKED: ATOM     12  C   UNL d   1      19.624   6.504  17.349 -0.25 +0.00    +0.109 A 
DOCKED: ATOM     13  C   UNL d   1      18.733  11.163  17.018 -0.16 +0.03    +0.193 A 
DOCKED: ATOM     14  C   UNL d   1      19.458   3.543  19.160 -0.41 -0.04    +0.026 C 
DOCKED: ATOM     15  C   UNL d   1      20.159   7.880  17.317 -0.31 +0.01    +0.055 C 
DOCKED: ATOM     16  C   UNL d   1      20.875  10.653  15.906 -0.21 +0.01    +0.026 C 
DOCKED: ATOM     17  C   UNL d   1      17.615  10.175  16.943 -0.18 +0.02    +0.109 A 
DOCKED: ATOM     18  C   UNL d   1      17.574   3.821  16.603 -0.35 -0.02    +0.050 C 
DOCKED: ATOM     19  C   UNL d   1      16.426   4.216  15.869 -0.28 +0.01    +0.045 A 
DOCKED: ATOM     20  C   UNL d   1      15.240   9.791  16.541 -0.29 +0.01    +0.045 A 
DOCKED: ATOM     21  C   UNL d   1      16.223  10.642  16.853 -0.20 -0.00    +0.057 C 
DOCKED: ATOM     22  C   UNL d   1      13.140   8.997  16.123 -0.36 -0.00    -0.019 A 
DOCKED: ATOM     23  C   UNL d   1      14.108   7.894  15.955 -0.28 +0.01    +0.045 A 
DOCKED: ATOM     24  C   UNL d   1      13.817  10.117  16.469 -0.40 -0.00    -0.022 A 
DOCKED: ATOM     25  C   UNL d   1      14.671   5.557  15.379 -0.29 +0.03    +0.049 A 
DOCKED: ATOM     26  C   UNL d   1      15.691   3.576  14.884 -0.22 -0.01    -0.018 A 
DOCKED: ATOM     27  C   UNL d   1      14.595   4.436  14.564 -0.25 +0.00    +0.003 A 
DOCKED: ATOM     28  C   UNL d   1      13.781   6.644  15.593 -0.38 +0.02    +0.052 C 
DOCKED: ATOM     29  C   UNL d   1      13.284  11.484  16.736 -0.40 +0.00    +0.046 C 
DOCKED: ATOM     30  C   UNL d   1      15.987   2.248  14.273 -0.18 +0.01    +0.046 C 
DOCKED: ATOM     31  H   UNL d   1      16.223   7.999  16.126 +0.07 +0.08    +0.166 HD
DOCKED: ATOM     32  H   UNL d   1      16.142   6.074  16.835 +0.07 +0.03    +0.166 HD
DOCKED: ENDROOT
DOCKED: BRANCH   7  33
DOCKED: ATOM     33  C   UNL d   1      20.630   3.151  16.950 -0.06 -0.08    +0.141 C 
DOCKED: BRANCH  33  34
DOCKED: ATOM     34  C   UNL d   1      21.183   3.788  15.704 -0.11 -0.04    +0.306 C 
DOCKED: ATOM     35  O   UNL d   1      20.709   3.710  14.583 -0.12 -0.03    -0.251 OA
DOCKED: BRANCH  34  36
DOCKED: ATOM     36  O   UNL d   1      22.305   4.493  15.936 -0.06 +0.06    -0.481 OA
DOCKED: ATOM     37  H   UNL d   1      22.400   4.491  16.913 +0.18 -0.05    +0.295 HD
DOCKED: ENDBRANCH  34  36
DOCKED: ENDBRANCH  33  34
DOCKED: ENDBRANCH   7  33
DOCKED: BRANCH  27  38
DOCKED: ATOM     38  C   UNL d   1      13.576   4.150  13.600 -0.25 +0.01    +0.017 C 
DOCKED: ATOM     39  C   UNL d   1      13.048   2.939  13.367 -0.18 +0.08    +0.092 C 
DOCKED: BRANCH  39  40
DOCKED: ATOM     40  C   UNL d   1      11.994   2.782  12.361 -0.02 +0.26    +0.330 C 
DOCKED: ATOM     41  O   UNL d   1      11.702   3.551  11.465 -0.15 -0.06    -0.246 OA
DOCKED: BRANCH  40  42
DOCKED: ATOM     42  O   UNL d   1      11.351   1.619  12.544 -0.45 -0.65    -0.477 OA
DOCKED: ATOM     43  H   UNL d   1      11.246   1.264  11.637 +0.10 +0.07    +0.295 HD
DOCKED: ENDBRANCH  40  42
DOCKED: ENDBRANCH  39  40
DOCKED: ENDBRANCH  27  38
DOCKED: BRANCH   8  44
DOCKED: ATOM     44  C   UNL d   1      20.765  10.790  18.428 -0.41 +0.05    +0.141 C 
DOCKED: BRANCH  44  45
DOCKED: ATOM     45  C   UNL d   1      21.593  12.037  18.272 -0.28 +0.12    +0.306 C 
DOCKED: ATOM     46  O   UNL d   1      22.763  12.095  17.936 -0.66 -0.21    -0.251 OA
DOCKED: BRANCH  45  47
DOCKED: ATOM     47  O   UNL d   1      20.906  13.153  18.577 -0.17 -0.07    -0.481 OA
DOCKED: ATOM     48  H   UNL d   1      19.963  12.888  18.514 +0.00 -0.00    +0.295 HD
DOCKED: ENDBRANCH  45  47
DOCKED: ENDBRANCH  44  45
DOCKED: ENDBRANCH   8  44
DOCKED: BRANCH  22  49
DOCKED: ATOM     49  C   UNL d   1      11.657   8.851  15.946 -0.45 +0.01    +0.048 C 
DOCKED: BRANCH  49  50
DOCKED: ATOM     50  C   UNL d   1      11.052  10.045  15.208 -0.33 +0.02    +0.125 C 
DOCKED: BRANCH  50  51
DOCKED: ATOM     51  C   UNL d   1      11.870  10.398  13.999 -0.14 +0.05    +0.305 C 
DOCKED: ATOM     52  O   UNL d   1      12.397   9.635  13.209 -0.06 -0.06    -0.251 OA
DOCKED: BRANCH  51  53
DOCKED: ATOM     53  O   UNL d   1      11.997  11.732  13.849 -0.15 -0.04    -0.481 OA
DOCKED: ATOM     54  H   UNL d   1      11.181  12.096  14.252 -0.14 +0.03    +0.295 HD
DOCKED: ENDBRANCH  51  53
DOCKED: ENDBRANCH  50  51
DOCKED: ENDBRANCH  49  50
DOCKED: ENDBRANCH  22  49
DOCKED: TORSDOF 13
DOCKED: TER
DOCKED: ENDMDL
________________________________________________________________________________


	BEGINNING GENETIC ALGORITHM DOCKING 26 of 100
Run: 26 Seed: 1028489960 886888202 [ Run 26 of 100 GA/GALS ]
Beginning LAMARCKIAN GENETIC ALGORITHM (LGA), with a maximum of 25000000 energy evaluations.

Final-Value: -16.470


	FINAL GENETIC ALGORITHM DOCKED STATE
	_______________________________________________


Detailed state:  trans 7.603 12.316 29.549 quatxyzw 0.295217 -0.705288 0.006602 0.644494 center 0.153 0.018 -0.028 ntor 13 -63.5800 -173.0138 -102.8211 72.3337 -136.2038 43.1871 129.3503 83.4828 -117.7837 -23.3913 -38.3064 -114.8631 20.5056
State:	  7.603  12.316  29.549   0.386 -0.922  0.009 99.745    -63.58 -173.01 -102.82   72.33 -136.20   43.19  129.35   83.48 -117.78  -23.39  -38.31 -114.86   20.51

DOCKED: MODEL       26
DOCKED: USER    Run = 26
DOCKED: USER    DPF = D:/Protein_go_brrr/autodock/final/1A3N/heme/dock.dpf
DOCKED: USER  
DOCKED: USER    Estimated Free Energy of Binding    =   -9.32 kcal/mol  [=(1)+(2)+(3)-(4)]
DOCKED: USER    Estimated Inhibition Constant, Ki   =  147.05 nM (nanomolar)  [Temperature = 298.15 K]
DOCKED: USER    
DOCKED: USER    (1) Final Intermolecular Energy     =  -13.20 kcal/mol
DOCKED: USER        vdW + Hbond + desolv Energy     =  -13.00 kcal/mol
DOCKED: USER        Electrostatic Energy            =   -0.20 kcal/mol
DOCKED: USER    (2) Final Total Internal Energy     =   -3.27 kcal/mol
DOCKED: USER    (3) Torsional Free Energy           =   +3.88 kcal/mol
DOCKED: USER    (4) Unbound System's Energy  [=(2)] =   -3.27 kcal/mol
DOCKED: USER    
DOCKED: USER    
DOCKED: USER    NEWDPF move heme_opt.pdbqt
DOCKED: USER    NEWDPF about 0.153000 0.018000 -0.028000
DOCKED: USER    NEWDPF tran0 7.603256 12.315760 29.548816
DOCKED: USER    NEWDPF quaternion0 0.295217 -0.705288 0.006602 0.644494
DOCKED: USER    NEWDPF axisangle0 0.386101 -0.922416 0.008634 99.744511
DOCKED: USER    NEWDPF quat0 0.386101 -0.922416 0.008634 99.744511
DOCKED: USER    NEWDPF dihe0 -63.58 -173.01 -102.82 72.33 -136.20 43.19 129.35 83.48 -117.78 -23.39 -38.31 -114.86 20.51 
DOCKED: USER  keepresnum = 1 
DOCKED: USER  
DOCKED: REMARK  13 active torsions:
DOCKED: REMARK  status: ('A' for Active; 'I' for Inactive)
DOCKED: REMARK    1  A    between atoms: O_3  and  C_38 
DOCKED: REMARK    2  A    between atoms: O_4  and  C_40 
DOCKED: REMARK    3  A    between atoms: O_7  and  C_46 
DOCKED: REMARK    4  A    between atoms: O_9  and  C_48 
DOCKED: REMARK    5  A    between atoms: C_15  and  C_20 
DOCKED: REMARK    6  A    between atoms: C_16  and  C_23 
DOCKED: REMARK    7  A    between atoms: C_20  and  C_38 
DOCKED: REMARK    8  A    between atoms: C_23  and  C_40 
DOCKED: REMARK    9  A    between atoms: C_32  and  C_41 
DOCKED: REMARK   10  A    between atoms: C_37  and  C_45 
DOCKED: REMARK   11  A    between atoms: C_41  and  C_44 
DOCKED: REMARK   12  A    between atoms: C_44  and  C_46 
DOCKED: REMARK   13  A    between atoms: C_47  and  C_48 
DOCKED: USER                              x       y       z     vdW  Elec       q    Type
DOCKED: USER                           _______ _______ _______ _____ _____    ______ ____
DOCKED: ROOT
DOCKED: ATOM      1  O   UNL d   1       7.478  16.335  33.860 -0.27 -0.29    -0.289 OA
DOCKED: ATOM      2  O   UNL d   1       8.125   8.858  34.110 -0.49 -0.13    -0.289 OA
DOCKED: ATOM      3  N   UNL d   1       7.365  14.355  31.038 -0.18 -0.09    -0.247 NA
DOCKED: ATOM      4  N   UNL d   1       8.000  11.645  32.080 -0.14 -0.10    -0.247 NA
DOCKED: ATOM      5  N   UNL d   1       8.399  10.796  29.362 -0.18 -0.08    -0.354 N 
DOCKED: ATOM      6  N   UNL d   1       7.758  13.614  28.292 -0.14 -0.04    -0.354 N 
DOCKED: ATOM      7  C   UNL d   1       7.394  16.770  31.456 -0.23 +0.03    +0.084 A 
DOCKED: ATOM      8  C   UNL d   1       7.472  11.196  34.423 -0.26 +0.05    +0.084 A 
DOCKED: ATOM      9  C   UNL d   1       7.554  12.193  33.262 -0.24 +0.03    +0.058 A 
DOCKED: ATOM     10  C   UNL d   1       7.358  15.611  30.455 -0.30 +0.02    +0.058 A 
DOCKED: ATOM     11  C   UNL d   1       7.404  15.946  32.709 -0.17 +0.13    +0.193 A 
DOCKED: ATOM     12  C   UNL d   1       7.357  14.500  32.323 -0.24 +0.07    +0.109 A 
DOCKED: ATOM     13  C   UNL d   1       7.990   9.990  33.690 -0.30 +0.09    +0.193 A 
DOCKED: ATOM     14  C   UNL d   1       8.703  17.560  31.373 +0.19 +0.01    +0.026 C 
DOCKED: ATOM     15  C   UNL d   1       7.265  13.496  33.402 -0.27 +0.05    +0.055 C 
DOCKED: ATOM     16  C   UNL d   1       6.023  10.932  34.844 -0.26 +0.02    +0.026 C 
DOCKED: ATOM     17  C   UNL d   1       8.280  10.398  32.282 -0.32 +0.04    +0.109 A 
DOCKED: ATOM     18  C   UNL d   1       7.238  15.828  29.132 -0.37 +0.01    +0.050 C 
DOCKED: ATOM     19  C   UNL d   1       7.113  14.821  28.141 -0.39 +0.01    +0.045 A 
DOCKED: ATOM     20  C   UNL d   1       8.879   9.696  30.026 -0.37 +0.01    +0.045 A 
DOCKED: ATOM     21  C   UNL d   1       8.844   9.426  31.334 -0.37 +0.02    +0.057 C 
DOCKED: ATOM     22  C   UNL d   1       9.300   9.453  27.793 -0.42 -0.00    -0.019 A 
DOCKED: ATOM     23  C   UNL d   1       8.607  10.740  28.010 -0.32 +0.01    +0.045 A 
DOCKED: ATOM     24  C   UNL d   1       9.456   8.840  28.990 -0.42 -0.00    -0.022 A 
DOCKED: ATOM     25  C   UNL d   1       7.574  12.826  27.179 -0.26 +0.00    +0.049 A 
DOCKED: ATOM     26  C   UNL d   1       6.463  14.802  26.917 -0.43 -0.00    -0.018 A 
DOCKED: ATOM     27  C   UNL d   1       6.742  13.533  26.322 -0.39 +0.00    +0.003 A 
DOCKED: ATOM     28  C   UNL d   1       8.273  11.597  27.033 -0.08 +0.00    +0.052 C 
DOCKED: ATOM     29  C   UNL d   1      10.084   7.520  29.287 -0.35 +0.01    +0.046 C 
DOCKED: ATOM     30  C   UNL d   1       5.631  15.894  26.334 -0.38 +0.00    +0.046 C 
DOCKED: ATOM     31  H   UNL d   1       7.877  11.517  29.848 +0.09 +0.04    +0.166 HD
DOCKED: ATOM     32  H   UNL d   1       8.320  13.376  29.100 +0.07 +0.03    +0.166 HD
DOCKED: ENDROOT
DOCKED: BRANCH   7  33
DOCKED: ATOM     33  C   UNL d   1       6.175  17.697  31.431 -0.23 +0.05    +0.141 C 
DOCKED: BRANCH  33  34
DOCKED: ATOM     34  C   UNL d   1       6.112  18.539  30.185 -0.21 +0.05    +0.306 C 
DOCKED: ATOM     35  O   UNL d   1       6.717  19.579  29.988 -0.17 -0.03    -0.251 OA
DOCKED: BRANCH  34  36
DOCKED: ATOM     36  O   UNL d   1       5.292  18.024  29.253 -0.14 -0.01    -0.481 OA
DOCKED: ATOM     37  H   UNL d   1       4.559  18.672  29.184 -0.17 -0.04    +0.295 HD
DOCKED: ENDBRANCH  34  36
DOCKED: ENDBRANCH  33  34
DOCKED: ENDBRANCH   7  33
DOCKED: BRANCH  27  38
DOCKED: ATOM     38  C   UNL d   1       6.274  13.102  25.040 -0.41 +0.00    +0.017 C 
DOCKED: ATOM     39  C   UNL d   1       7.006  13.080  23.916 -0.38 +0.00    +0.092 C 
DOCKED: BRANCH  39  40
DOCKED: ATOM     40  C   UNL d   1       6.412  12.598  22.666 -0.23 +0.01    +0.330 C 
DOCKED: ATOM     41  O   UNL d   1       5.294  12.818  22.241 -0.31 -0.01    -0.246 OA
DOCKED: BRANCH  40  42
DOCKED: ATOM     42  O   UNL d   1       7.297  11.846  21.994 -0.15 -0.01    -0.477 OA
DOCKED: ATOM     43  H   UNL d   1       8.049  11.758  22.614 +0.22 +0.01    +0.295 HD
DOCKED: ENDBRANCH  40  42
DOCKED: ENDBRANCH  39  40
DOCKED: ENDBRANCH  27  38
DOCKED: BRANCH   8  44
DOCKED: ATOM     44  C   UNL d   1       8.351  11.521  35.635 -0.16 +0.10    +0.141 C 
DOCKED: BRANCH  44  45
DOCKED: ATOM     45  C   UNL d   1       9.816  11.279  35.389 -0.13 +0.29    +0.306 C 
DOCKED: ATOM     46  O   UNL d   1      10.605  12.055  34.877 -0.65 -0.33    -0.251 OA
DOCKED: BRANCH  45  47
DOCKED: ATOM     47  O   UNL d   1      10.208  10.053  35.778 -0.23 -0.48    -0.481 OA
DOCKED: ATOM     48  H   UNL d   1       9.876   9.452  35.077 +0.15 +0.24    +0.295 HD
DOCKED: ENDBRANCH  45  47
DOCKED: ENDBRANCH  44  45
DOCKED: ENDBRANCH   8  44
DOCKED: BRANCH  22  49
DOCKED: ATOM     49  C   UNL d   1       9.752   8.955  26.452 -0.37 +0.01    +0.048 C 
DOCKED: BRANCH  49  50
DOCKED: ATOM     50  C   UNL d   1       8.575   8.727  25.504 -0.41 +0.01    +0.125 C 
DOCKED: BRANCH  50  51
DOCKED: ATOM     51  C   UNL d   1       8.935   9.120  24.099 -0.36 +0.02    +0.305 C 
DOCKED: ATOM     52  O   UNL d   1       9.612   8.494  23.302 -0.51 -0.02    -0.251 OA
DOCKED: BRANCH  51  53
DOCKED: ATOM     53  O   UNL d   1       8.419  10.319  23.763 -0.15 -0.03    -0.481 OA
DOCKED: ATOM     54  H   UNL d   1       7.702  10.102  23.131 +0.22 +0.02    +0.295 HD
DOCKED: ENDBRANCH  51  53
DOCKED: ENDBRANCH  50  51
DOCKED: ENDBRANCH  49  50
DOCKED: ENDBRANCH  22  49
DOCKED: TORSDOF 13
DOCKED: TER
DOCKED: ENDMDL
________________________________________________________________________________


	BEGINNING GENETIC ALGORITHM DOCKING 27 of 100
Run: 27 Seed: 597764063 128056562 [ Run 27 of 100 GA/GALS ]
Beginning LAMARCKIAN GENETIC ALGORITHM (LGA), with a maximum of 25000000 energy evaluations.

Final-Value: -10.657


	FINAL GENETIC ALGORITHM DOCKED STATE
	_______________________________________________


Detailed state:  trans 26.644 -11.500 -8.649 quatxyzw 0.448856 -0.408100 0.015274 -0.794827 center 0.153 0.018 -0.028 ntor 13 143.2479 28.8734 105.8806 -146.4616 73.2336 74.4584 -45.1197 -67.5888 156.3366 -127.5666 -176.8524 57.1383 6.2355
State:	 26.644 -11.500  -8.649   0.740 -0.673  0.025 -74.722    143.25   28.87  105.88 -146.46   73.23   74.46  -45.12  -67.59  156.34 -127.57 -176.85   57.14    6.24

DOCKED: MODEL       27
DOCKED: USER    Run = 27
DOCKED: USER    DPF = D:/Protein_go_brrr/autodock/final/1A3N/heme/dock.dpf
DOCKED: USER  
DOCKED: USER    Estimated Free Energy of Binding    =   -4.35 kcal/mol  [=(1)+(2)+(3)-(4)]
DOCKED: USER    Estimated Inhibition Constant, Ki   =  649.69 uM (micromolar)  [Temperature = 298.15 K]
DOCKED: USER    
DOCKED: USER    (1) Final Intermolecular Energy     =   -8.23 kcal/mol
DOCKED: USER        vdW + Hbond + desolv Energy     =   -7.81 kcal/mol
DOCKED: USER        Electrostatic Energy            =   -0.42 kcal/mol
DOCKED: USER    (2) Final Total Internal Energy     =   -2.43 kcal/mol
DOCKED: USER    (3) Torsional Free Energy           =   +3.88 kcal/mol
DOCKED: USER    (4) Unbound System's Energy  [=(2)] =   -2.43 kcal/mol
DOCKED: USER    
DOCKED: USER    
DOCKED: USER    NEWDPF move heme_opt.pdbqt
DOCKED: USER    NEWDPF about 0.153000 0.018000 -0.028000
DOCKED: USER    NEWDPF tran0 26.644412 -11.500301 -8.649243
DOCKED: USER    NEWDPF quaternion0 0.448856 -0.408100 0.015274 -0.794827
DOCKED: USER    NEWDPF axisangle0 0.739665 -0.672504 0.025169 -74.722147
DOCKED: USER    NEWDPF quat0 0.739665 -0.672504 0.025169 -74.722147
DOCKED: USER    NEWDPF dihe0 143.25 28.87 105.88 -146.46 73.23 74.46 -45.12 -67.59 156.34 -127.57 -176.85 57.14 6.24 
DOCKED: USER  keepresnum = 1 
DOCKED: USER  
DOCKED: REMARK  13 active torsions:
DOCKED: REMARK  status: ('A' for Active; 'I' for Inactive)
DOCKED: REMARK    1  A    between atoms: O_3  and  C_38 
DOCKED: REMARK    2  A    between atoms: O_4  and  C_40 
DOCKED: REMARK    3  A    between atoms: O_7  and  C_46 
DOCKED: REMARK    4  A    between atoms: O_9  and  C_48 
DOCKED: REMARK    5  A    between atoms: C_15  and  C_20 
DOCKED: REMARK    6  A    between atoms: C_16  and  C_23 
DOCKED: REMARK    7  A    between atoms: C_20  and  C_38 
DOCKED: REMARK    8  A    between atoms: C_23  and  C_40 
DOCKED: REMARK    9  A    between atoms: C_32  and  C_41 
DOCKED: REMARK   10  A    between atoms: C_37  and  C_45 
DOCKED: REMARK   11  A    between atoms: C_41  and  C_44 
DOCKED: REMARK   12  A    between atoms: C_44  and  C_46 
DOCKED: REMARK   13  A    between atoms: C_47  and  C_48 
DOCKED: USER                              x       y       z     vdW  Elec       q    Type
DOCKED: USER                           _______ _______ _______ _____ _____    ______ ____
DOCKED: ROOT
DOCKED: ATOM      1  O   UNL d   1      21.834  -9.044 -11.011 -0.12 +0.08    -0.289 OA
DOCKED: ATOM      2  O   UNL d   1      27.769 -12.336 -14.224 -0.02 +0.11    -0.289 OA
DOCKED: ATOM      3  N   UNL d   1      24.517 -10.235  -9.200 -0.33 +0.06    -0.247 NA
DOCKED: ATOM      4  N   UNL d   1      26.174 -11.601 -11.253 -0.10 +0.16    -0.247 NA
DOCKED: ATOM      5  N   UNL d   1      27.656 -12.820  -9.112 -0.06 +0.08    -0.354 N 
DOCKED: ATOM      6  N   UNL d   1      25.919 -11.414  -6.989 -0.10 +0.03    -0.354 N 
DOCKED: ATOM      7  C   UNL d   1      22.329  -9.289  -8.630 -0.21 -0.01    +0.084 A 
DOCKED: ATOM      8  C   UNL d   1      25.967 -10.819 -13.559 -0.10 -0.04    +0.084 A 
DOCKED: ATOM      9  C   UNL d   1      25.493 -10.759 -12.103 -0.14 -0.04    +0.058 A 
DOCKED: ATOM     10  C   UNL d   1      23.663  -9.883  -8.168 -0.24 -0.01    +0.058 A 
DOCKED: ATOM     11  C   UNL d   1      22.587  -9.350 -10.105 -0.15 -0.05    +0.193 A 
DOCKED: ATOM     12  C   UNL d   1      23.956  -9.918 -10.322 -0.21 -0.03    +0.109 A 
DOCKED: ATOM     13  C   UNL d   1      27.017 -11.880 -13.385 -0.06 -0.10    +0.193 A 
DOCKED: ATOM     14  C   UNL d   1      21.147 -10.202  -8.296 -0.12 -0.00    +0.026 C 
DOCKED: ATOM     15  C   UNL d   1      24.469  -9.988 -11.705 -0.23 -0.03    +0.055 C 
DOCKED: ATOM     16  C   UNL d   1      26.649  -9.517 -13.989 -0.01 -0.02    +0.026 C 
DOCKED: ATOM     17  C   UNL d   1      27.037 -12.274 -11.944 -0.10 -0.06    +0.109 A 
DOCKED: ATOM     18  C   UNL d   1      23.985  -9.958  -6.863 -0.27 +0.00    +0.050 C 
DOCKED: ATOM     19  C   UNL d   1      25.225 -10.413  -6.347 -0.25 +0.00    +0.045 A 
DOCKED: ATOM     20  C   UNL d   1      28.153 -13.529 -10.175 -0.08 -0.01    +0.045 A 
DOCKED: ATOM     21  C   UNL d   1      27.945 -13.335 -11.482 -0.08 -0.02    +0.057 C 
DOCKED: ATOM     22  C   UNL d   1      28.949 -14.446  -8.241 -0.05 +0.00    -0.019 A 
DOCKED: ATOM     23  C   UNL d   1      28.081 -13.300  -7.902 -0.09 -0.01    +0.045 A 
DOCKED: ATOM     24  C   UNL d   1      28.988 -14.575  -9.588 -0.04 +0.00    -0.022 A 
DOCKED: ATOM     25  C   UNL d   1      27.041 -11.760  -6.272 -0.18 -0.00    +0.049 A 
DOCKED: ATOM     26  C   UNL d   1      25.932 -10.075  -5.204 -0.30 -0.00    -0.018 A 
DOCKED: ATOM     27  C   UNL d   1      27.088 -10.915  -5.172 -0.26 -0.00    +0.003 A 
DOCKED: ATOM     28  C   UNL d   1      27.834 -12.876  -6.653 -0.13 -0.00    +0.052 C 
DOCKED: ATOM     29  C   UNL d   1      29.735 -15.571 -10.408 -0.01 -0.01    +0.046 C 
DOCKED: ATOM     30  C   UNL d   1      25.561  -9.035  -4.202 -0.34 +0.01    +0.046 C 
DOCKED: ATOM     31  H   UNL d   1      27.100 -11.984  -9.251 +0.03 -0.06    +0.166 HD
DOCKED: ATOM     32  H   UNL d   1      25.607 -11.850  -7.848 +0.05 -0.02    +0.166 HD
DOCKED: ENDROOT
DOCKED: BRANCH   7  33
DOCKED: ATOM     33  C   UNL d   1      22.065  -7.844  -8.190 -0.33 -0.03    +0.141 C 
DOCKED: BRANCH  33  34
DOCKED: ATOM     34  C   UNL d   1      20.599  -7.510  -8.148 -0.26 -0.07    +0.306 C 
DOCKED: ATOM     35  O   UNL d   1      19.996  -7.028  -7.204 -0.41 +0.05    -0.251 OA
DOCKED: BRANCH  34  36
DOCKED: ATOM     36  O   UNL d   1      19.968  -7.799  -9.300 -0.09 +0.12    -0.481 OA
DOCKED: ATOM     37  H   UNL d   1      20.605  -7.542 -10.001 -0.08 -0.13    +0.295 HD
DOCKED: ENDBRANCH  34  36
DOCKED: ENDBRANCH  33  34
DOCKED: ENDBRANCH   7  33
DOCKED: BRANCH  27  38
DOCKED: ATOM     38  C   UNL d   1      28.087 -10.905  -4.146 -0.30 -0.00    +0.017 C 
DOCKED: ATOM     39  C   UNL d   1      29.154 -10.093  -4.111 -0.35 -0.03    +0.092 C 
DOCKED: BRANCH  39  40
DOCKED: ATOM     40  C   UNL d   1      30.096 -10.172  -2.991 -0.24 -0.20    +0.330 C 
DOCKED: ATOM     41  O   UNL d   1      30.905 -11.050  -2.762 -0.25 +0.13    -0.246 OA
DOCKED: BRANCH  40  42
DOCKED: ATOM     42  O   UNL d   1      29.965  -9.096  -2.201 -0.13 +0.44    -0.477 OA
DOCKED: ATOM     43  H   UNL d   1      30.857  -8.979  -1.813 -0.29 -0.61    +0.295 HD
DOCKED: ENDBRANCH  40  42
DOCKED: ENDBRANCH  39  40
DOCKED: ENDBRANCH  27  38
DOCKED: BRANCH   8  44
DOCKED: ATOM     44  C   UNL d   1      24.910 -11.255 -14.580 -0.02 -0.03    +0.141 C 
DOCKED: BRANCH  44  45
DOCKED: ATOM     45  C   UNL d   1      25.447 -11.362 -15.982 +0.00 -0.06    +0.306 C 
DOCKED: ATOM     46  O   UNL d   1      25.486 -10.472 -16.815 -0.00 +0.04    -0.251 OA
DOCKED: BRANCH  45  47
DOCKED: ATOM     47  O   UNL d   1      25.886 -12.600 -16.273 +0.01 +0.07    -0.481 OA
DOCKED: ATOM     48  H   UNL d   1      26.740 -12.678 -15.798 +0.01 -0.05    +0.295 HD
DOCKED: ENDBRANCH  45  47
DOCKED: ENDBRANCH  44  45
DOCKED: ENDBRANCH   8  44
DOCKED: BRANCH  22  49
DOCKED: ATOM     49  C   UNL d   1      29.640 -15.308  -7.226 -0.03 -0.00    +0.048 C 
DOCKED: BRANCH  49  50
DOCKED: ATOM     50  C   UNL d   1      30.876 -14.622  -6.643 -0.05 -0.01    +0.125 C 
DOCKED: BRANCH  50  51
DOCKED: ATOM     51  C   UNL d   1      31.013 -13.224  -7.175 -0.08 -0.01    +0.305 C 
DOCKED: ATOM     52  O   UNL d   1      31.367 -12.884  -8.290 -0.10 +0.02    -0.251 OA
DOCKED: BRANCH  51  53
DOCKED: ATOM     53  O   UNL d   1      30.701 -12.298  -6.246 -0.65 -0.05    -0.481 OA
DOCKED: ATOM     54  H   UNL d   1      30.987 -12.703  -5.400 +0.08 -0.00    +0.295 HD
DOCKED: ENDBRANCH  51  53
DOCKED: ENDBRANCH  50  51
DOCKED: ENDBRANCH  49  50
DOCKED: ENDBRANCH  22  49
DOCKED: TORSDOF 13
DOCKED: TER
DOCKED: ENDMDL
________________________________________________________________________________


	BEGINNING GENETIC ALGORITHM DOCKING 28 of 100
Run: 28 Seed: 1948212363 254681360 [ Run 28 of 100 GA/GALS ]
Beginning LAMARCKIAN GENETIC ALGORITHM (LGA), with a maximum of 25000000 energy evaluations.

Final-Value: -15.148


	FINAL GENETIC ALGORITHM DOCKED STATE
	_______________________________________________


Detailed state:  trans 4.050 -5.064 -6.131 quatxyzw -0.678408 -0.329349 0.089472 -0.650605 center 0.153 0.018 -0.028 ntor 13 174.5061 99.8685 114.8026 138.2657 -150.1019 -92.1895 -55.1247 -7.5075 14.0540 -132.1491 -59.8108 178.5588 168.4350
State:	  4.050  -5.064  -6.131  -0.893 -0.434  0.118 -98.826    174.51   99.87  114.80  138.27 -150.10  -92.19  -55.12   -7.51   14.05 -132.15  -59.81  178.56  168.44

DOCKED: MODEL       28
DOCKED: USER    Run = 28
DOCKED: USER    DPF = D:/Protein_go_brrr/autodock/final/1A3N/heme/dock.dpf
DOCKED: USER  
DOCKED: USER    Estimated Free Energy of Binding    =   -8.95 kcal/mol  [=(1)+(2)+(3)-(4)]
DOCKED: USER    Estimated Inhibition Constant, Ki   =  275.43 nM (nanomolar)  [Temperature = 298.15 K]
DOCKED: USER    
DOCKED: USER    (1) Final Intermolecular Energy     =  -12.83 kcal/mol
DOCKED: USER        vdW + Hbond + desolv Energy     =  -12.64 kcal/mol
DOCKED: USER        Electrostatic Energy            =   -0.18 kcal/mol
DOCKED: USER    (2) Final Total Internal Energy     =   -2.32 kcal/mol
DOCKED: USER    (3) Torsional Free Energy           =   +3.88 kcal/mol
DOCKED: USER    (4) Unbound System's Energy  [=(2)] =   -2.32 kcal/mol
DOCKED: USER    
DOCKED: USER    
DOCKED: USER    NEWDPF move heme_opt.pdbqt
DOCKED: USER    NEWDPF about 0.153000 0.018000 -0.028000
DOCKED: USER    NEWDPF tran0 4.049838 -5.064221 -6.130874
DOCKED: USER    NEWDPF quaternion0 -0.678408 -0.329349 0.089472 -0.650605
DOCKED: USER    NEWDPF axisangle0 -0.893328 -0.433687 0.117817 -98.825513
DOCKED: USER    NEWDPF quat0 -0.893328 -0.433687 0.117817 -98.825513
DOCKED: USER    NEWDPF dihe0 174.51 99.87 114.80 138.27 -150.10 -92.19 -55.12 -7.51 14.05 -132.15 -59.81 178.56 168.44 
DOCKED: USER  keepresnum = 1 
DOCKED: USER  
DOCKED: REMARK  13 active torsions:
DOCKED: REMARK  status: ('A' for Active; 'I' for Inactive)
DOCKED: REMARK    1  A    between atoms: O_3  and  C_38 
DOCKED: REMARK    2  A    between atoms: O_4  and  C_40 
DOCKED: REMARK    3  A    between atoms: O_7  and  C_46 
DOCKED: REMARK    4  A    between atoms: O_9  and  C_48 
DOCKED: REMARK    5  A    between atoms: C_15  and  C_20 
DOCKED: REMARK    6  A    between atoms: C_16  and  C_23 
DOCKED: REMARK    7  A    between atoms: C_20  and  C_38 
DOCKED: REMARK    8  A    between atoms: C_23  and  C_40 
DOCKED: REMARK    9  A    between atoms: C_32  and  C_41 
DOCKED: REMARK   10  A    between atoms: C_37  and  C_45 
DOCKED: REMARK   11  A    between atoms: C_41  and  C_44 
DOCKED: REMARK   12  A    between atoms: C_44  and  C_46 
DOCKED: REMARK   13  A    between atoms: C_47  and  C_48 
DOCKED: USER                              x       y       z     vdW  Elec       q    Type
DOCKED: USER                           _______ _______ _______ _____ _____    ______ ____
DOCKED: ROOT
DOCKED: ATOM      1  O   UNL d   1      -0.052  -7.584  -9.534 -0.41 -0.34    -0.289 OA
DOCKED: ATOM      2  O   UNL d   1       1.279  -8.169  -2.167 -0.24 -0.01    -0.289 OA
DOCKED: ATOM      3  N   UNL d   1       2.589  -6.000  -7.981 -0.16 -0.08    -0.247 NA
DOCKED: ATOM      4  N   UNL d   1       2.123  -6.561  -5.100 -0.24 -0.06    -0.247 NA
DOCKED: ATOM      5  N   UNL d   1       4.073  -4.539  -4.487 -0.20 -0.04    -0.354 N 
DOCKED: ATOM      6  N   UNL d   1       4.536  -3.950  -7.477 -0.16 -0.03    -0.354 N 
DOCKED: ATOM      7  C   UNL d   1       1.644  -5.972 -10.242 -0.13 +0.05    +0.084 A 
DOCKED: ATOM      8  C   UNL d   1       0.862  -8.578  -4.544 -0.32 +0.01    +0.084 A 
DOCKED: ATOM      9  C   UNL d   1       1.402  -7.618  -5.609 -0.23 +0.02    +0.058 A 
DOCKED: ATOM     10  C   UNL d   1       2.695  -5.462  -9.253 -0.19 +0.02    +0.058 A 
DOCKED: ATOM     11  C   UNL d   1       0.935  -6.908  -9.310 -0.14 +0.16    +0.193 A 
DOCKED: ATOM     12  C   UNL d   1       1.618  -6.854  -7.978 -0.12 +0.06    +0.109 A 
DOCKED: ATOM     13  C   UNL d   1       1.380  -7.850  -3.335 -0.17 +0.01    +0.193 A 
DOCKED: ATOM     14  C   UNL d   1       0.673  -4.869 -10.669 -0.24 +0.02    +0.026 C 
DOCKED: ATOM     15  C   UNL d   1       1.147  -7.768  -6.918 -0.21 +0.02    +0.055 C 
DOCKED: ATOM     16  C   UNL d   1       1.540  -9.950  -4.620 -0.36 +0.00    +0.026 C 
DOCKED: ATOM     17  C   UNL d   1       2.119  -6.642  -3.809 -0.11 +0.01    +0.109 A 
DOCKED: ATOM     18  C   UNL d   1       3.682  -4.632  -9.641 -0.20 +0.01    +0.050 C 
DOCKED: ATOM     19  C   UNL d   1       4.744  -4.176  -8.819 -0.25 +0.00    +0.045 A 
DOCKED: ATOM     20  C   UNL d   1       3.568  -4.767  -3.233 -0.37 +0.00    +0.045 A 
DOCKED: ATOM     21  C   UNL d   1       2.704  -5.707  -2.836 -0.21 +0.00    +0.057 C 
DOCKED: ATOM     22  C   UNL d   1       4.994  -2.985  -3.141 -0.49 -0.00    -0.019 A 
DOCKED: ATOM     23  C   UNL d   1       4.943  -3.482  -4.531 -0.45 +0.00    +0.045 A 
DOCKED: ATOM     24  C   UNL d   1       4.179  -3.750  -2.378 -0.42 -0.00    -0.022 A 
DOCKED: ATOM     25  C   UNL d   1       5.667  -3.427  -6.894 -0.47 +0.00    +0.049 A 
DOCKED: ATOM     26  C   UNL d   1       6.054  -3.826  -9.108 -0.30 -0.00    -0.018 A 
DOCKED: ATOM     27  C   UNL d   1       6.638  -3.373  -7.885 -0.48 -0.00    +0.003 A 
DOCKED: ATOM     28  C   UNL d   1       5.648  -2.966  -5.550 -0.43 +0.00    +0.052 C 
DOCKED: ATOM     29  C   UNL d   1       3.904  -3.649  -0.916 -0.47 +0.00    +0.046 C 
DOCKED: ATOM     30  C   UNL d   1       6.725  -3.909 -10.437 -0.21 +0.00    +0.046 C 
DOCKED: ATOM     31  H   UNL d   1       3.863  -5.161  -5.260 +0.10 +0.02    +0.166 HD
DOCKED: ATOM     32  H   UNL d   1       3.651  -4.113  -7.012 +0.10 +0.03    +0.166 HD
DOCKED: ENDROOT
DOCKED: BRANCH   7  33
DOCKED: ATOM     33  C   UNL d   1       2.195  -6.735 -11.452 -0.05 +0.05    +0.141 C 
DOCKED: BRANCH  33  34
DOCKED: ATOM     34  C   UNL d   1       2.937  -7.984 -11.061 -0.05 +0.07    +0.306 C 
DOCKED: ATOM     35  O   UNL d   1       4.143  -8.090 -10.914 -0.08 -0.04    -0.251 OA
DOCKED: BRANCH  34  36
DOCKED: ATOM     36  O   UNL d   1       2.119  -9.035 -10.872 -0.00 -0.12    -0.481 OA
DOCKED: ATOM     37  H   UNL d   1       1.216  -8.656 -10.919 +0.04 +0.11    +0.295 HD
DOCKED: ENDBRANCH  34  36
DOCKED: ENDBRANCH  33  34
DOCKED: ENDBRANCH   7  33
DOCKED: BRANCH  27  38
DOCKED: ATOM     38  C   UNL d   1       7.981  -2.901  -7.737 -0.43 -0.00    +0.017 C 
DOCKED: ATOM     39  C   UNL d   1       8.660  -2.196  -8.655 -0.39 -0.00    +0.092 C 
DOCKED: BRANCH  39  40
DOCKED: ATOM     40  C   UNL d   1      10.028  -1.755  -8.373 -0.20 -0.01    +0.330 C 
DOCKED: ATOM     41  O   UNL d   1      10.386  -0.686  -7.918 -0.30 -0.04    -0.246 OA
DOCKED: BRANCH  40  42
DOCKED: ATOM     42  O   UNL d   1      10.899  -2.728  -8.683 -0.09 +0.07    -0.477 OA
DOCKED: ATOM     43  H   UNL d   1      10.859  -3.333  -7.914 -0.27 -0.18    +0.295 HD
DOCKED: ENDBRANCH  40  42
DOCKED: ENDBRANCH  39  40
DOCKED: ENDBRANCH  27  38
DOCKED: BRANCH   8  44
DOCKED: ATOM     44  C   UNL d   1      -0.663  -8.716  -4.490 -0.29 +0.03    +0.141 C 
DOCKED: BRANCH  44  45
DOCKED: ATOM     45  C   UNL d   1      -1.135  -9.703  -3.457 -0.29 +0.01    +0.306 C 
DOCKED: ATOM     46  O   UNL d   1      -1.471 -10.858  -3.654 -0.26 -0.00    -0.251 OA
DOCKED: BRANCH  45  47
DOCKED: ATOM     47  O   UNL d   1      -1.184  -9.171  -2.222 -0.19 +0.00    -0.481 OA
DOCKED: ATOM     48  H   UNL d   1      -0.249  -8.983  -1.995 +0.19 +0.01    +0.295 HD
DOCKED: ENDBRANCH  45  47
DOCKED: ENDBRANCH  44  45
DOCKED: ENDBRANCH   8  44
DOCKED: BRANCH  22  49
DOCKED: ATOM     49  C   UNL d   1       5.815  -1.810  -2.697 -0.48 +0.00    +0.048 C 
DOCKED: BRANCH  49  50
DOCKED: ATOM     50  C   UNL d   1       5.080  -0.488  -2.914 -0.12 +0.00    +0.125 C 
DOCKED: BRANCH  50  51
DOCKED: ATOM     51  C   UNL d   1       4.912   0.252  -1.617 -0.43 -0.01    +0.305 C 
DOCKED: ATOM     52  O   UNL d   1       5.070  -0.181  -0.489 -0.44 +0.00    -0.251 OA
DOCKED: BRANCH  51  53
DOCKED: ATOM     53  O   UNL d   1       4.530   1.530  -1.811 -0.20 +0.05    -0.481 OA
DOCKED: ATOM     54  H   UNL d   1       5.079   1.831  -2.565 -0.15 -0.09    +0.295 HD
DOCKED: ENDBRANCH  51  53
DOCKED: ENDBRANCH  50  51
DOCKED: ENDBRANCH  49  50
DOCKED: ENDBRANCH  22  49
DOCKED: TORSDOF 13
DOCKED: TER
DOCKED: ENDMDL
________________________________________________________________________________


	BEGINNING GENETIC ALGORITHM DOCKING 29 of 100
Run: 29 Seed: 719152221 902011007 [ Run 29 of 100 GA/GALS ]
Beginning LAMARCKIAN GENETIC ALGORITHM (LGA), with a maximum of 25000000 energy evaluations.

Final-Value: -10.756


	FINAL GENETIC ALGORITHM DOCKED STATE
	_______________________________________________


Detailed state:  trans 24.935 25.633 8.842 quatxyzw -0.307670 0.879799 -0.252712 -0.259672 center 0.153 0.018 -0.028 ntor 13 -179.7165 -90.6399 -90.6887 50.6586 -155.7342 -145.1447 163.1195 134.5293 8.0009 -101.1227 61.1086 -173.9654 -28.1166
State:	 24.935  25.633   8.842  -0.319  0.911 -0.262 -149.899   -179.72  -90.64  -90.69   50.66 -155.73 -145.14  163.12  134.53    8.00 -101.12   61.11 -173.97  -28.12

DOCKED: MODEL       29
DOCKED: USER    Run = 29
DOCKED: USER    DPF = D:/Protein_go_brrr/autodock/final/1A3N/heme/dock.dpf
DOCKED: USER  
DOCKED: USER    Estimated Free Energy of Binding    =   -4.64 kcal/mol  [=(1)+(2)+(3)-(4)]
DOCKED: USER    Estimated Inhibition Constant, Ki   =  394.17 uM (micromolar)  [Temperature = 298.15 K]
DOCKED: USER    
DOCKED: USER    (1) Final Intermolecular Energy     =   -8.52 kcal/mol
DOCKED: USER        vdW + Hbond + desolv Energy     =   -8.25 kcal/mol
DOCKED: USER        Electrostatic Energy            =   -0.27 kcal/mol
DOCKED: USER    (2) Final Total Internal Energy     =   -2.23 kcal/mol
DOCKED: USER    (3) Torsional Free Energy           =   +3.88 kcal/mol
DOCKED: USER    (4) Unbound System's Energy  [=(2)] =   -2.23 kcal/mol
DOCKED: USER    
DOCKED: USER    
DOCKED: USER    NEWDPF move heme_opt.pdbqt
DOCKED: USER    NEWDPF about 0.153000 0.018000 -0.028000
DOCKED: USER    NEWDPF tran0 24.935404 25.632784 8.842459
DOCKED: USER    NEWDPF quaternion0 -0.307670 0.879799 -0.252712 -0.259672
DOCKED: USER    NEWDPF axisangle0 -0.318599 0.911051 -0.261689 -149.898799
DOCKED: USER    NEWDPF quat0 -0.318599 0.911051 -0.261689 -149.898799
DOCKED: USER    NEWDPF dihe0 -179.72 -90.64 -90.69 50.66 -155.73 -145.14 163.12 134.53 8.00 -101.12 61.11 -173.97 -28.12 
DOCKED: USER  keepresnum = 1 
DOCKED: USER  
DOCKED: REMARK  13 active torsions:
DOCKED: REMARK  status: ('A' for Active; 'I' for Inactive)
DOCKED: REMARK    1  A    between atoms: O_3  and  C_38 
DOCKED: REMARK    2  A    between atoms: O_4  and  C_40 
DOCKED: REMARK    3  A    between atoms: O_7  and  C_46 
DOCKED: REMARK    4  A    between atoms: O_9  and  C_48 
DOCKED: REMARK    5  A    between atoms: C_15  and  C_20 
DOCKED: REMARK    6  A    between atoms: C_16  and  C_23 
DOCKED: REMARK    7  A    between atoms: C_20  and  C_38 
DOCKED: REMARK    8  A    between atoms: C_23  and  C_40 
DOCKED: REMARK    9  A    between atoms: C_32  and  C_41 
DOCKED: REMARK   10  A    between atoms: C_37  and  C_45 
DOCKED: REMARK   11  A    between atoms: C_41  and  C_44 
DOCKED: REMARK   12  A    between atoms: C_44  and  C_46 
DOCKED: REMARK   13  A    between atoms: C_47  and  C_48 
DOCKED: USER                              x       y       z     vdW  Elec       q    Type
DOCKED: USER                           _______ _______ _______ _____ _____    ______ ____
DOCKED: ROOT
DOCKED: ATOM      1  O   UNL d   1      28.432  30.376   9.035 -0.01 +0.04    -0.289 OA
DOCKED: ATOM      2  O   UNL d   1      27.752  24.560  13.737 -0.43 -0.36    -0.289 OA
DOCKED: ATOM      3  N   UNL d   1      26.117  27.861   8.573 -0.08 +0.07    -0.247 NA
DOCKED: ATOM      4  N   UNL d   1      26.795  25.908  10.708 -0.12 -0.04    -0.247 NA
DOCKED: ATOM      5  N   UNL d   1      25.119  23.997   9.363 +0.08 +0.04    -0.354 N 
DOCKED: ATOM      6  N   UNL d   1      24.436  26.024   7.143 -0.13 +0.26    -0.354 N 
DOCKED: ATOM      7  C   UNL d   1      26.842  29.805   7.268 -0.04 -0.02    +0.084 A 
DOCKED: ATOM      8  C   UNL d   1      27.900  26.776  12.707 -0.09 +0.03    +0.084 A 
DOCKED: ATOM      9  C   UNL d   1      27.358  27.019  11.294 -0.12 +0.01    +0.058 A 
DOCKED: ATOM     10  C   UNL d   1      25.943  28.571   7.397 -0.13 -0.02    +0.058 A 
DOCKED: ATOM     11  C   UNL d   1      27.541  29.677   8.588 -0.03 -0.03    +0.193 A 
DOCKED: ATOM     12  C   UNL d   1      26.995  28.475   9.296 -0.08 -0.02    +0.109 A 
DOCKED: ATOM     13  C   UNL d   1      27.573  25.312  12.799 +0.02 +0.19    +0.193 A 
DOCKED: ATOM     14  C   UNL d   1      27.871  29.651   6.146 -0.09 -0.01    +0.026 C 
DOCKED: ATOM     15  C   UNL d   1      27.472  28.200  10.667 -0.09 -0.00    +0.055 C 
DOCKED: ATOM     16  C   UNL d   1      27.087  27.529  13.764 -0.03 +0.01    +0.026 C 
DOCKED: ATOM     17  C   UNL d   1      26.913  24.908  11.520 -0.17 +0.07    +0.109 A 
DOCKED: ATOM     18  C   UNL d   1      25.011  28.280   6.471 -0.18 -0.03    +0.050 C 
DOCKED: ATOM     19  C   UNL d   1      24.081  27.212   6.546 -0.15 -0.04    +0.045 A 
DOCKED: ATOM     20  C   UNL d   1      25.716  23.179  10.287 -0.27 +0.01    +0.045 A 
DOCKED: ATOM     21  C   UNL d   1      26.517  23.508  11.305 -0.32 +0.04    +0.057 C 
DOCKED: ATOM     22  C   UNL d   1      24.486  21.898   8.850 -0.37 -0.00    -0.019 A 
DOCKED: ATOM     23  C   UNL d   1      24.356  23.314   8.454 -0.31 -0.00    +0.045 A 
DOCKED: ATOM     24  C   UNL d   1      25.291  21.824   9.936 -0.33 -0.00    -0.022 A 
DOCKED: ATOM     25  C   UNL d   1      23.421  25.102   7.025 -0.30 -0.03    +0.049 A 
DOCKED: ATOM     26  C   UNL d   1      22.790  27.072   6.061 -0.18 +0.01    -0.018 A 
DOCKED: ATOM     27  C   UNL d   1      22.371  25.744   6.384 -0.23 -0.00    +0.003 A 
DOCKED: ATOM     28  C   UNL d   1      23.613  23.752   7.426 -0.26 -0.01    +0.052 C 
DOCKED: ATOM     29  C   UNL d   1      25.711  20.619  10.706 -0.44 +0.02    +0.046 C 
DOCKED: ATOM     30  C   UNL d   1      21.991  28.107   5.344 -0.14 -0.03    +0.046 C 
DOCKED: ATOM     31  H   UNL d   1      25.193  25.007   9.430 -0.20 -0.04    +0.166 HD
DOCKED: ATOM     32  H   UNL d   1      25.341  25.858   7.568 -0.54 -0.16    +0.166 HD
DOCKED: ENDROOT
DOCKED: BRANCH   7  33
DOCKED: ATOM     33  C   UNL d   1      26.107  31.146   7.177 -0.01 -0.02    +0.141 C 
DOCKED: BRANCH  33  34
DOCKED: ATOM     34  C   UNL d   1      25.175  31.376   8.335 +0.00 -0.03    +0.306 C 
DOCKED: ATOM     35  O   UNL d   1      23.963  31.236   8.324 -0.00 +0.03    -0.251 OA
DOCKED: BRANCH  34  36
DOCKED: ATOM     36  O   UNL d   1      25.819  31.768   9.449 +0.00 +0.03    -0.481 OA
DOCKED: ATOM     37  H   UNL d   1      26.768  31.763   9.200 +0.01 -0.02    +0.295 HD
DOCKED: ENDBRANCH  34  36
DOCKED: ENDBRANCH  33  34
DOCKED: ENDBRANCH   7  33
DOCKED: BRANCH  27  38
DOCKED: ATOM     38  C   UNL d   1      21.100  25.176   6.050 -0.23 -0.01    +0.017 C 
DOCKED: ATOM     39  C   UNL d   1      20.476  25.314   4.870 -0.24 -0.04    +0.092 C 
DOCKED: BRANCH  39  40
DOCKED: ATOM     40  C   UNL d   1      19.182  24.665   4.648 -0.05 -0.03    +0.330 C 
DOCKED: ATOM     41  O   UNL d   1      18.745  24.212   3.607 -0.12 +0.00    -0.246 OA
DOCKED: BRANCH  40  42
DOCKED: ATOM     42  O   UNL d   1      18.489  24.612   5.796 -0.02 -0.00    -0.477 OA
DOCKED: ATOM     43  H   UNL d   1      17.987  25.453   5.806 +0.04 +0.00    +0.295 HD
DOCKED: ENDBRANCH  40  42
DOCKED: ENDBRANCH  39  40
DOCKED: ENDBRANCH  27  38
DOCKED: BRANCH   8  44
DOCKED: ATOM     44  C   UNL d   1      29.402  27.015  12.889 -0.12 +0.05    +0.141 C 
DOCKED: BRANCH  44  45
DOCKED: ATOM     45  C   UNL d   1      30.014  26.160  13.967 -0.06 +0.22    +0.306 C 
DOCKED: ATOM     46  O   UNL d   1      30.899  25.334  13.825 -0.56 -0.32    -0.251 OA
DOCKED: BRANCH  45  47
DOCKED: ATOM     47  O   UNL d   1      29.454  26.372  15.171 -0.02 -0.21    -0.481 OA
DOCKED: ATOM     48  H   UNL d   1      28.697  25.749  15.206 +0.09 +0.15    +0.295 HD
DOCKED: ENDBRANCH  45  47
DOCKED: ENDBRANCH  44  45
DOCKED: ENDBRANCH   8  44
DOCKED: BRANCH  22  49
DOCKED: ATOM     49  C   UNL d   1      23.829  20.758   8.128 -0.30 +0.01    +0.048 C 
DOCKED: BRANCH  49  50
DOCKED: ATOM     50  C   UNL d   1      22.731  20.109   8.970 -0.25 +0.03    +0.125 C 
DOCKED: BRANCH  50  51
DOCKED: ATOM     51  C   UNL d   1      23.055  18.670   9.258 -0.23 +0.08    +0.305 C 
DOCKED: ATOM     52  O   UNL d   1      23.067  18.114  10.342 -0.22 -0.07    -0.251 OA
DOCKED: BRANCH  51  53
DOCKED: ATOM     53  O   UNL d   1      23.368  17.990   8.138 -0.15 -0.11    -0.481 OA
DOCKED: ATOM     54  H   UNL d   1      22.804  17.189   8.181 -0.03 +0.04    +0.295 HD
DOCKED: ENDBRANCH  51  53
DOCKED: ENDBRANCH  50  51
DOCKED: ENDBRANCH  49  50
DOCKED: ENDBRANCH  22  49
DOCKED: TORSDOF 13
DOCKED: TER
DOCKED: ENDMDL
________________________________________________________________________________


	BEGINNING GENETIC ALGORITHM DOCKING 30 of 100
Run: 30 Seed: 223732542 1952332215 [ Run 30 of 100 GA/GALS ]
Beginning LAMARCKIAN GENETIC ALGORITHM (LGA), with a maximum of 25000000 energy evaluations.

Final-Value: -12.129


	FINAL GENETIC ALGORITHM DOCKED STATE
	_______________________________________________


Detailed state:  trans 10.590 8.478 37.646 quatxyzw -0.614308 0.315939 -0.244029 -0.680630 center 0.153 0.018 -0.028 ntor 13 -93.4606 74.2060 -88.2907 57.9476 -124.0515 157.2172 143.7297 -50.2203 39.7894 -67.5755 -116.4293 -20.8696 -18.1138
State:	 10.590   8.478  37.646  -0.839  0.431 -0.333 -94.214    -93.46   74.21  -88.29   57.95 -124.05  157.22  143.73  -50.22   39.79  -67.58 -116.43  -20.87  -18.11

DOCKED: MODEL       30
DOCKED: USER    Run = 30
DOCKED: USER    DPF = D:/Protein_go_brrr/autodock/final/1A3N/heme/dock.dpf
DOCKED: USER  
DOCKED: USER    Estimated Free Energy of Binding    =   -5.48 kcal/mol  [=(1)+(2)+(3)-(4)]
DOCKED: USER    Estimated Inhibition Constant, Ki   =   96.20 uM (micromolar)  [Temperature = 298.15 K]
DOCKED: USER    
DOCKED: USER    (1) Final Intermolecular Energy     =   -9.36 kcal/mol
DOCKED: USER        vdW + Hbond + desolv Energy     =   -8.78 kcal/mol
DOCKED: USER        Electrostatic Energy            =   -0.58 kcal/mol
DOCKED: USER    (2) Final Total Internal Energy     =   -2.77 kcal/mol
DOCKED: USER    (3) Torsional Free Energy           =   +3.88 kcal/mol
DOCKED: USER    (4) Unbound System's Energy  [=(2)] =   -2.77 kcal/mol
DOCKED: USER    
DOCKED: USER    
DOCKED: USER    NEWDPF move heme_opt.pdbqt
DOCKED: USER    NEWDPF about 0.153000 0.018000 -0.028000
DOCKED: USER    NEWDPF tran0 10.589987 8.477922 37.646065
DOCKED: USER    NEWDPF quaternion0 -0.614308 0.315939 -0.244029 -0.680630
DOCKED: USER    NEWDPF axisangle0 -0.838501 0.431242 -0.333087 -94.214184
DOCKED: USER    NEWDPF quat0 -0.838501 0.431242 -0.333087 -94.214184
DOCKED: USER    NEWDPF dihe0 -93.46 74.21 -88.29 57.95 -124.05 157.22 143.73 -50.22 39.79 -67.58 -116.43 -20.87 -18.11 
DOCKED: USER  keepresnum = 1 
DOCKED: USER  
DOCKED: REMARK  13 active torsions:
DOCKED: REMARK  status: ('A' for Active; 'I' for Inactive)
DOCKED: REMARK    1  A    between atoms: O_3  and  C_38 
DOCKED: REMARK    2  A    between atoms: O_4  and  C_40 
DOCKED: REMARK    3  A    between atoms: O_7  and  C_46 
DOCKED: REMARK    4  A    between atoms: O_9  and  C_48 
DOCKED: REMARK    5  A    between atoms: C_15  and  C_20 
DOCKED: REMARK    6  A    between atoms: C_16  and  C_23 
DOCKED: REMARK    7  A    between atoms: C_20  and  C_38 
DOCKED: REMARK    8  A    between atoms: C_23  and  C_40 
DOCKED: REMARK    9  A    between atoms: C_32  and  C_41 
DOCKED: REMARK   10  A    between atoms: C_37  and  C_45 
DOCKED: REMARK   11  A    between atoms: C_41  and  C_44 
DOCKED: REMARK   12  A    between atoms: C_44  and  C_46 
DOCKED: REMARK   13  A    between atoms: C_47  and  C_48 
DOCKED: USER                              x       y       z     vdW  Elec       q    Type
DOCKED: USER                           _______ _______ _______ _____ _____    ______ ____
DOCKED: ROOT
DOCKED: ATOM      1  O   UNL d   1       7.146  13.175  36.734 -0.05 -0.31    -0.289 OA
DOCKED: ATOM      2  O   UNL d   1       7.899   8.704  42.720 -0.03 -0.04    -0.289 OA
DOCKED: ATOM      3  N   UNL d   1       9.223  10.421  36.759 -0.37 -0.18    -0.247 NA
DOCKED: ATOM      4  N   UNL d   1       9.090   9.492  39.578 +0.06 -0.09    -0.247 NA
DOCKED: ATOM      5  N   UNL d   1      11.374   7.830  39.041 -0.07 -0.14    -0.354 N 
DOCKED: ATOM      6  N   UNL d   1      11.516   8.814  36.123 -0.11 -0.36    -0.354 N 
DOCKED: ATOM      7  C   UNL d   1       8.787  12.244  35.179 -0.13 +0.06    +0.084 A 
DOCKED: ATOM      8  C   UNL d   1       7.070  10.037  40.841 -0.08 +0.02    +0.084 A 
DOCKED: ATOM      9  C   UNL d   1       7.896  10.178  39.559 -0.10 +0.02    +0.058 A 
DOCKED: ATOM     10  C   UNL d   1       9.556  10.967  35.531 -0.20 +0.05    +0.058 A 
DOCKED: ATOM     11  C   UNL d   1       7.947  12.314  36.419 -0.07 +0.15    +0.193 A 
DOCKED: ATOM     12  C   UNL d   1       8.285  11.140  37.285 -0.12 +0.07    +0.109 A 
DOCKED: ATOM     13  C   UNL d   1       8.033   9.174  41.607 -0.06 +0.04    +0.193 A 
DOCKED: ATOM     14  C   UNL d   1       9.702  13.470  35.132 -0.18 +0.02    +0.026 C 
DOCKED: ATOM     15  C   UNL d   1       7.511  10.947  38.528 -0.15 +0.02    +0.055 C 
DOCKED: ATOM     16  C   UNL d   1       5.782   9.244  40.602 -0.22 +0.01    +0.026 C 
DOCKED: ATOM     17  C   UNL d   1       9.219   8.922  40.733 -0.08 +0.03    +0.109 A 
DOCKED: ATOM     18  C   UNL d   1      10.409  10.398  34.659 -0.21 +0.05    +0.050 C 
DOCKED: ATOM     19  C   UNL d   1      11.099   9.175  34.862 -0.25 +0.05    +0.045 A 
DOCKED: ATOM     20  C   UNL d   1      11.301   7.697  40.403 -0.13 +0.01    +0.045 A 
DOCKED: ATOM     21  C   UNL d   1      10.354   8.135  41.238 -0.12 +0.01    +0.057 C 
DOCKED: ATOM     22  C   UNL d   1      13.211   6.686  39.664 -0.09 -0.01    -0.019 A 
DOCKED: ATOM     23  C   UNL d   1      12.493   7.252  38.504 -0.17 +0.02    +0.045 A 
DOCKED: ATOM     24  C   UNL d   1      12.500   6.951  40.785 -0.08 -0.01    -0.022 A 
DOCKED: ATOM     25  C   UNL d   1      12.239   7.645  36.077 -0.22 +0.04    +0.049 A 
DOCKED: ATOM     26  C   UNL d   1      11.530   8.197  33.979 -0.36 -0.01    -0.018 A 
DOCKED: ATOM     27  C   UNL d   1      12.232   7.223  34.754 -0.35 +0.00    +0.003 A 
DOCKED: ATOM     28  C   UNL d   1      12.907   7.155  37.231 -0.22 +0.03    +0.052 C 
DOCKED: ATOM     29  C   UNL d   1      12.807   6.577  42.195 -0.04 +0.01    +0.046 C 
DOCKED: ATOM     30  C   UNL d   1      11.302   8.165  32.506 -0.49 +0.02    +0.046 C 
DOCKED: ATOM     31  H   UNL d   1      10.617   8.249  38.512 +0.04 +0.07    +0.166 HD
DOCKED: ATOM     32  H   UNL d   1      11.340   9.370  36.952 +0.04 +0.17    +0.166 HD
DOCKED: ENDROOT
DOCKED: BRANCH   7  33
DOCKED: ATOM     33  C   UNL d   1       7.900  12.155  33.933 -0.21 +0.09    +0.141 C 
DOCKED: BRANCH  33  34
DOCKED: ATOM     34  C   UNL d   1       6.520  11.640  34.240 -0.23 +0.21    +0.306 C 
DOCKED: ATOM     35  O   UNL d   1       6.232  10.501  34.569 -0.22 -0.13    -0.251 OA
DOCKED: BRANCH  34  36
DOCKED: ATOM     36  O   UNL d   1       5.574  12.588  34.118 -0.73 -0.58    -0.481 OA
DOCKED: ATOM     37  H   UNL d   1       5.354  12.596  33.162 -0.11 +0.19    +0.295 HD
DOCKED: ENDBRANCH  34  36
DOCKED: ENDBRANCH  33  34
DOCKED: ENDBRANCH   7  33
DOCKED: BRANCH  27  38
DOCKED: ATOM     38  C   UNL d   1      12.857   6.047  34.231 -0.40 +0.01    +0.017 C 
DOCKED: ATOM     39  C   UNL d   1      13.251   4.990  34.958 -0.38 +0.05    +0.092 C 
DOCKED: BRANCH  39  40
DOCKED: ATOM     40  C   UNL d   1      13.866   3.836  34.296 -0.25 +0.23    +0.330 C 
DOCKED: ATOM     41  O   UNL d   1      14.627   3.020  34.779 -0.41 -0.13    -0.246 OA
DOCKED: BRANCH  40  42
DOCKED: ATOM     42  O   UNL d   1      13.463   3.769  33.018 -0.62 -0.44    -0.477 OA
DOCKED: ATOM     43  H   UNL d   1      12.828   3.022  33.011 -0.35 +0.05    +0.295 HD
DOCKED: ENDBRANCH  40  42
DOCKED: ENDBRANCH  39  40
DOCKED: ENDBRANCH  27  38
DOCKED: BRANCH   8  44
DOCKED: ATOM     44  C   UNL d   1       6.787  11.342  41.592 -0.01 +0.03    +0.141 C 
DOCKED: BRANCH  44  45
DOCKED: ATOM     45  C   UNL d   1       7.389  11.377  42.972 +0.00 +0.05    +0.306 C 
DOCKED: ATOM     46  O   UNL d   1       8.427  11.927  43.298 -0.00 -0.04    -0.251 OA
DOCKED: BRANCH  45  47
DOCKED: ATOM     47  O   UNL d   1       6.660  10.688  43.868 +0.01 -0.07    -0.481 OA
DOCKED: ATOM     48  H   UNL d   1       7.033   9.781  43.847 +0.02 +0.04    +0.295 HD
DOCKED: ENDBRANCH  45  47
DOCKED: ENDBRANCH  44  45
DOCKED: ENDBRANCH   8  44
DOCKED: BRANCH  22  49
DOCKED: ATOM     49  C   UNL d   1      14.520   5.958  39.571 -0.04 +0.01    +0.048 C 
DOCKED: BRANCH  49  50
DOCKED: ATOM     50  C   UNL d   1      14.336   4.443  39.653 -0.05 +0.02    +0.125 C 
DOCKED: BRANCH  50  51
DOCKED: ATOM     51  C   UNL d   1      13.553   3.933  38.476 -0.09 +0.07    +0.305 C 
DOCKED: ATOM     52  O   UNL d   1      12.444   4.284  38.114 -0.23 -0.06    -0.251 OA
DOCKED: BRANCH  51  53
DOCKED: ATOM     53  O   UNL d   1      14.220   2.973  37.804 -0.02 -0.10    -0.481 OA
DOCKED: ATOM     54  H   UNL d   1      14.285   3.323  36.891 +0.13 +0.08    +0.295 HD
DOCKED: ENDBRANCH  51  53
DOCKED: ENDBRANCH  50  51
DOCKED: ENDBRANCH  49  50
DOCKED: ENDBRANCH  22  49
DOCKED: TORSDOF 13
DOCKED: TER
DOCKED: ENDMDL
________________________________________________________________________________


	BEGINNING GENETIC ALGORITHM DOCKING 31 of 100
Run: 31 Seed: 947750903 1461289456 [ Run 31 of 100 GA/GALS ]
Beginning LAMARCKIAN GENETIC ALGORITHM (LGA), with a maximum of 25000000 energy evaluations.

Final-Value: -14.966


	FINAL GENETIC ALGORITHM DOCKED STATE
	_______________________________________________


Detailed state:  trans 24.126 -6.011 32.145 quatxyzw -0.689084 -0.149815 0.699879 0.113527 center 0.153 0.018 -0.028 ntor 13 -81.1776 -127.4199 162.3769 70.8561 43.5775 41.6757 164.4522 -59.9542 119.1732 6.0180 -91.7245 -78.8221 -10.4671
State:	 24.126  -6.011  32.145  -0.694 -0.151  0.704 166.963    -81.18 -127.42  162.38   70.86   43.58   41.68  164.45  -59.95  119.17    6.02  -91.72  -78.82  -10.47

DOCKED: MODEL       31
DOCKED: USER    Run = 31
DOCKED: USER    DPF = D:/Protein_go_brrr/autodock/final/1A3N/heme/dock.dpf
DOCKED: USER  
DOCKED: USER    Estimated Free Energy of Binding    =   -6.80 kcal/mol  [=(1)+(2)+(3)-(4)]
DOCKED: USER    Estimated Inhibition Constant, Ki   =   10.35 uM (micromolar)  [Temperature = 298.15 K]
DOCKED: USER    
DOCKED: USER    (1) Final Intermolecular Energy     =  -10.68 kcal/mol
DOCKED: USER        vdW + Hbond + desolv Energy     =  -10.55 kcal/mol
DOCKED: USER        Electrostatic Energy            =   -0.13 kcal/mol
DOCKED: USER    (2) Final Total Internal Energy     =   -4.29 kcal/mol
DOCKED: USER    (3) Torsional Free Energy           =   +3.88 kcal/mol
DOCKED: USER    (4) Unbound System's Energy  [=(2)] =   -4.29 kcal/mol
DOCKED: USER    
DOCKED: USER    
DOCKED: USER    NEWDPF move heme_opt.pdbqt
DOCKED: USER    NEWDPF about 0.153000 0.018000 -0.028000
DOCKED: USER    NEWDPF tran0 24.126146 -6.010808 32.145141
DOCKED: USER    NEWDPF quaternion0 -0.689084 -0.149815 0.699879 0.113527
DOCKED: USER    NEWDPF axisangle0 -0.693568 -0.150790 0.704433 166.962656
DOCKED: USER    NEWDPF quat0 -0.693568 -0.150790 0.704433 166.962656
DOCKED: USER    NEWDPF dihe0 -81.18 -127.42 162.38 70.86 43.58 41.68 164.45 -59.95 119.17 6.02 -91.72 -78.82 -10.47 
DOCKED: USER  keepresnum = 1 
DOCKED: USER  
DOCKED: REMARK  13 active torsions:
DOCKED: REMARK  status: ('A' for Active; 'I' for Inactive)
DOCKED: REMARK    1  A    between atoms: O_3  and  C_38 
DOCKED: REMARK    2  A    between atoms: O_4  and  C_40 
DOCKED: REMARK    3  A    between atoms: O_7  and  C_46 
DOCKED: REMARK    4  A    between atoms: O_9  and  C_48 
DOCKED: REMARK    5  A    between atoms: C_15  and  C_20 
DOCKED: REMARK    6  A    between atoms: C_16  and  C_23 
DOCKED: REMARK    7  A    between atoms: C_20  and  C_38 
DOCKED: REMARK    8  A    between atoms: C_23  and  C_40 
DOCKED: REMARK    9  A    between atoms: C_32  and  C_41 
DOCKED: REMARK   10  A    between atoms: C_37  and  C_45 
DOCKED: REMARK   11  A    between atoms: C_41  and  C_44 
DOCKED: REMARK   12  A    between atoms: C_44  and  C_46 
DOCKED: REMARK   13  A    between atoms: C_47  and  C_48 
DOCKED: USER                              x       y       z     vdW  Elec       q    Type
DOCKED: USER                           _______ _______ _______ _____ _____    ______ ____
DOCKED: ROOT
DOCKED: ATOM      1  O   UNL d   1      24.278  -8.085  37.662 -0.12 -0.18    -0.289 OA
DOCKED: ATOM      2  O   UNL d   1      23.890  -1.055  35.048 -0.25 +0.00    -0.289 OA
DOCKED: ATOM      3  N   UNL d   1      24.352  -7.336  34.296 -0.18 -0.08    -0.247 NA
DOCKED: ATOM      4  N   UNL d   1      23.847  -4.409  34.235 -0.10 -0.05    -0.247 NA
DOCKED: ATOM      5  N   UNL d   1      23.375  -4.642  31.409 -0.16 -0.06    -0.354 N 
DOCKED: ATOM      6  N   UNL d   1      23.882  -7.682  31.484 -0.03 -0.00    -0.354 N 
DOCKED: ATOM      7  C   UNL d   1      24.257  -9.406  35.605 -0.19 +0.03    +0.084 A 
DOCKED: ATOM      8  C   UNL d   1      24.476  -3.125  36.217 -0.26 +0.01    +0.084 A 
DOCKED: ATOM      9  C   UNL d   1      24.318  -4.484  35.527 -0.08 +0.01    +0.058 A 
DOCKED: ATOM     10  C   UNL d   1      24.295  -8.719  34.237 -0.28 +0.02    +0.058 A 
DOCKED: ATOM     11  C   UNL d   1      24.322  -8.168  36.448 -0.14 +0.11    +0.193 A 
DOCKED: ATOM     12  C   UNL d   1      24.402  -6.981  35.538 -0.20 +0.05    +0.109 A 
DOCKED: ATOM     13  C   UNL d   1      23.972  -2.268  35.090 -0.27 +0.02    +0.193 A 
DOCKED: ATOM     14  C   UNL d   1      22.921 -10.108  35.859 -0.08 +0.01    +0.026 C 
DOCKED: ATOM     15  C   UNL d   1      24.568  -5.647  36.148 -0.19 +0.02    +0.055 C 
DOCKED: ATOM     16  C   UNL d   1      25.947  -2.786  36.473 -0.35 +0.01    +0.026 C 
DOCKED: ATOM     17  C   UNL d   1      23.616  -3.167  33.951 -0.31 +0.01    +0.109 A 
DOCKED: ATOM     18  C   UNL d   1      24.358  -9.429  33.095 -0.36 +0.01    +0.050 C 
DOCKED: ATOM     19  C   UNL d   1      24.480  -8.883  31.792 -0.36 +0.00    +0.045 A 
DOCKED: ATOM     20  C   UNL d   1      22.957  -3.353  31.611 -0.44 +0.01    +0.045 A 
DOCKED: ATOM     21  C   UNL d   1      23.050  -2.606  32.716 -0.50 +0.01    +0.057 C 
DOCKED: ATOM     22  C   UNL d   1      22.462  -3.960  29.466 -0.44 -0.00    -0.019 A 
DOCKED: ATOM     23  C   UNL d   1      23.119  -5.097  30.142 -0.34 +0.00    +0.045 A 
DOCKED: ATOM     24  C   UNL d   1      22.370  -2.931  30.340 -0.46 -0.00    -0.022 A 
DOCKED: ATOM     25  C   UNL d   1      24.050  -7.387  30.151 -0.07 -0.00    +0.049 A 
DOCKED: ATOM     26  C   UNL d   1      25.084  -9.361  30.640 -0.42 -0.00    -0.018 A 
DOCKED: ATOM     27  C   UNL d   1      24.826  -8.403  29.612 -0.24 +0.00    +0.003 A 
DOCKED: ATOM     28  C   UNL d   1      23.388  -6.276  29.561 -0.12 -0.00    +0.052 C 
DOCKED: ATOM     29  C   UNL d   1      21.799  -1.571  30.124 -0.25 +0.00    +0.046 C 
DOCKED: ATOM     30  C   UNL d   1      25.857 -10.629  30.501 -0.39 +0.00    +0.046 C 
DOCKED: ATOM     31  H   UNL d   1      23.890  -5.147  32.122 +0.08 +0.04    +0.166 HD
DOCKED: ATOM     32  H   UNL d   1      23.358  -7.129  32.152 -0.13 -0.01    +0.166 HD
DOCKED: ENDROOT
DOCKED: BRANCH   7  33
DOCKED: ATOM     33  C   UNL d   1      25.444 -10.327  35.911 -0.06 +0.08    +0.141 C 
DOCKED: BRANCH  33  34
DOCKED: ATOM     34  C   UNL d   1      25.515 -10.717  37.362 -0.09 +0.19    +0.306 C 
DOCKED: ATOM     35  O   UNL d   1      25.101 -11.755  37.851 -0.04 -0.09    -0.251 OA
DOCKED: BRANCH  34  36
DOCKED: ATOM     36  O   UNL d   1      26.108  -9.780  38.123 -0.28 -0.62    -0.481 OA
DOCKED: ATOM     37  H   UNL d   1      25.365  -9.260  38.497 +0.04 +0.29    +0.295 HD
DOCKED: ENDBRANCH  34  36
DOCKED: ENDBRANCH  33  34
DOCKED: ENDBRANCH   7  33
DOCKED: BRANCH  27  38
DOCKED: ATOM     38  C   UNL d   1      25.260  -8.515  28.252 -0.16 +0.00    +0.017 C 
DOCKED: ATOM     39  C   UNL d   1      24.518  -8.215  27.175 -0.43 +0.00    +0.092 C 
DOCKED: BRANCH  39  40
DOCKED: ATOM     40  C   UNL d   1      25.088  -8.358  25.833 -0.26 +0.01    +0.330 C 
DOCKED: ATOM     41  O   UNL d   1      25.815  -9.243  25.424 -0.38 -0.00    -0.246 OA
DOCKED: BRANCH  40  42
DOCKED: ATOM     42  O   UNL d   1      24.686  -7.344  25.050 -0.12 -0.02    -0.477 OA
DOCKED: ATOM     43  H   UNL d   1      24.913  -6.544  25.567 +0.22 +0.01    +0.295 HD
DOCKED: ENDBRANCH  40  42
DOCKED: ENDBRANCH  39  40
DOCKED: ENDBRANCH  27  38
DOCKED: BRANCH   8  44
DOCKED: ATOM     44  C   UNL d   1      23.632  -2.923  37.480 -0.14 +0.02    +0.141 C 
DOCKED: BRANCH  44  45
DOCKED: ATOM     45  C   UNL d   1      22.217  -3.414  37.333 -0.08 +0.04    +0.306 C 
DOCKED: ATOM     46  O   UNL d   1      21.672  -4.273  38.005 +0.00 -0.04    -0.251 OA
DOCKED: BRANCH  45  47
DOCKED: ATOM     47  O   UNL d   1      21.565  -2.812  36.322 -0.07 -0.05    -0.481 OA
DOCKED: ATOM     48  H   UNL d   1      22.086  -2.001  36.139 +0.15 +0.02    +0.295 HD
DOCKED: ENDBRANCH  45  47
DOCKED: ENDBRANCH  44  45
DOCKED: ENDBRANCH   8  44
DOCKED: BRANCH  22  49
DOCKED: ATOM     49  C   UNL d   1      21.977  -3.991  28.046 -0.14 +0.00    +0.048 C 
DOCKED: BRANCH  49  50
DOCKED: ATOM     50  C   UNL d   1      23.023  -3.444  27.075 -0.50 +0.01    +0.125 C 
DOCKED: BRANCH  50  51
DOCKED: ATOM     51  C   UNL d   1      23.936  -4.538  26.598 -0.28 +0.01    +0.305 C 
DOCKED: ATOM     52  O   UNL d   1      24.736  -5.179  27.256 -0.26 -0.01    -0.251 OA
DOCKED: BRANCH  51  53
DOCKED: ATOM     53  O   UNL d   1      23.798  -4.769  25.277 -0.21 -0.02    -0.481 OA
DOCKED: ATOM     54  H   UNL d   1      23.359  -5.644  25.232 +0.22 +0.02    +0.295 HD
DOCKED: ENDBRANCH  51  53
DOCKED: ENDBRANCH  50  51
DOCKED: ENDBRANCH  49  50
DOCKED: ENDBRANCH  22  49
DOCKED: TORSDOF 13
DOCKED: TER
DOCKED: ENDMDL
________________________________________________________________________________


	BEGINNING GENETIC ALGORITHM DOCKING 32 of 100
Run: 32 Seed: 889739484 1698857669 [ Run 32 of 100 GA/GALS ]
Beginning LAMARCKIAN GENETIC ALGORITHM (LGA), with a maximum of 25000000 energy evaluations.

Final-Value: -11.144


	FINAL GENETIC ALGORITHM DOCKED STATE
	_______________________________________________


Detailed state:  trans 15.740 -2.079 39.013 quatxyzw 0.258999 -0.202932 0.200080 0.922879 center 0.153 0.018 -0.028 ntor 13 -117.5946 160.7283 107.7486 90.4925 43.1921 22.1082 -45.0379 90.5810 142.0233 -127.5318 127.6565 -167.4354 -176.0170
State:	 15.740  -2.079  39.013   0.673 -0.527  0.520 45.299   -117.59  160.73  107.75   90.49   43.19   22.11  -45.04   90.58  142.02 -127.53  127.66 -167.44 -176.02

DOCKED: MODEL       32
DOCKED: USER    Run = 32
DOCKED: USER    DPF = D:/Protein_go_brrr/autodock/final/1A3N/heme/dock.dpf
DOCKED: USER  
DOCKED: USER    Estimated Free Energy of Binding    =   -4.82 kcal/mol  [=(1)+(2)+(3)-(4)]
DOCKED: USER    Estimated Inhibition Constant, Ki   =  292.13 uM (micromolar)  [Temperature = 298.15 K]
DOCKED: USER    
DOCKED: USER    (1) Final Intermolecular Energy     =   -8.70 kcal/mol
DOCKED: USER        vdW + Hbond + desolv Energy     =   -8.60 kcal/mol
DOCKED: USER        Electrostatic Energy            =   -0.10 kcal/mol
DOCKED: USER    (2) Final Total Internal Energy     =   -2.44 kcal/mol
DOCKED: USER    (3) Torsional Free Energy           =   +3.88 kcal/mol
DOCKED: USER    (4) Unbound System's Energy  [=(2)] =   -2.44 kcal/mol
DOCKED: USER    
DOCKED: USER    
DOCKED: USER    NEWDPF move heme_opt.pdbqt
DOCKED: USER    NEWDPF about 0.153000 0.018000 -0.028000
DOCKED: USER    NEWDPF tran0 15.740015 -2.078826 39.013433
DOCKED: USER    NEWDPF quaternion0 0.258999 -0.202932 0.200080 0.922879
DOCKED: USER    NEWDPF axisangle0 0.672569 -0.526973 0.519568 45.298609
DOCKED: USER    NEWDPF quat0 0.672569 -0.526973 0.519568 45.298609
DOCKED: USER    NEWDPF dihe0 -117.59 160.73 107.75 90.49 43.19 22.11 -45.04 90.58 142.02 -127.53 127.66 -167.44 -176.02 
DOCKED: USER  keepresnum = 1 
DOCKED: USER  
DOCKED: REMARK  13 active torsions:
DOCKED: REMARK  status: ('A' for Active; 'I' for Inactive)
DOCKED: REMARK    1  A    between atoms: O_3  and  C_38 
DOCKED: REMARK    2  A    between atoms: O_4  and  C_40 
DOCKED: REMARK    3  A    between atoms: O_7  and  C_46 
DOCKED: REMARK    4  A    between atoms: O_9  and  C_48 
DOCKED: REMARK    5  A    between atoms: C_15  and  C_20 
DOCKED: REMARK    6  A    between atoms: C_16  and  C_23 
DOCKED: REMARK    7  A    between atoms: C_20  and  C_38 
DOCKED: REMARK    8  A    between atoms: C_23  and  C_40 
DOCKED: REMARK    9  A    between atoms: C_32  and  C_41 
DOCKED: REMARK   10  A    between atoms: C_37  and  C_45 
DOCKED: REMARK   11  A    between atoms: C_41  and  C_44 
DOCKED: REMARK   12  A    between atoms: C_44  and  C_46 
DOCKED: REMARK   13  A    between atoms: C_47  and  C_48 
DOCKED: USER                              x       y       z     vdW  Elec       q    Type
DOCKED: USER                           _______ _______ _______ _____ _____    ______ ____
DOCKED: ROOT
DOCKED: ATOM      1  O   UNL d   1      11.796   2.167  40.097 -0.21 -0.04    -0.289 OA
DOCKED: ATOM      2  O   UNL d   1      11.479  -5.253  41.206 -0.13 -0.21    -0.289 OA
DOCKED: ATOM      3  N   UNL d   1      14.338   0.029  39.168 -0.14 -0.02    -0.247 NA
DOCKED: ATOM      4  N   UNL d   1      13.461  -2.590  40.261 -0.58 -0.04    -0.247 NA
DOCKED: ATOM      5  N   UNL d   1      16.121  -3.575  39.786 +0.18 +0.04    -0.354 N 
DOCKED: ATOM      6  N   UNL d   1      17.027  -0.848  38.671 -0.09 +0.00    -0.354 N 
DOCKED: ATOM      7  C   UNL d   1      14.051   2.463  39.199 -0.12 +0.01    +0.084 A 
DOCKED: ATOM      8  C   UNL d   1      11.060  -2.928  40.564 -0.14 +0.01    +0.084 A 
DOCKED: ATOM      9  C   UNL d   1      12.221  -1.996  40.202 -0.15 +0.01    +0.058 A 
DOCKED: ATOM     10  C   UNL d   1      14.935   1.250  38.899 -0.14 +0.01    +0.058 A 
DOCKED: ATOM     11  C   UNL d   1      12.841   1.712  39.668 -0.15 +0.03    +0.193 A 
DOCKED: ATOM     12  C   UNL d   1      13.131   0.246  39.578 -0.19 +0.01    +0.109 A 
DOCKED: ATOM     13  C   UNL d   1      11.875  -4.152  40.877 -0.14 +0.06    +0.193 A 
DOCKED: ATOM     14  C   UNL d   1      14.596   3.298  40.360 -0.06 +0.00    +0.026 C 
DOCKED: ATOM     15  C   UNL d   1      12.044  -0.699  39.903 -0.25 +0.01    +0.055 C 
DOCKED: ATOM     16  C   UNL d   1      10.171  -3.225  39.353 -0.24 +0.00    +0.026 C 
DOCKED: ATOM     17  C   UNL d   1      13.314  -3.813  40.662 -0.23 +0.03    +0.109 A 
DOCKED: ATOM     18  C   UNL d   1      16.151   1.387  38.336 -0.13 +0.00    +0.050 C 
DOCKED: ATOM     19  C   UNL d   1      17.002   0.322  37.946 -0.18 +0.00    +0.045 A 
DOCKED: ATOM     20  C   UNL d   1      15.612  -4.615  40.519 -0.20 +0.01    +0.045 A 
DOCKED: ATOM     21  C   UNL d   1      14.356  -4.813  40.934 -0.24 +0.02    +0.057 C 
DOCKED: ATOM     22  C   UNL d   1      17.845  -4.966  40.191 -0.24 -0.00    -0.019 A 
DOCKED: ATOM     23  C   UNL d   1      17.462  -3.698  39.538 -0.18 -0.00    +0.045 A 
DOCKED: ATOM     24  C   UNL d   1      16.745  -5.505  40.768 -0.23 -0.01    -0.022 A 
DOCKED: ATOM     25  C   UNL d   1      17.983  -1.703  38.174 -0.28 -0.00    +0.049 A 
DOCKED: ATOM     26  C   UNL d   1      17.938   0.209  36.930 -0.27 -0.00    -0.018 A 
DOCKED: ATOM     27  C   UNL d   1      18.541  -1.079  37.067 -0.32 -0.00    +0.003 A 
DOCKED: ATOM     28  C   UNL d   1      18.304  -2.911  38.852 -0.27 +0.00    +0.052 C 
DOCKED: ATOM     29  C   UNL d   1      16.622  -6.780  41.531 -0.19 +0.02    +0.046 C 
DOCKED: ATOM     30  C   UNL d   1      18.254   1.233  35.893 -0.35 +0.00    +0.046 C 
DOCKED: ATOM     31  H   UNL d   1      15.518  -2.848  39.415 -0.34 -0.04    +0.166 HD
DOCKED: ATOM     32  H   UNL d   1      16.443  -1.018  39.481 +0.04 +0.00    +0.166 HD
DOCKED: ENDROOT
DOCKED: BRANCH   7  33
DOCKED: ATOM     33  C   UNL d   1      13.705   3.339  37.990 +0.00 +0.03    +0.141 C 
DOCKED: BRANCH  33  34
DOCKED: ATOM     34  C   UNL d   1      13.036   4.629  38.382 -0.14 +0.07    +0.306 C 
DOCKED: ATOM     35  O   UNL d   1      13.581   5.712  38.512 -0.07 -0.07    -0.251 OA
DOCKED: BRANCH  34  36
DOCKED: ATOM     36  O   UNL d   1      11.715   4.487  38.588 -0.20 -0.12    -0.481 OA
DOCKED: ATOM     37  H   UNL d   1      11.647   3.829  39.313 +0.10 +0.07    +0.295 HD
DOCKED: ENDBRANCH  34  36
DOCKED: ENDBRANCH  33  34
DOCKED: ENDBRANCH   7  33
DOCKED: BRANCH  27  38
DOCKED: ATOM     38  C   UNL d   1      19.576  -1.599  36.226 -0.41 +0.00    +0.017 C 
DOCKED: ATOM     39  C   UNL d   1      20.705  -0.953  35.898 -0.39 +0.00    +0.092 C 
DOCKED: BRANCH  39  40
DOCKED: ATOM     40  C   UNL d   1      21.697  -1.606  35.040 -0.25 +0.02    +0.330 C 
DOCKED: ATOM     41  O   UNL d   1      21.526  -2.547  34.288 -0.33 -0.02    -0.246 OA
DOCKED: BRANCH  40  42
DOCKED: ATOM     42  O   UNL d   1      22.891  -1.008  35.176 -0.15 +0.01    -0.477 OA
DOCKED: ATOM     43  H   UNL d   1      22.673  -0.133  35.559 -0.34 -0.07    +0.295 HD
DOCKED: ENDBRANCH  40  42
DOCKED: ENDBRANCH  39  40
DOCKED: ENDBRANCH  27  38
DOCKED: BRANCH   8  44
DOCKED: ATOM     44  C   UNL d   1      10.224  -2.502  41.775 -0.05 +0.01    +0.141 C 
DOCKED: BRANCH  44  45
DOCKED: ATOM     45  C   UNL d   1       9.141  -3.487  42.126 +0.00 +0.04    +0.306 C 
DOCKED: ATOM     46  O   UNL d   1       8.003  -3.502  41.692 -0.01 -0.01    -0.251 OA
DOCKED: BRANCH  45  47
DOCKED: ATOM     47  O   UNL d   1       9.545  -4.393  43.035 +0.01 -0.12    -0.481 OA
DOCKED: ATOM     48  H   UNL d   1      10.148  -4.988  42.541 +0.04 +0.13    +0.295 HD
DOCKED: ENDBRANCH  45  47
DOCKED: ENDBRANCH  44  45
DOCKED: ENDBRANCH   8  44
DOCKED: BRANCH  22  49
DOCKED: ATOM     49  C   UNL d   1      19.239  -5.520  40.201 -0.18 +0.01    +0.048 C 
DOCKED: BRANCH  49  50
DOCKED: ATOM     50  C   UNL d   1      19.951  -5.245  41.525 -0.06 +0.02    +0.125 C 
DOCKED: BRANCH  50  51
DOCKED: ATOM     51  C   UNL d   1      19.870  -3.789  41.885 -0.02 +0.03    +0.305 C 
DOCKED: ATOM     52  O   UNL d   1      18.960  -3.215  42.458 -0.01 -0.03    -0.251 OA
DOCKED: BRANCH  51  53
DOCKED: ATOM     53  O   UNL d   1      20.962  -3.108  41.484 +0.00 -0.06    -0.481 OA
DOCKED: ATOM     54  H   UNL d   1      21.575  -3.171  42.246 +0.01 +0.04    +0.295 HD
DOCKED: ENDBRANCH  51  53
DOCKED: ENDBRANCH  50  51
DOCKED: ENDBRANCH  49  50
DOCKED: ENDBRANCH  22  49
DOCKED: TORSDOF 13
DOCKED: TER
DOCKED: ENDMDL
________________________________________________________________________________


	BEGINNING GENETIC ALGORITHM DOCKING 33 of 100
Run: 33 Seed: 275604917 1581631342 [ Run 33 of 100 GA/GALS ]
Beginning LAMARCKIAN GENETIC ALGORITHM (LGA), with a maximum of 25000000 energy evaluations.

Final-Value: -13.168


	FINAL GENETIC ALGORITHM DOCKED STATE
	_______________________________________________


Detailed state:  trans 8.808 13.624 31.331 quatxyzw 0.633467 0.086300 -0.747768 -0.179207 center 0.153 0.018 -0.028 ntor 13 85.0255 -155.8448 180.0000 149.8556 169.5463 62.8747 156.7033 47.9484 110.1588 9.7350 -97.9207 -82.4239 -35.4782
State:	  8.808  13.624  31.331   0.644  0.088 -0.760 -159.353     85.03 -155.84  180.00  149.86  169.55   62.87  156.70   47.95  110.16    9.73  -97.92  -82.42  -35.48

DOCKED: MODEL       33
DOCKED: USER    Run = 33
DOCKED: USER    DPF = D:/Protein_go_brrr/autodock/final/1A3N/heme/dock.dpf
DOCKED: USER  
DOCKED: USER    Estimated Free Energy of Binding    =   -6.46 kcal/mol  [=(1)+(2)+(3)-(4)]
DOCKED: USER    Estimated Inhibition Constant, Ki   =   18.43 uM (micromolar)  [Temperature = 298.15 K]
DOCKED: USER    
DOCKED: USER    (1) Final Intermolecular Energy     =  -10.34 kcal/mol
DOCKED: USER        vdW + Hbond + desolv Energy     =   -9.99 kcal/mol
DOCKED: USER        Electrostatic Energy            =   -0.35 kcal/mol
DOCKED: USER    (2) Final Total Internal Energy     =   -2.83 kcal/mol
DOCKED: USER    (3) Torsional Free Energy           =   +3.88 kcal/mol
DOCKED: USER    (4) Unbound System's Energy  [=(2)] =   -2.83 kcal/mol
DOCKED: USER    
DOCKED: USER    
DOCKED: USER    NEWDPF move heme_opt.pdbqt
DOCKED: USER    NEWDPF about 0.153000 0.018000 -0.028000
DOCKED: USER    NEWDPF tran0 8.808141 13.623924 31.331175
DOCKED: USER    NEWDPF quaternion0 0.633467 0.086300 -0.747768 -0.179207
DOCKED: USER    NEWDPF axisangle0 0.643890 0.087720 -0.760073 -159.352852
DOCKED: USER    NEWDPF quat0 0.643890 0.087720 -0.760073 -159.352852
DOCKED: USER    NEWDPF dihe0 85.03 -155.84 180.00 149.86 169.55 62.87 156.70 47.95 110.16 9.73 -97.92 -82.42 -35.48 
DOCKED: USER  keepresnum = 1 
DOCKED: USER  
DOCKED: REMARK  13 active torsions:
DOCKED: REMARK  status: ('A' for Active; 'I' for Inactive)
DOCKED: REMARK    1  A    between atoms: O_3  and  C_38 
DOCKED: REMARK    2  A    between atoms: O_4  and  C_40 
DOCKED: REMARK    3  A    between atoms: O_7  and  C_46 
DOCKED: REMARK    4  A    between atoms: O_9  and  C_48 
DOCKED: REMARK    5  A    between atoms: C_15  and  C_20 
DOCKED: REMARK    6  A    between atoms: C_16  and  C_23 
DOCKED: REMARK    7  A    between atoms: C_20  and  C_38 
DOCKED: REMARK    8  A    between atoms: C_23  and  C_40 
DOCKED: REMARK    9  A    between atoms: C_32  and  C_41 
DOCKED: REMARK   10  A    between atoms: C_37  and  C_45 
DOCKED: REMARK   11  A    between atoms: C_41  and  C_44 
DOCKED: REMARK   12  A    between atoms: C_44  and  C_46 
DOCKED: REMARK   13  A    between atoms: C_47  and  C_48 
DOCKED: USER                              x       y       z     vdW  Elec       q    Type
DOCKED: USER                           _______ _______ _______ _____ _____    ______ ____
DOCKED: ROOT
DOCKED: ATOM      1  O   UNL d   1       9.599  12.728  37.104 -0.03 -0.21    -0.289 OA
DOCKED: ATOM      2  O   UNL d   1       8.781  19.070  33.167 -0.06 -0.08    -0.289 OA
DOCKED: ATOM      3  N   UNL d   1       9.293  12.768  33.669 -0.12 -0.17    -0.247 NA
DOCKED: ATOM      4  N   UNL d   1       8.722  15.621  33.067 -0.09 -0.14    -0.247 NA
DOCKED: ATOM      5  N   UNL d   1       7.953  14.813  30.418 -0.14 -0.11    -0.354 N 
DOCKED: ATOM      6  N   UNL d   1       8.529  11.853  31.056 -0.12 -0.12    -0.354 N 
DOCKED: ATOM      7  C   UNL d   1       9.385  11.012  35.377 -0.19 +0.07    +0.084 A 
DOCKED: ATOM      8  C   UNL d   1       9.533  17.285  34.663 -0.10 +0.04    +0.084 A 
DOCKED: ATOM      9  C   UNL d   1       9.331  15.813  34.287 -0.13 +0.03    +0.058 A 
DOCKED: ATOM     10  C   UNL d   1       9.260  11.403  33.901 -0.21 +0.04    +0.058 A 
DOCKED: ATOM     11  C   UNL d   1       9.513  12.397  35.936 -0.08 +0.16    +0.193 A 
DOCKED: ATOM     12  C   UNL d   1       9.469  13.371  34.799 -0.13 +0.08    +0.109 A 
DOCKED: ATOM     13  C   UNL d   1       8.892  17.893  33.448 -0.09 +0.08    +0.193 A 
DOCKED: ATOM     14  C   UNL d   1       8.099  10.379  35.914 -0.07 +0.02    +0.026 C 
DOCKED: ATOM     15  C   UNL d   1       9.672  14.803  35.102 -0.14 +0.04    +0.055 C 
DOCKED: ATOM     16  C   UNL d   1      11.016  17.667  34.681 -0.14 +0.01    +0.026 C 
DOCKED: ATOM     17  C   UNL d   1       8.435  16.779  32.563 -0.15 +0.05    +0.109 A 
DOCKED: ATOM     18  C   UNL d   1       9.215  10.474  32.929 -0.34 +0.03    +0.050 C 
DOCKED: ATOM     19  C   UNL d   1       9.184  10.741  31.536 -0.30 +0.02    +0.045 A 
DOCKED: ATOM     20  C   UNL d   1       7.531  16.117  30.397 -0.22 +0.01    +0.045 A 
DOCKED: ATOM     21  C   UNL d   1       7.727  17.075  31.309 -0.22 +0.02    +0.057 C 
DOCKED: ATOM     22  C   UNL d   1       6.821  15.082  28.489 -0.43 -0.00    -0.019 A 
DOCKED: ATOM     23  C   UNL d   1       7.571  14.108  29.307 -0.32 +0.01    +0.045 A 
DOCKED: ATOM     24  C   UNL d   1       6.802  16.270  29.139 -0.34 -0.00    -0.022 A 
DOCKED: ATOM     25  C   UNL d   1       8.546  11.868  29.681 -0.24 +0.01    +0.049 A 
DOCKED: ATOM     26  C   UNL d   1       9.670  10.034  30.447 -0.36 -0.01    -0.018 A 
DOCKED: ATOM     27  C   UNL d   1       9.282  10.761  29.279 -0.38 +0.00    +0.003 A 
DOCKED: ATOM     28  C   UNL d   1       7.801  12.834  28.953 -0.11 +0.01    +0.052 C 
DOCKED: ATOM     29  C   UNL d   1       6.181  17.556  28.713 -0.37 +0.00    +0.046 C 
DOCKED: ATOM     30  C   UNL d   1      10.450   8.764  30.485 -0.52 +0.02    +0.046 C 
DOCKED: ATOM     31  H   UNL d   1       8.553  14.465  31.158 +0.08 +0.06    +0.166 HD
DOCKED: ATOM     32  H   UNL d   1       8.070  12.532  31.651 +0.09 +0.07    +0.166 HD
DOCKED: ENDROOT
DOCKED: BRANCH   7  33
DOCKED: ATOM     33  C   UNL d   1      10.617  10.172  35.731 -0.21 +0.16    +0.141 C 
DOCKED: BRANCH  33  34
DOCKED: ATOM     34  C   UNL d   1      10.980  10.264  37.189 -0.12 +0.34    +0.306 C 
DOCKED: ATOM     35  O   UNL d   1      12.103  10.400  37.644 -0.30 -0.41    -0.251 OA
DOCKED: BRANCH  34  36
DOCKED: ATOM     36  O   UNL d   1       9.908  10.182  37.996 -0.06 -0.29    -0.481 OA
DOCKED: ATOM     37  H   UNL d   1       9.687  11.114  38.209 +0.06 +0.18    +0.295 HD
DOCKED: ENDBRANCH  34  36
DOCKED: ENDBRANCH  33  34
DOCKED: ENDBRANCH   7  33
DOCKED: BRANCH  27  38
DOCKED: ATOM     38  C   UNL d   1       9.568  10.371  27.931 -0.36 +0.00    +0.017 C 
DOCKED: ATOM     39  C   UNL d   1       8.688  10.380  26.919 -0.38 +0.01    +0.092 C 
DOCKED: BRANCH  39  40
DOCKED: ATOM     40  C   UNL d   1       9.114   9.972  25.577 -0.27 +0.03    +0.330 C 
DOCKED: ATOM     41  O   UNL d   1       9.554   8.892  25.233 -0.34 -0.02    -0.246 OA
DOCKED: BRANCH  40  42
DOCKED: ATOM     42  O   UNL d   1       8.946  10.984  24.712 -0.15 -0.02    -0.477 OA
DOCKED: ATOM     43  H   UNL d   1       8.968  11.783  25.278 +0.15 -0.00    +0.295 HD
DOCKED: ENDBRANCH  40  42
DOCKED: ENDBRANCH  39  40
DOCKED: ENDBRANCH  27  38
DOCKED: BRANCH   8  44
DOCKED: ATOM     44  C   UNL d   1       8.827  17.743  35.943 -0.05 +0.07    +0.141 C 
DOCKED: BRANCH  44  45
DOCKED: ATOM     45  C   UNL d   1       7.447  17.162  36.100 -0.03 +0.32    +0.306 C 
DOCKED: ATOM     46  O   UNL d   1       7.087  16.361  36.945 -0.26 -0.35    -0.251 OA
DOCKED: BRANCH  45  47
DOCKED: ATOM     47  O   UNL d   1       6.592  17.605  35.161 -0.48 -0.60    -0.481 OA
DOCKED: ATOM     48  H   UNL d   1       7.123  18.223  34.614 +0.04 +0.20    +0.295 HD
DOCKED: ENDBRANCH  45  47
DOCKED: ENDBRANCH  44  45
DOCKED: ENDBRANCH   8  44
DOCKED: BRANCH  22  49
DOCKED: ATOM     49  C   UNL d   1       6.186  14.761  27.168 -0.45 +0.01    +0.048 C 
DOCKED: BRANCH  49  50
DOCKED: ATOM     50  C   UNL d   1       6.770  15.605  26.036 -0.44 +0.01    +0.125 C 
DOCKED: BRANCH  50  51
DOCKED: ATOM     51  C   UNL d   1       8.049  15.005  25.523 -0.17 +0.02    +0.305 C 
DOCKED: ATOM     52  O   UNL d   1       8.287  13.828  25.319 -0.29 -0.01    -0.251 OA
DOCKED: BRANCH  51  53
DOCKED: ATOM     53  O   UNL d   1       8.991  15.942  25.299 -0.08 -0.05    -0.481 OA
DOCKED: ATOM     54  H   UNL d   1       8.479  16.741  25.052 +0.21 +0.04    +0.295 HD
DOCKED: ENDBRANCH  51  53
DOCKED: ENDBRANCH  50  51
DOCKED: ENDBRANCH  49  50
DOCKED: ENDBRANCH  22  49
DOCKED: TORSDOF 13
DOCKED: TER
DOCKED: ENDMDL
________________________________________________________________________________


	BEGINNING GENETIC ALGORITHM DOCKING 34 of 100
Run: 34 Seed: 1146715945 1459554417 [ Run 34 of 100 GA/GALS ]
Beginning LAMARCKIAN GENETIC ALGORITHM (LGA), with a maximum of 25000000 energy evaluations.

Final-Value: -14.016


	FINAL GENETIC ALGORITHM DOCKED STATE
	_______________________________________________


Detailed state:  trans 25.010 -9.010 33.492 quatxyzw -0.751976 0.077769 0.476196 0.449135 center 0.153 0.018 -0.028 ntor 13 121.4334 -149.2171 136.5315 125.6661 179.8941 -136.2088 -62.9634 -120.0400 -19.5013 -142.4535 -59.8206 105.2337 -142.7442
State:	 25.010  -9.010  33.492  -0.842  0.087  0.533 126.624    121.43 -149.22  136.53  125.67  179.89 -136.21  -62.96 -120.04  -19.50 -142.45  -59.82  105.23 -142.74

DOCKED: MODEL       34
DOCKED: USER    Run = 34
DOCKED: USER    DPF = D:/Protein_go_brrr/autodock/final/1A3N/heme/dock.dpf
DOCKED: USER  
DOCKED: USER    Estimated Free Energy of Binding    =   -8.27 kcal/mol  [=(1)+(2)+(3)-(4)]
DOCKED: USER    Estimated Inhibition Constant, Ki   =  871.45 nM (nanomolar)  [Temperature = 298.15 K]
DOCKED: USER    
DOCKED: USER    (1) Final Intermolecular Energy     =  -12.14 kcal/mol
DOCKED: USER        vdW + Hbond + desolv Energy     =  -11.81 kcal/mol
DOCKED: USER        Electrostatic Energy            =   -0.34 kcal/mol
DOCKED: USER    (2) Final Total Internal Energy     =   -1.87 kcal/mol
DOCKED: USER    (3) Torsional Free Energy           =   +3.88 kcal/mol
DOCKED: USER    (4) Unbound System's Energy  [=(2)] =   -1.87 kcal/mol
DOCKED: USER    
DOCKED: USER    
DOCKED: USER    NEWDPF move heme_opt.pdbqt
DOCKED: USER    NEWDPF about 0.153000 0.018000 -0.028000
DOCKED: USER    NEWDPF tran0 25.010086 -9.009863 33.492066
DOCKED: USER    NEWDPF quaternion0 -0.751976 0.077769 0.476196 0.449135
DOCKED: USER    NEWDPF axisangle0 -0.841641 0.087042 0.532977 126.623642
DOCKED: USER    NEWDPF quat0 -0.841641 0.087042 0.532977 126.623642
DOCKED: USER    NEWDPF dihe0 121.43 -149.22 136.53 125.67 179.89 -136.21 -62.96 -120.04 -19.50 -142.45 -59.82 105.23 -142.74 
DOCKED: USER  keepresnum = 1 
DOCKED: USER  
DOCKED: REMARK  13 active torsions:
DOCKED: REMARK  status: ('A' for Active; 'I' for Inactive)
DOCKED: REMARK    1  A    between atoms: O_3  and  C_38 
DOCKED: REMARK    2  A    between atoms: O_4  and  C_40 
DOCKED: REMARK    3  A    between atoms: O_7  and  C_46 
DOCKED: REMARK    4  A    between atoms: O_9  and  C_48 
DOCKED: REMARK    5  A    between atoms: C_15  and  C_20 
DOCKED: REMARK    6  A    between atoms: C_16  and  C_23 
DOCKED: REMARK    7  A    between atoms: C_20  and  C_38 
DOCKED: REMARK    8  A    between atoms: C_23  and  C_40 
DOCKED: REMARK    9  A    between atoms: C_32  and  C_41 
DOCKED: REMARK   10  A    between atoms: C_37  and  C_45 
DOCKED: REMARK   11  A    between atoms: C_41  and  C_44 
DOCKED: REMARK   12  A    between atoms: C_44  and  C_46 
DOCKED: REMARK   13  A    between atoms: C_47  and  C_48 
DOCKED: USER                              x       y       z     vdW  Elec       q    Type
DOCKED: USER                           _______ _______ _______ _____ _____    ______ ____
DOCKED: ROOT
DOCKED: ATOM      1  O   UNL d   1      22.027  -7.330  38.292 -0.11 -0.06    -0.289 OA
DOCKED: ATOM      2  O   UNL d   1      23.325  -3.781  31.803 -0.62 -0.06    -0.289 OA
DOCKED: ATOM      3  N   UNL d   1      23.973  -8.677  35.783 -0.13 -0.10    -0.247 NA
DOCKED: ATOM      4  N   UNL d   1      23.658  -6.734  33.557 -0.21 -0.04    -0.247 NA
DOCKED: ATOM      5  N   UNL d   1      24.827  -8.692  31.805 -0.18 -0.04    -0.354 N 
DOCKED: ATOM      6  N   UNL d   1      25.133 -10.708  34.117 -0.10 -0.09    -0.354 N 
DOCKED: ATOM      7  C   UNL d   1      23.118  -9.488  37.932 -0.11 +0.03    +0.084 A 
DOCKED: ATOM      8  C   UNL d   1      23.114  -4.428  34.154 -0.31 +0.01    +0.084 A 
DOCKED: ATOM      9  C   UNL d   1      23.332  -5.881  34.588 -0.28 +0.01    +0.058 A 
DOCKED: ATOM     10  C   UNL d   1      23.924  -9.750  36.656 -0.15 +0.02    +0.058 A 
DOCKED: ATOM     11  C   UNL d   1      22.735  -8.070  37.633 -0.12 +0.06    +0.193 A 
DOCKED: ATOM     12  C   UNL d   1      23.335  -7.686  36.315 -0.18 +0.04    +0.109 A 
DOCKED: ATOM     13  C   UNL d   1      23.340  -4.621  32.681 -0.20 +0.04    +0.193 A 
DOCKED: ATOM     14  C   UNL d   1      21.848 -10.341  37.994 +0.04 +0.00    +0.026 C 
DOCKED: ATOM     15  C   UNL d   1      23.167  -6.293  35.854 -0.23 +0.01    +0.055 C 
DOCKED: ATOM     16  C   UNL d   1      24.204  -3.502  34.703 -0.22 +0.00    +0.026 C 
DOCKED: ATOM     17  C   UNL d   1      23.654  -6.063  32.450 -0.19 +0.01    +0.109 A 
DOCKED: ATOM     18  C   UNL d   1      24.593 -10.904  36.472 -0.16 +0.02    +0.050 C 
DOCKED: ATOM     19  C   UNL d   1      25.430 -11.202  35.367 -0.17 +0.02    +0.045 A 
DOCKED: ATOM     20  C   UNL d   1      24.398  -7.775  30.881 -0.24 +0.00    +0.045 A 
DOCKED: ATOM     21  C   UNL d   1      23.881  -6.559  31.084 -0.18 +0.00    +0.057 C 
DOCKED: ATOM     22  C   UNL d   1      25.161  -9.628  29.784 -0.45 -0.00    -0.019 A 
DOCKED: ATOM     23  C   UNL d   1      25.305  -9.843  31.238 -0.43 +0.00    +0.045 A 
DOCKED: ATOM     24  C   UNL d   1      24.626  -8.401  29.579 -0.31 -0.00    -0.022 A 
DOCKED: ATOM     25  C   UNL d   1      26.019 -11.192  33.182 -0.29 +0.01    +0.049 A 
DOCKED: ATOM     26  C   UNL d   1      26.560 -11.997  35.249 -0.15 -0.01    -0.018 A 
DOCKED: ATOM     27  C   UNL d   1      26.939 -11.971  33.871 -0.11 +0.00    +0.003 A 
DOCKED: ATOM     28  C   UNL d   1      25.822 -10.948  31.796 -0.43 +0.00    +0.052 C 
DOCKED: ATOM     29  C   UNL d   1      24.303  -7.728  28.289 -0.46 +0.00    +0.046 C 
DOCKED: ATOM     30  C   UNL d   1      27.249 -12.734  36.347 -0.12 +0.01    +0.046 C 
DOCKED: ATOM     31  H   UNL d   1      24.848  -8.471  32.795 +0.09 +0.03    +0.166 HD
DOCKED: ATOM     32  H   UNL d   1      24.340 -10.107  33.926 +0.08 +0.04    +0.166 HD
DOCKED: ENDROOT
DOCKED: BRANCH   7  33
DOCKED: ATOM     33  C   UNL d   1      23.913  -9.566  39.239 -0.05 +0.05    +0.141 C 
DOCKED: BRANCH  33  34
DOCKED: ATOM     34  C   UNL d   1      25.365  -9.218  39.056 -0.06 +0.26    +0.306 C 
DOCKED: ATOM     35  O   UNL d   1      26.318  -9.904  39.385 -0.13 -0.24    -0.251 OA
DOCKED: BRANCH  34  36
DOCKED: ATOM     36  O   UNL d   1      25.541  -8.022  38.465 -0.60 -0.66    -0.481 OA
DOCKED: ATOM     37  H   UNL d   1      25.112  -8.116  37.588 +0.06 +0.32    +0.295 HD
DOCKED: ENDBRANCH  34  36
DOCKED: ENDBRANCH  33  34
DOCKED: ENDBRANCH   7  33
DOCKED: BRANCH  27  38
DOCKED: ATOM     38  C   UNL d   1      28.051 -12.676  33.307 -0.28 -0.00    +0.017 C 
DOCKED: ATOM     39  C   UNL d   1      29.243 -12.841  33.900 -0.26 +0.00    +0.092 C 
DOCKED: BRANCH  39  40
DOCKED: ATOM     40  C   UNL d   1      30.296 -13.601  33.221 -0.18 -0.06    +0.330 C 
DOCKED: ATOM     41  O   UNL d   1      31.059 -14.414  33.709 -0.08 +0.05    -0.246 OA
DOCKED: BRANCH  40  42
DOCKED: ATOM     42  O   UNL d   1      30.324 -13.288  31.917 -0.18 +0.15    -0.477 OA
DOCKED: ATOM     43  H   UNL d   1      30.025 -12.355  31.893 -0.42 -0.15    +0.295 HD
DOCKED: ENDBRANCH  40  42
DOCKED: ENDBRANCH  39  40
DOCKED: ENDBRANCH  27  38
DOCKED: BRANCH   8  44
DOCKED: ATOM     44  C   UNL d   1      21.717  -3.860  34.425 -0.28 +0.02    +0.141 C 
DOCKED: BRANCH  44  45
DOCKED: ATOM     45  C   UNL d   1      21.639  -2.367  34.253 -0.32 +0.03    +0.306 C 
DOCKED: ATOM     46  O   UNL d   1      21.544  -1.537  35.141 -0.31 -0.02    -0.251 OA
DOCKED: BRANCH  45  47
DOCKED: ATOM     47  O   UNL d   1      21.657  -1.996  32.960 -0.18 -0.05    -0.481 OA
DOCKED: ATOM     48  H   UNL d   1      22.364  -2.542  32.555 +0.21 +0.03    +0.295 HD
DOCKED: ENDBRANCH  45  47
DOCKED: ENDBRANCH  44  45
DOCKED: ENDBRANCH   8  44
DOCKED: BRANCH  22  49
DOCKED: ATOM     49  C   UNL d   1      25.544 -10.637  28.741 -0.49 -0.00    +0.048 C 
DOCKED: BRANCH  49  50
DOCKED: ATOM     50  C   UNL d   1      24.459 -10.793  27.676 -0.52 +0.00    +0.125 C 
DOCKED: BRANCH  50  51
DOCKED: ATOM     51  C   UNL d   1      24.998 -10.473  26.311 -0.41 -0.00    +0.305 C 
DOCKED: ATOM     52  O   UNL d   1      24.551  -9.677  25.503 -0.29 -0.01    -0.251 OA
DOCKED: BRANCH  51  53
DOCKED: ATOM     53  O   UNL d   1      26.096 -11.199  26.019 -0.25 +0.02    -0.481 OA
DOCKED: ATOM     54  H   UNL d   1      26.706 -11.017  26.764 -0.15 -0.06    +0.295 HD
DOCKED: ENDBRANCH  51  53
DOCKED: ENDBRANCH  50  51
DOCKED: ENDBRANCH  49  50
DOCKED: ENDBRANCH  22  49
DOCKED: TORSDOF 13
DOCKED: TER
DOCKED: ENDMDL
________________________________________________________________________________


	BEGINNING GENETIC ALGORITHM DOCKING 35 of 100
Run: 35 Seed: 349075838 675683117 [ Run 35 of 100 GA/GALS ]
Beginning LAMARCKIAN GENETIC ALGORITHM (LGA), with a maximum of 25000000 energy evaluations.

Final-Value: -11.530


	FINAL GENETIC ALGORITHM DOCKED STATE
	_______________________________________________


Detailed state:  trans 20.851 23.877 6.998 quatxyzw 0.534565 0.765269 -0.052325 -0.354774 center 0.153 0.018 -0.028 ntor 13 131.2969 -127.8247 -176.9153 -26.6131 -132.4633 83.1386 150.0637 72.7399 132.5695 1.0762 -55.2195 -137.9885 26.5266
State:	 20.851  23.877   6.998   0.572  0.819 -0.056 -138.441    131.30 -127.82 -176.92  -26.61 -132.46   83.14  150.06   72.74  132.57    1.08  -55.22 -137.99   26.53

DOCKED: MODEL       35
DOCKED: USER    Run = 35
DOCKED: USER    DPF = D:/Protein_go_brrr/autodock/final/1A3N/heme/dock.dpf
DOCKED: USER  
DOCKED: USER    Estimated Free Energy of Binding    =   -4.56 kcal/mol  [=(1)+(2)+(3)-(4)]
DOCKED: USER    Estimated Inhibition Constant, Ki   =  454.85 uM (micromolar)  [Temperature = 298.15 K]
DOCKED: USER    
DOCKED: USER    (1) Final Intermolecular Energy     =   -8.44 kcal/mol
DOCKED: USER        vdW + Hbond + desolv Energy     =   -7.99 kcal/mol
DOCKED: USER        Electrostatic Energy            =   -0.45 kcal/mol
DOCKED: USER    (2) Final Total Internal Energy     =   -3.09 kcal/mol
DOCKED: USER    (3) Torsional Free Energy           =   +3.88 kcal/mol
DOCKED: USER    (4) Unbound System's Energy  [=(2)] =   -3.09 kcal/mol
DOCKED: USER    
DOCKED: USER    
DOCKED: USER    NEWDPF move heme_opt.pdbqt
DOCKED: USER    NEWDPF about 0.153000 0.018000 -0.028000
DOCKED: USER    NEWDPF tran0 20.851246 23.877004 6.997751
DOCKED: USER    NEWDPF quaternion0 0.534565 0.765269 -0.052325 -0.354774
DOCKED: USER    NEWDPF axisangle0 0.571757 0.818512 -0.055966 -138.440836
DOCKED: USER    NEWDPF quat0 0.571757 0.818512 -0.055966 -138.440836
DOCKED: USER    NEWDPF dihe0 131.30 -127.82 -176.92 -26.61 -132.46 83.14 150.06 72.74 132.57 1.08 -55.22 -137.99 26.53 
DOCKED: USER  keepresnum = 1 
DOCKED: USER  
DOCKED: REMARK  13 active torsions:
DOCKED: REMARK  status: ('A' for Active; 'I' for Inactive)
DOCKED: REMARK    1  A    between atoms: O_3  and  C_38 
DOCKED: REMARK    2  A    between atoms: O_4  and  C_40 
DOCKED: REMARK    3  A    between atoms: O_7  and  C_46 
DOCKED: REMARK    4  A    between atoms: O_9  and  C_48 
DOCKED: REMARK    5  A    between atoms: C_15  and  C_20 
DOCKED: REMARK    6  A    between atoms: C_16  and  C_23 
DOCKED: REMARK    7  A    between atoms: C_20  and  C_38 
DOCKED: REMARK    8  A    between atoms: C_23  and  C_40 
DOCKED: REMARK    9  A    between atoms: C_32  and  C_41 
DOCKED: REMARK   10  A    between atoms: C_37  and  C_45 
DOCKED: REMARK   11  A    between atoms: C_41  and  C_44 
DOCKED: REMARK   12  A    between atoms: C_44  and  C_46 
DOCKED: REMARK   13  A    between atoms: C_47  and  C_48 
DOCKED: USER                              x       y       z     vdW  Elec       q    Type
DOCKED: USER                           _______ _______ _______ _____ _____    ______ ____
DOCKED: ROOT
DOCKED: ATOM      1  O   UNL d   1      23.603  19.911  10.382 -0.12 -0.09    -0.289 OA
DOCKED: ATOM      2  O   UNL d   1      16.407  20.477   8.312 -0.03 -0.08    -0.289 OA
DOCKED: ATOM      3  N   UNL d   1      22.409  22.522   8.471 -0.08 -0.02    -0.247 NA
DOCKED: ATOM      4  N   UNL d   1      19.596  21.737   7.923 -0.05 -0.04    -0.247 NA
DOCKED: ATOM      5  N   UNL d   1      19.512  23.790   5.912 +0.02 -0.00    -0.354 N 
DOCKED: ATOM      6  N   UNL d   1      22.437  24.586   6.474 -0.14 +0.20    -0.354 N 
DOCKED: ATOM      7  C   UNL d   1      24.628  21.803   9.222 -0.30 +0.01    +0.084 A 
DOCKED: ATOM      8  C   UNL d   1      18.515  20.255   9.537 -0.07 +0.02    +0.084 A 
DOCKED: ATOM      9  C   UNL d   1      19.778  20.976   9.056 -0.10 +0.01    +0.058 A 
DOCKED: ATOM     10  C   UNL d   1      23.766  22.796   8.438 -0.27 +0.00    +0.058 A 
DOCKED: ATOM     11  C   UNL d   1      23.517  20.929   9.719 -0.13 +0.04    +0.193 A 
DOCKED: ATOM     12  C   UNL d   1      22.219  21.483   9.218 -0.13 +0.02    +0.109 A 
DOCKED: ATOM     13  C   UNL d   1      17.591  20.717   8.445 -0.05 +0.04    +0.193 A 
DOCKED: ATOM     14  C   UNL d   1      25.534  20.978   8.304 -0.58 +0.00    +0.026 C 
DOCKED: ATOM     15  C   UNL d   1      20.968  20.835   9.660 -0.13 +0.01    +0.055 C 
DOCKED: ATOM     16  C   UNL d   1      18.016  20.813  10.873 -0.04 +0.01    +0.026 C 
DOCKED: ATOM     17  C   UNL d   1      18.371  21.602   7.528 -0.09 +0.02    +0.109 A 
DOCKED: ATOM     18  C   UNL d   1      24.302  23.885   7.854 -0.26 -0.01    +0.050 C 
DOCKED: ATOM     19  C   UNL d   1      23.575  24.900   7.182 -0.30 -0.03    +0.045 A 
DOCKED: ATOM     20  C   UNL d   1      18.330  23.149   5.644 -0.10 +0.00    +0.045 A 
DOCKED: ATOM     21  C   UNL d   1      17.732  22.172   6.333 -0.13 +0.01    +0.057 C 
DOCKED: ATOM     22  C   UNL d   1      18.707  24.712   4.021 -0.13 +0.00    -0.019 A 
DOCKED: ATOM     23  C   UNL d   1      19.824  24.750   4.987 -0.13 -0.01    +0.045 A 
DOCKED: ATOM     24  C   UNL d   1      17.826  23.763   4.417 -0.11 -0.00    -0.022 A 
DOCKED: ATOM     25  C   UNL d   1      21.946  25.698   5.830 -0.21 -0.04    +0.049 A 
DOCKED: ATOM     26  C   UNL d   1      23.808  26.257   7.025 -0.25 +0.01    -0.018 A 
DOCKED: ATOM     27  C   UNL d   1      22.766  26.760   6.186 -0.19 -0.00    +0.003 A 
DOCKED: ATOM     28  C   UNL d   1      20.867  25.591   4.911 -0.27 -0.03    +0.052 C 
DOCKED: ATOM     29  C   UNL d   1      16.540  23.361   3.778 -0.10 +0.01    +0.046 C 
DOCKED: ATOM     30  C   UNL d   1      24.929  27.042   7.617 -0.15 -0.02    +0.046 C 
DOCKED: ATOM     31  H   UNL d   1      20.032  23.601   6.762 +0.04 +0.00    +0.166 HD
DOCKED: ATOM     32  H   UNL d   1      22.054  23.649   6.414 +0.07 -0.04    +0.166 HD
DOCKED: ENDROOT
DOCKED: BRANCH   7  33
DOCKED: ATOM     33  C   UNL d   1      25.411  22.398  10.398 -0.27 +0.04    +0.141 C 
DOCKED: BRANCH  33  34
DOCKED: ATOM     34  C   UNL d   1      26.241  21.371  11.120 -0.30 +0.16    +0.306 C 
DOCKED: ATOM     35  O   UNL d   1      25.832  20.553  11.927 -0.80 -0.18    -0.251 OA
DOCKED: BRANCH  34  36
DOCKED: ATOM     36  O   UNL d   1      27.542  21.427  10.786 -0.16 -0.30    -0.481 OA
DOCKED: ATOM     37  H   UNL d   1      27.546  21.404   9.805 -0.31 +0.02    +0.295 HD
DOCKED: ENDBRANCH  34  36
DOCKED: ENDBRANCH  33  34
DOCKED: ENDBRANCH   7  33
DOCKED: BRANCH  27  38
DOCKED: ATOM     38  C   UNL d   1      22.635  28.119   5.758 -0.15 -0.01    +0.017 C 
DOCKED: ATOM     39  C   UNL d   1      23.336  28.690   4.766 -0.12 -0.09    +0.092 C 
DOCKED: BRANCH  39  40
DOCKED: ATOM     40  C   UNL d   1      23.094  30.091   4.413 -0.04 -0.16    +0.330 C 
DOCKED: ATOM     41  O   UNL d   1      23.530  31.083   4.965 -0.01 +0.07    -0.246 OA
DOCKED: BRANCH  40  42
DOCKED: ATOM     42  O   UNL d   1      22.294  30.164   3.338 -0.02 +0.21    -0.477 OA
DOCKED: ATOM     43  H   UNL d   1      21.528  29.603   3.577 +0.03 -0.13    +0.295 HD
DOCKED: ENDBRANCH  40  42
DOCKED: ENDBRANCH  39  40
DOCKED: ENDBRANCH  27  38
DOCKED: BRANCH   8  44
DOCKED: ATOM     44  C   UNL d   1      18.600  18.725   9.572 -0.12 +0.03    +0.141 C 
DOCKED: BRANCH  44  45
DOCKED: ATOM     45  C   UNL d   1      19.147  18.131   8.302 -0.06 +0.08    +0.306 C 
DOCKED: ATOM     46  O   UNL d   1      20.258  17.655   8.141 -0.29 -0.06    -0.251 OA
DOCKED: BRANCH  45  47
DOCKED: ATOM     47  O   UNL d   1      18.269  18.193   7.285 -0.17 -0.13    -0.481 OA
DOCKED: ATOM     48  H   UNL d   1      17.491  18.661   7.657 +0.12 +0.08    +0.295 HD
DOCKED: ENDBRANCH  45  47
DOCKED: ENDBRANCH  44  45
DOCKED: ENDBRANCH   8  44
DOCKED: BRANCH  22  49
DOCKED: ATOM     49  C   UNL d   1      18.614  25.588   2.806 -0.14 -0.00    +0.048 C 
DOCKED: BRANCH  49  50
DOCKED: ATOM     50  C   UNL d   1      18.674  27.071   3.168 -0.07 -0.02    +0.125 C 
DOCKED: BRANCH  50  51
DOCKED: ATOM     51  C   UNL d   1      19.764  27.767   2.402 +0.01 -0.11    +0.305 C 
DOCKED: ATOM     52  O   UNL d   1      19.820  27.961   1.201 -0.19 +0.07    -0.251 OA
DOCKED: BRANCH  51  53
DOCKED: ATOM     53  O   UNL d   1      20.760  28.183   3.209 -0.03 +0.28    -0.481 OA
DOCKED: ATOM     54  H   UNL d   1      21.548  28.196   2.626 -0.43 -0.29    +0.295 HD
DOCKED: ENDBRANCH  51  53
DOCKED: ENDBRANCH  50  51
DOCKED: ENDBRANCH  49  50
DOCKED: ENDBRANCH  22  49
DOCKED: TORSDOF 13
DOCKED: TER
DOCKED: ENDMDL
________________________________________________________________________________


	BEGINNING GENETIC ALGORITHM DOCKING 36 of 100
Run: 36 Seed: 1191352930 1386330062 [ Run 36 of 100 GA/GALS ]
Beginning LAMARCKIAN GENETIC ALGORITHM (LGA), with a maximum of 25000000 energy evaluations.

Final-Value: -10.703


	FINAL GENETIC ALGORITHM DOCKED STATE
	_______________________________________________


Detailed state:  trans -10.883 3.901 30.099 quatxyzw -0.515011 -0.409296 -0.190535 -0.728654 center 0.153 0.018 -0.028 ntor 13 -168.8976 -28.7654 -78.4722 63.7915 -163.1355 141.9189 165.2200 -77.3765 4.5075 -101.0050 155.8047 97.0958 180.0000
State:	-10.883   3.901  30.099  -0.752 -0.598 -0.278 -86.453   -168.90  -28.77  -78.47   63.79 -163.14  141.92  165.22  -77.38    4.51 -101.01  155.80   97.10  180.00

DOCKED: MODEL       36
DOCKED: USER    Run = 36
DOCKED: USER    DPF = D:/Protein_go_brrr/autodock/final/1A3N/heme/dock.dpf
DOCKED: USER  
DOCKED: USER    Estimated Free Energy of Binding    =   -4.44 kcal/mol  [=(1)+(2)+(3)-(4)]
DOCKED: USER    Estimated Inhibition Constant, Ki   =  560.61 uM (micromolar)  [Temperature = 298.15 K]
DOCKED: USER    
DOCKED: USER    (1) Final Intermolecular Energy     =   -8.31 kcal/mol
DOCKED: USER        vdW + Hbond + desolv Energy     =   -7.94 kcal/mol
DOCKED: USER        Electrostatic Energy            =   -0.38 kcal/mol
DOCKED: USER    (2) Final Total Internal Energy     =   -2.39 kcal/mol
DOCKED: USER    (3) Torsional Free Energy           =   +3.88 kcal/mol
DOCKED: USER    (4) Unbound System's Energy  [=(2)] =   -2.39 kcal/mol
DOCKED: USER    
DOCKED: USER    
DOCKED: USER    NEWDPF move heme_opt.pdbqt
DOCKED: USER    NEWDPF about 0.153000 0.018000 -0.028000
DOCKED: USER    NEWDPF tran0 -10.882821 3.900796 30.099184
DOCKED: USER    NEWDPF quaternion0 -0.515011 -0.409296 -0.190535 -0.728654
DOCKED: USER    NEWDPF axisangle0 -0.751971 -0.597615 -0.278201 -86.452672
DOCKED: USER    NEWDPF quat0 -0.751971 -0.597615 -0.278201 -86.452672
DOCKED: USER    NEWDPF dihe0 -168.90 -28.77 -78.47 63.79 -163.14 141.92 165.22 -77.38 4.51 -101.01 155.80 97.10 180.00 
DOCKED: USER  keepresnum = 1 
DOCKED: USER  
DOCKED: REMARK  13 active torsions:
DOCKED: REMARK  status: ('A' for Active; 'I' for Inactive)
DOCKED: REMARK    1  A    between atoms: O_3  and  C_38 
DOCKED: REMARK    2  A    between atoms: O_4  and  C_40 
DOCKED: REMARK    3  A    between atoms: O_7  and  C_46 
DOCKED: REMARK    4  A    between atoms: O_9  and  C_48 
DOCKED: REMARK    5  A    between atoms: C_15  and  C_20 
DOCKED: REMARK    6  A    between atoms: C_16  and  C_23 
DOCKED: REMARK    7  A    between atoms: C_20  and  C_38 
DOCKED: REMARK    8  A    between atoms: C_23  and  C_40 
DOCKED: REMARK    9  A    between atoms: C_32  and  C_41 
DOCKED: REMARK   10  A    between atoms: C_37  and  C_45 
DOCKED: REMARK   11  A    between atoms: C_41  and  C_44 
DOCKED: REMARK   12  A    between atoms: C_44  and  C_46 
DOCKED: REMARK   13  A    between atoms: C_47  and  C_48 
DOCKED: USER                              x       y       z     vdW  Elec       q    Type
DOCKED: USER                           _______ _______ _______ _____ _____    ______ ____
DOCKED: ROOT
DOCKED: ATOM      1  O   UNL d   1     -13.285   4.351  24.734 -0.10 +0.03    -0.289 OA
DOCKED: ATOM      2  O   UNL d   1     -15.213   0.164  30.662 -0.00 +0.01    -0.289 OA
DOCKED: ATOM      3  N   UNL d   1     -11.471   4.318  27.668 -0.04 +0.08    -0.247 NA
DOCKED: ATOM      4  N   UNL d   1     -13.134   2.651  29.480 -0.05 +0.03    -0.247 NA
DOCKED: ATOM      5  N   UNL d   1     -11.529   3.596  31.671 +0.02 +0.06    -0.354 N 
DOCKED: ATOM      6  N   UNL d   1      -9.822   5.338  29.786 -0.04 +0.08    -0.354 N 
DOCKED: ATOM      7  C   UNL d   1     -11.372   5.612  25.588 -0.14 -0.05    +0.084 A 
DOCKED: ATOM      8  C   UNL d   1     -14.608   1.001  28.443 -0.02 -0.00    +0.084 A 
DOCKED: ATOM      9  C   UNL d   1     -13.624   2.166  28.288 -0.05 -0.00    +0.058 A 
DOCKED: ATOM     10  C   UNL d   1     -10.813   5.327  26.985 -0.10 -0.03    +0.058 A 
DOCKED: ATOM     11  C   UNL d   1     -12.453   4.572  25.595 -0.06 -0.05    +0.193 A 
DOCKED: ATOM     12  C   UNL d   1     -12.393   3.838  26.898 -0.05 -0.02    +0.109 A 
DOCKED: ATOM     13  C   UNL d   1     -14.614   0.941  29.944 -0.01 -0.01    +0.193 A 
DOCKED: ATOM     14  C   UNL d   1     -12.018   6.996  25.499 -0.22 -0.02    +0.026 C 
DOCKED: ATOM     15  C   UNL d   1     -13.310   2.698  27.097 -0.07 -0.00    +0.055 C 
DOCKED: ATOM     16  C   UNL d   1     -14.028  -0.308  27.899 -0.04 -0.00    +0.026 C 
DOCKED: ATOM     17  C   UNL d   1     -13.686   1.997  30.451 -0.05 -0.01    +0.109 A 
DOCKED: ATOM     18  C   UNL d   1      -9.716   5.958  27.445 -0.20 -0.03    +0.050 C 
DOCKED: ATOM     19  C   UNL d   1      -9.079   5.701  28.685 -0.18 -0.02    +0.045 A 
DOCKED: ATOM     20  C   UNL d   1     -12.526   2.963  32.365 -0.08 -0.00    +0.045 A 
DOCKED: ATOM     21  C   UNL d   1     -13.521   2.202  31.897 -0.07 -0.00    +0.057 C 
DOCKED: ATOM     22  C   UNL d   1     -11.187   4.074  33.845 -0.14 -0.00    -0.019 A 
DOCKED: ATOM     23  C   UNL d   1     -10.672   4.294  32.479 -0.17 +0.00    +0.045 A 
DOCKED: ATOM     24  C   UNL d   1     -12.284   3.284  33.771 -0.08 -0.00    -0.022 A 
DOCKED: ATOM     25  C   UNL d   1      -9.018   5.228  30.897 -0.20 -0.00    +0.049 A 
DOCKED: ATOM     26  C   UNL d   1      -7.754   5.794  29.082 -0.31 +0.01    -0.018 A 
DOCKED: ATOM     27  C   UNL d   1      -7.718   5.475  30.475 -0.36 -0.00    +0.003 A 
DOCKED: ATOM     28  C   UNL d   1      -9.579   5.016  32.185 -0.25 +0.01    +0.052 C 
DOCKED: ATOM     29  C   UNL d   1     -13.145   2.777  34.878 -0.03 +0.00    +0.046 C 
DOCKED: ATOM     30  C   UNL d   1      -6.590   6.154  28.223 -0.42 -0.03    +0.046 C 
DOCKED: ATOM     31  H   UNL d   1     -11.423   3.470  30.670 -0.21 -0.05    +0.166 HD
DOCKED: ATOM     32  H   UNL d   1     -10.827   5.215  29.767 +0.04 -0.03    +0.166 HD
DOCKED: ENDROOT
DOCKED: BRANCH   7  33
DOCKED: ATOM     33  C   UNL d   1     -10.400   5.369  24.428 -0.22 -0.13    +0.141 C 
DOCKED: BRANCH  33  34
DOCKED: ATOM     34  C   UNL d   1      -9.777   4.000  24.472 -0.19 -0.17    +0.306 C 
DOCKED: ATOM     35  O   UNL d   1      -8.616   3.745  24.743 -0.31 +0.13    -0.251 OA
DOCKED: BRANCH  34  36
DOCKED: ATOM     36  O   UNL d   1     -10.652   3.023  24.173 -0.09 +0.10    -0.481 OA
DOCKED: ATOM     37  H   UNL d   1     -11.454   3.496  23.865 +0.17 -0.07    +0.295 HD
DOCKED: ENDBRANCH  34  36
DOCKED: ENDBRANCH  33  34
DOCKED: ENDBRANCH   7  33
DOCKED: BRANCH  27  38
DOCKED: ATOM     38  C   UNL d   1      -6.541   5.466  31.290 -0.48 -0.00    +0.017 C 
DOCKED: ATOM     39  C   UNL d   1      -5.371   4.902  30.954 -0.51 -0.03    +0.092 C 
DOCKED: BRANCH  39  40
DOCKED: ATOM     40  C   UNL d   1      -4.233   4.978  31.874 -0.38 -0.03    +0.330 C 
DOCKED: ATOM     41  O   UNL d   1      -3.423   4.106  32.128 -0.64 +0.04    -0.246 OA
DOCKED: BRANCH  40  42
DOCKED: ATOM     42  O   UNL d   1      -4.173   6.195  32.435 -0.33 -0.01    -0.477 OA
DOCKED: ATOM     43  H   UNL d   1      -3.755   6.032  33.305 -0.32 -0.07    +0.295 HD
DOCKED: ENDBRANCH  40  42
DOCKED: ENDBRANCH  39  40
DOCKED: ENDBRANCH  27  38
DOCKED: BRANCH   8  44
DOCKED: ATOM     44  C   UNL d   1     -16.018   1.252  27.898 -0.02 +0.01    +0.141 C 
DOCKED: BRANCH  44  45
DOCKED: ATOM     45  C   UNL d   1     -17.084   0.480  28.631 -0.00 +0.01    +0.306 C 
DOCKED: ATOM     46  O   UNL d   1     -18.044   0.947  29.219 -0.00 -0.01    -0.251 OA
DOCKED: BRANCH  45  47
DOCKED: ATOM     47  O   UNL d   1     -16.866  -0.847  28.607 +0.00 -0.01    -0.481 OA
DOCKED: ATOM     48  H   UNL d   1     -16.479  -1.051  29.485 +0.00 +0.00    +0.295 HD
DOCKED: ENDBRANCH  45  47
DOCKED: ENDBRANCH  44  45
DOCKED: ENDBRANCH   8  44
DOCKED: BRANCH  22  49
DOCKED: ATOM     49  C   UNL d   1     -10.575   4.663  35.082 -0.17 +0.02    +0.048 C 
DOCKED: BRANCH  49  50
DOCKED: ATOM     50  C   UNL d   1     -11.282   5.949  35.510 -0.10 +0.07    +0.125 C 
DOCKED: BRANCH  50  51
DOCKED: ATOM     51  C   UNL d   1     -11.987   6.587  34.347 -0.04 +0.20    +0.305 C 
DOCKED: ATOM     52  O   UNL d   1     -11.510   7.326  33.504 -0.64 -0.29    -0.251 OA
DOCKED: BRANCH  51  53
DOCKED: ATOM     53  O   UNL d   1     -13.295   6.262  34.310 +0.01 -0.13    -0.481 OA
DOCKED: ATOM     54  H   UNL d   1     -13.393   5.765  33.471 +0.02 +0.05    +0.295 HD
DOCKED: ENDBRANCH  51  53
DOCKED: ENDBRANCH  50  51
DOCKED: ENDBRANCH  49  50
DOCKED: ENDBRANCH  22  49
DOCKED: TORSDOF 13
DOCKED: TER
DOCKED: ENDMDL
________________________________________________________________________________


	BEGINNING GENETIC ALGORITHM DOCKING 37 of 100
Run: 37 Seed: 1373172571 861301369 [ Run 37 of 100 GA/GALS ]
Beginning LAMARCKIAN GENETIC ALGORITHM (LGA), with a maximum of 25000000 energy evaluations.

Final-Value: -13.065


	FINAL GENETIC ALGORITHM DOCKED STATE
	_______________________________________________


Detailed state:  trans 0.443 -8.731 -5.001 quatxyzw 0.420797 -0.420506 0.798503 -0.092184 center 0.153 0.018 -0.028 ntor 13 -104.6156 126.7873 113.6201 -116.0827 34.5061 -138.2799 -53.2579 149.5218 129.5566 -133.8634 -21.4373 179.0105 -142.6852
State:	  0.443  -8.731  -5.001   0.423 -0.422  0.802 -169.422   -104.62  126.79  113.62 -116.08   34.51 -138.28  -53.26  149.52  129.56 -133.86  -21.44  179.01 -142.69

DOCKED: MODEL       37
DOCKED: USER    Run = 37
DOCKED: USER    DPF = D:/Protein_go_brrr/autodock/final/1A3N/heme/dock.dpf
DOCKED: USER  
DOCKED: USER    Estimated Free Energy of Binding    =   -7.24 kcal/mol  [=(1)+(2)+(3)-(4)]
DOCKED: USER    Estimated Inhibition Constant, Ki   =    4.92 uM (micromolar)  [Temperature = 298.15 K]
DOCKED: USER    
DOCKED: USER    (1) Final Intermolecular Energy     =  -11.12 kcal/mol
DOCKED: USER        vdW + Hbond + desolv Energy     =  -11.17 kcal/mol
DOCKED: USER        Electrostatic Energy            =   +0.05 kcal/mol
DOCKED: USER    (2) Final Total Internal Energy     =   -1.95 kcal/mol
DOCKED: USER    (3) Torsional Free Energy           =   +3.88 kcal/mol
DOCKED: USER    (4) Unbound System's Energy  [=(2)] =   -1.95 kcal/mol
DOCKED: USER    
DOCKED: USER    
DOCKED: USER    NEWDPF move heme_opt.pdbqt
DOCKED: USER    NEWDPF about 0.153000 0.018000 -0.028000
DOCKED: USER    NEWDPF tran0 0.442917 -8.731172 -5.001302
DOCKED: USER    NEWDPF quaternion0 0.420797 -0.420506 0.798503 -0.092184
DOCKED: USER    NEWDPF axisangle0 0.422597 -0.422304 0.801917 -169.421522
DOCKED: USER    NEWDPF quat0 0.422597 -0.422304 0.801917 -169.421522
DOCKED: USER    NEWDPF dihe0 -104.62 126.79 113.62 -116.08 34.51 -138.28 -53.26 149.52 129.56 -133.86 -21.44 179.01 -142.69 
DOCKED: USER  keepresnum = 1 
DOCKED: USER  
DOCKED: REMARK  13 active torsions:
DOCKED: REMARK  status: ('A' for Active; 'I' for Inactive)
DOCKED: REMARK    1  A    between atoms: O_3  and  C_38 
DOCKED: REMARK    2  A    between atoms: O_4  and  C_40 
DOCKED: REMARK    3  A    between atoms: O_7  and  C_46 
DOCKED: REMARK    4  A    between atoms: O_9  and  C_48 
DOCKED: REMARK    5  A    between atoms: C_15  and  C_20 
DOCKED: REMARK    6  A    between atoms: C_16  and  C_23 
DOCKED: REMARK    7  A    between atoms: C_20  and  C_38 
DOCKED: REMARK    8  A    between atoms: C_23  and  C_40 
DOCKED: REMARK    9  A    between atoms: C_32  and  C_41 
DOCKED: REMARK   10  A    between atoms: C_37  and  C_45 
DOCKED: REMARK   11  A    between atoms: C_41  and  C_44 
DOCKED: REMARK   12  A    between atoms: C_44  and  C_46 
DOCKED: REMARK   13  A    between atoms: C_47  and  C_48 
DOCKED: USER                              x       y       z     vdW  Elec       q    Type
DOCKED: USER                           _______ _______ _______ _____ _____    ______ ____
DOCKED: ROOT
DOCKED: ATOM      1  O   UNL d   1       3.510  -9.120 -10.021 -0.12 -0.05    -0.289 OA
DOCKED: ATOM      2  O   UNL d   1       3.604  -3.949  -4.576 -0.45 -0.05    -0.289 OA
DOCKED: ATOM      3  N   UNL d   1       1.406  -9.243  -7.291 -0.13 -0.07    -0.247 NA
DOCKED: ATOM      4  N   UNL d   1       2.369  -7.010  -5.584 -0.23 -0.05    -0.247 NA
DOCKED: ATOM      5  N   UNL d   1       0.798  -8.097  -3.436 -0.18 -0.04    -0.354 N 
DOCKED: ATOM      6  N   UNL d   1      -0.180 -10.422  -5.207 -0.10 -0.05    -0.354 N 
DOCKED: ATOM      7  C   UNL d   1       1.884 -10.737  -9.175 -0.11 +0.02    +0.084 A 
DOCKED: ATOM      8  C   UNL d   1       3.499  -5.155  -6.704 -0.31 +0.02    +0.084 A 
DOCKED: ATOM      9  C   UNL d   1       2.863  -6.546  -6.783 -0.26 +0.01    +0.058 A 
DOCKED: ATOM     10  C   UNL d   1       1.107 -10.458  -7.885 -0.15 +0.01    +0.058 A 
DOCKED: ATOM     11  C   UNL d   1       2.662  -9.456  -9.215 -0.13 +0.04    +0.193 A 
DOCKED: ATOM     12  C   UNL d   1       2.264  -8.625  -8.035 -0.19 +0.03    +0.109 A 
DOCKED: ATOM     13  C   UNL d   1       3.308  -4.930  -5.230 -0.16 +0.04    +0.193 A 
DOCKED: ATOM     14  C   UNL d   1       2.861 -11.905  -9.016 +0.08 +0.00    +0.026 C 
DOCKED: ATOM     15  C   UNL d   1       2.837  -7.269  -7.914 -0.25 +0.01    +0.055 C 
DOCKED: ATOM     16  C   UNL d   1       2.681  -4.112  -7.471 -0.34 +0.01    +0.026 C 
DOCKED: ATOM     17  C   UNL d   1       2.619  -6.131  -4.668 -0.15 +0.02    +0.109 A 
DOCKED: ATOM     18  C   UNL d   1       0.155 -11.301  -7.442 -0.16 +0.01    +0.050 C 
DOCKED: ATOM     19  C   UNL d   1      -0.671 -11.086  -6.309 -0.17 +0.01    +0.045 A 
DOCKED: ATOM     20  C   UNL d   1       1.515  -7.152  -2.749 -0.23 +0.00    +0.045 A 
DOCKED: ATOM     21  C   UNL d   1       2.337  -6.213  -3.227 -0.23 +0.00    +0.057 C 
DOCKED: ATOM     22  C   UNL d   1       0.327  -8.407  -1.255 -0.44 -0.00    -0.019 A 
DOCKED: ATOM     23  C   UNL d   1       0.051  -8.903  -2.618 -0.43 +0.00    +0.045 A 
DOCKED: ATOM     24  C   UNL d   1       1.193  -7.370  -1.339 -0.36 -0.00    -0.022 A 
DOCKED: ATOM     25  C   UNL d   1      -1.114 -10.406  -4.197 -0.31 +0.00    +0.049 A 
DOCKED: ATOM     26  C   UNL d   1      -1.969 -11.479  -6.021 -0.15 -0.00    -0.018 A 
DOCKED: ATOM     27  C   UNL d   1      -2.250 -11.030  -4.694 -0.11 +0.00    +0.003 A 
DOCKED: ATOM     28  C   UNL d   1      -0.783  -9.914  -2.906 -0.46 +0.00    +0.052 C 
DOCKED: ATOM     29  C   UNL d   1       1.759  -6.536  -0.240 -0.43 +0.00    +0.046 C 
DOCKED: ATOM     30  C   UNL d   1      -2.894 -12.225  -6.923 -0.11 +0.01    +0.046 C 
DOCKED: ATOM     31  H   UNL d   1       0.786  -8.114  -4.450 +0.09 +0.03    +0.166 HD
DOCKED: ATOM     32  H   UNL d   1       0.757 -10.042  -5.154 +0.08 +0.03    +0.166 HD
DOCKED: ENDROOT
DOCKED: BRANCH   7  33
DOCKED: ATOM     33  C   UNL d   1       1.029 -10.887 -10.438 -0.05 +0.03    +0.141 C 
DOCKED: BRANCH  33  34
DOCKED: ATOM     34  C   UNL d   1       1.858 -11.093 -11.677 -0.02 +0.05    +0.306 C 
DOCKED: ATOM     35  O   UNL d   1       2.239 -12.163 -12.119 -0.02 -0.03    -0.251 OA
DOCKED: BRANCH  34  36
DOCKED: ATOM     36  O   UNL d   1       2.160  -9.937 -12.296 +0.00 -0.08    -0.481 OA
DOCKED: ATOM     37  H   UNL d   1       2.832  -9.517 -11.718 +0.04 +0.05    +0.295 HD
DOCKED: ENDBRANCH  34  36
DOCKED: ENDBRANCH  33  34
DOCKED: ENDBRANCH   7  33
DOCKED: BRANCH  27  38
DOCKED: ATOM     38  C   UNL d   1      -3.482 -11.241  -3.995 -0.29 -0.00    +0.017 C 
DOCKED: ATOM     39  C   UNL d   1      -4.247 -12.340  -4.088 -0.24 -0.02    +0.092 C 
DOCKED: BRANCH  39  40
DOCKED: ATOM     40  C   UNL d   1      -5.480 -12.439  -3.304 -0.19 -0.13    +0.330 C 
DOCKED: ATOM     41  O   UNL d   1      -5.921 -13.418  -2.732 -0.20 +0.20    -0.246 OA
DOCKED: BRANCH  40  42
DOCKED: ATOM     42  O   UNL d   1      -6.107 -11.253  -3.277 -0.18 +0.14    -0.477 OA
DOCKED: ATOM     43  H   UNL d   1      -5.419 -10.631  -2.962 -0.43 -0.12    +0.295 HD
DOCKED: ENDBRANCH  40  42
DOCKED: ENDBRANCH  39  40
DOCKED: ENDBRANCH  27  38
DOCKED: BRANCH   8  44
DOCKED: ATOM     44  C   UNL d   1       4.982  -5.084  -7.082 -0.16 +0.02    +0.141 C 
DOCKED: BRANCH  44  45
DOCKED: ATOM     45  C   UNL d   1       5.533  -3.683  -7.067 -0.32 +0.02    +0.306 C 
DOCKED: ATOM     46  O   UNL d   1       5.668  -2.945  -8.028 -0.29 +0.01    -0.251 OA
DOCKED: BRANCH  45  47
DOCKED: ATOM     47  O   UNL d   1       5.912  -3.292  -5.837 -0.17 -0.04    -0.481 OA
DOCKED: ATOM     48  H   UNL d   1       5.077  -3.232  -5.327 +0.21 +0.03    +0.295 HD
DOCKED: ENDBRANCH  45  47
DOCKED: ENDBRANCH  44  45
DOCKED: ENDBRANCH   8  44
DOCKED: BRANCH  22  49
DOCKED: ATOM     49  C   UNL d   1      -0.264  -8.997  -0.008 -0.52 -0.00    +0.048 C 
DOCKED: BRANCH  49  50
DOCKED: ATOM     50  C   UNL d   1       0.790  -9.202   1.079 -0.49 -0.00    +0.125 C 
DOCKED: BRANCH  50  51
DOCKED: ATOM     51  C   UNL d   1       0.150  -9.306   2.434 -0.43 -0.00    +0.305 C 
DOCKED: ATOM     52  O   UNL d   1       0.487 -10.020   3.362 -0.43 -0.00    -0.251 OA
DOCKED: BRANCH  51  53
DOCKED: ATOM     53  O   UNL d   1      -0.918  -8.492   2.551 -0.24 +0.03    -0.481 OA
DOCKED: ATOM     54  H   UNL d   1      -1.553  -8.836   1.887 -0.19 -0.07    +0.295 HD
DOCKED: ENDBRANCH  51  53
DOCKED: ENDBRANCH  50  51
DOCKED: ENDBRANCH  49  50
DOCKED: ENDBRANCH  22  49
DOCKED: TORSDOF 13
DOCKED: TER
DOCKED: ENDMDL
________________________________________________________________________________


	BEGINNING GENETIC ALGORITHM DOCKING 38 of 100
Run: 38 Seed: 1136511210 789185826 [ Run 38 of 100 GA/GALS ]
Beginning LAMARCKIAN GENETIC ALGORITHM (LGA), with a maximum of 25000000 energy evaluations.

Final-Value: -12.377


	FINAL GENETIC ALGORITHM DOCKED STATE
	_______________________________________________


Detailed state:  trans 1.881 -6.772 -7.608 quatxyzw -0.728968 0.092013 -0.630306 0.250706 center 0.153 0.018 -0.028 ntor 13 -115.4524 145.7684 125.2835 70.6891 67.9543 -35.8840 -48.9397 80.6670 18.6313 -141.5863 -17.4365 -14.1303 8.8755
State:	  1.881  -6.772  -7.608  -0.753  0.095 -0.651 150.961   -115.45  145.77  125.28   70.69   67.95  -35.88  -48.94   80.67   18.63 -141.59  -17.44  -14.13    8.88

DOCKED: MODEL       38
DOCKED: USER    Run = 38
DOCKED: USER    DPF = D:/Protein_go_brrr/autodock/final/1A3N/heme/dock.dpf
DOCKED: USER  
DOCKED: USER    Estimated Free Energy of Binding    =   -4.87 kcal/mol  [=(1)+(2)+(3)-(4)]
DOCKED: USER    Estimated Inhibition Constant, Ki   =  267.76 uM (micromolar)  [Temperature = 298.15 K]
DOCKED: USER    
DOCKED: USER    (1) Final Intermolecular Energy     =   -8.75 kcal/mol
DOCKED: USER        vdW + Hbond + desolv Energy     =   -8.65 kcal/mol
DOCKED: USER        Electrostatic Energy            =   -0.10 kcal/mol
DOCKED: USER    (2) Final Total Internal Energy     =   -3.63 kcal/mol
DOCKED: USER    (3) Torsional Free Energy           =   +3.88 kcal/mol
DOCKED: USER    (4) Unbound System's Energy  [=(2)] =   -3.63 kcal/mol
DOCKED: USER    
DOCKED: USER    
DOCKED: USER    NEWDPF move heme_opt.pdbqt
DOCKED: USER    NEWDPF about 0.153000 0.018000 -0.028000
DOCKED: USER    NEWDPF tran0 1.881417 -6.772306 -7.608055
DOCKED: USER    NEWDPF quaternion0 -0.728968 0.092013 -0.630306 0.250706
DOCKED: USER    NEWDPF axisangle0 -0.753017 0.095048 -0.651100 150.961368
DOCKED: USER    NEWDPF quat0 -0.753017 0.095048 -0.651100 150.961368
DOCKED: USER    NEWDPF dihe0 -115.45 145.77 125.28 70.69 67.95 -35.88 -48.94 80.67 18.63 -141.59 -17.44 -14.13 8.88 
DOCKED: USER  keepresnum = 1 
DOCKED: USER  
DOCKED: REMARK  13 active torsions:
DOCKED: REMARK  status: ('A' for Active; 'I' for Inactive)
DOCKED: REMARK    1  A    between atoms: O_3  and  C_38 
DOCKED: REMARK    2  A    between atoms: O_4  and  C_40 
DOCKED: REMARK    3  A    between atoms: O_7  and  C_46 
DOCKED: REMARK    4  A    between atoms: O_9  and  C_48 
DOCKED: REMARK    5  A    between atoms: C_15  and  C_20 
DOCKED: REMARK    6  A    between atoms: C_16  and  C_23 
DOCKED: REMARK    7  A    between atoms: C_20  and  C_38 
DOCKED: REMARK    8  A    between atoms: C_23  and  C_40 
DOCKED: REMARK    9  A    between atoms: C_32  and  C_41 
DOCKED: REMARK   10  A    between atoms: C_37  and  C_45 
DOCKED: REMARK   11  A    between atoms: C_41  and  C_44 
DOCKED: REMARK   12  A    between atoms: C_44  and  C_46 
DOCKED: REMARK   13  A    between atoms: C_47  and  C_48 
DOCKED: USER                              x       y       z     vdW  Elec       q    Type
DOCKED: USER                           _______ _______ _______ _____ _____    ______ ____
DOCKED: ROOT
DOCKED: ATOM      1  O   UNL d   1       0.629  -9.553 -12.653 -0.00 -0.07    -0.289 OA
DOCKED: ATOM      2  O   UNL d   1       2.184  -2.341 -11.256 -0.09 -0.07    -0.289 OA
DOCKED: ATOM      3  N   UNL d   1       1.174  -8.342  -9.470 -0.08 -0.12    -0.247 NA
DOCKED: ATOM      4  N   UNL d   1       1.995  -5.526  -9.942 -0.09 -0.12    -0.247 NA
DOCKED: ATOM      5  N   UNL d   1       2.884  -5.425  -7.209 -0.14 -0.09    -0.354 N 
DOCKED: ATOM      6  N   UNL d   1       2.047  -8.353  -6.734 -0.13 -0.09    -0.354 N 
DOCKED: ATOM      7  C   UNL d   1       0.835 -10.568 -10.439 -0.04 +0.02    +0.084 A 
DOCKED: ATOM      8  C   UNL d   1       1.200  -4.458 -11.991 -0.09 +0.04    +0.084 A 
DOCKED: ATOM      9  C   UNL d   1       1.318  -5.717 -11.126 -0.10 +0.03    +0.058 A 
DOCKED: ATOM     10  C   UNL d   1       1.090  -9.699  -9.204 -0.11 +0.02    +0.058 A 
DOCKED: ATOM     11  C   UNL d   1       0.771  -9.461 -11.448 -0.02 +0.06    +0.193 A 
DOCKED: ATOM     12  C   UNL d   1       0.965  -8.159 -10.733 -0.07 +0.05    +0.109 A 
DOCKED: ATOM     13  C   UNL d   1       1.966  -3.526 -11.095 -0.12 +0.07    +0.193 A 
DOCKED: ATOM     14  C   UNL d   1       2.030 -11.467 -10.766 -0.08 +0.00    +0.026 C 
DOCKED: ATOM     15  C   UNL d   1       0.848  -6.912 -11.515 -0.08 +0.03    +0.055 C 
DOCKED: ATOM     16  C   UNL d   1      -0.249  -3.969 -12.086 -0.20 +0.02    +0.026 C 
DOCKED: ATOM     17  C   UNL d   1       2.400  -4.298  -9.892 -0.18 +0.04    +0.109 A 
DOCKED: ATOM     18  C   UNL d   1       1.134 -10.230  -7.968 -0.17 +0.01    +0.050 C 
DOCKED: ATOM     19  C   UNL d   1       1.281  -9.497  -6.763 -0.23 +0.01    +0.045 A 
DOCKED: ATOM     20  C   UNL d   1       3.400  -4.241  -7.669 -0.34 +0.01    +0.045 A 
DOCKED: ATOM     21  C   UNL d   1       3.213  -3.649  -8.853 -0.34 +0.01    +0.057 C 
DOCKED: ATOM     22  C   UNL d   1       4.163  -4.605  -5.546 -0.43 -0.00    -0.019 A 
DOCKED: ATOM     23  C   UNL d   1       3.288  -5.729  -5.937 -0.31 +0.01    +0.045 A 
DOCKED: ATOM     24  C   UNL d   1       4.224  -3.727  -6.576 -0.44 -0.00    -0.022 A 
DOCKED: ATOM     25  C   UNL d   1       2.126  -7.857  -5.454 -0.33 +0.01    +0.049 A 
DOCKED: ATOM     26  C   UNL d   1       0.820  -9.728  -5.476 -0.29 -0.00    -0.018 A 
DOCKED: ATOM     27  C   UNL d   1       1.341  -8.679  -4.657 -0.35 +0.00    +0.003 A 
DOCKED: ATOM     28  C   UNL d   1       2.990  -6.770  -5.145 -0.29 +0.01    +0.052 C 
DOCKED: ATOM     29  C   UNL d   1       4.966  -2.437  -6.658 -0.25 +0.00    +0.046 C 
DOCKED: ATOM     30  C   UNL d   1      -0.052 -10.853  -5.031 -0.27 +0.01    +0.046 C 
DOCKED: ATOM     31  H   UNL d   1       2.210  -5.952  -7.754 +0.07 +0.07    +0.166 HD
DOCKED: ATOM     32  H   UNL d   1       2.513  -7.971  -7.548 +0.07 +0.04    +0.166 HD
DOCKED: ENDROOT
DOCKED: BRANCH   7  33
DOCKED: ATOM     33  C   UNL d   1      -0.477 -11.360 -10.425 -0.03 +0.03    +0.141 C 
DOCKED: BRANCH  33  34
DOCKED: ATOM     34  C   UNL d   1      -1.690 -10.472 -10.482 -0.04 +0.11    +0.306 C 
DOCKED: ATOM     35  O   UNL d   1      -2.568 -10.504 -11.328 -0.02 -0.08    -0.251 OA
DOCKED: BRANCH  34  36
DOCKED: ATOM     36  O   UNL d   1      -1.735  -9.590  -9.467 -0.05 -0.31    -0.481 OA
DOCKED: ATOM     37  H   UNL d   1      -0.933  -9.038  -9.585 +0.05 +0.22    +0.295 HD
DOCKED: ENDBRANCH  34  36
DOCKED: ENDBRANCH  33  34
DOCKED: ENDBRANCH   7  33
DOCKED: BRANCH  27  38
DOCKED: ATOM     38  C   UNL d   1       1.120  -8.544  -3.249 -0.40 +0.00    +0.017 C 
DOCKED: ATOM     39  C   UNL d   1       1.219  -7.399  -2.556 -0.34 +0.01    +0.092 C 
DOCKED: BRANCH  39  40
DOCKED: ATOM     40  C   UNL d   1       0.949  -7.392  -1.116 -0.13 +0.02    +0.330 C 
DOCKED: ATOM     41  O   UNL d   1       0.098  -8.020  -0.516 -0.32 -0.01    -0.246 OA
DOCKED: BRANCH  40  42
DOCKED: ATOM     42  O   UNL d   1       1.807  -6.571  -0.490 -0.14 -0.01    -0.477 OA
DOCKED: ATOM     43  H   UNL d   1       2.636  -6.663  -1.002 +0.13 -0.02    +0.295 HD
DOCKED: ENDBRANCH  40  42
DOCKED: ENDBRANCH  39  40
DOCKED: ENDBRANCH  27  38
DOCKED: BRANCH   8  44
DOCKED: ATOM     44  C   UNL d   1       1.848  -4.545 -13.376 -0.03 +0.04    +0.141 C 
DOCKED: BRANCH  44  45
DOCKED: ATOM     45  C   UNL d   1       1.477  -3.398 -14.279 -0.05 +0.12    +0.306 C 
DOCKED: ATOM     46  O   UNL d   1       0.559  -3.372 -15.080 -0.04 -0.10    -0.251 OA
DOCKED: BRANCH  45  47
DOCKED: ATOM     47  O   UNL d   1       2.306  -2.347 -14.143 -0.44 -0.27    -0.481 OA
DOCKED: ATOM     48  H   UNL d   1       2.276  -2.130 -13.186 +0.08 +0.13    +0.295 HD
DOCKED: ENDBRANCH  45  47
DOCKED: ENDBRANCH  44  45
DOCKED: ENDBRANCH   8  44
DOCKED: BRANCH  22  49
DOCKED: ATOM     49  C   UNL d   1       4.862  -4.501  -4.223 -0.44 +0.00    +0.048 C 
DOCKED: BRANCH  49  50
DOCKED: ATOM     50  C   UNL d   1       3.897  -4.131  -3.097 -0.41 +0.01    +0.125 C 
DOCKED: BRANCH  50  51
DOCKED: ATOM     51  C   UNL d   1       4.503  -4.420  -1.753 -0.27 +0.01    +0.305 C 
DOCKED: ATOM     52  O   UNL d   1       5.375  -3.792  -1.181 -0.30 -0.02    -0.251 OA
DOCKED: BRANCH  51  53
DOCKED: ATOM     53  O   UNL d   1       3.974  -5.524  -1.189 -0.11 +0.02    -0.481 OA
DOCKED: ATOM     54  H   UNL d   1       3.442  -5.178  -0.442 +0.19 +0.00    +0.295 HD
DOCKED: ENDBRANCH  51  53
DOCKED: ENDBRANCH  50  51
DOCKED: ENDBRANCH  49  50
DOCKED: ENDBRANCH  22  49
DOCKED: TORSDOF 13
DOCKED: TER
DOCKED: ENDMDL
________________________________________________________________________________


	BEGINNING GENETIC ALGORITHM DOCKING 39 of 100
Run: 39 Seed: 2018759716 1506445794 [ Run 39 of 100 GA/GALS ]
Beginning LAMARCKIAN GENETIC ALGORITHM (LGA), with a maximum of 25000000 energy evaluations.

Final-Value: -13.949


	FINAL GENETIC ALGORITHM DOCKED STATE
	_______________________________________________


Detailed state:  trans 5.122 -9.026 22.744 quatxyzw 0.314693 -0.409094 -0.402682 0.755948 center 0.153 0.018 -0.028 ntor 13 113.8412 -62.5874 119.2332 -180.0000 -138.0301 149.5092 -58.8706 -73.8622 32.4023 -133.3145 -53.4526 -136.8004 180.0000
State:	  5.122  -9.026  22.744   0.481 -0.625 -0.615 81.783    113.84  -62.59  119.23 -180.00 -138.03  149.51  -58.87  -73.86   32.40 -133.31  -53.45 -136.80  180.00

DOCKED: MODEL       39
DOCKED: USER    Run = 39
DOCKED: USER    DPF = D:/Protein_go_brrr/autodock/final/1A3N/heme/dock.dpf
DOCKED: USER  
DOCKED: USER    Estimated Free Energy of Binding    =   -7.68 kcal/mol  [=(1)+(2)+(3)-(4)]
DOCKED: USER    Estimated Inhibition Constant, Ki   =    2.36 uM (micromolar)  [Temperature = 298.15 K]
DOCKED: USER    
DOCKED: USER    (1) Final Intermolecular Energy     =  -11.55 kcal/mol
DOCKED: USER        vdW + Hbond + desolv Energy     =  -10.84 kcal/mol
DOCKED: USER        Electrostatic Energy            =   -0.72 kcal/mol
DOCKED: USER    (2) Final Total Internal Energy     =   -2.39 kcal/mol
DOCKED: USER    (3) Torsional Free Energy           =   +3.88 kcal/mol
DOCKED: USER    (4) Unbound System's Energy  [=(2)] =   -2.39 kcal/mol
DOCKED: USER    
DOCKED: USER    
DOCKED: USER    NEWDPF move heme_opt.pdbqt
DOCKED: USER    NEWDPF about 0.153000 0.018000 -0.028000
DOCKED: USER    NEWDPF tran0 5.121747 -9.025877 22.743737
DOCKED: USER    NEWDPF quaternion0 0.314693 -0.409094 -0.402682 0.755948
DOCKED: USER    NEWDPF axisangle0 0.480717 -0.624923 -0.615128 81.783455
DOCKED: USER    NEWDPF quat0 0.480717 -0.624923 -0.615128 81.783455
DOCKED: USER    NEWDPF dihe0 113.84 -62.59 119.23 -180.00 -138.03 149.51 -58.87 -73.86 32.40 -133.31 -53.45 -136.80 180.00 
DOCKED: USER  keepresnum = 1 
DOCKED: USER  
DOCKED: REMARK  13 active torsions:
DOCKED: REMARK  status: ('A' for Active; 'I' for Inactive)
DOCKED: REMARK    1  A    between atoms: O_3  and  C_38 
DOCKED: REMARK    2  A    between atoms: O_4  and  C_40 
DOCKED: REMARK    3  A    between atoms: O_7  and  C_46 
DOCKED: REMARK    4  A    between atoms: O_9  and  C_48 
DOCKED: REMARK    5  A    between atoms: C_15  and  C_20 
DOCKED: REMARK    6  A    between atoms: C_16  and  C_23 
DOCKED: REMARK    7  A    between atoms: C_20  and  C_38 
DOCKED: REMARK    8  A    between atoms: C_23  and  C_40 
DOCKED: REMARK    9  A    between atoms: C_32  and  C_41 
DOCKED: REMARK   10  A    between atoms: C_37  and  C_45 
DOCKED: REMARK   11  A    between atoms: C_41  and  C_44 
DOCKED: REMARK   12  A    between atoms: C_44  and  C_46 
DOCKED: REMARK   13  A    between atoms: C_47  and  C_48 
DOCKED: USER                              x       y       z     vdW  Elec       q    Type
DOCKED: USER                           _______ _______ _______ _____ _____    ______ ____
DOCKED: ROOT
DOCKED: ATOM      1  O   UNL d   1       1.982  -9.669  27.692 -0.07 +0.03    -0.289 OA
DOCKED: ATOM      2  O   UNL d   1       7.837 -13.545  25.032 -0.22 -0.00    -0.289 OA
DOCKED: ATOM      3  N   UNL d   1       3.431  -9.000  24.634 -0.12 -0.06    -0.247 NA
DOCKED: ATOM      4  N   UNL d   1       5.798 -10.797  24.593 -0.11 -0.00    -0.247 NA
DOCKED: ATOM      5  N   UNL d   1       6.777  -9.302  22.341 -0.02 -0.05    -0.354 N 
DOCKED: ATOM      6  N   UNL d   1       4.329  -7.430  22.403 -0.05 -0.07    -0.354 N 
DOCKED: ATOM      7  C   UNL d   1       1.688  -7.938  25.991 -0.17 -0.01    +0.084 A 
DOCKED: ATOM      8  C   UNL d   1       5.683 -12.828  25.947 -0.15 +0.01    +0.084 A 
DOCKED: ATOM      9  C   UNL d   1       5.056 -11.498  25.517 -0.17 +0.00    +0.058 A 
DOCKED: ATOM     10  C   UNL d   1       2.536  -7.947  24.716 -0.21 +0.00    +0.058 A 
DOCKED: ATOM     11  C   UNL d   1       2.250  -9.183  26.608 -0.09 -0.01    +0.193 A 
DOCKED: ATOM     12  C   UNL d   1       3.279  -9.748  25.679 -0.16 +0.01    +0.109 A 
DOCKED: ATOM     13  C   UNL d   1       6.937 -12.734  25.124 -0.18 -0.00    +0.193 A 
DOCKED: ATOM     14  C   UNL d   1       2.019  -6.745  26.892 -0.36 -0.00    +0.026 C 
DOCKED: ATOM     15  C   UNL d   1       3.908 -11.035  26.036 -0.18 +0.01    +0.055 C 
DOCKED: ATOM     16  C   UNL d   1       4.863 -14.026  25.460 -0.15 +0.00    +0.026 C 
DOCKED: ATOM     17  C   UNL d   1       6.888 -11.453  24.355 -0.13 -0.01    +0.109 A 
DOCKED: ATOM     18  C   UNL d   1       2.339  -7.046  23.734 -0.27 -0.00    +0.050 C 
DOCKED: ATOM     19  C   UNL d   1       3.015  -7.028  22.487 -0.29 +0.00    +0.045 A 
DOCKED: ATOM     20  C   UNL d   1       7.883 -10.064  22.616 -0.19 +0.00    +0.045 A 
DOCKED: ATOM     21  C   UNL d   1       8.011 -11.069  23.489 -0.30 -0.01    +0.057 C 
DOCKED: ATOM     22  C   UNL d   1       8.421  -8.539  21.003 -0.09 -0.00    -0.019 A 
DOCKED: ATOM     23  C   UNL d   1       7.005  -8.353  21.380 -0.12 +0.01    +0.045 A 
DOCKED: ATOM     24  C   UNL d   1       8.934  -9.554  21.737 -0.18 -0.00    -0.022 A 
DOCKED: ATOM     25  C   UNL d   1       4.809  -7.246  21.128 -0.26 +0.01    +0.049 A 
DOCKED: ATOM     26  C   UNL d   1       2.621  -6.606  21.227 -0.40 +0.00    -0.018 A 
DOCKED: ATOM     27  C   UNL d   1       3.752  -6.765  20.368 -0.38 +0.00    +0.003 A 
DOCKED: ATOM     28  C   UNL d   1       6.186  -7.443  20.832 -0.20 +0.01    +0.052 C 
DOCKED: ATOM     29  C   UNL d   1      10.313 -10.122  21.709 -0.33 +0.00    +0.046 C 
DOCKED: ATOM     30  C   UNL d   1       1.277  -6.089  20.841 -0.57 -0.01    +0.046 C 
DOCKED: ATOM     31  H   UNL d   1       5.879  -9.504  22.767 +0.07 +0.03    +0.166 HD
DOCKED: ATOM     32  H   UNL d   1       4.861  -7.773  23.194 +0.08 +0.03    +0.166 HD
DOCKED: ENDROOT
DOCKED: BRANCH   7  33
DOCKED: ATOM     33  C   UNL d   1       0.177  -8.079  25.777 -0.16 -0.02    +0.141 C 
DOCKED: BRANCH  33  34
DOCKED: ATOM     34  C   UNL d   1      -0.244  -9.504  25.545 -0.11 -0.04    +0.306 C 
DOCKED: ATOM     35  O   UNL d   1      -0.221 -10.099  24.481 -0.74 -0.03    -0.251 OA
DOCKED: BRANCH  34  36
DOCKED: ATOM     36  O   UNL d   1      -0.672 -10.107  26.669 -0.01 +0.06    -0.481 OA
DOCKED: ATOM     37  H   UNL d   1       0.133 -10.200  27.221 +0.07 -0.02    +0.295 HD
DOCKED: ENDBRANCH  34  36
DOCKED: ENDBRANCH  33  34
DOCKED: ENDBRANCH   7  33
DOCKED: BRANCH  27  38
DOCKED: ATOM     38  C   UNL d   1       3.785  -6.431  18.976 -0.44 +0.00    +0.017 C 
DOCKED: ATOM     39  C   UNL d   1       3.946  -5.195  18.479 -0.39 -0.01    +0.092 C 
DOCKED: BRANCH  39  40
DOCKED: ATOM     40  C   UNL d   1       3.978  -4.989  17.029 -0.27 +0.03    +0.330 C 
DOCKED: ATOM     41  O   UNL d   1       3.583  -4.022  16.406 -0.66 -0.06    -0.246 OA
DOCKED: BRANCH  40  42
DOCKED: ATOM     42  O   UNL d   1       4.536  -6.050  16.425 -0.12 -0.04    -0.477 OA
DOCKED: ATOM     43  H   UNL d   1       3.817  -6.405  15.863 -0.10 -0.04    +0.295 HD
DOCKED: ENDBRANCH  40  42
DOCKED: ENDBRANCH  39  40
DOCKED: ENDBRANCH  27  38
DOCKED: BRANCH   8  44
DOCKED: ATOM     44  C   UNL d   1       6.013 -12.951  27.438 -0.22 +0.01    +0.141 C 
DOCKED: BRANCH  44  45
DOCKED: ATOM     45  C   UNL d   1       6.561 -14.301  27.816 -0.13 +0.14    +0.306 C 
DOCKED: ATOM     46  O   UNL d   1       5.958 -15.199  28.377 -0.08 -0.10    -0.251 OA
DOCKED: BRANCH  45  47
DOCKED: ATOM     47  O   UNL d   1       7.859 -14.441  27.487 -0.72 -0.52    -0.481 OA
DOCKED: ATOM     48  H   UNL d   1       7.879 -14.346  26.511 +0.12 +0.16    +0.295 HD
DOCKED: ENDBRANCH  45  47
DOCKED: ENDBRANCH  44  45
DOCKED: ENDBRANCH   8  44
DOCKED: BRANCH  22  49
DOCKED: ATOM     49  C   UNL d   1       9.137  -7.706  19.981 -0.07 +0.01    +0.048 C 
DOCKED: BRANCH  49  50
DOCKED: ATOM     50  C   UNL d   1       9.930  -6.570  20.627 -0.12 +0.03    +0.125 C 
DOCKED: BRANCH  50  51
DOCKED: ATOM     51  C   UNL d   1      11.360  -6.583  20.165 -0.10 +0.14    +0.305 C 
DOCKED: ATOM     52  O   UNL d   1      12.264  -7.295  20.565 -0.37 -0.16    -0.251 OA
DOCKED: BRANCH  51  53
DOCKED: ATOM     53  O   UNL d   1      11.586  -5.666  19.203 -0.32 -0.29    -0.481 OA
DOCKED: ATOM     54  H   UNL d   1      10.714  -5.239  19.071 +0.08 +0.11    +0.295 HD
DOCKED: ENDBRANCH  51  53
DOCKED: ENDBRANCH  50  51
DOCKED: ENDBRANCH  49  50
DOCKED: ENDBRANCH  22  49
DOCKED: TORSDOF 13
DOCKED: TER
DOCKED: ENDMDL
________________________________________________________________________________


	BEGINNING GENETIC ALGORITHM DOCKING 40 of 100
Run: 40 Seed: 920280809 719750312 [ Run 40 of 100 GA/GALS ]
Beginning LAMARCKIAN GENETIC ALGORITHM (LGA), with a maximum of 25000000 energy evaluations.

Final-Value: -12.891


	FINAL GENETIC ALGORITHM DOCKED STATE
	_______________________________________________


Detailed state:  trans 24.654 -6.316 35.359 quatxyzw -0.617872 -0.118285 0.772271 0.088540 center 0.153 0.018 -0.028 ntor 13 94.9805 -68.7089 114.0161 -64.9602 -150.3392 -119.4879 -41.7830 112.3326 72.0127 -131.8173 -84.0361 171.6449 -19.0477
State:	 24.654  -6.316  35.359  -0.620 -0.119  0.775 169.841     94.98  -68.71  114.02  -64.96 -150.34 -119.49  -41.78  112.33   72.01 -131.82  -84.04  171.64  -19.05

DOCKED: MODEL       40
DOCKED: USER    Run = 40
DOCKED: USER    DPF = D:/Protein_go_brrr/autodock/final/1A3N/heme/dock.dpf
DOCKED: USER  
DOCKED: USER    Estimated Free Energy of Binding    =   -6.75 kcal/mol  [=(1)+(2)+(3)-(4)]
DOCKED: USER    Estimated Inhibition Constant, Ki   =   11.24 uM (micromolar)  [Temperature = 298.15 K]
DOCKED: USER    
DOCKED: USER    (1) Final Intermolecular Energy     =  -10.63 kcal/mol
DOCKED: USER        vdW + Hbond + desolv Energy     =  -10.41 kcal/mol
DOCKED: USER        Electrostatic Energy            =   -0.22 kcal/mol
DOCKED: USER    (2) Final Total Internal Energy     =   -2.26 kcal/mol
DOCKED: USER    (3) Torsional Free Energy           =   +3.88 kcal/mol
DOCKED: USER    (4) Unbound System's Energy  [=(2)] =   -2.26 kcal/mol
DOCKED: USER    
DOCKED: USER    
DOCKED: USER    NEWDPF move heme_opt.pdbqt
DOCKED: USER    NEWDPF about 0.153000 0.018000 -0.028000
DOCKED: USER    NEWDPF tran0 24.653549 -6.316103 35.359385
DOCKED: USER    NEWDPF quaternion0 -0.617872 -0.118285 0.772271 0.088540
DOCKED: USER    NEWDPF axisangle0 -0.620309 -0.118751 0.775316 169.840760
DOCKED: USER    NEWDPF quat0 -0.620309 -0.118751 0.775316 169.840760
DOCKED: USER    NEWDPF dihe0 94.98 -68.71 114.02 -64.96 -150.34 -119.49 -41.78 112.33 72.01 -131.82 -84.04 171.64 -19.05 
DOCKED: USER  keepresnum = 1 
DOCKED: USER  
DOCKED: REMARK  13 active torsions:
DOCKED: REMARK  status: ('A' for Active; 'I' for Inactive)
DOCKED: REMARK    1  A    between atoms: O_3  and  C_38 
DOCKED: REMARK    2  A    between atoms: O_4  and  C_40 
DOCKED: REMARK    3  A    between atoms: O_7  and  C_46 
DOCKED: REMARK    4  A    between atoms: O_9  and  C_48 
DOCKED: REMARK    5  A    between atoms: C_15  and  C_20 
DOCKED: REMARK    6  A    between atoms: C_16  and  C_23 
DOCKED: REMARK    7  A    between atoms: C_20  and  C_38 
DOCKED: REMARK    8  A    between atoms: C_23  and  C_40 
DOCKED: REMARK    9  A    between atoms: C_32  and  C_41 
DOCKED: REMARK   10  A    between atoms: C_37  and  C_45 
DOCKED: REMARK   11  A    between atoms: C_41  and  C_44 
DOCKED: REMARK   12  A    between atoms: C_44  and  C_46 
DOCKED: REMARK   13  A    between atoms: C_47  and  C_48 
DOCKED: USER                              x       y       z     vdW  Elec       q    Type
DOCKED: USER                           _______ _______ _______ _____ _____    ______ ____
DOCKED: ROOT
DOCKED: ATOM      1  O   UNL d   1      25.765  -8.173  40.843 -0.02 -0.17    -0.289 OA
DOCKED: ATOM      2  O   UNL d   1      25.343  -1.245  37.977 -0.15 -0.04    -0.289 OA
DOCKED: ATOM      3  N   UNL d   1      25.214  -7.568  37.492 -0.41 -0.28    -0.247 NA
DOCKED: ATOM      4  N   UNL d   1      24.908  -4.615  37.373 -0.08 -0.10    -0.247 NA
DOCKED: ATOM      5  N   UNL d   1      23.865  -4.924  34.712 -0.08 -0.08    -0.354 N 
DOCKED: ATOM      6  N   UNL d   1      24.168  -7.988  34.851 -0.12 -0.12    -0.354 N 
DOCKED: ATOM      7  C   UNL d   1      25.243  -9.570  38.906 -0.08 +0.06    +0.084 A 
DOCKED: ATOM      8  C   UNL d   1      26.008  -3.306  39.119 -0.10 +0.03    +0.084 A 
DOCKED: ATOM      9  C   UNL d   1      25.623  -4.675  38.549 -0.10 +0.03    +0.058 A 
DOCKED: ATOM     10  C   UNL d   1      25.052  -8.943  37.522 -0.10 +0.05    +0.058 A 
DOCKED: ATOM     11  C   UNL d   1      25.559  -8.308  39.651 -0.05 +0.17    +0.193 A 
DOCKED: ATOM     12  C   UNL d   1      25.537  -7.169  38.679 -0.02 +0.13    +0.109 A 
DOCKED: ATOM     13  C   UNL d   1      25.348  -2.458  38.068 -0.13 +0.04    +0.193 A 
DOCKED: ATOM     14  C   UNL d   1      23.940 -10.156  39.456 -0.05 +0.01    +0.026 C 
DOCKED: ATOM     15  C   UNL d   1      25.913  -5.828  39.171 -0.10 +0.04    +0.055 C 
DOCKED: ATOM     16  C   UNL d   1      27.521  -3.073  39.061 -0.20 +0.01    +0.026 C 
DOCKED: ATOM     17  C   UNL d   1      24.712  -3.372  37.073 -0.18 +0.03    +0.109 A 
DOCKED: ATOM     18  C   UNL d   1      24.837  -9.702  36.430 -0.18 +0.03    +0.050 C 
DOCKED: ATOM     19  C   UNL d   1      24.733  -9.218  35.101 -0.19 +0.02    +0.045 A 
DOCKED: ATOM     20  C   UNL d   1      23.585  -3.599  34.922 -0.31 +0.01    +0.045 A 
DOCKED: ATOM     21  C   UNL d   1      23.949  -2.818  35.944 -0.33 +0.01    +0.057 C 
DOCKED: ATOM     22  C   UNL d   1      22.631  -4.251  32.952 -0.43 -0.00    -0.019 A 
DOCKED: ATOM     23  C   UNL d   1      23.330  -5.407  33.547 -0.32 +0.01    +0.045 A 
DOCKED: ATOM     24  C   UNL d   1      22.787  -3.183  33.770 -0.43 -0.00    -0.022 A 
DOCKED: ATOM     25  C   UNL d   1      24.085  -7.760  33.497 -0.32 +0.01    +0.049 A 
DOCKED: ATOM     26  C   UNL d   1      25.060  -9.788  33.880 -0.26 -0.01    -0.018 A 
DOCKED: ATOM     27  C   UNL d   1      24.666  -8.855  32.872 -0.37 +0.00    +0.003 A 
DOCKED: ATOM     28  C   UNL d   1      23.396  -6.626  32.989 -0.34 +0.01    +0.052 C 
DOCKED: ATOM     29  C   UNL d   1      22.277  -1.793  33.596 -0.43 +0.01    +0.046 C 
DOCKED: ATOM     30  C   UNL d   1      25.700 -11.117  33.661 -0.28 +0.01    +0.046 C 
DOCKED: ATOM     31  H   UNL d   1      24.477  -5.438  35.336 +0.07 +0.06    +0.166 HD
DOCKED: ATOM     32  H   UNL d   1      23.828  -7.370  35.578 +0.07 +0.06    +0.166 HD
DOCKED: ENDROOT
DOCKED: BRANCH   7  33
DOCKED: ATOM     33  C   UNL d   1      26.401 -10.568  39.022 -0.08 +0.11    +0.141 C 
DOCKED: BRANCH  33  34
DOCKED: ATOM     34  C   UNL d   1      27.431 -10.145  40.034 -0.04 +0.28    +0.306 C 
DOCKED: ATOM     35  O   UNL d   1      28.466  -9.545  39.800 -0.18 -0.40    -0.251 OA
DOCKED: BRANCH  34  36
DOCKED: ATOM     36  O   UNL d   1      27.100 -10.497  41.289 -0.00 -0.21    -0.481 OA
DOCKED: ATOM     37  H   UNL d   1      26.554  -9.752  41.619 +0.01 +0.13    +0.295 HD
DOCKED: ENDBRANCH  34  36
DOCKED: ENDBRANCH  33  34
DOCKED: ENDBRANCH   7  33
DOCKED: BRANCH  27  38
DOCKED: ATOM     38  C   UNL d   1      24.810  -9.055  31.462 -0.46 +0.00    +0.017 C 
DOCKED: ATOM     39  C   UNL d   1      24.809 -10.246  30.844 -0.43 +0.01    +0.092 C 
DOCKED: BRANCH  39  40
DOCKED: ATOM     40  C   UNL d   1      24.948 -10.313  29.387 -0.31 +0.01    +0.330 C 
DOCKED: ATOM     41  O   UNL d   1      24.175 -10.807  28.588 -0.35 -0.01    -0.246 OA
DOCKED: BRANCH  40  42
DOCKED: ATOM     42  O   UNL d   1      26.091  -9.723  29.004 -0.06 -0.01    -0.477 OA
DOCKED: ATOM     43  H   UNL d   1      26.643 -10.466  28.685 -0.33 -0.05    +0.295 HD
DOCKED: ENDBRANCH  40  42
DOCKED: ENDBRANCH  39  40
DOCKED: ENDBRANCH  27  38
DOCKED: BRANCH   8  44
DOCKED: ATOM     44  C   UNL d   1      25.451  -2.989  40.510 -0.04 +0.04    +0.141 C 
DOCKED: BRANCH  44  45
DOCKED: ATOM     45  C   UNL d   1      25.889  -1.648  41.035 -0.07 +0.09    +0.306 C 
DOCKED: ATOM     46  O   UNL d   1      26.920  -1.405  41.638 -0.10 -0.09    -0.251 OA
DOCKED: BRANCH  45  47
DOCKED: ATOM     47  O   UNL d   1      24.986  -0.680  40.794 -0.38 -0.17    -0.481 OA
DOCKED: ATOM     48  H   UNL d   1      24.985  -0.579  39.818 +0.09 +0.08    +0.295 HD
DOCKED: ENDBRANCH  45  47
DOCKED: ENDBRANCH  44  45
DOCKED: ENDBRANCH   8  44
DOCKED: BRANCH  22  49
DOCKED: ATOM     49  C   UNL d   1      21.870  -4.300  31.659 -0.29 +0.00    +0.048 C 
DOCKED: BRANCH  49  50
DOCKED: ATOM     50  C   UNL d   1      22.662  -3.680  30.509 -0.43 +0.01    +0.125 C 
DOCKED: BRANCH  50  51
DOCKED: ATOM     51  C   UNL d   1      23.377  -4.738  29.718 -0.28 +0.02    +0.305 C 
DOCKED: ATOM     52  O   UNL d   1      23.092  -5.158  28.610 -0.30 -0.01    -0.251 OA
DOCKED: BRANCH  51  53
DOCKED: ATOM     53  O   UNL d   1      24.437  -5.237  30.385 -0.48 -0.09    -0.481 OA
DOCKED: ATOM     54  H   UNL d   1      24.196  -6.172  30.552 +0.14 +0.02    +0.295 HD
DOCKED: ENDBRANCH  51  53
DOCKED: ENDBRANCH  50  51
DOCKED: ENDBRANCH  49  50
DOCKED: ENDBRANCH  22  49
DOCKED: TORSDOF 13
DOCKED: TER
DOCKED: ENDMDL
________________________________________________________________________________


	BEGINNING GENETIC ALGORITHM DOCKING 41 of 100
Run: 41 Seed: 1564561386 1065646349 [ Run 41 of 100 GA/GALS ]
Beginning LAMARCKIAN GENETIC ALGORITHM (LGA), with a maximum of 25000000 energy evaluations.

Final-Value: -11.809


	FINAL GENETIC ALGORITHM DOCKED STATE
	_______________________________________________


Detailed state:  trans 19.413 -16.307 -0.365 quatxyzw -0.497057 -0.223253 -0.052594 0.836855 center 0.153 0.018 -0.028 ntor 13 141.6156 115.9214 -160.3790 -127.5605 73.3039 -4.4336 133.0852 -26.0081 154.7470 -14.7634 135.1589 5.1484 31.8123
State:	 19.413 -16.307  -0.365  -0.908 -0.408 -0.096 66.381    141.62  115.92 -160.38 -127.56   73.30   -4.43  133.09  -26.01  154.75  -14.76  135.16    5.15   31.81

DOCKED: MODEL       41
DOCKED: USER    Run = 41
DOCKED: USER    DPF = D:/Protein_go_brrr/autodock/final/1A3N/heme/dock.dpf
DOCKED: USER  
DOCKED: USER    Estimated Free Energy of Binding    =   -4.32 kcal/mol  [=(1)+(2)+(3)-(4)]
DOCKED: USER    Estimated Inhibition Constant, Ki   =  687.12 uM (micromolar)  [Temperature = 298.15 K]
DOCKED: USER    
DOCKED: USER    (1) Final Intermolecular Energy     =   -8.19 kcal/mol
DOCKED: USER        vdW + Hbond + desolv Energy     =   -7.64 kcal/mol
DOCKED: USER        Electrostatic Energy            =   -0.55 kcal/mol
DOCKED: USER    (2) Final Total Internal Energy     =   -3.62 kcal/mol
DOCKED: USER    (3) Torsional Free Energy           =   +3.88 kcal/mol
DOCKED: USER    (4) Unbound System's Energy  [=(2)] =   -3.62 kcal/mol
DOCKED: USER    
DOCKED: USER    
DOCKED: USER    NEWDPF move heme_opt.pdbqt
DOCKED: USER    NEWDPF about 0.153000 0.018000 -0.028000
DOCKED: USER    NEWDPF tran0 19.412763 -16.306585 -0.364580
DOCKED: USER    NEWDPF quaternion0 -0.497057 -0.223253 -0.052594 0.836855
DOCKED: USER    NEWDPF axisangle0 -0.907992 -0.407824 -0.096076 66.381083
DOCKED: USER    NEWDPF quat0 -0.907992 -0.407824 -0.096076 66.381083
DOCKED: USER    NEWDPF dihe0 141.62 115.92 -160.38 -127.56 73.30 -4.43 133.09 -26.01 154.75 -14.76 135.16 5.15 31.81 
DOCKED: USER  keepresnum = 1 
DOCKED: USER  
DOCKED: REMARK  13 active torsions:
DOCKED: REMARK  status: ('A' for Active; 'I' for Inactive)
DOCKED: REMARK    1  A    between atoms: O_3  and  C_38 
DOCKED: REMARK    2  A    between atoms: O_4  and  C_40 
DOCKED: REMARK    3  A    between atoms: O_7  and  C_46 
DOCKED: REMARK    4  A    between atoms: O_9  and  C_48 
DOCKED: REMARK    5  A    between atoms: C_15  and  C_20 
DOCKED: REMARK    6  A    between atoms: C_16  and  C_23 
DOCKED: REMARK    7  A    between atoms: C_20  and  C_38 
DOCKED: REMARK    8  A    between atoms: C_23  and  C_40 
DOCKED: REMARK    9  A    between atoms: C_32  and  C_41 
DOCKED: REMARK   10  A    between atoms: C_37  and  C_45 
DOCKED: REMARK   11  A    between atoms: C_41  and  C_44 
DOCKED: REMARK   12  A    between atoms: C_44  and  C_46 
DOCKED: REMARK   13  A    between atoms: C_47  and  C_48 
DOCKED: USER                              x       y       z     vdW  Elec       q    Type
DOCKED: USER                           _______ _______ _______ _____ _____    ______ ____
DOCKED: ROOT
DOCKED: ATOM      1  O   UNL d   1      14.894 -17.725   3.147 -0.28 -0.02    -0.289 OA
DOCKED: ATOM      2  O   UNL d   1      15.714 -18.278  -4.297 -0.11 +0.23    -0.289 OA
DOCKED: ATOM      3  N   UNL d   1      17.713 -16.625   1.491 -0.12 +0.05    -0.247 NA
DOCKED: ATOM      4  N   UNL d   1      17.258 -17.525  -1.304 -0.12 +0.09    -0.247 NA
DOCKED: ATOM      5  N   UNL d   1      20.026 -16.964  -1.838 -0.05 +0.12    -0.354 N 
DOCKED: ATOM      6  N   UNL d   1      20.495 -16.050   1.069 +0.00 +0.07    -0.354 N 
DOCKED: ATOM      7  C   UNL d   1      17.064 -16.840   3.844 -0.20 -0.01    +0.084 A 
DOCKED: ATOM      8  C   UNL d   1      14.940 -17.814  -2.022 -0.28 -0.06    +0.084 A 
DOCKED: ATOM      9  C   UNL d   1      15.941 -17.516  -0.901 -0.27 -0.03    +0.058 A 
DOCKED: ATOM     10  C   UNL d   1      18.115 -16.445   2.803 -0.19 -0.01    +0.058 A 
DOCKED: ATOM     11  C   UNL d   1      15.988 -17.258   2.887 -0.24 -0.02    +0.193 A 
DOCKED: ATOM     12  C   UNL d   1      16.494 -17.056   1.492 -0.29 -0.02    +0.109 A 
DOCKED: ATOM     13  C   UNL d   1      15.934 -18.030  -3.128 -0.15 -0.13    +0.193 A 
DOCKED: ATOM     14  C   UNL d   1      17.496 -18.057   4.665 -0.19 +0.00    +0.026 C 
DOCKED: ATOM     15  C   UNL d   1      15.567 -17.316   0.372 -0.36 -0.02    +0.055 C 
DOCKED: ATOM     16  C   UNL d   1      14.085 -16.589  -2.361 -0.47 -0.03    +0.026 C 
DOCKED: ATOM     17  C   UNL d   1      17.302 -17.833  -2.561 -0.15 -0.05    +0.109 A 
DOCKED: ATOM     18  C   UNL d   1      19.287 -15.888   3.164 -0.18 -0.00    +0.050 C 
DOCKED: ATOM     19  C   UNL d   1      20.282 -15.415   2.271 -0.14 -0.01    +0.045 A 
DOCKED: ATOM     20  C   UNL d   1      19.692 -17.619  -2.994 -0.10 -0.01    +0.045 A 
DOCKED: ATOM     21  C   UNL d   1      18.487 -18.025  -3.409 -0.15 -0.02    +0.057 C 
DOCKED: ATOM     22  C   UNL d   1      21.947 -17.254  -2.979 -0.07 +0.00    -0.019 A 
DOCKED: ATOM     23  C   UNL d   1      21.367 -16.700  -1.739 -0.13 -0.01    +0.045 A 
DOCKED: ATOM     24  C   UNL d   1      20.950 -17.795  -3.719 -0.08 +0.01    -0.022 A 
DOCKED: ATOM     25  C   UNL d   1      21.560 -15.486   0.406 -0.13 -0.01    +0.049 A 
DOCKED: ATOM     26  C   UNL d   1      21.208 -14.389   2.376 -0.20 +0.00    -0.018 A 
DOCKED: ATOM     27  C   UNL d   1      21.999 -14.426   1.186 -0.19 -0.00    +0.003 A 
DOCKED: ATOM     28  C   UNL d   1      22.070 -16.070  -0.785 -0.14 -0.01    +0.052 C 
DOCKED: ATOM     29  C   UNL d   1      21.032 -18.461  -5.050 -0.03 -0.01    +0.046 C 
DOCKED: ATOM     30  C   UNL d   1      21.349 -13.429   3.508 -0.24 -0.00    +0.046 C 
DOCKED: ATOM     31  H   UNL d   1      19.315 -16.651  -1.186 +0.05 -0.05    +0.166 HD
DOCKED: ATOM     32  H   UNL d   1      19.956 -16.849   0.754 +0.04 -0.03    +0.166 HD
DOCKED: ENDROOT
DOCKED: BRANCH   7  33
DOCKED: ATOM     33  C   UNL d   1      16.570 -15.702   4.744 -0.22 -0.03    +0.141 C 
DOCKED: BRANCH  33  34
DOCKED: ATOM     34  C   UNL d   1      15.988 -16.198   6.040 -0.15 -0.01    +0.306 C 
DOCKED: ATOM     35  O   UNL d   1      16.302 -15.829   7.159 -0.17 -0.03    -0.251 OA
DOCKED: BRANCH  34  36
DOCKED: ATOM     36  O   UNL d   1      15.039 -17.133   5.857 -0.15 -0.00    -0.481 OA
DOCKED: ATOM     37  H   UNL d   1      14.520 -16.811   5.090 -0.28 -0.08    +0.295 HD
DOCKED: ENDBRANCH  34  36
DOCKED: ENDBRANCH  33  34
DOCKED: ENDBRANCH   7  33
DOCKED: BRANCH  27  38
DOCKED: ATOM     38  C   UNL d   1      23.087 -13.543   0.891 -0.24 -0.00    +0.017 C 
DOCKED: ATOM     39  C   UNL d   1      23.328 -12.983  -0.304 -0.23 -0.00    +0.092 C 
DOCKED: BRANCH  39  40
DOCKED: ATOM     40  C   UNL d   1      24.470 -12.080  -0.471 -0.18 +0.10    +0.330 C 
DOCKED: ATOM     41  O   UNL d   1      25.217 -11.659   0.392 -0.19 -0.01    -0.246 OA
DOCKED: BRANCH  40  42
DOCKED: ATOM     42  O   UNL d   1      24.616 -11.754  -1.764 -0.42 -0.42    -0.477 OA
DOCKED: ATOM     43  H   UNL d   1      24.831 -12.606  -2.198 +0.09 +0.12    +0.295 HD
DOCKED: ENDBRANCH  40  42
DOCKED: ENDBRANCH  39  40
DOCKED: ENDBRANCH  27  38
DOCKED: BRANCH   8  44
DOCKED: ATOM     44  C   UNL d   1      14.069 -19.058  -1.816 -0.22 -0.10    +0.141 C 
DOCKED: BRANCH  44  45
DOCKED: ATOM     45  C   UNL d   1      14.858 -20.339  -1.795 -0.04 -0.12    +0.306 C 
DOCKED: ATOM     46  O   UNL d   1      15.364 -20.865  -0.818 -0.03 +0.05    -0.251 OA
DOCKED: BRANCH  45  47
DOCKED: ATOM     47  O   UNL d   1      14.994 -20.881  -3.018 +0.00 +0.22    -0.481 OA
DOCKED: ATOM     48  H   UNL d   1      14.804 -20.145  -3.638 +0.06 -0.19    +0.295 HD
DOCKED: ENDBRANCH  45  47
DOCKED: ENDBRANCH  44  45
DOCKED: ENDBRANCH   8  44
DOCKED: BRANCH  22  49
DOCKED: ATOM     49  C   UNL d   1      23.408 -17.215  -3.316 -0.02 -0.01    +0.048 C 
DOCKED: BRANCH  49  50
DOCKED: ATOM     50  C   UNL d   1      23.985 -15.805  -3.189 -0.02 -0.01    +0.125 C 
DOCKED: BRANCH  50  51
DOCKED: ATOM     51  C   UNL d   1      23.060 -14.791  -3.801 -0.05 -0.01    +0.305 C 
DOCKED: ATOM     52  O   UNL d   1      22.319 -14.942  -4.757 -0.06 +0.03    -0.251 OA
DOCKED: BRANCH  51  53
DOCKED: ATOM     53  O   UNL d   1      23.126 -13.602  -3.169 -0.05 -0.14    -0.481 OA
DOCKED: ATOM     54  H   UNL d   1      24.084 -13.393  -3.155 +0.07 +0.09    +0.295 HD
DOCKED: ENDBRANCH  51  53
DOCKED: ENDBRANCH  50  51
DOCKED: ENDBRANCH  49  50
DOCKED: ENDBRANCH  22  49
DOCKED: TORSDOF 13
DOCKED: TER
DOCKED: ENDMDL
________________________________________________________________________________


	BEGINNING GENETIC ALGORITHM DOCKING 42 of 100
Run: 42 Seed: 1000235628 2051306920 [ Run 42 of 100 GA/GALS ]
Beginning LAMARCKIAN GENETIC ALGORITHM (LGA), with a maximum of 25000000 energy evaluations.

Final-Value: -10.395


	FINAL GENETIC ALGORITHM DOCKED STATE
	_______________________________________________


Detailed state:  trans 18.595 -22.032 14.786 quatxyzw -0.243663 0.417713 -0.866975 -0.120413 center 0.153 0.018 -0.028 ntor 13 179.8530 -31.0683 12.0361 78.1372 39.3074 128.8552 24.8629 -149.8640 179.3897 -128.6315 -65.9469 7.8508 142.6320
State:	 18.595 -22.032  14.786  -0.245  0.421 -0.873 -166.168    179.85  -31.07   12.04   78.14   39.31  128.86   24.86 -149.86  179.39 -128.63  -65.95    7.85  142.63

DOCKED: MODEL       42
DOCKED: USER    Run = 42
DOCKED: USER    DPF = D:/Protein_go_brrr/autodock/final/1A3N/heme/dock.dpf
DOCKED: USER  
DOCKED: USER    Estimated Free Energy of Binding    =   -5.52 kcal/mol  [=(1)+(2)+(3)-(4)]
DOCKED: USER    Estimated Inhibition Constant, Ki   =   89.73 uM (micromolar)  [Temperature = 298.15 K]
DOCKED: USER    
DOCKED: USER    (1) Final Intermolecular Energy     =   -9.40 kcal/mol
DOCKED: USER        vdW + Hbond + desolv Energy     =   -9.19 kcal/mol
DOCKED: USER        Electrostatic Energy            =   -0.21 kcal/mol
DOCKED: USER    (2) Final Total Internal Energy     =   -1.00 kcal/mol
DOCKED: USER    (3) Torsional Free Energy           =   +3.88 kcal/mol
DOCKED: USER    (4) Unbound System's Energy  [=(2)] =   -1.00 kcal/mol
DOCKED: USER    
DOCKED: USER    
DOCKED: USER    NEWDPF move heme_opt.pdbqt
DOCKED: USER    NEWDPF about 0.153000 0.018000 -0.028000
DOCKED: USER    NEWDPF tran0 18.595337 -22.031797 14.785887
DOCKED: USER    NEWDPF quaternion0 -0.243663 0.417713 -0.866975 -0.120413
DOCKED: USER    NEWDPF axisangle0 -0.245448 0.420775 -0.873329 -166.168094
DOCKED: USER    NEWDPF quat0 -0.245448 0.420775 -0.873329 -166.168094
DOCKED: USER    NEWDPF dihe0 179.85 -31.07 12.04 78.14 39.31 128.86 24.86 -149.86 179.39 -128.63 -65.95 7.85 142.63 
DOCKED: USER  keepresnum = 1 
DOCKED: USER  
DOCKED: REMARK  13 active torsions:
DOCKED: REMARK  status: ('A' for Active; 'I' for Inactive)
DOCKED: REMARK    1  A    between atoms: O_3  and  C_38 
DOCKED: REMARK    2  A    between atoms: O_4  and  C_40 
DOCKED: REMARK    3  A    between atoms: O_7  and  C_46 
DOCKED: REMARK    4  A    between atoms: O_9  and  C_48 
DOCKED: REMARK    5  A    between atoms: C_15  and  C_20 
DOCKED: REMARK    6  A    between atoms: C_16  and  C_23 
DOCKED: REMARK    7  A    between atoms: C_20  and  C_38 
DOCKED: REMARK    8  A    between atoms: C_23  and  C_40 
DOCKED: REMARK    9  A    between atoms: C_32  and  C_41 
DOCKED: REMARK   10  A    between atoms: C_37  and  C_45 
DOCKED: REMARK   11  A    between atoms: C_41  and  C_44 
DOCKED: REMARK   12  A    between atoms: C_44  and  C_46 
DOCKED: REMARK   13  A    between atoms: C_47  and  C_48 
DOCKED: USER                              x       y       z     vdW  Elec       q    Type
DOCKED: USER                           _______ _______ _______ _____ _____    ______ ____
DOCKED: ROOT
DOCKED: ATOM      1  O   UNL d   1      23.725 -21.200  12.002 -0.31 +0.00    -0.289 OA
DOCKED: ATOM      2  O   UNL d   1      20.008 -16.871  16.884 -0.14 -0.05    -0.289 OA
DOCKED: ATOM      3  N   UNL d   1      20.640 -22.055  13.286 -0.14 +0.13    -0.247 NA
DOCKED: ATOM      4  N   UNL d   1      20.130 -19.937  15.306 -0.16 +0.04    -0.247 NA
DOCKED: ATOM      5  N   UNL d   1      17.991 -21.561  16.333 -0.09 +0.02    -0.354 N 
DOCKED: ATOM      6  N   UNL d   1      18.540 -23.763  14.246 -0.06 +0.12    -0.354 N 
DOCKED: ATOM      7  C   UNL d   1      22.293 -23.176  11.864 -0.28 -0.04    +0.084 A 
DOCKED: ATOM      8  C   UNL d   1      21.225 -17.779  14.964 -0.30 +0.01    +0.084 A 
DOCKED: ATOM      9  C   UNL d   1      21.031 -19.238  14.535 -0.32 -0.00    +0.058 A 
DOCKED: ATOM     10  C   UNL d   1      20.944 -23.213  12.589 -0.10 -0.04    +0.058 A 
DOCKED: ATOM     11  C   UNL d   1      22.688 -21.785  12.258 -0.29 -0.04    +0.193 A 
DOCKED: ATOM     12  C   UNL d   1      21.593 -21.202  13.097 -0.34 -0.02    +0.109 A 
DOCKED: ATOM     13  C   UNL d   1      20.294 -17.792  16.144 -0.17 +0.01    +0.193 A 
DOCKED: ATOM     14  C   UNL d   1      23.296 -24.165  12.463 -0.14 -0.02    +0.026 C 
DOCKED: ATOM     15  C   UNL d   1      21.721 -19.795  13.528 -0.40 +0.01    +0.055 C 
DOCKED: ATOM     16  C   UNL d   1      20.681 -16.803  13.918 -0.37 +0.00    +0.026 C 
DOCKED: ATOM     17  C   UNL d   1      19.700 -19.159  16.247 -0.21 -0.00    +0.109 A 
DOCKED: ATOM     18  C   UNL d   1      20.109 -24.261  12.466 -0.14 -0.02    +0.050 C 
DOCKED: ATOM     19  C   UNL d   1      18.810 -24.349  13.030 -0.08 -0.01    +0.045 A 
DOCKED: ATOM     20  C   UNL d   1      18.053 -20.605  17.313 -0.28 +0.01    +0.045 A 
DOCKED: ATOM     21  C   UNL d   1      18.776 -19.481  17.343 -0.40 +0.01    +0.057 C 
DOCKED: ATOM     22  C   UNL d   1      16.594 -22.238  17.965 -0.18 -0.00    -0.019 A 
DOCKED: ATOM     23  C   UNL d   1      17.137 -22.588  16.637 -0.13 -0.00    +0.045 A 
DOCKED: ATOM     24  C   UNL d   1      17.139 -21.063  18.360 -0.32 -0.00    -0.022 A 
DOCKED: ATOM     25  C   UNL d   1      17.254 -24.046  14.644 -0.06 -0.01    +0.049 A 
DOCKED: ATOM     26  C   UNL d   1      17.660 -24.998  12.610 -0.03 +0.00    -0.018 A 
DOCKED: ATOM     27  C   UNL d   1      16.675 -24.787  13.624 -0.02 -0.00    +0.003 A 
DOCKED: ATOM     28  C   UNL d   1      16.795 -23.682  15.939 -0.09 -0.00    +0.052 C 
DOCKED: ATOM     29  C   UNL d   1      16.897 -20.298  19.616 -0.43 +0.02    +0.046 C 
DOCKED: ATOM     30  C   UNL d   1      17.483 -25.766  11.344 -0.02 -0.00    +0.046 C 
DOCKED: ATOM     31  H   UNL d   1      18.480 -21.444  15.452 +0.06 -0.02    +0.166 HD
DOCKED: ATOM     32  H   UNL d   1      19.222 -23.235  14.777 -0.00 -0.10    +0.166 HD
DOCKED: ENDROOT
DOCKED: BRANCH   7  33
DOCKED: ATOM     33  C   UNL d   1      22.221 -23.303  10.338 -0.23 -0.04    +0.141 C 
DOCKED: BRANCH  33  34
DOCKED: ATOM     34  C   UNL d   1      23.209 -24.299   9.793 -0.18 -0.06    +0.306 C 
DOCKED: ATOM     35  O   UNL d   1      22.993 -25.477   9.567 -0.09 +0.03    -0.251 OA
DOCKED: BRANCH  34  36
DOCKED: ATOM     36  O   UNL d   1      24.417 -23.756   9.559 -0.18 +0.11    -0.481 OA
DOCKED: ATOM     37  H   UNL d   1      24.307 -22.806   9.778 -0.37 -0.17    +0.295 HD
DOCKED: ENDBRANCH  34  36
DOCKED: ENDBRANCH  33  34
DOCKED: ENDBRANCH   7  33
DOCKED: BRANCH  27  38
DOCKED: ATOM     38  C   UNL d   1      15.339 -25.303  13.596 -0.01 +0.00    +0.017 C 
DOCKED: ATOM     39  C   UNL d   1      14.234 -24.608  13.908 -0.00 +0.01    +0.092 C 
DOCKED: BRANCH  39  40
DOCKED: ATOM     40  C   UNL d   1      12.920 -25.250  13.822 +0.00 +0.03    +0.330 C 
DOCKED: ATOM     41  O   UNL d   1      12.066 -25.313  14.686 +0.00 -0.03    -0.246 OA
DOCKED: BRANCH  40  42
DOCKED: ATOM     42  O   UNL d   1      12.747 -25.787  12.605 +0.00 -0.04    -0.477 OA
DOCKED: ATOM     43  H   UNL d   1      12.174 -26.564  12.770 +0.00 +0.02    +0.295 HD
DOCKED: ENDBRANCH  40  42
DOCKED: ENDBRANCH  39  40
DOCKED: ENDBRANCH  27  38
DOCKED: BRANCH   8  44
DOCKED: ATOM     44  C   UNL d   1      22.647 -17.400  15.391 -0.32 +0.01    +0.141 C 
DOCKED: BRANCH  44  45
DOCKED: ATOM     45  C   UNL d   1      22.769 -15.968  15.841 -0.32 +0.02    +0.306 C 
DOCKED: ATOM     46  O   UNL d   1      21.996 -15.060  15.594 -0.32 -0.01    -0.251 OA
DOCKED: BRANCH  45  47
DOCKED: ATOM     47  O   UNL d   1      23.884 -15.749  16.561 -0.25 -0.04    -0.481 OA
DOCKED: ATOM     48  H   UNL d   1      23.761 -14.854  16.943 +0.01 +0.01    +0.295 HD
DOCKED: ENDBRANCH  45  47
DOCKED: ENDBRANCH  44  45
DOCKED: ENDBRANCH   8  44
DOCKED: BRANCH  22  49
DOCKED: ATOM     49  C   UNL d   1      15.615 -23.085  18.724 -0.15 +0.00    +0.048 C 
DOCKED: BRANCH  49  50
DOCKED: ATOM     50  C   UNL d   1      16.167 -24.483  19.002 -0.13 -0.01    +0.125 C 
DOCKED: BRANCH  50  51
DOCKED: ATOM     51  C   UNL d   1      16.353 -24.702  20.477 -0.10 -0.02    +0.305 C 
DOCKED: ATOM     52  O   UNL d   1      17.110 -25.487  21.021 -0.16 +0.02    -0.251 OA
DOCKED: BRANCH  51  53
DOCKED: ATOM     53  O   UNL d   1      15.547 -23.909  21.210 -0.06 +0.02    -0.481 OA
DOCKED: ATOM     54  H   UNL d   1      16.138 -23.193  21.524 -0.40 -0.07    +0.295 HD
DOCKED: ENDBRANCH  51  53
DOCKED: ENDBRANCH  50  51
DOCKED: ENDBRANCH  49  50
DOCKED: ENDBRANCH  22  49
DOCKED: TORSDOF 13
DOCKED: TER
DOCKED: ENDMDL
________________________________________________________________________________


	BEGINNING GENETIC ALGORITHM DOCKING 43 of 100
Run: 43 Seed: 1191905774 90659359 [ Run 43 of 100 GA/GALS ]
Beginning LAMARCKIAN GENETIC ALGORITHM (LGA), with a maximum of 25000000 energy evaluations.

Final-Value: -12.413


	FINAL GENETIC ALGORITHM DOCKED STATE
	_______________________________________________


Detailed state:  trans 18.816 -7.941 -12.528 quatxyzw 0.113106 -0.371210 -0.920736 0.040698 center 0.153 0.018 -0.028 ntor 13 -170.1219 93.2916 148.1760 135.6516 49.7376 89.7569 -48.8377 96.3166 160.8698 -104.5491 129.0754 -2.6842 -159.1683
State:	 18.816  -7.941 -12.528   0.113 -0.372 -0.921 175.335   -170.12   93.29  148.18  135.65   49.74   89.76  -48.84   96.32  160.87 -104.55  129.08   -2.68 -159.17

DOCKED: MODEL       43
DOCKED: USER    Run = 43
DOCKED: USER    DPF = D:/Protein_go_brrr/autodock/final/1A3N/heme/dock.dpf
DOCKED: USER  
DOCKED: USER    Estimated Free Energy of Binding    =   -6.33 kcal/mol  [=(1)+(2)+(3)-(4)]
DOCKED: USER    Estimated Inhibition Constant, Ki   =   23.04 uM (micromolar)  [Temperature = 298.15 K]
DOCKED: USER    
DOCKED: USER    (1) Final Intermolecular Energy     =  -10.20 kcal/mol
DOCKED: USER        vdW + Hbond + desolv Energy     =   -9.72 kcal/mol
DOCKED: USER        Electrostatic Energy            =   -0.48 kcal/mol
DOCKED: USER    (2) Final Total Internal Energy     =   -2.21 kcal/mol
DOCKED: USER    (3) Torsional Free Energy           =   +3.88 kcal/mol
DOCKED: USER    (4) Unbound System's Energy  [=(2)] =   -2.21 kcal/mol
DOCKED: USER    
DOCKED: USER    
DOCKED: USER    NEWDPF move heme_opt.pdbqt
DOCKED: USER    NEWDPF about 0.153000 0.018000 -0.028000
DOCKED: USER    NEWDPF tran0 18.816040 -7.940771 -12.528092
DOCKED: USER    NEWDPF quaternion0 0.113106 -0.371210 -0.920736 0.040698
DOCKED: USER    NEWDPF axisangle0 0.113200 -0.371517 -0.921499 175.335103
DOCKED: USER    NEWDPF quat0 0.113200 -0.371517 -0.921499 175.335103
DOCKED: USER    NEWDPF dihe0 -170.12 93.29 148.18 135.65 49.74 89.76 -48.84 96.32 160.87 -104.55 129.08 -2.68 -159.17 
DOCKED: USER  keepresnum = 1 
DOCKED: USER  
DOCKED: REMARK  13 active torsions:
DOCKED: REMARK  status: ('A' for Active; 'I' for Inactive)
DOCKED: REMARK    1  A    between atoms: O_3  and  C_38 
DOCKED: REMARK    2  A    between atoms: O_4  and  C_40 
DOCKED: REMARK    3  A    between atoms: O_7  and  C_46 
DOCKED: REMARK    4  A    between atoms: O_9  and  C_48 
DOCKED: REMARK    5  A    between atoms: C_15  and  C_20 
DOCKED: REMARK    6  A    between atoms: C_16  and  C_23 
DOCKED: REMARK    7  A    between atoms: C_20  and  C_38 
DOCKED: REMARK    8  A    between atoms: C_23  and  C_40 
DOCKED: REMARK    9  A    between atoms: C_32  and  C_41 
DOCKED: REMARK   10  A    between atoms: C_37  and  C_45 
DOCKED: REMARK   11  A    between atoms: C_41  and  C_44 
DOCKED: REMARK   12  A    between atoms: C_44  and  C_46 
DOCKED: REMARK   13  A    between atoms: C_47  and  C_48 
DOCKED: USER                              x       y       z     vdW  Elec       q    Type
DOCKED: USER                           _______ _______ _______ _____ _____    ______ ____
DOCKED: ROOT
DOCKED: ATOM      1  O   UNL d   1      23.881  -8.659  -9.598 -0.81 +0.07    -0.289 OA
DOCKED: ATOM      2  O   UNL d   1      22.448  -5.516 -16.266 -0.06 +0.03    -0.289 OA
DOCKED: ATOM      3  N   UNL d   1      20.726  -8.587 -10.990 -0.13 +0.08    -0.247 NA
DOCKED: ATOM      4  N   UNL d   1      21.089  -6.914 -13.418 -0.18 +0.08    -0.247 NA
DOCKED: ATOM      5  N   UNL d   1      18.226  -6.727 -13.604 -0.06 +0.07    -0.354 N 
DOCKED: ATOM      6  N   UNL d   1      17.859  -8.448 -11.073 -0.13 +0.05    -0.354 N 
DOCKED: ATOM      7  C   UNL d   1      21.649  -9.295  -8.832 -0.17 -0.01    +0.084 A 
DOCKED: ATOM      8  C   UNL d   1      23.322  -6.849 -14.408 -0.23 -0.02    +0.084 A 
DOCKED: ATOM      9  C   UNL d   1      22.400  -7.306 -13.272 -0.28 -0.02    +0.058 A 
DOCKED: ATOM     10  C   UNL d   1      20.431  -9.114  -9.743 -0.18 -0.01    +0.058 A 
DOCKED: ATOM     11  C   UNL d   1      22.687  -8.796  -9.791 -0.17 -0.06    +0.193 A 
DOCKED: ATOM     12  C   UNL d   1      22.006  -8.421 -11.071 -0.21 -0.04    +0.109 A 
DOCKED: ATOM     13  C   UNL d   1      22.298  -6.093 -15.206 -0.14 -0.03    +0.193 A 
DOCKED: ATOM     14  C   UNL d   1      21.604  -8.361  -7.620 -0.36 -0.00    +0.026 C 
DOCKED: ATOM     15  C   UNL d   1      22.847  -7.986 -12.205 -0.16 -0.02    +0.055 C 
DOCKED: ATOM     16  C   UNL d   1      23.822  -8.031 -15.244 -0.10 -0.00    +0.026 C 
DOCKED: ATOM     17  C   UNL d   1      20.988  -6.202 -14.495 -0.21 -0.02    +0.109 A 
DOCKED: ATOM     18  C   UNL d   1      19.205  -9.525  -9.369 -0.18 -0.01    +0.050 C 
DOCKED: ATOM     19  C   UNL d   1      18.039  -9.475 -10.175 -0.18 -0.01    +0.045 A 
DOCKED: ATOM     20  C   UNL d   1      18.584  -5.801 -14.549 -0.19 -0.00    +0.045 A 
DOCKED: ATOM     21  C   UNL d   1      19.800  -5.518 -15.026 -0.21 -0.00    +0.057 C 
DOCKED: ATOM     22  C   UNL d   1      16.321  -5.714 -14.251 -0.14 -0.00    -0.019 A 
DOCKED: ATOM     23  C   UNL d   1      16.879  -6.748 -13.357 -0.19 -0.00    +0.045 A 
DOCKED: ATOM     24  C   UNL d   1      17.335  -5.158 -14.955 -0.14 -0.00    -0.022 A 
DOCKED: ATOM     25  C   UNL d   1      16.628  -8.546 -11.679 -0.19 -0.00    +0.049 A 
DOCKED: ATOM     26  C   UNL d   1      16.913 -10.282 -10.224 -0.17 +0.00    -0.018 A 
DOCKED: ATOM     27  C   UNL d   1      16.033  -9.701 -11.190 -0.15 +0.00    +0.003 A 
DOCKED: ATOM     28  C   UNL d   1      16.150  -7.513 -12.530 -0.25 +0.00    +0.052 C 
DOCKED: ATOM     29  C   UNL d   1      17.275  -4.084 -15.987 -0.08 +0.00    +0.046 C 
DOCKED: ATOM     30  C   UNL d   1      16.667 -11.517  -9.427 -0.23 -0.00    +0.046 C 
DOCKED: ATOM     31  H   UNL d   1      18.906  -7.368 -13.211 -0.17 -0.05    +0.166 HD
DOCKED: ATOM     32  H   UNL d   1      18.535  -7.708 -11.222 -0.42 -0.07    +0.166 HD
DOCKED: ENDROOT
DOCKED: BRANCH   7  33
DOCKED: ATOM     33  C   UNL d   1      21.950 -10.740  -8.418 -0.06 -0.01    +0.141 C 
DOCKED: BRANCH  33  34
DOCKED: ATOM     34  C   UNL d   1      22.635 -10.828  -7.082 -0.06 +0.02    +0.306 C 
DOCKED: ATOM     35  O   UNL d   1      22.119 -11.160  -6.028 -0.29 -0.09    -0.251 OA
DOCKED: BRANCH  34  36
DOCKED: ATOM     36  O   UNL d   1      23.937 -10.496  -7.144 -0.05 -0.01    -0.481 OA
DOCKED: ATOM     37  H   UNL d   1      24.063 -10.163  -8.057 +0.11 -0.03    +0.295 HD
DOCKED: ENDBRANCH  34  36
DOCKED: ENDBRANCH  33  34
DOCKED: ENDBRANCH   7  33
DOCKED: BRANCH  27  38
DOCKED: ATOM     38  C   UNL d   1      14.743 -10.211 -11.543 -0.20 +0.00    +0.017 C 
DOCKED: ATOM     39  C   UNL d   1      14.194 -10.150 -12.765 -0.21 +0.03    +0.092 C 
DOCKED: BRANCH  39  40
DOCKED: ATOM     40  C   UNL d   1      12.868 -10.727 -13.000 -0.15 +0.18    +0.330 C 
DOCKED: ATOM     41  O   UNL d   1      11.786 -10.189 -12.857 -0.22 -0.09    -0.246 OA
DOCKED: BRANCH  40  42
DOCKED: ATOM     42  O   UNL d   1      12.984 -11.995 -13.425 -0.37 -0.56    -0.477 OA
DOCKED: ATOM     43  H   UNL d   1      13.084 -11.909 -14.395 +0.04 +0.19    +0.295 HD
DOCKED: ENDBRANCH  40  42
DOCKED: ENDBRANCH  39  40
DOCKED: ENDBRANCH  27  38
DOCKED: BRANCH   8  44
DOCKED: ATOM     44  C   UNL d   1      24.479  -5.935 -13.993 -0.15 -0.04    +0.141 C 
DOCKED: BRANCH  44  45
DOCKED: ATOM     45  C   UNL d   1      24.959  -5.041 -15.105 -0.22 -0.07    +0.306 C 
DOCKED: ATOM     46  O   UNL d   1      25.866  -5.275 -15.885 -0.15 +0.05    -0.251 OA
DOCKED: BRANCH  45  47
DOCKED: ATOM     47  O   UNL d   1      24.284  -3.878 -15.159 -0.45 +0.06    -0.481 OA
DOCKED: ATOM     48  H   UNL d   1      23.377  -4.104 -14.861 -0.18 -0.09    +0.295 HD
DOCKED: ENDBRANCH  45  47
DOCKED: ENDBRANCH  44  45
DOCKED: ENDBRANCH   8  44
DOCKED: BRANCH  22  49
DOCKED: ATOM     49  C   UNL d   1      14.865  -5.359 -14.323 -0.09 +0.00    +0.048 C 
DOCKED: BRANCH  49  50
DOCKED: ATOM     50  C   UNL d   1      14.611  -3.910 -13.907 -0.09 +0.01    +0.125 C 
DOCKED: BRANCH  50  51
DOCKED: ATOM     51  C   UNL d   1      15.276  -3.605 -12.595 -0.16 +0.02    +0.305 C 
DOCKED: ATOM     52  O   UNL d   1      16.403  -3.178 -12.415 -0.29 -0.02    -0.251 OA
DOCKED: BRANCH  51  53
DOCKED: ATOM     53  O   UNL d   1      14.471  -3.871 -11.547 -0.10 -0.03    -0.481 OA
DOCKED: ATOM     54  H   UNL d   1      13.605  -3.494 -11.810 +0.10 +0.02    +0.295 HD
DOCKED: ENDBRANCH  51  53
DOCKED: ENDBRANCH  50  51
DOCKED: ENDBRANCH  49  50
DOCKED: ENDBRANCH  22  49
DOCKED: TORSDOF 13
DOCKED: TER
DOCKED: ENDMDL
________________________________________________________________________________


	BEGINNING GENETIC ALGORITHM DOCKING 44 of 100
Run: 44 Seed: 1106888578 475516617 [ Run 44 of 100 GA/GALS ]
Beginning LAMARCKIAN GENETIC ALGORITHM (LGA), with a maximum of 25000000 energy evaluations.

Final-Value: -11.948


	FINAL GENETIC ALGORITHM DOCKED STATE
	_______________________________________________


Detailed state:  trans 19.757 3.016 -10.699 quatxyzw -0.701469 -0.181546 -0.033736 -0.688363 center 0.153 0.018 -0.028 ntor 13 163.2691 75.9643 -102.8870 -65.3685 -143.2630 55.7918 180.0000 72.1764 20.1160 15.1254 68.1210 -170.7929 115.8535
State:	 19.757   3.016 -10.699  -0.967 -0.250 -0.047 -92.999    163.27   75.96 -102.89  -65.37 -143.26   55.79  180.00   72.18   20.12   15.13   68.12 -170.79  115.85

DOCKED: MODEL       44
DOCKED: USER    Run = 44
DOCKED: USER    DPF = D:/Protein_go_brrr/autodock/final/1A3N/heme/dock.dpf
DOCKED: USER  
DOCKED: USER    Estimated Free Energy of Binding    =   -6.01 kcal/mol  [=(1)+(2)+(3)-(4)]
DOCKED: USER    Estimated Inhibition Constant, Ki   =   39.12 uM (micromolar)  [Temperature = 298.15 K]
DOCKED: USER    
DOCKED: USER    (1) Final Intermolecular Energy     =   -9.89 kcal/mol
DOCKED: USER        vdW + Hbond + desolv Energy     =   -9.16 kcal/mol
DOCKED: USER        Electrostatic Energy            =   -0.73 kcal/mol
DOCKED: USER    (2) Final Total Internal Energy     =   -2.06 kcal/mol
DOCKED: USER    (3) Torsional Free Energy           =   +3.88 kcal/mol
DOCKED: USER    (4) Unbound System's Energy  [=(2)] =   -2.06 kcal/mol
DOCKED: USER    
DOCKED: USER    
DOCKED: USER    NEWDPF move heme_opt.pdbqt
DOCKED: USER    NEWDPF about 0.153000 0.018000 -0.028000
DOCKED: USER    NEWDPF tran0 19.756763 3.016243 -10.699384
DOCKED: USER    NEWDPF quaternion0 -0.701469 -0.181546 -0.033736 -0.688363
DOCKED: USER    NEWDPF axisangle0 -0.967055 -0.250282 -0.046508 -92.998610
DOCKED: USER    NEWDPF quat0 -0.967055 -0.250282 -0.046508 -92.998610
DOCKED: USER    NEWDPF dihe0 163.27 75.96 -102.89 -65.37 -143.26 55.79 180.00 72.18 20.12 15.13 68.12 -170.79 115.85 
DOCKED: USER  keepresnum = 1 
DOCKED: USER  
DOCKED: REMARK  13 active torsions:
DOCKED: REMARK  status: ('A' for Active; 'I' for Inactive)
DOCKED: REMARK    1  A    between atoms: O_3  and  C_38 
DOCKED: REMARK    2  A    between atoms: O_4  and  C_40 
DOCKED: REMARK    3  A    between atoms: O_7  and  C_46 
DOCKED: REMARK    4  A    between atoms: O_9  and  C_48 
DOCKED: REMARK    5  A    between atoms: C_15  and  C_20 
DOCKED: REMARK    6  A    between atoms: C_16  and  C_23 
DOCKED: REMARK    7  A    between atoms: C_20  and  C_38 
DOCKED: REMARK    8  A    between atoms: C_23  and  C_40 
DOCKED: REMARK    9  A    between atoms: C_32  and  C_41 
DOCKED: REMARK   10  A    between atoms: C_37  and  C_45 
DOCKED: REMARK   11  A    between atoms: C_41  and  C_44 
DOCKED: REMARK   12  A    between atoms: C_44  and  C_46 
DOCKED: REMARK   13  A    between atoms: C_47  and  C_48 
DOCKED: USER                              x       y       z     vdW  Elec       q    Type
DOCKED: USER                           _______ _______ _______ _____ _____    ______ ____
DOCKED: ROOT
DOCKED: ATOM      1  O   UNL d   1      14.906   2.504 -14.010 -0.00 -0.03    -0.289 OA
DOCKED: ATOM      2  O   UNL d   1      16.142   0.853  -6.790 -0.79 -0.24    -0.289 OA
DOCKED: ATOM      3  N   UNL d   1      17.995   2.852 -12.517 -0.10 -0.04    -0.247 NA
DOCKED: ATOM      4  N   UNL d   1      17.441   2.268  -9.657 -0.15 -0.04    -0.247 NA
DOCKED: ATOM      5  N   UNL d   1      20.027   3.356  -9.029 -0.09 -0.09    -0.354 N 
DOCKED: ATOM      6  N   UNL d   1      20.586   3.976 -11.996 -0.07 -0.09    -0.354 N 
DOCKED: ATOM      7  C   UNL d   1      17.062   3.418 -14.711 -0.02 +0.01    +0.084 A 
DOCKED: ATOM      8  C   UNL d   1      15.529   0.829  -9.160 -0.25 +0.03    +0.084 A 
DOCKED: ATOM      9  C   UNL d   1      16.359   1.603 -10.189 -0.20 +0.01    +0.058 A 
DOCKED: ATOM     10  C   UNL d   1      18.258   3.414 -13.754 -0.07 +0.01    +0.058 A 
DOCKED: ATOM     11  C   UNL d   1      16.081   2.741 -13.801 -0.01 +0.02    +0.193 A 
DOCKED: ATOM     12  C   UNL d   1      16.774   2.425 -12.512 -0.09 +0.01    +0.109 A 
DOCKED: ATOM     13  C   UNL d   1      16.319   1.207  -7.939 -0.19 +0.09    +0.193 A 
DOCKED: ATOM     14  C   UNL d   1      16.566   4.836 -15.006 -0.01 +0.00    +0.026 C 
DOCKED: ATOM     15  C   UNL d   1      16.026   1.668 -11.488 -0.14 +0.01    +0.055 C 
DOCKED: ATOM     16  C   UNL d   1      15.637  -0.685  -9.366 -0.33 +0.01    +0.026 C 
DOCKED: ATOM     17  C   UNL d   1      17.446   2.087  -8.375 -0.28 +0.02    +0.109 A 
DOCKED: ATOM     18  C   UNL d   1      19.472   3.845 -14.145 -0.07 +0.01    +0.050 C 
DOCKED: ATOM     19  C   UNL d   1      20.652   3.802 -13.360 -0.10 +0.01    +0.045 A 
DOCKED: ATOM     20  C   UNL d   1      19.511   3.230  -7.765 -0.36 +0.01    +0.045 A 
DOCKED: ATOM     21  C   UNL d   1      18.369   2.651  -7.380 -0.35 +0.01    +0.057 C 
DOCKED: ATOM     22  C   UNL d   1      21.506   4.336  -7.641 -0.35 -0.00    -0.019 A 
DOCKED: ATOM     23  C   UNL d   1      21.229   4.011  -9.055 -0.27 +0.01    +0.045 A 
DOCKED: ATOM     24  C   UNL d   1      20.486   3.870  -6.883 -0.38 -0.00    -0.022 A 
DOCKED: ATOM     25  C   UNL d   1      21.848   3.988 -11.448 -0.14 +0.02    +0.049 A 
DOCKED: ATOM     26  C   UNL d   1      21.988   3.659 -13.702 -0.10 -0.00    -0.018 A 
DOCKED: ATOM     27  C   UNL d   1      22.737   3.758 -12.489 -0.17 +0.00    +0.003 A 
DOCKED: ATOM     28  C   UNL d   1      22.045   4.309 -10.078 -0.27 +0.02    +0.052 C 
DOCKED: ATOM     29  C   UNL d   1      20.314   3.944  -5.403 -0.49 +0.01    +0.046 C 
DOCKED: ATOM     30  C   UNL d   1      22.537   3.442 -15.072 -0.06 +0.01    +0.046 C 
DOCKED: ATOM     31  H   UNL d   1      19.574   2.924  -9.827 +0.08 +0.04    +0.166 HD
DOCKED: ATOM     32  H   UNL d   1      19.719   4.117 -11.491 +0.04 +0.04    +0.166 HD
DOCKED: ENDROOT
DOCKED: BRANCH   7  33
DOCKED: ATOM     33  C   UNL d   1      17.248   2.609 -15.999 -0.02 +0.01    +0.141 C 
DOCKED: BRANCH  33  34
DOCKED: ATOM     34  C   UNL d   1      17.330   1.128 -15.745 -0.03 +0.03    +0.306 C 
DOCKED: ATOM     35  O   UNL d   1      18.344   0.492 -15.512 -0.08 -0.03    -0.251 OA
DOCKED: BRANCH  34  36
DOCKED: ATOM     36  O   UNL d   1      16.128   0.526 -15.797 +0.00 -0.04    -0.481 OA
DOCKED: ATOM     37  H   UNL d   1      15.482   1.254 -15.678 +0.02 +0.02    +0.295 HD
DOCKED: ENDBRANCH  34  36
DOCKED: ENDBRANCH  33  34
DOCKED: ENDBRANCH   7  33
DOCKED: BRANCH  27  38
DOCKED: ATOM     38  C   UNL d   1      24.163   3.680 -12.391 -0.21 +0.01    +0.017 C 
DOCKED: ATOM     39  C   UNL d   1      25.030   4.324 -13.187 -0.11 +0.05    +0.092 C 
DOCKED: BRANCH  39  40
DOCKED: ATOM     40  C   UNL d   1      26.471   4.172 -12.970 -0.08 +0.23    +0.330 C 
DOCKED: ATOM     41  O   UNL d   1      27.109   3.139 -12.904 -0.15 -0.12    -0.246 OA
DOCKED: BRANCH  40  42
DOCKED: ATOM     42  O   UNL d   1      27.050   5.378 -12.853 -0.57 -0.69    -0.477 OA
DOCKED: ATOM     43  H   UNL d   1      27.497   5.508 -13.715 +0.06 +0.27    +0.295 HD
DOCKED: ENDBRANCH  40  42
DOCKED: ENDBRANCH  39  40
DOCKED: ENDBRANCH  27  38
DOCKED: BRANCH   8  44
DOCKED: ATOM     44  C   UNL d   1      14.067   1.267  -9.025 -0.17 +0.07    +0.141 C 
DOCKED: BRANCH  44  45
DOCKED: ATOM     45  C   UNL d   1      13.870   2.746  -9.220 -0.07 +0.16    +0.306 C 
DOCKED: ATOM     46  O   UNL d   1      12.993   3.283  -9.875 -0.11 -0.08    -0.251 OA
DOCKED: BRANCH  45  47
DOCKED: ATOM     47  O   UNL d   1      14.811   3.478  -8.596 -0.04 -0.32    -0.481 OA
DOCKED: ATOM     48  H   UNL d   1      15.607   3.394  -9.163 +0.14 +0.13    +0.295 HD
DOCKED: ENDBRANCH  45  47
DOCKED: ENDBRANCH  44  45
DOCKED: ENDBRANCH   8  44
DOCKED: BRANCH  22  49
DOCKED: ATOM     49  C   UNL d   1      22.723   5.077  -7.170 -0.27 +0.01    +0.048 C 
DOCKED: BRANCH  49  50
DOCKED: ATOM     50  C   UNL d   1      23.201   6.099  -8.201 -0.24 +0.05    +0.125 C 
DOCKED: BRANCH  50  51
DOCKED: ATOM     51  C   UNL d   1      24.512   5.681  -8.803 -0.06 +0.22    +0.305 C 
DOCKED: ATOM     52  O   UNL d   1      24.730   4.713  -9.510 -0.29 -0.17    -0.251 OA
DOCKED: BRANCH  51  53
DOCKED: ATOM     53  O   UNL d   1      25.512   6.519  -8.465 -0.69 -0.58    -0.481 OA
DOCKED: ATOM     54  H   UNL d   1      26.107   5.969  -7.912 -0.39 +0.14    +0.295 HD
DOCKED: ENDBRANCH  51  53
DOCKED: ENDBRANCH  50  51
DOCKED: ENDBRANCH  49  50
DOCKED: ENDBRANCH  22  49
DOCKED: TORSDOF 13
DOCKED: TER
DOCKED: ENDMDL
________________________________________________________________________________


	BEGINNING GENETIC ALGORITHM DOCKING 45 of 100
Run: 45 Seed: 156313864 2025294976 [ Run 45 of 100 GA/GALS ]
Beginning LAMARCKIAN GENETIC ALGORITHM (LGA), with a maximum of 25000000 energy evaluations.

Final-Value: -10.851


	FINAL GENETIC ALGORITHM DOCKED STATE
	_______________________________________________


Detailed state:  trans -8.843 25.560 15.832 quatxyzw -0.190045 -0.683479 0.482704 0.513553 center 0.153 0.018 -0.028 ntor 13 -154.8753 -177.6354 -147.3701 39.0291 44.4711 76.8971 129.2796 21.0150 161.9492 -16.7972 -70.8038 -121.0821 13.2469
State:	 -8.843  25.560  15.832  -0.221 -0.797  0.563 118.198   -154.88 -177.64 -147.37   39.03   44.47   76.90  129.28   21.02  161.95  -16.80  -70.80 -121.08   13.25

DOCKED: MODEL       45
DOCKED: USER    Run = 45
DOCKED: USER    DPF = D:/Protein_go_brrr/autodock/final/1A3N/heme/dock.dpf
DOCKED: USER  
DOCKED: USER    Estimated Free Energy of Binding    =   -2.35 kcal/mol  [=(1)+(2)+(3)-(4)]
DOCKED: USER    Estimated Inhibition Constant, Ki   =   18.93 mM (millimolar)  [Temperature = 298.15 K]
DOCKED: USER    
DOCKED: USER    (1) Final Intermolecular Energy     =   -6.23 kcal/mol
DOCKED: USER        vdW + Hbond + desolv Energy     =   -6.19 kcal/mol
DOCKED: USER        Electrostatic Energy            =   -0.04 kcal/mol
DOCKED: USER    (2) Final Total Internal Energy     =   -4.62 kcal/mol
DOCKED: USER    (3) Torsional Free Energy           =   +3.88 kcal/mol
DOCKED: USER    (4) Unbound System's Energy  [=(2)] =   -4.62 kcal/mol
DOCKED: USER    
DOCKED: USER    
DOCKED: USER    NEWDPF move heme_opt.pdbqt
DOCKED: USER    NEWDPF about 0.153000 0.018000 -0.028000
DOCKED: USER    NEWDPF tran0 -8.843012 25.559989 15.832321
DOCKED: USER    NEWDPF quaternion0 -0.190045 -0.683479 0.482704 0.513553
DOCKED: USER    NEWDPF axisangle0 -0.221482 -0.796542 0.562554 118.198495
DOCKED: USER    NEWDPF quat0 -0.221482 -0.796542 0.562554 118.198495
DOCKED: USER    NEWDPF dihe0 -154.88 -177.64 -147.37 39.03 44.47 76.90 129.28 21.02 161.95 -16.80 -70.80 -121.08 13.25 
DOCKED: USER  keepresnum = 1 
DOCKED: USER  
DOCKED: REMARK  13 active torsions:
DOCKED: REMARK  status: ('A' for Active; 'I' for Inactive)
DOCKED: REMARK    1  A    between atoms: O_3  and  C_38 
DOCKED: REMARK    2  A    between atoms: O_4  and  C_40 
DOCKED: REMARK    3  A    between atoms: O_7  and  C_46 
DOCKED: REMARK    4  A    between atoms: O_9  and  C_48 
DOCKED: REMARK    5  A    between atoms: C_15  and  C_20 
DOCKED: REMARK    6  A    between atoms: C_16  and  C_23 
DOCKED: REMARK    7  A    between atoms: C_20  and  C_38 
DOCKED: REMARK    8  A    between atoms: C_23  and  C_40 
DOCKED: REMARK    9  A    between atoms: C_32  and  C_41 
DOCKED: REMARK   10  A    between atoms: C_37  and  C_45 
DOCKED: REMARK   11  A    between atoms: C_41  and  C_44 
DOCKED: REMARK   12  A    between atoms: C_44  and  C_46 
DOCKED: REMARK   13  A    between atoms: C_47  and  C_48 
DOCKED: USER                              x       y       z     vdW  Elec       q    Type
DOCKED: USER                           _______ _______ _______ _____ _____    ______ ____
DOCKED: ROOT
DOCKED: ATOM      1  O   UNL d   1      -4.985  27.110  20.012 -0.03 -0.01    -0.289 OA
DOCKED: ATOM      2  O   UNL d   1     -12.260  25.299  20.447 -0.02 +0.00    -0.289 OA
DOCKED: ATOM      3  N   UNL d   1      -6.900  26.392  17.235 -0.08 -0.02    -0.247 NA
DOCKED: ATOM      4  N   UNL d   1      -9.490  25.516  18.400 -0.08 +0.00    -0.247 NA
DOCKED: ATOM      5  N   UNL d   1     -10.209  24.505  15.806 -0.11 +0.00    -0.354 N 
DOCKED: ATOM      6  N   UNL d   1      -7.512  25.399  14.611 -0.15 +0.01    -0.354 N 
DOCKED: ATOM      7  C   UNL d   1      -4.522  26.834  17.628 -0.16 +0.01    +0.084 A 
DOCKED: ATOM      8  C   UNL d   1     -10.066  26.372  20.615 -0.03 -0.00    +0.084 A 
DOCKED: ATOM      9  C   UNL d   1      -9.047  26.250  19.477 -0.07 +0.00    +0.058 A 
DOCKED: ATOM     10  C   UNL d   1      -5.651  26.500  16.648 -0.20 +0.01    +0.058 A 
DOCKED: ATOM     11  C   UNL d   1      -5.357  26.913  18.870 -0.04 +0.01    +0.193 A 
DOCKED: ATOM     12  C   UNL d   1      -6.784  26.652  18.497 -0.07 +0.01    +0.109 A 
DOCKED: ATOM     13  C   UNL d   1     -11.156  25.542  19.999 -0.05 -0.01    +0.193 A 
DOCKED: ATOM     14  C   UNL d   1      -3.527  25.679  17.773 -0.36 +0.00    +0.026 C 
DOCKED: ATOM     15  C   UNL d   1      -7.811  26.769  19.551 -0.06 +0.00    +0.055 C 
DOCKED: ATOM     16  C   UNL d   1     -10.571  27.810  20.772 -0.01 +0.00    +0.026 C 
DOCKED: ATOM     17  C   UNL d   1     -10.679  25.076  18.661 -0.09 -0.01    +0.109 A 
DOCKED: ATOM     18  C   UNL d   1      -5.430  26.416  15.323 -0.16 +0.01    +0.050 C 
DOCKED: ATOM     19  C   UNL d   1      -6.424  26.196  14.335 -0.18 +0.00    +0.045 A 
DOCKED: ATOM     20  C   UNL d   1     -11.228  23.977  16.555 -0.14 -0.00    +0.045 A 
DOCKED: ATOM     21  C   UNL d   1     -11.527  24.200  17.839 -0.16 -0.01    +0.057 C 
DOCKED: ATOM     22  C   UNL d   1     -11.355  23.132  14.437 -0.26 +0.00    -0.019 A 
DOCKED: ATOM     23  C   UNL d   1     -10.203  24.053  14.514 -0.26 -0.00    +0.045 A 
DOCKED: ATOM     24  C   UNL d   1     -11.958  23.092  15.649 -0.24 +0.00    -0.022 A 
DOCKED: ATOM     25  C   UNL d   1      -8.297  25.249  13.491 -0.20 +0.00    +0.049 A 
DOCKED: ATOM     26  C   UNL d   1      -6.524  26.605  13.015 -0.25 -0.00    -0.018 A 
DOCKED: ATOM     27  C   UNL d   1      -7.719  26.020  12.492 -0.23 +0.00    +0.003 A 
DOCKED: ATOM     28  C   UNL d   1      -9.393  24.344  13.484 -0.23 -0.00    +0.052 C 
DOCKED: ATOM     29  C   UNL d   1     -13.163  22.320  16.066 -0.25 +0.01    +0.046 C 
DOCKED: ATOM     30  C   UNL d   1      -5.571  27.487  12.281 -0.23 +0.01    +0.046 C 
DOCKED: ATOM     31  H   UNL d   1      -9.592  25.216  16.184 +0.05 +0.00    +0.166 HD
DOCKED: ATOM     32  H   UNL d   1      -7.671  24.959  15.509 -0.02 -0.01    +0.166 HD
DOCKED: ENDROOT
DOCKED: BRANCH   7  33
DOCKED: ATOM     33  C   UNL d   1      -3.805  28.165  17.376 -0.13 +0.04    +0.141 C 
DOCKED: BRANCH  33  34
DOCKED: ATOM     34  C   UNL d   1      -2.368  28.142  17.820 -0.17 +0.10    +0.306 C 
DOCKED: ATOM     35  O   UNL d   1      -1.396  27.961  17.107 -0.29 -0.14    -0.251 OA
DOCKED: BRANCH  34  36
DOCKED: ATOM     36  O   UNL d   1      -2.231  28.352  19.142 -0.05 -0.08    -0.481 OA
DOCKED: ATOM     37  H   UNL d   1      -3.099  28.103  19.523 +0.08 +0.04    +0.295 HD
DOCKED: ENDBRANCH  34  36
DOCKED: ENDBRANCH  33  34
DOCKED: ENDBRANCH   7  33
DOCKED: BRANCH  27  38
DOCKED: ATOM     38  C   UNL d   1      -8.195  26.175  11.151 -0.17 +0.00    +0.017 C 
DOCKED: ATOM     39  C   UNL d   1      -7.972  25.314  10.146 -0.18 +0.00    +0.092 C 
DOCKED: BRANCH  39  40
DOCKED: ATOM     40  C   UNL d   1      -8.532  25.580   8.818 -0.06 +0.00    +0.330 C 
DOCKED: ATOM     41  O   UNL d   1      -8.150  26.395   8.000 -0.06 -0.00    -0.246 OA
DOCKED: BRANCH  40  42
DOCKED: ATOM     42  O   UNL d   1      -9.574  24.767   8.585 -0.02 +0.01    -0.477 OA
DOCKED: ATOM     43  H   UNL d   1      -9.663  24.256   9.415 +0.06 -0.00    +0.295 HD
DOCKED: ENDBRANCH  40  42
DOCKED: ENDBRANCH  39  40
DOCKED: ENDBRANCH  27  38
DOCKED: BRANCH   8  44
DOCKED: ATOM     44  C   UNL d   1      -9.626  25.789  21.962 -0.05 -0.00    +0.141 C 
DOCKED: BRANCH  44  45
DOCKED: ATOM     45  C   UNL d   1      -9.469  24.292  21.938 -0.11 +0.00    +0.306 C 
DOCKED: ATOM     46  O   UNL d   1      -8.481  23.671  21.586 -0.20 +0.00    -0.251 OA
DOCKED: BRANCH  45  47
DOCKED: ATOM     47  O   UNL d   1     -10.582  23.651  22.336 -0.07 -0.03    -0.481 OA
DOCKED: ATOM     48  H   UNL d   1     -11.319  24.232  22.049 +0.07 +0.00    +0.295 HD
DOCKED: ENDBRANCH  45  47
DOCKED: ENDBRANCH  44  45
DOCKED: ENDBRANCH   8  44
DOCKED: BRANCH  22  49
DOCKED: ATOM     49  C   UNL d   1     -11.746  22.372  13.204 -0.25 -0.01    +0.048 C 
DOCKED: BRANCH  49  50
DOCKED: ATOM     50  C   UNL d   1     -12.312  23.293  12.124 -0.07 -0.01    +0.125 C 
DOCKED: BRANCH  50  51
DOCKED: ATOM     51  C   UNL d   1     -11.362  23.409  10.965 -0.05 -0.02    +0.305 C 
DOCKED: ATOM     52  O   UNL d   1     -10.405  22.699  10.716 -0.11 +0.01    -0.251 OA
DOCKED: BRANCH  51  53
DOCKED: ATOM     53  O   UNL d   1     -11.667  24.450  10.165 +0.00 +0.02    -0.481 OA
DOCKED: ATOM     54  H   UNL d   1     -11.498  24.113   9.261 +0.03 -0.01    +0.295 HD
DOCKED: ENDBRANCH  51  53
DOCKED: ENDBRANCH  50  51
DOCKED: ENDBRANCH  49  50
DOCKED: ENDBRANCH  22  49
DOCKED: TORSDOF 13
DOCKED: TER
DOCKED: ENDMDL
________________________________________________________________________________


	BEGINNING GENETIC ALGORITHM DOCKING 46 of 100
Run: 46 Seed: 1634613144 383109831 [ Run 46 of 100 GA/GALS ]
Beginning LAMARCKIAN GENETIC ALGORITHM (LGA), with a maximum of 25000000 energy evaluations.

Final-Value: -10.535


	FINAL GENETIC ALGORITHM DOCKED STATE
	_______________________________________________


Detailed state:  trans 14.443 22.458 13.852 quatxyzw 0.923673 0.187672 0.332540 -0.032001 center 0.153 0.018 -0.028 ntor 13 -160.2473 84.0739 -104.1962 -115.6088 40.4618 165.9508 178.9390 -55.3241 125.9358 -102.4471 137.8836 5.2362 -171.9562
State:	 14.443  22.458  13.852   0.924  0.188  0.333 -176.332   -160.25   84.07 -104.20 -115.61   40.46  165.95  178.94  -55.32  125.94 -102.45  137.88    5.24 -171.96

DOCKED: MODEL       46
DOCKED: USER    Run = 46
DOCKED: USER    DPF = D:/Protein_go_brrr/autodock/final/1A3N/heme/dock.dpf
DOCKED: USER  
DOCKED: USER    Estimated Free Energy of Binding    =   -4.41 kcal/mol  [=(1)+(2)+(3)-(4)]
DOCKED: USER    Estimated Inhibition Constant, Ki   =  588.10 uM (micromolar)  [Temperature = 298.15 K]
DOCKED: USER    
DOCKED: USER    (1) Final Intermolecular Energy     =   -8.29 kcal/mol
DOCKED: USER        vdW + Hbond + desolv Energy     =   -7.89 kcal/mol
DOCKED: USER        Electrostatic Energy            =   -0.40 kcal/mol
DOCKED: USER    (2) Final Total Internal Energy     =   -2.25 kcal/mol
DOCKED: USER    (3) Torsional Free Energy           =   +3.88 kcal/mol
DOCKED: USER    (4) Unbound System's Energy  [=(2)] =   -2.25 kcal/mol
DOCKED: USER    
DOCKED: USER    
DOCKED: USER    NEWDPF move heme_opt.pdbqt
DOCKED: USER    NEWDPF about 0.153000 0.018000 -0.028000
DOCKED: USER    NEWDPF tran0 14.443357 22.458056 13.851569
DOCKED: USER    NEWDPF quaternion0 0.923673 0.187672 0.332540 -0.032001
DOCKED: USER    NEWDPF axisangle0 0.924147 0.187768 0.332710 -176.332352
DOCKED: USER    NEWDPF quat0 0.924147 0.187768 0.332710 -176.332352
DOCKED: USER    NEWDPF dihe0 -160.25 84.07 -104.20 -115.61 40.46 165.95 178.94 -55.32 125.94 -102.45 137.88 5.24 -171.96 
DOCKED: USER  keepresnum = 1 
DOCKED: USER  
DOCKED: REMARK  13 active torsions:
DOCKED: REMARK  status: ('A' for Active; 'I' for Inactive)
DOCKED: REMARK    1  A    between atoms: O_3  and  C_38 
DOCKED: REMARK    2  A    between atoms: O_4  and  C_40 
DOCKED: REMARK    3  A    between atoms: O_7  and  C_46 
DOCKED: REMARK    4  A    between atoms: O_9  and  C_48 
DOCKED: REMARK    5  A    between atoms: C_15  and  C_20 
DOCKED: REMARK    6  A    between atoms: C_16  and  C_23 
DOCKED: REMARK    7  A    between atoms: C_20  and  C_38 
DOCKED: REMARK    8  A    between atoms: C_23  and  C_40 
DOCKED: REMARK    9  A    between atoms: C_32  and  C_41 
DOCKED: REMARK   10  A    between atoms: C_37  and  C_45 
DOCKED: REMARK   11  A    between atoms: C_41  and  C_44 
DOCKED: REMARK   12  A    between atoms: C_44  and  C_46 
DOCKED: REMARK   13  A    between atoms: C_47  and  C_48 
DOCKED: USER                              x       y       z     vdW  Elec       q    Type
DOCKED: USER                           _______ _______ _______ _____ _____    ______ ____
DOCKED: ROOT
DOCKED: ATOM      1  O   UNL d   1      11.424  18.869  10.279 -0.16 -0.13    -0.289 OA
DOCKED: ATOM      2  O   UNL d   1       9.995  25.871  12.586 -0.28 -0.02    -0.289 OA
DOCKED: ATOM      3  N   UNL d   1      13.444  20.548  12.515 -0.07 -0.06    -0.247 NA
DOCKED: ATOM      4  N   UNL d   1      12.273  23.279  12.576 -0.07 -0.05    -0.247 NA
DOCKED: ATOM      5  N   UNL d   1      14.655  24.170  13.917 +0.02 -0.06    -0.354 N 
DOCKED: ATOM      6  N   UNL d   1      15.871  21.339  13.831 -0.03 -0.08    -0.354 N 
DOCKED: ATOM      7  C   UNL d   1      13.575  18.401  11.341 -0.15 +0.02    +0.084 A 
DOCKED: ATOM      8  C   UNL d   1       9.901  23.490  12.027 -0.28 +0.02    +0.084 A 
DOCKED: ATOM      9  C   UNL d   1      11.151  22.611  12.136 -0.19 +0.02    +0.058 A 
DOCKED: ATOM     10  C   UNL d   1      14.202  19.408  12.310 -0.14 +0.01    +0.058 A 
DOCKED: ATOM     11  C   UNL d   1      12.320  19.166  11.049 -0.13 +0.07    +0.193 A 
DOCKED: ATOM     12  C   UNL d   1      12.347  20.437  11.839 -0.15 +0.03    +0.109 A 
DOCKED: ATOM     13  C   UNL d   1      10.529  24.788  12.451 -0.22 +0.03    +0.193 A 
DOCKED: ATOM     14  C   UNL d   1      14.385  18.266  10.049 -0.12 +0.01    +0.026 C 
DOCKED: ATOM     15  C   UNL d   1      11.162  21.317  11.782 -0.27 +0.02    +0.055 C 
DOCKED: ATOM     16  C   UNL d   1       8.839  23.097  13.058 -0.44 +0.00    +0.026 C 
DOCKED: ATOM     17  C   UNL d   1      11.970  24.525  12.749 -0.16 +0.02    +0.109 A 
DOCKED: ATOM     18  C   UNL d   1      15.349  19.137  12.961 -0.11 +0.01    +0.050 C 
DOCKED: ATOM     19  C   UNL d   1      15.958  19.969  13.935 -0.15 +0.01    +0.045 A 
DOCKED: ATOM     20  C   UNL d   1      14.067  25.380  13.651 -0.13 +0.00    +0.045 A 
DOCKED: ATOM     21  C   UNL d   1      12.854  25.629  13.150 -0.20 +0.00    +0.057 C 
DOCKED: ATOM     22  C   UNL d   1      16.156  25.744  14.502 -0.10 -0.00    -0.019 A 
DOCKED: ATOM     23  C   UNL d   1      15.918  24.288  14.433 +0.05 +0.01    +0.045 A 
DOCKED: ATOM     24  C   UNL d   1      15.056  26.385  14.039 -0.12 +0.00    -0.022 A 
DOCKED: ATOM     25  C   UNL d   1      16.604  21.946  14.824 -0.13 +0.01    +0.049 A 
DOCKED: ATOM     26  C   UNL d   1      16.737  19.678  15.044 -0.22 -0.01    -0.018 A 
DOCKED: ATOM     27  C   UNL d   1      17.126  20.930  15.613 -0.19 +0.00    +0.003 A 
DOCKED: ATOM     28  C   UNL d   1      16.795  23.355  14.832 -0.12 +0.01    +0.052 C 
DOCKED: ATOM     29  C   UNL d   1      14.810  27.850  13.923 -0.11 -0.01    +0.046 C 
DOCKED: ATOM     30  C   UNL d   1      17.097  18.322  15.549 -0.18 +0.02    +0.046 C 
DOCKED: ATOM     31  H   UNL d   1      14.143  23.301  13.806 +0.05 +0.03    +0.166 HD
DOCKED: ATOM     32  H   UNL d   1      15.365  21.814  13.093 +0.04 +0.03    +0.166 HD
DOCKED: ENDROOT
DOCKED: BRANCH   7  33
DOCKED: ATOM     33  C   UNL d   1      13.243  17.031  11.942 -0.07 +0.03    +0.141 C 
DOCKED: BRANCH  33  34
DOCKED: ATOM     34  C   UNL d   1      12.493  16.145  10.984 -0.18 +0.06    +0.306 C 
DOCKED: ATOM     35  O   UNL d   1      12.982  15.309  10.243 -0.11 -0.05    -0.251 OA
DOCKED: BRANCH  34  36
DOCKED: ATOM     36  O   UNL d   1      11.166  16.357  11.012 -0.12 -0.08    -0.481 OA
DOCKED: ATOM     37  H   UNL d   1      11.065  17.229  11.449 -0.32 +0.01    +0.295 HD
DOCKED: ENDBRANCH  34  36
DOCKED: ENDBRANCH  33  34
DOCKED: ENDBRANCH   7  33
DOCKED: BRANCH  27  38
DOCKED: ATOM     38  C   UNL d   1      17.954  21.089  16.771 -0.23 +0.01    +0.017 C 
DOCKED: ATOM     39  C   UNL d   1      17.746  21.976  17.756 -0.24 +0.03    +0.092 C 
DOCKED: BRANCH  39  40
DOCKED: ATOM     40  C   UNL d   1      18.661  22.026  18.899 -0.14 +0.12    +0.330 C 
DOCKED: ATOM     41  O   UNL d   1      18.780  22.917  19.718 -0.15 -0.12    -0.246 OA
DOCKED: BRANCH  40  42
DOCKED: ATOM     42  O   UNL d   1      19.396  20.904  18.950 -0.12 -0.17    -0.477 OA
DOCKED: ATOM     43  H   UNL d   1      18.913  20.336  19.585 -0.41 +0.02    +0.295 HD
DOCKED: ENDBRANCH  40  42
DOCKED: ENDBRANCH  39  40
DOCKED: ENDBRANCH  27  38
DOCKED: BRANCH   8  44
DOCKED: ATOM     44  C   UNL d   1       9.295  23.606  10.624 -0.37 +0.07    +0.141 C 
DOCKED: BRANCH  44  45
DOCKED: ATOM     45  C   UNL d   1       8.558  24.900  10.401 -0.21 +0.22    +0.306 C 
DOCKED: ATOM     46  O   UNL d   1       8.637  25.621   9.421 -0.30 -0.32    -0.251 OA
DOCKED: BRANCH  45  47
DOCKED: ATOM     47  O   UNL d   1       7.776  25.234  11.443 -0.07 -0.21    -0.481 OA
DOCKED: ATOM     48  H   UNL d   1       8.400  25.553  12.129 -0.32 +0.01    +0.295 HD
DOCKED: ENDBRANCH  45  47
DOCKED: ENDBRANCH  44  45
DOCKED: ENDBRANCH   8  44
DOCKED: BRANCH  22  49
DOCKED: ATOM     49  C   UNL d   1      17.428  26.367  14.995 -0.07 +0.00    +0.048 C 
DOCKED: BRANCH  49  50
DOCKED: ATOM     50  C   UNL d   1      18.281  26.906  13.846 -0.02 +0.01    +0.125 C 
DOCKED: BRANCH  50  51
DOCKED: ATOM     51  C   UNL d   1      18.279  25.953  12.685 -0.01 +0.02    +0.305 C 
DOCKED: ATOM     52  O   UNL d   1      18.684  24.804  12.665 -0.01 -0.03    -0.251 OA
DOCKED: BRANCH  51  53
DOCKED: ATOM     53  O   UNL d   1      17.764  26.515  11.573 +0.00 -0.02    -0.481 OA
DOCKED: ATOM     54  H   UNL d   1      18.388  27.240  11.362 +0.00 +0.01    +0.295 HD
DOCKED: ENDBRANCH  51  53
DOCKED: ENDBRANCH  50  51
DOCKED: ENDBRANCH  49  50
DOCKED: ENDBRANCH  22  49
DOCKED: TORSDOF 13
DOCKED: TER
DOCKED: ENDMDL
________________________________________________________________________________


	BEGINNING GENETIC ALGORITHM DOCKING 47 of 100
Run: 47 Seed: 1953949218 22412354 [ Run 47 of 100 GA/GALS ]
Beginning LAMARCKIAN GENETIC ALGORITHM (LGA), with a maximum of 25000000 energy evaluations.

Final-Value: -11.666


	FINAL GENETIC ALGORITHM DOCKED STATE
	_______________________________________________


Detailed state:  trans 7.322 -2.064 39.569 quatxyzw 0.305885 -0.837319 -0.381484 0.244543 center 0.153 0.018 -0.028 ntor 13 169.4251 -74.3016 -77.4702 -50.1032 -146.4004 -150.2390 130.1839 -22.1708 18.2598 -32.7808 -11.7530 -94.5216 -117.0787
State:	  7.322  -2.064  39.569   0.315 -0.864 -0.393 151.690    169.43  -74.30  -77.47  -50.10 -146.40 -150.24  130.18  -22.17   18.26  -32.78  -11.75  -94.52 -117.08

DOCKED: MODEL       47
DOCKED: USER    Run = 47
DOCKED: USER    DPF = D:/Protein_go_brrr/autodock/final/1A3N/heme/dock.dpf
DOCKED: USER  
DOCKED: USER    Estimated Free Energy of Binding    =   -5.64 kcal/mol  [=(1)+(2)+(3)-(4)]
DOCKED: USER    Estimated Inhibition Constant, Ki   =   73.35 uM (micromolar)  [Temperature = 298.15 K]
DOCKED: USER    
DOCKED: USER    (1) Final Intermolecular Energy     =   -9.52 kcal/mol
DOCKED: USER        vdW + Hbond + desolv Energy     =   -8.68 kcal/mol
DOCKED: USER        Electrostatic Energy            =   -0.84 kcal/mol
DOCKED: USER    (2) Final Total Internal Energy     =   -2.15 kcal/mol
DOCKED: USER    (3) Torsional Free Energy           =   +3.88 kcal/mol
DOCKED: USER    (4) Unbound System's Energy  [=(2)] =   -2.15 kcal/mol
DOCKED: USER    
DOCKED: USER    
DOCKED: USER    NEWDPF move heme_opt.pdbqt
DOCKED: USER    NEWDPF about 0.153000 0.018000 -0.028000
DOCKED: USER    NEWDPF tran0 7.322487 -2.063609 39.568963
DOCKED: USER    NEWDPF quaternion0 0.305885 -0.837319 -0.381484 0.244543
DOCKED: USER    NEWDPF axisangle0 0.315463 -0.863538 -0.393429 151.690351
DOCKED: USER    NEWDPF quat0 0.315463 -0.863538 -0.393429 151.690351
DOCKED: USER    NEWDPF dihe0 169.43 -74.30 -77.47 -50.10 -146.40 -150.24 130.18 -22.17 18.26 -32.78 -11.75 -94.52 -117.08 
DOCKED: USER  keepresnum = 1 
DOCKED: USER  
DOCKED: REMARK  13 active torsions:
DOCKED: REMARK  status: ('A' for Active; 'I' for Inactive)
DOCKED: REMARK    1  A    between atoms: O_3  and  C_38 
DOCKED: REMARK    2  A    between atoms: O_4  and  C_40 
DOCKED: REMARK    3  A    between atoms: O_7  and  C_46 
DOCKED: REMARK    4  A    between atoms: O_9  and  C_48 
DOCKED: REMARK    5  A    between atoms: C_15  and  C_20 
DOCKED: REMARK    6  A    between atoms: C_16  and  C_23 
DOCKED: REMARK    7  A    between atoms: C_20  and  C_38 
DOCKED: REMARK    8  A    between atoms: C_23  and  C_40 
DOCKED: REMARK    9  A    between atoms: C_32  and  C_41 
DOCKED: REMARK   10  A    between atoms: C_37  and  C_45 
DOCKED: REMARK   11  A    between atoms: C_41  and  C_44 
DOCKED: REMARK   12  A    between atoms: C_44  and  C_46 
DOCKED: REMARK   13  A    between atoms: C_47  and  C_48 
DOCKED: USER                              x       y       z     vdW  Elec       q    Type
DOCKED: USER                           _______ _______ _______ _____ _____    ______ ____
DOCKED: ROOT
DOCKED: ATOM      1  O   UNL d   1      10.146   1.156  43.621 -0.02 -0.01    -0.289 OA
DOCKED: ATOM      2  O   UNL d   1      12.273  -4.972  39.837 -0.31 -0.11    -0.289 OA
DOCKED: ATOM      3  N   UNL d   1       8.071  -0.489  41.412 -0.09 +0.04    -0.247 NA
DOCKED: ATOM      4  N   UNL d   1       9.846  -2.547  40.210 -0.09 -0.01    -0.247 NA
DOCKED: ATOM      5  N   UNL d   1       7.842  -2.964  38.191 -0.06 +0.04    -0.354 N 
DOCKED: ATOM      6  N   UNL d   1       6.015  -0.813  39.432 -0.05 +0.13    -0.354 N 
DOCKED: ATOM      7  C   UNL d   1       7.923   1.589  42.701 -0.13 -0.00    +0.084 A 
DOCKED: ATOM      8  C   UNL d   1      11.749  -3.300  41.546 -0.08 +0.02    +0.084 A 
DOCKED: ATOM      9  C   UNL d   1      10.558  -2.351  41.372 -0.07 +0.01    +0.058 A 
DOCKED: ATOM     10  C   UNL d   1       7.288   0.614  41.706 -0.15 -0.01    +0.058 A 
DOCKED: ATOM     11  C   UNL d   1       9.196   0.832  42.932 -0.05 +0.00    +0.193 A 
DOCKED: ATOM     12  C   UNL d   1       9.154  -0.422  42.114 -0.08 -0.00    +0.109 A 
DOCKED: ATOM     13  C   UNL d   1      11.602  -4.046  40.250 -0.18 +0.05    +0.193 A 
DOCKED: ATOM     14  C   UNL d   1       8.258   2.935  42.053 -0.03 +0.00    +0.026 C 
DOCKED: ATOM     15  C   UNL d   1      10.270  -1.380  42.252 -0.06 +0.00    +0.055 C 
DOCKED: ATOM     16  C   UNL d   1      11.531  -4.277  42.705 -0.06 +0.01    +0.026 C 
DOCKED: ATOM     17  C   UNL d   1      10.416  -3.490  39.531 -0.18 +0.01    +0.109 A 
DOCKED: ATOM     18  C   UNL d   1       6.036   0.796  41.245 -0.27 -0.01    +0.050 C 
DOCKED: ATOM     19  C   UNL d   1       5.337  -0.093  40.390 -0.26 -0.01    +0.045 A 
DOCKED: ATOM     20  C   UNL d   1       8.870  -3.696  37.657 -0.20 -0.01    +0.045 A 
DOCKED: ATOM     21  C   UNL d   1      10.052  -4.002  38.202 +0.05 -0.01    +0.057 C 
DOCKED: ATOM     22  C   UNL d   1       7.166  -3.600  36.138 -0.14 +0.00    -0.019 A 
DOCKED: ATOM     23  C   UNL d   1       6.769  -2.850  37.347 -0.15 -0.01    +0.045 A 
DOCKED: ATOM     24  C   UNL d   1       8.410  -4.100  36.329 -0.22 +0.00    -0.022 A 
DOCKED: ATOM     25  C   UNL d   1       5.137  -1.539  38.661 -0.21 -0.01    +0.049 A 
DOCKED: ATOM     26  C   UNL d   1       3.988  -0.386  40.261 -0.24 +0.00    -0.018 A 
DOCKED: ATOM     27  C   UNL d   1       3.870  -1.315  39.181 -0.23 -0.00    +0.003 A 
DOCKED: ATOM     28  C   UNL d   1       5.586  -2.239  37.508 -0.21 -0.01    +0.052 C 
DOCKED: ATOM     29  C   UNL d   1       9.233  -4.932  35.405 -0.34 -0.02    +0.046 C 
DOCKED: ATOM     30  C   UNL d   1       2.876   0.159  41.091 -0.22 -0.01    +0.046 C 
DOCKED: ATOM     31  H   UNL d   1       7.877  -2.626  39.147 +0.03 -0.02    +0.166 HD
DOCKED: ATOM     32  H   UNL d   1       7.019  -0.769  39.304 -0.45 -0.10    +0.166 HD
DOCKED: ENDROOT
DOCKED: BRANCH   7  33
DOCKED: ATOM     33  C   UNL d   1       7.161   1.774  44.018 -0.04 +0.00    +0.141 C 
DOCKED: BRANCH  33  34
DOCKED: ATOM     34  C   UNL d   1       7.137   0.522  44.854 -0.00 +0.00    +0.306 C 
DOCKED: ATOM     35  O   UNL d   1       6.273  -0.338  44.837 -0.00 +0.00    -0.251 OA
DOCKED: BRANCH  34  36
DOCKED: ATOM     36  O   UNL d   1       8.205   0.420  45.664 +0.00 -0.01    -0.481 OA
DOCKED: ATOM     37  H   UNL d   1       8.831   1.100  45.335 +0.01 +0.01    +0.295 HD
DOCKED: ENDBRANCH  34  36
DOCKED: ENDBRANCH  33  34
DOCKED: ENDBRANCH   7  33
DOCKED: BRANCH  27  38
DOCKED: ATOM     38  C   UNL d   1       2.640  -1.868  38.700 -0.27 -0.01    +0.017 C 
DOCKED: ATOM     39  C   UNL d   1       2.185  -1.767  37.442 -0.30 -0.03    +0.092 C 
DOCKED: BRANCH  39  40
DOCKED: ATOM     40  C   UNL d   1       0.914  -2.397  37.073 -0.21 -0.16    +0.330 C 
DOCKED: ATOM     41  O   UNL d   1       0.578  -2.807  35.978 -0.29 +0.07    -0.246 OA
DOCKED: BRANCH  40  42
DOCKED: ATOM     42  O   UNL d   1       0.113  -2.485  38.146 -0.12 +0.42    -0.477 OA
DOCKED: ATOM     43  H   UNL d   1      -0.559  -1.788  37.995 -0.17 -0.58    +0.295 HD
DOCKED: ENDBRANCH  40  42
DOCKED: ENDBRANCH  39  40
DOCKED: ENDBRANCH  27  38
DOCKED: BRANCH   8  44
DOCKED: ATOM     44  C   UNL d   1      13.122  -2.626  41.639 -0.08 +0.02    +0.141 C 
DOCKED: BRANCH  44  45
DOCKED: ATOM     45  C   UNL d   1      13.709  -2.285  40.295 -0.12 +0.04    +0.306 C 
DOCKED: ATOM     46  O   UNL d   1      13.506  -1.271  39.650 -0.50 -0.04    -0.251 OA
DOCKED: BRANCH  45  47
DOCKED: ATOM     47  O   UNL d   1      14.504  -3.259  39.818 -0.16 +0.01    -0.481 OA
DOCKED: ATOM     48  H   UNL d   1      13.954  -3.726  39.154 -0.42 -0.02    +0.295 HD
DOCKED: ENDBRANCH  45  47
DOCKED: ENDBRANCH  44  45
DOCKED: ENDBRANCH   8  44
DOCKED: BRANCH  22  49
DOCKED: ATOM     49  C   UNL d   1       6.308  -3.744  34.916 -0.16 -0.00    +0.048 C 
DOCKED: BRANCH  49  50
DOCKED: ATOM     50  C   UNL d   1       7.131  -4.113  33.683 -0.23 -0.02    +0.125 C 
DOCKED: BRANCH  50  51
DOCKED: ATOM     51  C   UNL d   1       6.239  -4.510  32.541 -0.17 +0.01    +0.305 C 
DOCKED: ATOM     52  O   UNL d   1       5.129  -5.010  32.604 -0.37 -0.18    -0.251 OA
DOCKED: BRANCH  51  53
DOCKED: ATOM     53  O   UNL d   1       6.809  -4.262  31.345 +0.03 +0.16    -0.481 OA
DOCKED: ATOM     54  H   UNL d   1       6.716  -5.107  30.857 -0.37 -0.50    +0.295 HD
DOCKED: ENDBRANCH  51  53
DOCKED: ENDBRANCH  50  51
DOCKED: ENDBRANCH  49  50
DOCKED: ENDBRANCH  22  49
DOCKED: TORSDOF 13
DOCKED: TER
DOCKED: ENDMDL
________________________________________________________________________________


	BEGINNING GENETIC ALGORITHM DOCKING 48 of 100
Run: 48 Seed: 665122451 1619348027 [ Run 48 of 100 GA/GALS ]
Beginning LAMARCKIAN GENETIC ALGORITHM (LGA), with a maximum of 25000000 energy evaluations.

Final-Value: -10.603


	FINAL GENETIC ALGORITHM DOCKED STATE
	_______________________________________________


Detailed state:  trans -9.172 20.776 28.712 quatxyzw 0.205703 -0.392895 -0.338727 0.829809 center 0.153 0.018 -0.028 ntor 13 129.7619 -134.9676 -105.8226 -33.3918 -134.0926 4.1233 176.6993 -167.1678 26.9321 13.1898 -69.1035 -46.8474 -16.6620
State:	 -9.172  20.776  28.712   0.369 -0.704 -0.607 67.842    129.76 -134.97 -105.82  -33.39 -134.09    4.12  176.70 -167.17   26.93   13.19  -69.10  -46.85  -16.66

DOCKED: MODEL       48
DOCKED: USER    Run = 48
DOCKED: USER    DPF = D:/Protein_go_brrr/autodock/final/1A3N/heme/dock.dpf
DOCKED: USER  
DOCKED: USER    Estimated Free Energy of Binding    =   -2.31 kcal/mol  [=(1)+(2)+(3)-(4)]
DOCKED: USER    Estimated Inhibition Constant, Ki   =   20.24 mM (millimolar)  [Temperature = 298.15 K]
DOCKED: USER    
DOCKED: USER    (1) Final Intermolecular Energy     =   -6.19 kcal/mol
DOCKED: USER        vdW + Hbond + desolv Energy     =   -5.86 kcal/mol
DOCKED: USER        Electrostatic Energy            =   -0.33 kcal/mol
DOCKED: USER    (2) Final Total Internal Energy     =   -4.41 kcal/mol
DOCKED: USER    (3) Torsional Free Energy           =   +3.88 kcal/mol
DOCKED: USER    (4) Unbound System's Energy  [=(2)] =   -4.41 kcal/mol
DOCKED: USER    
DOCKED: USER    
DOCKED: USER    NEWDPF move heme_opt.pdbqt
DOCKED: USER    NEWDPF about 0.153000 0.018000 -0.028000
DOCKED: USER    NEWDPF tran0 -9.172041 20.775660 28.711515
DOCKED: USER    NEWDPF quaternion0 0.205703 -0.392895 -0.338727 0.829809
DOCKED: USER    NEWDPF axisangle0 0.368612 -0.704054 -0.606987 67.841656
DOCKED: USER    NEWDPF quat0 0.368612 -0.704054 -0.606987 67.841656
DOCKED: USER    NEWDPF dihe0 129.76 -134.97 -105.82 -33.39 -134.09 4.12 176.70 -167.17 26.93 13.19 -69.10 -46.85 -16.66 
DOCKED: USER  keepresnum = 1 
DOCKED: USER  
DOCKED: REMARK  13 active torsions:
DOCKED: REMARK  status: ('A' for Active; 'I' for Inactive)
DOCKED: REMARK    1  A    between atoms: O_3  and  C_38 
DOCKED: REMARK    2  A    between atoms: O_4  and  C_40 
DOCKED: REMARK    3  A    between atoms: O_7  and  C_46 
DOCKED: REMARK    4  A    between atoms: O_9  and  C_48 
DOCKED: REMARK    5  A    between atoms: C_15  and  C_20 
DOCKED: REMARK    6  A    between atoms: C_16  and  C_23 
DOCKED: REMARK    7  A    between atoms: C_20  and  C_38 
DOCKED: REMARK    8  A    between atoms: C_23  and  C_40 
DOCKED: REMARK    9  A    between atoms: C_32  and  C_41 
DOCKED: REMARK   10  A    between atoms: C_37  and  C_45 
DOCKED: REMARK   11  A    between atoms: C_41  and  C_44 
DOCKED: REMARK   12  A    between atoms: C_44  and  C_46 
DOCKED: REMARK   13  A    between atoms: C_47  and  C_48 
DOCKED: USER                              x       y       z     vdW  Elec       q    Type
DOCKED: USER                           _______ _______ _______ _____ _____    ______ ____
DOCKED: ROOT
DOCKED: ATOM      1  O   UNL d   1     -12.653  20.081  33.418 -0.00 -0.02    -0.289 OA
DOCKED: ATOM      2  O   UNL d   1      -7.701  15.428  30.221 -0.26 -0.12    -0.289 OA
DOCKED: ATOM      3  N   UNL d   1     -10.917  20.886  30.549 -0.04 -0.01    -0.247 NA
DOCKED: ATOM      4  N   UNL d   1      -9.027  18.614  30.234 -0.08 -0.00    -0.247 NA
DOCKED: ATOM      5  N   UNL d   1      -7.604  20.188  28.294 -0.11 +0.05    -0.354 N 
DOCKED: ATOM      6  N   UNL d   1      -9.557  22.547  28.641 -0.04 -0.00    -0.354 N 
DOCKED: ATOM      7  C   UNL d   1     -12.444  22.089  32.041 -0.01 +0.00    +0.084 A 
DOCKED: ATOM      8  C   UNL d   1      -9.682  16.472  31.211 -0.09 +0.02    +0.084 A 
DOCKED: ATOM      9  C   UNL d   1      -9.962  17.965  31.009 -0.08 +0.01    +0.058 A 
DOCKED: ATOM     10  C   UNL d   1     -11.550  22.092  30.798 -0.04 +0.00    +0.058 A 
DOCKED: ATOM     11  C   UNL d   1     -12.219  20.662  32.441 -0.00 +0.01    +0.193 A 
DOCKED: ATOM     12  C   UNL d   1     -11.296  20.032  31.444 -0.03 +0.01    +0.109 A 
DOCKED: ATOM     13  C   UNL d   1      -8.395  16.403  30.438 -0.19 +0.06    +0.193 A 
DOCKED: ATOM     14  C   UNL d   1     -11.901  23.004  33.142 -0.00 +0.00    +0.026 C 
DOCKED: ATOM     15  C   UNL d   1     -11.001  18.592  31.582 -0.04 +0.00    +0.055 C 
DOCKED: ATOM     16  C   UNL d   1     -10.725  15.598  30.508 -0.14 -0.00    +0.026 C 
DOCKED: ATOM     17  C   UNL d   1      -8.105  17.768  29.904 -0.20 +0.01    +0.109 A 
DOCKED: ATOM     18  C   UNL d   1     -11.478  23.163  29.986 -0.05 +0.00    +0.050 C 
DOCKED: ATOM     19  C   UNL d   1     -10.746  23.228  28.773 -0.05 +0.00    +0.045 A 
DOCKED: ATOM     20  C   UNL d   1      -6.720  19.151  28.451 -0.31 -0.00    +0.045 A 
DOCKED: ATOM     21  C   UNL d   1      -6.876  18.015  29.137 -0.35 +0.01    +0.057 C 
DOCKED: ATOM     22  C   UNL d   1      -5.755  20.752  27.138 -0.30 +0.01    -0.019 A 
DOCKED: ATOM     23  C   UNL d   1      -7.109  21.202  27.518 -0.23 -0.01    +0.045 A 
DOCKED: ATOM     24  C   UNL d   1      -5.531  19.537  27.692 -0.36 +0.01    -0.022 A 
DOCKED: ATOM     25  C   UNL d   1      -8.975  22.821  27.426 -0.01 +0.00    +0.049 A 
DOCKED: ATOM     26  C   UNL d   1     -10.960  23.934  27.599 -0.05 -0.00    -0.018 A 
DOCKED: ATOM     27  C   UNL d   1      -9.848  23.658  26.744 -0.10 +0.00    +0.003 A 
DOCKED: ATOM     28  C   UNL d   1      -7.666  22.357  27.123 -0.18 -0.00    +0.052 C 
DOCKED: ATOM     29  C   UNL d   1      -4.321  18.673  27.589 -0.36 -0.03    +0.046 C 
DOCKED: ATOM     30  C   UNL d   1     -12.126  24.810  27.286 -0.05 +0.00    +0.046 C 
DOCKED: ATOM     31  H   UNL d   1      -8.547  20.136  28.664 -0.14 -0.02    +0.166 HD
DOCKED: ATOM     32  H   UNL d   1      -9.163  21.962  29.369 +0.02 -0.00    +0.166 HD
DOCKED: ENDROOT
DOCKED: BRANCH   7  33
DOCKED: ATOM     33  C   UNL d   1     -13.933  22.346  31.780 -0.01 +0.00    +0.141 C 
DOCKED: BRANCH  33  34
DOCKED: ATOM     34  C   UNL d   1     -14.628  21.158  31.173 -0.01 +0.01    +0.306 C 
DOCKED: ATOM     35  O   UNL d   1     -14.600  20.830  29.999 -0.02 -0.00    -0.251 OA
DOCKED: BRANCH  34  36
DOCKED: ATOM     36  O   UNL d   1     -15.320  20.443  32.078 -0.00 -0.01    -0.481 OA
DOCKED: ATOM     37  H   UNL d   1     -14.671  20.252  32.789 +0.00 +0.01    +0.295 HD
DOCKED: ENDBRANCH  34  36
DOCKED: ENDBRANCH  33  34
DOCKED: ENDBRANCH   7  33
DOCKED: BRANCH  27  38
DOCKED: ATOM     38  C   UNL d   1      -9.660  24.200  25.433 -0.15 +0.00    +0.017 C 
DOCKED: ATOM     39  C   UNL d   1      -8.536  24.101  24.707 -0.16 -0.00    +0.092 C 
DOCKED: BRANCH  39  40
DOCKED: ATOM     40  C   UNL d   1      -8.479  24.687  23.365 -0.06 -0.00    +0.330 C 
DOCKED: ATOM     41  O   UNL d   1      -9.346  25.319  22.792 -0.05 +0.00    -0.246 OA
DOCKED: BRANCH  40  42
DOCKED: ATOM     42  O   UNL d   1      -7.284  24.443  22.805 -0.02 +0.02    -0.477 OA
DOCKED: ATOM     43  H   UNL d   1      -7.122  23.497  23.001 +0.12 -0.02    +0.295 HD
DOCKED: ENDBRANCH  40  42
DOCKED: ENDBRANCH  39  40
DOCKED: ENDBRANCH  27  38
DOCKED: BRANCH   8  44
DOCKED: ATOM     44  C   UNL d   1      -9.475  16.029  32.663 -0.07 +0.08    +0.141 C 
DOCKED: BRANCH  44  45
DOCKED: ATOM     45  C   UNL d   1      -8.741  17.046  33.496 -0.04 +0.30    +0.306 C 
DOCKED: ATOM     46  O   UNL d   1      -9.056  17.441  34.605 -0.15 -0.19    -0.251 OA
DOCKED: BRANCH  45  47
DOCKED: ATOM     47  O   UNL d   1      -7.657  17.538  32.870 -0.40 -0.61    -0.481 OA
DOCKED: ATOM     48  H   UNL d   1      -8.017  18.132  32.178 +0.06 +0.17    +0.295 HD
DOCKED: ENDBRANCH  45  47
DOCKED: ENDBRANCH  44  45
DOCKED: ENDBRANCH   8  44
DOCKED: BRANCH  22  49
DOCKED: ATOM     49  C   UNL d   1      -4.809  21.550  26.289 -0.32 -0.02    +0.048 C 
DOCKED: BRANCH  49  50
DOCKED: ATOM     50  C   UNL d   1      -4.802  21.069  24.839 -0.19 -0.05    +0.125 C 
DOCKED: BRANCH  50  51
DOCKED: ATOM     51  C   UNL d   1      -5.407  22.099  23.928 -0.23 -0.09    +0.305 C 
DOCKED: ATOM     52  O   UNL d   1      -5.654  21.988  22.740 -0.37 +0.07    -0.251 OA
DOCKED: BRANCH  51  53
DOCKED: ATOM     53  O   UNL d   1      -5.667  23.253  24.575 -0.04 +0.09    -0.481 OA
DOCKED: ATOM     54  H   UNL d   1      -5.510  23.945  23.898 +0.11 -0.04    +0.295 HD
DOCKED: ENDBRANCH  51  53
DOCKED: ENDBRANCH  50  51
DOCKED: ENDBRANCH  49  50
DOCKED: ENDBRANCH  22  49
DOCKED: TORSDOF 13
DOCKED: TER
DOCKED: ENDMDL
________________________________________________________________________________


	BEGINNING GENETIC ALGORITHM DOCKING 49 of 100
Run: 49 Seed: 855438212 1751037385 [ Run 49 of 100 GA/GALS ]
Beginning LAMARCKIAN GENETIC ALGORITHM (LGA), with a maximum of 25000000 energy evaluations.

Final-Value: -14.979


	FINAL GENETIC ALGORITHM DOCKED STATE
	_______________________________________________


Detailed state:  trans 23.274 -6.405 33.771 quatxyzw -0.192183 0.664774 -0.013588 -0.721773 center 0.153 0.018 -0.028 ntor 13 180.0000 -179.6793 105.4374 32.2542 -156.4098 87.6973 -44.2422 75.0555 5.4424 -125.1527 -75.5579 -119.1143 2.7704
State:	 23.274  -6.405  33.771  -0.278  0.960 -0.020 -87.598    180.00 -179.68  105.44   32.25 -156.41   87.70  -44.24   75.06    5.44 -125.15  -75.56 -119.11    2.77

DOCKED: MODEL       49
DOCKED: USER    Run = 49
DOCKED: USER    DPF = D:/Protein_go_brrr/autodock/final/1A3N/heme/dock.dpf
DOCKED: USER  
DOCKED: USER    Estimated Free Energy of Binding    =   -6.52 kcal/mol  [=(1)+(2)+(3)-(4)]
DOCKED: USER    Estimated Inhibition Constant, Ki   =   16.59 uM (micromolar)  [Temperature = 298.15 K]
DOCKED: USER    
DOCKED: USER    (1) Final Intermolecular Energy     =  -10.40 kcal/mol
DOCKED: USER        vdW + Hbond + desolv Energy     =  -10.40 kcal/mol
DOCKED: USER        Electrostatic Energy            =   -0.00 kcal/mol
DOCKED: USER    (2) Final Total Internal Energy     =   -4.58 kcal/mol
DOCKED: USER    (3) Torsional Free Energy           =   +3.88 kcal/mol
DOCKED: USER    (4) Unbound System's Energy  [=(2)] =   -4.58 kcal/mol
DOCKED: USER    
DOCKED: USER    
DOCKED: USER    NEWDPF move heme_opt.pdbqt
DOCKED: USER    NEWDPF about 0.153000 0.018000 -0.028000
DOCKED: USER    NEWDPF tran0 23.273756 -6.404774 33.771033
DOCKED: USER    NEWDPF quaternion0 -0.192183 0.664774 -0.013588 -0.721773
DOCKED: USER    NEWDPF axisangle0 -0.277669 0.960476 -0.019632 -87.597900
DOCKED: USER    NEWDPF quat0 -0.277669 0.960476 -0.019632 -87.597900
DOCKED: USER    NEWDPF dihe0 180.00 -179.68 105.44 32.25 -156.41 87.70 -44.24 75.06 5.44 -125.15 -75.56 -119.11 2.77 
DOCKED: USER  keepresnum = 1 
DOCKED: USER  
DOCKED: REMARK  13 active torsions:
DOCKED: REMARK  status: ('A' for Active; 'I' for Inactive)
DOCKED: REMARK    1  A    between atoms: O_3  and  C_38 
DOCKED: REMARK    2  A    between atoms: O_4  and  C_40 
DOCKED: REMARK    3  A    between atoms: O_7  and  C_46 
DOCKED: REMARK    4  A    between atoms: O_9  and  C_48 
DOCKED: REMARK    5  A    between atoms: C_15  and  C_20 
DOCKED: REMARK    6  A    between atoms: C_16  and  C_23 
DOCKED: REMARK    7  A    between atoms: C_20  and  C_38 
DOCKED: REMARK    8  A    between atoms: C_23  and  C_40 
DOCKED: REMARK    9  A    between atoms: C_32  and  C_41 
DOCKED: REMARK   10  A    between atoms: C_37  and  C_45 
DOCKED: REMARK   11  A    between atoms: C_41  and  C_44 
DOCKED: REMARK   12  A    between atoms: C_44  and  C_46 
DOCKED: REMARK   13  A    between atoms: C_47  and  C_48 
DOCKED: USER                              x       y       z     vdW  Elec       q    Type
DOCKED: USER                           _______ _______ _______ _____ _____    ______ ____
DOCKED: ROOT
DOCKED: ATOM      1  O   UNL d   1      22.851  -3.129  38.655 -0.04 -0.04    -0.289 OA
DOCKED: ATOM      2  O   UNL d   1      22.586 -10.570  37.672 -0.07 -0.06    -0.289 OA
DOCKED: ATOM      3  N   UNL d   1      23.011  -4.610  35.544 -0.16 -0.05    -0.247 NA
DOCKED: ATOM      4  N   UNL d   1      23.139  -7.511  36.173 -0.13 -0.07    -0.247 NA
DOCKED: ATOM      5  N   UNL d   1      23.911  -7.975  33.443 -0.15 -0.06    -0.354 N 
DOCKED: ATOM      6  N   UNL d   1      23.795  -4.962  32.803 +0.12 -0.08    -0.354 N 
DOCKED: ATOM      7  C   UNL d   1      23.242  -2.318  36.382 -0.23 +0.01    +0.084 A 
DOCKED: ATOM      8  C   UNL d   1      22.159  -8.240  38.290 -0.15 +0.02    +0.084 A 
DOCKED: ATOM      9  C   UNL d   1      22.558  -7.096  37.351 -0.15 +0.02    +0.058 A 
DOCKED: ATOM     10  C   UNL d   1      23.251  -3.290  35.199 -0.31 +0.01    +0.058 A 
DOCKED: ATOM     11  C   UNL d   1      22.937  -3.320  37.455 -0.09 +0.03    +0.193 A 
DOCKED: ATOM     12  C   UNL d   1      22.794  -4.667  36.817 -0.13 +0.02    +0.109 A 
DOCKED: ATOM     13  C   UNL d   1      22.657  -9.378  37.444 -0.08 +0.05    +0.193 A 
DOCKED: ATOM     14  C   UNL d   1      24.627  -1.719  36.643 -0.40 +0.00    +0.026 C 
DOCKED: ATOM     15  C   UNL d   1      22.399  -5.803  37.673 -0.01 +0.01    +0.055 C 
DOCKED: ATOM     16  C   UNL d   1      20.639  -8.357  38.428 -0.22 +0.00    +0.026 C 
DOCKED: ATOM     17  C   UNL d   1      23.235  -8.801  36.192 -0.17 +0.03    +0.109 A 
DOCKED: ATOM     18  C   UNL d   1      23.391  -2.855  33.932 -0.46 +0.01    +0.050 C 
DOCKED: ATOM     19  C   UNL d   1      23.328  -3.667  32.772 -0.38 +0.01    +0.045 A 
DOCKED: ATOM     20  C   UNL d   1      24.138  -9.221  33.967 -0.29 +0.01    +0.045 A 
DOCKED: ATOM     21  C   UNL d   1      23.842  -9.684  35.186 -0.26 +0.02    +0.057 C 
DOCKED: ATOM     22  C   UNL d   1      24.914  -9.171  31.819 -0.41 -0.00    -0.019 A 
DOCKED: ATOM     23  C   UNL d   1      24.346  -7.849  32.151 -0.33 +0.00    +0.045 A 
DOCKED: ATOM     24  C   UNL d   1      24.787  -9.979  32.898 -0.33 -0.00    -0.022 A 
DOCKED: ATOM     25  C   UNL d   1      23.721  -5.533  31.554 -0.17 +0.01    +0.049 A 
DOCKED: ATOM     26  C   UNL d   1      22.906  -3.402  31.478 -0.46 -0.00    -0.018 A 
DOCKED: ATOM     27  C   UNL d   1      23.138  -4.590  30.718 -0.42 +0.00    +0.003 A 
DOCKED: ATOM     28  C   UNL d   1      24.289  -6.811  31.302 -0.23 +0.00    +0.052 C 
DOCKED: ATOM     29  C   UNL d   1      25.198 -11.404  33.049 -0.30 +0.01    +0.046 C 
DOCKED: ATOM     30  C   UNL d   1      22.321  -2.126  30.976 -0.54 +0.00    +0.046 C 
DOCKED: ATOM     31  H   UNL d   1      23.398  -7.271  33.963 +0.08 +0.03    +0.166 HD
DOCKED: ATOM     32  H   UNL d   1      24.175  -5.400  33.634 +0.11 +0.04    +0.166 HD
DOCKED: ENDROOT
DOCKED: BRANCH   7  33
DOCKED: ATOM     33  C   UNL d   1      22.160  -1.234  36.334 -0.29 +0.00    +0.141 C 
DOCKED: BRANCH  33  34
DOCKED: ATOM     34  C   UNL d   1      20.781  -1.801  36.137 -0.24 +0.02    +0.306 C 
DOCKED: ATOM     35  O   UNL d   1      20.149  -1.814  35.094 -0.38 -0.01    -0.251 OA
DOCKED: BRANCH  34  36
DOCKED: ATOM     36  O   UNL d   1      20.269  -2.326  37.265 -0.08 -0.03    -0.481 OA
DOCKED: ATOM     37  H   UNL d   1      20.984  -2.226  37.929 +0.09 +0.02    +0.295 HD
DOCKED: ENDBRANCH  34  36
DOCKED: ENDBRANCH  33  34
DOCKED: ENDBRANCH   7  33
DOCKED: BRANCH  27  38
DOCKED: ATOM     38  C   UNL d   1      22.858  -4.745  29.322 -0.48 +0.00    +0.017 C 
DOCKED: ATOM     39  C   UNL d   1      23.755  -4.615  28.333 -0.42 +0.01    +0.092 C 
DOCKED: BRANCH  39  40
DOCKED: ATOM     40  C   UNL d   1      23.342  -4.817  26.942 -0.10 +0.01    +0.330 C 
DOCKED: ATOM     41  O   UNL d   1      22.850  -4.001  26.186 -0.38 -0.01    -0.246 OA
DOCKED: BRANCH  40  42
DOCKED: ATOM     42  O   UNL d   1      23.589  -6.082  26.566 -0.04 -0.02    -0.477 OA
DOCKED: ATOM     43  H   UNL d   1      23.979  -6.492  27.365 +0.19 +0.01    +0.295 HD
DOCKED: ENDBRANCH  40  42
DOCKED: ENDBRANCH  39  40
DOCKED: ENDBRANCH  27  38
DOCKED: BRANCH   8  44
DOCKED: ATOM     44  C   UNL d   1      22.842  -8.236  39.661 -0.05 +0.04    +0.141 C 
DOCKED: BRANCH  44  45
DOCKED: ATOM     45  C   UNL d   1      22.510  -9.445  40.494 -0.02 +0.06    +0.306 C 
DOCKED: ATOM     46  O   UNL d   1      21.567  -9.566  41.256 -0.02 -0.04    -0.251 OA
DOCKED: BRANCH  45  47
DOCKED: ATOM     47  O   UNL d   1      23.407 -10.437  40.342 +0.00 -0.11    -0.481 OA
DOCKED: ATOM     48  H   UNL d   1      23.200 -10.826  39.466 +0.03 +0.07    +0.295 HD
DOCKED: ENDBRANCH  45  47
DOCKED: ENDBRANCH  44  45
DOCKED: ENDBRANCH   8  44
DOCKED: BRANCH  22  49
DOCKED: ATOM     49  C   UNL d   1      25.536  -9.513  30.497 -0.46 +0.00    +0.048 C 
DOCKED: BRANCH  49  50
DOCKED: ATOM     50  C   UNL d   1      24.481  -9.847  29.442 -0.45 +0.00    +0.125 C 
DOCKED: BRANCH  50  51
DOCKED: ATOM     51  C   UNL d   1      24.328  -8.719  28.461 -0.30 +0.01    +0.305 C 
DOCKED: ATOM     52  O   UNL d   1      25.133  -8.346  27.626 -0.26 -0.01    -0.251 OA
DOCKED: BRANCH  51  53
DOCKED: ATOM     53  O   UNL d   1      23.141  -8.094  28.594 -0.17 +0.02    -0.481 OA
DOCKED: ATOM     54  H   UNL d   1      22.926  -7.797  27.685 +0.20 -0.00    +0.295 HD
DOCKED: ENDBRANCH  51  53
DOCKED: ENDBRANCH  50  51
DOCKED: ENDBRANCH  49  50
DOCKED: ENDBRANCH  22  49
DOCKED: TORSDOF 13
DOCKED: TER
DOCKED: ENDMDL
________________________________________________________________________________


	BEGINNING GENETIC ALGORITHM DOCKING 50 of 100
Run: 50 Seed: 1110707876 1085114814 [ Run 50 of 100 GA/GALS ]
Beginning LAMARCKIAN GENETIC ALGORITHM (LGA), with a maximum of 25000000 energy evaluations.

Final-Value: -12.401


	FINAL GENETIC ALGORITHM DOCKED STATE
	_______________________________________________


Detailed state:  trans 10.629 8.482 37.617 quatxyzw 0.638680 -0.309139 0.278733 0.647170 center 0.153 0.018 -0.028 ntor 13 160.3964 -153.7113 -113.4830 -29.2079 -149.6805 13.1174 121.0246 -74.3862 42.5042 -29.8334 -85.1482 -68.6877 -8.3124
State:	 10.629   8.482  37.617   0.838 -0.406  0.366 99.343    160.40 -153.71 -113.48  -29.21 -149.68   13.12  121.02  -74.39   42.50  -29.83  -85.15  -68.69   -8.31

DOCKED: MODEL       50
DOCKED: USER    Run = 50
DOCKED: USER    DPF = D:/Protein_go_brrr/autodock/final/1A3N/heme/dock.dpf
DOCKED: USER  
DOCKED: USER    Estimated Free Energy of Binding    =   -3.91 kcal/mol  [=(1)+(2)+(3)-(4)]
DOCKED: USER    Estimated Inhibition Constant, Ki   =    1.37 mM (millimolar)  [Temperature = 298.15 K]
DOCKED: USER    
DOCKED: USER    (1) Final Intermolecular Energy     =   -7.79 kcal/mol
DOCKED: USER        vdW + Hbond + desolv Energy     =   -7.63 kcal/mol
DOCKED: USER        Electrostatic Energy            =   -0.16 kcal/mol
DOCKED: USER    (2) Final Total Internal Energy     =   -4.61 kcal/mol
DOCKED: USER    (3) Torsional Free Energy           =   +3.88 kcal/mol
DOCKED: USER    (4) Unbound System's Energy  [=(2)] =   -4.61 kcal/mol
DOCKED: USER    
DOCKED: USER    
DOCKED: USER    NEWDPF move heme_opt.pdbqt
DOCKED: USER    NEWDPF about 0.153000 0.018000 -0.028000
DOCKED: USER    NEWDPF tran0 10.628900 8.481884 37.617052
DOCKED: USER    NEWDPF quaternion0 0.638680 -0.309139 0.278733 0.647170
DOCKED: USER    NEWDPF axisangle0 0.837783 -0.405510 0.365625 99.342822
DOCKED: USER    NEWDPF quat0 0.837783 -0.405510 0.365625 99.342822
DOCKED: USER    NEWDPF dihe0 160.40 -153.71 -113.48 -29.21 -149.68 13.12 121.02 -74.39 42.50 -29.83 -85.15 -68.69 -8.31 
DOCKED: USER  keepresnum = 1 
DOCKED: USER  
DOCKED: REMARK  13 active torsions:
DOCKED: REMARK  status: ('A' for Active; 'I' for Inactive)
DOCKED: REMARK    1  A    between atoms: O_3  and  C_38 
DOCKED: REMARK    2  A    between atoms: O_4  and  C_40 
DOCKED: REMARK    3  A    between atoms: O_7  and  C_46 
DOCKED: REMARK    4  A    between atoms: O_9  and  C_48 
DOCKED: REMARK    5  A    between atoms: C_15  and  C_20 
DOCKED: REMARK    6  A    between atoms: C_16  and  C_23 
DOCKED: REMARK    7  A    between atoms: C_20  and  C_38 
DOCKED: REMARK    8  A    between atoms: C_23  and  C_40 
DOCKED: REMARK    9  A    between atoms: C_32  and  C_41 
DOCKED: REMARK   10  A    between atoms: C_37  and  C_45 
DOCKED: REMARK   11  A    between atoms: C_41  and  C_44 
DOCKED: REMARK   12  A    between atoms: C_44  and  C_46 
DOCKED: REMARK   13  A    between atoms: C_47  and  C_48 
DOCKED: USER                              x       y       z     vdW  Elec       q    Type
DOCKED: USER                           _______ _______ _______ _____ _____    ______ ____
DOCKED: ROOT
DOCKED: ATOM      1  O   UNL d   1       7.395  13.195  36.173 -0.06 -0.31    -0.289 OA
DOCKED: ATOM      2  O   UNL d   1       7.864   9.317  42.586 -0.02 -0.05    -0.289 OA
DOCKED: ATOM      3  N   UNL d   1       9.357  10.379  36.514 -0.42 -0.20    -0.247 NA
DOCKED: ATOM      4  N   UNL d   1       9.139   9.741  39.408 -0.00 -0.09    -0.247 NA
DOCKED: ATOM      5  N   UNL d   1      11.362   7.947  39.085 -0.07 -0.14    -0.354 N 
DOCKED: ATOM      6  N   UNL d   1      11.594   8.628  36.088 -0.10 -0.34    -0.354 N 
DOCKED: ATOM      7  C   UNL d   1       9.022  12.050  34.753 -0.15 +0.06    +0.084 A 
DOCKED: ATOM      8  C   UNL d   1       7.122  10.487  40.568 -0.06 +0.02    +0.084 A 
DOCKED: ATOM      9  C   UNL d   1       7.975  10.468  39.295 -0.11 +0.02    +0.058 A 
DOCKED: ATOM     10  C   UNL d   1       9.732  10.786  35.245 -0.21 +0.05    +0.058 A 
DOCKED: ATOM     11  C   UNL d   1       8.165  12.276  35.962 -0.07 +0.15    +0.193 A 
DOCKED: ATOM     12  C   UNL d   1       8.441  11.182  36.947 -0.13 +0.07    +0.109 A 
DOCKED: ATOM     13  C   UNL d   1       8.036   9.668  41.435 -0.05 +0.04    +0.193 A 
DOCKED: ATOM     14  C   UNL d   1       9.987  13.229  34.603 -0.23 +0.02    +0.026 C 
DOCKED: ATOM     15  C   UNL d   1       7.639  11.144  38.186 -0.15 +0.03    +0.055 C 
DOCKED: ATOM     16  C   UNL d   1       5.807   9.726  40.382 -0.19 +0.01    +0.026 C 
DOCKED: ATOM     17  C   UNL d   1       9.225   9.285  40.616 -0.08 +0.03    +0.109 A 
DOCKED: ATOM     18  C   UNL d   1      10.577  10.100  34.451 -0.10 +0.05    +0.050 C 
DOCKED: ATOM     19  C   UNL d   1      11.213   8.878  34.789 -0.26 +0.04    +0.045 A 
DOCKED: ATOM     20  C   UNL d   1      11.261   7.953  40.452 -0.12 +0.01    +0.045 A 
DOCKED: ATOM     21  C   UNL d   1      10.319   8.509  41.220 -0.11 +0.01    +0.057 C 
DOCKED: ATOM     22  C   UNL d   1      13.141   6.800  39.856 -0.08 -0.01    -0.019 A 
DOCKED: ATOM     23  C   UNL d   1      12.466   7.275  38.632 -0.16 +0.02    +0.045 A 
DOCKED: ATOM     24  C   UNL d   1      12.422   7.203  40.930 -0.07 -0.01    -0.022 A 
DOCKED: ATOM     25  C   UNL d   1      12.269   7.433  36.172 -0.23 +0.03    +0.049 A 
DOCKED: ATOM     26  C   UNL d   1      11.618   7.800  34.016 -0.35 -0.01    -0.018 A 
DOCKED: ATOM     27  C   UNL d   1      12.267   6.882  34.898 -0.34 +0.00    +0.003 A 
DOCKED: ATOM     28  C   UNL d   1      12.897   7.035  37.384 -0.22 +0.03    +0.052 C 
DOCKED: ATOM     29  C   UNL d   1      12.689   6.960  42.377 -0.03 +0.01    +0.046 C 
DOCKED: ATOM     30  C   UNL d   1      11.414   7.630  32.549 -0.39 +0.02    +0.046 C 
DOCKED: ATOM     31  H   UNL d   1      10.632   8.340  38.502 +0.04 +0.07    +0.166 HD
DOCKED: ATOM     32  H   UNL d   1      11.426   9.270  36.854 +0.04 +0.17    +0.166 HD
DOCKED: ENDROOT
DOCKED: BRANCH   7  33
DOCKED: ATOM     33  C   UNL d   1       8.153  11.872  33.503 -0.23 +0.08    +0.141 C 
DOCKED: BRANCH  33  34
DOCKED: ATOM     34  C   UNL d   1       6.731  11.507  33.833 -0.22 +0.17    +0.306 C 
DOCKED: ATOM     35  O   UNL d   1       6.267  10.381  33.871 -0.35 -0.11    -0.251 OA
DOCKED: BRANCH  34  36
DOCKED: ATOM     36  O   UNL d   1       5.970  12.583  34.102 -0.50 -0.52    -0.481 OA
DOCKED: ATOM     37  H   UNL d   1       6.609  13.279  34.362 +0.11 +0.40    +0.295 HD
DOCKED: ENDBRANCH  34  36
DOCKED: ENDBRANCH  33  34
DOCKED: ENDBRANCH   7  33
DOCKED: BRANCH  27  38
DOCKED: ATOM     38  C   UNL d   1      12.853   5.636  34.507 -0.42 +0.01    +0.017 C 
DOCKED: ATOM     39  C   UNL d   1      13.925   5.070  35.082 -0.31 +0.06    +0.092 C 
DOCKED: BRANCH  39  40
DOCKED: ATOM     40  C   UNL d   1      14.416   3.778  34.597 -0.19 +0.23    +0.330 C 
DOCKED: ATOM     41  O   UNL d   1      14.088   3.190  33.583 -0.95 -0.21    -0.246 OA
DOCKED: BRANCH  40  42
DOCKED: ATOM     42  O   UNL d   1      15.335   3.285  35.443 -0.06 -0.21    -0.477 OA
DOCKED: ATOM     43  H   UNL d   1      15.101   3.690  36.303 +0.14 +0.10    +0.295 HD
DOCKED: ENDBRANCH  40  42
DOCKED: ENDBRANCH  39  40
DOCKED: ENDBRANCH  27  38
DOCKED: BRANCH   8  44
DOCKED: ATOM     44  C   UNL d   1       6.880  11.871  41.180 -0.01 +0.04    +0.141 C 
DOCKED: BRANCH  44  45
DOCKED: ATOM     45  C   UNL d   1       8.046  12.376  41.987 +0.01 +0.07    +0.306 C 
DOCKED: ATOM     46  O   UNL d   1       9.084  12.843  41.552 +0.00 -0.06    -0.251 OA
DOCKED: BRANCH  45  47
DOCKED: ATOM     47  O   UNL d   1       7.852  12.241  43.312 +0.00 -0.08    -0.481 OA
DOCKED: ATOM     48  H   UNL d   1       7.825  11.272  43.461 +0.01 +0.05    +0.295 HD
DOCKED: ENDBRANCH  45  47
DOCKED: ENDBRANCH  44  45
DOCKED: ENDBRANCH   8  44
DOCKED: BRANCH  22  49
DOCKED: ATOM     49  C   UNL d   1      14.420   6.016  39.863 -0.04 +0.01    +0.048 C 
DOCKED: BRANCH  49  50
DOCKED: ATOM     50  C   UNL d   1      14.165   4.509  39.849 -0.06 +0.02    +0.125 C 
DOCKED: BRANCH  50  51
DOCKED: ATOM     51  C   UNL d   1      14.226   3.968  38.449 -0.05 +0.06    +0.305 C 
DOCKED: ATOM     52  O   UNL d   1      13.354   4.003  37.600 -0.13 -0.07    -0.251 OA
DOCKED: BRANCH  51  53
DOCKED: ATOM     53  O   UNL d   1      15.411   3.381  38.187 +0.01 -0.09    -0.481 OA
DOCKED: ATOM     54  H   UNL d   1      15.194   2.690  37.527 +0.11 +0.06    +0.295 HD
DOCKED: ENDBRANCH  51  53
DOCKED: ENDBRANCH  50  51
DOCKED: ENDBRANCH  49  50
DOCKED: ENDBRANCH  22  49
DOCKED: TORSDOF 13
DOCKED: TER
DOCKED: ENDMDL
________________________________________________________________________________


	BEGINNING GENETIC ALGORITHM DOCKING 51 of 100
Run: 51 Seed: 121901550 903060095 [ Run 51 of 100 GA/GALS ]
Beginning LAMARCKIAN GENETIC ALGORITHM (LGA), with a maximum of 25000000 energy evaluations.

Final-Value: -11.050


	FINAL GENETIC ALGORITHM DOCKED STATE
	_______________________________________________


Detailed state:  trans 39.499 21.158 7.334 quatxyzw -0.530413 0.639321 -0.149255 -0.536334 center 0.153 0.018 -0.028 ntor 13 168.7703 -78.7397 94.8498 -53.5351 -146.7413 -124.2632 -65.6270 10.6337 16.0381 -141.7581 -56.5580 14.7525 37.0629
State:	 39.499  21.158   7.334  -0.628  0.757 -0.177 -115.131    168.77  -78.74   94.85  -53.54 -146.74 -124.26  -65.63   10.63   16.04 -141.76  -56.56   14.75   37.06

DOCKED: MODEL       51
DOCKED: USER    Run = 51
DOCKED: USER    DPF = D:/Protein_go_brrr/autodock/final/1A3N/heme/dock.dpf
DOCKED: USER  
DOCKED: USER    Estimated Free Energy of Binding    =   -3.35 kcal/mol  [=(1)+(2)+(3)-(4)]
DOCKED: USER    Estimated Inhibition Constant, Ki   =    3.53 mM (millimolar)  [Temperature = 298.15 K]
DOCKED: USER    
DOCKED: USER    (1) Final Intermolecular Energy     =   -7.22 kcal/mol
DOCKED: USER        vdW + Hbond + desolv Energy     =   -7.03 kcal/mol
DOCKED: USER        Electrostatic Energy            =   -0.19 kcal/mol
DOCKED: USER    (2) Final Total Internal Energy     =   -3.83 kcal/mol
DOCKED: USER    (3) Torsional Free Energy           =   +3.88 kcal/mol
DOCKED: USER    (4) Unbound System's Energy  [=(2)] =   -3.83 kcal/mol
DOCKED: USER    
DOCKED: USER    
DOCKED: USER    NEWDPF move heme_opt.pdbqt
DOCKED: USER    NEWDPF about 0.153000 0.018000 -0.028000
DOCKED: USER    NEWDPF tran0 39.499171 21.157930 7.334079
DOCKED: USER    NEWDPF quaternion0 -0.530413 0.639321 -0.149255 -0.536334
DOCKED: USER    NEWDPF axisangle0 -0.628447 0.757484 -0.176842 -115.131107
DOCKED: USER    NEWDPF quat0 -0.628447 0.757484 -0.176842 -115.131107
DOCKED: USER    NEWDPF dihe0 168.77 -78.74 94.85 -53.54 -146.74 -124.26 -65.63 10.63 16.04 -141.76 -56.56 14.75 37.06 
DOCKED: USER  keepresnum = 1 
DOCKED: USER  
DOCKED: REMARK  13 active torsions:
DOCKED: REMARK  status: ('A' for Active; 'I' for Inactive)
DOCKED: REMARK    1  A    between atoms: O_3  and  C_38 
DOCKED: REMARK    2  A    between atoms: O_4  and  C_40 
DOCKED: REMARK    3  A    between atoms: O_7  and  C_46 
DOCKED: REMARK    4  A    between atoms: O_9  and  C_48 
DOCKED: REMARK    5  A    between atoms: C_15  and  C_20 
DOCKED: REMARK    6  A    between atoms: C_16  and  C_23 
DOCKED: REMARK    7  A    between atoms: C_20  and  C_38 
DOCKED: REMARK    8  A    between atoms: C_23  and  C_40 
DOCKED: REMARK    9  A    between atoms: C_32  and  C_41 
DOCKED: REMARK   10  A    between atoms: C_37  and  C_45 
DOCKED: REMARK   11  A    between atoms: C_41  and  C_44 
DOCKED: REMARK   12  A    between atoms: C_44  and  C_46 
DOCKED: REMARK   13  A    between atoms: C_47  and  C_48 
DOCKED: USER                              x       y       z     vdW  Elec       q    Type
DOCKED: USER                           _______ _______ _______ _____ _____    ______ ____
DOCKED: ROOT
DOCKED: ATOM      1  O   UNL d   1      38.397  26.770   8.764 -0.00 -0.07    -0.289 OA
DOCKED: ATOM      2  O   UNL d   1      40.310  20.885  13.018 +0.09 -0.01    -0.289 OA
DOCKED: ATOM      3  N   UNL d   1      38.814  23.595   7.482 -0.64 -0.30    -0.247 NA
DOCKED: ATOM      4  N   UNL d   1      39.839  22.050   9.804 -0.10 -0.13    -0.247 NA
DOCKED: ATOM      5  N   UNL d   1      40.557  19.953   7.973 -0.07 -0.12    -0.354 N 
DOCKED: ATOM      6  N   UNL d   1      39.509  21.571   5.568 -0.07 -0.16    -0.354 N 
DOCKED: ATOM      7  C   UNL d   1      38.398  25.809   6.516 -0.03 +0.03    +0.084 A 
DOCKED: ATOM      8  C   UNL d   1      39.244  22.856  12.033 -0.15 +0.02    +0.084 A 
DOCKED: ATOM      9  C   UNL d   1      39.228  23.059  10.514 -0.13 +0.03    +0.058 A 
DOCKED: ATOM     10  C   UNL d   1      38.629  24.310   6.310 -0.07 +0.04    +0.058 A 
DOCKED: ATOM     11  C   UNL d   1      38.467  25.814   8.014 -0.02 +0.09    +0.193 A 
DOCKED: ATOM     12  C   UNL d   1      38.697  24.410   8.480 +0.02 +0.10    +0.109 A 
DOCKED: ATOM     13  C   UNL d   1      40.009  21.563  12.055 -0.16 +0.03    +0.193 A 
DOCKED: ATOM     14  C   UNL d   1      39.552  26.650   5.965 -0.00 +0.00    +0.026 C 
DOCKED: ATOM     15  C   UNL d   1      38.709  24.153   9.934 -0.10 +0.04    +0.055 C 
DOCKED: ATOM     16  C   UNL d   1      37.838  22.605  12.587 -0.26 +0.01    +0.026 C 
DOCKED: ATOM     17  C   UNL d   1      40.316  21.187  10.642 -0.18 +0.03    +0.109 A 
DOCKED: ATOM     18  C   UNL d   1      38.560  23.749   5.088 -0.10 +0.02    +0.050 C 
DOCKED: ATOM     19  C   UNL d   1      38.676  22.363   4.811 -0.15 +0.02    +0.045 A 
DOCKED: ATOM     20  C   UNL d   1      41.175  19.497   9.108 -0.16 +0.01    +0.045 A 
DOCKED: ATOM     21  C   UNL d   1      41.101  19.977  10.354 -0.26 +0.01    +0.057 C 
DOCKED: ATOM     22  C   UNL d   1      41.777  18.164   7.354 -0.23 -0.00    -0.019 A 
DOCKED: ATOM     23  C   UNL d   1      40.860  19.212   6.862 -0.19 +0.01    +0.045 A 
DOCKED: ATOM     24  C   UNL d   1      41.958  18.337   8.684 -0.24 -0.00    -0.022 A 
DOCKED: ATOM     25  C   UNL d   1      39.538  20.288   5.072 -0.16 +0.01    +0.049 A 
DOCKED: ATOM     26  C   UNL d   1      38.121  21.567   3.821 -0.21 -0.00    -0.018 A 
DOCKED: ATOM     27  C   UNL d   1      38.654  20.253   4.002 -0.22 +0.00    +0.003 A 
DOCKED: ATOM     28  C   UNL d   1      40.447  19.326   5.591 -0.19 +0.01    +0.052 C 
DOCKED: ATOM     29  C   UNL d   1      42.784  17.528   9.626 -0.24 +0.00    +0.046 C 
DOCKED: ATOM     30  C   UNL d   1      37.154  21.997   2.771 -0.07 +0.01    +0.046 C 
DOCKED: ATOM     31  H   UNL d   1      39.887  20.714   8.009 +0.04 +0.09    +0.166 HD
DOCKED: ATOM     32  H   UNL d   1      40.050  21.915   6.353 +0.03 +0.08    +0.166 HD
DOCKED: ENDROOT
DOCKED: BRANCH   7  33
DOCKED: ATOM     33  C   UNL d   1      37.040  26.337   6.039 -0.03 +0.03    +0.141 C 
DOCKED: BRANCH  33  34
DOCKED: ATOM     34  C   UNL d   1      35.887  25.741   6.800 -0.05 +0.13    +0.306 C 
DOCKED: ATOM     35  O   UNL d   1      35.253  24.748   6.486 -0.44 -0.20    -0.251 OA
DOCKED: BRANCH  34  36
DOCKED: ATOM     36  O   UNL d   1      35.595  26.427   7.920 -0.02 -0.04    -0.481 OA
DOCKED: ATOM     37  H   UNL d   1      36.368  27.016   8.057 +0.03 +0.03    +0.295 HD
DOCKED: ENDBRANCH  34  36
DOCKED: ENDBRANCH  33  34
DOCKED: ENDBRANCH   7  33
DOCKED: BRANCH  27  38
DOCKED: ATOM     38  C   UNL d   1      38.353  19.120   3.181 -0.28 +0.00    +0.017 C 
DOCKED: ATOM     39  C   UNL d   1      37.945  17.924   3.631 -0.37 +0.01    +0.092 C 
DOCKED: BRANCH  39  40
DOCKED: ATOM     40  C   UNL d   1      37.653  16.847   2.681 -0.28 +0.01    +0.330 C 
DOCKED: ATOM     41  O   UNL d   1      36.632  16.192   2.591 -0.49 +0.01    -0.246 OA
DOCKED: BRANCH  40  42
DOCKED: ATOM     42  O   UNL d   1      38.699  16.657   1.862 -0.05 -0.01    -0.477 OA
DOCKED: ATOM     43  H   UNL d   1      39.144  15.866   2.229 +0.16 -0.00    +0.295 HD
DOCKED: ENDBRANCH  40  42
DOCKED: ENDBRANCH  39  40
DOCKED: ENDBRANCH  27  38
DOCKED: BRANCH   8  44
DOCKED: ATOM     44  C   UNL d   1      39.972  23.938  12.837 -0.06 +0.01    +0.141 C 
DOCKED: BRANCH  44  45
DOCKED: ATOM     45  C   UNL d   1      39.728  23.842  14.320 -0.05 +0.00    +0.306 C 
DOCKED: ATOM     46  O   UNL d   1      39.074  24.612  15.000 -0.04 -0.01    -0.251 OA
DOCKED: BRANCH  45  47
DOCKED: ATOM     47  O   UNL d   1      40.350  22.786  14.876 -0.05 +0.04    -0.481 OA
DOCKED: ATOM     48  H   UNL d   1      39.724  22.040  14.759 -0.42 -0.10    +0.295 HD
DOCKED: ENDBRANCH  45  47
DOCKED: ENDBRANCH  44  45
DOCKED: ENDBRANCH   8  44
DOCKED: BRANCH  22  49
DOCKED: ATOM     49  C   UNL d   1      42.396  17.110   6.483 -0.25 -0.00    +0.048 C 
DOCKED: BRANCH  49  50
DOCKED: ATOM     50  C   UNL d   1      41.368  16.465   5.553 -0.05 -0.00    +0.125 C 
DOCKED: BRANCH  50  51
DOCKED: ATOM     51  C   UNL d   1      41.800  16.575   4.118 -0.06 +0.01    +0.305 C 
DOCKED: ATOM     52  O   UNL d   1      42.848  17.027   3.690 -0.06 -0.01    -0.251 OA
DOCKED: BRANCH  51  53
DOCKED: ATOM     53  O   UNL d   1      40.860  16.110   3.272 -0.03 -0.02    -0.481 OA
DOCKED: ATOM     54  H   UNL d   1      40.713  16.851   2.648 +0.10 +0.01    +0.295 HD
DOCKED: ENDBRANCH  51  53
DOCKED: ENDBRANCH  50  51
DOCKED: ENDBRANCH  49  50
DOCKED: ENDBRANCH  22  49
DOCKED: TORSDOF 13
DOCKED: TER
DOCKED: ENDMDL
________________________________________________________________________________


	BEGINNING GENETIC ALGORITHM DOCKING 52 of 100
Run: 52 Seed: 2062304710 247657714 [ Run 52 of 100 GA/GALS ]
Beginning LAMARCKIAN GENETIC ALGORITHM (LGA), with a maximum of 25000000 energy evaluations.

Final-Value: -10.359


	FINAL GENETIC ALGORITHM DOCKED STATE
	_______________________________________________


Detailed state:  trans 20.697 23.267 6.386 quatxyzw 0.477348 -0.056958 -0.674891 0.559836 center 0.153 0.018 -0.028 ntor 13 -159.8382 -129.9207 -10.3254 -180.0000 53.4921 -169.5057 129.4351 -92.3671 166.5321 -164.4306 -146.5060 86.7884 146.8103
State:	 20.697  23.267   6.386   0.576 -0.069 -0.814 111.911   -159.84 -129.92  -10.33 -180.00   53.49 -169.51  129.44  -92.37  166.53 -164.43 -146.51   86.79  146.81

DOCKED: MODEL       52
DOCKED: USER    Run = 52
DOCKED: USER    DPF = D:/Protein_go_brrr/autodock/final/1A3N/heme/dock.dpf
DOCKED: USER  
DOCKED: USER    Estimated Free Energy of Binding    =   -4.82 kcal/mol  [=(1)+(2)+(3)-(4)]
DOCKED: USER    Estimated Inhibition Constant, Ki   =  295.38 uM (micromolar)  [Temperature = 298.15 K]
DOCKED: USER    
DOCKED: USER    (1) Final Intermolecular Energy     =   -8.69 kcal/mol
DOCKED: USER        vdW + Hbond + desolv Energy     =   -8.37 kcal/mol
DOCKED: USER        Electrostatic Energy            =   -0.32 kcal/mol
DOCKED: USER    (2) Final Total Internal Energy     =   -1.67 kcal/mol
DOCKED: USER    (3) Torsional Free Energy           =   +3.88 kcal/mol
DOCKED: USER    (4) Unbound System's Energy  [=(2)] =   -1.67 kcal/mol
DOCKED: USER    
DOCKED: USER    
DOCKED: USER    NEWDPF move heme_opt.pdbqt
DOCKED: USER    NEWDPF about 0.153000 0.018000 -0.028000
DOCKED: USER    NEWDPF tran0 20.696934 23.267292 6.385956
DOCKED: USER    NEWDPF quaternion0 0.477348 -0.056958 -0.674891 0.559836
DOCKED: USER    NEWDPF axisangle0 0.576088 -0.068740 -0.814492 111.911052
DOCKED: USER    NEWDPF quat0 0.576088 -0.068740 -0.814492 111.911052
DOCKED: USER    NEWDPF dihe0 -159.84 -129.92 -10.33 -180.00 53.49 -169.51 129.44 -92.37 166.53 -164.43 -146.51 86.79 146.81 
DOCKED: USER  keepresnum = 1 
DOCKED: USER  
DOCKED: REMARK  13 active torsions:
DOCKED: REMARK  status: ('A' for Active; 'I' for Inactive)
DOCKED: REMARK    1  A    between atoms: O_3  and  C_38 
DOCKED: REMARK    2  A    between atoms: O_4  and  C_40 
DOCKED: REMARK    3  A    between atoms: O_7  and  C_46 
DOCKED: REMARK    4  A    between atoms: O_9  and  C_48 
DOCKED: REMARK    5  A    between atoms: C_15  and  C_20 
DOCKED: REMARK    6  A    between atoms: C_16  and  C_23 
DOCKED: REMARK    7  A    between atoms: C_20  and  C_38 
DOCKED: REMARK    8  A    between atoms: C_23  and  C_40 
DOCKED: REMARK    9  A    between atoms: C_32  and  C_41 
DOCKED: REMARK   10  A    between atoms: C_37  and  C_45 
DOCKED: REMARK   11  A    between atoms: C_41  and  C_44 
DOCKED: REMARK   12  A    between atoms: C_44  and  C_46 
DOCKED: REMARK   13  A    between atoms: C_47  and  C_48 
DOCKED: USER                              x       y       z     vdW  Elec       q    Type
DOCKED: USER                           _______ _______ _______ _____ _____    ______ ____
DOCKED: ROOT
DOCKED: ATOM      1  O   UNL d   1      18.489  19.109   9.935 -0.06 -0.07    -0.289 OA
DOCKED: ATOM      2  O   UNL d   1      25.320  22.216   9.636 -0.21 -0.05    -0.289 OA
DOCKED: ATOM      3  N   UNL d   1      19.375  21.449   7.560 -0.06 -0.04    -0.247 NA
DOCKED: ATOM      4  N   UNL d   1      22.093  22.293   8.414 -0.04 -0.02    -0.247 NA
DOCKED: ATOM      5  N   UNL d   1      21.873  24.513   6.600 -0.08 +0.13    -0.354 N 
DOCKED: ATOM      6  N   UNL d   1      19.046  23.640   5.734 -0.01 -0.01    -0.354 N 
DOCKED: ATOM      7  C   UNL d   1      17.291  20.319   8.181 -0.08 +0.02    +0.084 A 
DOCKED: ATOM      8  C   UNL d   1      23.406  20.691   9.710 -0.19 +0.02    +0.084 A 
DOCKED: ATOM      9  C   UNL d   1      22.080  21.068   9.042 -0.16 +0.01    +0.058 A 
DOCKED: ATOM     10  C   UNL d   1      18.024  21.322   7.285 -0.11 +0.01    +0.058 A 
DOCKED: ATOM     11  C   UNL d   1      18.471  19.887   8.999 -0.07 +0.04    +0.193 A 
DOCKED: ATOM     12  C   UNL d   1      19.679  20.624   8.509 -0.12 +0.02    +0.109 A 
DOCKED: ATOM     13  C   UNL d   1      24.163  21.946   9.378 -0.17 +0.03    +0.193 A 
DOCKED: ATOM     14  C   UNL d   1      16.276  21.003   9.099 -0.06 +0.01    +0.026 C 
DOCKED: ATOM     15  C   UNL d   1      20.987  20.292   9.109 -0.18 +0.01    +0.055 C 
DOCKED: ATOM     16  C   UNL d   1      24.080  19.509   9.008 -0.41 +0.01    +0.026 C 
DOCKED: ATOM     17  C   UNL d   1      23.253  22.838   8.597 -0.19 +0.00    +0.109 A 
DOCKED: ATOM     18  C   UNL d   1      17.399  21.943   6.267 -0.14 +0.01    +0.050 C 
DOCKED: ATOM     19  C   UNL d   1      18.014  22.820   5.338 -0.11 +0.01    +0.045 A 
DOCKED: ATOM     20  C   UNL d   1      23.013  24.870   7.272 -0.28 -0.02    +0.045 A 
DOCKED: ATOM     21  C   UNL d   1      23.712  24.167   8.168 -0.30 -0.01    +0.057 C 
DOCKED: ATOM     22  C   UNL d   1      22.395  26.589   5.899 -0.19 +0.02    -0.019 A 
DOCKED: ATOM     23  C   UNL d   1      21.424  25.487   5.748 -0.23 -0.03    +0.045 A 
DOCKED: ATOM     24  C   UNL d   1      23.334  26.217   6.802 -0.22 +0.02    -0.022 A 
DOCKED: ATOM     25  C   UNL d   1      19.429  24.467   4.703 -0.03 -0.00    +0.049 A 
DOCKED: ATOM     26  C   UNL d   1      17.745  23.093   4.005 -0.14 -0.00    -0.018 A 
DOCKED: ATOM     27  C   UNL d   1      18.655  24.120   3.605 -0.13 +0.00    +0.003 A 
DOCKED: ATOM     28  C   UNL d   1      20.371  25.510   4.917 -0.23 -0.02    +0.052 C 
DOCKED: ATOM     29  C   UNL d   1      24.523  26.980   7.279 -0.22 -0.03    +0.046 C 
DOCKED: ATOM     30  C   UNL d   1      16.709  22.441   3.154 -0.16 +0.01    +0.046 C 
DOCKED: ATOM     31  H   UNL d   1      21.478  23.583   6.691 +0.10 -0.02    +0.166 HD
DOCKED: ATOM     32  H   UNL d   1      19.427  23.648   6.673 +0.03 +0.01    +0.166 HD
DOCKED: ENDROOT
DOCKED: BRANCH   7  33
DOCKED: ATOM     33  C   UNL d   1      16.673  19.119   7.455 -0.16 +0.05    +0.141 C 
DOCKED: BRANCH  33  34
DOCKED: ATOM     34  C   UNL d   1      15.386  18.660   8.086 -0.08 +0.13    +0.306 C 
DOCKED: ATOM     35  O   UNL d   1      14.266  18.807   7.629 -0.23 -0.18    -0.251 OA
DOCKED: BRANCH  34  36
DOCKED: ATOM     36  O   UNL d   1      15.580  18.035   9.261 -0.01 -0.15    -0.481 OA
DOCKED: ATOM     37  H   UNL d   1      16.486  18.296   9.533 +0.08 +0.08    +0.295 HD
DOCKED: ENDBRANCH  34  36
DOCKED: ENDBRANCH  33  34
DOCKED: ENDBRANCH   7  33
DOCKED: BRANCH  27  38
DOCKED: ATOM     38  C   UNL d   1      18.709  24.712   2.302 -0.22 -0.00    +0.017 C 
DOCKED: ATOM     39  C   UNL d   1      18.886  24.042   1.153 -0.27 +0.01    +0.092 C 
DOCKED: BRANCH  39  40
DOCKED: ATOM     40  C   UNL d   1      18.905  24.767  -0.120 -0.10 +0.06    +0.330 C 
DOCKED: ATOM     41  O   UNL d   1      18.912  24.298  -1.242 -0.65 -0.11    -0.246 OA
DOCKED: BRANCH  40  42
DOCKED: ATOM     42  O   UNL d   1      18.905  26.090   0.103 -0.34 -0.04    -0.477 OA
DOCKED: ATOM     43  H   UNL d   1      19.625  26.219   0.754 +0.01 -0.02    +0.295 HD
DOCKED: ENDBRANCH  40  42
DOCKED: ENDBRANCH  39  40
DOCKED: ENDBRANCH  27  38
DOCKED: BRANCH   8  44
DOCKED: ATOM     44  C   UNL d   1      23.344  20.473  11.226 -0.20 +0.06    +0.141 C 
DOCKED: BRANCH  44  45
DOCKED: ATOM     45  C   UNL d   1      24.285  19.404  11.712 -0.26 +0.18    +0.306 C 
DOCKED: ATOM     46  O   UNL d   1      25.462  19.545  11.996 -0.80 -0.19    -0.251 OA
DOCKED: BRANCH  45  47
DOCKED: ATOM     47  O   UNL d   1      23.697  18.196  11.788 -0.14 -0.22    -0.481 OA
DOCKED: ATOM     48  H   UNL d   1      24.437  17.568  11.931 -0.37 +0.08    +0.295 HD
DOCKED: ENDBRANCH  45  47
DOCKED: ENDBRANCH  44  45
DOCKED: ENDBRANCH   8  44
DOCKED: BRANCH  22  49
DOCKED: ATOM     49  C   UNL d   1      22.308  27.895   5.166 -0.16 -0.04    +0.048 C 
DOCKED: BRANCH  49  50
DOCKED: ATOM     50  C   UNL d   1      21.049  28.675   5.542 -0.04 -0.04    +0.125 C 
DOCKED: BRANCH  50  51
DOCKED: ATOM     51  C   UNL d   1      20.691  28.455   6.985 -0.00 -0.05    +0.305 C 
DOCKED: ATOM     52  O   UNL d   1      19.863  27.684   7.436 -0.01 +0.03    -0.251 OA
DOCKED: BRANCH  51  53
DOCKED: ATOM     53  O   UNL d   1      21.407  29.247   7.808 +0.01 +0.07    -0.481 OA
DOCKED: ATOM     54  H   UNL d   1      21.986  29.757   7.204 +0.02 -0.05    +0.295 HD
DOCKED: ENDBRANCH  51  53
DOCKED: ENDBRANCH  50  51
DOCKED: ENDBRANCH  49  50
DOCKED: ENDBRANCH  22  49
DOCKED: TORSDOF 13
DOCKED: TER
DOCKED: ENDMDL
________________________________________________________________________________


	BEGINNING GENETIC ALGORITHM DOCKING 53 of 100
Run: 53 Seed: 714354339 1222068276 [ Run 53 of 100 GA/GALS ]
Beginning LAMARCKIAN GENETIC ALGORITHM (LGA), with a maximum of 25000000 energy evaluations.

Final-Value: -11.632


	FINAL GENETIC ALGORITHM DOCKED STATE
	_______________________________________________


Detailed state:  trans 6.306 16.891 33.338 quatxyzw -0.115249 -0.717889 -0.488552 0.482359 center 0.153 0.018 -0.028 ntor 13 146.5579 42.0209 -65.8467 84.5509 -136.8641 58.2328 115.6523 64.4126 21.5355 115.4278 -60.0107 29.5800 32.9470
State:	  6.306  16.891  33.338  -0.132 -0.820 -0.558 122.321    146.56   42.02  -65.85   84.55 -136.86   58.23  115.65   64.41   21.54  115.43  -60.01   29.58   32.95

DOCKED: MODEL       53
DOCKED: USER    Run = 53
DOCKED: USER    DPF = D:/Protein_go_brrr/autodock/final/1A3N/heme/dock.dpf
DOCKED: USER  
DOCKED: USER    Estimated Free Energy of Binding    =   -4.99 kcal/mol  [=(1)+(2)+(3)-(4)]
DOCKED: USER    Estimated Inhibition Constant, Ki   =  218.87 uM (micromolar)  [Temperature = 298.15 K]
DOCKED: USER    
DOCKED: USER    (1) Final Intermolecular Energy     =   -8.87 kcal/mol
DOCKED: USER        vdW + Hbond + desolv Energy     =   -8.06 kcal/mol
DOCKED: USER        Electrostatic Energy            =   -0.81 kcal/mol
DOCKED: USER    (2) Final Total Internal Energy     =   -2.76 kcal/mol
DOCKED: USER    (3) Torsional Free Energy           =   +3.88 kcal/mol
DOCKED: USER    (4) Unbound System's Energy  [=(2)] =   -2.76 kcal/mol
DOCKED: USER    
DOCKED: USER    
DOCKED: USER    NEWDPF move heme_opt.pdbqt
DOCKED: USER    NEWDPF about 0.153000 0.018000 -0.028000
DOCKED: USER    NEWDPF tran0 6.305702 16.890967 33.337807
DOCKED: USER    NEWDPF quaternion0 -0.115249 -0.717889 -0.488552 0.482359
DOCKED: USER    NEWDPF axisangle0 -0.131567 -0.819532 -0.557725 122.320883
DOCKED: USER    NEWDPF quat0 -0.131567 -0.819532 -0.557725 122.320883
DOCKED: USER    NEWDPF dihe0 146.56 42.02 -65.85 84.55 -136.86 58.23 115.65 64.41 21.54 115.43 -60.01 29.58 32.95 
DOCKED: USER  keepresnum = 1 
DOCKED: USER  
DOCKED: REMARK  13 active torsions:
DOCKED: REMARK  status: ('A' for Active; 'I' for Inactive)
DOCKED: REMARK    1  A    between atoms: O_3  and  C_38 
DOCKED: REMARK    2  A    between atoms: O_4  and  C_40 
DOCKED: REMARK    3  A    between atoms: O_7  and  C_46 
DOCKED: REMARK    4  A    between atoms: O_9  and  C_48 
DOCKED: REMARK    5  A    between atoms: C_15  and  C_20 
DOCKED: REMARK    6  A    between atoms: C_16  and  C_23 
DOCKED: REMARK    7  A    between atoms: C_20  and  C_38 
DOCKED: REMARK    8  A    between atoms: C_23  and  C_40 
DOCKED: REMARK    9  A    between atoms: C_32  and  C_41 
DOCKED: REMARK   10  A    between atoms: C_37  and  C_45 
DOCKED: REMARK   11  A    between atoms: C_41  and  C_44 
DOCKED: REMARK   12  A    between atoms: C_44  and  C_46 
DOCKED: REMARK   13  A    between atoms: C_47  and  C_48 
DOCKED: USER                              x       y       z     vdW  Elec       q    Type
DOCKED: USER                           _______ _______ _______ _____ _____    ______ ____
DOCKED: ROOT
DOCKED: ATOM      1  O   UNL d   1       9.162  14.538  37.927 -0.00 -0.17    -0.289 OA
DOCKED: ATOM      2  O   UNL d   1       7.866  11.863  31.031 +0.19 -0.09    -0.289 OA
DOCKED: ATOM      3  N   UNL d   1       7.296  16.245  35.582 -0.53 -0.41    -0.247 NA
DOCKED: ATOM      4  N   UNL d   1       7.591  14.585  33.135 -0.13 -0.20    -0.247 NA
DOCKED: ATOM      5  N   UNL d   1       6.507  16.779  31.627 -0.11 -0.17    -0.354 N 
DOCKED: ATOM      6  N   UNL d   1       6.222  18.502  34.168 -0.07 -0.25    -0.354 N 
DOCKED: ATOM      7  C   UNL d   1       8.140  16.756  37.825 -0.03 +0.05    +0.084 A 
DOCKED: ATOM      8  C   UNL d   1       8.059  12.207  33.447 -0.21 +0.05    +0.084 A 
DOCKED: ATOM      9  C   UNL d   1       7.876  13.601  34.056 -0.18 +0.05    +0.058 A 
DOCKED: ATOM     10  C   UNL d   1       7.361  17.199  36.583 -0.06 +0.06    +0.058 A 
DOCKED: ATOM     11  C   UNL d   1       8.487  15.375  37.357 -0.03 +0.14    +0.193 A 
DOCKED: ATOM     12  C   UNL d   1       7.897  15.177  35.995 -0.06 +0.13    +0.109 A 
DOCKED: ATOM     13  C   UNL d   1       7.862  12.588  32.007 -0.09 +0.08    +0.193 A 
DOCKED: ATOM     14  C   UNL d   1       9.432  17.556  38.009 -0.01 +0.01    +0.026 C 
DOCKED: ATOM     15  C   UNL d   1       8.032  13.847  35.365 -0.13 +0.06    +0.055 C 
DOCKED: ATOM     16  C   UNL d   1       6.934  11.254  33.863 -0.39 +0.01    +0.026 C 
DOCKED: ATOM     17  C   UNL d   1       7.593  14.057  31.953 -0.23 +0.05    +0.109 A 
DOCKED: ATOM     18  C   UNL d   1       6.729  18.387  36.535 -0.08 +0.04    +0.050 C 
DOCKED: ATOM     19  C   UNL d   1       5.919  18.845  35.466 -0.10 +0.03    +0.045 A 
DOCKED: ATOM     20  C   UNL d   1       6.924  15.972  30.601 -0.32 +0.01    +0.045 A 
DOCKED: ATOM     21  C   UNL d   1       7.402  14.725  30.657 -0.35 +0.02    +0.057 C 
DOCKED: ATOM     22  C   UNL d   1       6.232  17.969  29.734 -0.32 -0.00    -0.019 A 
DOCKED: ATOM     23  C   UNL d   1       6.071  18.006  31.202 -0.25 +0.01    +0.045 A 
DOCKED: ATOM     24  C   UNL d   1       6.735  16.762  29.385 -0.30 -0.00    -0.022 A 
DOCKED: ATOM     25  C   UNL d   1       5.365  19.125  33.290 -0.09 +0.02    +0.049 A 
DOCKED: ATOM     26  C   UNL d   1       4.814  19.683  35.434 -0.09 -0.01    -0.018 A 
DOCKED: ATOM     27  C   UNL d   1       4.457  19.840  34.059 -0.13 +0.00    +0.003 A 
DOCKED: ATOM     28  C   UNL d   1       5.577  19.049  31.887 -0.22 +0.01    +0.052 C 
DOCKED: ATOM     29  C   UNL d   1       7.059  16.244  28.024 -0.27 +0.01    +0.046 C 
DOCKED: ATOM     30  C   UNL d   1       4.130  20.299  36.606 -0.05 +0.01    +0.046 C 
DOCKED: ATOM     31  H   UNL d   1       6.464  16.438  32.581 +0.05 +0.13    +0.166 HD
DOCKED: ATOM     32  H   UNL d   1       7.000  17.904  33.913 +0.03 +0.12    +0.166 HD
DOCKED: ENDROOT
DOCKED: BRANCH   7  33
DOCKED: ATOM     33  C   UNL d   1       7.326  16.696  39.123 -0.02 +0.07    +0.141 C 
DOCKED: BRANCH  33  34
DOCKED: ATOM     34  C   UNL d   1       6.312  15.584  39.119 -0.03 +0.24    +0.306 C 
DOCKED: ATOM     35  O   UNL d   1       5.202  15.624  38.616 -0.39 -0.33    -0.251 OA
DOCKED: BRANCH  34  36
DOCKED: ATOM     36  O   UNL d   1       6.751  14.479  39.748 +0.00 -0.26    -0.481 OA
DOCKED: ATOM     37  H   UNL d   1       7.707  14.438  39.535 +0.01 +0.15    +0.295 HD
DOCKED: ENDBRANCH  34  36
DOCKED: ENDBRANCH  33  34
DOCKED: ENDBRANCH   7  33
DOCKED: BRANCH  27  38
DOCKED: ATOM     38  C   UNL d   1       3.375  20.642  33.574 -0.13 +0.00    +0.017 C 
DOCKED: ATOM     39  C   UNL d   1       2.274  20.173  32.967 -0.22 -0.01    +0.092 C 
DOCKED: BRANCH  39  40
DOCKED: ATOM     40  C   UNL d   1       1.228  21.102  32.532 -0.08 -0.18    +0.330 C 
DOCKED: ATOM     41  O   UNL d   1       1.344  22.057  31.789 -0.12 +0.15    -0.246 OA
DOCKED: BRANCH  40  42
DOCKED: ATOM     42  O   UNL d   1       0.049  20.755  33.072 -0.06 +0.33    -0.477 OA
DOCKED: ATOM     43  H   UNL d   1      -0.588  20.868  32.336 -0.42 -0.54    +0.295 HD
DOCKED: ENDBRANCH  40  42
DOCKED: ENDBRANCH  39  40
DOCKED: ENDBRANCH  27  38
DOCKED: BRANCH   8  44
DOCKED: ATOM     44  C   UNL d   1       9.434  11.567  33.662 -0.21 +0.10    +0.141 C 
DOCKED: BRANCH  44  45
DOCKED: ATOM     45  C   UNL d   1       9.726  11.257  35.106 -0.13 +0.28    +0.306 C 
DOCKED: ATOM     46  O   UNL d   1       9.214  10.378  35.778 -0.64 -0.21    -0.251 OA
DOCKED: BRANCH  45  47
DOCKED: ATOM     47  O   UNL d   1      10.634  12.094  35.640 -0.48 -0.66    -0.481 OA
DOCKED: ATOM     48  H   UNL d   1      10.134  12.606  36.311 +0.07 +0.28    +0.295 HD
DOCKED: ENDBRANCH  45  47
DOCKED: ENDBRANCH  44  45
DOCKED: ENDBRANCH   8  44
DOCKED: BRANCH  22  49
DOCKED: ATOM     49  C   UNL d   1       5.895  19.111  28.821 -0.19 +0.00    +0.048 C 
DOCKED: BRANCH  49  50
DOCKED: ATOM     50  C   UNL d   1       4.490  19.654  29.083 -0.22 -0.01    +0.125 C 
DOCKED: BRANCH  50  51
DOCKED: ATOM     51  C   UNL d   1       4.538  21.108  29.458 -0.19 -0.01    +0.305 C 
DOCKED: ATOM     52  O   UNL d   1       5.001  22.028  28.807 -0.16 -0.00    -0.251 OA
DOCKED: BRANCH  51  53
DOCKED: ATOM     53  O   UNL d   1       3.997  21.333  30.672 -0.03 +0.03    -0.481 OA
DOCKED: ATOM     54  H   UNL d   1       3.075  21.600  30.475 +0.12 -0.06    +0.295 HD
DOCKED: ENDBRANCH  51  53
DOCKED: ENDBRANCH  50  51
DOCKED: ENDBRANCH  49  50
DOCKED: ENDBRANCH  22  49
DOCKED: TORSDOF 13
DOCKED: TER
DOCKED: ENDMDL
________________________________________________________________________________


	BEGINNING GENETIC ALGORITHM DOCKING 54 of 100
Run: 54 Seed: 236527633 796130928 [ Run 54 of 100 GA/GALS ]
Beginning LAMARCKIAN GENETIC ALGORITHM (LGA), with a maximum of 25000000 energy evaluations.

Final-Value: -12.867


	FINAL GENETIC ALGORITHM DOCKED STATE
	_______________________________________________


Detailed state:  trans 14.497 4.378 14.782 quatxyzw 0.878204 -0.346536 0.299048 0.138707 center 0.153 0.018 -0.028 ntor 13 -122.1379 81.2661 116.7684 116.3427 -150.5363 -15.3167 103.7555 -135.8002 145.0589 -31.6639 54.4123 58.4569 158.4125
State:	 14.497   4.378  14.782   0.887 -0.350  0.302 164.054   -122.14   81.27  116.77  116.34 -150.54  -15.32  103.76 -135.80  145.06  -31.66   54.41   58.46  158.41

DOCKED: MODEL       54
DOCKED: USER    Run = 54
DOCKED: USER    DPF = D:/Protein_go_brrr/autodock/final/1A3N/heme/dock.dpf
DOCKED: USER  
DOCKED: USER    Estimated Free Energy of Binding    =   -7.91 kcal/mol  [=(1)+(2)+(3)-(4)]
DOCKED: USER    Estimated Inhibition Constant, Ki   =    1.59 uM (micromolar)  [Temperature = 298.15 K]
DOCKED: USER    
DOCKED: USER    (1) Final Intermolecular Energy     =  -11.79 kcal/mol
DOCKED: USER        vdW + Hbond + desolv Energy     =  -10.59 kcal/mol
DOCKED: USER        Electrostatic Energy            =   -1.20 kcal/mol
DOCKED: USER    (2) Final Total Internal Energy     =   -1.08 kcal/mol
DOCKED: USER    (3) Torsional Free Energy           =   +3.88 kcal/mol
DOCKED: USER    (4) Unbound System's Energy  [=(2)] =   -1.08 kcal/mol
DOCKED: USER    
DOCKED: USER    
DOCKED: USER    NEWDPF move heme_opt.pdbqt
DOCKED: USER    NEWDPF about 0.153000 0.018000 -0.028000
DOCKED: USER    NEWDPF tran0 14.496576 4.378288 14.782158
DOCKED: USER    NEWDPF quaternion0 0.878204 -0.346536 0.299048 0.138707
DOCKED: USER    NEWDPF axisangle0 0.886776 -0.349919 0.301967 164.053895
DOCKED: USER    NEWDPF quat0 0.886776 -0.349919 0.301967 164.053895
DOCKED: USER    NEWDPF dihe0 -122.14 81.27 116.77 116.34 -150.54 -15.32 103.76 -135.80 145.06 -31.66 54.41 58.46 158.41 
DOCKED: USER  keepresnum = 1 
DOCKED: USER  
DOCKED: REMARK  13 active torsions:
DOCKED: REMARK  status: ('A' for Active; 'I' for Inactive)
DOCKED: REMARK    1  A    between atoms: O_3  and  C_38 
DOCKED: REMARK    2  A    between atoms: O_4  and  C_40 
DOCKED: REMARK    3  A    between atoms: O_7  and  C_46 
DOCKED: REMARK    4  A    between atoms: O_9  and  C_48 
DOCKED: REMARK    5  A    between atoms: C_15  and  C_20 
DOCKED: REMARK    6  A    between atoms: C_16  and  C_23 
DOCKED: REMARK    7  A    between atoms: C_20  and  C_38 
DOCKED: REMARK    8  A    between atoms: C_23  and  C_40 
DOCKED: REMARK    9  A    between atoms: C_32  and  C_41 
DOCKED: REMARK   10  A    between atoms: C_37  and  C_45 
DOCKED: REMARK   11  A    between atoms: C_41  and  C_44 
DOCKED: REMARK   12  A    between atoms: C_44  and  C_46 
DOCKED: REMARK   13  A    between atoms: C_47  and  C_48 
DOCKED: USER                              x       y       z     vdW  Elec       q    Type
DOCKED: USER                           _______ _______ _______ _____ _____    ______ ____
DOCKED: ROOT
DOCKED: ATOM      1  O   UNL d   1      10.752   7.064  11.106 -0.04 -0.04    -0.289 OA
DOCKED: ATOM      2  O   UNL d   1      14.519   9.654  17.063 -0.29 -0.02    -0.289 OA
DOCKED: ATOM      3  N   UNL d   1      12.757   5.056  13.066 -0.11 -0.16    -0.247 NA
DOCKED: ATOM      4  N   UNL d   1      14.031   6.981  14.936 -0.13 -0.15    -0.247 NA
DOCKED: ATOM      5  N   UNL d   1      15.885   4.906  15.661 -0.15 -0.23    -0.354 N 
DOCKED: ATOM      6  N   UNL d   1      14.569   2.921  13.704 -0.06 -0.23    -0.354 N 
DOCKED: ATOM      7  C   UNL d   1      11.515   4.746  10.975 -0.13 +0.01    +0.084 A 
DOCKED: ATOM      8  C   UNL d   1      12.821   9.051  15.407 -0.24 +0.02    +0.084 A 
DOCKED: ATOM      9  C   UNL d   1      12.931   7.744  14.614 -0.20 +0.02    +0.058 A 
DOCKED: ATOM     10  C   UNL d   1      12.434   4.166  12.054 -0.16 +0.03    +0.058 A 
DOCKED: ATOM     11  C   UNL d   1      11.359   6.115  11.566 -0.06 +0.05    +0.193 A 
DOCKED: ATOM     12  C   UNL d   1      12.138   6.169  12.843 -0.12 +0.05    +0.109 A 
DOCKED: ATOM     13  C   UNL d   1      14.082   8.906  16.211 -0.20 +0.03    +0.193 A 
DOCKED: ATOM     14  C   UNL d   1      12.221   4.867   9.623 -0.22 -0.00    +0.026 C 
DOCKED: ATOM     15  C   UNL d   1      12.058   7.401  13.655 -0.17 +0.02    +0.055 C 
DOCKED: ATOM     16  C   UNL d   1      11.624   9.036  16.362 -0.50 +0.00    +0.026 C 
DOCKED: ATOM     17  C   UNL d   1      14.726   7.613  15.826 -0.24 +0.04    +0.109 A 
DOCKED: ATOM     18  C   UNL d   1      12.806   2.872  12.040 -0.20 +0.02    +0.050 C 
DOCKED: ATOM     19  C   UNL d   1      13.583   2.229  13.037 -0.16 +0.03    +0.045 A 
DOCKED: ATOM     20  C   UNL d   1      16.474   5.976  16.283 -0.32 +0.02    +0.045 A 
DOCKED: ATOM     21  C   UNL d   1      16.010   7.222  16.425 -0.29 +0.02    +0.057 C 
DOCKED: ATOM     22  C   UNL d   1      17.864   4.171  16.446 -0.30 +0.00    -0.019 A 
DOCKED: ATOM     23  C   UNL d   1      16.650   3.771  15.707 -0.26 +0.01    +0.045 A 
DOCKED: ATOM     24  C   UNL d   1      17.754   5.477  16.785 -0.34 -0.00    -0.022 A 
DOCKED: ATOM     25  C   UNL d   1      15.254   2.086  14.556 -0.14 +0.01    +0.049 A 
DOCKED: ATOM     26  C   UNL d   1      13.604   0.921  13.495 -0.13 -0.01    -0.018 A 
DOCKED: ATOM     27  C   UNL d   1      14.647   0.841  14.468 -0.13 +0.00    +0.003 A 
DOCKED: ATOM     28  C   UNL d   1      16.417   2.536  15.238 -0.24 -0.00    +0.052 C 
DOCKED: ATOM     29  C   UNL d   1      18.714   6.328  17.545 -0.35 -0.00    +0.046 C 
DOCKED: ATOM     30  C   UNL d   1      12.708  -0.189  13.058 -0.12 +0.03    +0.046 C 
DOCKED: ATOM     31  H   UNL d   1      14.944   4.967  15.289 +0.06 +0.12    +0.166 HD
DOCKED: ATOM     32  H   UNL d   1      14.773   3.901  13.543 +0.05 +0.16    +0.166 HD
DOCKED: ENDROOT
DOCKED: BRANCH   7  33
DOCKED: ATOM     33  C   UNL d   1      10.151   4.061  10.838 -0.18 -0.01    +0.141 C 
DOCKED: BRANCH  33  34
DOCKED: ATOM     34  C   UNL d   1       9.425   4.463   9.582 -0.12 -0.11    +0.306 C 
DOCKED: ATOM     35  O   UNL d   1       8.574   5.331   9.488 -0.14 +0.05    -0.251 OA
DOCKED: BRANCH  34  36
DOCKED: ATOM     36  O   UNL d   1       9.812   3.750   8.510 -0.09 +0.50    -0.481 OA
DOCKED: ATOM     37  H   UNL d   1       9.675   2.815   8.773 -0.29 -0.57    +0.295 HD
DOCKED: ENDBRANCH  34  36
DOCKED: ENDBRANCH  33  34
DOCKED: ENDBRANCH   7  33
DOCKED: BRANCH  27  38
DOCKED: ATOM     38  C   UNL d   1      15.021  -0.342  15.182 -0.16 -0.00    +0.017 C 
DOCKED: ATOM     39  C   UNL d   1      14.439  -0.783  16.308 -0.19 -0.02    +0.092 C 
DOCKED: BRANCH  39  40
DOCKED: ATOM     40  C   UNL d   1      14.906  -2.023  16.934 -0.05 -0.06    +0.330 C 
DOCKED: ATOM     41  O   UNL d   1      15.582  -2.900  16.432 -0.70 -0.06    -0.246 OA
DOCKED: BRANCH  40  42
DOCKED: ATOM     42  O   UNL d   1      14.487  -2.084  18.207 -0.35 +0.10    -0.477 OA
DOCKED: ATOM     43  H   UNL d   1      15.263  -1.788  18.725 -0.41 -0.43    +0.295 HD
DOCKED: ENDBRANCH  40  42
DOCKED: ENDBRANCH  39  40
DOCKED: ENDBRANCH  27  38
DOCKED: BRANCH   8  44
DOCKED: ATOM     44  C   UNL d   1      12.848  10.334  14.570 -0.21 +0.02    +0.141 C 
DOCKED: BRANCH  44  45
DOCKED: ATOM     45  C   UNL d   1      14.239  10.764  14.186 -0.08 +0.05    +0.306 C 
DOCKED: ATOM     46  O   UNL d   1      15.043  10.122  13.533 -0.05 -0.09    -0.251 OA
DOCKED: BRANCH  45  47
DOCKED: ATOM     47  O   UNL d   1      14.555  11.978  14.671 -0.10 +0.01    -0.481 OA
DOCKED: ATOM     48  H   UNL d   1      13.931  12.592  14.228 -0.44 -0.09    +0.295 HD
DOCKED: ENDBRANCH  45  47
DOCKED: ENDBRANCH  44  45
DOCKED: ENDBRANCH   8  44
DOCKED: BRANCH  22  49
DOCKED: ATOM     49  C   UNL d   1      19.015   3.252  16.736 -0.19 -0.04    +0.048 C 
DOCKED: BRANCH  49  50
DOCKED: ATOM     50  C   UNL d   1      19.870   3.002  15.493 -0.19 -0.03    +0.125 C 
DOCKED: BRANCH  50  51
DOCKED: ATOM     51  C   UNL d   1      19.994   1.531  15.215 -0.11 -0.12    +0.305 C 
DOCKED: ATOM     52  O   UNL d   1      20.974   0.932  14.808 -0.18 +0.04    -0.251 OA
DOCKED: BRANCH  51  53
DOCKED: ATOM     53  O   UNL d   1      18.843   0.873  15.457 -0.02 +0.39    -0.481 OA
DOCKED: ATOM     54  H   UNL d   1      18.706   0.981  16.422 -0.45 -0.61    +0.295 HD
DOCKED: ENDBRANCH  51  53
DOCKED: ENDBRANCH  50  51
DOCKED: ENDBRANCH  49  50
DOCKED: ENDBRANCH  22  49
DOCKED: TORSDOF 13
DOCKED: TER
DOCKED: ENDMDL
________________________________________________________________________________


	BEGINNING GENETIC ALGORITHM DOCKING 55 of 100
Run: 55 Seed: 1938416413 1885179565 [ Run 55 of 100 GA/GALS ]
Beginning LAMARCKIAN GENETIC ALGORITHM (LGA), with a maximum of 25000000 energy evaluations.

Final-Value: -15.178


	FINAL GENETIC ALGORITHM DOCKED STATE
	_______________________________________________


Detailed state:  trans 1.719 -6.660 -4.982 quatxyzw 0.260835 -0.683793 0.575059 0.365650 center 0.153 0.018 -0.028 ntor 13 129.9145 167.0617 -157.9382 50.0321 -44.5692 -38.2849 -76.6079 107.3109 -15.7802 -157.9425 -28.1721 -51.0792 11.2173
State:	  1.719  -6.660  -4.982   0.280 -0.735  0.618 137.105    129.91  167.06 -157.94   50.03  -44.57  -38.28  -76.61  107.31  -15.78 -157.94  -28.17  -51.08   11.22

DOCKED: MODEL       55
DOCKED: USER    Run = 55
DOCKED: USER    DPF = D:/Protein_go_brrr/autodock/final/1A3N/heme/dock.dpf
DOCKED: USER  
DOCKED: USER    Estimated Free Energy of Binding    =   -8.34 kcal/mol  [=(1)+(2)+(3)-(4)]
DOCKED: USER    Estimated Inhibition Constant, Ki   =  776.74 nM (nanomolar)  [Temperature = 298.15 K]
DOCKED: USER    
DOCKED: USER    (1) Final Intermolecular Energy     =  -12.21 kcal/mol
DOCKED: USER        vdW + Hbond + desolv Energy     =  -12.08 kcal/mol
DOCKED: USER        Electrostatic Energy            =   -0.13 kcal/mol
DOCKED: USER    (2) Final Total Internal Energy     =   -2.96 kcal/mol
DOCKED: USER    (3) Torsional Free Energy           =   +3.88 kcal/mol
DOCKED: USER    (4) Unbound System's Energy  [=(2)] =   -2.96 kcal/mol
DOCKED: USER    
DOCKED: USER    
DOCKED: USER    NEWDPF move heme_opt.pdbqt
DOCKED: USER    NEWDPF about 0.153000 0.018000 -0.028000
DOCKED: USER    NEWDPF tran0 1.718572 -6.659517 -4.982498
DOCKED: USER    NEWDPF quaternion0 0.260835 -0.683793 0.575059 0.365650
DOCKED: USER    NEWDPF axisangle0 0.280241 -0.734667 0.617843 137.104801
DOCKED: USER    NEWDPF quat0 0.280241 -0.734667 0.617843 137.104801
DOCKED: USER    NEWDPF dihe0 129.91 167.06 -157.94 50.03 -44.57 -38.28 -76.61 107.31 -15.78 -157.94 -28.17 -51.08 11.22 
DOCKED: USER  keepresnum = 1 
DOCKED: USER  
DOCKED: REMARK  13 active torsions:
DOCKED: REMARK  status: ('A' for Active; 'I' for Inactive)
DOCKED: REMARK    1  A    between atoms: O_3  and  C_38 
DOCKED: REMARK    2  A    between atoms: O_4  and  C_40 
DOCKED: REMARK    3  A    between atoms: O_7  and  C_46 
DOCKED: REMARK    4  A    between atoms: O_9  and  C_48 
DOCKED: REMARK    5  A    between atoms: C_15  and  C_20 
DOCKED: REMARK    6  A    between atoms: C_16  and  C_23 
DOCKED: REMARK    7  A    between atoms: C_20  and  C_38 
DOCKED: REMARK    8  A    between atoms: C_23  and  C_40 
DOCKED: REMARK    9  A    between atoms: C_32  and  C_41 
DOCKED: REMARK   10  A    between atoms: C_37  and  C_45 
DOCKED: REMARK   11  A    between atoms: C_41  and  C_44 
DOCKED: REMARK   12  A    between atoms: C_44  and  C_46 
DOCKED: REMARK   13  A    between atoms: C_47  and  C_48 
DOCKED: USER                              x       y       z     vdW  Elec       q    Type
DOCKED: USER                           _______ _______ _______ _____ _____    ______ ____
DOCKED: ROOT
DOCKED: ATOM      1  O   UNL d   1       5.692  -2.342  -5.557 +0.07 -0.03    -0.289 OA
DOCKED: ATOM      2  O   UNL d   1       1.731  -4.635   0.397 -0.21 -0.02    -0.289 OA
DOCKED: ATOM      3  N   UNL d   1       3.347  -4.865  -5.732 -0.33 -0.05    -0.247 NA
DOCKED: ATOM      4  N   UNL d   1       2.553  -5.259  -2.896 -0.43 -0.03    -0.247 NA
DOCKED: ATOM      5  N   UNL d   1       1.289  -7.717  -3.688 -0.17 -0.04    -0.354 N 
DOCKED: ATOM      6  N   UNL d   1       2.133  -7.310  -6.624 -0.13 -0.10    -0.354 N 
DOCKED: ATOM      7  C   UNL d   1       4.983  -3.913  -7.290 -0.37 +0.01    +0.084 A 
DOCKED: ATOM      8  C   UNL d   1       2.802  -3.351  -1.390 -0.35 +0.01    +0.084 A 
DOCKED: ATOM      9  C   UNL d   1       3.020  -3.969  -2.775 -0.38 +0.01    +0.058 A 
DOCKED: ATOM     10  C   UNL d   1       3.878  -4.937  -7.009 -0.32 +0.01    +0.058 A 
DOCKED: ATOM     11  C   UNL d   1       4.968  -3.238  -5.951 -0.35 +0.02    +0.193 A 
DOCKED: ATOM     12  C   UNL d   1       3.917  -3.888  -5.106 -0.38 +0.02    +0.109 A 
DOCKED: ATOM     13  C   UNL d   1       2.160  -4.541  -0.736 -0.25 +0.01    +0.193 A 
DOCKED: ATOM     14  C   UNL d   1       6.346  -4.580  -7.493 -0.24 +0.00    +0.026 C 
DOCKED: ATOM     15  C   UNL d   1       3.656  -3.325  -3.766 -0.42 +0.01    +0.055 C 
DOCKED: ATOM     16  C   UNL d   1       1.786  -2.205  -1.433 -0.47 +0.00    +0.026 C 
DOCKED: ATOM     17  C   UNL d   1       2.074  -5.633  -1.753 -0.27 +0.01    +0.109 A 
DOCKED: ATOM     18  C   UNL d   1       3.423  -5.761  -7.971 -0.28 +0.01    +0.050 C 
DOCKED: ATOM     19  C   UNL d   1       2.351  -6.679  -7.828 -0.24 +0.02    +0.045 A 
DOCKED: ATOM     20  C   UNL d   1       1.215  -7.842  -2.325 -0.35 +0.00    +0.045 A 
DOCKED: ATOM     21  C   UNL d   1       1.524  -6.945  -1.383 -0.35 +0.00    +0.057 C 
DOCKED: ATOM     22  C   UNL d   1       0.515  -9.793  -3.284 -0.37 -0.00    -0.019 A 
DOCKED: ATOM     23  C   UNL d   1       0.888  -8.845  -4.353 -0.34 +0.01    +0.045 A 
DOCKED: ATOM     24  C   UNL d   1       0.710  -9.194  -2.086 -0.42 -0.00    -0.022 A 
DOCKED: ATOM     25  C   UNL d   1       1.106  -8.219  -6.734 -0.25 +0.02    +0.049 A 
DOCKED: ATOM     26  C   UNL d   1       1.419  -7.162  -8.733 -0.22 -0.01    -0.018 A 
DOCKED: ATOM     27  C   UNL d   1       0.623  -8.120  -8.032 -0.23 +0.00    +0.003 A 
DOCKED: ATOM     28  C   UNL d   1       0.799  -9.105  -5.666 -0.33 +0.01    +0.052 C 
DOCKED: ATOM     29  C   UNL d   1       0.467  -9.738  -0.720 -0.46 +0.00    +0.046 C 
DOCKED: ATOM     30  C   UNL d   1       1.273  -6.760 -10.161 -0.16 +0.03    +0.046 C 
DOCKED: ATOM     31  H   UNL d   1       1.543  -6.836  -4.122 +0.07 +0.03    +0.166 HD
DOCKED: ATOM     32  H   UNL d   1       2.691  -7.144  -5.795 +0.08 +0.03    +0.166 HD
DOCKED: ENDROOT
DOCKED: BRANCH   7  33
DOCKED: ATOM     33  C   UNL d   1       4.677  -2.906  -8.403 -0.26 -0.01    +0.141 C 
DOCKED: BRANCH  33  34
DOCKED: ATOM     34  C   UNL d   1       3.213  -2.574  -8.499 -0.20 +0.02    +0.306 C 
DOCKED: ATOM     35  O   UNL d   1       2.348  -2.894  -7.700 -0.24 -0.05    -0.251 OA
DOCKED: BRANCH  34  36
DOCKED: ATOM     36  O   UNL d   1       2.915  -1.855  -9.595 -0.20 -0.02    -0.481 OA
DOCKED: ATOM     37  H   UNL d   1       3.534  -1.095  -9.568 -0.37 -0.07    +0.295 HD
DOCKED: ENDBRANCH  34  36
DOCKED: ENDBRANCH  33  34
DOCKED: ENDBRANCH   7  33
DOCKED: BRANCH  27  38
DOCKED: ATOM     38  C   UNL d   1      -0.452  -8.875  -8.601 -0.13 +0.01    +0.017 C 
DOCKED: ATOM     39  C   UNL d   1      -1.019  -9.956  -8.045 -0.13 +0.04    +0.092 C 
DOCKED: BRANCH  39  40
DOCKED: ATOM     40  C   UNL d   1      -2.128 -10.631  -8.725 -0.07 +0.13    +0.330 C 
DOCKED: ATOM     41  O   UNL d   1      -3.058 -10.118  -9.318 -0.10 -0.13    -0.246 OA
DOCKED: BRANCH  40  42
DOCKED: ATOM     42  O   UNL d   1      -1.992 -11.962  -8.621 -0.01 -0.09    -0.477 OA
DOCKED: ATOM     43  H   UNL d   1      -1.074 -12.080  -8.301 +0.04 +0.05    +0.295 HD
DOCKED: ENDBRANCH  40  42
DOCKED: ENDBRANCH  39  40
DOCKED: ENDBRANCH  27  38
DOCKED: BRANCH   8  44
DOCKED: ATOM     44  C   UNL d   1       4.075  -2.936  -0.645 -0.43 +0.01    +0.141 C 
DOCKED: BRANCH  44  45
DOCKED: ATOM     45  C   UNL d   1       3.855  -1.803   0.322 -0.36 +0.01    +0.306 C 
DOCKED: ATOM     46  O   UNL d   1       4.408  -0.717   0.307 -0.36 -0.00    -0.251 OA
DOCKED: BRANCH  45  47
DOCKED: ATOM     47  O   UNL d   1       2.962  -2.110   1.281 -0.17 -0.00    -0.481 OA
DOCKED: ATOM     48  H   UNL d   1       2.949  -3.091   1.301 +0.22 +0.01    +0.295 HD
DOCKED: ENDBRANCH  45  47
DOCKED: ENDBRANCH  44  45
DOCKED: ENDBRANCH   8  44
DOCKED: BRANCH  22  49
DOCKED: ATOM     49  C   UNL d   1       0.023 -11.189  -3.531 +0.02 +0.00    +0.048 C 
DOCKED: BRANCH  49  50
DOCKED: ATOM     50  C   UNL d   1      -1.400 -11.200  -4.089 -0.29 +0.00    +0.125 C 
DOCKED: BRANCH  50  51
DOCKED: ATOM     51  C   UNL d   1      -1.640 -12.426  -4.923 -0.12 +0.01    +0.305 C 
DOCKED: ATOM     52  O   UNL d   1      -2.231 -13.441  -4.599 -0.09 +0.01    -0.251 OA
DOCKED: BRANCH  51  53
DOCKED: ATOM     53  O   UNL d   1      -1.099 -12.314  -6.152 -0.03 -0.04    -0.481 OA
DOCKED: ATOM     54  H   UNL d   1      -1.826 -12.570  -6.757 +0.06 +0.03    +0.295 HD
DOCKED: ENDBRANCH  51  53
DOCKED: ENDBRANCH  50  51
DOCKED: ENDBRANCH  49  50
DOCKED: ENDBRANCH  22  49
DOCKED: TORSDOF 13
DOCKED: TER
DOCKED: ENDMDL
________________________________________________________________________________


	BEGINNING GENETIC ALGORITHM DOCKING 56 of 100
Run: 56 Seed: 1172625364 1201006302 [ Run 56 of 100 GA/GALS ]
Beginning LAMARCKIAN GENETIC ALGORITHM (LGA), with a maximum of 25000000 energy evaluations.

Final-Value: -10.974


	FINAL GENETIC ALGORITHM DOCKED STATE
	_______________________________________________


Detailed state:  trans 31.610 -23.769 22.215 quatxyzw -0.741711 -0.189168 -0.531470 0.362794 center 0.153 0.018 -0.028 ntor 13 141.3450 -160.4573 38.9312 49.0531 -135.9188 -118.8487 132.4026 47.7331 21.4833 144.5564 -92.2656 39.7333 6.6850
State:	 31.610 -23.769  22.215  -0.796 -0.203 -0.570 137.456    141.35 -160.46   38.93   49.05 -135.92 -118.85  132.40   47.73   21.48  144.56  -92.27   39.73    6.69

DOCKED: MODEL       56
DOCKED: USER    Run = 56
DOCKED: USER    DPF = D:/Protein_go_brrr/autodock/final/1A3N/heme/dock.dpf
DOCKED: USER  
DOCKED: USER    Estimated Free Energy of Binding    =   -3.12 kcal/mol  [=(1)+(2)+(3)-(4)]
DOCKED: USER    Estimated Inhibition Constant, Ki   =    5.17 mM (millimolar)  [Temperature = 298.15 K]
DOCKED: USER    
DOCKED: USER    (1) Final Intermolecular Energy     =   -7.00 kcal/mol
DOCKED: USER        vdW + Hbond + desolv Energy     =   -6.85 kcal/mol
DOCKED: USER        Electrostatic Energy            =   -0.14 kcal/mol
DOCKED: USER    (2) Final Total Internal Energy     =   -3.98 kcal/mol
DOCKED: USER    (3) Torsional Free Energy           =   +3.88 kcal/mol
DOCKED: USER    (4) Unbound System's Energy  [=(2)] =   -3.98 kcal/mol
DOCKED: USER    
DOCKED: USER    
DOCKED: USER    NEWDPF move heme_opt.pdbqt
DOCKED: USER    NEWDPF about 0.153000 0.018000 -0.028000
DOCKED: USER    NEWDPF tran0 31.610338 -23.769293 22.214729
DOCKED: USER    NEWDPF quaternion0 -0.741711 -0.189168 -0.531470 0.362794
DOCKED: USER    NEWDPF axisangle0 -0.795939 -0.202998 -0.570327 137.456201
DOCKED: USER    NEWDPF quat0 -0.795939 -0.202998 -0.570327 137.456201
DOCKED: USER    NEWDPF dihe0 141.35 -160.46 38.93 49.05 -135.92 -118.85 132.40 47.73 21.48 144.56 -92.27 39.73 6.69 
DOCKED: USER  keepresnum = 1 
DOCKED: USER  
DOCKED: REMARK  13 active torsions:
DOCKED: REMARK  status: ('A' for Active; 'I' for Inactive)
DOCKED: REMARK    1  A    between atoms: O_3  and  C_38 
DOCKED: REMARK    2  A    between atoms: O_4  and  C_40 
DOCKED: REMARK    3  A    between atoms: O_7  and  C_46 
DOCKED: REMARK    4  A    between atoms: O_9  and  C_48 
DOCKED: REMARK    5  A    between atoms: C_15  and  C_20 
DOCKED: REMARK    6  A    between atoms: C_16  and  C_23 
DOCKED: REMARK    7  A    between atoms: C_20  and  C_38 
DOCKED: REMARK    8  A    between atoms: C_23  and  C_40 
DOCKED: REMARK    9  A    between atoms: C_32  and  C_41 
DOCKED: REMARK   10  A    between atoms: C_37  and  C_45 
DOCKED: REMARK   11  A    between atoms: C_41  and  C_44 
DOCKED: REMARK   12  A    between atoms: C_44  and  C_46 
DOCKED: REMARK   13  A    between atoms: C_47  and  C_48 
DOCKED: USER                              x       y       z     vdW  Elec       q    Type
DOCKED: USER                           _______ _______ _______ _____ _____    ______ ____
DOCKED: ROOT
DOCKED: ATOM      1  O   UNL d   1      29.993 -28.850  19.698 -0.00 +0.01    -0.289 OA
DOCKED: ATOM      2  O   UNL d   1      29.692 -21.784  17.174 -0.25 -0.04    -0.289 OA
DOCKED: ATOM      3  N   UNL d   1      30.944 -26.141  21.610 -0.06 +0.02    -0.247 NA
DOCKED: ATOM      4  N   UNL d   1      30.769 -23.866  19.706 -0.15 +0.01    -0.247 NA
DOCKED: ATOM      5  N   UNL d   1      32.246 -22.287  21.601 -0.10 +0.04    -0.354 N 
DOCKED: ATOM      6  N   UNL d   1      32.440 -24.657  23.561 -0.03 +0.03    -0.354 N 
DOCKED: ATOM      7  C   UNL d   1      31.033 -28.574  21.894 -0.01 -0.00    +0.084 A 
DOCKED: ATOM      8  C   UNL d   1      29.211 -24.091  17.836 -0.23 +0.02    +0.084 A 
DOCKED: ATOM      9  C   UNL d   1      29.903 -24.714  19.053 -0.17 +0.00    +0.058 A 
DOCKED: ATOM     10  C   UNL d   1      31.327 -27.176  22.446 -0.04 -0.00    +0.058 A 
DOCKED: ATOM     11  C   UNL d   1      30.400 -28.145  20.604 -0.01 -0.01    +0.193 A 
DOCKED: ATOM     12  C   UNL d   1      30.381 -26.648  20.562 -0.06 -0.01    +0.109 A 
DOCKED: ATOM     13  C   UNL d   1      29.874 -22.743  17.897 -0.25 +0.02    +0.193 A 
DOCKED: ATOM     14  C   UNL d   1      32.315 -29.350  21.582 -0.00 -0.00    +0.026 C 
DOCKED: ATOM     15  C   UNL d   1      29.716 -25.993  19.418 -0.11 -0.00    +0.055 C 
DOCKED: ATOM     16  C   UNL d   1      27.708 -23.911  18.068 -0.45 +0.02    +0.026 C 
DOCKED: ATOM     17  C   UNL d   1      30.800 -22.739  19.070 -0.22 -0.01    +0.109 A 
DOCKED: ATOM     18  C   UNL d   1      31.831 -27.000  23.682 -0.03 -0.00    +0.050 C 
DOCKED: ATOM     19  C   UNL d   1      32.056 -25.748  24.308 -0.05 -0.00    +0.045 A 
DOCKED: ATOM     20  C   UNL d   1      32.265 -21.440  20.523 -0.30 -0.01    +0.045 A 
DOCKED: ATOM     21  C   UNL d   1      31.624 -21.556  19.355 -0.32 -0.01    +0.057 C 
DOCKED: ATOM     22  C   UNL d   1      33.607 -20.581  22.160 -0.23 +0.00    -0.019 A 
DOCKED: ATOM     23  C   UNL d   1      33.027 -21.852  22.638 -0.16 -0.01    +0.045 A 
DOCKED: ATOM     24  C   UNL d   1      33.151 -20.342  20.907 -0.33 +0.00    -0.022 A 
DOCKED: ATOM     25  C   UNL d   1      32.691 -23.578  24.376 -0.07 -0.01    +0.049 A 
DOCKED: ATOM     26  C   UNL d   1      32.021 -25.358  25.638 -0.05 +0.00    -0.018 A 
DOCKED: ATOM     27  C   UNL d   1      32.403 -23.981  25.673 -0.06 -0.00    +0.003 A 
DOCKED: ATOM     28  C   UNL d   1      33.251 -22.382  23.851 -0.12 -0.01    +0.052 C 
DOCKED: ATOM     29  C   UNL d   1      33.443 -19.185  20.014 -0.53 -0.01    +0.046 C 
DOCKED: ATOM     30  C   UNL d   1      31.652 -26.208  26.806 -0.02 -0.00    +0.046 C 
DOCKED: ATOM     31  H   UNL d   1      31.639 -23.099  21.621 +0.05 -0.01    +0.166 HD
DOCKED: ATOM     32  H   UNL d   1      32.556 -24.680  22.555 +0.03 -0.01    +0.166 HD
DOCKED: ENDROOT
DOCKED: BRANCH   7  33
DOCKED: ATOM     33  C   UNL d   1      30.053 -29.414  22.720 -0.01 -0.01    +0.141 C 
DOCKED: BRANCH  33  34
DOCKED: ATOM     34  C   UNL d   1      28.647 -28.881  22.670 -0.01 -0.02    +0.306 C 
DOCKED: ATOM     35  O   UNL d   1      28.199 -27.967  23.341 -0.05 +0.02    -0.251 OA
DOCKED: BRANCH  34  36
DOCKED: ATOM     36  O   UNL d   1      27.880 -29.528  21.774 +0.01 +0.03    -0.481 OA
DOCKED: ATOM     37  H   UNL d   1      28.463 -29.655  20.996 +0.01 -0.02    +0.295 HD
DOCKED: ENDBRANCH  34  36
DOCKED: ENDBRANCH  33  34
DOCKED: ENDBRANCH   7  33
DOCKED: BRANCH  27  38
DOCKED: ATOM     38  C   UNL d   1      32.513 -23.185  26.858 -0.08 -0.00    +0.017 C 
DOCKED: ATOM     39  C   UNL d   1      31.622 -22.265  27.259 -0.17 -0.04    +0.092 C 
DOCKED: BRANCH  39  40
DOCKED: ATOM     40  C   UNL d   1      31.844 -21.528  28.506 -0.01 -0.30    +0.330 C 
DOCKED: ATOM     41  O   UNL d   1      31.124 -21.488  29.484 -0.12 +0.22    -0.246 OA
DOCKED: BRANCH  40  42
DOCKED: ATOM     42  O   UNL d   1      33.010 -20.866  28.449 +0.01 +0.55    -0.477 OA
DOCKED: ATOM     43  H   UNL d   1      33.206 -20.817  27.490 +0.01 -0.28    +0.295 HD
DOCKED: ENDBRANCH  40  42
DOCKED: ENDBRANCH  39  40
DOCKED: ENDBRANCH  27  38
DOCKED: BRANCH   8  44
DOCKED: ATOM     44  C   UNL d   1      29.488 -24.778  16.495 -0.15 +0.05    +0.141 C 
DOCKED: BRANCH  44  45
DOCKED: ATOM     45  C   UNL d   1      28.437 -25.788  16.118 -0.07 +0.14    +0.306 C 
DOCKED: ATOM     46  O   UNL d   1      27.410 -25.571  15.498 -0.62 -0.25    -0.251 OA
DOCKED: BRANCH  45  47
DOCKED: ATOM     47  O   UNL d   1      28.724 -27.023  16.568 +0.01 -0.06    -0.481 OA
DOCKED: ATOM     48  H   UNL d   1      28.434 -27.623  15.848 +0.03 +0.02    +0.295 HD
DOCKED: ENDBRANCH  45  47
DOCKED: ENDBRANCH  44  45
DOCKED: ENDBRANCH   8  44
DOCKED: BRANCH  22  49
DOCKED: ATOM     49  C   UNL d   1      34.555 -19.735  22.957 -0.23 -0.01    +0.048 C 
DOCKED: BRANCH  49  50
DOCKED: ATOM     50  C   UNL d   1      33.830 -18.936  24.041 -0.33 -0.06    +0.125 C 
DOCKED: BRANCH  50  51
DOCKED: ATOM     51  C   UNL d   1      33.730 -19.727  25.314 -0.17 -0.18    +0.305 C 
DOCKED: ATOM     52  O   UNL d   1      34.588 -20.426  25.824 -0.06 +0.11    -0.251 OA
DOCKED: BRANCH  51  53
DOCKED: ATOM     53  O   UNL d   1      32.518 -19.605  25.890 -0.13 +0.47    -0.481 OA
DOCKED: ATOM     54  H   UNL d   1      32.719 -19.399  26.826 -0.40 -0.54    +0.295 HD
DOCKED: ENDBRANCH  51  53
DOCKED: ENDBRANCH  50  51
DOCKED: ENDBRANCH  49  50
DOCKED: ENDBRANCH  22  49
DOCKED: TORSDOF 13
DOCKED: TER
DOCKED: ENDMDL
________________________________________________________________________________


	BEGINNING GENETIC ALGORITHM DOCKING 57 of 100
Run: 57 Seed: 576513357 127062278 [ Run 57 of 100 GA/GALS ]
Beginning LAMARCKIAN GENETIC ALGORITHM (LGA), with a maximum of 25000000 energy evaluations.

Final-Value: -10.609


	FINAL GENETIC ALGORITHM DOCKED STATE
	_______________________________________________


Detailed state:  trans 8.889 15.033 -7.272 quatxyzw -0.364227 0.480533 -0.632966 -0.485572 center 0.153 0.018 -0.028 ntor 13 -112.1896 -25.7542 -158.2122 75.4622 35.3210 164.5978 135.6843 101.7879 131.2247 -8.8515 -170.1643 -7.6797 1.4803
State:	  8.889  15.033  -7.272  -0.417  0.550 -0.724 -121.900   -112.19  -25.75 -158.21   75.46   35.32  164.60  135.68  101.79  131.22   -8.85 -170.16   -7.68    1.48

DOCKED: MODEL       57
DOCKED: USER    Run = 57
DOCKED: USER    DPF = D:/Protein_go_brrr/autodock/final/1A3N/heme/dock.dpf
DOCKED: USER  
DOCKED: USER    Estimated Free Energy of Binding    =   -4.05 kcal/mol  [=(1)+(2)+(3)-(4)]
DOCKED: USER    Estimated Inhibition Constant, Ki   =    1.08 mM (millimolar)  [Temperature = 298.15 K]
DOCKED: USER    
DOCKED: USER    (1) Final Intermolecular Energy     =   -7.93 kcal/mol
DOCKED: USER        vdW + Hbond + desolv Energy     =   -7.57 kcal/mol
DOCKED: USER        Electrostatic Energy            =   -0.35 kcal/mol
DOCKED: USER    (2) Final Total Internal Energy     =   -2.68 kcal/mol
DOCKED: USER    (3) Torsional Free Energy           =   +3.88 kcal/mol
DOCKED: USER    (4) Unbound System's Energy  [=(2)] =   -2.68 kcal/mol
DOCKED: USER    
DOCKED: USER    
DOCKED: USER    NEWDPF move heme_opt.pdbqt
DOCKED: USER    NEWDPF about 0.153000 0.018000 -0.028000
DOCKED: USER    NEWDPF tran0 8.889129 15.032730 -7.272489
DOCKED: USER    NEWDPF quaternion0 -0.364227 0.480533 -0.632966 -0.485572
DOCKED: USER    NEWDPF axisangle0 -0.416642 0.549686 -0.724055 -121.900039
DOCKED: USER    NEWDPF quat0 -0.416642 0.549686 -0.724055 -121.900039
DOCKED: USER    NEWDPF dihe0 -112.19 -25.75 -158.21 75.46 35.32 164.60 135.68 101.79 131.22 -8.85 -170.16 -7.68 1.48 
DOCKED: USER  keepresnum = 1 
DOCKED: USER  
DOCKED: REMARK  13 active torsions:
DOCKED: REMARK  status: ('A' for Active; 'I' for Inactive)
DOCKED: REMARK    1  A    between atoms: O_3  and  C_38 
DOCKED: REMARK    2  A    between atoms: O_4  and  C_40 
DOCKED: REMARK    3  A    between atoms: O_7  and  C_46 
DOCKED: REMARK    4  A    between atoms: O_9  and  C_48 
DOCKED: REMARK    5  A    between atoms: C_15  and  C_20 
DOCKED: REMARK    6  A    between atoms: C_16  and  C_23 
DOCKED: REMARK    7  A    between atoms: C_20  and  C_38 
DOCKED: REMARK    8  A    between atoms: C_23  and  C_40 
DOCKED: REMARK    9  A    between atoms: C_32  and  C_41 
DOCKED: REMARK   10  A    between atoms: C_37  and  C_45 
DOCKED: REMARK   11  A    between atoms: C_41  and  C_44 
DOCKED: REMARK   12  A    between atoms: C_44  and  C_46 
DOCKED: REMARK   13  A    between atoms: C_47  and  C_48 
DOCKED: USER                              x       y       z     vdW  Elec       q    Type
DOCKED: USER                           _______ _______ _______ _____ _____    ______ ____
DOCKED: ROOT
DOCKED: ATOM      1  O   UNL d   1      11.414  20.168  -8.689 -0.02 +0.01    -0.289 OA
DOCKED: ATOM      2  O   UNL d   1       6.841  18.321  -3.026 -0.02 +0.03    -0.289 OA
DOCKED: ATOM      3  N   UNL d   1      10.056  17.018  -8.336 -0.12 -0.01    -0.247 NA
DOCKED: ATOM      4  N   UNL d   1       8.674  17.160  -5.710 -0.06 +0.02    -0.247 NA
DOCKED: ATOM      5  N   UNL d   1       8.455  14.294  -5.774 -0.10 +0.04    -0.354 N 
DOCKED: ATOM      6  N   UNL d   1       9.907  14.154  -8.490 -0.11 -0.06    -0.354 N 
DOCKED: ATOM      7  C   UNL d   1      11.698  18.034  -9.846 -0.07 +0.01    +0.084 A 
DOCKED: ATOM      8  C   UNL d   1       7.930  19.362  -4.956 -0.04 -0.00    +0.084 A 
DOCKED: ATOM      9  C   UNL d   1       8.688  18.510  -5.979 -0.10 -0.00    +0.058 A 
DOCKED: ATOM     10  C   UNL d   1      10.912  16.797  -9.403 -0.14 +0.01    +0.058 A 
DOCKED: ATOM     11  C   UNL d   1      11.122  18.998  -8.853 -0.05 +0.00    +0.193 A 
DOCKED: ATOM     12  C   UNL d   1      10.121  18.268  -8.012 -0.11 +0.00    +0.109 A 
DOCKED: ATOM     13  C   UNL d   1       7.514  18.249  -4.036 -0.04 -0.01    +0.193 A 
DOCKED: ATOM     14  C   UNL d   1      13.199  17.886  -9.580 -0.15 +0.00    +0.026 C 
DOCKED: ATOM     15  C   UNL d   1       9.351  19.042  -7.018 -0.10 -0.00    +0.055 C 
DOCKED: ATOM     16  C   UNL d   1       6.674  19.994  -5.562 -0.01 -0.00    +0.026 C 
DOCKED: ATOM     17  C   UNL d   1       8.034  16.967  -4.601 -0.06 -0.01    +0.109 A 
DOCKED: ATOM     18  C   UNL d   1      10.999  15.631 -10.071 -0.20 +0.01    +0.050 C 
DOCKED: ATOM     19  C   UNL d   1      10.248  14.462  -9.787 -0.20 +0.01    +0.045 A 
DOCKED: ATOM     20  C   UNL d   1       8.053  14.532  -4.486 -0.19 -0.01    +0.045 A 
DOCKED: ATOM     21  C   UNL d   1       7.816  15.702  -3.885 -0.18 -0.01    +0.057 C 
DOCKED: ATOM     22  C   UNL d   1       8.248  12.277  -4.794 -0.39 +0.00    -0.019 A 
DOCKED: ATOM     23  C   UNL d   1       8.600  12.961  -6.054 -0.30 -0.00    +0.045 A 
DOCKED: ATOM     24  C   UNL d   1       7.923  13.212  -3.870 -0.33 +0.00    -0.022 A 
DOCKED: ATOM     25  C   UNL d   1       9.264  12.939  -8.435 -0.12 +0.00    +0.049 A 
DOCKED: ATOM     26  C   UNL d   1       9.783  13.440 -10.600 -0.16 -0.00    -0.018 A 
DOCKED: ATOM     27  C   UNL d   1       9.145  12.490  -9.743 -0.19 +0.00    +0.003 A 
DOCKED: ATOM     28  C   UNL d   1       8.953  12.334  -7.186 -0.26 +0.00    +0.052 C 
DOCKED: ATOM     29  C   UNL d   1       7.490  13.016  -2.457 -0.38 -0.01    +0.046 C 
DOCKED: ATOM     30  C   UNL d   1       9.919  13.349 -12.082 -0.10 +0.01    +0.046 C 
DOCKED: ATOM     31  H   UNL d   1       8.546  15.049  -6.445 +0.03 -0.01    +0.166 HD
DOCKED: ATOM     32  H   UNL d   1      10.143  14.736  -7.695 +0.05 +0.02    +0.166 HD
DOCKED: ENDROOT
DOCKED: BRANCH   7  33
DOCKED: ATOM     33  C   UNL d   1      11.425  18.508 -11.277 -0.02 +0.02    +0.141 C 
DOCKED: BRANCH  33  34
DOCKED: ATOM     34  C   UNL d   1      12.209  19.741 -11.638 +0.01 +0.02    +0.306 C 
DOCKED: ATOM     35  O   UNL d   1      13.324  19.767 -12.131 -0.00 -0.02    -0.251 OA
DOCKED: BRANCH  34  36
DOCKED: ATOM     36  O   UNL d   1      11.545  20.877 -11.361 +0.00 -0.02    -0.481 OA
DOCKED: ATOM     37  H   UNL d   1      11.464  20.884 -10.384 +0.01 +0.00    +0.295 HD
DOCKED: ENDBRANCH  34  36
DOCKED: ENDBRANCH  33  34
DOCKED: ENDBRANCH   7  33
DOCKED: BRANCH  27  38
DOCKED: ATOM     38  C   UNL d   1       8.538  11.268 -10.174 -0.20 +0.00    +0.017 C 
DOCKED: ATOM     39  C   UNL d   1       7.510  10.657  -9.564 -0.19 +0.00    +0.092 C 
DOCKED: BRANCH  39  40
DOCKED: ATOM     40  C   UNL d   1       6.967   9.414 -10.119 -0.12 -0.10    +0.330 C 
DOCKED: ATOM     41  O   UNL d   1       6.261   8.597  -9.559 -0.66 +0.07    -0.246 OA
DOCKED: BRANCH  40  42
DOCKED: ATOM     42  O   UNL d   1       7.351   9.272 -11.397 -0.06 +0.41    -0.477 OA
DOCKED: ATOM     43  H   UNL d   1       7.329   8.303 -11.542 -0.38 -0.75    +0.295 HD
DOCKED: ENDBRANCH  40  42
DOCKED: ENDBRANCH  39  40
DOCKED: ENDBRANCH  27  38
DOCKED: BRANCH   8  44
DOCKED: ATOM     44  C   UNL d   1       8.771  20.404  -4.211 -0.04 -0.00    +0.141 C 
DOCKED: BRANCH  44  45
DOCKED: ATOM     45  C   UNL d   1       9.924  19.804  -3.451 -0.06 +0.00    +0.306 C 
DOCKED: ATOM     46  O   UNL d   1      11.059  19.640  -3.863 -0.22 -0.01    -0.251 OA
DOCKED: BRANCH  45  47
DOCKED: ATOM     47  O   UNL d   1       9.576  19.415  -2.211 -0.02 +0.01    -0.481 OA
DOCKED: ATOM     48  H   UNL d   1       8.601  19.312  -2.248 +0.07 -0.02    +0.295 HD
DOCKED: ENDBRANCH  45  47
DOCKED: ENDBRANCH  44  45
DOCKED: ENDBRANCH   8  44
DOCKED: BRANCH  22  49
DOCKED: ATOM     49  C   UNL d   1       8.275  10.788  -4.607 -0.48 +0.01    +0.048 C 
DOCKED: BRANCH  49  50
DOCKED: ATOM     50  C   UNL d   1       7.005  10.125  -5.139 -0.41 +0.02    +0.125 C 
DOCKED: BRANCH  50  51
DOCKED: ATOM     51  C   UNL d   1       6.184  11.099  -5.936 -0.09 -0.03    +0.305 C 
DOCKED: ATOM     52  O   UNL d   1       6.184  11.256  -7.145 -0.16 +0.02    -0.251 OA
DOCKED: BRANCH  51  53
DOCKED: ATOM     53  O   UNL d   1       5.393  11.855  -5.149 -0.08 +0.09    -0.481 OA
DOCKED: ATOM     54  H   UNL d   1       4.497  11.480  -5.282 -0.28 -0.12    +0.295 HD
DOCKED: ENDBRANCH  51  53
DOCKED: ENDBRANCH  50  51
DOCKED: ENDBRANCH  49  50
DOCKED: ENDBRANCH  22  49
DOCKED: TORSDOF 13
DOCKED: TER
DOCKED: ENDMDL
________________________________________________________________________________


	BEGINNING GENETIC ALGORITHM DOCKING 58 of 100
Run: 58 Seed: 467551865 1250790987 [ Run 58 of 100 GA/GALS ]
Beginning LAMARCKIAN GENETIC ALGORITHM (LGA), with a maximum of 25000000 energy evaluations.

Final-Value: -11.465


	FINAL GENETIC ALGORITHM DOCKED STATE
	_______________________________________________


Detailed state:  trans 18.827 -5.192 9.756 quatxyzw -0.459311 -0.055242 0.761791 0.453494 center 0.153 0.018 -0.028 ntor 13 179.9153 180.0000 -93.1724 72.4329 46.1628 -103.9097 164.3231 -73.9454 148.0297 -100.5654 143.1938 -179.0310 -166.5549
State:	 18.827  -5.192   9.756  -0.515 -0.062  0.855 126.064    179.92  180.00  -93.17   72.43   46.16 -103.91  164.32  -73.95  148.03 -100.57  143.19 -179.03 -166.55

DOCKED: MODEL       58
DOCKED: USER    Run = 58
DOCKED: USER    DPF = D:/Protein_go_brrr/autodock/final/1A3N/heme/dock.dpf
DOCKED: USER  
DOCKED: USER    Estimated Free Energy of Binding    =   -5.38 kcal/mol  [=(1)+(2)+(3)-(4)]
DOCKED: USER    Estimated Inhibition Constant, Ki   =  113.99 uM (micromolar)  [Temperature = 298.15 K]
DOCKED: USER    
DOCKED: USER    (1) Final Intermolecular Energy     =   -9.26 kcal/mol
DOCKED: USER        vdW + Hbond + desolv Energy     =   -8.96 kcal/mol
DOCKED: USER        Electrostatic Energy            =   -0.29 kcal/mol
DOCKED: USER    (2) Final Total Internal Energy     =   -2.21 kcal/mol
DOCKED: USER    (3) Torsional Free Energy           =   +3.88 kcal/mol
DOCKED: USER    (4) Unbound System's Energy  [=(2)] =   -2.21 kcal/mol
DOCKED: USER    
DOCKED: USER    
DOCKED: USER    NEWDPF move heme_opt.pdbqt
DOCKED: USER    NEWDPF about 0.153000 0.018000 -0.028000
DOCKED: USER    NEWDPF tran0 18.827441 -5.192075 9.755686
DOCKED: USER    NEWDPF quaternion0 -0.459311 -0.055242 0.761791 0.453494
DOCKED: USER    NEWDPF axisangle0 -0.515351 -0.061982 0.854735 126.063887
DOCKED: USER    NEWDPF quat0 -0.515351 -0.061982 0.854735 126.063887
DOCKED: USER    NEWDPF dihe0 179.92 180.00 -93.17 72.43 46.16 -103.91 164.32 -73.95 148.03 -100.57 143.19 -179.03 -166.55 
DOCKED: USER  keepresnum = 1 
DOCKED: USER  
DOCKED: REMARK  13 active torsions:
DOCKED: REMARK  status: ('A' for Active; 'I' for Inactive)
DOCKED: REMARK    1  A    between atoms: O_3  and  C_38 
DOCKED: REMARK    2  A    between atoms: O_4  and  C_40 
DOCKED: REMARK    3  A    between atoms: O_7  and  C_46 
DOCKED: REMARK    4  A    between atoms: O_9  and  C_48 
DOCKED: REMARK    5  A    between atoms: C_15  and  C_20 
DOCKED: REMARK    6  A    between atoms: C_16  and  C_23 
DOCKED: REMARK    7  A    between atoms: C_20  and  C_38 
DOCKED: REMARK    8  A    between atoms: C_23  and  C_40 
DOCKED: REMARK    9  A    between atoms: C_32  and  C_41 
DOCKED: REMARK   10  A    between atoms: C_37  and  C_45 
DOCKED: REMARK   11  A    between atoms: C_41  and  C_44 
DOCKED: REMARK   12  A    between atoms: C_44  and  C_46 
DOCKED: REMARK   13  A    between atoms: C_47  and  C_48 
DOCKED: USER                              x       y       z     vdW  Elec       q    Type
DOCKED: USER                           _______ _______ _______ _____ _____    ______ ____
DOCKED: ROOT
DOCKED: ATOM      1  O   UNL d   1      20.595  -2.908  14.895 -0.18 +0.02    -0.289 OA
DOCKED: ATOM      2  O   UNL d   1      16.702   0.123   9.234 -0.26 +0.05    -0.289 OA
DOCKED: ATOM      3  N   UNL d   1      19.901  -4.616  11.981 -0.09 -0.01    -0.247 NA
DOCKED: ATOM      4  N   UNL d   1      18.104  -2.760  10.513 -0.09 +0.00    -0.247 NA
DOCKED: ATOM      5  N   UNL d   1      17.447  -4.936   8.752 -0.05 -0.01    -0.354 N 
DOCKED: ATOM      6  N   UNL d   1      19.298  -6.860  10.292 -0.05 -0.02    -0.354 N 
DOCKED: ATOM      7  C   UNL d   1      20.930  -5.204  14.126 -0.21 +0.00    +0.084 A 
DOCKED: ATOM      8  C   UNL d   1      18.312  -0.376  11.009 -0.19 +0.00    +0.084 A 
DOCKED: ATOM      9  C   UNL d   1      18.712  -1.823  11.318 -0.12 -0.00    +0.058 A 
DOCKED: ATOM     10  C   UNL d   1      20.478  -5.630  12.726 -0.18 +0.00    +0.058 A 
DOCKED: ATOM     11  C   UNL d   1      20.522  -3.765  14.033 -0.12 -0.00    +0.193 A 
DOCKED: ATOM     12  C   UNL d   1      19.935  -3.527  12.676 -0.11 -0.00    +0.109 A 
DOCKED: ATOM     13  C   UNL d   1      17.336  -0.668   9.905 -0.19 -0.02    +0.193 A 
DOCKED: ATOM     14  C   UNL d   1      20.108  -5.882  15.226 -0.33 +0.00    +0.026 C 
DOCKED: ATOM     15  C   UNL d   1      19.543  -2.148  12.320 -0.16 -0.00    +0.055 C 
DOCKED: ATOM     16  C   UNL d   1      19.483   0.426  10.432 -0.08 +0.00    +0.026 C 
DOCKED: ATOM     17  C   UNL d   1      17.296  -2.149   9.707 -0.16 -0.01    +0.109 A 
DOCKED: ATOM     18  C   UNL d   1      20.719  -6.869  12.256 -0.26 +0.00    +0.050 C 
DOCKED: ATOM     19  C   UNL d   1      20.414  -7.326  10.949 -0.22 +0.00    +0.045 A 
DOCKED: ATOM     20  C   UNL d   1      16.512  -4.017   8.350 -0.16 -0.00    +0.045 A 
DOCKED: ATOM     21  C   UNL d   1      16.387  -2.736   8.711 -0.21 -0.01    +0.057 C 
DOCKED: ATOM     22  C   UNL d   1      16.091  -6.004   7.305 -0.18 -0.00    -0.019 A 
DOCKED: ATOM     23  C   UNL d   1      17.274  -6.165   8.174 -0.14 +0.00    +0.045 A 
DOCKED: ATOM     24  C   UNL d   1      15.645  -4.730   7.413 -0.20 -0.00    -0.022 A 
DOCKED: ATOM     25  C   UNL d   1      19.146  -7.499   9.084 -0.18 +0.00    +0.049 A 
DOCKED: ATOM     26  C   UNL d   1      21.023  -8.266  10.131 -0.32 -0.00    -0.018 A 
DOCKED: ATOM     27  C   UNL d   1      20.229  -8.356   8.946 -0.28 -0.00    +0.003 A 
DOCKED: ATOM     28  C   UNL d   1      17.981  -7.300   8.295 -0.17 +0.00    +0.052 C 
DOCKED: ATOM     29  C   UNL d   1      14.491  -4.084   6.725 -0.38 -0.01    +0.046 C 
DOCKED: ATOM     30  C   UNL d   1      22.268  -9.031  10.428 -0.47 +0.00    +0.046 C 
DOCKED: ATOM     31  H   UNL d   1      18.220  -4.671   9.353 +0.05 +0.00    +0.166 HD
DOCKED: ATOM     32  H   UNL d   1      18.666  -6.170  10.681 +0.05 +0.01    +0.166 HD
DOCKED: ENDROOT
DOCKED: BRANCH   7  33
DOCKED: ATOM     33  C   UNL d   1      22.434  -5.321  14.395 -0.38 -0.01    +0.141 C 
DOCKED: BRANCH  33  34
DOCKED: ATOM     34  C   UNL d   1      22.767  -5.256  15.861 -0.37 -0.03    +0.306 C 
DOCKED: ATOM     35  O   UNL d   1      23.012  -6.205  16.586 -0.41 +0.00    -0.251 OA
DOCKED: BRANCH  34  36
DOCKED: ATOM     36  O   UNL d   1      22.775  -3.998  16.336 -0.02 +0.17    -0.481 OA
DOCKED: ATOM     37  H   UNL d   1      22.594  -3.437  15.552 -0.07 -0.12    +0.295 HD
DOCKED: ENDBRANCH  34  36
DOCKED: ENDBRANCH  33  34
DOCKED: ENDBRANCH   7  33
DOCKED: BRANCH  27  38
DOCKED: ATOM     38  C   UNL d   1      20.494  -9.225   7.840 -0.30 -0.00    +0.017 C 
DOCKED: ATOM     39  C   UNL d   1      20.969 -10.477   7.934 -0.29 -0.00    +0.092 C 
DOCKED: BRANCH  39  40
DOCKED: ATOM     40  C   UNL d   1      21.181 -11.271   6.721 -0.17 +0.02    +0.330 C 
DOCKED: ATOM     41  O   UNL d   1      20.510 -12.199   6.313 -0.16 -0.04    -0.246 OA
DOCKED: BRANCH  40  42
DOCKED: ATOM     42  O   UNL d   1      22.262 -10.826   6.061 -0.14 +0.05    -0.477 OA
DOCKED: ATOM     43  H   UNL d   1      22.584 -10.084   6.612 -0.11 -0.11    +0.295 HD
DOCKED: ENDBRANCH  40  42
DOCKED: ENDBRANCH  39  40
DOCKED: ENDBRANCH  27  38
DOCKED: BRANCH   8  44
DOCKED: ATOM     44  C   UNL d   1      17.634   0.380  12.156 -0.13 +0.01    +0.141 C 
DOCKED: BRANCH  44  45
DOCKED: ATOM     45  C   UNL d   1      16.663   1.430  11.683 -0.13 +0.07    +0.306 C 
DOCKED: ATOM     46  O   UNL d   1      15.471   1.482  11.930 -0.09 -0.06    -0.251 OA
DOCKED: BRANCH  45  47
DOCKED: ATOM     47  O   UNL d   1      17.246   2.351  10.894 -0.12 -0.20    -0.481 OA
DOCKED: ATOM     48  H   UNL d   1      17.213   1.963   9.994 +0.02 +0.03    +0.295 HD
DOCKED: ENDBRANCH  45  47
DOCKED: ENDBRANCH  44  45
DOCKED: ENDBRANCH   8  44
DOCKED: BRANCH  22  49
DOCKED: ATOM     49  C   UNL d   1      15.503  -7.104   6.470 -0.19 +0.01    +0.048 C 
DOCKED: BRANCH  49  50
DOCKED: ATOM     50  C   UNL d   1      14.148  -7.563   7.007 -0.24 +0.05    +0.125 C 
DOCKED: BRANCH  50  51
DOCKED: ATOM     51  C   UNL d   1      14.124  -7.525   8.509 -0.05 +0.15    +0.305 C 
DOCKED: ATOM     52  O   UNL d   1      14.583  -8.348   9.280 -0.05 -0.09    -0.251 OA
DOCKED: BRANCH  51  53
DOCKED: ATOM     53  O   UNL d   1      13.497  -6.427   8.976 +0.01 -0.36    -0.481 OA
DOCKED: ATOM     54  H   UNL d   1      14.221  -5.873   9.334 +0.08 +0.12    +0.295 HD
DOCKED: ENDBRANCH  51  53
DOCKED: ENDBRANCH  50  51
DOCKED: ENDBRANCH  49  50
DOCKED: ENDBRANCH  22  49
DOCKED: TORSDOF 13
DOCKED: TER
DOCKED: ENDMDL
________________________________________________________________________________


	BEGINNING GENETIC ALGORITHM DOCKING 59 of 100
Run: 59 Seed: 498702982 814368406 [ Run 59 of 100 GA/GALS ]
Beginning LAMARCKIAN GENETIC ALGORITHM (LGA), with a maximum of 25000000 energy evaluations.

Final-Value: -11.945


	FINAL GENETIC ALGORITHM DOCKED STATE
	_______________________________________________


Detailed state:  trans 10.274 8.849 37.299 quatxyzw 0.676886 -0.221760 0.226771 0.664246 center 0.153 0.018 -0.028 ntor 13 119.9274 67.9610 -179.9471 141.5352 -172.2288 92.5665 148.0373 90.3860 -34.9318 -2.7287 122.1520 39.7081 173.5002
State:	 10.274   8.849  37.299   0.906 -0.297  0.303 96.751    119.93   67.96 -179.95  141.54 -172.23   92.57  148.04   90.39  -34.93   -2.73  122.15   39.71  173.50

DOCKED: MODEL       59
DOCKED: USER    Run = 59
DOCKED: USER    DPF = D:/Protein_go_brrr/autodock/final/1A3N/heme/dock.dpf
DOCKED: USER  
DOCKED: USER    Estimated Free Energy of Binding    =   -5.75 kcal/mol  [=(1)+(2)+(3)-(4)]
DOCKED: USER    Estimated Inhibition Constant, Ki   =   60.56 uM (micromolar)  [Temperature = 298.15 K]
DOCKED: USER    
DOCKED: USER    (1) Final Intermolecular Energy     =   -9.63 kcal/mol
DOCKED: USER        vdW + Hbond + desolv Energy     =   -8.88 kcal/mol
DOCKED: USER        Electrostatic Energy            =   -0.75 kcal/mol
DOCKED: USER    (2) Final Total Internal Energy     =   -2.31 kcal/mol
DOCKED: USER    (3) Torsional Free Energy           =   +3.88 kcal/mol
DOCKED: USER    (4) Unbound System's Energy  [=(2)] =   -2.31 kcal/mol
DOCKED: USER    
DOCKED: USER    
DOCKED: USER    NEWDPF move heme_opt.pdbqt
DOCKED: USER    NEWDPF about 0.153000 0.018000 -0.028000
DOCKED: USER    NEWDPF tran0 10.274474 8.849113 37.299302
DOCKED: USER    NEWDPF quaternion0 0.676886 -0.221760 0.226771 0.664246
DOCKED: USER    NEWDPF axisangle0 0.905516 -0.296663 0.303366 96.750912
DOCKED: USER    NEWDPF quat0 0.905516 -0.296663 0.303366 96.750912
DOCKED: USER    NEWDPF dihe0 119.93 67.96 -179.95 141.54 -172.23 92.57 148.04 90.39 -34.93 -2.73 122.15 39.71 173.50 
DOCKED: USER  keepresnum = 1 
DOCKED: USER  
DOCKED: REMARK  13 active torsions:
DOCKED: REMARK  status: ('A' for Active; 'I' for Inactive)
DOCKED: REMARK    1  A    between atoms: O_3  and  C_38 
DOCKED: REMARK    2  A    between atoms: O_4  and  C_40 
DOCKED: REMARK    3  A    between atoms: O_7  and  C_46 
DOCKED: REMARK    4  A    between atoms: O_9  and  C_48 
DOCKED: REMARK    5  A    between atoms: C_15  and  C_20 
DOCKED: REMARK    6  A    between atoms: C_16  and  C_23 
DOCKED: REMARK    7  A    between atoms: C_20  and  C_38 
DOCKED: REMARK    8  A    between atoms: C_23  and  C_40 
DOCKED: REMARK    9  A    between atoms: C_32  and  C_41 
DOCKED: REMARK   10  A    between atoms: C_37  and  C_45 
DOCKED: REMARK   11  A    between atoms: C_41  and  C_44 
DOCKED: REMARK   12  A    between atoms: C_44  and  C_46 
DOCKED: REMARK   13  A    between atoms: C_47  and  C_48 
DOCKED: USER                              x       y       z     vdW  Elec       q    Type
DOCKED: USER                           _______ _______ _______ _____ _____    ______ ____
DOCKED: ROOT
DOCKED: ATOM      1  O   UNL d   1       6.184  12.709  35.532 -0.32 -0.42    -0.289 OA
DOCKED: ATOM      2  O   UNL d   1       7.197   9.279  42.135 -0.03 -0.05    -0.289 OA
DOCKED: ATOM      3  N   UNL d   1       8.678  10.388  36.068 -0.62 -0.19    -0.247 NA
DOCKED: ATOM      4  N   UNL d   1       8.482   9.836  38.981 +0.00 -0.10    -0.247 NA
DOCKED: ATOM      5  N   UNL d   1      11.044   8.540  38.813 -0.01 -0.16    -0.354 N 
DOCKED: ATOM      6  N   UNL d   1      11.248   9.135  35.796 -0.13 -0.38    -0.354 N 
DOCKED: ATOM      7  C   UNL d   1       8.072  11.879  34.219 -0.19 +0.05    +0.084 A 
DOCKED: ATOM      8  C   UNL d   1       6.309  10.184  40.041 -0.12 +0.03    +0.084 A 
DOCKED: ATOM      9  C   UNL d   1       7.197  10.295  38.798 -0.15 +0.02    +0.058 A 
DOCKED: ATOM     10  C   UNL d   1       9.011  10.814  34.793 -0.22 +0.04    +0.058 A 
DOCKED: ATOM     11  C   UNL d   1       7.138  11.967  35.389 -0.14 +0.16    +0.193 A 
DOCKED: ATOM     12  C   UNL d   1       7.597  10.996  36.433 -0.17 +0.07    +0.109 A 
DOCKED: ATOM     13  C   UNL d   1       7.338   9.612  40.974 -0.07 +0.05    +0.193 A 
DOCKED: ATOM     14  C   UNL d   1       8.773  13.228  34.043 -0.21 +0.02    +0.026 C 
DOCKED: ATOM     15  C   UNL d   1       6.771  10.839  37.647 -0.21 +0.03    +0.055 C 
DOCKED: ATOM     16  C   UNL d   1       5.191   9.155  39.851 -0.30 +0.01    +0.026 C 
DOCKED: ATOM     17  C   UNL d   1       8.614   9.456  40.211 -0.06 +0.03    +0.109 A 
DOCKED: ATOM     18  C   UNL d   1      10.012  10.291  34.060 -0.25 +0.04    +0.050 C 
DOCKED: ATOM     19  C   UNL d   1      10.876   9.246  34.475 -0.24 +0.04    +0.045 A 
DOCKED: ATOM     20  C   UNL d   1      10.888   8.580  40.175 -0.11 +0.01    +0.045 A 
DOCKED: ATOM     21  C   UNL d   1       9.820   8.954  40.885 -0.11 +0.02    +0.057 C 
DOCKED: ATOM     22  C   UNL d   1      12.991   7.827  39.693 -0.08 -0.01    -0.019 A 
DOCKED: ATOM     23  C   UNL d   1      12.281   8.099  38.427 -0.17 +0.02    +0.045 A 
DOCKED: ATOM     24  C   UNL d   1      12.160   8.113  40.724 -0.07 -0.01    -0.022 A 
DOCKED: ATOM     25  C   UNL d   1      12.155   8.114  35.958 -0.23 +0.04    +0.049 A 
DOCKED: ATOM     26  C   UNL d   1      11.529   8.248  33.768 -0.35 -0.01    -0.018 A 
DOCKED: ATOM     27  C   UNL d   1      12.320   7.525  34.712 -0.36 +0.00    +0.003 A 
DOCKED: ATOM     28  C   UNL d   1      12.804   7.906  37.206 -0.22 +0.04    +0.052 C 
DOCKED: ATOM     29  C   UNL d   1      12.414   7.990  42.188 -0.03 +0.01    +0.046 C 
DOCKED: ATOM     30  C   UNL d   1      11.425   7.980  32.304 -0.48 +0.02    +0.046 C 
DOCKED: ATOM     31  H   UNL d   1      10.271   8.747  38.189 +0.06 +0.07    +0.166 HD
DOCKED: ATOM     32  H   UNL d   1      10.919   9.757  36.524 +0.04 +0.18    +0.166 HD
DOCKED: ENDROOT
DOCKED: BRANCH   7  33
DOCKED: ATOM     33  C   UNL d   1       7.311  11.471  32.953 -0.23 +0.06    +0.141 C 
DOCKED: BRANCH  33  34
DOCKED: ATOM     34  C   UNL d   1       7.395   9.994  32.677 -0.19 +0.10    +0.306 C 
DOCKED: ATOM     35  O   UNL d   1       7.893   9.472  31.694 -0.10 -0.06    -0.251 OA
DOCKED: BRANCH  34  36
DOCKED: ATOM     36  O   UNL d   1       6.850   9.252  33.657 -0.21 -0.16    -0.481 OA
DOCKED: ATOM     37  H   UNL d   1       7.395   9.449  34.448 +0.17 +0.14    +0.295 HD
DOCKED: ENDBRANCH  34  36
DOCKED: ENDBRANCH  33  34
DOCKED: ENDBRANCH   7  33
DOCKED: BRANCH  27  38
DOCKED: ATOM     38  C   UNL d   1      13.170   6.415  34.400 -0.39 +0.01    +0.017 C 
DOCKED: ATOM     39  C   UNL d   1      12.885   5.128  34.646 -0.40 +0.05    +0.092 C 
DOCKED: BRANCH  39  40
DOCKED: ATOM     40  C   UNL d   1      13.836   4.082  34.259 -0.23 +0.25    +0.330 C 
DOCKED: ATOM     41  O   UNL d   1      14.740   3.616  34.926 -0.32 -0.15    -0.246 OA
DOCKED: BRANCH  40  42
DOCKED: ATOM     42  O   UNL d   1      13.579   3.663  33.011 -0.61 -0.45    -0.477 OA
DOCKED: ATOM     43  H   UNL d   1      13.261   2.744  33.133 -0.31 +0.06    +0.295 HD
DOCKED: ENDBRANCH  40  42
DOCKED: ENDBRANCH  39  40
DOCKED: ENDBRANCH  27  38
DOCKED: BRANCH   8  44
DOCKED: ATOM     44  C   UNL d   1       5.757  11.509  40.578 -0.03 +0.04    +0.141 C 
DOCKED: BRANCH  44  45
DOCKED: ATOM     45  C   UNL d   1       6.822  12.547  40.809 +0.01 +0.10    +0.306 C 
DOCKED: ATOM     46  O   UNL d   1       7.060  13.513  40.105 -0.00 -0.11    -0.251 OA
DOCKED: BRANCH  45  47
DOCKED: ATOM     47  O   UNL d   1       7.556  12.296  41.908 +0.01 -0.11    -0.481 OA
DOCKED: ATOM     48  H   UNL d   1       7.170  11.475  42.281 +0.02 +0.06    +0.295 HD
DOCKED: ENDBRANCH  45  47
DOCKED: ENDBRANCH  44  45
DOCKED: ENDBRANCH   8  44
DOCKED: BRANCH  22  49
DOCKED: ATOM     49  C   UNL d   1      14.405   7.333  39.777 -0.03 +0.01    +0.048 C 
DOCKED: BRANCH  49  50
DOCKED: ATOM     50  C   UNL d   1      15.408   8.486  39.836 -0.01 +0.04    +0.125 C 
DOCKED: BRANCH  50  51
DOCKED: ATOM     51  C   UNL d   1      15.254   9.391  38.647 -0.05 +0.20    +0.305 C 
DOCKED: ATOM     52  O   UNL d   1      14.468  10.312  38.511 -0.47 -0.28    -0.251 OA
DOCKED: BRANCH  51  53
DOCKED: ATOM     53  O   UNL d   1      16.113   9.075  37.657 -0.03 -0.30    -0.481 OA
DOCKED: ATOM     54  H   UNL d   1      16.941   8.841  38.127 +0.07 +0.08    +0.295 HD
DOCKED: ENDBRANCH  51  53
DOCKED: ENDBRANCH  50  51
DOCKED: ENDBRANCH  49  50
DOCKED: ENDBRANCH  22  49
DOCKED: TORSDOF 13
DOCKED: TER
DOCKED: ENDMDL
________________________________________________________________________________


	BEGINNING GENETIC ALGORITHM DOCKING 60 of 100
Run: 60 Seed: 609847761 649202715 [ Run 60 of 100 GA/GALS ]
Beginning LAMARCKIAN GENETIC ALGORITHM (LGA), with a maximum of 25000000 energy evaluations.

Final-Value: -13.683


	FINAL GENETIC ALGORITHM DOCKED STATE
	_______________________________________________


Detailed state:  trans 7.561 -5.228 18.265 quatxyzw 0.218339 0.329444 0.724413 0.564820 center 0.153 0.018 -0.028 ntor 13 -3.4937 115.8508 -101.2868 91.5338 -105.7613 24.7124 -56.1942 82.2702 167.6591 172.2970 -16.6500 -78.4422 28.1300
State:	  7.561  -5.228  18.265   0.265  0.399  0.878 111.220     -3.49  115.85 -101.29   91.53 -105.76   24.71  -56.19   82.27  167.66  172.30  -16.65  -78.44   28.13

DOCKED: MODEL       60
DOCKED: USER    Run = 60
DOCKED: USER    DPF = D:/Protein_go_brrr/autodock/final/1A3N/heme/dock.dpf
DOCKED: USER  
DOCKED: USER    Estimated Free Energy of Binding    =   -7.52 kcal/mol  [=(1)+(2)+(3)-(4)]
DOCKED: USER    Estimated Inhibition Constant, Ki   =    3.06 uM (micromolar)  [Temperature = 298.15 K]
DOCKED: USER    
DOCKED: USER    (1) Final Intermolecular Energy     =  -11.40 kcal/mol
DOCKED: USER        vdW + Hbond + desolv Energy     =  -10.81 kcal/mol
DOCKED: USER        Electrostatic Energy            =   -0.59 kcal/mol
DOCKED: USER    (2) Final Total Internal Energy     =   -2.28 kcal/mol
DOCKED: USER    (3) Torsional Free Energy           =   +3.88 kcal/mol
DOCKED: USER    (4) Unbound System's Energy  [=(2)] =   -2.28 kcal/mol
DOCKED: USER    
DOCKED: USER    
DOCKED: USER    NEWDPF move heme_opt.pdbqt
DOCKED: USER    NEWDPF about 0.153000 0.018000 -0.028000
DOCKED: USER    NEWDPF tran0 7.561272 -5.228094 18.265036
DOCKED: USER    NEWDPF quaternion0 0.218339 0.329444 0.724413 0.564820
DOCKED: USER    NEWDPF axisangle0 0.264585 0.399222 0.877848 111.220445
DOCKED: USER    NEWDPF quat0 0.264585 0.399222 0.877848 111.220445
DOCKED: USER    NEWDPF dihe0 -3.49 115.85 -101.29 91.53 -105.76 24.71 -56.19 82.27 167.66 172.30 -16.65 -78.44 28.13 
DOCKED: USER  keepresnum = 1 
DOCKED: USER  
DOCKED: REMARK  13 active torsions:
DOCKED: REMARK  status: ('A' for Active; 'I' for Inactive)
DOCKED: REMARK    1  A    between atoms: O_3  and  C_38 
DOCKED: REMARK    2  A    between atoms: O_4  and  C_40 
DOCKED: REMARK    3  A    between atoms: O_7  and  C_46 
DOCKED: REMARK    4  A    between atoms: O_9  and  C_48 
DOCKED: REMARK    5  A    between atoms: C_15  and  C_20 
DOCKED: REMARK    6  A    between atoms: C_16  and  C_23 
DOCKED: REMARK    7  A    between atoms: C_20  and  C_38 
DOCKED: REMARK    8  A    between atoms: C_23  and  C_40 
DOCKED: REMARK    9  A    between atoms: C_32  and  C_41 
DOCKED: REMARK   10  A    between atoms: C_37  and  C_45 
DOCKED: REMARK   11  A    between atoms: C_41  and  C_44 
DOCKED: REMARK   12  A    between atoms: C_44  and  C_46 
DOCKED: REMARK   13  A    between atoms: C_47  and  C_48 
DOCKED: USER                              x       y       z     vdW  Elec       q    Type
DOCKED: USER                           _______ _______ _______ _____ _____    ______ ____
DOCKED: ROOT
DOCKED: ATOM      1  O   UNL d   1      10.646  -1.219  15.237 -0.49 -0.38    -0.289 OA
DOCKED: ATOM      2  O   UNL d   1       3.695  -3.877  14.232 -0.66 -0.05    -0.289 OA
DOCKED: ATOM      3  N   UNL d   1       9.291  -3.700  17.213 -0.03 -0.08    -0.247 NA
DOCKED: ATOM      4  N   UNL d   1       6.476  -3.858  16.276 -0.11 -0.05    -0.247 NA
DOCKED: ATOM      5  N   UNL d   1       5.882  -5.422  18.615 -0.10 -0.03    -0.354 N 
DOCKED: ATOM      6  N   UNL d   1       8.800  -5.236  19.590 -0.02 -0.06    -0.354 N 
DOCKED: ATOM      7  C   UNL d   1      11.368  -2.399  17.253 -0.09 +0.03    +0.084 A 
DOCKED: ATOM      8  C   UNL d   1       6.021  -3.156  13.980 -0.21 +0.02    +0.084 A 
DOCKED: ATOM      9  C   UNL d   1       7.012  -3.295  15.140 -0.16 +0.02    +0.058 A 
DOCKED: ATOM     10  C   UNL d   1      10.480  -3.474  17.886 -0.07 +0.02    +0.058 A 
DOCKED: ATOM     11  C   UNL d   1      10.477  -2.069  16.093 -0.07 +0.13    +0.193 A 
DOCKED: ATOM     12  C   UNL d   1       9.263  -2.942  16.166 -0.07 +0.05    +0.109 A 
DOCKED: ATOM     13  C   UNL d   1       4.812  -3.709  14.681 -0.27 +0.04    +0.193 A 
DOCKED: ATOM     14  C   UNL d   1      11.497  -1.162  18.146 -0.26 +0.01    +0.026 C 
DOCKED: ATOM     15  C   UNL d   1       8.279  -2.858  15.068 -0.13 +0.02    +0.055 C 
DOCKED: ATOM     16  C   UNL d   1       6.379  -4.080  12.812 -0.31 +0.01    +0.026 C 
DOCKED: ATOM     17  C   UNL d   1       5.219  -4.091  16.067 -0.29 +0.02    +0.109 A 
DOCKED: ATOM     18  C   UNL d   1      10.891  -4.186  18.952 -0.13 +0.02    +0.050 C 
DOCKED: ATOM     19  C   UNL d   1      10.176  -5.255  19.552 -0.10 +0.01    +0.045 A 
DOCKED: ATOM     20  C   UNL d   1       4.611  -5.195  18.154 -0.40 +0.00    +0.045 A 
DOCKED: ATOM     21  C   UNL d   1       4.224  -4.626  17.008 -0.49 +0.01    +0.057 C 
DOCKED: ATOM     22  C   UNL d   1       4.486  -6.216  20.194 -0.30 +0.00    -0.019 A 
DOCKED: ATOM     23  C   UNL d   1       5.908  -6.033  19.840 -0.25 +0.00    +0.045 A 
DOCKED: ATOM     24  C   UNL d   1       3.723  -5.719  19.191 -0.24 +0.00    -0.022 A 
DOCKED: ATOM     25  C   UNL d   1       8.321  -6.317  20.293 -0.12 +0.01    +0.049 A 
DOCKED: ATOM     26  C   UNL d   1      10.601  -6.395  20.216 -0.13 -0.01    -0.018 A 
DOCKED: ATOM     27  C   UNL d   1       9.425  -7.072  20.665 -0.12 +0.00    +0.003 A 
DOCKED: ATOM     28  C   UNL d   1       6.939  -6.431  20.601 -0.22 +0.01    +0.052 C 
DOCKED: ATOM     29  C   UNL d   1       2.237  -5.682  19.080 -0.44 -0.00    +0.046 C 
DOCKED: ATOM     30  C   UNL d   1      12.012  -6.833  20.421 -0.26 +0.03    +0.046 C 
DOCKED: ATOM     31  H   UNL d   1       6.694  -5.217  18.042 +0.07 +0.02    +0.166 HD
DOCKED: ATOM     32  H   UNL d   1       8.239  -4.497  19.184 +0.06 +0.03    +0.166 HD
DOCKED: ENDROOT
DOCKED: BRANCH   7  33
DOCKED: ATOM     33  C   UNL d   1      12.736  -2.882  16.760 -0.09 +0.06    +0.141 C 
DOCKED: BRANCH  33  34
DOCKED: ATOM     34  C   UNL d   1      13.816  -1.852  16.948 -0.12 +0.03    +0.306 C 
DOCKED: ATOM     35  O   UNL d   1      13.774  -0.689  16.584 -0.14 -0.01    -0.251 OA
DOCKED: BRANCH  34  36
DOCKED: ATOM     36  O   UNL d   1      14.893  -2.340  17.589 -0.62 +0.02    -0.481 OA
DOCKED: ATOM     37  H   UNL d   1      15.550  -1.612  17.559 -0.43 -0.40    +0.295 HD
DOCKED: ENDBRANCH  34  36
DOCKED: ENDBRANCH  33  34
DOCKED: ENDBRANCH   7  33
DOCKED: BRANCH  27  38
DOCKED: ATOM     38  C   UNL d   1       9.410  -8.294  21.412 -0.18 +0.00    +0.017 C 
DOCKED: ATOM     39  C   UNL d   1       8.604  -8.556  22.451 -0.23 +0.00    +0.092 C 
DOCKED: BRANCH  39  40
DOCKED: ATOM     40  C   UNL d   1       8.676  -9.857  23.122 -0.21 -0.03    +0.330 C 
DOCKED: ATOM     41  O   UNL d   1       9.610 -10.636  23.134 -0.34 +0.04    -0.246 OA
DOCKED: BRANCH  40  42
DOCKED: ATOM     42  O   UNL d   1       7.528 -10.107  23.770 -0.06 +0.07    -0.477 OA
DOCKED: ATOM     43  H   UNL d   1       7.490  -9.409  24.456 -0.10 -0.11    +0.295 HD
DOCKED: ENDBRANCH  40  42
DOCKED: ENDBRANCH  39  40
DOCKED: ENDBRANCH  27  38
DOCKED: BRANCH   8  44
DOCKED: ATOM     44  C   UNL d   1       5.767  -1.724  13.496 -0.28 +0.02    +0.141 C 
DOCKED: BRANCH  44  45
DOCKED: ATOM     45  C   UNL d   1       6.068  -1.529  12.034 -0.19 +0.03    +0.306 C 
DOCKED: ATOM     46  O   UNL d   1       7.074  -1.032  11.560 -0.34 -0.04    -0.251 OA
DOCKED: BRANCH  45  47
DOCKED: ATOM     47  O   UNL d   1       5.065  -1.949  11.242 -0.16 +0.05    -0.481 OA
DOCKED: ATOM     48  H   UNL d   1       4.394  -1.235  11.291 -0.16 -0.15    +0.295 HD
DOCKED: ENDBRANCH  45  47
DOCKED: ENDBRANCH  44  45
DOCKED: ENDBRANCH   8  44
DOCKED: BRANCH  22  49
DOCKED: ATOM     49  C   UNL d   1       4.010  -6.839  21.473 -0.36 +0.00    +0.048 C 
DOCKED: BRANCH  49  50
DOCKED: ATOM     50  C   UNL d   1       4.602  -8.233  21.682 -0.22 +0.04    +0.125 C 
DOCKED: BRANCH  50  51
DOCKED: ATOM     51  C   UNL d   1       4.435  -8.678  23.107 -0.12 +0.10    +0.305 C 
DOCKED: ATOM     52  O   UNL d   1       3.419  -9.082  23.645 -0.15 -0.13    -0.251 OA
DOCKED: BRANCH  51  53
DOCKED: ATOM     53  O   UNL d   1       5.584  -8.580  23.804 -0.07 -0.04    -0.481 OA
DOCKED: ATOM     54  H   UNL d   1       6.024  -9.444  23.661 +0.13 +0.02    +0.295 HD
DOCKED: ENDBRANCH  51  53
DOCKED: ENDBRANCH  50  51
DOCKED: ENDBRANCH  49  50
DOCKED: ENDBRANCH  22  49
DOCKED: TORSDOF 13
DOCKED: TER
DOCKED: ENDMDL
________________________________________________________________________________


	BEGINNING GENETIC ALGORITHM DOCKING 61 of 100
Run: 61 Seed: 651771154 79612738 [ Run 61 of 100 GA/GALS ]
Beginning LAMARCKIAN GENETIC ALGORITHM (LGA), with a maximum of 25000000 energy evaluations.

Final-Value: -11.259


	FINAL GENETIC ALGORITHM DOCKED STATE
	_______________________________________________


Detailed state:  trans 30.557 17.404 -5.538 quatxyzw -0.125019 -0.185507 0.807520 0.545773 center 0.153 0.018 -0.028 ntor 13 135.3488 160.8448 -84.9407 33.6165 -135.8622 139.4260 163.5966 48.1637 18.9402 -98.5567 -61.8534 -126.2119 23.1046
State:	 30.557  17.404  -5.538  -0.149 -0.221  0.964 113.845    135.35  160.84  -84.94   33.62 -135.86  139.43  163.60   48.16   18.94  -98.56  -61.85 -126.21   23.10

DOCKED: MODEL       61
DOCKED: USER    Run = 61
DOCKED: USER    DPF = D:/Protein_go_brrr/autodock/final/1A3N/heme/dock.dpf
DOCKED: USER  
DOCKED: USER    Estimated Free Energy of Binding    =   -3.47 kcal/mol  [=(1)+(2)+(3)-(4)]
DOCKED: USER    Estimated Inhibition Constant, Ki   =    2.87 mM (millimolar)  [Temperature = 298.15 K]
DOCKED: USER    
DOCKED: USER    (1) Final Intermolecular Energy     =   -7.35 kcal/mol
DOCKED: USER        vdW + Hbond + desolv Energy     =   -7.30 kcal/mol
DOCKED: USER        Electrostatic Energy            =   -0.05 kcal/mol
DOCKED: USER    (2) Final Total Internal Energy     =   -3.91 kcal/mol
DOCKED: USER    (3) Torsional Free Energy           =   +3.88 kcal/mol
DOCKED: USER    (4) Unbound System's Energy  [=(2)] =   -3.91 kcal/mol
DOCKED: USER    
DOCKED: USER    
DOCKED: USER    NEWDPF move heme_opt.pdbqt
DOCKED: USER    NEWDPF about 0.153000 0.018000 -0.028000
DOCKED: USER    NEWDPF tran0 30.557325 17.404067 -5.537912
DOCKED: USER    NEWDPF quaternion0 -0.125019 -0.185507 0.807520 0.545773
DOCKED: USER    NEWDPF axisangle0 -0.149200 -0.221387 0.963705 113.845008
DOCKED: USER    NEWDPF quat0 -0.149200 -0.221387 0.963705 113.845008
DOCKED: USER    NEWDPF dihe0 135.35 160.84 -84.94 33.62 -135.86 139.43 163.60 48.16 18.94 -98.56 -61.85 -126.21 23.10 
DOCKED: USER  keepresnum = 1 
DOCKED: USER  
DOCKED: REMARK  13 active torsions:
DOCKED: REMARK  status: ('A' for Active; 'I' for Inactive)
DOCKED: REMARK    1  A    between atoms: O_3  and  C_38 
DOCKED: REMARK    2  A    between atoms: O_4  and  C_40 
DOCKED: REMARK    3  A    between atoms: O_7  and  C_46 
DOCKED: REMARK    4  A    between atoms: O_9  and  C_48 
DOCKED: REMARK    5  A    between atoms: C_15  and  C_20 
DOCKED: REMARK    6  A    between atoms: C_16  and  C_23 
DOCKED: REMARK    7  A    between atoms: C_20  and  C_38 
DOCKED: REMARK    8  A    between atoms: C_23  and  C_40 
DOCKED: REMARK    9  A    between atoms: C_32  and  C_41 
DOCKED: REMARK   10  A    between atoms: C_37  and  C_45 
DOCKED: REMARK   11  A    between atoms: C_41  and  C_44 
DOCKED: REMARK   12  A    between atoms: C_44  and  C_46 
DOCKED: REMARK   13  A    between atoms: C_47  and  C_48 
DOCKED: USER                              x       y       z     vdW  Elec       q    Type
DOCKED: USER                           _______ _______ _______ _____ _____    ______ ____
DOCKED: ROOT
DOCKED: ATOM      1  O   UNL d   1      34.218  21.240  -2.961 -0.07 +0.02    -0.289 OA
DOCKED: ATOM      2  O   UNL d   1      27.051  21.937  -5.094 -0.09 +0.02    -0.289 OA
DOCKED: ATOM      3  N   UNL d   1      32.497  18.727  -4.579 -0.13 +0.00    -0.247 NA
DOCKED: ATOM      4  N   UNL d   1      29.725  19.786  -4.733 -0.04 +0.02    -0.247 NA
DOCKED: ATOM      5  N   UNL d   1      28.854  17.141  -5.449 -0.05 -0.03    -0.354 N 
DOCKED: ATOM      6  N   UNL d   1      31.730  16.047  -5.268 -0.12 +0.01    -0.354 N 
DOCKED: ATOM      7  C   UNL d   1      34.709  18.917  -3.541 -0.18 -0.00    +0.084 A 
DOCKED: ATOM      8  C   UNL d   1      29.454  22.214  -4.718 -0.13 -0.01    +0.084 A 
DOCKED: ATOM      9  C   UNL d   1      30.373  20.994  -4.597 -0.18 -0.01    +0.058 A 
DOCKED: ATOM     10  C   UNL d   1      33.676  18.063  -4.280 -0.19 -0.00    +0.058 A 
DOCKED: ATOM     11  C   UNL d   1      33.914  20.187  -3.490 -0.16 -0.01    +0.193 A 
DOCKED: ATOM     12  C   UNL d   1      32.604  19.951  -4.175 -0.16 -0.01    +0.109 A 
DOCKED: ATOM     13  C   UNL d   1      28.160  21.475  -4.910 -0.12 -0.01    +0.193 A 
DOCKED: ATOM     14  C   UNL d   1      34.945  18.424  -2.111 -0.37 +0.00    +0.026 C 
DOCKED: ATOM     15  C   UNL d   1      31.684  21.096  -4.331 -0.19 -0.01    +0.055 C 
DOCKED: ATOM     16  C   UNL d   1      29.750  23.025  -5.983 -0.04 -0.00    +0.026 C 
DOCKED: ATOM     17  C   UNL d   1      28.461  20.011  -4.892 -0.05 -0.01    +0.109 A 
DOCKED: ATOM     18  C   UNL d   1      33.954  16.806  -4.673 -0.24 -0.00    +0.050 C 
DOCKED: ATOM     19  C   UNL d   1      33.094  15.972  -5.433 -0.21 -0.00    +0.045 A 
DOCKED: ATOM     20  C   UNL d   1      27.639  17.743  -5.247 -0.18 +0.00    +0.045 A 
DOCKED: ATOM     21  C   UNL d   1      27.371  19.032  -5.016 -0.13 -0.00    +0.057 C 
DOCKED: ATOM     22  C   UNL d   1      27.308  15.508  -5.584 -0.24 -0.00    -0.019 A 
DOCKED: ATOM     23  C   UNL d   1      28.755  15.792  -5.660 -0.20 +0.00    +0.045 A 
DOCKED: ATOM     24  C   UNL d   1      26.653  16.668  -5.341 -0.29 -0.00    -0.022 A 
DOCKED: ATOM     25  C   UNL d   1      31.098  15.093  -6.031 -0.22 -0.00    +0.049 A 
DOCKED: ATOM     26  C   UNL d   1      33.353  14.970  -6.356 -0.16 +0.00    -0.018 A 
DOCKED: ATOM     27  C   UNL d   1      32.088  14.432  -6.745 -0.18 -0.00    +0.003 A 
DOCKED: ATOM     28  C   UNL d   1      29.699  14.871  -5.909 -0.25 +0.00    +0.052 C 
DOCKED: ATOM     29  C   UNL d   1      25.187  16.897  -5.192 -0.48 +0.01    +0.046 C 
DOCKED: ATOM     30  C   UNL d   1      34.693  14.539  -6.849 -0.14 -0.02    +0.046 C 
DOCKED: ATOM     31  H   UNL d   1      29.707  17.686  -5.509 +0.05 +0.00    +0.166 HD
DOCKED: ATOM     32  H   UNL d   1      31.277  16.694  -4.633 +0.06 +0.01    +0.166 HD
DOCKED: ENDROOT
DOCKED: BRANCH   7  33
DOCKED: ATOM     33  C   UNL d   1      36.031  19.139  -4.284 -0.06 -0.00    +0.141 C 
DOCKED: BRANCH  33  34
DOCKED: ATOM     34  C   UNL d   1      35.864  19.971  -5.527 -0.00 -0.01    +0.306 C 
DOCKED: ATOM     35  O   UNL d   1      35.488  19.571  -6.616 -0.00 +0.00    -0.251 OA
DOCKED: BRANCH  34  36
DOCKED: ATOM     36  O   UNL d   1      36.177  21.264  -5.332 +0.01 +0.01    -0.481 OA
DOCKED: ATOM     37  H   UNL d   1      35.715  21.507  -4.501 +0.04 -0.01    +0.295 HD
DOCKED: ENDBRANCH  34  36
DOCKED: ENDBRANCH  33  34
DOCKED: ENDBRANCH   7  33
DOCKED: BRANCH  27  38
DOCKED: ATOM     38  C   UNL d   1      31.898  13.360  -7.675 -0.22 -0.00    +0.017 C 
DOCKED: ATOM     39  C   UNL d   1      31.842  12.058  -7.356 -0.19 -0.04    +0.092 C 
DOCKED: BRANCH  39  40
DOCKED: ATOM     40  C   UNL d   1      31.625  11.058  -8.404 -0.14 -0.05    +0.330 C 
DOCKED: ATOM     41  O   UNL d   1      32.185   9.986  -8.537 -0.33 +0.05    -0.246 OA
DOCKED: BRANCH  40  42
DOCKED: ATOM     42  O   UNL d   1      30.673  11.477  -9.252 -0.07 -0.07    -0.477 OA
DOCKED: ATOM     43  H   UNL d   1      30.196  12.167  -8.747 +0.09 +0.03    +0.295 HD
DOCKED: ENDBRANCH  40  42
DOCKED: ENDBRANCH  39  40
DOCKED: ENDBRANCH  27  38
DOCKED: BRANCH   8  44
DOCKED: ATOM     44  C   UNL d   1      29.391  23.118  -3.482 -0.22 -0.02    +0.141 C 
DOCKED: BRANCH  44  45
DOCKED: ATOM     45  C   UNL d   1      28.053  23.782  -3.299 -0.12 -0.03    +0.306 C 
DOCKED: ATOM     46  O   UNL d   1      27.305  23.660  -2.344 -0.23 +0.03    -0.251 OA
DOCKED: BRANCH  45  47
DOCKED: ATOM     47  O   UNL d   1      27.711  24.549  -4.349 +0.01 +0.03    -0.481 OA
DOCKED: ATOM     48  H   UNL d   1      27.164  23.964  -4.916 +0.07 -0.02    +0.295 HD
DOCKED: ENDBRANCH  45  47
DOCKED: ENDBRANCH  44  45
DOCKED: ENDBRANCH   8  44
DOCKED: BRANCH  22  49
DOCKED: ATOM     49  C   UNL d   1      26.708  14.142  -5.741 -0.22 +0.01    +0.048 C 
DOCKED: BRANCH  49  50
DOCKED: ATOM     50  C   UNL d   1      27.021  13.536  -7.109 -0.17 +0.02    +0.125 C 
DOCKED: BRANCH  50  51
DOCKED: ATOM     51  C   UNL d   1      27.805  12.263  -6.965 -0.19 +0.06    +0.305 C 
DOCKED: ATOM     52  O   UNL d   1      27.629  11.369  -6.156 -0.30 -0.04    -0.251 OA
DOCKED: BRANCH  51  53
DOCKED: ATOM     53  O   UNL d   1      28.807  12.183  -7.863 -0.08 -0.09    -0.481 OA
DOCKED: ATOM     54  H   UNL d   1      28.873  11.226  -8.062 +0.12 +0.10    +0.295 HD
DOCKED: ENDBRANCH  51  53
DOCKED: ENDBRANCH  50  51
DOCKED: ENDBRANCH  49  50
DOCKED: ENDBRANCH  22  49
DOCKED: TORSDOF 13
DOCKED: TER
DOCKED: ENDMDL
________________________________________________________________________________


	BEGINNING GENETIC ALGORITHM DOCKING 62 of 100
Run: 62 Seed: 137240019 1223668575 [ Run 62 of 100 GA/GALS ]
Beginning LAMARCKIAN GENETIC ALGORITHM (LGA), with a maximum of 25000000 energy evaluations.

Final-Value: -14.769


	FINAL GENETIC ALGORITHM DOCKED STATE
	_______________________________________________


Detailed state:  trans 16.394 7.063 16.099 quatxyzw -0.194970 -0.135988 0.970097 0.049057 center 0.153 0.018 -0.028 ntor 13 -117.1381 49.1707 137.8241 18.3491 67.2713 24.5782 -38.3188 -80.4545 21.9005 -138.5783 66.1947 165.5415 -5.1114
State:	 16.394   7.063  16.099  -0.195 -0.136  0.971 174.376   -117.14   49.17  137.82   18.35   67.27   24.58  -38.32  -80.45   21.90 -138.58   66.19  165.54   -5.11

DOCKED: MODEL       62
DOCKED: USER    Run = 62
DOCKED: USER    DPF = D:/Protein_go_brrr/autodock/final/1A3N/heme/dock.dpf
DOCKED: USER  
DOCKED: USER    Estimated Free Energy of Binding    =   -8.84 kcal/mol  [=(1)+(2)+(3)-(4)]
DOCKED: USER    Estimated Inhibition Constant, Ki   =  330.76 nM (nanomolar)  [Temperature = 298.15 K]
DOCKED: USER    
DOCKED: USER    (1) Final Intermolecular Energy     =  -12.72 kcal/mol
DOCKED: USER        vdW + Hbond + desolv Energy     =  -12.07 kcal/mol
DOCKED: USER        Electrostatic Energy            =   -0.65 kcal/mol
DOCKED: USER    (2) Final Total Internal Energy     =   -2.05 kcal/mol
DOCKED: USER    (3) Torsional Free Energy           =   +3.88 kcal/mol
DOCKED: USER    (4) Unbound System's Energy  [=(2)] =   -2.05 kcal/mol
DOCKED: USER    
DOCKED: USER    
DOCKED: USER    NEWDPF move heme_opt.pdbqt
DOCKED: USER    NEWDPF about 0.153000 0.018000 -0.028000
DOCKED: USER    NEWDPF tran0 16.393602 7.063411 16.099291
DOCKED: USER    NEWDPF quaternion0 -0.194970 -0.135988 0.970097 0.049057
DOCKED: USER    NEWDPF axisangle0 -0.195205 -0.136151 0.971266 174.376213
DOCKED: USER    NEWDPF quat0 -0.195205 -0.136151 0.971266 174.376213
DOCKED: USER    NEWDPF dihe0 -117.14 49.17 137.82 18.35 67.27 24.58 -38.32 -80.45 21.90 -138.58 66.19 165.54 -5.11 
DOCKED: USER  keepresnum = 1 
DOCKED: USER  
DOCKED: REMARK  13 active torsions:
DOCKED: REMARK  status: ('A' for Active; 'I' for Inactive)
DOCKED: REMARK    1  A    between atoms: O_3  and  C_38 
DOCKED: REMARK    2  A    between atoms: O_4  and  C_40 
DOCKED: REMARK    3  A    between atoms: O_7  and  C_46 
DOCKED: REMARK    4  A    between atoms: O_9  and  C_48 
DOCKED: REMARK    5  A    between atoms: C_15  and  C_20 
DOCKED: REMARK    6  A    between atoms: C_16  and  C_23 
DOCKED: REMARK    7  A    between atoms: C_20  and  C_38 
DOCKED: REMARK    8  A    between atoms: C_23  and  C_40 
DOCKED: REMARK    9  A    between atoms: C_32  and  C_41 
DOCKED: REMARK   10  A    between atoms: C_37  and  C_45 
DOCKED: REMARK   11  A    between atoms: C_41  and  C_44 
DOCKED: REMARK   12  A    between atoms: C_44  and  C_46 
DOCKED: REMARK   13  A    between atoms: C_47  and  C_48 
DOCKED: USER                              x       y       z     vdW  Elec       q    Type
DOCKED: USER                           _______ _______ _______ _____ _____    ______ ____
DOCKED: ROOT
DOCKED: ATOM      1  O   UNL d   1      21.565   5.498  18.458 -0.26 +0.05    -0.289 OA
DOCKED: ATOM      2  O   UNL d   1      18.694  12.266  16.925 -0.17 -0.02    -0.289 OA
DOCKED: ATOM      3  N   UNL d   1      18.504   5.926  16.928 -0.16 -0.01    -0.247 NA
DOCKED: ATOM      4  N   UNL d   1      18.098   8.868  17.021 +0.01 -0.06    -0.247 NA
DOCKED: ATOM      5  N   UNL d   1      15.347   8.418  16.319 -0.11 -0.10    -0.354 N 
DOCKED: ATOM      6  N   UNL d   1      15.771   5.366  16.244 -0.17 -0.13    -0.354 N 
DOCKED: ATOM      7  C   UNL d   1      19.752   4.001  17.789 -0.31 -0.07    +0.084 A 
DOCKED: ATOM      8  C   UNL d   1      20.098  10.269  17.113 -0.20 +0.03    +0.084 A 
DOCKED: ATOM      9  C   UNL d   1      19.471   8.871  17.132 -0.21 +0.01    +0.058 A 
DOCKED: ATOM     10  C   UNL d   1      18.493   4.554  17.116 -0.32 -0.03    +0.058 A 
DOCKED: ATOM     11  C   UNL d   1      20.485   5.301  17.932 -0.26 -0.06    +0.193 A 
DOCKED: ATOM     12  C   UNL d   1      19.636   6.388  17.349 -0.25 -0.00    +0.109 A 
DOCKED: ATOM     13  C   UNL d   1      18.824  11.060  17.009 -0.16 +0.03    +0.193 A 
DOCKED: ATOM     14  C   UNL d   1      19.460   3.442  19.184 -0.35 -0.05    +0.026 C 
DOCKED: ATOM     15  C   UNL d   1      20.195   7.753  17.294 -0.31 +0.01    +0.055 C 
DOCKED: ATOM     16  C   UNL d   1      20.927  10.503  15.846 -0.21 +0.01    +0.026 C 
DOCKED: ATOM     17  C   UNL d   1      17.685  10.094  16.970 -0.18 +0.02    +0.109 A 
DOCKED: ATOM     18  C   UNL d   1      17.516   3.739  16.674 -0.35 -0.03    +0.050 C 
DOCKED: ATOM     19  C   UNL d   1      16.358   4.152  15.968 -0.27 +0.01    +0.045 A 
DOCKED: ATOM     20  C   UNL d   1      15.295   9.752  16.631 -0.29 +0.01    +0.045 A 
DOCKED: ATOM     21  C   UNL d   1      16.301  10.586  16.912 -0.22 +0.00    +0.057 C 
DOCKED: ATOM     22  C   UNL d   1      13.170   8.995  16.272 -0.38 -0.00    -0.019 A 
DOCKED: ATOM     23  C   UNL d   1      14.112   7.873  16.086 -0.26 +0.01    +0.045 A 
DOCKED: ATOM     24  C   UNL d   1      13.877  10.105  16.593 -0.42 -0.00    -0.022 A 
DOCKED: ATOM     25  C   UNL d   1      14.617   5.522  15.512 -0.29 +0.03    +0.049 A 
DOCKED: ATOM     26  C   UNL d   1      15.586   3.519  15.005 -0.22 -0.01    -0.018 A 
DOCKED: ATOM     27  C   UNL d   1      14.499   4.398  14.707 -0.26 +0.00    +0.003 A 
DOCKED: ATOM     28  C   UNL d   1      13.753   6.627  15.742 -0.40 +0.02    +0.052 C 
DOCKED: ATOM     29  C   UNL d   1      13.377  11.483  16.864 -0.46 +0.00    +0.046 C 
DOCKED: ATOM     30  C   UNL d   1      15.842   2.182  14.396 -0.18 +0.01    +0.046 C 
DOCKED: ATOM     31  H   UNL d   1      16.233   7.939  16.203 +0.07 +0.07    +0.166 HD
DOCKED: ATOM     32  H   UNL d   1      16.133   6.021  16.927 +0.07 +0.02    +0.166 HD
DOCKED: ENDROOT
DOCKED: BRANCH   7  33
DOCKED: ATOM     33  C   UNL d   1      20.568   3.013  16.947 -0.09 -0.09    +0.141 C 
DOCKED: BRANCH  33  34
DOCKED: ATOM     34  C   UNL d   1      21.251   3.673  15.780 -0.11 -0.05    +0.306 C 
DOCKED: ATOM     35  O   UNL d   1      22.450   3.685  15.560 -0.18 +0.04    -0.251 OA
DOCKED: BRANCH  34  36
DOCKED: ATOM     36  O   UNL d   1      20.385   4.282  14.950 -0.03 -0.08    -0.481 OA
DOCKED: ATOM     37  H   UNL d   1      19.941   4.956  15.507 +0.13 +0.06    +0.295 HD
DOCKED: ENDBRANCH  34  36
DOCKED: ENDBRANCH  33  34
DOCKED: ENDBRANCH   7  33
DOCKED: BRANCH  27  38
DOCKED: ATOM     38  C   UNL d   1      13.450   4.125  13.772 -0.27 +0.01    +0.017 C 
DOCKED: ATOM     39  C   UNL d   1      13.079   2.903  13.358 -0.18 +0.08    +0.092 C 
DOCKED: BRANCH  39  40
DOCKED: ATOM     40  C   UNL d   1      11.975   2.759  12.407 -0.00 +0.27    +0.330 C 
DOCKED: ATOM     41  O   UNL d   1      11.551   3.591  11.627 -0.16 -0.08    -0.246 OA
DOCKED: BRANCH  40  42
DOCKED: ATOM     42  O   UNL d   1      11.454   1.525  12.488 -0.48 -0.59    -0.477 OA
DOCKED: ATOM     43  H   UNL d   1      11.412   1.225  11.557 +0.10 +0.05    +0.295 HD
DOCKED: ENDBRANCH  40  42
DOCKED: ENDBRANCH  39  40
DOCKED: ENDBRANCH  27  38
DOCKED: BRANCH   8  44
DOCKED: ATOM     44  C   UNL d   1      20.884  10.658  18.370 -0.40 +0.05    +0.141 C 
DOCKED: BRANCH  44  45
DOCKED: ATOM     45  C   UNL d   1      21.639  11.952  18.222 -0.27 +0.13    +0.306 C 
DOCKED: ATOM     46  O   UNL d   1      22.730  12.101  17.699 -0.75 -0.21    -0.251 OA
DOCKED: BRANCH  45  47
DOCKED: ATOM     47  O   UNL d   1      20.987  12.993  18.770 -0.20 -0.07    -0.481 OA
DOCKED: ATOM     48  H   UNL d   1      20.053  12.872  18.497 +0.03 +0.01    +0.295 HD
DOCKED: ENDBRANCH  45  47
DOCKED: ENDBRANCH  44  45
DOCKED: ENDBRANCH   8  44
DOCKED: BRANCH  22  49
DOCKED: ATOM     49  C   UNL d   1      11.681   8.876  16.134 -0.47 +0.01    +0.048 C 
DOCKED: BRANCH  49  50
DOCKED: ATOM     50  C   UNL d   1      11.222   9.112  14.695 -0.27 +0.03    +0.125 C 
DOCKED: BRANCH  50  51
DOCKED: ATOM     51  C   UNL d   1      10.417  10.376  14.589 -0.23 +0.05    +0.305 C 
DOCKED: ATOM     52  O   UNL d   1       9.220  10.512  14.767 -0.35 -0.03    -0.251 OA
DOCKED: BRANCH  51  53
DOCKED: ATOM     53  O   UNL d   1      11.181  11.432  14.243 -0.16 -0.07    -0.481 OA
DOCKED: ATOM     54  H   UNL d   1      10.638  12.210  14.489 -0.23 +0.03    +0.295 HD
DOCKED: ENDBRANCH  51  53
DOCKED: ENDBRANCH  50  51
DOCKED: ENDBRANCH  49  50
DOCKED: ENDBRANCH  22  49
DOCKED: TORSDOF 13
DOCKED: TER
DOCKED: ENDMDL
________________________________________________________________________________


	BEGINNING GENETIC ALGORITHM DOCKING 63 of 100
Run: 63 Seed: 91571550 1985497420 [ Run 63 of 100 GA/GALS ]
Beginning LAMARCKIAN GENETIC ALGORITHM (LGA), with a maximum of 25000000 energy evaluations.

Final-Value: -10.401


	FINAL GENETIC ALGORITHM DOCKED STATE
	_______________________________________________


Detailed state:  trans 24.515 13.237 -8.989 quatxyzw -0.157430 -0.268978 0.172820 -0.934345 center 0.153 0.018 -0.028 ntor 13 174.6367 -55.7241 -100.1897 -57.8919 50.2005 -82.1638 120.1256 8.7390 147.5013 -39.7171 -43.9761 -12.2019 24.2178
State:	 24.515  13.237  -8.989  -0.442 -0.755  0.485 -41.755    174.64  -55.72 -100.19  -57.89   50.20  -82.16  120.13    8.74  147.50  -39.72  -43.98  -12.20   24.22

DOCKED: MODEL       63
DOCKED: USER    Run = 63
DOCKED: USER    DPF = D:/Protein_go_brrr/autodock/final/1A3N/heme/dock.dpf
DOCKED: USER  
DOCKED: USER    Estimated Free Energy of Binding    =   -2.66 kcal/mol  [=(1)+(2)+(3)-(4)]
DOCKED: USER    Estimated Inhibition Constant, Ki   =   11.31 mM (millimolar)  [Temperature = 298.15 K]
DOCKED: USER    
DOCKED: USER    (1) Final Intermolecular Energy     =   -6.53 kcal/mol
DOCKED: USER        vdW + Hbond + desolv Energy     =   -6.21 kcal/mol
DOCKED: USER        Electrostatic Energy            =   -0.32 kcal/mol
DOCKED: USER    (2) Final Total Internal Energy     =   -3.87 kcal/mol
DOCKED: USER    (3) Torsional Free Energy           =   +3.88 kcal/mol
DOCKED: USER    (4) Unbound System's Energy  [=(2)] =   -3.87 kcal/mol
DOCKED: USER    
DOCKED: USER    
DOCKED: USER    NEWDPF move heme_opt.pdbqt
DOCKED: USER    NEWDPF about 0.153000 0.018000 -0.028000
DOCKED: USER    NEWDPF tran0 24.515218 13.236677 -8.989077
DOCKED: USER    NEWDPF quaternion0 -0.157430 -0.268978 0.172820 -0.934345
DOCKED: USER    NEWDPF axisangle0 -0.441758 -0.754770 0.484945 -41.754950
DOCKED: USER    NEWDPF quat0 -0.441758 -0.754770 0.484945 -41.754950
DOCKED: USER    NEWDPF dihe0 174.64 -55.72 -100.19 -57.89 50.20 -82.16 120.13 8.74 147.50 -39.72 -43.98 -12.20 24.22 
DOCKED: USER  keepresnum = 1 
DOCKED: USER  
DOCKED: REMARK  13 active torsions:
DOCKED: REMARK  status: ('A' for Active; 'I' for Inactive)
DOCKED: REMARK    1  A    between atoms: O_3  and  C_38 
DOCKED: REMARK    2  A    between atoms: O_4  and  C_40 
DOCKED: REMARK    3  A    between atoms: O_7  and  C_46 
DOCKED: REMARK    4  A    between atoms: O_9  and  C_48 
DOCKED: REMARK    5  A    between atoms: C_15  and  C_20 
DOCKED: REMARK    6  A    between atoms: C_16  and  C_23 
DOCKED: REMARK    7  A    between atoms: C_20  and  C_38 
DOCKED: REMARK    8  A    between atoms: C_23  and  C_40 
DOCKED: REMARK    9  A    between atoms: C_32  and  C_41 
DOCKED: REMARK   10  A    between atoms: C_37  and  C_45 
DOCKED: REMARK   11  A    between atoms: C_41  and  C_44 
DOCKED: REMARK   12  A    between atoms: C_44  and  C_46 
DOCKED: REMARK   13  A    between atoms: C_47  and  C_48 
DOCKED: USER                              x       y       z     vdW  Elec       q    Type
DOCKED: USER                           _______ _______ _______ _____ _____    ______ ____
DOCKED: ROOT
DOCKED: ATOM      1  O   UNL d   1      19.288  12.584 -11.636 -0.09 -0.19    -0.289 OA
DOCKED: ATOM      2  O   UNL d   1      24.436   7.520  -9.576 -0.42 -0.43    -0.289 OA
DOCKED: ATOM      3  N   UNL d   1      22.306  13.460 -10.216 -0.10 -0.07    -0.247 NA
DOCKED: ATOM      4  N   UNL d   1      23.502  10.840  -9.482 -0.06 -0.11    -0.247 NA
DOCKED: ATOM      5  N   UNL d   1      25.418  12.267  -7.882 -0.06 -0.11    -0.354 N 
DOCKED: ATOM      6  N   UNL d   1      24.159  14.979  -8.633 -0.08 -0.07    -0.354 N 
DOCKED: ATOM      7  C   UNL d   1      20.281  14.679 -10.862 -0.13 +0.03    +0.084 A 
DOCKED: ATOM      8  C   UNL d   1      22.801   8.890 -10.777 -0.11 +0.05    +0.084 A 
DOCKED: ATOM      9  C   UNL d   1      22.647  10.381 -10.460 -0.09 +0.03    +0.058 A 
DOCKED: ATOM     10  C   UNL d   1      21.688  14.698 -10.258 -0.16 +0.01    +0.058 A 
DOCKED: ATOM     11  C   UNL d   1      20.220  13.214 -11.170 -0.08 +0.08    +0.193 A 
DOCKED: ATOM     12  C   UNL d   1      21.517  12.590 -10.755 -0.11 +0.04    +0.109 A 
DOCKED: ATOM     13  C   UNL d   1      23.874   8.580  -9.772 -0.13 +0.19    +0.193 A 
DOCKED: ATOM     14  C   UNL d   1      19.206  15.013  -9.824 -0.32 +0.01    +0.026 C 
DOCKED: ATOM     15  C   UNL d   1      21.724  11.157 -11.048 -0.11 +0.02    +0.055 C 
DOCKED: ATOM     16  C   UNL d   1      23.363   8.663 -12.183 -0.08 +0.02    +0.026 C 
DOCKED: ATOM     17  C   UNL d   1      24.205   9.844  -9.048 -0.17 +0.07    +0.109 A 
DOCKED: ATOM     18  C   UNL d   1      22.282  15.851  -9.894 -0.17 +0.01    +0.050 C 
DOCKED: ATOM     19  C   UNL d   1      23.608  15.975  -9.407 -0.12 +0.01    +0.045 A 
DOCKED: ATOM     20  C   UNL d   1      25.684  10.984  -7.480 -0.23 +0.02    +0.045 A 
DOCKED: ATOM     21  C   UNL d   1      25.201   9.836  -7.966 -0.28 +0.03    +0.057 C 
DOCKED: ATOM     22  C   UNL d   1      26.883  12.429  -6.179 -0.22 -0.00    -0.019 A 
DOCKED: ATOM     23  C   UNL d   1      26.095  13.209  -7.155 -0.10 +0.01    +0.045 A 
DOCKED: ATOM     24  C   UNL d   1      26.636  11.113  -6.377 -0.32 -0.01    -0.022 A 
DOCKED: ATOM     25  C   UNL d   1      25.412  15.345  -8.196 -0.13 +0.01    +0.049 A 
DOCKED: ATOM     26  C   UNL d   1      24.539  16.997  -9.506 -0.08 -0.00    -0.018 A 
DOCKED: ATOM     27  C   UNL d   1      25.683  16.585  -8.756 -0.08 +0.00    +0.003 A 
DOCKED: ATOM     28  C   UNL d   1      26.116  14.547  -7.254 -0.19 +0.01    +0.052 C 
DOCKED: ATOM     29  C   UNL d   1      27.200   9.939  -5.653 -0.25 +0.01    +0.046 C 
DOCKED: ATOM     30  C   UNL d   1      24.379  18.278 -10.253 -0.05 +0.00    +0.046 C 
DOCKED: ATOM     31  H   UNL d   1      24.837  12.455  -8.692 +0.05 +0.05    +0.166 HD
DOCKED: ATOM     32  H   UNL d   1      23.676  14.121  -8.395 +0.05 +0.04    +0.166 HD
DOCKED: ENDROOT
DOCKED: BRANCH   7  33
DOCKED: ATOM     33  C   UNL d   1      20.103  15.505 -12.141 -0.04 +0.04    +0.141 C 
DOCKED: BRANCH  33  34
DOCKED: ATOM     34  C   UNL d   1      18.657  15.746 -12.478 -0.03 +0.14    +0.306 C 
DOCKED: ATOM     35  O   UNL d   1      18.045  16.789 -12.322 -0.02 -0.09    -0.251 OA
DOCKED: BRANCH  34  36
DOCKED: ATOM     36  O   UNL d   1      18.057  14.660 -12.997 -0.03 -0.41    -0.481 OA
DOCKED: ATOM     37  H   UNL d   1      18.787  14.018 -13.135 +0.04 +0.20    +0.295 HD
DOCKED: ENDBRANCH  34  36
DOCKED: ENDBRANCH  33  34
DOCKED: ENDBRANCH   7  33
DOCKED: BRANCH  27  38
DOCKED: ATOM     38  C   UNL d   1      26.877  17.356  -8.582 -0.05 +0.00    +0.017 C 
DOCKED: ATOM     39  C   UNL d   1      28.090  16.854  -8.306 -0.03 +0.01    +0.092 C 
DOCKED: BRANCH  39  40
DOCKED: ATOM     40  C   UNL d   1      29.239  17.753  -8.169 +0.00 +0.01    +0.330 C 
DOCKED: ATOM     41  O   UNL d   1      29.943  18.200  -9.055 -0.00 -0.01    -0.246 OA
DOCKED: BRANCH  40  42
DOCKED: ATOM     42  O   UNL d   1      29.438  18.055  -6.877 +0.00 -0.01    -0.477 OA
DOCKED: ATOM     43  H   UNL d   1      30.367  17.792  -6.714 +0.05 +0.00    +0.295 HD
DOCKED: ENDBRANCH  40  42
DOCKED: ENDBRANCH  39  40
DOCKED: ENDBRANCH  27  38
DOCKED: BRANCH   8  44
DOCKED: ATOM     44  C   UNL d   1      21.556   8.031 -10.532 -0.14 +0.06    +0.141 C 
DOCKED: BRANCH  44  45
DOCKED: ATOM     45  C   UNL d   1      21.481   7.477  -9.134 -0.12 +0.12    +0.306 C 
DOCKED: ATOM     46  O   UNL d   1      21.173   8.088  -8.126 -0.09 -0.08    -0.251 OA
DOCKED: BRANCH  45  47
DOCKED: ATOM     47  O   UNL d   1      21.829   6.179  -9.076 -0.04 -0.18    -0.481 OA
DOCKED: ATOM     48  H   UNL d   1      22.809   6.183  -9.101 +0.12 +0.14    +0.295 HD
DOCKED: ENDBRANCH  45  47
DOCKED: ENDBRANCH  44  45
DOCKED: ENDBRANCH   8  44
DOCKED: BRANCH  22  49
DOCKED: ATOM     49  C   UNL d   1      27.783  13.038  -5.144 -0.27 +0.01    +0.048 C 
DOCKED: BRANCH  49  50
DOCKED: ATOM     50  C   UNL d   1      28.884  13.888  -5.777 -0.27 +0.01    +0.125 C 
DOCKED: BRANCH  50  51
DOCKED: ATOM     51  C   UNL d   1      29.066  15.176  -5.025 -0.19 +0.03    +0.305 C 
DOCKED: ATOM     52  O   UNL d   1      28.485  15.537  -4.016 -0.71 -0.06    -0.251 OA
DOCKED: BRANCH  51  53
DOCKED: ATOM     53  O   UNL d   1      29.986  15.973  -5.605 -0.06 -0.03    -0.481 OA
DOCKED: ATOM     54  H   UNL d   1      29.497  16.799  -5.800 +0.10 +0.02    +0.295 HD
DOCKED: ENDBRANCH  51  53
DOCKED: ENDBRANCH  50  51
DOCKED: ENDBRANCH  49  50
DOCKED: ENDBRANCH  22  49
DOCKED: TORSDOF 13
DOCKED: TER
DOCKED: ENDMDL
________________________________________________________________________________


	BEGINNING GENETIC ALGORITHM DOCKING 64 of 100
Run: 64 Seed: 824237510 2063182102 [ Run 64 of 100 GA/GALS ]
Beginning LAMARCKIAN GENETIC ALGORITHM (LGA), with a maximum of 25000000 energy evaluations.

Final-Value: -11.441


	FINAL GENETIC ALGORITHM DOCKED STATE
	_______________________________________________


Detailed state:  trans 16.750 10.330 14.817 quatxyzw 0.012462 0.242911 0.745732 0.620261 center 0.153 0.018 -0.028 ntor 13 20.1875 86.8757 165.7119 109.1410 -150.6910 84.3001 -54.8996 56.1876 -170.2914 -108.1207 -112.4127 -127.9088 -8.9567
State:	 16.750  10.330  14.817   0.016  0.310  0.951 103.330     20.19   86.88  165.71  109.14 -150.69   84.30  -54.90   56.19 -170.29 -108.12 -112.41 -127.91   -8.96

DOCKED: MODEL       64
DOCKED: USER    Run = 64
DOCKED: USER    DPF = D:/Protein_go_brrr/autodock/final/1A3N/heme/dock.dpf
DOCKED: USER  
DOCKED: USER    Estimated Free Energy of Binding    =   -5.89 kcal/mol  [=(1)+(2)+(3)-(4)]
DOCKED: USER    Estimated Inhibition Constant, Ki   =   48.50 uM (micromolar)  [Temperature = 298.15 K]
DOCKED: USER    
DOCKED: USER    (1) Final Intermolecular Energy     =   -9.76 kcal/mol
DOCKED: USER        vdW + Hbond + desolv Energy     =   -8.93 kcal/mol
DOCKED: USER        Electrostatic Energy            =   -0.83 kcal/mol
DOCKED: USER    (2) Final Total Internal Energy     =   -1.68 kcal/mol
DOCKED: USER    (3) Torsional Free Energy           =   +3.88 kcal/mol
DOCKED: USER    (4) Unbound System's Energy  [=(2)] =   -1.68 kcal/mol
DOCKED: USER    
DOCKED: USER    
DOCKED: USER    NEWDPF move heme_opt.pdbqt
DOCKED: USER    NEWDPF about 0.153000 0.018000 -0.028000
DOCKED: USER    NEWDPF tran0 16.750140 10.330115 14.817486
DOCKED: USER    NEWDPF quaternion0 0.012462 0.242911 0.745732 0.620261
DOCKED: USER    NEWDPF axisangle0 0.015888 0.309679 0.950709 103.329642
DOCKED: USER    NEWDPF quat0 0.015888 0.309679 0.950709 103.329642
DOCKED: USER    NEWDPF dihe0 20.19 86.88 165.71 109.14 -150.69 84.30 -54.90 56.19 -170.29 -108.12 -112.41 -127.91 -8.96 
DOCKED: USER  keepresnum = 1 
DOCKED: USER  
DOCKED: REMARK  13 active torsions:
DOCKED: REMARK  status: ('A' for Active; 'I' for Inactive)
DOCKED: REMARK    1  A    between atoms: O_3  and  C_38 
DOCKED: REMARK    2  A    between atoms: O_4  and  C_40 
DOCKED: REMARK    3  A    between atoms: O_7  and  C_46 
DOCKED: REMARK    4  A    between atoms: O_9  and  C_48 
DOCKED: REMARK    5  A    between atoms: C_15  and  C_20 
DOCKED: REMARK    6  A    between atoms: C_16  and  C_23 
DOCKED: REMARK    7  A    between atoms: C_20  and  C_38 
DOCKED: REMARK    8  A    between atoms: C_23  and  C_40 
DOCKED: REMARK    9  A    between atoms: C_32  and  C_41 
DOCKED: REMARK   10  A    between atoms: C_37  and  C_45 
DOCKED: REMARK   11  A    between atoms: C_41  and  C_44 
DOCKED: REMARK   12  A    between atoms: C_44  and  C_46 
DOCKED: REMARK   13  A    between atoms: C_47  and  C_48 
DOCKED: USER                              x       y       z     vdW  Elec       q    Type
DOCKED: USER                           _______ _______ _______ _____ _____    ______ ____
DOCKED: ROOT
DOCKED: ATOM      1  O   UNL d   1      19.432  15.542  14.180 -0.06 -0.09    -0.289 OA
DOCKED: ATOM      2  O   UNL d   1      13.296  12.721  10.895 -0.08 -0.03    -0.289 OA
DOCKED: ATOM      3  N   UNL d   1      18.297  12.340  14.778 -0.04 -0.04    -0.247 NA
DOCKED: ATOM      4  N   UNL d   1      15.716  12.244  13.308 -0.09 -0.02    -0.247 NA
DOCKED: ATOM      5  N   UNL d   1      15.103   9.820  14.728 -0.01 -0.12    -0.354 N 
DOCKED: ATOM      6  N   UNL d   1      17.774   9.938  16.262 -0.05 -0.09    -0.354 N 
DOCKED: ATOM      7  C   UNL d   1      20.072  13.748  15.712 -0.11 +0.02    +0.084 A 
DOCKED: ATOM      8  C   UNL d   1      15.461  13.746  11.398 -0.16 +0.00    +0.084 A 
DOCKED: ATOM      9  C   UNL d   1      16.292  13.272  12.595 -0.16 +0.00    +0.058 A 
DOCKED: ATOM     10  C   UNL d   1      19.320  12.414  15.708 -0.11 +0.01    +0.058 A 
DOCKED: ATOM     11  C   UNL d   1      19.306  14.408  14.605 -0.06 +0.05    +0.193 A 
DOCKED: ATOM     12  C   UNL d   1      18.275  13.444  14.105 -0.11 +0.02    +0.109 A 
DOCKED: ATOM     13  C   UNL d   1      14.290  12.824  11.587 -0.04 +0.00    +0.193 A 
DOCKED: ATOM     14  C   UNL d   1      19.847  14.532  17.007 -0.34 +0.01    +0.026 C 
DOCKED: ATOM     15  C   UNL d   1      17.454  13.844  12.944 -0.19 +0.00    +0.055 C 
DOCKED: ATOM     16  C   UNL d   1      16.141  13.413  10.067 -0.13 +0.00    +0.026 C 
DOCKED: ATOM     17  C   UNL d   1      14.565  11.971  12.782 -0.10 +0.00    +0.109 A 
DOCKED: ATOM     18  C   UNL d   1      19.703  11.389  16.492 -0.19 +0.01    +0.050 C 
DOCKED: ATOM     19  C   UNL d   1      19.122  10.095  16.496 -0.16 +0.01    +0.045 A 
DOCKED: ATOM     20  C   UNL d   1      13.889  10.063  14.141 -0.12 +0.01    +0.045 A 
DOCKED: ATOM     21  C   UNL d   1      13.566  10.994  13.237 -0.16 +0.01    +0.057 C 
DOCKED: ATOM     22  C   UNL d   1      13.673   8.307  15.586 -0.28 -0.01    -0.019 A 
DOCKED: ATOM     23  C   UNL d   1      15.072   8.778  15.616 -0.21 +0.02    +0.045 A 
DOCKED: ATOM     24  C   UNL d   1      12.978   9.070  14.710 -0.18 -0.01    -0.022 A 
DOCKED: ATOM     25  C   UNL d   1      17.410   8.619  16.402 -0.15 +0.02    +0.049 A 
DOCKED: ATOM     26  C   UNL d   1      19.654   8.842  16.757 -0.21 -0.01    -0.018 A 
DOCKED: ATOM     27  C   UNL d   1      18.572   7.911  16.678 -0.19 +0.00    +0.003 A 
DOCKED: ATOM     28  C   UNL d   1      16.043   8.232  16.363 -0.23 +0.02    +0.052 C 
DOCKED: ATOM     29  C   UNL d   1      11.540   8.976  14.327 -0.25 +0.01    +0.046 C 
DOCKED: ATOM     30  C   UNL d   1      21.079   8.525  17.061 -0.33 +0.02    +0.046 C 
DOCKED: ATOM     31  H   UNL d   1      15.935  10.329  14.446 +0.06 +0.05    +0.166 HD
DOCKED: ATOM     32  H   UNL d   1      17.148  10.707  16.058 +0.06 +0.02    +0.166 HD
DOCKED: ENDROOT
DOCKED: BRANCH   7  33
DOCKED: ATOM     33  C   UNL d   1      21.561  13.663  15.358 -0.13 +0.06    +0.141 C 
DOCKED: BRANCH  33  34
DOCKED: ATOM     34  C   UNL d   1      22.446  14.223  16.438 -0.14 +0.19    +0.306 C 
DOCKED: ATOM     35  O   UNL d   1      22.911  15.349  16.477 -0.58 -0.31    -0.251 OA
DOCKED: BRANCH  34  36
DOCKED: ATOM     36  O   UNL d   1      22.697  13.333  17.415 -0.17 -0.24    -0.481 OA
DOCKED: ATOM     37  H   UNL d   1      23.017  13.876  18.167 +0.17 +0.06    +0.295 HD
DOCKED: ENDBRANCH  34  36
DOCKED: ENDBRANCH  33  34
DOCKED: ENDBRANCH   7  33
DOCKED: BRANCH  27  38
DOCKED: ATOM     38  C   UNL d   1      18.680   6.500  16.897 -0.32 +0.00    +0.017 C 
DOCKED: ATOM     39  C   UNL d   1      18.554   5.889  18.085 -0.40 -0.03    +0.092 C 
DOCKED: BRANCH  39  40
DOCKED: ATOM     40  C   UNL d   1      18.669   4.431  18.172 -0.30 -0.34    +0.330 C 
DOCKED: ATOM     41  O   UNL d   1      19.687   3.768  18.230 -0.33 +0.27    -0.246 OA
DOCKED: BRANCH  40  42
DOCKED: ATOM     42  O   UNL d   1      17.449   3.872  18.190 -0.21 +0.69    -0.477 OA
DOCKED: ATOM     43  H   UNL d   1      17.247   3.781  19.144 -0.38 -0.83    +0.295 HD
DOCKED: ENDBRANCH  40  42
DOCKED: ENDBRANCH  39  40
DOCKED: ENDBRANCH  27  38
DOCKED: BRANCH   8  44
DOCKED: ATOM     44  C   UNL d   1      15.017  15.212  11.442 -0.04 +0.01    +0.141 C 
DOCKED: BRANCH  44  45
DOCKED: ATOM     45  C   UNL d   1      13.814  15.495  10.582 -0.09 +0.05    +0.306 C 
DOCKED: ATOM     46  O   UNL d   1      13.818  15.977   9.462 -0.07 -0.07    -0.251 OA
DOCKED: BRANCH  45  47
DOCKED: ATOM     47  O   UNL d   1      12.659  15.178  11.193 -0.09 -0.05    -0.481 OA
DOCKED: ATOM     48  H   UNL d   1      12.925  14.615  11.951 -0.33 -0.03    +0.295 HD
DOCKED: ENDBRANCH  45  47
DOCKED: ENDBRANCH  44  45
DOCKED: ENDBRANCH   8  44
DOCKED: BRANCH  22  49
DOCKED: ATOM     49  C   UNL d   1      13.148   7.174  16.418 -0.33 +0.01    +0.048 C 
DOCKED: BRANCH  49  50
DOCKED: ATOM     50  C   UNL d   1      13.223   5.840  15.677 -0.35 +0.06    +0.125 C 
DOCKED: BRANCH  50  51
DOCKED: ATOM     51  C   UNL d   1      14.651   5.410  15.490 -0.19 +0.19    +0.305 C 
DOCKED: ATOM     52  O   UNL d   1      15.526   5.350  16.336 -0.28 -0.08    -0.251 OA
DOCKED: BRANCH  51  53
DOCKED: ATOM     53  O   UNL d   1      14.914   5.080  14.210 -0.11 -0.61    -0.481 OA
DOCKED: ATOM     54  H   UNL d   1      14.438   4.233  14.079 +0.10 +0.26    +0.295 HD
DOCKED: ENDBRANCH  51  53
DOCKED: ENDBRANCH  50  51
DOCKED: ENDBRANCH  49  50
DOCKED: ENDBRANCH  22  49
DOCKED: TORSDOF 13
DOCKED: TER
DOCKED: ENDMDL
________________________________________________________________________________


	BEGINNING GENETIC ALGORITHM DOCKING 65 of 100
Run: 65 Seed: 887657427 1711107547 [ Run 65 of 100 GA/GALS ]
Beginning LAMARCKIAN GENETIC ALGORITHM (LGA), with a maximum of 25000000 energy evaluations.

Final-Value: -10.871


	FINAL GENETIC ALGORITHM DOCKED STATE
	_______________________________________________


Detailed state:  trans 6.219 -15.135 19.351 quatxyzw 0.117264 -0.821351 0.317448 0.459192 center 0.153 0.018 -0.028 ntor 13 117.3283 42.1158 123.9894 74.2533 -132.2178 144.8628 -51.1727 109.8905 27.2559 -146.7577 116.2454 -67.0719 40.1478
State:	  6.219 -15.135  19.351   0.132 -0.925  0.357 125.330    117.33   42.12  123.99   74.25 -132.22  144.86  -51.17  109.89   27.26 -146.76  116.25  -67.07   40.15

DOCKED: MODEL       65
DOCKED: USER    Run = 65
DOCKED: USER    DPF = D:/Protein_go_brrr/autodock/final/1A3N/heme/dock.dpf
DOCKED: USER  
DOCKED: USER    Estimated Free Energy of Binding    =   -4.35 kcal/mol  [=(1)+(2)+(3)-(4)]
DOCKED: USER    Estimated Inhibition Constant, Ki   =  643.67 uM (micromolar)  [Temperature = 298.15 K]
DOCKED: USER    
DOCKED: USER    (1) Final Intermolecular Energy     =   -8.23 kcal/mol
DOCKED: USER        vdW + Hbond + desolv Energy     =   -7.65 kcal/mol
DOCKED: USER        Electrostatic Energy            =   -0.58 kcal/mol
DOCKED: USER    (2) Final Total Internal Energy     =   -2.64 kcal/mol
DOCKED: USER    (3) Torsional Free Energy           =   +3.88 kcal/mol
DOCKED: USER    (4) Unbound System's Energy  [=(2)] =   -2.64 kcal/mol
DOCKED: USER    
DOCKED: USER    
DOCKED: USER    NEWDPF move heme_opt.pdbqt
DOCKED: USER    NEWDPF about 0.153000 0.018000 -0.028000
DOCKED: USER    NEWDPF tran0 6.218608 -15.134904 19.351282
DOCKED: USER    NEWDPF quaternion0 0.117264 -0.821351 0.317448 0.459192
DOCKED: USER    NEWDPF axisangle0 0.132004 -0.924595 0.357351 125.330006
DOCKED: USER    NEWDPF quat0 0.132004 -0.924595 0.357351 125.330006
DOCKED: USER    NEWDPF dihe0 117.33 42.12 123.99 74.25 -132.22 144.86 -51.17 109.89 27.26 -146.76 116.25 -67.07 40.15 
DOCKED: USER  keepresnum = 1 
DOCKED: USER  
DOCKED: REMARK  13 active torsions:
DOCKED: REMARK  status: ('A' for Active; 'I' for Inactive)
DOCKED: REMARK    1  A    between atoms: O_3  and  C_38 
DOCKED: REMARK    2  A    between atoms: O_4  and  C_40 
DOCKED: REMARK    3  A    between atoms: O_7  and  C_46 
DOCKED: REMARK    4  A    between atoms: O_9  and  C_48 
DOCKED: REMARK    5  A    between atoms: C_15  and  C_20 
DOCKED: REMARK    6  A    between atoms: C_16  and  C_23 
DOCKED: REMARK    7  A    between atoms: C_20  and  C_38 
DOCKED: REMARK    8  A    between atoms: C_23  and  C_40 
DOCKED: REMARK    9  A    between atoms: C_32  and  C_41 
DOCKED: REMARK   10  A    between atoms: C_37  and  C_45 
DOCKED: REMARK   11  A    between atoms: C_41  and  C_44 
DOCKED: REMARK   12  A    between atoms: C_44  and  C_46 
DOCKED: REMARK   13  A    between atoms: C_47  and  C_48 
DOCKED: USER                              x       y       z     vdW  Elec       q    Type
DOCKED: USER                           _______ _______ _______ _____ _____    ______ ____
DOCKED: ROOT
DOCKED: ATOM      1  O   UNL d   1      10.013 -11.384  21.859 -0.26 -0.04    -0.289 OA
DOCKED: ATOM      2  O   UNL d   1       5.894 -16.931  24.801 -0.06 -0.06    -0.289 OA
DOCKED: ATOM      3  N   UNL d   1       7.796 -13.256  19.995 -0.09 -0.11    -0.247 NA
DOCKED: ATOM      4  N   UNL d   1       6.893 -15.346  21.903 -0.16 -0.10    -0.247 NA
DOCKED: ATOM      5  N   UNL d   1       5.779 -16.774  19.670 +0.00 -0.16    -0.354 N 
DOCKED: ATOM      6  N   UNL d   1       6.736 -14.609  17.694 -0.02 -0.17    -0.354 N 
DOCKED: ATOM      7  C   UNL d   1       9.456 -11.526  19.483 -0.08 +0.03    +0.084 A 
DOCKED: ATOM      8  C   UNL d   1       6.986 -14.802  24.284 -0.18 +0.02    +0.084 A 
DOCKED: ATOM      9  C   UNL d   1       7.294 -14.414  22.834 -0.22 +0.01    +0.058 A 
DOCKED: ATOM     10  C   UNL d   1       8.388 -12.507  18.991 -0.07 +0.02    +0.058 A 
DOCKED: ATOM     11  C   UNL d   1       9.350 -11.840  20.946 -0.12 +0.05    +0.193 A 
DOCKED: ATOM     12  C   UNL d   1       8.292 -12.884  21.129 -0.15 +0.03    +0.109 A 
DOCKED: ATOM     13  C   UNL d   1       6.369 -16.144  24.006 -0.11 +0.05    +0.193 A 
DOCKED: ATOM     14  C   UNL d   1      10.855 -11.909  18.995 -0.17 +0.01    +0.026 C 
DOCKED: ATOM     15  C   UNL d   1       7.945 -13.287  22.507 -0.25 +0.01    +0.055 C 
DOCKED: ATOM     16  C   UNL d   1       5.922 -13.890  24.902 -0.17 +0.00    +0.026 C 
DOCKED: ATOM     17  C   UNL d   1       6.380 -16.358  22.527 -0.17 +0.03    +0.109 A 
DOCKED: ATOM     18  C   UNL d   1       8.014 -12.549  17.698 -0.05 +0.02    +0.050 C 
DOCKED: ATOM     19  C   UNL d   1       6.980 -13.361  17.167 -0.05 +0.02    +0.045 A 
DOCKED: ATOM     20  C   UNL d   1       5.649 -17.726  20.646 -0.06 +0.02    +0.045 A 
DOCKED: ATOM     21  C   UNL d   1       5.874 -17.616  21.960 -0.15 +0.02    +0.057 C 
DOCKED: ATOM     22  C   UNL d   1       5.083 -18.649  18.635 -0.10 -0.01    -0.019 A 
DOCKED: ATOM     23  C   UNL d   1       5.460 -17.238  18.421 -0.11 +0.02    +0.045 A 
DOCKED: ATOM     24  C   UNL d   1       5.195 -18.932  19.954 -0.11 -0.01    -0.022 A 
DOCKED: ATOM     25  C   UNL d   1       5.758 -15.256  16.974 -0.08 +0.02    +0.049 A 
DOCKED: ATOM     26  C   UNL d   1       6.113 -13.177  16.101 -0.09 -0.01    -0.018 A 
DOCKED: ATOM     27  C   UNL d   1       5.331 -14.368  15.996 -0.11 +0.00    +0.003 A 
DOCKED: ATOM     28  C   UNL d   1       5.444 -16.618  17.231 -0.10 +0.02    +0.052 C 
DOCKED: ATOM     29  C   UNL d   1       4.916 -20.215  20.661 -0.09 +0.01    +0.046 C 
DOCKED: ATOM     30  C   UNL d   1       6.014 -11.969  15.233 -0.21 +0.02    +0.046 C 
DOCKED: ATOM     31  H   UNL d   1       6.012 -15.813  19.899 +0.04 +0.08    +0.166 HD
DOCKED: ATOM     32  H   UNL d   1       7.248 -14.996  18.479 +0.04 +0.09    +0.166 HD
DOCKED: ENDROOT
DOCKED: BRANCH   7  33
DOCKED: ATOM     33  C   UNL d   1       9.156 -10.045  19.228 -0.03 +0.04    +0.141 C 
DOCKED: BRANCH  33  34
DOCKED: ATOM     34  C   UNL d   1       8.110  -9.497  20.160 -0.01 +0.06    +0.306 C 
DOCKED: ATOM     35  O   UNL d   1       6.906  -9.664  20.071 -0.03 -0.06    -0.251 OA
DOCKED: BRANCH  34  36
DOCKED: ATOM     36  O   UNL d   1       8.638  -8.767  21.159 +0.02 -0.07    -0.481 OA
DOCKED: ATOM     37  H   UNL d   1       9.161  -9.410  21.684 +0.13 +0.03    +0.295 HD
DOCKED: ENDBRANCH  34  36
DOCKED: ENDBRANCH  33  34
DOCKED: ENDBRANCH   7  33
DOCKED: BRANCH  27  38
DOCKED: ATOM     38  C   UNL d   1       4.318 -14.607  15.012 -0.20 +0.01    +0.017 C 
DOCKED: ATOM     39  C   UNL d   1       3.989 -15.809  14.515 -0.19 +0.03    +0.092 C 
DOCKED: BRANCH  39  40
DOCKED: ATOM     40  C   UNL d   1       2.918 -15.920  13.522 -0.13 +0.06    +0.330 C 
DOCKED: ATOM     41  O   UNL d   1       2.868 -16.665  12.562 -0.75 -0.06    -0.246 OA
DOCKED: BRANCH  40  42
DOCKED: ATOM     42  O   UNL d   1       1.929 -15.059  13.810 -0.08 -0.02    -0.477 OA
DOCKED: ATOM     43  H   UNL d   1       1.114 -15.577  13.651 -0.36 -0.12    +0.295 HD
DOCKED: ENDBRANCH  40  42
DOCKED: ENDBRANCH  39  40
DOCKED: ENDBRANCH  27  38
DOCKED: BRANCH   8  44
DOCKED: ATOM     44  C   UNL d   1       8.203 -14.937  25.204 -0.30 +0.04    +0.141 C 
DOCKED: BRANCH  44  45
DOCKED: ATOM     45  C   UNL d   1       7.846 -14.929  26.667 -0.16 +0.24    +0.306 C 
DOCKED: ATOM     46  O   UNL d   1       7.856 -13.964  27.412 -0.76 -0.19    -0.251 OA
DOCKED: BRANCH  45  47
DOCKED: ATOM     47  O   UNL d   1       7.520 -16.151  27.124 -0.29 -0.46    -0.481 OA
DOCKED: ATOM     48  H   UNL d   1       6.780 -16.441  26.550 +0.08 +0.14    +0.295 HD
DOCKED: ENDBRANCH  45  47
DOCKED: ENDBRANCH  44  45
DOCKED: ENDBRANCH   8  44
DOCKED: BRANCH  22  49
DOCKED: ATOM     49  C   UNL d   1       4.666 -19.585  17.539 -0.06 +0.01    +0.048 C 
DOCKED: BRANCH  49  50
DOCKED: ATOM     50  C   UNL d   1       3.704 -18.918  16.556 -0.13 +0.01    +0.125 C 
DOCKED: BRANCH  50  51
DOCKED: ATOM     51  C   UNL d   1       2.428 -18.521  17.241 -0.17 +0.01    +0.305 C 
DOCKED: ATOM     52  O   UNL d   1       2.087 -17.404  17.589 -0.27 -0.06    -0.251 OA
DOCKED: BRANCH  51  53
DOCKED: ATOM     53  O   UNL d   1       1.628 -19.582  17.470 -0.08 +0.14    -0.481 OA
DOCKED: ATOM     54  H   UNL d   1       0.910 -19.486  16.810 -0.36 -0.32    +0.295 HD
DOCKED: ENDBRANCH  51  53
DOCKED: ENDBRANCH  50  51
DOCKED: ENDBRANCH  49  50
DOCKED: ENDBRANCH  22  49
DOCKED: TORSDOF 13
DOCKED: TER
DOCKED: ENDMDL
________________________________________________________________________________


	BEGINNING GENETIC ALGORITHM DOCKING 66 of 100
Run: 66 Seed: 1609420949 491076669 [ Run 66 of 100 GA/GALS ]
Beginning LAMARCKIAN GENETIC ALGORITHM (LGA), with a maximum of 25000000 energy evaluations.

Final-Value: -11.321


	FINAL GENETIC ALGORITHM DOCKED STATE
	_______________________________________________


Detailed state:  trans 8.820 -5.301 -12.275 quatxyzw -0.058053 0.103781 -0.759629 0.639393 center 0.153 0.018 -0.028 ntor 13 -127.3322 -71.3742 -156.8743 179.2262 37.9146 -180.0000 132.8318 -105.9200 146.1320 -16.5931 -54.4869 -158.0431 179.2766
State:	  8.820  -5.301 -12.275  -0.076  0.135 -0.988 100.507   -127.33  -71.37 -156.87  179.23   37.91 -180.00  132.83 -105.92  146.13  -16.59  -54.49 -158.04  179.28

DOCKED: MODEL       66
DOCKED: USER    Run = 66
DOCKED: USER    DPF = D:/Protein_go_brrr/autodock/final/1A3N/heme/dock.dpf
DOCKED: USER  
DOCKED: USER    Estimated Free Energy of Binding    =   -5.10 kcal/mol  [=(1)+(2)+(3)-(4)]
DOCKED: USER    Estimated Inhibition Constant, Ki   =  182.38 uM (micromolar)  [Temperature = 298.15 K]
DOCKED: USER    
DOCKED: USER    (1) Final Intermolecular Energy     =   -8.98 kcal/mol
DOCKED: USER        vdW + Hbond + desolv Energy     =   -8.71 kcal/mol
DOCKED: USER        Electrostatic Energy            =   -0.27 kcal/mol
DOCKED: USER    (2) Final Total Internal Energy     =   -2.34 kcal/mol
DOCKED: USER    (3) Torsional Free Energy           =   +3.88 kcal/mol
DOCKED: USER    (4) Unbound System's Energy  [=(2)] =   -2.34 kcal/mol
DOCKED: USER    
DOCKED: USER    
DOCKED: USER    NEWDPF move heme_opt.pdbqt
DOCKED: USER    NEWDPF about 0.153000 0.018000 -0.028000
DOCKED: USER    NEWDPF tran0 8.819968 -5.300715 -12.275270
DOCKED: USER    NEWDPF quaternion0 -0.058053 0.103781 -0.759629 0.639393
DOCKED: USER    NEWDPF axisangle0 -0.075504 0.134977 -0.987968 100.506864
DOCKED: USER    NEWDPF quat0 -0.075504 0.134977 -0.987968 100.506864
DOCKED: USER    NEWDPF dihe0 -127.33 -71.37 -156.87 179.23 37.91 -180.00 132.83 -105.92 146.13 -16.59 -54.49 -158.04 179.28 
DOCKED: USER  keepresnum = 1 
DOCKED: USER  
DOCKED: REMARK  13 active torsions:
DOCKED: REMARK  status: ('A' for Active; 'I' for Inactive)
DOCKED: REMARK    1  A    between atoms: O_3  and  C_38 
DOCKED: REMARK    2  A    between atoms: O_4  and  C_40 
DOCKED: REMARK    3  A    between atoms: O_7  and  C_46 
DOCKED: REMARK    4  A    between atoms: O_9  and  C_48 
DOCKED: REMARK    5  A    between atoms: C_15  and  C_20 
DOCKED: REMARK    6  A    between atoms: C_16  and  C_23 
DOCKED: REMARK    7  A    between atoms: C_20  and  C_38 
DOCKED: REMARK    8  A    between atoms: C_23  and  C_40 
DOCKED: REMARK    9  A    between atoms: C_32  and  C_41 
DOCKED: REMARK   10  A    between atoms: C_37  and  C_45 
DOCKED: REMARK   11  A    between atoms: C_41  and  C_44 
DOCKED: REMARK   12  A    between atoms: C_44  and  C_46 
DOCKED: REMARK   13  A    between atoms: C_47  and  C_48 
DOCKED: USER                              x       y       z     vdW  Elec       q    Type
DOCKED: USER                           _______ _______ _______ _____ _____    ______ ____
DOCKED: ROOT
DOCKED: ATOM      1  O   UNL d   1       8.115 -11.106 -13.026 -0.13 -0.07    -0.289 OA
DOCKED: ATOM      2  O   UNL d   1      14.123  -6.704 -13.992 -0.06 -0.02    -0.289 OA
DOCKED: ATOM      3  N   UNL d   1       8.016  -7.686 -12.586 -0.12 -0.01    -0.247 NA
DOCKED: ATOM      4  N   UNL d   1      10.860  -6.877 -12.882 -0.11 +0.01    -0.247 NA
DOCKED: ATOM      5  N   UNL d   1      10.150  -4.318 -11.780 -0.06 +0.01    -0.354 N 
DOCKED: ATOM      6  N   UNL d   1       7.205  -5.173 -11.458 -0.06 -0.01    -0.354 N 
DOCKED: ATOM      7  C   UNL d   1       6.436  -9.523 -12.219 -0.17 +0.01    +0.084 A 
DOCKED: ATOM      8  C   UNL d   1      12.297  -8.317 -14.235 -0.07 +0.01    +0.084 A 
DOCKED: ATOM      9  C   UNL d   1      10.937  -8.063 -13.577 -0.13 +0.00    +0.058 A 
DOCKED: ATOM     10  C   UNL d   1       6.746  -8.025 -12.150 -0.13 +0.00    +0.058 A 
DOCKED: ATOM     11  C   UNL d   1       7.749  -9.969 -12.789 -0.14 +0.03    +0.193 A 
DOCKED: ATOM     12  C   UNL d   1       8.611  -8.761 -12.990 -0.17 +0.01    +0.109 A 
DOCKED: ATOM     13  C   UNL d   1      12.989  -7.073 -13.753 -0.07 +0.01    +0.193 A 
DOCKED: ATOM     14  C   UNL d   1       6.265 -10.140 -10.828 -0.29 +0.00    +0.026 C 
DOCKED: ATOM     15  C   UNL d   1       9.928  -8.945 -13.633 -0.17 +0.01    +0.055 C 
DOCKED: ATOM     16  C   UNL d   1      12.206  -8.269 -15.764 -0.02 +0.00    +0.026 C 
DOCKED: ATOM     17  C   UNL d   1      12.012  -6.290 -12.938 -0.15 -0.00    +0.109 A 
DOCKED: ATOM     18  C   UNL d   1       5.812  -7.130 -11.778 -0.07 +0.00    +0.050 C 
DOCKED: ATOM     19  C   UNL d   1       5.981  -5.722 -11.765 -0.09 +0.00    +0.045 A 
DOCKED: ATOM     20  C   UNL d   1      11.516  -4.205 -11.775 -0.17 -0.00    +0.045 A 
DOCKED: ATOM     21  C   UNL d   1      12.426  -5.034 -12.295 -0.18 -0.00    +0.057 C 
DOCKED: ATOM     22  C   UNL d   1      10.623  -2.401 -10.695 -0.15 -0.00    -0.019 A 
DOCKED: ATOM     23  C   UNL d   1       9.523  -3.275 -11.150 -0.14 -0.00    +0.045 A 
DOCKED: ATOM     24  C   UNL d   1      11.800  -2.957 -11.069 -0.16 -0.00    -0.022 A 
DOCKED: ATOM     25  C   UNL d   1       7.122  -3.800 -11.415 -0.11 +0.00    +0.049 A 
DOCKED: ATOM     26  C   UNL d   1       5.088  -4.680 -11.962 -0.07 -0.00    -0.018 A 
DOCKED: ATOM     27  C   UNL d   1       5.819  -3.469 -11.758 -0.10 +0.00    +0.003 A 
DOCKED: ATOM     28  C   UNL d   1       8.219  -3.017 -10.965 -0.16 -0.00    +0.052 C 
DOCKED: ATOM     29  C   UNL d   1      13.183  -2.446 -10.850 -0.21 +0.00    +0.046 C 
DOCKED: ATOM     30  C   UNL d   1       3.645  -4.799 -12.319 -0.05 +0.01    +0.046 C 
DOCKED: ATOM     31  H   UNL d   1       9.685  -5.068 -12.280 +0.04 -0.01    +0.166 HD
DOCKED: ATOM     32  H   UNL d   1       8.032  -5.723 -11.255 +0.04 -0.00    +0.166 HD
DOCKED: ENDROOT
DOCKED: BRANCH   7  33
DOCKED: ATOM     33  C   UNL d   1       5.284  -9.913 -13.152 -0.07 +0.02    +0.141 C 
DOCKED: BRANCH  33  34
DOCKED: ATOM     34  C   UNL d   1       4.813 -11.325 -12.932 -0.04 +0.03    +0.306 C 
DOCKED: ATOM     35  O   UNL d   1       3.915 -11.677 -12.186 -0.04 -0.03    -0.251 OA
DOCKED: BRANCH  34  36
DOCKED: ATOM     36  O   UNL d   1       5.498 -12.221 -13.666 -0.00 -0.06    -0.481 OA
DOCKED: ATOM     37  H   UNL d   1       6.441 -12.011 -13.493 +0.05 +0.04    +0.295 HD
DOCKED: ENDBRANCH  34  36
DOCKED: ENDBRANCH  33  34
DOCKED: ENDBRANCH   7  33
DOCKED: BRANCH  27  38
DOCKED: ATOM     38  C   UNL d   1       5.270  -2.149 -11.849 -0.21 +0.00    +0.017 C 
DOCKED: ATOM     39  C   UNL d   1       4.251  -1.682 -11.113 -0.30 +0.00    +0.092 C 
DOCKED: BRANCH  39  40
DOCKED: ATOM     40  C   UNL d   1       3.793  -0.301 -11.291 -0.32 +0.02    +0.330 C 
DOCKED: ATOM     41  O   UNL d   1       2.869   0.255 -10.729 -0.42 -0.03    -0.246 OA
DOCKED: BRANCH  40  42
DOCKED: ATOM     42  O   UNL d   1       4.562   0.326 -12.195 -0.79 -0.12    -0.477 OA
DOCKED: ATOM     43  H   UNL d   1       3.978   0.419 -12.976 -0.39 +0.06    +0.295 HD
DOCKED: ENDBRANCH  40  42
DOCKED: ENDBRANCH  39  40
DOCKED: ENDBRANCH  27  38
DOCKED: BRANCH   8  44
DOCKED: ATOM     44  C   UNL d   1      13.035  -9.574 -13.763 -0.12 +0.03    +0.141 C 
DOCKED: BRANCH  44  45
DOCKED: ATOM     45  C   UNL d   1      13.467  -9.503 -12.322 -0.22 +0.07    +0.306 C 
DOCKED: ATOM     46  O   UNL d   1      12.816  -9.844 -11.350 -0.32 -0.04    -0.251 OA
DOCKED: BRANCH  45  47
DOCKED: ATOM     47  O   UNL d   1      14.696  -8.975 -12.179 -0.46 -0.09    -0.481 OA
DOCKED: ATOM     48  H   UNL d   1      14.838  -8.452 -12.996 +0.09 +0.04    +0.295 HD
DOCKED: ENDBRANCH  45  47
DOCKED: ENDBRANCH  44  45
DOCKED: ENDBRANCH   8  44
DOCKED: BRANCH  22  49
DOCKED: ATOM     49  C   UNL d   1      10.423  -1.125  -9.931 -0.22 +0.00    +0.048 C 
DOCKED: BRANCH  49  50
DOCKED: ATOM     50  C   UNL d   1      10.556  -1.338  -8.423 -0.36 +0.01    +0.125 C 
DOCKED: BRANCH  50  51
DOCKED: ATOM     51  C   UNL d   1      11.562  -0.391  -7.834 -0.23 +0.12    +0.305 C 
DOCKED: ATOM     52  O   UNL d   1      12.648  -0.665  -7.354 -0.47 -0.16    -0.251 OA
DOCKED: BRANCH  51  53
DOCKED: ATOM     53  O   UNL d   1      11.133   0.886  -7.869 -0.22 -0.23    -0.481 OA
DOCKED: ATOM     54  H   UNL d   1      10.257   0.832  -8.305 -0.04 +0.02    +0.295 HD
DOCKED: ENDBRANCH  51  53
DOCKED: ENDBRANCH  50  51
DOCKED: ENDBRANCH  49  50
DOCKED: ENDBRANCH  22  49
DOCKED: TORSDOF 13
DOCKED: TER
DOCKED: ENDMDL
________________________________________________________________________________


	BEGINNING GENETIC ALGORITHM DOCKING 67 of 100
Run: 67 Seed: 1099510024 136645555 [ Run 67 of 100 GA/GALS ]
Beginning LAMARCKIAN GENETIC ALGORITHM (LGA), with a maximum of 25000000 energy evaluations.

Final-Value: -12.460


	FINAL GENETIC ALGORITHM DOCKED STATE
	_______________________________________________


Detailed state:  trans 19.309 -16.501 -0.291 quatxyzw 0.468241 0.225087 0.020053 -0.854216 center 0.153 0.018 -0.028 ntor 13 -177.0652 -127.4041 -145.4669 21.3601 53.0462 -105.1551 127.9383 -116.3099 162.7817 -41.0547 -96.9166 21.9734 -1.7325
State:	 19.309 -16.501  -0.291   0.901  0.433  0.039 -62.654   -177.07 -127.40 -145.47   21.36   53.05 -105.16  127.94 -116.31  162.78  -41.05  -96.92   21.97   -1.73

DOCKED: MODEL       67
DOCKED: USER    Run = 67
DOCKED: USER    DPF = D:/Protein_go_brrr/autodock/final/1A3N/heme/dock.dpf
DOCKED: USER  
DOCKED: USER    Estimated Free Energy of Binding    =   -4.11 kcal/mol  [=(1)+(2)+(3)-(4)]
DOCKED: USER    Estimated Inhibition Constant, Ki   =  971.26 uM (micromolar)  [Temperature = 298.15 K]
DOCKED: USER    
DOCKED: USER    (1) Final Intermolecular Energy     =   -7.99 kcal/mol
DOCKED: USER        vdW + Hbond + desolv Energy     =   -7.62 kcal/mol
DOCKED: USER        Electrostatic Energy            =   -0.37 kcal/mol
DOCKED: USER    (2) Final Total Internal Energy     =   -4.47 kcal/mol
DOCKED: USER    (3) Torsional Free Energy           =   +3.88 kcal/mol
DOCKED: USER    (4) Unbound System's Energy  [=(2)] =   -4.47 kcal/mol
DOCKED: USER    
DOCKED: USER    
DOCKED: USER    NEWDPF move heme_opt.pdbqt
DOCKED: USER    NEWDPF about 0.153000 0.018000 -0.028000
DOCKED: USER    NEWDPF tran0 19.309293 -16.501178 -0.290709
DOCKED: USER    NEWDPF quaternion0 0.468241 0.225087 0.020053 -0.854216
DOCKED: USER    NEWDPF axisangle0 0.900604 0.432926 0.038569 -62.653606
DOCKED: USER    NEWDPF quat0 0.900604 0.432926 0.038569 -62.653606
DOCKED: USER    NEWDPF dihe0 -177.07 -127.40 -145.47 21.36 53.05 -105.16 127.94 -116.31 162.78 -41.05 -96.92 21.97 -1.73 
DOCKED: USER  keepresnum = 1 
DOCKED: USER  
DOCKED: REMARK  13 active torsions:
DOCKED: REMARK  status: ('A' for Active; 'I' for Inactive)
DOCKED: REMARK    1  A    between atoms: O_3  and  C_38 
DOCKED: REMARK    2  A    between atoms: O_4  and  C_40 
DOCKED: REMARK    3  A    between atoms: O_7  and  C_46 
DOCKED: REMARK    4  A    between atoms: O_9  and  C_48 
DOCKED: REMARK    5  A    between atoms: C_15  and  C_20 
DOCKED: REMARK    6  A    between atoms: C_16  and  C_23 
DOCKED: REMARK    7  A    between atoms: C_20  and  C_38 
DOCKED: REMARK    8  A    between atoms: C_23  and  C_40 
DOCKED: REMARK    9  A    between atoms: C_32  and  C_41 
DOCKED: REMARK   10  A    between atoms: C_37  and  C_45 
DOCKED: REMARK   11  A    between atoms: C_41  and  C_44 
DOCKED: REMARK   12  A    between atoms: C_44  and  C_46 
DOCKED: REMARK   13  A    between atoms: C_47  and  C_48 
DOCKED: USER                              x       y       z     vdW  Elec       q    Type
DOCKED: USER                           _______ _______ _______ _____ _____    ______ ____
DOCKED: ROOT
DOCKED: ATOM      1  O   UNL d   1      14.831 -17.442   3.426 -0.29 -0.00    -0.289 OA
DOCKED: ATOM      2  O   UNL d   1      15.431 -18.621  -3.966 -0.09 +0.22    -0.289 OA
DOCKED: ATOM      3  N   UNL d   1      17.647 -16.598   1.623 -0.14 +0.05    -0.247 NA
DOCKED: ATOM      4  N   UNL d   1      17.082 -17.697  -1.080 -0.14 +0.08    -0.247 NA
DOCKED: ATOM      5  N   UNL d   1      19.857 -17.299  -1.720 -0.09 +0.11    -0.354 N 
DOCKED: ATOM      6  N   UNL d   1      20.438 -16.178   1.092 -0.02 +0.06    -0.354 N 
DOCKED: ATOM      7  C   UNL d   1      17.052 -16.597   4.000 -0.21 -0.01    +0.084 A 
DOCKED: ATOM      8  C   UNL d   1      14.737 -17.944  -1.718 -0.28 -0.05    +0.084 A 
DOCKED: ATOM      9  C   UNL d   1      15.778 -17.601  -0.648 -0.28 -0.02    +0.058 A 
DOCKED: ATOM     10  C   UNL d   1      18.091 -16.332   2.907 -0.19 -0.01    +0.058 A 
DOCKED: ATOM     11  C   UNL d   1      15.936 -17.044   3.105 -0.24 -0.03    +0.193 A 
DOCKED: ATOM     12  C   UNL d   1      16.412 -16.976   1.687 -0.30 -0.02    +0.109 A 
DOCKED: ATOM     13  C   UNL d   1      15.692 -18.290  -2.826 -0.14 -0.12    +0.193 A 
DOCKED: ATOM     14  C   UNL d   1      17.456 -17.763   4.907 -0.22 +0.00    +0.026 C 
DOCKED: ATOM     15  C   UNL d   1      15.446 -17.284   0.613 -0.34 -0.02    +0.055 C 
DOCKED: ATOM     16  C   UNL d   1      13.924 -16.714  -2.135 -0.44 -0.03    +0.026 C 
DOCKED: ATOM     17  C   UNL d   1      17.081 -18.106  -2.308 -0.15 -0.05    +0.109 A 
DOCKED: ATOM     18  C   UNL d   1      19.293 -15.798   3.195 -0.19 -0.00    +0.050 C 
DOCKED: ATOM     19  C   UNL d   1      20.283 -15.440   2.244 -0.14 -0.01    +0.045 A 
DOCKED: ATOM     20  C   UNL d   1      19.466 -18.030  -2.812 -0.12 -0.01    +0.045 A 
DOCKED: ATOM     21  C   UNL d   1      18.235 -18.415  -3.165 -0.14 -0.02    +0.057 C 
DOCKED: ATOM     22  C   UNL d   1      21.733 -17.760  -2.878 -0.06 +0.00    -0.019 A 
DOCKED: ATOM     23  C   UNL d   1      21.209 -17.086  -1.673 -0.11 -0.01    +0.045 A 
DOCKED: ATOM     24  C   UNL d   1      20.696 -18.316  -3.548 -0.06 +0.00    -0.022 A 
DOCKED: ATOM     25  C   UNL d   1      21.507 -15.714   0.361 -0.12 -0.01    +0.049 A 
DOCKED: ATOM     26  C   UNL d   1      21.252 -14.449   2.244 -0.20 +0.00    -0.018 A 
DOCKED: ATOM     27  C   UNL d   1      22.010 -14.615   1.044 -0.18 -0.00    +0.003 A 
DOCKED: ATOM     28  C   UNL d   1      21.962 -16.413  -0.790 -0.13 -0.01    +0.052 C 
DOCKED: ATOM     29  C   UNL d   1      20.717 -19.089  -4.823 -0.03 -0.01    +0.046 C 
DOCKED: ATOM     30  C   UNL d   1      21.462 -13.410   3.292 -0.24 -0.00    +0.046 C 
DOCKED: ATOM     31  H   UNL d   1      19.176 -16.905  -1.079 +0.04 -0.05    +0.166 HD
DOCKED: ATOM     32  H   UNL d   1      19.860 -16.975   0.855 +0.04 -0.03    +0.166 HD
DOCKED: ENDROOT
DOCKED: BRANCH   7  33
DOCKED: ATOM     33  C   UNL d   1      16.629 -15.371   4.816 -0.23 -0.03    +0.141 C 
DOCKED: BRANCH  33  34
DOCKED: ATOM     34  C   UNL d   1      16.243 -15.720   6.228 -0.16 -0.01    +0.306 C 
DOCKED: ATOM     35  O   UNL d   1      16.893 -15.481   7.232 -0.12 -0.03    -0.251 OA
DOCKED: BRANCH  34  36
DOCKED: ATOM     36  O   UNL d   1      15.057 -16.350   6.301 -0.07 +0.03    -0.481 OA
DOCKED: ATOM     37  H   UNL d   1      14.756 -16.418   5.370 -0.35 -0.11    +0.295 HD
DOCKED: ENDBRANCH  34  36
DOCKED: ENDBRANCH  33  34
DOCKED: ENDBRANCH   7  33
DOCKED: BRANCH  27  38
DOCKED: ATOM     38  C   UNL d   1      23.125 -13.805   0.653 -0.22 -0.00    +0.017 C 
DOCKED: ATOM     39  C   UNL d   1      23.205 -13.092  -0.480 -0.12 -0.00    +0.092 C 
DOCKED: BRANCH  39  40
DOCKED: ATOM     40  C   UNL d   1      24.399 -12.288  -0.754 -0.15 +0.11    +0.330 C 
DOCKED: ATOM     41  O   UNL d   1      24.505 -11.077  -0.715 -0.68 -0.15    -0.246 OA
DOCKED: BRANCH  40  42
DOCKED: ATOM     42  O   UNL d   1      25.432 -13.086  -1.064 -0.03 -0.04    -0.477 OA
DOCKED: ATOM     43  H   UNL d   1      25.083 -13.655  -1.781 +0.06 +0.02    +0.295 HD
DOCKED: ENDBRANCH  40  42
DOCKED: ENDBRANCH  39  40
DOCKED: ENDBRANCH  27  38
DOCKED: BRANCH   8  44
DOCKED: ATOM     44  C   UNL d   1      13.822 -19.129  -1.393 -0.23 -0.09    +0.141 C 
DOCKED: BRANCH  44  45
DOCKED: ATOM     45  C   UNL d   1      14.360 -20.447  -1.883 -0.07 -0.15    +0.306 C 
DOCKED: ATOM     46  O   UNL d   1      15.167 -21.160  -1.312 -0.02 +0.06    -0.251 OA
DOCKED: BRANCH  45  47
DOCKED: ATOM     47  O   UNL d   1      13.869 -20.788  -3.088 -0.05 +0.36    -0.481 OA
DOCKED: ATOM     48  H   UNL d   1      13.753 -19.935  -3.559 +0.05 -0.33    +0.295 HD
DOCKED: ENDBRANCH  45  47
DOCKED: ENDBRANCH  44  45
DOCKED: ENDBRANCH   8  44
DOCKED: BRANCH  22  49
DOCKED: ATOM     49  C   UNL d   1      23.186 -17.811  -3.250 -0.02 -0.01    +0.048 C 
DOCKED: BRANCH  49  50
DOCKED: ATOM     50  C   UNL d   1      23.617 -16.569  -4.030 -0.01 -0.01    +0.125 C 
DOCKED: BRANCH  50  51
DOCKED: ATOM     51  C   UNL d   1      23.959 -15.442  -3.097 -0.01 -0.02    +0.305 C 
DOCKED: ATOM     52  O   UNL d   1      23.467 -14.328  -3.066 -0.06 -0.01    -0.251 OA
DOCKED: BRANCH  51  53
DOCKED: ATOM     53  O   UNL d   1      24.939 -15.780  -2.235 +0.01 +0.05    -0.481 OA
DOCKED: ATOM     54  H   UNL d   1      24.837 -15.144  -1.497 +0.04 -0.03    +0.295 HD
DOCKED: ENDBRANCH  51  53
DOCKED: ENDBRANCH  50  51
DOCKED: ENDBRANCH  49  50
DOCKED: ENDBRANCH  22  49
DOCKED: TORSDOF 13
DOCKED: TER
DOCKED: ENDMDL
________________________________________________________________________________


	BEGINNING GENETIC ALGORITHM DOCKING 68 of 100
Run: 68 Seed: 530130691 1790353995 [ Run 68 of 100 GA/GALS ]
Beginning LAMARCKIAN GENETIC ALGORITHM (LGA), with a maximum of 25000000 energy evaluations.

Final-Value: -12.217


	FINAL GENETIC ALGORITHM DOCKED STATE
	_______________________________________________


Detailed state:  trans 26.106 16.418 26.562 quatxyzw 0.753505 0.159026 -0.602154 -0.210600 center 0.153 0.018 -0.028 ntor 13 72.8536 -151.3999 164.8156 141.7775 11.7309 111.1800 150.8180 -115.6924 -32.7380 -16.8262 -18.3710 -164.2822 -122.4578
State:	 26.106  16.418  26.562   0.771  0.163 -0.616 -155.685     72.85 -151.40  164.82  141.78   11.73  111.18  150.82 -115.69  -32.74  -16.83  -18.37 -164.28 -122.46

DOCKED: MODEL       68
DOCKED: USER    Run = 68
DOCKED: USER    DPF = D:/Protein_go_brrr/autodock/final/1A3N/heme/dock.dpf
DOCKED: USER  
DOCKED: USER    Estimated Free Energy of Binding    =   -7.11 kcal/mol  [=(1)+(2)+(3)-(4)]
DOCKED: USER    Estimated Inhibition Constant, Ki   =    6.19 uM (micromolar)  [Temperature = 298.15 K]
DOCKED: USER    
DOCKED: USER    (1) Final Intermolecular Energy     =  -10.98 kcal/mol
DOCKED: USER        vdW + Hbond + desolv Energy     =   -9.83 kcal/mol
DOCKED: USER        Electrostatic Energy            =   -1.15 kcal/mol
DOCKED: USER    (2) Final Total Internal Energy     =   -1.23 kcal/mol
DOCKED: USER    (3) Torsional Free Energy           =   +3.88 kcal/mol
DOCKED: USER    (4) Unbound System's Energy  [=(2)] =   -1.23 kcal/mol
DOCKED: USER    
DOCKED: USER    
DOCKED: USER    NEWDPF move heme_opt.pdbqt
DOCKED: USER    NEWDPF about 0.153000 0.018000 -0.028000
DOCKED: USER    NEWDPF tran0 26.105542 16.417957 26.561623
DOCKED: USER    NEWDPF quaternion0 0.753505 0.159026 -0.602154 -0.210600
DOCKED: USER    NEWDPF axisangle0 0.770792 0.162674 -0.615968 -155.684995
DOCKED: USER    NEWDPF quat0 0.770792 0.162674 -0.615968 -155.684995
DOCKED: USER    NEWDPF dihe0 72.85 -151.40 164.82 141.78 11.73 111.18 150.82 -115.69 -32.74 -16.83 -18.37 -164.28 -122.46 
DOCKED: USER  keepresnum = 1 
DOCKED: USER  
DOCKED: REMARK  13 active torsions:
DOCKED: REMARK  status: ('A' for Active; 'I' for Inactive)
DOCKED: REMARK    1  A    between atoms: O_3  and  C_38 
DOCKED: REMARK    2  A    between atoms: O_4  and  C_40 
DOCKED: REMARK    3  A    between atoms: O_7  and  C_46 
DOCKED: REMARK    4  A    between atoms: O_9  and  C_48 
DOCKED: REMARK    5  A    between atoms: C_15  and  C_20 
DOCKED: REMARK    6  A    between atoms: C_16  and  C_23 
DOCKED: REMARK    7  A    between atoms: C_20  and  C_38 
DOCKED: REMARK    8  A    between atoms: C_23  and  C_40 
DOCKED: REMARK    9  A    between atoms: C_32  and  C_41 
DOCKED: REMARK   10  A    between atoms: C_37  and  C_45 
DOCKED: REMARK   11  A    between atoms: C_41  and  C_44 
DOCKED: REMARK   12  A    between atoms: C_44  and  C_46 
DOCKED: REMARK   13  A    between atoms: C_47  and  C_48 
DOCKED: USER                              x       y       z     vdW  Elec       q    Type
DOCKED: USER                           _______ _______ _______ _____ _____    ______ ____
DOCKED: ROOT
DOCKED: ATOM      1  O   UNL d   1      25.136  14.713  32.121 -0.06 +0.02    -0.289 OA
DOCKED: ATOM      2  O   UNL d   1      24.446  21.430  28.835 -0.02 +0.03    -0.289 OA
DOCKED: ATOM      3  N   UNL d   1      25.959  15.270  28.819 -0.09 +0.04    -0.247 NA
DOCKED: ATOM      4  N   UNL d   1      25.081  18.071  28.359 -0.08 +0.03    -0.247 NA
DOCKED: ATOM      5  N   UNL d   1      25.383  17.605  25.538 -0.07 +0.05    -0.354 N 
DOCKED: ATOM      6  N   UNL d   1      26.274  14.694  26.023 -0.10 +0.07    -0.354 N 
DOCKED: ATOM      7  C   UNL d   1      25.825  13.290  30.257 -0.16 -0.01    +0.084 A 
DOCKED: ATOM      8  C   UNL d   1      24.999  19.550  30.302 -0.06 -0.01    +0.084 A 
DOCKED: ATOM      9  C   UNL d   1      25.214  18.146  29.727 -0.13 -0.01    +0.058 A 
DOCKED: ATOM     10  C   UNL d   1      26.113  13.895  28.880 -0.17 -0.01    +0.058 A 
DOCKED: ATOM     11  C   UNL d   1      25.499  14.569  30.968 -0.09 -0.02    +0.193 A 
DOCKED: ATOM     12  C   UNL d   1      25.641  15.699  29.996 -0.12 -0.01    +0.109 A 
DOCKED: ATOM     13  C   UNL d   1      24.683  20.251  29.011 -0.06 -0.02    +0.193 A 
DOCKED: ATOM     14  C   UNL d   1      24.580  12.399  30.244 -0.42 +0.00    +0.026 C 
DOCKED: ATOM     15  C   UNL d   1      25.458  17.076  30.499 -0.13 -0.01    +0.055 C 
DOCKED: ATOM     16  C   UNL d   1      26.294  20.133  30.875 -0.02 -0.00    +0.026 C 
DOCKED: ATOM     17  C   UNL d   1      24.759  19.242  27.911 -0.11 -0.01    +0.109 A 
DOCKED: ATOM     18  C   UNL d   1      26.564  13.140  27.860 -0.26 -0.01    +0.050 C 
DOCKED: ATOM     19  C   UNL d   1      26.936  13.624  26.580 -0.19 -0.01    +0.045 A 
DOCKED: ATOM     20  C   UNL d   1      24.750  18.821  25.509 -0.16 -0.00    +0.045 A 
DOCKED: ATOM     21  C   UNL d   1      24.453  19.635  26.527 -0.16 -0.00    +0.057 C 
DOCKED: ATOM     22  C   UNL d   1      24.909  18.021  23.375 -0.27 +0.00    -0.019 A 
DOCKED: ATOM     23  C   UNL d   1      25.524  17.044  24.296 -0.26 -0.01    +0.045 A 
DOCKED: ATOM     24  C   UNL d   1      24.454  19.071  24.099 -0.21 +0.00    -0.022 A 
DOCKED: ATOM     25  C   UNL d   1      26.733  14.936  24.749 -0.25 -0.02    +0.049 A 
DOCKED: ATOM     26  C   UNL d   1      27.875  13.183  25.661 -0.19 +0.00    -0.018 A 
DOCKED: ATOM     27  C   UNL d   1      27.756  14.027  24.514 -0.24 -0.00    +0.003 A 
DOCKED: ATOM     28  C   UNL d   1      26.095  15.892  23.913 -0.20 -0.02    +0.052 C 
DOCKED: ATOM     29  C   UNL d   1      23.772  20.308  23.622 -0.20 +0.00    +0.046 C 
DOCKED: ATOM     30  C   UNL d   1      28.827  12.048  25.834 -0.28 -0.01    +0.046 C 
DOCKED: ATOM     31  H   UNL d   1      25.765  17.231  26.400 +0.05 -0.02    +0.166 HD
DOCKED: ATOM     32  H   UNL d   1      25.526  15.194  26.488 +0.07 -0.03    +0.166 HD
DOCKED: ENDROOT
DOCKED: BRANCH   7  33
DOCKED: ATOM     33  C   UNL d   1      27.011  12.589  30.928 -0.18 -0.03    +0.141 C 
DOCKED: BRANCH  33  34
DOCKED: ATOM     34  C   UNL d   1      28.326  12.928  30.280 -0.16 -0.08    +0.306 C 
DOCKED: ATOM     35  O   UNL d   1      28.861  14.023  30.266 -0.13 +0.05    -0.251 OA
DOCKED: BRANCH  34  36
DOCKED: ATOM     36  O   UNL d   1      28.900  11.867  29.685 -0.46 +0.14    -0.481 OA
DOCKED: ATOM     37  H   UNL d   1      29.676  11.659  30.247 -0.33 -0.20    +0.295 HD
DOCKED: ENDBRANCH  34  36
DOCKED: ENDBRANCH  33  34
DOCKED: ENDBRANCH   7  33
DOCKED: BRANCH  27  38
DOCKED: ATOM     38  C   UNL d   1      28.533  13.908  23.317 -0.26 -0.01    +0.017 C 
DOCKED: ATOM     39  C   UNL d   1      28.682  12.785  22.599 -0.34 -0.04    +0.092 C 
DOCKED: BRANCH  39  40
DOCKED: ATOM     40  C   UNL d   1      29.494  12.800  21.379 -0.21 -0.13    +0.330 C 
DOCKED: ATOM     41  O   UNL d   1      30.583  12.288  21.204 -0.21 +0.07    -0.246 OA
DOCKED: BRANCH  40  42
DOCKED: ATOM     42  O   UNL d   1      28.858  13.478  20.411 -0.09 +0.31    -0.477 OA
DOCKED: ATOM     43  H   UNL d   1      28.309  14.126  20.899 -0.41 -0.49    +0.295 HD
DOCKED: ENDBRANCH  40  42
DOCKED: ENDBRANCH  39  40
DOCKED: ENDBRANCH  27  38
DOCKED: BRANCH   8  44
DOCKED: ATOM     44  C   UNL d   1      23.842  19.687  31.297 -0.07 -0.01    +0.141 C 
DOCKED: BRANCH  44  45
DOCKED: ATOM     45  C   UNL d   1      22.490  19.473  30.670 -0.09 -0.04    +0.306 C 
DOCKED: ATOM     46  O   UNL d   1      21.771  18.498  30.807 -0.06 +0.01    -0.251 OA
DOCKED: BRANCH  45  47
DOCKED: ATOM     47  O   UNL d   1      22.124  20.494  29.875 -0.07 +0.14    -0.481 OA
DOCKED: ATOM     48  H   UNL d   1      22.727  21.228  30.121 +0.06 -0.07    +0.295 HD
DOCKED: ENDBRANCH  45  47
DOCKED: ENDBRANCH  44  45
DOCKED: ENDBRANCH   8  44
DOCKED: BRANCH  22  49
DOCKED: ATOM     49  C   UNL d   1      24.811  17.832  21.890 -0.20 -0.02    +0.048 C 
DOCKED: BRANCH  49  50
DOCKED: ATOM     50  C   UNL d   1      23.638  18.611  21.294 -0.31 +0.00    +0.125 C 
DOCKED: BRANCH  50  51
DOCKED: ATOM     51  C   UNL d   1      23.796  18.764  19.808 -0.25 +0.17    +0.305 C 
DOCKED: ATOM     52  O   UNL d   1      23.841  19.800  19.168 -0.65 -0.26    -0.251 OA
DOCKED: BRANCH  51  53
DOCKED: ATOM     53  O   UNL d   1      23.878  17.572  19.184 -0.48 -0.27    -0.481 OA
DOCKED: ATOM     54  H   UNL d   1      24.418  17.022  19.791 -0.29 -0.43    +0.295 HD
DOCKED: ENDBRANCH  51  53
DOCKED: ENDBRANCH  50  51
DOCKED: ENDBRANCH  49  50
DOCKED: ENDBRANCH  22  49
DOCKED: TORSDOF 13
DOCKED: TER
DOCKED: ENDMDL
________________________________________________________________________________


	BEGINNING GENETIC ALGORITHM DOCKING 69 of 100
Run: 69 Seed: 736276192 502405027 [ Run 69 of 100 GA/GALS ]
Beginning LAMARCKIAN GENETIC ALGORITHM (LGA), with a maximum of 25000000 energy evaluations.

Final-Value: -14.601


	FINAL GENETIC ALGORITHM DOCKED STATE
	_______________________________________________


Detailed state:  trans 23.116 7.560 -6.589 quatxyzw -0.672427 0.232401 -0.647904 0.272127 center 0.153 0.018 -0.028 ntor 13 104.4802 131.4855 80.2643 -58.2334 -137.9207 115.8944 -53.8480 36.1861 49.1179 -81.6424 -82.8055 -124.1729 10.5372
State:	 23.116   7.560  -6.589  -0.699  0.242 -0.673 148.418    104.48  131.49   80.26  -58.23 -137.92  115.89  -53.85   36.19   49.12  -81.64  -82.81 -124.17   10.54

DOCKED: MODEL       69
DOCKED: USER    Run = 69
DOCKED: USER    DPF = D:/Protein_go_brrr/autodock/final/1A3N/heme/dock.dpf
DOCKED: USER  
DOCKED: USER    Estimated Free Energy of Binding    =   -6.30 kcal/mol  [=(1)+(2)+(3)-(4)]
DOCKED: USER    Estimated Inhibition Constant, Ki   =   23.97 uM (micromolar)  [Temperature = 298.15 K]
DOCKED: USER    
DOCKED: USER    (1) Final Intermolecular Energy     =  -10.18 kcal/mol
DOCKED: USER        vdW + Hbond + desolv Energy     =  -10.13 kcal/mol
DOCKED: USER        Electrostatic Energy            =   -0.05 kcal/mol
DOCKED: USER    (2) Final Total Internal Energy     =   -4.42 kcal/mol
DOCKED: USER    (3) Torsional Free Energy           =   +3.88 kcal/mol
DOCKED: USER    (4) Unbound System's Energy  [=(2)] =   -4.42 kcal/mol
DOCKED: USER    
DOCKED: USER    
DOCKED: USER    NEWDPF move heme_opt.pdbqt
DOCKED: USER    NEWDPF about 0.153000 0.018000 -0.028000
DOCKED: USER    NEWDPF tran0 23.116290 7.560482 -6.588573
DOCKED: USER    NEWDPF quaternion0 -0.672427 0.232401 -0.647904 0.272127
DOCKED: USER    NEWDPF axisangle0 -0.698798 0.241515 -0.673314 148.418262
DOCKED: USER    NEWDPF quat0 -0.698798 0.241515 -0.673314 148.418262
DOCKED: USER    NEWDPF dihe0 104.48 131.49 80.26 -58.23 -137.92 115.89 -53.85 36.19 49.12 -81.64 -82.81 -124.17 10.54 
DOCKED: USER  keepresnum = 1 
DOCKED: USER  
DOCKED: REMARK  13 active torsions:
DOCKED: REMARK  status: ('A' for Active; 'I' for Inactive)
DOCKED: REMARK    1  A    between atoms: O_3  and  C_38 
DOCKED: REMARK    2  A    between atoms: O_4  and  C_40 
DOCKED: REMARK    3  A    between atoms: O_7  and  C_46 
DOCKED: REMARK    4  A    between atoms: O_9  and  C_48 
DOCKED: REMARK    5  A    between atoms: C_15  and  C_20 
DOCKED: REMARK    6  A    between atoms: C_16  and  C_23 
DOCKED: REMARK    7  A    between atoms: C_20  and  C_38 
DOCKED: REMARK    8  A    between atoms: C_23  and  C_40 
DOCKED: REMARK    9  A    between atoms: C_32  and  C_41 
DOCKED: REMARK   10  A    between atoms: C_37  and  C_45 
DOCKED: REMARK   11  A    between atoms: C_41  and  C_44 
DOCKED: REMARK   12  A    between atoms: C_44  and  C_46 
DOCKED: REMARK   13  A    between atoms: C_47  and  C_48 
DOCKED: USER                              x       y       z     vdW  Elec       q    Type
DOCKED: USER                           _______ _______ _______ _____ _____    ______ ____
DOCKED: ROOT
DOCKED: ATOM      1  O   UNL d   1      22.181   5.647 -12.086 -0.03 -0.12    -0.289 OA
DOCKED: ATOM      2  O   UNL d   1      25.024  12.112  -9.534 -0.07 -0.11    -0.289 OA
DOCKED: ATOM      3  N   UNL d   1      22.416   6.388  -8.725 -0.12 -0.10    -0.247 NA
DOCKED: ATOM      4  N   UNL d   1      23.909   8.956  -8.695 -0.13 -0.17    -0.247 NA
DOCKED: ATOM      5  N   UNL d   1      24.306   8.585  -5.871 -0.15 -0.10    -0.354 N 
DOCKED: ATOM      6  N   UNL d   1      22.773   5.911  -5.916 -0.04 -0.08    -0.354 N 
DOCKED: ATOM      7  C   UNL d   1      21.768   4.409 -10.019 -0.21 +0.03    +0.084 A 
DOCKED: ATOM      8  C   UNL d   1      23.740  10.371 -10.680 -0.12 +0.05    +0.084 A 
DOCKED: ATOM      9  C   UNL d   1      23.424   9.045  -9.981 -0.16 +0.04    +0.058 A 
DOCKED: ATOM     10  C   UNL d   1      21.989   5.072  -8.656 -0.24 +0.02    +0.058 A 
DOCKED: ATOM     11  C   UNL d   1      22.127   5.589 -10.871 -0.07 +0.08    +0.193 A 
DOCKED: ATOM     12  C   UNL d   1      22.476   6.733  -9.970 -0.12 +0.06    +0.109 A 
DOCKED: ATOM     13  C   UNL d   1      24.525  11.004  -9.566 -0.12 +0.11    +0.193 A 
DOCKED: ATOM     14  C   UNL d   1      22.773   3.285 -10.281 -0.09 +0.01    +0.026 C 
DOCKED: ATOM     15  C   UNL d   1      22.777   8.040 -10.590 -0.14 +0.04    +0.055 C 
DOCKED: ATOM     16  C   UNL d   1      22.475  11.200 -10.923 -0.13 +0.01    +0.026 C 
DOCKED: ATOM     17  C   UNL d   1      24.560  10.042  -8.424 -0.20 +0.06    +0.109 A 
DOCKED: ATOM     18  C   UNL d   1      21.697   4.433  -7.508 -0.39 +0.01    +0.050 C 
DOCKED: ATOM     19  C   UNL d   1      21.790   4.993  -6.208 -0.34 +0.01    +0.045 A 
DOCKED: ATOM     20  C   UNL d   1      25.144   9.648  -6.089 -0.30 +0.01    +0.045 A 
DOCKED: ATOM     21  C   UNL d   1      25.303  10.376  -7.199 -0.28 +0.02    +0.057 C 
DOCKED: ATOM     22  C   UNL d   1      25.424   8.915  -3.944 -0.44 -0.00    -0.019 A 
DOCKED: ATOM     23  C   UNL d   1      24.405   8.075  -4.604 -0.34 +0.01    +0.045 A 
DOCKED: ATOM     24  C   UNL d   1      25.857   9.845  -4.828 -0.40 -0.00    -0.022 A 
DOCKED: ATOM     25  C   UNL d   1      22.735   6.252  -4.584 -0.27 +0.01    +0.049 A 
DOCKED: ATOM     26  C   UNL d   1      21.072   4.759  -5.046 -0.41 -0.00    -0.018 A 
DOCKED: ATOM     27  C   UNL d   1      21.660   5.571  -4.028 -0.40 +0.00    +0.003 A 
DOCKED: ATOM     28  C   UNL d   1      23.750   7.066  -4.010 -0.31 +0.01    +0.052 C 
DOCKED: ATOM     29  C   UNL d   1      26.869  10.921  -4.629 -0.36 +0.00    +0.046 C 
DOCKED: ATOM     30  C   UNL d   1      19.908   3.839  -4.888 -0.51 +0.01    +0.046 C 
DOCKED: ATOM     31  H   UNL d   1      23.638   8.289  -6.575 +0.09 +0.05    +0.166 HD
DOCKED: ATOM     32  H   UNL d   1      23.447   6.245  -6.594 +0.10 +0.05    +0.166 HD
DOCKED: ENDROOT
DOCKED: BRANCH   7  33
DOCKED: ATOM     33  C   UNL d   1      20.331   3.957 -10.304 -0.06 +0.04    +0.141 C 
DOCKED: BRANCH  33  34
DOCKED: ATOM     34  C   UNL d   1      19.558   4.963 -11.113 -0.09 +0.08    +0.306 C 
DOCKED: ATOM     35  O   UNL d   1      18.974   5.941 -10.679 -0.09 -0.07    -0.251 OA
DOCKED: BRANCH  34  36
DOCKED: ATOM     36  O   UNL d   1      19.563   4.684 -12.429 -0.02 -0.11    -0.481 OA
DOCKED: ATOM     37  H   UNL d   1      20.444   4.982 -12.741 +0.04 +0.07    +0.295 HD
DOCKED: ENDBRANCH  34  36
DOCKED: ENDBRANCH  33  34
DOCKED: ENDBRANCH   7  33
DOCKED: BRANCH  27  38
DOCKED: ATOM     38  C   UNL d   1      21.232   5.623  -2.663 -0.37 +0.00    +0.017 C 
DOCKED: ATOM     39  C   UNL d   1      21.727   4.871  -1.667 -0.40 +0.01    +0.092 C 
DOCKED: BRANCH  39  40
DOCKED: ATOM     40  C   UNL d   1      21.212   5.033  -0.305 -0.28 +0.02    +0.330 C 
DOCKED: ATOM     41  O   UNL d   1      20.583   4.227   0.353 -0.36 -0.01    -0.246 OA
DOCKED: BRANCH  40  42
DOCKED: ATOM     42  O   UNL d   1      21.540   6.245   0.171 -0.13 -0.01    -0.477 OA
DOCKED: ATOM     43  H   UNL d   1      22.496   6.323  -0.025 +0.19 +0.01    +0.295 HD
DOCKED: ENDBRANCH  40  42
DOCKED: ENDBRANCH  39  40
DOCKED: ENDBRANCH  27  38
DOCKED: BRANCH   8  44
DOCKED: ATOM     44  C   UNL d   1      24.585  10.262 -11.954 -0.08 +0.12    +0.141 C 
DOCKED: BRANCH  44  45
DOCKED: ATOM     45  C   UNL d   1      25.747  11.219 -11.980 -0.06 +0.21    +0.306 C 
DOCKED: ATOM     46  O   UNL d   1      25.786  12.299 -12.542 -0.02 -0.10    -0.251 OA
DOCKED: BRANCH  45  47
DOCKED: ATOM     47  O   UNL d   1      26.817  10.747 -11.314 -0.28 -0.53    -0.481 OA
DOCKED: ATOM     48  H   UNL d   1      26.791  11.206 -10.447 +0.04 +0.23    +0.295 HD
DOCKED: ENDBRANCH  45  47
DOCKED: ENDBRANCH  44  45
DOCKED: ENDBRANCH   8  44
DOCKED: BRANCH  22  49
DOCKED: ATOM     49  C   UNL d   1      25.886   8.723  -2.530 -0.37 +0.01    +0.048 C 
DOCKED: BRANCH  49  50
DOCKED: ATOM     50  C   UNL d   1      24.829   9.169  -1.520 -0.41 +0.01    +0.125 C 
DOCKED: BRANCH  50  51
DOCKED: ATOM     51  C   UNL d   1      24.039   7.995  -1.016 -0.26 +0.01    +0.305 C 
DOCKED: ATOM     52  O   UNL d   1      24.416   6.843  -0.893 -0.24 -0.01    -0.251 OA
DOCKED: BRANCH  51  53
DOCKED: ATOM     53  O   UNL d   1      22.775   8.338  -0.696 -0.13 +0.03    -0.481 OA
DOCKED: ATOM     54  H   UNL d   1      22.221   7.765  -1.267 -0.08 -0.06    +0.295 HD
DOCKED: ENDBRANCH  51  53
DOCKED: ENDBRANCH  50  51
DOCKED: ENDBRANCH  49  50
DOCKED: ENDBRANCH  22  49
DOCKED: TORSDOF 13
DOCKED: TER
DOCKED: ENDMDL
________________________________________________________________________________


	BEGINNING GENETIC ALGORITHM DOCKING 70 of 100
Run: 70 Seed: 1704717461 1273542703 [ Run 70 of 100 GA/GALS ]
Beginning LAMARCKIAN GENETIC ALGORITHM (LGA), with a maximum of 25000000 energy evaluations.

Final-Value: -11.255


	FINAL GENETIC ALGORITHM DOCKED STATE
	_______________________________________________


Detailed state:  trans 43.507 15.980 5.805 quatxyzw 0.199228 -0.554917 0.358926 -0.723565 center 0.153 0.018 -0.028 ntor 13 -39.3412 128.3279 -111.8573 54.0448 15.7013 111.2225 119.3222 70.6367 -141.3257 -36.8114 -81.8892 -109.1194 3.8796
State:	 43.507  15.980   5.805   0.289 -0.804  0.520 -87.301    -39.34  128.33 -111.86   54.04   15.70  111.22  119.32   70.64 -141.33  -36.81  -81.89 -109.12    3.88

DOCKED: MODEL       70
DOCKED: USER    Run = 70
DOCKED: USER    DPF = D:/Protein_go_brrr/autodock/final/1A3N/heme/dock.dpf
DOCKED: USER  
DOCKED: USER    Estimated Free Energy of Binding    =   -3.27 kcal/mol  [=(1)+(2)+(3)-(4)]
DOCKED: USER    Estimated Inhibition Constant, Ki   =    4.01 mM (millimolar)  [Temperature = 298.15 K]
DOCKED: USER    
DOCKED: USER    (1) Final Intermolecular Energy     =   -7.15 kcal/mol
DOCKED: USER        vdW + Hbond + desolv Energy     =   -7.17 kcal/mol
DOCKED: USER        Electrostatic Energy            =   +0.02 kcal/mol
DOCKED: USER    (2) Final Total Internal Energy     =   -4.11 kcal/mol
DOCKED: USER    (3) Torsional Free Energy           =   +3.88 kcal/mol
DOCKED: USER    (4) Unbound System's Energy  [=(2)] =   -4.11 kcal/mol
DOCKED: USER    
DOCKED: USER    
DOCKED: USER    NEWDPF move heme_opt.pdbqt
DOCKED: USER    NEWDPF about 0.153000 0.018000 -0.028000
DOCKED: USER    NEWDPF tran0 43.506775 15.980175 5.804715
DOCKED: USER    NEWDPF quaternion0 0.199228 -0.554917 0.358926 -0.723565
DOCKED: USER    NEWDPF axisangle0 0.288629 -0.803930 0.519990 -87.300732
DOCKED: USER    NEWDPF quat0 0.288629 -0.803930 0.519990 -87.300732
DOCKED: USER    NEWDPF dihe0 -39.34 128.33 -111.86 54.04 15.70 111.22 119.32 70.64 -141.33 -36.81 -81.89 -109.12 3.88 
DOCKED: USER  keepresnum = 1 
DOCKED: USER  
DOCKED: REMARK  13 active torsions:
DOCKED: REMARK  status: ('A' for Active; 'I' for Inactive)
DOCKED: REMARK    1  A    between atoms: O_3  and  C_38 
DOCKED: REMARK    2  A    between atoms: O_4  and  C_40 
DOCKED: REMARK    3  A    between atoms: O_7  and  C_46 
DOCKED: REMARK    4  A    between atoms: O_9  and  C_48 
DOCKED: REMARK    5  A    between atoms: C_15  and  C_20 
DOCKED: REMARK    6  A    between atoms: C_16  and  C_23 
DOCKED: REMARK    7  A    between atoms: C_20  and  C_38 
DOCKED: REMARK    8  A    between atoms: C_23  and  C_40 
DOCKED: REMARK    9  A    between atoms: C_32  and  C_41 
DOCKED: REMARK   10  A    between atoms: C_37  and  C_45 
DOCKED: REMARK   11  A    between atoms: C_41  and  C_44 
DOCKED: REMARK   12  A    between atoms: C_44  and  C_46 
DOCKED: REMARK   13  A    between atoms: C_47  and  C_48 
DOCKED: USER                              x       y       z     vdW  Elec       q    Type
DOCKED: USER                           _______ _______ _______ _____ _____    ______ ____
DOCKED: ROOT
DOCKED: ATOM      1  O   UNL d   1      41.119  14.981   0.508 -0.08 +0.01    -0.289 OA
DOCKED: ATOM      2  O   UNL d   1      47.801  13.059   3.343 -0.02 +0.00    -0.289 OA
DOCKED: ATOM      3  N   UNL d   1      42.148  15.918   3.664 -0.06 -0.01    -0.247 NA
DOCKED: ATOM      4  N   UNL d   1      44.722  14.470   4.000 +0.01 +0.03    -0.247 NA
DOCKED: ATOM      5  N   UNL d   1      44.598  15.092   6.804 -0.11 +0.01    -0.354 N 
DOCKED: ATOM      6  N   UNL d   1      41.919  16.575   6.450 -0.10 +0.02    -0.354 N 
DOCKED: ATOM      7  C   UNL d   1      40.061  16.119   2.395 -0.18 +0.00    +0.084 A 
DOCKED: ATOM      8  C   UNL d   1      45.958  13.903   1.971 -0.08 -0.00    +0.084 A 
DOCKED: ATOM      9  C   UNL d   1      44.695  14.473   2.623 -0.10 -0.01    +0.058 A 
DOCKED: ATOM     10  C   UNL d   1      40.840  16.372   3.689 -0.16 +0.00    +0.058 A 
DOCKED: ATOM     11  C   UNL d   1      41.166  15.458   1.627 -0.10 -0.00    +0.193 A 
DOCKED: ATOM     12  C   UNL d   1      42.386  15.418   2.495 -0.12 -0.00    +0.109 A 
DOCKED: ATOM     13  C   UNL d   1      46.691  13.541   3.232 -0.06 -0.01    +0.193 A 
DOCKED: ATOM     14  C   UNL d   1      38.926  15.112   2.596 -0.45 -0.00    +0.026 C 
DOCKED: ATOM     15  C   UNL d   1      43.636  14.890   1.913 -0.15 -0.00    +0.055 C 
DOCKED: ATOM     16  C   UNL d   1      46.754  14.983   1.232 -0.02 -0.00    +0.026 C 
DOCKED: ATOM     17  C   UNL d   1      45.831  13.929   4.390 -0.12 -0.01    +0.109 A 
DOCKED: ATOM     18  C   UNL d   1      40.301  17.061   4.712 -0.31 +0.00    +0.050 C 
DOCKED: ATOM     19  C   UNL d   1      40.972  17.415   5.910 -0.25 +0.00    +0.045 A 
DOCKED: ATOM     20  C   UNL d   1      45.644  14.206   6.805 -0.21 -0.00    +0.045 A 
DOCKED: ATOM     21  C   UNL d   1      46.275  13.654   5.764 -0.21 -0.00    +0.057 C 
DOCKED: ATOM     22  C   UNL d   1      45.102  14.710   8.966 -0.21 +0.00    -0.019 A 
DOCKED: ATOM     23  C   UNL d   1      44.200  15.454   8.064 -0.26 -0.00    +0.045 A 
DOCKED: ATOM     24  C   UNL d   1      45.955  13.974   8.215 -0.19 +0.00    -0.022 A 
DOCKED: ATOM     25  C   UNL d   1      42.373  17.068   7.651 -0.22 -0.00    +0.049 A 
DOCKED: ATOM     26  C   UNL d   1      40.833  18.499   6.763 -0.20 -0.00    -0.018 A 
DOCKED: ATOM     27  C   UNL d   1      41.735  18.284   7.851 -0.24 +0.00    +0.003 A 
DOCKED: ATOM     28  C   UNL d   1      43.241  16.298   8.473 -0.24 -0.00    +0.052 C 
DOCKED: ATOM     29  C   UNL d   1      47.052  13.071   8.665 -0.14 -0.00    +0.046 C 
DOCKED: ATOM     30  C   UNL d   1      39.922  19.665   6.581 -0.17 +0.02    +0.046 C 
DOCKED: ATOM     31  H   UNL d   1      44.237  15.479   5.939 +0.05 -0.00    +0.166 HD
DOCKED: ATOM     32  H   UNL d   1      42.198  15.699   6.025 +0.05 +0.01    +0.166 HD
DOCKED: ENDROOT
DOCKED: BRANCH   7  33
DOCKED: ATOM     33  C   UNL d   1      39.575  17.375   1.664 -0.12 +0.00    +0.141 C 
DOCKED: BRANCH  33  34
DOCKED: ATOM     34  C   UNL d   1      38.172  17.761   2.046 -0.18 +0.01    +0.306 C 
DOCKED: ATOM     35  O   UNL d   1      37.815  18.208   3.123 -0.26 -0.02    -0.251 OA
DOCKED: BRANCH  34  36
DOCKED: ATOM     36  O   UNL d   1      37.291  17.567   1.048 -0.11 -0.00    -0.481 OA
DOCKED: ATOM     37  H   UNL d   1      36.503  17.181   1.486 -0.13 -0.04    +0.295 HD
DOCKED: ENDBRANCH  34  36
DOCKED: ENDBRANCH  33  34
DOCKED: ENDBRANCH   7  33
DOCKED: BRANCH  27  38
DOCKED: ATOM     38  C   UNL d   1      41.901  19.160   8.971 -0.24 +0.00    +0.017 C 
DOCKED: ATOM     39  C   UNL d   1      41.473  18.913  10.218 -0.29 +0.01    +0.092 C 
DOCKED: BRANCH  39  40
DOCKED: ATOM     40  C   UNL d   1      41.722  19.888  11.283 -0.13 +0.03    +0.330 C 
DOCKED: ATOM     41  O   UNL d   1      40.912  20.604  11.840 -0.17 -0.03    -0.246 OA
DOCKED: BRANCH  40  42
DOCKED: ATOM     42  O   UNL d   1      43.025  19.900  11.602 -0.01 -0.03    -0.477 OA
DOCKED: ATOM     43  H   UNL d   1      43.235  18.958  11.767 +0.07 +0.01    +0.295 HD
DOCKED: ENDBRANCH  40  42
DOCKED: ENDBRANCH  39  40
DOCKED: ENDBRANCH  27  38
DOCKED: BRANCH   8  44
DOCKED: ATOM     44  C   UNL d   1      45.746  12.669   1.087 -0.14 +0.00    +0.141 C 
DOCKED: BRANCH  44  45
DOCKED: ATOM     45  C   UNL d   1      45.776  11.375   1.855 -0.17 -0.00    +0.306 C 
DOCKED: ATOM     46  O   UNL d   1      44.897  10.938   2.578 -0.33 +0.04    -0.251 OA
DOCKED: BRANCH  45  47
DOCKED: ATOM     47  O   UNL d   1      46.932  10.707   1.694 -0.02 -0.01    -0.481 OA
DOCKED: ATOM     48  H   UNL d   1      47.606  11.268   2.135 +0.07 +0.01    +0.295 HD
DOCKED: ENDBRANCH  45  47
DOCKED: ENDBRANCH  44  45
DOCKED: ENDBRANCH   8  44
DOCKED: BRANCH  22  49
DOCKED: ATOM     49  C   UNL d   1      45.036  14.775  10.464 -0.18 -0.00    +0.048 C 
DOCKED: BRANCH  49  50
DOCKED: ATOM     50  C   UNL d   1      45.708  16.036  11.009 -0.07 -0.00    +0.125 C 
DOCKED: BRANCH  50  51
DOCKED: ATOM     51  C   UNL d   1      44.689  17.094  11.321 -0.05 +0.00    +0.305 C 
DOCKED: ATOM     52  O   UNL d   1      43.806  17.052  12.160 -0.10 -0.01    -0.251 OA
DOCKED: BRANCH  51  53
DOCKED: ATOM     53  O   UNL d   1      44.829  18.178  10.531 -0.00 -0.01    -0.481 OA
DOCKED: ATOM     54  H   UNL d   1      44.896  18.925  11.162 +0.03 +0.01    +0.295 HD
DOCKED: ENDBRANCH  51  53
DOCKED: ENDBRANCH  50  51
DOCKED: ENDBRANCH  49  50
DOCKED: ENDBRANCH  22  49
DOCKED: TORSDOF 13
DOCKED: TER
DOCKED: ENDMDL
________________________________________________________________________________


	BEGINNING GENETIC ALGORITHM DOCKING 71 of 100
Run: 71 Seed: 530279354 468689562 [ Run 71 of 100 GA/GALS ]
Beginning LAMARCKIAN GENETIC ALGORITHM (LGA), with a maximum of 25000000 energy evaluations.

Final-Value: -10.215


	FINAL GENETIC ALGORITHM DOCKED STATE
	_______________________________________________


Detailed state:  trans 17.926 -22.140 15.061 quatxyzw -0.905067 -0.052381 0.254105 -0.336958 center 0.153 0.018 -0.028 ntor 13 -101.1406 76.4756 -109.4551 65.2730 35.0087 166.1567 175.5281 114.2865 128.7868 16.7902 -30.5355 -149.3702 -172.9078
State:	 17.926 -22.140  15.061  -0.961 -0.056  0.270 -140.617   -101.14   76.48 -109.46   65.27   35.01  166.16  175.53  114.29  128.79   16.79  -30.54 -149.37 -172.91

DOCKED: MODEL       71
DOCKED: USER    Run = 71
DOCKED: USER    DPF = D:/Protein_go_brrr/autodock/final/1A3N/heme/dock.dpf
DOCKED: USER  
DOCKED: USER    Estimated Free Energy of Binding    =   -4.23 kcal/mol  [=(1)+(2)+(3)-(4)]
DOCKED: USER    Estimated Inhibition Constant, Ki   =  793.81 uM (micromolar)  [Temperature = 298.15 K]
DOCKED: USER    
DOCKED: USER    (1) Final Intermolecular Energy     =   -8.11 kcal/mol
DOCKED: USER        vdW + Hbond + desolv Energy     =   -7.66 kcal/mol
DOCKED: USER        Electrostatic Energy            =   -0.45 kcal/mol
DOCKED: USER    (2) Final Total Internal Energy     =   -2.11 kcal/mol
DOCKED: USER    (3) Torsional Free Energy           =   +3.88 kcal/mol
DOCKED: USER    (4) Unbound System's Energy  [=(2)] =   -2.11 kcal/mol
DOCKED: USER    
DOCKED: USER    
DOCKED: USER    NEWDPF move heme_opt.pdbqt
DOCKED: USER    NEWDPF about 0.153000 0.018000 -0.028000
DOCKED: USER    NEWDPF tran0 17.925668 -22.140123 15.061279
DOCKED: USER    NEWDPF quaternion0 -0.905067 -0.052381 0.254105 -0.336958
DOCKED: USER    NEWDPF axisangle0 -0.961283 -0.055634 0.269889 -140.616668
DOCKED: USER    NEWDPF quat0 -0.961283 -0.055634 0.269889 -140.616668
DOCKED: USER    NEWDPF dihe0 -101.14 76.48 -109.46 65.27 35.01 166.16 175.53 114.29 128.79 16.79 -30.54 -149.37 -172.91 
DOCKED: USER  keepresnum = 1 
DOCKED: USER  
DOCKED: REMARK  13 active torsions:
DOCKED: REMARK  status: ('A' for Active; 'I' for Inactive)
DOCKED: REMARK    1  A    between atoms: O_3  and  C_38 
DOCKED: REMARK    2  A    between atoms: O_4  and  C_40 
DOCKED: REMARK    3  A    between atoms: O_7  and  C_46 
DOCKED: REMARK    4  A    between atoms: O_9  and  C_48 
DOCKED: REMARK    5  A    between atoms: C_15  and  C_20 
DOCKED: REMARK    6  A    between atoms: C_16  and  C_23 
DOCKED: REMARK    7  A    between atoms: C_20  and  C_38 
DOCKED: REMARK    8  A    between atoms: C_23  and  C_40 
DOCKED: REMARK    9  A    between atoms: C_32  and  C_41 
DOCKED: REMARK   10  A    between atoms: C_37  and  C_45 
DOCKED: REMARK   11  A    between atoms: C_41  and  C_44 
DOCKED: REMARK   12  A    between atoms: C_44  and  C_46 
DOCKED: REMARK   13  A    between atoms: C_47  and  C_48 
DOCKED: USER                              x       y       z     vdW  Elec       q    Type
DOCKED: USER                           _______ _______ _______ _____ _____    ______ ____
DOCKED: ROOT
DOCKED: ATOM      1  O   UNL d   1      12.620 -24.551  15.952 +0.00 -0.04    -0.289 OA
DOCKED: ATOM      2  O   UNL d   1      16.779 -20.049  20.291 -0.72 -0.19    -0.289 OA
DOCKED: ATOM      3  N   UNL d   1      15.774 -23.483  15.054 -0.00 -0.01    -0.247 NA
DOCKED: ATOM      4  N   UNL d   1      16.478 -21.551  17.199 -0.07 -0.04    -0.247 NA
DOCKED: ATOM      5  N   UNL d   1      18.654 -20.653  15.548 -0.07 +0.01    -0.354 N 
DOCKED: ATOM      6  N   UNL d   1      17.905 -22.647  13.320 -0.02 +0.03    -0.354 N 
DOCKED: ATOM      7  C   UNL d   1      13.998 -24.755  13.943 -0.00 +0.01    +0.084 A 
DOCKED: ATOM      8  C   UNL d   1      15.404 -21.854  19.373 -0.19 +0.02    +0.084 A 
DOCKED: ATOM      9  C   UNL d   1      15.535 -22.267  17.903 -0.09 +0.01    +0.058 A 
DOCKED: ATOM     10  C   UNL d   1      15.395 -24.131  13.890 -0.01 +0.00    +0.058 A 
DOCKED: ATOM     11  C   UNL d   1      13.661 -24.361  15.350 +0.00 +0.02    +0.193 A 
DOCKED: ATOM     12  C   UNL d   1      14.827 -23.618  15.924 -0.01 +0.01    +0.109 A 
DOCKED: ATOM     13  C   UNL d   1      16.420 -20.747  19.363 -0.30 +0.08    +0.193 A 
DOCKED: ATOM     14  C   UNL d   1      13.022 -24.062  12.988 -0.00 +0.00    +0.026 C 
DOCKED: ATOM     15  C   UNL d   1      14.761 -23.208  17.341 -0.04 +0.01    +0.055 C 
DOCKED: ATOM     16  C   UNL d   1      15.888 -22.959  20.317 -0.26 +0.00    +0.026 C 
DOCKED: ATOM     17  C   UNL d   1      16.992 -20.661  17.985 -0.23 +0.03    +0.109 A 
DOCKED: ATOM     18  C   UNL d   1      16.198 -24.294  12.821 -0.03 -0.00    +0.050 C 
DOCKED: ATOM     19  C   UNL d   1      17.533 -23.827  12.717 -0.05 -0.00    +0.045 A 
DOCKED: ATOM     20  C   UNL d   1      18.685 -19.690  16.523 -0.25 +0.00    +0.045 A 
DOCKED: ATOM     21  C   UNL d   1      17.989 -19.629  17.663 -0.36 +0.02    +0.057 C 
DOCKED: ATOM     22  C   UNL d   1      20.154 -19.115  14.871 -0.26 -0.00    -0.019 A 
DOCKED: ATOM     23  C   UNL d   1      19.507 -20.392  14.509 -0.21 -0.00    +0.045 A 
DOCKED: ATOM     24  C   UNL d   1      19.664 -18.705  16.065 -0.26 -0.00    -0.022 A 
DOCKED: ATOM     25  C   UNL d   1      19.211 -22.340  13.016 -0.16 -0.01    +0.049 A 
DOCKED: ATOM     26  C   UNL d   1      18.635 -24.318  12.034 -0.07 +0.00    -0.018 A 
DOCKED: ATOM     27  C   UNL d   1      19.697 -23.385  12.243 -0.16 -0.00    +0.003 A 
DOCKED: ATOM     28  C   UNL d   1      19.773 -21.090  13.395 -0.23 -0.01    +0.052 C 
DOCKED: ATOM     29  C   UNL d   1      20.015 -17.486  16.849 -0.16 +0.01    +0.046 C 
DOCKED: ATOM     30  C   UNL d   1      18.701 -25.577  11.238 -0.04 -0.01    +0.046 C 
DOCKED: ATOM     31  H   UNL d   1      18.102 -21.497  15.659 +0.06 -0.01    +0.166 HD
DOCKED: ATOM     32  H   UNL d   1      17.276 -22.077  13.873 +0.04 -0.00    +0.166 HD
DOCKED: ENDROOT
DOCKED: BRANCH   7  33
DOCKED: ATOM     33  C   UNL d   1      13.952 -26.279  13.786 -0.00 +0.01    +0.141 C 
DOCKED: BRANCH  33  34
DOCKED: ATOM     34  C   UNL d   1      12.562 -26.835  13.932 +0.00 +0.02    +0.306 C 
DOCKED: ATOM     35  O   UNL d   1      11.748 -26.984  13.036 +0.00 -0.02    -0.251 OA
DOCKED: BRANCH  34  36
DOCKED: ATOM     36  O   UNL d   1      12.271 -27.176  15.200 +0.00 -0.03    -0.481 OA
DOCKED: ATOM     37  H   UNL d   1      12.098 -26.323  15.652 +0.00 +0.02    +0.295 HD
DOCKED: ENDBRANCH  34  36
DOCKED: ENDBRANCH  33  34
DOCKED: ENDBRANCH   7  33
DOCKED: BRANCH  27  38
DOCKED: ATOM     38  C   UNL d   1      21.016 -23.501  11.698 -0.24 -0.01    +0.017 C 
DOCKED: ATOM     39  C   UNL d   1      21.327 -23.409  10.396 -0.25 -0.02    +0.092 C 
DOCKED: BRANCH  39  40
DOCKED: ATOM     40  C   UNL d   1      22.723 -23.529   9.968 -0.05 -0.09    +0.330 C 
DOCKED: ATOM     41  O   UNL d   1      23.142 -23.734   8.845 -0.26 +0.05    -0.246 OA
DOCKED: BRANCH  40  42
DOCKED: ATOM     42  O   UNL d   1      23.543 -23.369  11.019 -0.14 +0.13    -0.477 OA
DOCKED: ATOM     43  H   UNL d   1      23.892 -22.460  10.907 -0.28 -0.14    +0.295 HD
DOCKED: ENDBRANCH  40  42
DOCKED: ENDBRANCH  39  40
DOCKED: ENDBRANCH  27  38
DOCKED: BRANCH   8  44
DOCKED: ATOM     44  C   UNL d   1      14.026 -21.331  19.792 -0.16 +0.07    +0.141 C 
DOCKED: BRANCH  44  45
DOCKED: ATOM     45  C   UNL d   1      13.314 -20.587  18.693 -0.07 +0.31    +0.306 C 
DOCKED: ATOM     46  O   UNL d   1      12.162 -20.752  18.333 -0.42 -0.26    -0.251 OA
DOCKED: BRANCH  45  47
DOCKED: ATOM     47  O   UNL d   1      14.107 -19.686  18.085 -0.23 -0.61    -0.481 OA
DOCKED: ATOM     48  H   UNL d   1      14.756 -20.225  17.585 +0.07 +0.21    +0.295 HD
DOCKED: ENDBRANCH  45  47
DOCKED: ENDBRANCH  44  45
DOCKED: ENDBRANCH   8  44
DOCKED: BRANCH  22  49
DOCKED: ATOM     49  C   UNL d   1      21.170 -18.414  14.019 -0.38 +0.01    +0.048 C 
DOCKED: BRANCH  49  50
DOCKED: ATOM     50  C   UNL d   1      20.569 -17.213  13.289 -0.22 +0.03    +0.125 C 
DOCKED: BRANCH  50  51
DOCKED: ATOM     51  C   UNL d   1      21.606 -16.152  13.055 -0.31 +0.06    +0.305 C 
DOCKED: ATOM     52  O   UNL d   1      22.126 -15.841  11.998 -0.35 -0.07    -0.251 OA
DOCKED: BRANCH  51  53
DOCKED: ATOM     53  O   UNL d   1      21.955 -15.528  14.198 -0.17 -0.03    -0.481 OA
DOCKED: ATOM     54  H   UNL d   1      21.653 -14.605  14.067 -0.06 -0.03    +0.295 HD
DOCKED: ENDBRANCH  51  53
DOCKED: ENDBRANCH  50  51
DOCKED: ENDBRANCH  49  50
DOCKED: ENDBRANCH  22  49
DOCKED: TORSDOF 13
DOCKED: TER
DOCKED: ENDMDL
________________________________________________________________________________


	BEGINNING GENETIC ALGORITHM DOCKING 72 of 100
Run: 72 Seed: 428964908 1767649870 [ Run 72 of 100 GA/GALS ]
Beginning LAMARCKIAN GENETIC ALGORITHM (LGA), with a maximum of 25000000 energy evaluations.

Final-Value: -16.004


	FINAL GENETIC ALGORITHM DOCKED STATE
	_______________________________________________


Detailed state:  trans 7.605 12.325 29.564 quatxyzw 0.294697 -0.705393 0.006166 0.644620 center 0.153 0.018 -0.028 ntor 13 -90.8585 -180.0000 -164.3542 56.2970 39.3761 86.5894 -33.3326 97.3250 139.2866 -34.3635 -43.8876 -143.5940 14.8439
State:	  7.605  12.325  29.564   0.385 -0.923  0.008 99.726    -90.86 -180.00 -164.35   56.30   39.38   86.59  -33.33   97.33  139.29  -34.36  -43.89 -143.59   14.84

DOCKED: MODEL       72
DOCKED: USER    Run = 72
DOCKED: USER    DPF = D:/Protein_go_brrr/autodock/final/1A3N/heme/dock.dpf
DOCKED: USER  
DOCKED: USER    Estimated Free Energy of Binding    =   -9.04 kcal/mol  [=(1)+(2)+(3)-(4)]
DOCKED: USER    Estimated Inhibition Constant, Ki   =  238.22 nM (nanomolar)  [Temperature = 298.15 K]
DOCKED: USER    
DOCKED: USER    (1) Final Intermolecular Energy     =  -12.91 kcal/mol
DOCKED: USER        vdW + Hbond + desolv Energy     =  -12.66 kcal/mol
DOCKED: USER        Electrostatic Energy            =   -0.26 kcal/mol
DOCKED: USER    (2) Final Total Internal Energy     =   -3.09 kcal/mol
DOCKED: USER    (3) Torsional Free Energy           =   +3.88 kcal/mol
DOCKED: USER    (4) Unbound System's Energy  [=(2)] =   -3.09 kcal/mol
DOCKED: USER    
DOCKED: USER    
DOCKED: USER    NEWDPF move heme_opt.pdbqt
DOCKED: USER    NEWDPF about 0.153000 0.018000 -0.028000
DOCKED: USER    NEWDPF tran0 7.605167 12.324727 29.564290
DOCKED: USER    NEWDPF quaternion0 0.294697 -0.705393 0.006166 0.644620
DOCKED: USER    NEWDPF axisangle0 0.385476 -0.922683 0.008065 99.725558
DOCKED: USER    NEWDPF quat0 0.385476 -0.922683 0.008065 99.725558
DOCKED: USER    NEWDPF dihe0 -90.86 -180.00 -164.35 56.30 39.38 86.59 -33.33 97.33 139.29 -34.36 -43.89 -143.59 14.84 
DOCKED: USER  keepresnum = 1 
DOCKED: USER  
DOCKED: REMARK  13 active torsions:
DOCKED: REMARK  status: ('A' for Active; 'I' for Inactive)
DOCKED: REMARK    1  A    between atoms: O_3  and  C_38 
DOCKED: REMARK    2  A    between atoms: O_4  and  C_40 
DOCKED: REMARK    3  A    between atoms: O_7  and  C_46 
DOCKED: REMARK    4  A    between atoms: O_9  and  C_48 
DOCKED: REMARK    5  A    between atoms: C_15  and  C_20 
DOCKED: REMARK    6  A    between atoms: C_16  and  C_23 
DOCKED: REMARK    7  A    between atoms: C_20  and  C_38 
DOCKED: REMARK    8  A    between atoms: C_23  and  C_40 
DOCKED: REMARK    9  A    between atoms: C_32  and  C_41 
DOCKED: REMARK   10  A    between atoms: C_37  and  C_45 
DOCKED: REMARK   11  A    between atoms: C_41  and  C_44 
DOCKED: REMARK   12  A    between atoms: C_44  and  C_46 
DOCKED: REMARK   13  A    between atoms: C_47  and  C_48 
DOCKED: USER                              x       y       z     vdW  Elec       q    Type
DOCKED: USER                           _______ _______ _______ _____ _____    ______ ____
DOCKED: ROOT
DOCKED: ATOM      1  O   UNL d   1       7.481  16.338  33.881 -0.28 -0.29    -0.289 OA
DOCKED: ATOM      2  O   UNL d   1       8.127   8.860  34.121 -0.49 -0.13    -0.289 OA
DOCKED: ATOM      3  N   UNL d   1       7.367  14.362  31.057 -0.18 -0.09    -0.247 NA
DOCKED: ATOM      4  N   UNL d   1       8.002  11.651  32.094 -0.14 -0.10    -0.247 NA
DOCKED: ATOM      5  N   UNL d   1       8.401  10.805  29.375 -0.18 -0.08    -0.354 N 
DOCKED: ATOM      6  N   UNL d   1       7.760  13.625  28.309 -0.14 -0.05    -0.354 N 
DOCKED: ATOM      7  C   UNL d   1       7.398  16.776  31.477 -0.22 +0.03    +0.084 A 
DOCKED: ATOM      8  C   UNL d   1       7.475  11.198  34.437 -0.26 +0.05    +0.084 A 
DOCKED: ATOM      9  C   UNL d   1       7.556  12.197  33.277 -0.24 +0.03    +0.058 A 
DOCKED: ATOM     10  C   UNL d   1       7.361  15.619  30.475 -0.30 +0.02    +0.058 A 
DOCKED: ATOM     11  C   UNL d   1       7.407  15.951  32.729 -0.16 +0.13    +0.193 A 
DOCKED: ATOM     12  C   UNL d   1       7.360  14.505  32.342 -0.23 +0.07    +0.109 A 
DOCKED: ATOM     13  C   UNL d   1       7.992   9.994  33.703 -0.29 +0.09    +0.193 A 
DOCKED: ATOM     14  C   UNL d   1       8.706  17.566  31.395 +0.18 +0.01    +0.026 C 
DOCKED: ATOM     15  C   UNL d   1       7.268  13.499  33.419 -0.27 +0.05    +0.055 C 
DOCKED: ATOM     16  C   UNL d   1       6.026  10.934  34.858 -0.26 +0.02    +0.026 C 
DOCKED: ATOM     17  C   UNL d   1       8.282  10.403  32.295 -0.32 +0.04    +0.109 A 
DOCKED: ATOM     18  C   UNL d   1       7.241  15.837  29.152 -0.37 +0.01    +0.050 C 
DOCKED: ATOM     19  C   UNL d   1       7.115  14.832  28.160 -0.39 +0.01    +0.045 A 
DOCKED: ATOM     20  C   UNL d   1       8.881   9.704  30.037 -0.38 +0.01    +0.045 A 
DOCKED: ATOM     21  C   UNL d   1       8.846   9.432  31.346 -0.37 +0.02    +0.057 C 
DOCKED: ATOM     22  C   UNL d   1       9.300   9.464  27.805 -0.42 -0.00    -0.019 A 
DOCKED: ATOM     23  C   UNL d   1       8.609  10.750  28.023 -0.32 +0.01    +0.045 A 
DOCKED: ATOM     24  C   UNL d   1       9.457   8.849  29.001 -0.42 -0.00    -0.022 A 
DOCKED: ATOM     25  C   UNL d   1       7.576  12.838  27.195 -0.26 +0.00    +0.049 A 
DOCKED: ATOM     26  C   UNL d   1       6.465  14.815  26.936 -0.43 -0.00    -0.018 A 
DOCKED: ATOM     27  C   UNL d   1       6.743  13.546  26.340 -0.39 +0.00    +0.003 A 
DOCKED: ATOM     28  C   UNL d   1       8.274  11.609  27.048 -0.07 +0.00    +0.052 C 
DOCKED: ATOM     29  C   UNL d   1      10.085   7.529  29.296 -0.36 +0.01    +0.046 C 
DOCKED: ATOM     30  C   UNL d   1       5.634  15.908  26.354 -0.38 +0.00    +0.046 C 
DOCKED: ATOM     31  H   UNL d   1       7.879  11.525  29.862 +0.09 +0.04    +0.166 HD
DOCKED: ATOM     32  H   UNL d   1       8.322  13.386  29.117 +0.07 +0.03    +0.166 HD
DOCKED: ENDROOT
DOCKED: BRANCH   7  33
DOCKED: ATOM     33  C   UNL d   1       6.178  17.704  31.454 -0.23 +0.05    +0.141 C 
DOCKED: BRANCH  33  34
DOCKED: ATOM     34  C   UNL d   1       6.350  18.909  32.339 -0.11 +0.10    +0.306 C 
DOCKED: ATOM     35  O   UNL d   1       6.769  20.001  31.995 -0.07 -0.05    -0.251 OA
DOCKED: BRANCH  34  36
DOCKED: ATOM     36  O   UNL d   1       5.983  18.674  33.612 -0.07 -0.28    -0.481 OA
DOCKED: ATOM     37  H   UNL d   1       6.786  18.302  34.035 +0.05 +0.19    +0.295 HD
DOCKED: ENDBRANCH  34  36
DOCKED: ENDBRANCH  33  34
DOCKED: ENDBRANCH   7  33
DOCKED: BRANCH  27  38
DOCKED: ATOM     38  C   UNL d   1       6.275  13.117  25.057 -0.41 +0.00    +0.017 C 
DOCKED: ATOM     39  C   UNL d   1       6.733  13.563  23.877 -0.38 +0.01    +0.092 C 
DOCKED: BRANCH  39  40
DOCKED: ATOM     40  C   UNL d   1       6.179  13.028  22.630 -0.24 +0.01    +0.330 C 
DOCKED: ATOM     41  O   UNL d   1       5.175  13.390  22.046 -0.33 -0.01    -0.246 OA
DOCKED: BRANCH  40  42
DOCKED: ATOM     42  O   UNL d   1       6.956  12.037  22.167 -0.13 -0.01    -0.477 OA
DOCKED: ATOM     43  H   UNL d   1       7.677  11.977  22.827 +0.21 +0.01    +0.295 HD
DOCKED: ENDBRANCH  40  42
DOCKED: ENDBRANCH  39  40
DOCKED: ENDBRANCH  27  38
DOCKED: BRANCH   8  44
DOCKED: ATOM     44  C   UNL d   1       8.354  11.521  35.650 -0.16 +0.10    +0.141 C 
DOCKED: BRANCH  44  45
DOCKED: ATOM     45  C   UNL d   1       9.772  11.039  35.501 -0.14 +0.29    +0.306 C 
DOCKED: ATOM     46  O   UNL d   1      10.168   9.894  35.634 -0.36 -0.24    -0.251 OA
DOCKED: BRANCH  45  47
DOCKED: ATOM     47  O   UNL d   1      10.628  12.037  35.216 -0.58 -0.67    -0.481 OA
DOCKED: ATOM     48  H   UNL d   1      10.129  12.857  35.418 +0.09 +0.29    +0.295 HD
DOCKED: ENDBRANCH  45  47
DOCKED: ENDBRANCH  44  45
DOCKED: ENDBRANCH   8  44
DOCKED: BRANCH  22  49
DOCKED: ATOM     49  C   UNL d   1       9.752   8.968  26.463 -0.37 +0.01    +0.048 C 
DOCKED: BRANCH  49  50
DOCKED: ATOM     50  C   UNL d   1       8.571   8.609  25.561 -0.41 +0.01    +0.125 C 
DOCKED: BRANCH  50  51
DOCKED: ATOM     51  C   UNL d   1       8.792   9.111  24.163 -0.35 +0.02    +0.305 C 
DOCKED: ATOM     52  O   UNL d   1       9.314   8.519  23.235 -0.52 -0.02    -0.251 OA
DOCKED: BRANCH  51  53
DOCKED: ATOM     53  O   UNL d   1       8.343  10.372  24.002 -0.14 -0.03    -0.481 OA
DOCKED: ATOM     54  H   UNL d   1       7.715  10.307  23.253 +0.21 +0.02    +0.295 HD
DOCKED: ENDBRANCH  51  53
DOCKED: ENDBRANCH  50  51
DOCKED: ENDBRANCH  49  50
DOCKED: ENDBRANCH  22  49
DOCKED: TORSDOF 13
DOCKED: TER
DOCKED: ENDMDL
________________________________________________________________________________


	BEGINNING GENETIC ALGORITHM DOCKING 73 of 100
Run: 73 Seed: 1774821908 1283644953 [ Run 73 of 100 GA/GALS ]
Beginning LAMARCKIAN GENETIC ALGORITHM (LGA), with a maximum of 25000000 energy evaluations.

Final-Value: -12.634


	FINAL GENETIC ALGORITHM DOCKED STATE
	_______________________________________________


Detailed state:  trans 18.083 12.805 11.488 quatxyzw -0.003359 -0.374181 0.213225 -0.902503 center 0.153 0.018 -0.028 ntor 13 6.8572 -103.6232 -131.8367 53.8723 -162.0364 176.8936 123.0994 62.6230 -5.7293 -48.6983 -130.6857 -117.5493 128.0132
State:	 18.083  12.805  11.488  -0.008 -0.869  0.495 -51.022      6.86 -103.62 -131.84   53.87 -162.04  176.89  123.10   62.62   -5.73  -48.70 -130.69 -117.55  128.01

DOCKED: MODEL       73
DOCKED: USER    Run = 73
DOCKED: USER    DPF = D:/Protein_go_brrr/autodock/final/1A3N/heme/dock.dpf
DOCKED: USER  
DOCKED: USER    Estimated Free Energy of Binding    =   -6.87 kcal/mol  [=(1)+(2)+(3)-(4)]
DOCKED: USER    Estimated Inhibition Constant, Ki   =    9.16 uM (micromolar)  [Temperature = 298.15 K]
DOCKED: USER    
DOCKED: USER    (1) Final Intermolecular Energy     =  -10.75 kcal/mol
DOCKED: USER        vdW + Hbond + desolv Energy     =  -10.09 kcal/mol
DOCKED: USER        Electrostatic Energy            =   -0.66 kcal/mol
DOCKED: USER    (2) Final Total Internal Energy     =   -1.88 kcal/mol
DOCKED: USER    (3) Torsional Free Energy           =   +3.88 kcal/mol
DOCKED: USER    (4) Unbound System's Energy  [=(2)] =   -1.88 kcal/mol
DOCKED: USER    
DOCKED: USER    
DOCKED: USER    NEWDPF move heme_opt.pdbqt
DOCKED: USER    NEWDPF about 0.153000 0.018000 -0.028000
DOCKED: USER    NEWDPF tran0 18.083390 12.804555 11.488467
DOCKED: USER    NEWDPF quaternion0 -0.003359 -0.374181 0.213225 -0.902503
DOCKED: USER    NEWDPF axisangle0 -0.007798 -0.868809 0.495086 -51.021796
DOCKED: USER    NEWDPF quat0 -0.007798 -0.868809 0.495086 -51.021796
DOCKED: USER    NEWDPF dihe0 6.86 -103.62 -131.84 53.87 -162.04 176.89 123.10 62.62 -5.73 -48.70 -130.69 -117.55 128.01 
DOCKED: USER  keepresnum = 1 
DOCKED: USER  
DOCKED: REMARK  13 active torsions:
DOCKED: REMARK  status: ('A' for Active; 'I' for Inactive)
DOCKED: REMARK    1  A    between atoms: O_3  and  C_38 
DOCKED: REMARK    2  A    between atoms: O_4  and  C_40 
DOCKED: REMARK    3  A    between atoms: O_7  and  C_46 
DOCKED: REMARK    4  A    between atoms: O_9  and  C_48 
DOCKED: REMARK    5  A    between atoms: C_15  and  C_20 
DOCKED: REMARK    6  A    between atoms: C_16  and  C_23 
DOCKED: REMARK    7  A    between atoms: C_20  and  C_38 
DOCKED: REMARK    8  A    between atoms: C_23  and  C_40 
DOCKED: REMARK    9  A    between atoms: C_32  and  C_41 
DOCKED: REMARK   10  A    between atoms: C_37  and  C_45 
DOCKED: REMARK   11  A    between atoms: C_41  and  C_44 
DOCKED: REMARK   12  A    between atoms: C_44  and  C_46 
DOCKED: REMARK   13  A    between atoms: C_47  and  C_48 
DOCKED: USER                              x       y       z     vdW  Elec       q    Type
DOCKED: USER                           _______ _______ _______ _____ _____    ______ ____
DOCKED: ROOT
DOCKED: ATOM      1  O   UNL d   1      13.469  12.067   7.894 -0.11 -0.02    -0.289 OA
DOCKED: ATOM      2  O   UNL d   1      19.334   7.612   9.364 -0.26 -0.15    -0.289 OA
DOCKED: ATOM      3  N   UNL d   1      16.036  12.993  10.003 -0.12 -0.01    -0.247 NA
DOCKED: ATOM      4  N   UNL d   1      17.687  10.529  10.193 -0.13 -0.04    -0.247 NA
DOCKED: ATOM      5  N   UNL d   1      19.043  11.722  12.430 -0.05 -0.06    -0.354 N 
DOCKED: ATOM      6  N   UNL d   1      17.314  14.266  12.238 -0.09 -0.02    -0.354 N 
DOCKED: ATOM      7  C   UNL d   1      13.880  13.972   9.369 -0.10 +0.01    +0.084 A 
DOCKED: ATOM      8  C   UNL d   1      17.587   8.969   8.315 -0.39 +0.02    +0.084 A 
DOCKED: ATOM      9  C   UNL d   1      17.073  10.243   8.994 -0.30 +0.01    +0.058 A 
DOCKED: ATOM     10  C   UNL d   1      15.170  14.057  10.191 -0.16 +0.01    +0.058 A 
DOCKED: ATOM     11  C   UNL d   1      14.180  12.681   8.669 -0.09 +0.01    +0.193 A 
DOCKED: ATOM     12  C   UNL d   1      15.525  12.201   9.117 -0.19 +0.00    +0.109 A 
DOCKED: ATOM     13  C   UNL d   1      18.579   8.565   9.369 -0.24 +0.08    +0.193 A 
DOCKED: ATOM     14  C   UNL d   1      12.646  13.780  10.255 -0.18 +0.00    +0.026 C 
DOCKED: ATOM     15  C   UNL d   1      16.076  10.984   8.487 -0.21 -0.00    +0.055 C 
DOCKED: ATOM     16  C   UNL d   1      18.343   9.281   7.020 -0.62 +0.00    +0.026 C 
DOCKED: ATOM     17  C   UNL d   1      18.537   9.590  10.456 -0.23 +0.04    +0.109 A 
DOCKED: ATOM     18  C   UNL d   1      15.448  15.131  10.953 -0.18 +0.01    +0.050 C 
DOCKED: ATOM     19  C   UNL d   1      16.649  15.335  11.680 +0.03 +0.01    +0.045 A 
DOCKED: ATOM     20  C   UNL d   1      19.537  10.446  12.508 -0.19 +0.02    +0.045 A 
DOCKED: ATOM     21  C   UNL d   1      19.379   9.432  11.651 -0.24 +0.03    +0.057 C 
DOCKED: ATOM     22  C   UNL d   1      20.230  11.619  14.341 -0.12 -0.01    -0.019 A 
DOCKED: ATOM     23  C   UNL d   1      19.408  12.505  13.492 -0.13 +0.01    +0.045 A 
DOCKED: ATOM     24  C   UNL d   1      20.304  10.402  13.753 -0.13 -0.01    -0.022 A 
DOCKED: ATOM     25  C   UNL d   1      18.396  14.698  12.969 -0.15 +0.01    +0.049 A 
DOCKED: ATOM     26  C   UNL d   1      17.337  16.487  12.027 -0.09 -0.00    -0.018 A 
DOCKED: ATOM     27  C   UNL d   1      18.450  16.078  12.824 -0.15 +0.00    +0.003 A 
DOCKED: ATOM     28  C   UNL d   1      19.145  13.792  13.767 -0.15 +0.01    +0.052 C 
DOCKED: ATOM     29  C   UNL d   1      21.026   9.183  14.217 -0.18 +0.02    +0.046 C 
DOCKED: ATOM     30  C   UNL d   1      16.986  17.884  11.640 -0.12 +0.01    +0.046 C 
DOCKED: ATOM     31  H   UNL d   1      18.533  12.039  11.613 -0.25 -0.01    +0.166 HD
DOCKED: ATOM     32  H   UNL d   1      17.007  13.305  12.145 +0.02 +0.00    +0.166 HD
DOCKED: ENDROOT
DOCKED: BRANCH   7  33
DOCKED: ATOM     33  C   UNL d   1      13.674  15.100   8.353 -0.14 +0.03    +0.141 C 
DOCKED: BRANCH  33  34
DOCKED: ATOM     34  C   UNL d   1      14.936  15.451   7.613 -0.21 +0.07    +0.306 C 
DOCKED: ATOM     35  O   UNL d   1      15.601  16.462   7.763 -0.23 -0.08    -0.251 OA
DOCKED: BRANCH  34  36
DOCKED: ATOM     36  O   UNL d   1      15.295  14.508   6.725 -0.16 -0.01    -0.481 OA
DOCKED: ATOM     37  H   UNL d   1      16.155  14.819   6.369 -0.35 -0.05    +0.295 HD
DOCKED: ENDBRANCH  34  36
DOCKED: ENDBRANCH  33  34
DOCKED: ENDBRANCH   7  33
DOCKED: BRANCH  27  38
DOCKED: ATOM     38  C   UNL d   1      19.417  16.959  13.407 -0.15 +0.01    +0.017 C 
DOCKED: ATOM     39  C   UNL d   1      19.413  17.379  14.681 -0.17 +0.05    +0.092 C 
DOCKED: BRANCH  39  40
DOCKED: ATOM     40  C   UNL d   1      20.474  18.270  15.160 -0.09 +0.35    +0.330 C 
DOCKED: ATOM     41  O   UNL d   1      20.563  18.801  16.250 -0.80 -0.33    -0.246 OA
DOCKED: BRANCH  40  42
DOCKED: ATOM     42  O   UNL d   1      21.400  18.439  14.204 -0.16 -0.56    -0.477 OA
DOCKED: ATOM     43  H   UNL d   1      20.979  19.062  13.576 +0.08 +0.22    +0.295 HD
DOCKED: ENDBRANCH  40  42
DOCKED: ENDBRANCH  39  40
DOCKED: ENDBRANCH  27  38
DOCKED: BRANCH   8  44
DOCKED: ATOM     44  C   UNL d   1      16.542   7.870   8.095 -0.31 +0.03    +0.141 C 
DOCKED: BRANCH  44  45
DOCKED: ATOM     45  C   UNL d   1      16.578   6.797   9.150 -0.24 +0.18    +0.306 C 
DOCKED: ATOM     46  O   UNL d   1      16.104   6.863  10.271 -0.28 -0.36    -0.251 OA
DOCKED: BRANCH  45  47
DOCKED: ATOM     47  O   UNL d   1      17.238   5.697   8.743 -0.21 -0.18    -0.481 OA
DOCKED: ATOM     48  H   UNL d   1      18.069   6.039   8.349 -0.05 +0.08    +0.295 HD
DOCKED: ENDBRANCH  45  47
DOCKED: ENDBRANCH  44  45
DOCKED: ENDBRANCH   8  44
DOCKED: BRANCH  22  49
DOCKED: ATOM     49  C   UNL d   1      20.848  12.036  15.644 -0.16 +0.02    +0.048 C 
DOCKED: BRANCH  49  50
DOCKED: ATOM     50  C   UNL d   1      19.867  12.822  16.513 -0.18 +0.03    +0.125 C 
DOCKED: BRANCH  50  51
DOCKED: ATOM     51  C   UNL d   1      18.558  12.096  16.635 -0.13 +0.02    +0.305 C 
DOCKED: ATOM     52  O   UNL d   1      18.372  10.962  17.040 -0.19 -0.03    -0.251 OA
DOCKED: BRANCH  51  53
DOCKED: ATOM     53  O   UNL d   1      17.522  12.851  16.219 -0.08 +0.03    -0.481 OA
DOCKED: ATOM     54  H   UNL d   1      16.897  12.835  16.974 -0.38 -0.16    +0.295 HD
DOCKED: ENDBRANCH  51  53
DOCKED: ENDBRANCH  50  51
DOCKED: ENDBRANCH  49  50
DOCKED: ENDBRANCH  22  49
DOCKED: TORSDOF 13
DOCKED: TER
DOCKED: ENDMDL
________________________________________________________________________________


	BEGINNING GENETIC ALGORITHM DOCKING 74 of 100
Run: 74 Seed: 2130548100 499518253 [ Run 74 of 100 GA/GALS ]
Beginning LAMARCKIAN GENETIC ALGORITHM (LGA), with a maximum of 25000000 energy evaluations.

Final-Value: -14.647


	FINAL GENETIC ALGORITHM DOCKED STATE
	_______________________________________________


Detailed state:  trans 16.363 6.984 16.145 quatxyzw 0.179116 0.126603 -0.974924 -0.037581 center 0.153 0.018 -0.028 ntor 13 131.7324 46.8599 -75.4695 -7.1350 -133.9931 99.8930 125.7613 26.0664 24.4780 -46.4853 14.0918 106.3439 -26.5019
State:	 16.363   6.984  16.145   0.179  0.127 -0.976 -175.692    131.73   46.86  -75.47   -7.13 -133.99   99.89  125.76   26.07   24.48  -46.49   14.09  106.34  -26.50

DOCKED: MODEL       74
DOCKED: USER    Run = 74
DOCKED: USER    DPF = D:/Protein_go_brrr/autodock/final/1A3N/heme/dock.dpf
DOCKED: USER  
DOCKED: USER    Estimated Free Energy of Binding    =   -8.33 kcal/mol  [=(1)+(2)+(3)-(4)]
DOCKED: USER    Estimated Inhibition Constant, Ki   =  788.32 nM (nanomolar)  [Temperature = 298.15 K]
DOCKED: USER    
DOCKED: USER    (1) Final Intermolecular Energy     =  -12.20 kcal/mol
DOCKED: USER        vdW + Hbond + desolv Energy     =  -11.62 kcal/mol
DOCKED: USER        Electrostatic Energy            =   -0.58 kcal/mol
DOCKED: USER    (2) Final Total Internal Energy     =   -2.44 kcal/mol
DOCKED: USER    (3) Torsional Free Energy           =   +3.88 kcal/mol
DOCKED: USER    (4) Unbound System's Energy  [=(2)] =   -2.44 kcal/mol
DOCKED: USER    
DOCKED: USER    
DOCKED: USER    NEWDPF move heme_opt.pdbqt
DOCKED: USER    NEWDPF about 0.153000 0.018000 -0.028000
DOCKED: USER    NEWDPF tran0 16.363202 6.983682 16.144753
DOCKED: USER    NEWDPF quaternion0 0.179116 0.126603 -0.974924 -0.037581
DOCKED: USER    NEWDPF axisangle0 0.179243 0.126692 -0.975613 -175.692493
DOCKED: USER    NEWDPF quat0 0.179243 0.126692 -0.975613 -175.692493
DOCKED: USER    NEWDPF dihe0 131.73 46.86 -75.47 -7.13 -133.99 99.89 125.76 26.07 24.48 -46.49 14.09 106.34 -26.50 
DOCKED: USER  keepresnum = 1 
DOCKED: USER  
DOCKED: REMARK  13 active torsions:
DOCKED: REMARK  status: ('A' for Active; 'I' for Inactive)
DOCKED: REMARK    1  A    between atoms: O_3  and  C_38 
DOCKED: REMARK    2  A    between atoms: O_4  and  C_40 
DOCKED: REMARK    3  A    between atoms: O_7  and  C_46 
DOCKED: REMARK    4  A    between atoms: O_9  and  C_48 
DOCKED: REMARK    5  A    between atoms: C_15  and  C_20 
DOCKED: REMARK    6  A    between atoms: C_16  and  C_23 
DOCKED: REMARK    7  A    between atoms: C_20  and  C_38 
DOCKED: REMARK    8  A    between atoms: C_23  and  C_40 
DOCKED: REMARK    9  A    between atoms: C_32  and  C_41 
DOCKED: REMARK   10  A    between atoms: C_37  and  C_45 
DOCKED: REMARK   11  A    between atoms: C_41  and  C_44 
DOCKED: REMARK   12  A    between atoms: C_44  and  C_46 
DOCKED: REMARK   13  A    between atoms: C_47  and  C_48 
DOCKED: USER                              x       y       z     vdW  Elec       q    Type
DOCKED: USER                           _______ _______ _______ _____ _____    ______ ____
DOCKED: ROOT
DOCKED: ATOM      1  O   UNL d   1      21.579   5.342  18.349 -0.29 +0.06    -0.289 OA
DOCKED: ATOM      2  O   UNL d   1      18.804  12.146  16.802 -0.15 -0.03    -0.289 OA
DOCKED: ATOM      3  N   UNL d   1      18.476   5.813  16.919 -0.16 -0.00    -0.247 NA
DOCKED: ATOM      4  N   UNL d   1      18.138   8.764  16.976 -0.05 -0.06    -0.247 NA
DOCKED: ATOM      5  N   UNL d   1      15.354   8.365  16.378 -0.12 -0.10    -0.354 N 
DOCKED: ATOM      6  N   UNL d   1      15.709   5.303  16.340 -0.16 -0.11    -0.354 N 
DOCKED: ATOM      7  C   UNL d   1      19.712   3.874  17.769 -0.30 -0.07    +0.084 A 
DOCKED: ATOM      8  C   UNL d   1      20.170  10.122  16.975 -0.19 +0.03    +0.084 A 
DOCKED: ATOM      9  C   UNL d   1      19.513   8.739  17.039 -0.20 +0.02    +0.058 A 
DOCKED: ATOM     10  C   UNL d   1      18.442   4.445  17.131 -0.32 -0.03    +0.058 A 
DOCKED: ATOM     11  C   UNL d   1      20.477   5.160  17.864 -0.25 -0.06    +0.193 A 
DOCKED: ATOM     12  C   UNL d   1      19.631   6.256  17.293 -0.24 -0.00    +0.109 A 
DOCKED: ATOM     13  C   UNL d   1      18.911  10.939  16.902 -0.14 +0.03    +0.193 A 
DOCKED: ATOM     14  C   UNL d   1      19.456   3.345  19.183 -0.29 -0.05    +0.026 C 
DOCKED: ATOM     15  C   UNL d   1      20.218   7.608  17.195 -0.31 +0.01    +0.055 C 
DOCKED: ATOM     16  C   UNL d   1      20.959  10.316  15.677 -0.20 +0.01    +0.026 C 
DOCKED: ATOM     17  C   UNL d   1      17.751   9.998  16.918 -0.17 +0.02    +0.109 A 
DOCKED: ATOM     18  C   UNL d   1      17.433   3.645  16.737 -0.34 -0.03    +0.050 C 
DOCKED: ATOM     19  C   UNL d   1      16.260   4.072  16.064 -0.25 +0.01    +0.045 A 
DOCKED: ATOM     20  C   UNL d   1      15.343   9.704  16.669 -0.28 +0.01    +0.045 A 
DOCKED: ATOM     21  C   UNL d   1      16.376  10.520  16.901 -0.25 +0.00    +0.057 C 
DOCKED: ATOM     22  C   UNL d   1      13.190   8.990  16.396 -0.40 -0.00    -0.019 A 
DOCKED: ATOM     23  C   UNL d   1      14.101   7.844  16.197 -0.25 +0.01    +0.045 A 
DOCKED: ATOM     24  C   UNL d   1      13.932  10.088  16.674 -0.43 -0.00    -0.022 A 
DOCKED: ATOM     25  C   UNL d   1      14.534   5.473  15.646 -0.27 +0.03    +0.049 A 
DOCKED: ATOM     26  C   UNL d   1      15.441   3.441  15.140 -0.19 -0.01    -0.018 A 
DOCKED: ATOM     27  C   UNL d   1      14.363   4.339  14.865 -0.27 +0.00    +0.003 A 
DOCKED: ATOM     28  C   UNL d   1      13.702   6.601  15.886 -0.41 +0.02    +0.052 C 
DOCKED: ATOM     29  C   UNL d   1      13.472  11.481  16.939 -0.46 +0.00    +0.046 C 
DOCKED: ATOM     30  C   UNL d   1      15.646   2.089  14.545 -0.18 +0.01    +0.046 C 
DOCKED: ATOM     31  H   UNL d   1      16.226   7.864  16.239 +0.07 +0.07    +0.166 HD
DOCKED: ATOM     32  H   UNL d   1      16.110   5.961  16.998 +0.07 +0.02    +0.166 HD
DOCKED: ENDROOT
DOCKED: BRANCH   7  33
DOCKED: ATOM     33  C   UNL d   1      20.475   2.855  16.916 -0.08 -0.10    +0.141 C 
DOCKED: BRANCH  33  34
DOCKED: ATOM     34  C   UNL d   1      21.182   3.491  15.750 -0.11 -0.05    +0.306 C 
DOCKED: ATOM     35  O   UNL d   1      20.674   3.820  14.692 -0.12 -0.03    -0.251 OA
DOCKED: BRANCH  34  36
DOCKED: ATOM     36  O   UNL d   1      22.494   3.680  15.979 -0.07 +0.10    -0.481 OA
DOCKED: ATOM     37  H   UNL d   1      22.529   4.142  16.844 +0.18 -0.06    +0.295 HD
DOCKED: ENDBRANCH  34  36
DOCKED: ENDBRANCH  33  34
DOCKED: ENDBRANCH   7  33
DOCKED: BRANCH  27  38
DOCKED: ATOM     38  C   UNL d   1      13.277   4.074  13.971 -0.29 +0.01    +0.017 C 
DOCKED: ATOM     39  C   UNL d   1      13.373   3.407  12.811 -0.19 +0.06    +0.092 C 
DOCKED: BRANCH  39  40
DOCKED: ATOM     40  C   UNL d   1      12.177   3.188  11.993 -0.11 +0.16    +0.330 C 
DOCKED: ATOM     41  O   UNL d   1      11.806   3.832  11.031 -0.13 -0.02    -0.246 OA
DOCKED: BRANCH  40  42
DOCKED: ATOM     42  O   UNL d   1      11.497   2.124  12.446 -0.48 -0.55    -0.477 OA
DOCKED: ATOM     43  H   UNL d   1      11.296   1.611  11.636 +0.10 +0.09    +0.295 HD
DOCKED: ENDBRANCH  40  42
DOCKED: ENDBRANCH  39  40
DOCKED: ENDBRANCH  27  38
DOCKED: BRANCH   8  44
DOCKED: ATOM     44  C   UNL d   1      21.008  10.513  18.197 -0.38 +0.06    +0.141 C 
DOCKED: BRANCH  44  45
DOCKED: ATOM     45  C   UNL d   1      20.251  11.350  19.193 -0.36 +0.06    +0.306 C 
DOCKED: ATOM     46  O   UNL d   1      19.480  10.945  20.046 -0.44 -0.04    -0.251 OA
DOCKED: BRANCH  45  47
DOCKED: ATOM     47  O   UNL d   1      20.485  12.666  19.043 -0.16 -0.04    -0.481 OA
DOCKED: ATOM     48  H   UNL d   1      19.681  13.012  18.599 -0.09 -0.03    +0.295 HD
DOCKED: ENDBRANCH  45  47
DOCKED: ENDBRANCH  44  45
DOCKED: ENDBRANCH   8  44
DOCKED: BRANCH  22  49
DOCKED: ATOM     49  C   UNL d   1      11.695   8.902  16.312 -0.49 +0.01    +0.048 C 
DOCKED: BRANCH  49  50
DOCKED: ATOM     50  C   UNL d   1      11.152   9.615  15.074 -0.34 +0.02    +0.125 C 
DOCKED: BRANCH  50  51
DOCKED: ATOM     51  C   UNL d   1       9.670   9.833  15.187 -0.31 +0.04    +0.305 C 
DOCKED: ATOM     52  O   UNL d   1       8.993   9.827  16.200 -0.44 -0.00    -0.251 OA
DOCKED: BRANCH  51  53
DOCKED: ATOM     53  O   UNL d   1       9.097  10.040  13.984 -0.10 -0.05    -0.481 OA
DOCKED: ATOM     54  H   UNL d   1       8.136  10.043  14.176 +0.21 +0.00    +0.295 HD
DOCKED: ENDBRANCH  51  53
DOCKED: ENDBRANCH  50  51
DOCKED: ENDBRANCH  49  50
DOCKED: ENDBRANCH  22  49
DOCKED: TORSDOF 13
DOCKED: TER
DOCKED: ENDMDL
________________________________________________________________________________


	BEGINNING GENETIC ALGORITHM DOCKING 75 of 100
Run: 75 Seed: 690013236 852899847 [ Run 75 of 100 GA/GALS ]
Beginning LAMARCKIAN GENETIC ALGORITHM (LGA), with a maximum of 25000000 energy evaluations.

Final-Value: -10.863


	FINAL GENETIC ALGORITHM DOCKED STATE
	_______________________________________________


Detailed state:  trans 6.336 10.041 38.789 quatxyzw -0.103485 -0.356595 -0.871014 -0.321659 center 0.153 0.018 -0.028 ntor 13 158.8703 -139.6354 82.2512 -74.7564 -143.4331 -152.0246 102.6531 -65.8824 46.7655 7.1508 144.3942 170.8511 179.8485
State:	  6.336  10.041  38.789  -0.109 -0.377 -0.920 -142.473    158.87 -139.64   82.25  -74.76 -143.43 -152.02  102.65  -65.88   46.77    7.15  144.39  170.85  179.85

DOCKED: MODEL       75
DOCKED: USER    Run = 75
DOCKED: USER    DPF = D:/Protein_go_brrr/autodock/final/1A3N/heme/dock.dpf
DOCKED: USER  
DOCKED: USER    Estimated Free Energy of Binding    =   -5.09 kcal/mol  [=(1)+(2)+(3)-(4)]
DOCKED: USER    Estimated Inhibition Constant, Ki   =  185.06 uM (micromolar)  [Temperature = 298.15 K]
DOCKED: USER    
DOCKED: USER    (1) Final Intermolecular Energy     =   -8.97 kcal/mol
DOCKED: USER        vdW + Hbond + desolv Energy     =   -8.08 kcal/mol
DOCKED: USER        Electrostatic Energy            =   -0.89 kcal/mol
DOCKED: USER    (2) Final Total Internal Energy     =   -1.89 kcal/mol
DOCKED: USER    (3) Torsional Free Energy           =   +3.88 kcal/mol
DOCKED: USER    (4) Unbound System's Energy  [=(2)] =   -1.89 kcal/mol
DOCKED: USER    
DOCKED: USER    
DOCKED: USER    NEWDPF move heme_opt.pdbqt
DOCKED: USER    NEWDPF about 0.153000 0.018000 -0.028000
DOCKED: USER    NEWDPF tran0 6.336206 10.040960 38.789473
DOCKED: USER    NEWDPF quaternion0 -0.103485 -0.356595 -0.871014 -0.321659
DOCKED: USER    NEWDPF axisangle0 -0.109294 -0.376610 -0.919902 -142.473391
DOCKED: USER    NEWDPF quat0 -0.109294 -0.376610 -0.919902 -142.473391
DOCKED: USER    NEWDPF dihe0 158.87 -139.64 82.25 -74.76 -143.43 -152.02 102.65 -65.88 46.77 7.15 144.39 170.85 179.85 
DOCKED: USER  keepresnum = 1 
DOCKED: USER  
DOCKED: REMARK  13 active torsions:
DOCKED: REMARK  status: ('A' for Active; 'I' for Inactive)
DOCKED: REMARK    1  A    between atoms: O_3  and  C_38 
DOCKED: REMARK    2  A    between atoms: O_4  and  C_40 
DOCKED: REMARK    3  A    between atoms: O_7  and  C_46 
DOCKED: REMARK    4  A    between atoms: O_9  and  C_48 
DOCKED: REMARK    5  A    between atoms: C_15  and  C_20 
DOCKED: REMARK    6  A    between atoms: C_16  and  C_23 
DOCKED: REMARK    7  A    between atoms: C_20  and  C_38 
DOCKED: REMARK    8  A    between atoms: C_23  and  C_40 
DOCKED: REMARK    9  A    between atoms: C_32  and  C_41 
DOCKED: REMARK   10  A    between atoms: C_37  and  C_45 
DOCKED: REMARK   11  A    between atoms: C_41  and  C_44 
DOCKED: REMARK   12  A    between atoms: C_44  and  C_46 
DOCKED: REMARK   13  A    between atoms: C_47  and  C_48 
DOCKED: USER                              x       y       z     vdW  Elec       q    Type
DOCKED: USER                           _______ _______ _______ _____ _____    ______ ____
DOCKED: ROOT
DOCKED: ATOM      1  O   UNL d   1      11.705  12.307  37.897 -0.09 -0.33    -0.289 OA
DOCKED: ATOM      2  O   UNL d   1       5.391  12.858  33.870 -0.73 -0.38    -0.289 OA
DOCKED: ATOM      3  N   UNL d   1       8.793  10.670  38.755 -0.07 -0.11    -0.247 NA
DOCKED: ATOM      4  N   UNL d   1       6.819  11.716  36.796 -0.09 -0.18    -0.247 NA
DOCKED: ATOM      5  N   UNL d   1       4.739  10.588  38.430 -0.08 -0.15    -0.354 N 
DOCKED: ATOM      6  N   UNL d   1       6.793   9.523  40.467 -0.06 -0.09    -0.354 N 
DOCKED: ATOM      7  C   UNL d   1      10.988  10.960  39.807 -0.04 +0.04    +0.084 A 
DOCKED: ATOM      8  C   UNL d   1       7.684  12.514  34.655 -0.16 +0.07    +0.084 A 
DOCKED: ATOM      9  C   UNL d   1       7.955  11.980  36.065 -0.13 +0.04    +0.058 A 
DOCKED: ATOM     10  C   UNL d   1       9.574  10.375  39.860 -0.08 +0.02    +0.058 A 
DOCKED: ATOM     11  C   UNL d   1      10.875  11.623  38.467 -0.06 +0.15    +0.193 A 
DOCKED: ATOM     12  C   UNL d   1       9.507  11.353  37.920 -0.09 +0.07    +0.109 A 
DOCKED: ATOM     13  C   UNL d   1       6.183  12.539  34.734 -0.16 +0.23    +0.193 A 
DOCKED: ATOM     14  C   UNL d   1      11.206  12.035  40.874 -0.01 +0.01    +0.026 C 
DOCKED: ATOM     15  C   UNL d   1       9.194  11.833  36.559 -0.14 +0.04    +0.055 C 
DOCKED: ATOM     16  C   UNL d   1       8.103  11.509  33.577 -0.31 +0.01    +0.026 C 
DOCKED: ATOM     17  C   UNL d   1       5.787  12.039  36.085 -0.20 +0.11    +0.109 A 
DOCKED: ATOM     18  C   UNL d   1       9.183   9.570  40.867 -0.10 +0.01    +0.050 C 
DOCKED: ATOM     19  C   UNL d   1       7.927   8.918  40.958 -0.13 +0.01    +0.045 A 
DOCKED: ATOM     20  C   UNL d   1       3.980  11.329  37.561 -0.25 +0.03    +0.045 A 
DOCKED: ATOM     21  C   UNL d   1       4.368  11.993  36.468 -0.32 +0.06    +0.057 C 
DOCKED: ATOM     22  C   UNL d   1       2.623  10.488  39.194 -0.24 -0.01    -0.019 A 
DOCKED: ATOM     23  C   UNL d   1       4.007  10.041  39.449 -0.23 +0.02    +0.045 A 
DOCKED: ATOM     24  C   UNL d   1       2.614  11.249  38.075 -0.29 -0.01    -0.022 A 
DOCKED: ATOM     25  C   UNL d   1       5.681   8.760  40.740 -0.22 +0.01    +0.049 A 
DOCKED: ATOM     26  C   UNL d   1       7.549   7.714  41.533 -0.19 -0.00    -0.018 A 
DOCKED: ATOM     27  C   UNL d   1       6.132   7.611  41.375 -0.26 +0.00    +0.003 A 
DOCKED: ATOM     28  C   UNL d   1       4.375   9.251  40.470 -0.23 +0.02    +0.052 C 
DOCKED: ATOM     29  C   UNL d   1       1.458  11.915  37.409 -0.40 +0.02    +0.046 C 
DOCKED: ATOM     30  C   UNL d   1       8.446   6.719  42.187 -0.15 +0.01    +0.046 C 
DOCKED: ATOM     31  H   UNL d   1       5.724  10.419  38.255 +0.06 +0.07    +0.166 HD
DOCKED: ATOM     32  H   UNL d   1       6.793  10.426  40.007 +0.04 +0.05    +0.166 HD
DOCKED: ENDROOT
DOCKED: BRANCH   7  33
DOCKED: ATOM     33  C   UNL d   1      12.125   9.932  39.804 -0.06 +0.07    +0.141 C 
DOCKED: BRANCH  33  34
DOCKED: ATOM     34  C   UNL d   1      12.589   9.586  38.415 -0.06 +0.30    +0.306 C 
DOCKED: ATOM     35  O   UNL d   1      12.143   8.699  37.706 -0.18 -0.21    -0.251 OA
DOCKED: BRANCH  34  36
DOCKED: ATOM     36  O   UNL d   1      13.590  10.377  37.991 -0.52 -0.94    -0.481 OA
DOCKED: ATOM     37  H   UNL d   1      13.499  11.196  38.522 +0.04 +0.41    +0.295 HD
DOCKED: ENDBRANCH  34  36
DOCKED: ENDBRANCH  33  34
DOCKED: ENDBRANCH   7  33
DOCKED: BRANCH  27  38
DOCKED: ATOM     38  C   UNL d   1       5.327   6.523  41.843 -0.11 +0.00    +0.017 C 
DOCKED: ATOM     39  C   UNL d   1       5.619   5.739  42.892 -0.17 +0.00    +0.092 C 
DOCKED: BRANCH  39  40
DOCKED: ATOM     40  C   UNL d   1       4.699   4.666  43.279 -0.09 +0.00    +0.330 C 
DOCKED: ATOM     41  O   UNL d   1       4.558   4.169  44.381 -0.03 -0.00    -0.246 OA
DOCKED: BRANCH  40  42
DOCKED: ATOM     42  O   UNL d   1       3.976   4.273  42.220 -0.47 -0.02    -0.477 OA
DOCKED: ATOM     43  H   UNL d   1       4.620   4.274  41.482 -0.23 -0.03    +0.295 HD
DOCKED: ENDBRANCH  40  42
DOCKED: ENDBRANCH  39  40
DOCKED: ENDBRANCH  27  38
DOCKED: BRANCH   8  44
DOCKED: ATOM     44  C   UNL d   1       8.241  13.910  34.358 -0.15 +0.12    +0.141 C 
DOCKED: BRANCH  44  45
DOCKED: ATOM     45  C   UNL d   1       8.037  14.884  35.488 -0.06 +0.35    +0.306 C 
DOCKED: ATOM     46  O   UNL d   1       8.440  14.765  36.632 -0.05 -0.22    -0.251 OA
DOCKED: BRANCH  45  47
DOCKED: ATOM     47  O   UNL d   1       7.305  15.951  35.121 -0.48 -0.83    -0.481 OA
DOCKED: ATOM     48  H   UNL d   1       7.965  16.653  34.936 +0.05 +0.28    +0.295 HD
DOCKED: ENDBRANCH  45  47
DOCKED: ENDBRANCH  44  45
DOCKED: ENDBRANCH   8  44
DOCKED: BRANCH  22  49
DOCKED: ATOM     49  C   UNL d   1       1.452  10.145  40.068 -0.06 +0.02    +0.048 C 
DOCKED: BRANCH  49  50
DOCKED: ATOM     50  C   UNL d   1       1.147  11.257  41.072 -0.07 +0.03    +0.125 C 
DOCKED: BRANCH  50  51
DOCKED: ATOM     51  C   UNL d   1       2.411  11.925  41.533 -0.00 +0.07    +0.305 C 
DOCKED: ATOM     52  O   UNL d   1       3.263  11.472  42.276 -0.01 -0.05    -0.251 OA
DOCKED: BRANCH  51  53
DOCKED: ATOM     53  O   UNL d   1       2.536  13.170  41.030 +0.02 -0.14    -0.481 OA
DOCKED: ATOM     54  H   UNL d   1       2.324  13.755  41.787 +0.01 +0.07    +0.295 HD
DOCKED: ENDBRANCH  51  53
DOCKED: ENDBRANCH  50  51
DOCKED: ENDBRANCH  49  50
DOCKED: ENDBRANCH  22  49
DOCKED: TORSDOF 13
DOCKED: TER
DOCKED: ENDMDL
________________________________________________________________________________


	BEGINNING GENETIC ALGORITHM DOCKING 76 of 100
Run: 76 Seed: 393810874 750437069 [ Run 76 of 100 GA/GALS ]
Beginning LAMARCKIAN GENETIC ALGORITHM (LGA), with a maximum of 25000000 energy evaluations.

Final-Value: -11.046


	FINAL GENETIC ALGORITHM DOCKED STATE
	_______________________________________________


Detailed state:  trans 20.794 -9.324 -10.860 quatxyzw 0.445127 -0.509642 -0.582739 0.450047 center 0.153 0.018 -0.028 ntor 13 -61.9765 143.0649 -180.0000 25.0560 33.7882 36.9099 -67.3864 179.6917 119.8952 -154.9518 -75.9332 -66.1378 -32.6577
State:	 20.794  -9.324 -10.860   0.498 -0.571 -0.653 126.507    -61.98  143.06 -180.00   25.06   33.79   36.91  -67.39  179.69  119.90 -154.95  -75.93  -66.14  -32.66

DOCKED: MODEL       76
DOCKED: USER    Run = 76
DOCKED: USER    DPF = D:/Protein_go_brrr/autodock/final/1A3N/heme/dock.dpf
DOCKED: USER  
DOCKED: USER    Estimated Free Energy of Binding    =   -3.57 kcal/mol  [=(1)+(2)+(3)-(4)]
DOCKED: USER    Estimated Inhibition Constant, Ki   =    2.42 mM (millimolar)  [Temperature = 298.15 K]
DOCKED: USER    
DOCKED: USER    (1) Final Intermolecular Energy     =   -7.45 kcal/mol
DOCKED: USER        vdW + Hbond + desolv Energy     =   -7.50 kcal/mol
DOCKED: USER        Electrostatic Energy            =   +0.05 kcal/mol
DOCKED: USER    (2) Final Total Internal Energy     =   -3.60 kcal/mol
DOCKED: USER    (3) Torsional Free Energy           =   +3.88 kcal/mol
DOCKED: USER    (4) Unbound System's Energy  [=(2)] =   -3.60 kcal/mol
DOCKED: USER    
DOCKED: USER    
DOCKED: USER    NEWDPF move heme_opt.pdbqt
DOCKED: USER    NEWDPF about 0.153000 0.018000 -0.028000
DOCKED: USER    NEWDPF tran0 20.794427 -9.324449 -10.859942
DOCKED: USER    NEWDPF quaternion0 0.445127 -0.509642 -0.582739 0.450047
DOCKED: USER    NEWDPF axisangle0 0.498460 -0.570705 -0.652560 126.506647
DOCKED: USER    NEWDPF quat0 0.498460 -0.570705 -0.652560 126.506647
DOCKED: USER    NEWDPF dihe0 -61.98 143.06 -180.00 25.06 33.79 36.91 -67.39 179.69 119.90 -154.95 -75.93 -66.14 -32.66 
DOCKED: USER  keepresnum = 1 
DOCKED: USER  
DOCKED: REMARK  13 active torsions:
DOCKED: REMARK  status: ('A' for Active; 'I' for Inactive)
DOCKED: REMARK    1  A    between atoms: O_3  and  C_38 
DOCKED: REMARK    2  A    between atoms: O_4  and  C_40 
DOCKED: REMARK    3  A    between atoms: O_7  and  C_46 
DOCKED: REMARK    4  A    between atoms: O_9  and  C_48 
DOCKED: REMARK    5  A    between atoms: C_15  and  C_20 
DOCKED: REMARK    6  A    between atoms: C_16  and  C_23 
DOCKED: REMARK    7  A    between atoms: C_20  and  C_38 
DOCKED: REMARK    8  A    between atoms: C_23  and  C_40 
DOCKED: REMARK    9  A    between atoms: C_32  and  C_41 
DOCKED: REMARK   10  A    between atoms: C_37  and  C_45 
DOCKED: REMARK   11  A    between atoms: C_41  and  C_44 
DOCKED: REMARK   12  A    between atoms: C_44  and  C_46 
DOCKED: REMARK   13  A    between atoms: C_47  and  C_48 
DOCKED: USER                              x       y       z     vdW  Elec       q    Type
DOCKED: USER                           _______ _______ _______ _____ _____    ______ ____
DOCKED: ROOT
DOCKED: ATOM      1  O   UNL d   1      20.218  -9.205  -4.994 -0.20 -0.06    -0.289 OA
DOCKED: ATOM      2  O   UNL d   1      26.158 -10.718  -9.333 -0.29 +0.17    -0.289 OA
DOCKED: ATOM      3  N   UNL d   1      20.043  -9.286  -8.438 -0.08 +0.04    -0.247 NA
DOCKED: ATOM      4  N   UNL d   1      22.876  -9.651  -9.257 -0.14 +0.05    -0.247 NA
DOCKED: ATOM      5  N   UNL d   1      22.094  -8.960 -11.936 -0.07 +0.10    -0.354 N 
DOCKED: ATOM      6  N   UNL d   1      19.161  -8.564 -11.074 -0.06 +0.09    -0.354 N 
DOCKED: ATOM      7  C   UNL d   1      18.492  -8.675  -6.642 -0.28 -0.02    +0.084 A 
DOCKED: ATOM      8  C   UNL d   1      24.369 -10.747  -7.662 -0.18 -0.01    +0.084 A 
DOCKED: ATOM      9  C   UNL d   1      22.991 -10.159  -7.982 -0.16 -0.00    +0.058 A 
DOCKED: ATOM     10  C   UNL d   1      18.772  -8.826  -8.140 -0.24 -0.01    +0.058 A 
DOCKED: ATOM     11  C   UNL d   1      19.825  -9.148  -6.145 -0.17 -0.01    +0.193 A 
DOCKED: ATOM     12  C   UNL d   1      20.667  -9.514  -7.328 -0.13 -0.01    +0.109 A 
DOCKED: ATOM     13  C   UNL d   1      25.027 -10.446  -8.979 -0.22 -0.05    +0.193 A 
DOCKED: ATOM     14  C   UNL d   1      18.304  -7.210  -6.238 -0.55 -0.01    +0.026 C 
DOCKED: ATOM     15  C   UNL d   1      22.000 -10.098  -7.078 -0.19 +0.00    +0.055 C 
DOCKED: ATOM     16  C   UNL d   1      24.309 -12.266  -7.477 -0.07 -0.00    +0.026 C 
DOCKED: ATOM     17  C   UNL d   1      24.018  -9.775  -9.854 -0.24 -0.03    +0.109 A 
DOCKED: ATOM     18  C   UNL d   1      17.813  -8.610  -9.060 -0.20 -0.01    +0.050 C 
DOCKED: ATOM     19  C   UNL d   1      17.954  -8.806 -10.457 -0.22 -0.01    +0.045 A 
DOCKED: ATOM     20  C   UNL d   1      23.458  -8.948 -12.078 -0.22 -0.02    +0.045 A 
DOCKED: ATOM     21  C   UNL d   1      24.395  -9.321 -11.201 -0.26 -0.03    +0.057 C 
DOCKED: ATOM     22  C   UNL d   1      22.508  -8.168 -14.003 -0.14 +0.00    -0.019 A 
DOCKED: ATOM     23  C   UNL d   1      21.435  -8.505 -13.046 -0.15 -0.01    +0.045 A 
DOCKED: ATOM     24  C   UNL d   1      23.703  -8.433 -13.424 -0.20 +0.01    -0.022 A 
DOCKED: ATOM     25  C   UNL d   1      19.050  -8.729 -12.435 -0.10 -0.01    +0.049 A 
DOCKED: ATOM     26  C   UNL d   1      17.046  -9.173 -11.438 -0.19 +0.00    -0.018 A 
DOCKED: ATOM     27  C   UNL d   1      17.748  -9.142 -12.682 -0.11 -0.00    +0.003 A 
DOCKED: ATOM     28  C   UNL d   1      20.123  -8.384 -13.301 -0.13 -0.01    +0.052 C 
DOCKED: ATOM     29  C   UNL d   1      25.071  -8.269 -13.992 -0.16 -0.02    +0.046 C 
DOCKED: ATOM     30  C   UNL d   1      15.613  -9.533 -11.234 -0.12 +0.00    +0.046 C 
DOCKED: ATOM     31  H   UNL d   1      21.655  -9.349 -11.108 +0.06 -0.04    +0.166 HD
DOCKED: ATOM     32  H   UNL d   1      19.994  -8.267 -10.579 -0.15 -0.06    +0.166 HD
DOCKED: ENDROOT
DOCKED: BRANCH   7  33
DOCKED: ATOM     33  C   UNL d   1      17.368  -9.558  -6.091 -0.33 -0.06    +0.141 C 
DOCKED: BRANCH  33  34
DOCKED: ATOM     34  C   UNL d   1      17.339  -9.588  -4.586 -0.26 -0.17    +0.306 C 
DOCKED: ATOM     35  O   UNL d   1      16.746  -8.807  -3.861 -0.37 +0.13    -0.251 OA
DOCKED: BRANCH  34  36
DOCKED: ATOM     36  O   UNL d   1      18.057 -10.603  -4.074 -0.17 +0.43    -0.481 OA
DOCKED: ATOM     37  H   UNL d   1      18.783 -10.167  -3.580 -0.15 -0.28    +0.295 HD
DOCKED: ENDBRANCH  34  36
DOCKED: ENDBRANCH  33  34
DOCKED: ENDBRANCH   7  33
DOCKED: BRANCH  27  38
DOCKED: ATOM     38  C   UNL d   1      17.176  -9.440 -13.960 -0.05 +0.00    +0.017 C 
DOCKED: ATOM     39  C   UNL d   1      17.577  -8.917 -15.129 -0.02 +0.00    +0.092 C 
DOCKED: BRANCH  39  40
DOCKED: ATOM     40  C   UNL d   1      16.917  -9.320 -16.374 +0.01 +0.01    +0.330 C 
DOCKED: ATOM     41  O   UNL d   1      15.743  -9.594 -16.538 +0.00 -0.02    -0.246 OA
DOCKED: BRANCH  40  42
DOCKED: ATOM     42  O   UNL d   1      17.805  -9.346 -17.379 +0.00 -0.01    -0.477 OA
DOCKED: ATOM     43  H   UNL d   1      18.393  -8.586 -17.193 +0.01 -0.00    +0.295 HD
DOCKED: ENDBRANCH  40  42
DOCKED: ENDBRANCH  39  40
DOCKED: ENDBRANCH  27  38
DOCKED: BRANCH   8  44
DOCKED: ATOM     44  C   UNL d   1      25.121 -10.077  -6.507 -0.24 +0.00    +0.141 C 
DOCKED: BRANCH  44  45
DOCKED: ATOM     45  C   UNL d   1      26.129 -10.983  -5.850 -0.16 -0.01    +0.306 C 
DOCKED: ATOM     46  O   UNL d   1      26.066 -11.444  -4.724 -0.10 -0.02    -0.251 OA
DOCKED: BRANCH  45  47
DOCKED: ATOM     47  O   UNL d   1      27.184 -11.239  -6.643 -0.11 +0.06    -0.481 OA
DOCKED: ATOM     48  H   UNL d   1      26.993 -10.755  -7.475 +0.10 -0.07    +0.295 HD
DOCKED: ENDBRANCH  45  47
DOCKED: ENDBRANCH  44  45
DOCKED: ENDBRANCH   8  44
DOCKED: BRANCH  22  49
DOCKED: ATOM     49  C   UNL d   1      22.268  -7.608 -15.375 -0.09 -0.01    +0.048 C 
DOCKED: BRANCH  49  50
DOCKED: ATOM     50  C   UNL d   1      22.745  -8.563 -16.469 -0.01 -0.01    +0.125 C 
DOCKED: BRANCH  50  51
DOCKED: ATOM     51  C   UNL d   1      21.581  -9.246 -17.129 +0.00 -0.02    +0.305 C 
DOCKED: ATOM     52  O   UNL d   1      21.603  -9.977 -18.104 -0.00 +0.01    -0.251 OA
DOCKED: BRANCH  51  53
DOCKED: ATOM     53  O   UNL d   1      20.414  -8.956 -16.519 +0.01 +0.02    -0.481 OA
DOCKED: ATOM     54  H   UNL d   1      19.835  -9.716 -16.740 +0.00 -0.01    +0.295 HD
DOCKED: ENDBRANCH  51  53
DOCKED: ENDBRANCH  50  51
DOCKED: ENDBRANCH  49  50
DOCKED: ENDBRANCH  22  49
DOCKED: TORSDOF 13
DOCKED: TER
DOCKED: ENDMDL
________________________________________________________________________________


	BEGINNING GENETIC ALGORITHM DOCKING 77 of 100
Run: 77 Seed: 312929056 776010547 [ Run 77 of 100 GA/GALS ]
Beginning LAMARCKIAN GENETIC ALGORITHM (LGA), with a maximum of 25000000 energy evaluations.

Final-Value: -11.809


	FINAL GENETIC ALGORITHM DOCKED STATE
	_______________________________________________


Detailed state:  trans 11.875 3.608 -11.412 quatxyzw 0.079582 0.382707 0.362104 0.846217 center 0.153 0.018 -0.028 ntor 13 -106.2965 -39.5226 -87.4734 -84.3969 34.2577 140.2243 159.6956 -106.6940 130.8997 -94.8244 -63.5352 -162.2692 -37.5600
State:	 11.875   3.608 -11.412   0.149  0.718  0.680 64.395   -106.30  -39.52  -87.47  -84.40   34.26  140.22  159.70 -106.69  130.90  -94.82  -63.54 -162.27  -37.56

DOCKED: MODEL       77
DOCKED: USER    Run = 77
DOCKED: USER    DPF = D:/Protein_go_brrr/autodock/final/1A3N/heme/dock.dpf
DOCKED: USER  
DOCKED: USER    Estimated Free Energy of Binding    =   -5.76 kcal/mol  [=(1)+(2)+(3)-(4)]
DOCKED: USER    Estimated Inhibition Constant, Ki   =   60.23 uM (micromolar)  [Temperature = 298.15 K]
DOCKED: USER    
DOCKED: USER    (1) Final Intermolecular Energy     =   -9.64 kcal/mol
DOCKED: USER        vdW + Hbond + desolv Energy     =   -9.20 kcal/mol
DOCKED: USER        Electrostatic Energy            =   -0.44 kcal/mol
DOCKED: USER    (2) Final Total Internal Energy     =   -2.17 kcal/mol
DOCKED: USER    (3) Torsional Free Energy           =   +3.88 kcal/mol
DOCKED: USER    (4) Unbound System's Energy  [=(2)] =   -2.17 kcal/mol
DOCKED: USER    
DOCKED: USER    
DOCKED: USER    NEWDPF move heme_opt.pdbqt
DOCKED: USER    NEWDPF about 0.153000 0.018000 -0.028000
DOCKED: USER    NEWDPF tran0 11.874633 3.607541 -11.412320
DOCKED: USER    NEWDPF quaternion0 0.079582 0.382707 0.362104 0.846217
DOCKED: USER    NEWDPF axisangle0 0.149355 0.718241 0.679575 64.394925
DOCKED: USER    NEWDPF quat0 0.149355 0.718241 0.679575 64.394925
DOCKED: USER    NEWDPF dihe0 -106.30 -39.52 -87.47 -84.40 34.26 140.22 159.70 -106.69 130.90 -94.82 -63.54 -162.27 -37.56 
DOCKED: USER  keepresnum = 1 
DOCKED: USER  
DOCKED: REMARK  13 active torsions:
DOCKED: REMARK  status: ('A' for Active; 'I' for Inactive)
DOCKED: REMARK    1  A    between atoms: O_3  and  C_38 
DOCKED: REMARK    2  A    between atoms: O_4  and  C_40 
DOCKED: REMARK    3  A    between atoms: O_7  and  C_46 
DOCKED: REMARK    4  A    between atoms: O_9  and  C_48 
DOCKED: REMARK    5  A    between atoms: C_15  and  C_20 
DOCKED: REMARK    6  A    between atoms: C_16  and  C_23 
DOCKED: REMARK    7  A    between atoms: C_20  and  C_38 
DOCKED: REMARK    8  A    between atoms: C_23  and  C_40 
DOCKED: REMARK    9  A    between atoms: C_32  and  C_41 
DOCKED: REMARK   10  A    between atoms: C_37  and  C_45 
DOCKED: REMARK   11  A    between atoms: C_41  and  C_44 
DOCKED: REMARK   12  A    between atoms: C_44  and  C_46 
DOCKED: REMARK   13  A    between atoms: C_47  and  C_48 
DOCKED: USER                              x       y       z     vdW  Elec       q    Type
DOCKED: USER                           _______ _______ _______ _____ _____    ______ ____
DOCKED: ROOT
DOCKED: ATOM      1  O   UNL d   1      10.134   8.196 -14.679 -0.04 +0.05    -0.289 OA
DOCKED: ATOM      2  O   UNL d   1       8.359   0.910 -15.073 -0.04 -0.01    -0.289 OA
DOCKED: ATOM      3  N   UNL d   1      11.528   5.819 -12.605 -0.08 +0.06    -0.247 NA
DOCKED: ATOM      4  N   UNL d   1      10.022   3.350 -13.287 -0.02 +0.04    -0.247 NA
DOCKED: ATOM      5  N   UNL d   1      11.109   2.143 -10.915 -0.05 -0.00    -0.354 N 
DOCKED: ATOM      6  N   UNL d   1      12.652   4.715 -10.204 -0.09 -0.08    -0.354 N 
DOCKED: ATOM      7  C   UNL d   1      11.626   8.264 -12.744 -0.13 +0.00    +0.084 A 
DOCKED: ATOM      8  C   UNL d   1       9.059   3.211 -15.528 -0.08 -0.00    +0.084 A 
DOCKED: ATOM      9  C   UNL d   1       9.797   4.029 -14.463 -0.09 -0.01    +0.058 A 
DOCKED: ATOM     10  C   UNL d   1      12.049   6.971 -12.041 -0.17 -0.00    +0.058 A 
DOCKED: ATOM     11  C   UNL d   1      10.788   7.637 -13.817 -0.06 -0.04    +0.193 A 
DOCKED: ATOM     12  C   UNL d   1      10.829   6.151 -13.641 -0.10 -0.04    +0.109 A 
DOCKED: ATOM     13  C   UNL d   1       8.874   1.955 -14.725 -0.06 +0.00    +0.193 A 
DOCKED: ATOM     14  C   UNL d   1      10.728   9.132 -11.859 -0.27 -0.00    +0.026 C 
DOCKED: ATOM     15  C   UNL d   1      10.145   5.312 -14.646 -0.12 -0.01    +0.055 C 
DOCKED: ATOM     16  C   UNL d   1       9.957   2.901 -16.729 -0.03 +0.00    +0.026 C 
DOCKED: ATOM     17  C   UNL d   1       9.496   2.171 -13.384 -0.06 -0.00    +0.109 A 
DOCKED: ATOM     18  C   UNL d   1      12.927   6.981 -11.020 -0.29 +0.01    +0.050 C 
DOCKED: ATOM     19  C   UNL d   1      13.440   5.832 -10.365 -0.23 +0.01    +0.045 A 
DOCKED: ATOM     20  C   UNL d   1      10.182   1.194 -11.258 -0.15 -0.00    +0.045 A 
DOCKED: ATOM     21  C   UNL d   1       9.430   1.117 -12.361 -0.15 +0.00    +0.057 C 
DOCKED: ATOM     22  C   UNL d   1      11.067   0.658  -9.222 -0.27 -0.00    -0.019 A 
DOCKED: ATOM     23  C   UNL d   1      11.697   1.904  -9.701 -0.21 +0.01    +0.045 A 
DOCKED: ATOM     24  C   UNL d   1      10.172   0.241 -10.148 -0.21 -0.00    -0.022 A 
DOCKED: ATOM     25  C   UNL d   1      13.314   3.760  -9.467 -0.23 +0.02    +0.049 A 
DOCKED: ATOM     26  C   UNL d   1      14.657   5.583  -9.749 -0.26 -0.01    -0.018 A 
DOCKED: ATOM     27  C   UNL d   1      14.578   4.266  -9.201 -0.30 +0.00    +0.003 A 
DOCKED: ATOM     28  C   UNL d   1      12.647   2.580  -9.037 -0.30 +0.03    +0.052 C 
DOCKED: ATOM     29  C   UNL d   1       9.299  -0.967 -10.126 -0.26 +0.00    +0.046 C 
DOCKED: ATOM     30  C   UNL d   1      15.823   6.510  -9.675 -0.23 +0.02    +0.046 C 
DOCKED: ATOM     31  H   UNL d   1      11.365   2.885 -11.557 +0.05 -0.01    +0.166 HD
DOCKED: ATOM     32  H   UNL d   1      11.704   4.643 -10.553 +0.05 -0.00    +0.166 HD
DOCKED: ENDROOT
DOCKED: BRANCH   7  33
DOCKED: ATOM     33  C   UNL d   1      12.767   9.081 -13.360 -0.11 +0.05    +0.141 C 
DOCKED: BRANCH  33  34
DOCKED: ATOM     34  C   UNL d   1      12.279  10.318 -14.064 -0.05 +0.13    +0.306 C 
DOCKED: ATOM     35  O   UNL d   1      12.107  11.414 -13.558 -0.05 -0.17    -0.251 OA
DOCKED: BRANCH  34  36
DOCKED: ATOM     36  O   UNL d   1      12.035  10.110 -15.370 +0.00 -0.12    -0.481 OA
DOCKED: ATOM     37  H   UNL d   1      11.227   9.555 -15.385 +0.03 +0.03    +0.295 HD
DOCKED: ENDBRANCH  34  36
DOCKED: ENDBRANCH  33  34
DOCKED: ENDBRANCH   7  33
DOCKED: BRANCH  27  38
DOCKED: ATOM     38  C   UNL d   1      15.619   3.616  -8.464 -0.31 +0.01    +0.017 C 
DOCKED: ATOM     39  C   UNL d   1      16.224   4.114  -7.375 -0.10 +0.06    +0.092 C 
DOCKED: BRANCH  39  40
DOCKED: ATOM     40  C   UNL d   1      17.268   3.338  -6.700 -0.31 +0.15    +0.330 C 
DOCKED: ATOM     41  O   UNL d   1      18.321   3.743  -6.248 -0.36 -0.07    -0.246 OA
DOCKED: BRANCH  40  42
DOCKED: ATOM     42  O   UNL d   1      16.905   2.048  -6.621 -0.22 -0.26    -0.477 OA
DOCKED: ATOM     43  H   UNL d   1      17.736   1.560  -6.798 -0.35 -0.02    +0.295 HD
DOCKED: ENDBRANCH  40  42
DOCKED: ENDBRANCH  39  40
DOCKED: ENDBRANCH  27  38
DOCKED: BRANCH   8  44
DOCKED: ATOM     44  C   UNL d   1       7.708   3.778 -15.978 -0.12 -0.01    +0.141 C 
DOCKED: BRANCH  44  45
DOCKED: ATOM     45  C   UNL d   1       6.689   2.713 -16.284 -0.12 +0.01    +0.306 C 
DOCKED: ATOM     46  O   UNL d   1       5.643   2.516 -15.690 -0.22 -0.03    -0.251 OA
DOCKED: BRANCH  45  47
DOCKED: ATOM     47  O   UNL d   1       7.057   1.929 -17.313 -0.00 -0.03    -0.481 OA
DOCKED: ATOM     48  H   UNL d   1       7.536   1.181 -16.896 +0.04 +0.02    +0.295 HD
DOCKED: ENDBRANCH  45  47
DOCKED: ENDBRANCH  44  45
DOCKED: ENDBRANCH   8  44
DOCKED: BRANCH  22  49
DOCKED: ATOM     49  C   UNL d   1      11.384   0.004  -7.909 -0.44 +0.02    +0.048 C 
DOCKED: BRANCH  49  50
DOCKED: ATOM     50  C   UNL d   1      11.900  -1.423  -8.094 -0.40 +0.02    +0.125 C 
DOCKED: BRANCH  50  51
DOCKED: ATOM     51  C   UNL d   1      13.309  -1.554  -7.589 -0.32 +0.08    +0.305 C 
DOCKED: ATOM     52  O   UNL d   1      14.315  -1.767  -8.242 -0.33 -0.05    -0.251 OA
DOCKED: BRANCH  51  53
DOCKED: ATOM     53  O   UNL d   1      13.379  -1.420  -6.250 -0.64 -0.22    -0.481 OA
DOCKED: ATOM     54  H   UNL d   1      13.353  -2.341  -5.916 -0.31 -0.09    +0.295 HD
DOCKED: ENDBRANCH  51  53
DOCKED: ENDBRANCH  50  51
DOCKED: ENDBRANCH  49  50
DOCKED: ENDBRANCH  22  49
DOCKED: TORSDOF 13
DOCKED: TER
DOCKED: ENDMDL
________________________________________________________________________________


	BEGINNING GENETIC ALGORITHM DOCKING 78 of 100
Run: 78 Seed: 1791481802 15225818 [ Run 78 of 100 GA/GALS ]
Beginning LAMARCKIAN GENETIC ALGORITHM (LGA), with a maximum of 25000000 energy evaluations.

Final-Value: -10.900


	FINAL GENETIC ALGORITHM DOCKED STATE
	_______________________________________________


Detailed state:  trans 38.525 22.747 5.529 quatxyzw -0.440905 -0.432701 0.767131 -0.172866 center 0.153 0.018 -0.028 ntor 13 105.3623 -84.4177 -138.5972 -151.5082 -133.4391 -89.0669 128.5023 -87.5994 35.3639 -12.2524 174.7679 -93.3325 166.6307
State:	 38.525  22.747   5.529  -0.448 -0.439  0.779 -160.091    105.36  -84.42 -138.60 -151.51 -133.44  -89.07  128.50  -87.60   35.36  -12.25  174.77  -93.33  166.63

DOCKED: MODEL       78
DOCKED: USER    Run = 78
DOCKED: USER    DPF = D:/Protein_go_brrr/autodock/final/1A3N/heme/dock.dpf
DOCKED: USER  
DOCKED: USER    Estimated Free Energy of Binding    =   -4.22 kcal/mol  [=(1)+(2)+(3)-(4)]
DOCKED: USER    Estimated Inhibition Constant, Ki   =  803.41 uM (micromolar)  [Temperature = 298.15 K]
DOCKED: USER    
DOCKED: USER    (1) Final Intermolecular Energy     =   -8.10 kcal/mol
DOCKED: USER        vdW + Hbond + desolv Energy     =   -7.25 kcal/mol
DOCKED: USER        Electrostatic Energy            =   -0.85 kcal/mol
DOCKED: USER    (2) Final Total Internal Energy     =   -2.80 kcal/mol
DOCKED: USER    (3) Torsional Free Energy           =   +3.88 kcal/mol
DOCKED: USER    (4) Unbound System's Energy  [=(2)] =   -2.80 kcal/mol
DOCKED: USER    
DOCKED: USER    
DOCKED: USER    NEWDPF move heme_opt.pdbqt
DOCKED: USER    NEWDPF about 0.153000 0.018000 -0.028000
DOCKED: USER    NEWDPF tran0 38.524978 22.746589 5.529435
DOCKED: USER    NEWDPF quaternion0 -0.440905 -0.432701 0.767131 -0.172866
DOCKED: USER    NEWDPF axisangle0 -0.447644 -0.439315 0.778856 -160.090990
DOCKED: USER    NEWDPF quat0 -0.447644 -0.439315 0.778856 -160.090990
DOCKED: USER    NEWDPF dihe0 105.36 -84.42 -138.60 -151.51 -133.44 -89.07 128.50 -87.60 35.36 -12.25 174.77 -93.33 166.63 
DOCKED: USER  keepresnum = 1 
DOCKED: USER  
DOCKED: REMARK  13 active torsions:
DOCKED: REMARK  status: ('A' for Active; 'I' for Inactive)
DOCKED: REMARK    1  A    between atoms: O_3  and  C_38 
DOCKED: REMARK    2  A    between atoms: O_4  and  C_40 
DOCKED: REMARK    3  A    between atoms: O_7  and  C_46 
DOCKED: REMARK    4  A    between atoms: O_9  and  C_48 
DOCKED: REMARK    5  A    between atoms: C_15  and  C_20 
DOCKED: REMARK    6  A    between atoms: C_16  and  C_23 
DOCKED: REMARK    7  A    between atoms: C_20  and  C_38 
DOCKED: REMARK    8  A    between atoms: C_23  and  C_40 
DOCKED: REMARK    9  A    between atoms: C_32  and  C_41 
DOCKED: REMARK   10  A    between atoms: C_37  and  C_45 
DOCKED: REMARK   11  A    between atoms: C_41  and  C_44 
DOCKED: REMARK   12  A    between atoms: C_44  and  C_46 
DOCKED: REMARK   13  A    between atoms: C_47  and  C_48 
DOCKED: USER                              x       y       z     vdW  Elec       q    Type
DOCKED: USER                           _______ _______ _______ _____ _____    ______ ____
DOCKED: ROOT
DOCKED: ATOM      1  O   UNL d   1      41.280  17.830   7.260 -0.20 -0.02    -0.289 OA
DOCKED: ATOM      2  O   UNL d   1      40.731  24.577  10.511 -0.01 -0.06    -0.289 OA
DOCKED: ATOM      3  N   UNL d   1      39.649  20.488   5.785 -0.11 -0.10    -0.247 NA
DOCKED: ATOM      4  N   UNL d   1      39.692  22.574   7.900 -0.27 -0.20    -0.247 NA
DOCKED: ATOM      5  N   UNL d   1      37.738  24.030   6.374 +0.04 -0.42    -0.354 N 
DOCKED: ATOM      6  N   UNL d   1      37.685  21.851   4.194 -0.14 -0.13    -0.354 N 
DOCKED: ATOM      7  C   UNL d   1      39.931  18.114   5.242 -0.24 +0.01    +0.084 A 
DOCKED: ATOM      8  C   UNL d   1      41.497  22.464   9.544 -0.04 +0.02    +0.084 A 
DOCKED: ATOM      9  C   UNL d   1      40.766  21.839   8.351 -0.11 +0.02    +0.058 A 
DOCKED: ATOM     10  C   UNL d   1      39.338  19.481   4.887 -0.20 +0.01    +0.058 A 
DOCKED: ATOM     11  C   UNL d   1      40.647  18.530   6.491 -0.16 +0.03    +0.193 A 
DOCKED: ATOM     12  C   UNL d   1      40.421  19.996   6.699 -0.15 +0.03    +0.109 A 
DOCKED: ATOM     13  C   UNL d   1      40.617  23.670   9.710 -0.03 +0.06    +0.193 A 
DOCKED: ATOM     14  C   UNL d   1      38.848  17.096   5.608 -0.36 +0.00    +0.026 C 
DOCKED: ATOM     15  C   UNL d   1      41.112  20.653   7.827 -0.15 +0.02    +0.055 C 
DOCKED: ATOM     16  C   UNL d   1      42.906  22.930   9.165 -0.02 +0.00    +0.026 C 
DOCKED: ATOM     17  C   UNL d   1      39.558  23.615   8.658 -0.08 +0.08    +0.109 A 
DOCKED: ATOM     18  C   UNL d   1      38.655  19.675   3.743 -0.24 +0.01    +0.050 C 
DOCKED: ATOM     19  C   UNL d   1      38.144  20.918   3.291 -0.18 +0.01    +0.045 A 
DOCKED: ATOM     20  C   UNL d   1      37.719  24.757   7.535 +0.11 +0.05    +0.045 A 
DOCKED: ATOM     21  C   UNL d   1      38.518  24.653   8.602 -0.03 +0.05    +0.057 C 
DOCKED: ATOM     22  C   UNL d   1      36.051  25.508   6.168 -0.10 -0.01    -0.019 A 
DOCKED: ATOM     23  C   UNL d   1      36.766  24.410   5.487 -0.13 +0.03    +0.045 A 
DOCKED: ATOM     24  C   UNL d   1      36.620  25.709   7.379 -0.07 -0.01    -0.022 A 
DOCKED: ATOM     25  C   UNL d   1      37.154  22.937   3.539 -0.17 +0.01    +0.049 A 
DOCKED: ATOM     26  C   UNL d   1      37.939  21.428   2.018 -0.09 -0.00    -0.018 A 
DOCKED: ATOM     27  C   UNL d   1      37.332  22.711   2.182 -0.15 +0.00    +0.003 A 
DOCKED: ATOM     28  C   UNL d   1      36.476  23.961   4.256 -0.11 +0.01    +0.052 C 
DOCKED: ATOM     29  C   UNL d   1      36.260  26.710   8.424 -0.06 +0.01    +0.046 C 
DOCKED: ATOM     30  C   UNL d   1      38.288  20.767   0.728 -0.12 +0.00    +0.046 C 
DOCKED: ATOM     31  H   UNL d   1      38.463  23.344   6.194 +0.02 +0.16    +0.166 HD
DOCKED: ATOM     32  H   UNL d   1      37.707  21.716   5.198 +0.04 +0.12    +0.166 HD
DOCKED: ENDROOT
DOCKED: BRANCH   7  33
DOCKED: ATOM     33  C   UNL d   1      40.919  17.541   4.221 -0.14 +0.01    +0.141 C 
DOCKED: BRANCH  33  34
DOCKED: ATOM     34  C   UNL d   1      42.312  18.082   4.396 -0.04 +0.01    +0.306 C 
DOCKED: ATOM     35  O   UNL d   1      42.716  19.168   4.016 -0.01 -0.01    -0.251 OA
DOCKED: BRANCH  34  36
DOCKED: ATOM     36  O   UNL d   1      43.123  17.227   5.045 -0.02 -0.01    -0.481 OA
DOCKED: ATOM     37  H   UNL d   1      42.865  17.310   5.987 +0.09 +0.01    +0.295 HD
DOCKED: ENDBRANCH  34  36
DOCKED: ENDBRANCH  33  34
DOCKED: ENDBRANCH   7  33
DOCKED: BRANCH  27  38
DOCKED: ATOM     38  C   UNL d   1      36.936  23.579   1.113 -0.17 -0.00    +0.017 C 
DOCKED: ATOM     39  C   UNL d   1      35.699  24.062   0.926 -0.22 -0.01    +0.092 C 
DOCKED: BRANCH  39  40
DOCKED: ATOM     40  C   UNL d   1      35.428  24.959  -0.201 -0.10 -0.04    +0.330 C 
DOCKED: ATOM     41  O   UNL d   1      35.485  26.173  -0.215 -0.05 +0.02    -0.246 OA
DOCKED: BRANCH  40  42
DOCKED: ATOM     42  O   UNL d   1      35.097  24.246  -1.289 -0.06 +0.08    -0.477 OA
DOCKED: ATOM     43  H   UNL d   1      34.118  24.238  -1.275 -0.34 -0.12    +0.295 HD
DOCKED: ENDBRANCH  40  42
DOCKED: ENDBRANCH  39  40
DOCKED: ENDBRANCH  27  38
DOCKED: BRANCH   8  44
DOCKED: ATOM     44  C   UNL d   1      41.517  21.619  10.822 -0.08 +0.02    +0.141 C 
DOCKED: BRANCH  44  45
DOCKED: ATOM     45  C   UNL d   1      40.144  21.350  11.378 -0.16 +0.07    +0.306 C 
DOCKED: ATOM     46  O   UNL d   1      39.385  20.459  11.039 -0.32 -0.09    -0.251 OA
DOCKED: BRANCH  45  47
DOCKED: ATOM     47  O   UNL d   1      39.787  22.241  12.320 -0.07 -0.06    -0.481 OA
DOCKED: ATOM     48  H   UNL d   1      40.107  23.104  11.979 +0.06 +0.05    +0.295 HD
DOCKED: ENDBRANCH  45  47
DOCKED: ENDBRANCH  44  45
DOCKED: ENDBRANCH   8  44
DOCKED: BRANCH  22  49
DOCKED: ATOM     49  C   UNL d   1      34.879  26.240   5.583 -0.11 +0.00    +0.048 C 
DOCKED: BRANCH  49  50
DOCKED: ATOM     50  C   UNL d   1      33.568  25.487   5.807 -0.26 -0.02    +0.125 C 
DOCKED: BRANCH  50  51
DOCKED: ATOM     51  C   UNL d   1      33.818  24.158   6.463 -0.31 +0.13    +0.305 C 
DOCKED: ATOM     52  O   UNL d   1      33.966  23.078   5.920 -0.87 -0.17    -0.251 OA
DOCKED: BRANCH  51  53
DOCKED: ATOM     53  O   UNL d   1      33.857  24.259   7.807 -0.50 -0.16    -0.481 OA
DOCKED: ATOM     54  H   UNL d   1      33.283  25.028   8.005 -0.06 -0.37    +0.295 HD
DOCKED: ENDBRANCH  51  53
DOCKED: ENDBRANCH  50  51
DOCKED: ENDBRANCH  49  50
DOCKED: ENDBRANCH  22  49
DOCKED: TORSDOF 13
DOCKED: TER
DOCKED: ENDMDL
________________________________________________________________________________


	BEGINNING GENETIC ALGORITHM DOCKING 79 of 100
Run: 79 Seed: 474761509 727066535 [ Run 79 of 100 GA/GALS ]
Beginning LAMARCKIAN GENETIC ALGORITHM (LGA), with a maximum of 25000000 energy evaluations.

Final-Value: -16.054


	FINAL GENETIC ALGORITHM DOCKED STATE
	_______________________________________________


Detailed state:  trans 7.619 12.474 29.901 quatxyzw -0.281484 0.708071 0.002770 -0.647607 center 0.153 0.018 -0.028 ntor 13 -81.5506 -180.0000 -110.0539 68.3258 42.4113 14.6982 129.6171 84.7494 135.5532 -20.6638 -11.1020 -76.1458 18.3569
State:	  7.619  12.474  29.901  -0.369  0.929  0.004 -99.277    -81.55 -180.00 -110.05   68.33   42.41   14.70  129.62   84.75  135.55  -20.66  -11.10  -76.15   18.36

DOCKED: MODEL       79
DOCKED: USER    Run = 79
DOCKED: USER    DPF = D:/Protein_go_brrr/autodock/final/1A3N/heme/dock.dpf
DOCKED: USER  
DOCKED: USER    Estimated Free Energy of Binding    =   -8.36 kcal/mol  [=(1)+(2)+(3)-(4)]
DOCKED: USER    Estimated Inhibition Constant, Ki   =  748.06 nM (nanomolar)  [Temperature = 298.15 K]
DOCKED: USER    
DOCKED: USER    (1) Final Intermolecular Energy     =  -12.24 kcal/mol
DOCKED: USER        vdW + Hbond + desolv Energy     =  -12.00 kcal/mol
DOCKED: USER        Electrostatic Energy            =   -0.24 kcal/mol
DOCKED: USER    (2) Final Total Internal Energy     =   -3.82 kcal/mol
DOCKED: USER    (3) Torsional Free Energy           =   +3.88 kcal/mol
DOCKED: USER    (4) Unbound System's Energy  [=(2)] =   -3.82 kcal/mol
DOCKED: USER    
DOCKED: USER    
DOCKED: USER    NEWDPF move heme_opt.pdbqt
DOCKED: USER    NEWDPF about 0.153000 0.018000 -0.028000
DOCKED: USER    NEWDPF tran0 7.618900 12.474208 29.901007
DOCKED: USER    NEWDPF quaternion0 -0.281484 0.708071 0.002770 -0.647607
DOCKED: USER    NEWDPF axisangle0 -0.369413 0.929258 0.003635 -99.277218
DOCKED: USER    NEWDPF quat0 -0.369413 0.929258 0.003635 -99.277218
DOCKED: USER    NEWDPF dihe0 -81.55 -180.00 -110.05 68.33 42.41 14.70 129.62 84.75 135.55 -20.66 -11.10 -76.15 18.36 
DOCKED: USER  keepresnum = 1 
DOCKED: USER  
DOCKED: REMARK  13 active torsions:
DOCKED: REMARK  status: ('A' for Active; 'I' for Inactive)
DOCKED: REMARK    1  A    between atoms: O_3  and  C_38 
DOCKED: REMARK    2  A    between atoms: O_4  and  C_40 
DOCKED: REMARK    3  A    between atoms: O_7  and  C_46 
DOCKED: REMARK    4  A    between atoms: O_9  and  C_48 
DOCKED: REMARK    5  A    between atoms: C_15  and  C_20 
DOCKED: REMARK    6  A    between atoms: C_16  and  C_23 
DOCKED: REMARK    7  A    between atoms: C_20  and  C_38 
DOCKED: REMARK    8  A    between atoms: C_23  and  C_40 
DOCKED: REMARK    9  A    between atoms: C_32  and  C_41 
DOCKED: REMARK   10  A    between atoms: C_37  and  C_45 
DOCKED: REMARK   11  A    between atoms: C_41  and  C_44 
DOCKED: REMARK   12  A    between atoms: C_44  and  C_46 
DOCKED: REMARK   13  A    between atoms: C_47  and  C_48 
DOCKED: USER                              x       y       z     vdW  Elec       q    Type
DOCKED: USER                           _______ _______ _______ _____ _____    ______ ____
DOCKED: ROOT
DOCKED: ATOM      1  O   UNL d   1       7.548  16.351  34.342 -0.38 -0.32    -0.289 OA
DOCKED: ATOM      2  O   UNL d   1       8.130   8.864  34.344 -0.39 -0.15    -0.289 OA
DOCKED: ATOM      3  N   UNL d   1       7.405  14.465  31.458 -0.17 -0.11    -0.247 NA
DOCKED: ATOM      4  N   UNL d   1       8.021  11.718  32.407 -0.17 -0.11    -0.247 NA
DOCKED: ATOM      5  N   UNL d   1       8.400  10.954  29.661 -0.17 -0.08    -0.354 N 
DOCKED: ATOM      6  N   UNL d   1       7.780  13.812  28.686 -0.15 -0.06    -0.354 N 
DOCKED: ATOM      7  C   UNL d   1       7.458  16.865  31.954 -0.21 +0.04    +0.084 A 
DOCKED: ATOM      8  C   UNL d   1       7.499  11.196  34.736 -0.24 +0.05    +0.084 A 
DOCKED: ATOM      9  C   UNL d   1       7.585  12.230  33.608 -0.24 +0.04    +0.058 A 
DOCKED: ATOM     10  C   UNL d   1       7.407  15.740  30.916 -0.28 +0.02    +0.058 A 
DOCKED: ATOM     11  C   UNL d   1       7.466  16.001  33.179 -0.15 +0.16    +0.193 A 
DOCKED: ATOM     12  C   UNL d   1       7.405  14.568  32.747 -0.22 +0.08    +0.109 A 
DOCKED: ATOM     13  C   UNL d   1       8.003  10.011  33.962 -0.28 +0.09    +0.193 A 
DOCKED: ATOM     14  C   UNL d   1       8.773  17.646  31.891 -0.17 +0.01    +0.026 C 
DOCKED: ATOM     15  C   UNL d   1       7.308  13.530  33.792 -0.25 +0.05    +0.055 C 
DOCKED: ATOM     16  C   UNL d   1       6.050  10.932  35.155 -0.21 +0.02    +0.026 C 
DOCKED: ATOM     17  C   UNL d   1       8.290  10.462  32.567 -0.32 +0.04    +0.109 A 
DOCKED: ATOM     18  C   UNL d   1       7.284  16.001  29.601 -0.32 +0.01    +0.050 C 
DOCKED: ATOM     19  C   UNL d   1       7.145  15.028  28.579 -0.39 +0.01    +0.045 A 
DOCKED: ATOM     20  C   UNL d   1       8.873   9.829  30.286 -0.39 +0.01    +0.045 A 
DOCKED: ATOM     21  C   UNL d   1       8.842   9.517  31.585 -0.39 +0.02    +0.057 C 
DOCKED: ATOM     22  C   UNL d   1       9.282   9.656  28.045 -0.42 -0.00    -0.019 A 
DOCKED: ATOM     23  C   UNL d   1       8.602  10.941  28.306 -0.32 +0.01    +0.045 A 
DOCKED: ATOM     24  C   UNL d   1       9.438   9.002  29.220 -0.42 -0.00    -0.022 A 
DOCKED: ATOM     25  C   UNL d   1       7.584  13.062  27.549 -0.24 +0.00    +0.049 A 
DOCKED: ATOM     26  C   UNL d   1       6.489  15.056  27.357 -0.45 -0.00    -0.018 A 
DOCKED: ATOM     27  C   UNL d   1       6.754  13.804  26.720 -0.39 +0.00    +0.003 A 
DOCKED: ATOM     28  C   UNL d   1       8.271  11.832  27.360 +0.19 +0.00    +0.052 C 
DOCKED: ATOM     29  C   UNL d   1      10.055   7.668  29.471 -0.48 +0.01    +0.046 C 
DOCKED: ATOM     30  C   UNL d   1       5.665  16.173  26.814 -0.19 +0.00    +0.046 C 
DOCKED: ATOM     31  H   UNL d   1       7.887  11.664  30.173 +0.09 +0.05    +0.166 HD
DOCKED: ATOM     32  H   UNL d   1       8.343  13.542  29.484 +0.08 +0.03    +0.166 HD
DOCKED: ENDROOT
DOCKED: BRANCH   7  33
DOCKED: ATOM     33  C   UNL d   1       6.247  17.804  31.965 -0.18 +0.06    +0.141 C 
DOCKED: BRANCH  33  34
DOCKED: ATOM     34  C   UNL d   1       6.396  18.929  32.953 -0.10 +0.12    +0.306 C 
DOCKED: ATOM     35  O   UNL d   1       6.785  20.058  32.706 -0.05 -0.06    -0.251 OA
DOCKED: BRANCH  34  36
DOCKED: ATOM     36  O   UNL d   1       6.043  18.573  34.201 -0.08 -0.33    -0.481 OA
DOCKED: ATOM     37  H   UNL d   1       6.888  18.328  34.636 +0.04 +0.21    +0.295 HD
DOCKED: ENDBRANCH  34  36
DOCKED: ENDBRANCH  33  34
DOCKED: ENDBRANCH   7  33
DOCKED: BRANCH  27  38
DOCKED: ATOM     38  C   UNL d   1       6.277  13.419  25.426 -0.40 +0.00    +0.017 C 
DOCKED: ATOM     39  C   UNL d   1       6.982  12.735  24.513 -0.38 +0.01    +0.092 C 
DOCKED: BRANCH  39  40
DOCKED: ATOM     40  C   UNL d   1       6.369  12.387  23.228 -0.07 +0.02    +0.330 C 
DOCKED: ATOM     41  O   UNL d   1       5.333  12.817  22.758 -0.30 -0.01    -0.246 OA
DOCKED: BRANCH  40  42
DOCKED: ATOM     42  O   UNL d   1       7.131  11.491  22.581 -0.10 -0.02    -0.477 OA
DOCKED: ATOM     43  H   UNL d   1       7.886  11.343  23.187 +0.20 +0.02    +0.295 HD
DOCKED: ENDBRANCH  40  42
DOCKED: ENDBRANCH  39  40
DOCKED: ENDBRANCH  27  38
DOCKED: BRANCH   8  44
DOCKED: ATOM     44  C   UNL d   1       8.386  11.474  35.955 -0.16 +0.10    +0.141 C 
DOCKED: BRANCH  44  45
DOCKED: ATOM     45  C   UNL d   1       9.854  11.290  35.675 -0.13 +0.30    +0.306 C 
DOCKED: ATOM     46  O   UNL d   1      10.614  12.119  35.205 -0.65 -0.34    -0.251 OA
DOCKED: BRANCH  45  47
DOCKED: ATOM     47  O   UNL d   1      10.285  10.053  35.979 -0.20 -0.48    -0.481 OA
DOCKED: ATOM     48  H   UNL d   1       9.862   9.472  35.311 +0.14 +0.25    +0.295 HD
DOCKED: ENDBRANCH  45  47
DOCKED: ENDBRANCH  44  45
DOCKED: ENDBRANCH   8  44
DOCKED: BRANCH  22  49
DOCKED: ATOM     49  C   UNL d   1       9.724   9.198  26.686 -0.38 +0.01    +0.048 C 
DOCKED: BRANCH  49  50
DOCKED: ATOM     50  C   UNL d   1       8.537   8.961  25.752 -0.40 +0.01    +0.125 C 
DOCKED: BRANCH  50  51
DOCKED: ATOM     51  C   UNL d   1       9.001   8.747  24.339 -0.37 +0.03    +0.305 C 
DOCKED: ATOM     52  O   UNL d   1       9.473   7.733  23.857 -0.48 -0.03    -0.251 OA
DOCKED: BRANCH  51  53
DOCKED: ATOM     53  O   UNL d   1       8.855   9.857  23.587 -0.15 -0.03    -0.481 OA
DOCKED: ATOM     54  H   UNL d   1       8.154   9.618  22.945 +0.22 +0.02    +0.295 HD
DOCKED: ENDBRANCH  51  53
DOCKED: ENDBRANCH  50  51
DOCKED: ENDBRANCH  49  50
DOCKED: ENDBRANCH  22  49
DOCKED: TORSDOF 13
DOCKED: TER
DOCKED: ENDMDL
________________________________________________________________________________


	BEGINNING GENETIC ALGORITHM DOCKING 80 of 100
Run: 80 Seed: 1419513185 1144568903 [ Run 80 of 100 GA/GALS ]
Beginning LAMARCKIAN GENETIC ALGORITHM (LGA), with a maximum of 25000000 energy evaluations.

Final-Value: -11.885


	FINAL GENETIC ALGORITHM DOCKED STATE
	_______________________________________________


Detailed state:  trans 26.838 12.746 -9.593 quatxyzw 0.302398 -0.351538 0.516677 -0.719737 center 0.153 0.018 -0.028 ntor 13 176.0771 -152.9289 -105.7038 -8.9514 -150.6055 52.7283 135.1549 -112.4251 13.1258 -53.5765 -85.4804 -74.2822 -8.5237
State:	 26.838  12.746  -9.593   0.436 -0.506  0.744 -87.934    176.08 -152.93 -105.70   -8.95 -150.61   52.73  135.15 -112.43   13.13  -53.58  -85.48  -74.28   -8.52

DOCKED: MODEL       80
DOCKED: USER    Run = 80
DOCKED: USER    DPF = D:/Protein_go_brrr/autodock/final/1A3N/heme/dock.dpf
DOCKED: USER  
DOCKED: USER    Estimated Free Energy of Binding    =   -3.30 kcal/mol  [=(1)+(2)+(3)-(4)]
DOCKED: USER    Estimated Inhibition Constant, Ki   =    3.82 mM (millimolar)  [Temperature = 298.15 K]
DOCKED: USER    
DOCKED: USER    (1) Final Intermolecular Energy     =   -7.18 kcal/mol
DOCKED: USER        vdW + Hbond + desolv Energy     =   -7.15 kcal/mol
DOCKED: USER        Electrostatic Energy            =   -0.02 kcal/mol
DOCKED: USER    (2) Final Total Internal Energy     =   -4.71 kcal/mol
DOCKED: USER    (3) Torsional Free Energy           =   +3.88 kcal/mol
DOCKED: USER    (4) Unbound System's Energy  [=(2)] =   -4.71 kcal/mol
DOCKED: USER    
DOCKED: USER    
DOCKED: USER    NEWDPF move heme_opt.pdbqt
DOCKED: USER    NEWDPF about 0.153000 0.018000 -0.028000
DOCKED: USER    NEWDPF tran0 26.838099 12.746439 -9.593439
DOCKED: USER    NEWDPF quaternion0 0.302398 -0.351538 0.516677 -0.719737
DOCKED: USER    NEWDPF axisangle0 0.435577 -0.506359 0.744226 -87.934479
DOCKED: USER    NEWDPF quat0 0.435577 -0.506359 0.744226 -87.934479
DOCKED: USER    NEWDPF dihe0 176.08 -152.93 -105.70 -8.95 -150.61 52.73 135.15 -112.43 13.13 -53.58 -85.48 -74.28 -8.52 
DOCKED: USER  keepresnum = 1 
DOCKED: USER  
DOCKED: REMARK  13 active torsions:
DOCKED: REMARK  status: ('A' for Active; 'I' for Inactive)
DOCKED: REMARK    1  A    between atoms: O_3  and  C_38 
DOCKED: REMARK    2  A    between atoms: O_4  and  C_40 
DOCKED: REMARK    3  A    between atoms: O_7  and  C_46 
DOCKED: REMARK    4  A    between atoms: O_9  and  C_48 
DOCKED: REMARK    5  A    between atoms: C_15  and  C_20 
DOCKED: REMARK    6  A    between atoms: C_16  and  C_23 
DOCKED: REMARK    7  A    between atoms: C_20  and  C_38 
DOCKED: REMARK    8  A    between atoms: C_23  and  C_40 
DOCKED: REMARK    9  A    between atoms: C_32  and  C_41 
DOCKED: REMARK   10  A    between atoms: C_37  and  C_45 
DOCKED: REMARK   11  A    between atoms: C_41  and  C_44 
DOCKED: REMARK   12  A    between atoms: C_44  and  C_46 
DOCKED: REMARK   13  A    between atoms: C_47  and  C_48 
DOCKED: USER                              x       y       z     vdW  Elec       q    Type
DOCKED: USER                           _______ _______ _______ _____ _____    ______ ____
DOCKED: ROOT
DOCKED: ATOM      1  O   UNL d   1      23.869   9.727 -13.695 -0.01 -0.15    -0.289 OA
DOCKED: ATOM      2  O   UNL d   1      31.196  11.224 -13.017 -0.02 -0.06    -0.289 OA
DOCKED: ATOM      3  N   UNL d   1      25.150  11.680 -11.157 -0.05 -0.13    -0.247 NA
DOCKED: ATOM      4  N   UNL d   1      28.088  11.452 -11.536 -0.08 -0.15    -0.247 NA
DOCKED: ATOM      5  N   UNL d   1      28.421  12.600  -8.921 -0.05 -0.09    -0.354 N 
DOCKED: ATOM      6  N   UNL d   1      25.371  12.815  -8.529 -0.05 -0.10    -0.354 N 
DOCKED: ATOM      7  C   UNL d   1      22.938  10.768 -11.689 -0.07 +0.04    +0.084 A 
DOCKED: ATOM      8  C   UNL d   1      28.889  10.957 -13.791 -0.05 +0.03    +0.084 A 
DOCKED: ATOM      9  C   UNL d   1      27.715  11.130 -12.822 -0.08 +0.03    +0.058 A 
DOCKED: ATOM     10  C   UNL d   1      23.829  11.589 -10.752 -0.10 +0.03    +0.058 A 
DOCKED: ATOM     11  C   UNL d   1      23.985  10.427 -12.705 -0.03 +0.11    +0.193 A 
DOCKED: ATOM     12  C   UNL d   1      25.276  11.058 -12.284 -0.06 +0.07    +0.109 A 
DOCKED: ATOM     13  C   UNL d   1      29.999  11.203 -12.808 -0.05 +0.07    +0.193 A 
DOCKED: ATOM     14  C   UNL d   1      22.447   9.477 -11.030 -0.13 +0.01    +0.026 C 
DOCKED: ATOM     15  C   UNL d   1      26.439  10.934 -13.186 -0.07 +0.03    +0.055 C 
DOCKED: ATOM     16  C   UNL d   1      28.918  12.061 -14.852 -0.01 +0.01    +0.026 C 
DOCKED: ATOM     17  C   UNL d   1      29.381  11.483 -11.477 -0.08 +0.05    +0.109 A 
DOCKED: ATOM     18  C   UNL d   1      23.321  12.231  -9.683 -0.15 +0.02    +0.050 C 
DOCKED: ATOM     19  C   UNL d   1      24.050  13.079  -8.811 -0.17 +0.01    +0.045 A 
DOCKED: ATOM     20  C   UNL d   1      29.711  12.210  -9.173 -0.14 +0.01    +0.045 A 
DOCKED: ATOM     21  C   UNL d   1      30.233  11.721 -10.302 -0.12 +0.01    +0.057 C 
DOCKED: ATOM     22  C   UNL d   1      29.570  12.944  -7.015 -0.27 -0.00    -0.019 A 
DOCKED: ATOM     23  C   UNL d   1      28.239  13.057  -7.643 -0.16 +0.01    +0.045 A 
DOCKED: ATOM     24  C   UNL d   1      30.437  12.443  -7.926 -0.25 -0.00    -0.022 A 
DOCKED: ATOM     25  C   UNL d   1      25.853  13.704  -7.596 -0.14 +0.01    +0.049 A 
DOCKED: ATOM     26  C   UNL d   1      23.674  14.190  -8.071 -0.27 -0.00    -0.018 A 
DOCKED: ATOM     27  C   UNL d   1      24.823  14.592  -7.321 -0.17 +0.00    +0.003 A 
DOCKED: ATOM     28  C   UNL d   1      27.146  13.537  -7.030 -0.20 +0.01    +0.052 C 
DOCKED: ATOM     29  C   UNL d   1      31.893  12.160  -7.771 -0.28 -0.02    +0.046 C 
DOCKED: ATOM     30  C   UNL d   1      22.333  14.841  -8.062 -0.38 +0.01    +0.046 C 
DOCKED: ATOM     31  H   UNL d   1      27.721  12.610  -9.655 +0.03 +0.05    +0.166 HD
DOCKED: ATOM     32  H   UNL d   1      25.887  12.042  -8.932 +0.04 +0.07    +0.166 HD
DOCKED: ENDROOT
DOCKED: BRANCH   7  33
DOCKED: ATOM     33  C   UNL d   1      21.786  11.539 -12.343 -0.06 +0.05    +0.141 C 
DOCKED: BRANCH  33  34
DOCKED: ATOM     34  C   UNL d   1      22.264  12.678 -13.202 -0.01 +0.09    +0.306 C 
DOCKED: ATOM     35  O   UNL d   1      22.351  13.847 -12.865 -0.01 -0.06    -0.251 OA
DOCKED: BRANCH  34  36
DOCKED: ATOM     36  O   UNL d   1      22.611  12.284 -14.440 +0.01 -0.12    -0.481 OA
DOCKED: ATOM     37  H   UNL d   1      22.551  11.305 -14.413 +0.01 +0.08    +0.295 HD
DOCKED: ENDBRANCH  34  36
DOCKED: ENDBRANCH  33  34
DOCKED: ENDBRANCH   7  33
DOCKED: BRANCH  27  38
DOCKED: ATOM     38  C   UNL d   1      24.868  15.696  -6.410 -0.34 +0.00    +0.017 C 
DOCKED: ATOM     39  C   UNL d   1      25.542  15.714  -5.250 -0.28 +0.02    +0.092 C 
DOCKED: BRANCH  39  40
DOCKED: ATOM     40  C   UNL d   1      25.521  16.917  -4.413 -0.36 +0.05    +0.330 C 
DOCKED: ATOM     41  O   UNL d   1      24.549  17.548  -4.041 -0.96 -0.08    -0.246 OA
DOCKED: BRANCH  40  42
DOCKED: ATOM     42  O   UNL d   1      26.771  17.264  -4.071 -0.20 -0.04    -0.477 OA
DOCKED: ATOM     43  H   UNL d   1      27.321  16.910  -4.801 +0.14 +0.04    +0.295 HD
DOCKED: ENDBRANCH  40  42
DOCKED: ENDBRANCH  39  40
DOCKED: ENDBRANCH  27  38
DOCKED: BRANCH   8  44
DOCKED: ATOM     44  C   UNL d   1      29.019   9.570 -14.430 -0.05 +0.06    +0.141 C 
DOCKED: BRANCH  44  45
DOCKED: ATOM     45  C   UNL d   1      30.109   8.733 -13.815 -0.05 +0.15    +0.306 C 
DOCKED: ATOM     46  O   UNL d   1      29.991   7.957 -12.883 -0.07 -0.19    -0.251 OA
DOCKED: BRANCH  45  47
DOCKED: ATOM     47  O   UNL d   1      31.305   8.938 -14.396 +0.00 -0.13    -0.481 OA
DOCKED: ATOM     48  H   UNL d   1      31.588   9.821 -14.074 +0.02 +0.07    +0.295 HD
DOCKED: ENDBRANCH  45  47
DOCKED: ENDBRANCH  44  45
DOCKED: ENDBRANCH   8  44
DOCKED: BRANCH  22  49
DOCKED: ATOM     49  C   UNL d   1      29.865  13.319  -5.592 -0.36 -0.00    +0.048 C 
DOCKED: BRANCH  49  50
DOCKED: ATOM     50  C   UNL d   1      30.330  14.769  -5.470 -0.29 +0.00    +0.125 C 
DOCKED: BRANCH  50  51
DOCKED: ATOM     51  C   UNL d   1      29.181  15.676  -5.132 -0.18 +0.03    +0.305 C 
DOCKED: ATOM     52  O   UNL d   1      28.749  16.605  -5.791 -0.11 -0.02    -0.251 OA
DOCKED: BRANCH  51  53
DOCKED: ATOM     53  O   UNL d   1      28.626  15.365  -3.943 -0.57 -0.12    -0.481 OA
DOCKED: ATOM     54  H   UNL d   1      28.008  16.104  -3.768 +0.18 +0.11    +0.295 HD
DOCKED: ENDBRANCH  51  53
DOCKED: ENDBRANCH  50  51
DOCKED: ENDBRANCH  49  50
DOCKED: ENDBRANCH  22  49
DOCKED: TORSDOF 13
DOCKED: TER
DOCKED: ENDMDL
________________________________________________________________________________


	BEGINNING GENETIC ALGORITHM DOCKING 81 of 100
Run: 81 Seed: 658638346 116499281 [ Run 81 of 100 GA/GALS ]
Beginning LAMARCKIAN GENETIC ALGORITHM (LGA), with a maximum of 25000000 energy evaluations.

Final-Value: -11.211


	FINAL GENETIC ALGORITHM DOCKED STATE
	_______________________________________________


Detailed state:  trans 18.761 15.404 35.634 quatxyzw 0.847156 0.372850 -0.276760 -0.258289 center 0.153 0.018 -0.028 ntor 13 109.2484 -174.3308 -129.6615 -44.1733 179.8847 86.0430 126.2898 -83.4588 -22.0911 -29.0643 -92.2430 -94.3093 -4.4213
State:	 18.761  15.404  35.634   0.877  0.386 -0.286 -150.063    109.25 -174.33 -129.66  -44.17  179.88   86.04  126.29  -83.46  -22.09  -29.06  -92.24  -94.31   -4.42

DOCKED: MODEL       81
DOCKED: USER    Run = 81
DOCKED: USER    DPF = D:/Protein_go_brrr/autodock/final/1A3N/heme/dock.dpf
DOCKED: USER  
DOCKED: USER    Estimated Free Energy of Binding    =   -2.67 kcal/mol  [=(1)+(2)+(3)-(4)]
DOCKED: USER    Estimated Inhibition Constant, Ki   =   11.01 mM (millimolar)  [Temperature = 298.15 K]
DOCKED: USER    
DOCKED: USER    (1) Final Intermolecular Energy     =   -6.55 kcal/mol
DOCKED: USER        vdW + Hbond + desolv Energy     =   -6.25 kcal/mol
DOCKED: USER        Electrostatic Energy            =   -0.30 kcal/mol
DOCKED: USER    (2) Final Total Internal Energy     =   -4.66 kcal/mol
DOCKED: USER    (3) Torsional Free Energy           =   +3.88 kcal/mol
DOCKED: USER    (4) Unbound System's Energy  [=(2)] =   -4.66 kcal/mol
DOCKED: USER    
DOCKED: USER    
DOCKED: USER    NEWDPF move heme_opt.pdbqt
DOCKED: USER    NEWDPF about 0.153000 0.018000 -0.028000
DOCKED: USER    NEWDPF tran0 18.761288 15.404118 35.633656
DOCKED: USER    NEWDPF quaternion0 0.847156 0.372850 -0.276760 -0.258289
DOCKED: USER    NEWDPF axisangle0 0.876912 0.385946 -0.286481 -150.062867
DOCKED: USER    NEWDPF quat0 0.876912 0.385946 -0.286481 -150.062867
DOCKED: USER    NEWDPF dihe0 109.25 -174.33 -129.66 -44.17 179.88 86.04 126.29 -83.46 -22.09 -29.06 -92.24 -94.31 -4.42 
DOCKED: USER  keepresnum = 1 
DOCKED: USER  
DOCKED: REMARK  13 active torsions:
DOCKED: REMARK  status: ('A' for Active; 'I' for Inactive)
DOCKED: REMARK    1  A    between atoms: O_3  and  C_38 
DOCKED: REMARK    2  A    between atoms: O_4  and  C_40 
DOCKED: REMARK    3  A    between atoms: O_7  and  C_46 
DOCKED: REMARK    4  A    between atoms: O_9  and  C_48 
DOCKED: REMARK    5  A    between atoms: C_15  and  C_20 
DOCKED: REMARK    6  A    between atoms: C_16  and  C_23 
DOCKED: REMARK    7  A    between atoms: C_20  and  C_38 
DOCKED: REMARK    8  A    between atoms: C_23  and  C_40 
DOCKED: REMARK    9  A    between atoms: C_32  and  C_41 
DOCKED: REMARK   10  A    between atoms: C_37  and  C_45 
DOCKED: REMARK   11  A    between atoms: C_41  and  C_44 
DOCKED: REMARK   12  A    between atoms: C_44  and  C_46 
DOCKED: REMARK   13  A    between atoms: C_47  and  C_48 
DOCKED: USER                              x       y       z     vdW  Elec       q    Type
DOCKED: USER                           _______ _______ _______ _____ _____    ______ ____
DOCKED: ROOT
DOCKED: ATOM      1  O   UNL d   1      16.699  11.250  39.274 -0.05 -0.10    -0.289 OA
DOCKED: ATOM      2  O   UNL d   1      13.932  17.974  37.397 -0.03 -0.06    -0.289 OA
DOCKED: ATOM      3  N   UNL d   1      18.351  13.430  37.172 -0.05 -0.06    -0.247 NA
DOCKED: ATOM      4  N   UNL d   1      16.390  15.629  36.790 -0.11 -0.10    -0.247 NA
DOCKED: ATOM      5  N   UNL d   1      18.006  16.566  34.605 -0.10 -0.07    -0.354 N 
DOCKED: ATOM      6  N   UNL d   1      20.025  14.270  34.996 -0.13 -0.02    -0.354 N 
DOCKED: ATOM      7  C   UNL d   1      18.726  11.124  37.913 -0.14 -0.01    +0.084 A 
DOCKED: ATOM      8  C   UNL d   1      14.751  15.987  38.568 -0.06 +0.03    +0.084 A 
DOCKED: ATOM      9  C   UNL d   1      15.893  15.150  37.982 -0.12 +0.02    +0.058 A 
DOCKED: ATOM     10  C   UNL d   1      19.175  12.321  37.071 -0.19 -0.00    +0.058 A 
DOCKED: ATOM     11  C   UNL d   1      17.513  11.758  38.524 -0.08 +0.05    +0.193 A 
DOCKED: ATOM     12  C   UNL d   1      17.409  13.163  38.017 -0.09 +0.04    +0.109 A 
DOCKED: ATOM     13  C   UNL d   1      14.666  17.008  37.469 -0.06 +0.05    +0.193 A 
DOCKED: ATOM     14  C   UNL d   1      18.284   9.944  37.045 -0.24 -0.00    +0.026 C 
DOCKED: ATOM     15  C   UNL d   1      16.334  14.020  38.557 -0.12 +0.02    +0.055 C 
DOCKED: ATOM     16  C   UNL d   1      15.168  16.690  39.863 -0.02 +0.00    +0.026 C 
DOCKED: ATOM     17  C   UNL d   1      15.707  16.675  36.450 -0.14 +0.03    +0.109 A 
DOCKED: ATOM     18  C   UNL d   1      20.326  12.298  36.372 -0.29 -0.02    +0.050 C 
DOCKED: ATOM     19  C   UNL d   1      20.862  13.384  35.634 -0.26 -0.01    +0.045 A 
DOCKED: ATOM     20  C   UNL d   1      16.899  17.357  34.435 -0.22 +0.01    +0.045 A 
DOCKED: ATOM     21  C   UNL d   1      15.831  17.485  35.229 -0.15 +0.01    +0.057 C 
DOCKED: ATOM     22  C   UNL d   1      18.309  17.671  32.665 -0.41 -0.00    -0.019 A 
DOCKED: ATOM     23  C   UNL d   1      18.913  16.687  33.586 -0.30 +0.01    +0.045 A 
DOCKED: ATOM     24  C   UNL d   1      17.117  18.064  33.174 -0.33 -0.00    -0.022 A 
DOCKED: ATOM     25  C   UNL d   1      20.753  15.185  34.270 -0.16 -0.00    +0.049 A 
DOCKED: ATOM     26  C   UNL d   1      22.167  13.753  35.347 -0.18 +0.00    -0.018 A 
DOCKED: ATOM     27  C   UNL d   1      22.093  14.902  34.501 -0.16 -0.00    +0.003 A 
DOCKED: ATOM     28  C   UNL d   1      20.108  16.105  33.400 -0.23 +0.00    +0.052 C 
DOCKED: ATOM     29  C   UNL d   1      16.144  19.047  32.617 -0.36 +0.00    +0.046 C 
DOCKED: ATOM     30  C   UNL d   1      23.409  13.082  35.828 -0.14 -0.02    +0.046 C 
DOCKED: ATOM     31  H   UNL d   1      18.140  16.023  35.451 +0.05 +0.04    +0.166 HD
DOCKED: ATOM     32  H   UNL d   1      19.015  14.214  35.034 +0.06 +0.05    +0.166 HD
DOCKED: ENDROOT
DOCKED: BRANCH   7  33
DOCKED: ATOM     33  C   UNL d   1      19.709  10.683  39.003 -0.03 -0.07    +0.141 C 
DOCKED: BRANCH  33  34
DOCKED: ATOM     34  C   UNL d   1      20.603  11.801  39.464 -0.04 -0.10    +0.306 C 
DOCKED: ATOM     35  O   UNL d   1      21.822  11.782  39.496 -0.07 +0.11    -0.251 OA
DOCKED: BRANCH  34  36
DOCKED: ATOM     36  O   UNL d   1      19.915  12.887  39.857 +0.01 +0.03    -0.481 OA
DOCKED: ATOM     37  H   UNL d   1      19.583  13.285  39.024 +0.05 -0.01    +0.295 HD
DOCKED: ENDBRANCH  34  36
DOCKED: ENDBRANCH  33  34
DOCKED: ENDBRANCH   7  33
DOCKED: BRANCH  27  38
DOCKED: ATOM     38  C   UNL d   1      23.218  15.599  33.954 -0.14 -0.00    +0.017 C 
DOCKED: ATOM     39  C   UNL d   1      23.442  15.803  32.647 -0.17 -0.00    +0.092 C 
DOCKED: BRANCH  39  40
DOCKED: ATOM     40  C   UNL d   1      24.627  16.550  32.218 -0.06 -0.02    +0.330 C 
DOCKED: ATOM     41  O   UNL d   1      25.756  16.125  32.055 -0.03 +0.02    -0.246 OA
DOCKED: BRANCH  40  42
DOCKED: ATOM     42  O   UNL d   1      24.309  17.836  32.001 -0.03 +0.02    -0.477 OA
DOCKED: ATOM     43  H   UNL d   1      23.376  17.898  32.291 +0.06 -0.01    +0.295 HD
DOCKED: ENDBRANCH  40  42
DOCKED: ENDBRANCH  39  40
DOCKED: ENDBRANCH  27  38
DOCKED: BRANCH   8  44
DOCKED: ATOM     44  C   UNL d   1      13.416  15.254  38.739 -0.06 +0.06    +0.141 C 
DOCKED: BRANCH  44  45
DOCKED: ATOM     45  C   UNL d   1      12.643  15.119  37.455 -0.08 +0.19    +0.306 C 
DOCKED: ATOM     46  O   UNL d   1      12.808  14.273  36.593 -0.09 -0.28    -0.251 OA
DOCKED: BRANCH  45  47
DOCKED: ATOM     47  O   UNL d   1      11.714  16.080  37.310 -0.01 -0.21    -0.481 OA
DOCKED: ATOM     48  H   UNL d   1      12.193  16.917  37.490 +0.03 +0.10    +0.295 HD
DOCKED: ENDBRANCH  45  47
DOCKED: ENDBRANCH  44  45
DOCKED: ENDBRANCH   8  44
DOCKED: BRANCH  22  49
DOCKED: ATOM     49  C   UNL d   1      18.939  18.119  31.379 -0.36 -0.00    +0.048 C 
DOCKED: BRANCH  49  50
DOCKED: ATOM     50  C   UNL d   1      19.876  19.307  31.589 -0.26 -0.02    +0.125 C 
DOCKED: BRANCH  50  51
DOCKED: ATOM     51  C   UNL d   1      21.268  18.842  31.913 -0.12 -0.02    +0.305 C 
DOCKED: ATOM     52  O   UNL d   1      21.737  18.613  33.013 -0.07 +0.01    -0.251 OA
DOCKED: BRANCH  51  53
DOCKED: ATOM     53  O   UNL d   1      22.022  18.698  30.805 -0.08 +0.04    -0.481 OA
DOCKED: ATOM     54  H   UNL d   1      22.878  19.110  31.044 +0.07 -0.03    +0.295 HD
DOCKED: ENDBRANCH  51  53
DOCKED: ENDBRANCH  50  51
DOCKED: ENDBRANCH  49  50
DOCKED: ENDBRANCH  22  49
DOCKED: TORSDOF 13
DOCKED: TER
DOCKED: ENDMDL
________________________________________________________________________________


	BEGINNING GENETIC ALGORITHM DOCKING 82 of 100
Run: 82 Seed: 941384827 601857534 [ Run 82 of 100 GA/GALS ]
Beginning LAMARCKIAN GENETIC ALGORITHM (LGA), with a maximum of 25000000 energy evaluations.

Final-Value: -11.467


	FINAL GENETIC ALGORITHM DOCKED STATE
	_______________________________________________


Detailed state:  trans 18.975 -11.779 38.486 quatxyzw 0.386823 0.170253 -0.042931 -0.905284 center 0.153 0.018 -0.028 ntor 13 -88.9787 171.0318 -178.1894 34.3332 36.5263 8.0399 141.3929 -179.2535 132.3475 -36.7932 67.9446 -73.7265 130.8567
State:	 18.975 -11.779  38.486   0.911  0.401 -0.101 -50.277    -88.98  171.03 -178.19   34.33   36.53    8.04  141.39 -179.25  132.35  -36.79   67.94  -73.73  130.86

DOCKED: MODEL       82
DOCKED: USER    Run = 82
DOCKED: USER    DPF = D:/Protein_go_brrr/autodock/final/1A3N/heme/dock.dpf
DOCKED: USER  
DOCKED: USER    Estimated Free Energy of Binding    =   -3.32 kcal/mol  [=(1)+(2)+(3)-(4)]
DOCKED: USER    Estimated Inhibition Constant, Ki   =    3.69 mM (millimolar)  [Temperature = 298.15 K]
DOCKED: USER    
DOCKED: USER    (1) Final Intermolecular Energy     =   -7.20 kcal/mol
DOCKED: USER        vdW + Hbond + desolv Energy     =   -6.66 kcal/mol
DOCKED: USER        Electrostatic Energy            =   -0.54 kcal/mol
DOCKED: USER    (2) Final Total Internal Energy     =   -4.27 kcal/mol
DOCKED: USER    (3) Torsional Free Energy           =   +3.88 kcal/mol
DOCKED: USER    (4) Unbound System's Energy  [=(2)] =   -4.27 kcal/mol
DOCKED: USER    
DOCKED: USER    
DOCKED: USER    NEWDPF move heme_opt.pdbqt
DOCKED: USER    NEWDPF about 0.153000 0.018000 -0.028000
DOCKED: USER    NEWDPF tran0 18.975253 -11.778803 38.485873
DOCKED: USER    NEWDPF quaternion0 0.386823 0.170253 -0.042931 -0.905284
DOCKED: USER    NEWDPF axisangle0 0.910585 0.400777 -0.101060 -50.276901
DOCKED: USER    NEWDPF quat0 0.910585 0.400777 -0.101060 -50.276901
DOCKED: USER    NEWDPF dihe0 -88.98 171.03 -178.19 34.33 36.53 8.04 141.39 -179.25 132.35 -36.79 67.94 -73.73 130.86 
DOCKED: USER  keepresnum = 1 
DOCKED: USER  
DOCKED: REMARK  13 active torsions:
DOCKED: REMARK  status: ('A' for Active; 'I' for Inactive)
DOCKED: REMARK    1  A    between atoms: O_3  and  C_38 
DOCKED: REMARK    2  A    between atoms: O_4  and  C_40 
DOCKED: REMARK    3  A    between atoms: O_7  and  C_46 
DOCKED: REMARK    4  A    between atoms: O_9  and  C_48 
DOCKED: REMARK    5  A    between atoms: C_15  and  C_20 
DOCKED: REMARK    6  A    between atoms: C_16  and  C_23 
DOCKED: REMARK    7  A    between atoms: C_20  and  C_38 
DOCKED: REMARK    8  A    between atoms: C_23  and  C_40 
DOCKED: REMARK    9  A    between atoms: C_32  and  C_41 
DOCKED: REMARK   10  A    between atoms: C_37  and  C_45 
DOCKED: REMARK   11  A    between atoms: C_41  and  C_44 
DOCKED: REMARK   12  A    between atoms: C_44  and  C_46 
DOCKED: REMARK   13  A    between atoms: C_47  and  C_48 
DOCKED: USER                              x       y       z     vdW  Elec       q    Type
DOCKED: USER                           _______ _______ _______ _____ _____    ______ ____
DOCKED: ROOT
DOCKED: ATOM      1  O   UNL d   1      14.242 -11.368  41.977 -0.05 -0.20    -0.289 OA
DOCKED: ATOM      2  O   UNL d   1      15.033 -14.171  35.055 -0.37 +0.17    -0.289 OA
DOCKED: ATOM      3  N   UNL d   1      17.226 -11.267  40.250 -0.10 -0.05    -0.247 NA
DOCKED: ATOM      4  N   UNL d   1      16.652 -12.848  37.801 -0.08 -0.01    -0.247 NA
DOCKED: ATOM      5  N   UNL d   1      19.481 -12.924  37.297 -0.02 -0.02    -0.354 N 
DOCKED: ATOM      6  N   UNL d   1      20.070 -11.300  39.851 -0.06 -0.04    -0.354 N 
DOCKED: ATOM      7  C   UNL d   1      16.524 -10.685  42.525 -0.08 +0.03    +0.084 A 
DOCKED: ATOM      8  C   UNL d   1      14.327 -12.950  37.056 -0.30 -0.02    +0.084 A 
DOCKED: ATOM      9  C   UNL d   1      15.352 -12.509  38.105 -0.23 +0.00    +0.058 A 
DOCKED: ATOM     10  C   UNL d   1      17.640 -10.784  41.480 -0.10 +0.01    +0.058 A 
DOCKED: ATOM     11  C   UNL d   1      15.403 -11.180  41.662 -0.08 +0.09    +0.193 A 
DOCKED: ATOM     12  C   UNL d   1      15.951 -11.475  40.300 -0.14 +0.03    +0.109 A 
DOCKED: ATOM     13  C   UNL d   1      15.280 -13.635  36.118 -0.31 -0.06    +0.193 A 
DOCKED: ATOM     14  C   UNL d   1      16.731 -11.667  43.681 -0.02 +0.00    +0.026 C 
DOCKED: ATOM     15  C   UNL d   1      15.005 -11.892  39.245 -0.22 +0.01    +0.055 C 
DOCKED: ATOM     16  C   UNL d   1      13.701 -11.753  36.334 -0.52 -0.01    +0.026 C 
DOCKED: ATOM     17  C   UNL d   1      16.656 -13.509  36.688 -0.27 -0.01    +0.109 A 
DOCKED: ATOM     18  C   UNL d   1      18.886 -10.345  41.738 -0.08 +0.01    +0.050 C 
DOCKED: ATOM     19  C   UNL d   1      19.958 -10.319  40.810 -0.09 +0.01    +0.045 A 
DOCKED: ATOM     20  C   UNL d   1      19.051 -13.822  36.356 -0.30 +0.00    +0.045 A 
DOCKED: ATOM     21  C   UNL d   1      17.799 -14.127  36.000 -0.05 -0.00    +0.057 C 
DOCKED: ATOM     22  C   UNL d   1      21.335 -13.839  36.402 -0.18 -0.00    -0.019 A 
DOCKED: ATOM     23  C   UNL d   1      20.846 -12.865  37.398 -0.11 +0.00    +0.045 A 
DOCKED: ATOM     24  C   UNL d   1      20.267 -14.401  35.787 -0.30 -0.00    -0.022 A 
DOCKED: ATOM     25  C   UNL d   1      21.224 -11.132  39.121 -0.11 +0.01    +0.049 A 
DOCKED: ATOM     26  C   UNL d   1      21.046  -9.471  40.676 -0.08 -0.00    -0.018 A 
DOCKED: ATOM     27  C   UNL d   1      21.832  -9.978  39.595 -0.10 +0.00    +0.003 A 
DOCKED: ATOM     28  C   UNL d   1      21.637 -12.110  38.176 -0.12 +0.01    +0.052 C 
DOCKED: ATOM     29  C   UNL d   1      20.247 -15.428  34.706 -0.33 +0.00    +0.046 C 
DOCKED: ATOM     30  C   UNL d   1      21.340  -8.262  41.498 -0.04 +0.01    +0.046 C 
DOCKED: ATOM     31  H   UNL d   1      18.828 -12.325  37.791 +0.07 +0.01    +0.166 HD
DOCKED: ATOM     32  H   UNL d   1      19.405 -12.056  39.742 +0.02 +0.02    +0.166 HD
DOCKED: ENDROOT
DOCKED: BRANCH   7  33
DOCKED: ATOM     33  C   UNL d   1      16.226  -9.271  43.035 -0.09 +0.06    +0.141 C 
DOCKED: BRANCH  33  34
DOCKED: ATOM     34  C   UNL d   1      15.122  -9.245  44.058 -0.06 +0.15    +0.306 C 
DOCKED: ATOM     35  O   UNL d   1      15.257  -9.340  45.266 -0.01 -0.08    -0.251 OA
DOCKED: BRANCH  34  36
DOCKED: ATOM     36  O   UNL d   1      13.906  -9.099  43.504 -0.15 -0.54    -0.481 OA
DOCKED: ATOM     37  H   UNL d   1      13.609 -10.014  43.313 +0.02 +0.33    +0.295 HD
DOCKED: ENDBRANCH  34  36
DOCKED: ENDBRANCH  33  34
DOCKED: ENDBRANCH   7  33
DOCKED: BRANCH  27  38
DOCKED: ATOM     38  C   UNL d   1      23.060  -9.408  39.129 -0.08 +0.00    +0.017 C 
DOCKED: ATOM     39  C   UNL d   1      24.120 -10.104  38.691 -0.07 +0.04    +0.092 C 
DOCKED: BRANCH  39  40
DOCKED: ATOM     40  C   UNL d   1      25.315  -9.396  38.222 -0.04 +0.31    +0.330 C 
DOCKED: ATOM     41  O   UNL d   1      25.534  -8.201  38.262 -0.66 -0.34    -0.246 OA
DOCKED: BRANCH  40  42
DOCKED: ATOM     42  O   UNL d   1      26.201 -10.270  37.720 -0.12 -0.50    -0.477 OA
DOCKED: ATOM     43  H   UNL d   1      25.830 -11.144  37.958 +0.03 +0.17    +0.295 HD
DOCKED: ENDBRANCH  40  42
DOCKED: ENDBRANCH  39  40
DOCKED: ENDBRANCH  27  38
DOCKED: BRANCH   8  44
DOCKED: ATOM     44  C   UNL d   1      13.251 -13.923  37.552 -0.15 -0.05    +0.141 C 
DOCKED: BRANCH  44  45
DOCKED: ATOM     45  C   UNL d   1      13.676 -15.365  37.482 -0.07 -0.12    +0.306 C 
DOCKED: ATOM     46  O   UNL d   1      14.131 -16.034  38.394 -0.03 +0.05    -0.251 OA
DOCKED: BRANCH  45  47
DOCKED: ATOM     47  O   UNL d   1      13.531 -15.885  36.250 -0.07 +0.44    -0.481 OA
DOCKED: ATOM     48  H   UNL d   1      13.187 -15.145  35.707 -0.18 -0.44    +0.295 HD
DOCKED: ENDBRANCH  45  47
DOCKED: ENDBRANCH  44  45
DOCKED: ENDBRANCH   8  44
DOCKED: BRANCH  22  49
DOCKED: ATOM     49  C   UNL d   1      22.784 -14.139  36.157 -0.13 +0.00    +0.048 C 
DOCKED: BRANCH  49  50
DOCKED: ATOM     50  C   UNL d   1      23.546 -14.369  37.462 -0.04 +0.01    +0.125 C 
DOCKED: BRANCH  50  51
DOCKED: ATOM     51  C   UNL d   1      24.515 -13.251  37.722 -0.02 +0.05    +0.305 C 
DOCKED: ATOM     52  O   UNL d   1      25.205 -13.081  38.712 -0.01 -0.05    -0.251 OA
DOCKED: BRANCH  51  53
DOCKED: ATOM     53  O   UNL d   1      24.559 -12.373  36.700 -0.01 -0.10    -0.481 OA
DOCKED: ATOM     54  H   UNL d   1      25.492 -12.075  36.682 +0.05 +0.09    +0.295 HD
DOCKED: ENDBRANCH  51  53
DOCKED: ENDBRANCH  50  51
DOCKED: ENDBRANCH  49  50
DOCKED: ENDBRANCH  22  49
DOCKED: TORSDOF 13
DOCKED: TER
DOCKED: ENDMDL
________________________________________________________________________________


	BEGINNING GENETIC ALGORITHM DOCKING 83 of 100
Run: 83 Seed: 2046225140 428654300 [ Run 83 of 100 GA/GALS ]
Beginning LAMARCKIAN GENETIC ALGORITHM (LGA), with a maximum of 25000000 energy evaluations.

Final-Value: -11.674


	FINAL GENETIC ALGORITHM DOCKED STATE
	_______________________________________________


Detailed state:  trans 18.449 14.423 11.722 quatxyzw -0.141247 -0.223469 0.166980 -0.949857 center 0.153 0.018 -0.028 ntor 13 168.9229 -132.5124 114.1212 10.9997 -149.8876 -8.0355 -63.0332 17.7148 9.8192 -142.4364 1.9252 -12.2847 -180.0000
State:	 18.449  14.423  11.722  -0.452 -0.715  0.534 -36.442    168.92 -132.51  114.12   11.00 -149.89   -8.04  -63.03   17.71    9.82 -142.44    1.93  -12.28 -180.00

DOCKED: MODEL       83
DOCKED: USER    Run = 83
DOCKED: USER    DPF = D:/Protein_go_brrr/autodock/final/1A3N/heme/dock.dpf
DOCKED: USER  
DOCKED: USER    Estimated Free Energy of Binding    =   -5.48 kcal/mol  [=(1)+(2)+(3)-(4)]
DOCKED: USER    Estimated Inhibition Constant, Ki   =   95.91 uM (micromolar)  [Temperature = 298.15 K]
DOCKED: USER    
DOCKED: USER    (1) Final Intermolecular Energy     =   -9.36 kcal/mol
DOCKED: USER        vdW + Hbond + desolv Energy     =   -8.70 kcal/mol
DOCKED: USER        Electrostatic Energy            =   -0.66 kcal/mol
DOCKED: USER    (2) Final Total Internal Energy     =   -2.31 kcal/mol
DOCKED: USER    (3) Torsional Free Energy           =   +3.88 kcal/mol
DOCKED: USER    (4) Unbound System's Energy  [=(2)] =   -2.31 kcal/mol
DOCKED: USER    
DOCKED: USER    
DOCKED: USER    NEWDPF move heme_opt.pdbqt
DOCKED: USER    NEWDPF about 0.153000 0.018000 -0.028000
DOCKED: USER    NEWDPF tran0 18.449343 14.423008 11.721875
DOCKED: USER    NEWDPF quaternion0 -0.141247 -0.223469 0.166980 -0.949857
DOCKED: USER    NEWDPF axisangle0 -0.451724 -0.714680 0.534020 -36.442195
DOCKED: USER    NEWDPF quat0 -0.451724 -0.714680 0.534020 -36.442195
DOCKED: USER    NEWDPF dihe0 168.92 -132.51 114.12 11.00 -149.89 -8.04 -63.03 17.71 9.82 -142.44 1.93 -12.28 -180.00 
DOCKED: USER  keepresnum = 1 
DOCKED: USER  
DOCKED: REMARK  13 active torsions:
DOCKED: REMARK  status: ('A' for Active; 'I' for Inactive)
DOCKED: REMARK    1  A    between atoms: O_3  and  C_38 
DOCKED: REMARK    2  A    between atoms: O_4  and  C_40 
DOCKED: REMARK    3  A    between atoms: O_7  and  C_46 
DOCKED: REMARK    4  A    between atoms: O_9  and  C_48 
DOCKED: REMARK    5  A    between atoms: C_15  and  C_20 
DOCKED: REMARK    6  A    between atoms: C_16  and  C_23 
DOCKED: REMARK    7  A    between atoms: C_20  and  C_38 
DOCKED: REMARK    8  A    between atoms: C_23  and  C_40 
DOCKED: REMARK    9  A    between atoms: C_32  and  C_41 
DOCKED: REMARK   10  A    between atoms: C_37  and  C_45 
DOCKED: REMARK   11  A    between atoms: C_41  and  C_44 
DOCKED: REMARK   12  A    between atoms: C_44  and  C_46 
DOCKED: REMARK   13  A    between atoms: C_47  and  C_48 
DOCKED: USER                              x       y       z     vdW  Elec       q    Type
DOCKED: USER                           _______ _______ _______ _____ _____    ______ ____
DOCKED: ROOT
DOCKED: ATOM      1  O   UNL d   1      12.977  13.942   9.583 -0.05 -0.05    -0.289 OA
DOCKED: ATOM      2  O   UNL d   1      18.182   8.724  11.023 -0.07 -0.25    -0.289 OA
DOCKED: ATOM      3  N   UNL d   1      16.138  14.721  10.721 +0.01 -0.02    -0.247 NA
DOCKED: ATOM      4  N   UNL d   1      17.338  12.061  11.278 -0.02 +0.00    -0.247 NA
DOCKED: ATOM      5  N   UNL d   1      19.432  13.409  12.715 -0.05 -0.03    -0.354 N 
DOCKED: ATOM      6  N   UNL d   1      18.170  16.164  12.148 -0.04 -0.07    -0.354 N 
DOCKED: ATOM      7  C   UNL d   1      14.088  15.997  10.301 -0.13 +0.02    +0.084 A 
DOCKED: ATOM      8  C   UNL d   1      16.471  10.156  10.017 -0.14 +0.02    +0.084 A 
DOCKED: ATOM      9  C   UNL d   1      16.383  11.642  10.379 -0.16 +0.00    +0.058 A 
DOCKED: ATOM     10  C   UNL d   1      15.547  15.973  10.765 -0.13 +0.01    +0.058 A 
DOCKED: ATOM     11  C   UNL d   1      13.964  14.541   9.969 -0.08 +0.03    +0.193 A 
DOCKED: ATOM     12  C   UNL d   1      15.280  13.880  10.242 -0.14 +0.01    +0.109 A 
DOCKED: ATOM     13  C   UNL d   1      17.629   9.800  10.905 -0.12 +0.09    +0.193 A 
DOCKED: ATOM     14  C   UNL d   1      13.127  16.328  11.446 -0.26 +0.00    +0.026 C 
DOCKED: ATOM     15  C   UNL d   1      15.425  12.451   9.900 -0.19 +0.00    +0.055 C 
DOCKED: ATOM     16  C   UNL d   1      16.888   9.951   8.557 -0.39 +0.00    +0.026 C 
DOCKED: ATOM     17  C   UNL d   1      18.057  11.040  11.621 -0.11 +0.02    +0.109 A 
DOCKED: ATOM     18  C   UNL d   1      16.199  17.104  11.095 -0.12 +0.01    +0.050 C 
DOCKED: ATOM     19  C   UNL d   1      17.569  17.189  11.453 -0.02 +0.01    +0.045 A 
DOCKED: ATOM     20  C   UNL d   1      19.706  12.112  13.062 -0.16 +0.01    +0.045 A 
DOCKED: ATOM     21  C   UNL d   1      19.153  10.986  12.600 -0.19 +0.02    +0.057 C 
DOCKED: ATOM     22  C   UNL d   1      21.058  13.501  14.270 -0.15 -0.01    -0.019 A 
DOCKED: ATOM     23  C   UNL d   1      20.199  14.320  13.393 -0.17 +0.01    +0.045 A 
DOCKED: ATOM     24  C   UNL d   1      20.763  12.195  14.069 -0.15 -0.01    -0.022 A 
DOCKED: ATOM     25  C   UNL d   1      19.466  16.493  12.469 -0.14 +0.01    +0.049 A 
DOCKED: ATOM     26  C   UNL d   1      18.509  18.193  11.286 -0.10 -0.00    -0.018 A 
DOCKED: ATOM     27  C   UNL d   1      19.711  17.740  11.912 -0.13 +0.00    +0.003 A 
DOCKED: ATOM     28  C   UNL d   1      20.241  15.659  13.321 -0.18 +0.02    +0.052 C 
DOCKED: ATOM     29  C   UNL d   1      21.368  10.992  14.710 -0.17 +0.02    +0.046 C 
DOCKED: ATOM     30  C   UNL d   1      18.307  19.494  10.586 -0.08 +0.01    +0.046 C 
DOCKED: ATOM     31  H   UNL d   1      18.780  13.628  11.969 -0.43 -0.02    +0.166 HD
DOCKED: ATOM     32  H   UNL d   1      17.692  15.311  12.413 +0.04 +0.02    +0.166 HD
DOCKED: ENDROOT
DOCKED: BRANCH   7  33
DOCKED: ATOM     33  C   UNL d   1      13.806  16.856   9.064 -0.11 +0.05    +0.141 C 
DOCKED: BRANCH  33  34
DOCKED: ATOM     34  C   UNL d   1      14.625  16.442   7.872 -0.14 +0.11    +0.306 C 
DOCKED: ATOM     35  O   UNL d   1      15.683  16.934   7.518 -0.21 -0.09    -0.251 OA
DOCKED: BRANCH  34  36
DOCKED: ATOM     36  O   UNL d   1      14.069  15.425   7.189 -0.11 -0.13    -0.481 OA
DOCKED: ATOM     37  H   UNL d   1      13.375  15.077   7.788 +0.15 +0.08    +0.295 HD
DOCKED: ENDBRANCH  34  36
DOCKED: ENDBRANCH  33  34
DOCKED: ENDBRANCH   7  33
DOCKED: BRANCH  27  38
DOCKED: ATOM     38  C   UNL d   1      20.934  18.482  11.985 -0.18 +0.01    +0.017 C 
DOCKED: ATOM     39  C   UNL d   1      22.156  17.948  12.133 -0.26 +0.04    +0.092 C 
DOCKED: BRANCH  39  40
DOCKED: ATOM     40  C   UNL d   1      23.333  18.820  12.177 -0.20 +0.21    +0.330 C 
DOCKED: ATOM     41  O   UNL d   1      23.387  20.009  11.927 -0.21 -0.14    -0.246 OA
DOCKED: BRANCH  40  42
DOCKED: ATOM     42  O   UNL d   1      24.413  18.118  12.555 -0.26 -0.33    -0.477 OA
DOCKED: ATOM     43  H   UNL d   1      24.377  17.314  11.998 -0.38 +0.02    +0.295 HD
DOCKED: ENDBRANCH  40  42
DOCKED: ENDBRANCH  39  40
DOCKED: ENDBRANCH  27  38
DOCKED: BRANCH   8  44
DOCKED: ATOM     44  C   UNL d   1      15.236   9.318  10.363 -0.10 +0.06    +0.141 C 
DOCKED: BRANCH  44  45
DOCKED: ATOM     45  C   UNL d   1      15.251   7.950   9.736 -0.13 +0.16    +0.306 C 
DOCKED: ATOM     46  O   UNL d   1      14.564   7.569   8.804 -0.19 -0.07    -0.251 OA
DOCKED: BRANCH  45  47
DOCKED: ATOM     47  O   UNL d   1      16.120   7.117  10.338 -0.14 -0.65    -0.481 OA
DOCKED: ATOM     48  H   UNL d   1      17.004   7.495  10.139 +0.13 +0.33    +0.295 HD
DOCKED: ENDBRANCH  45  47
DOCKED: ENDBRANCH  44  45
DOCKED: ENDBRANCH   8  44
DOCKED: BRANCH  22  49
DOCKED: ATOM     49  C   UNL d   1      22.068  14.066  15.226 -0.23 +0.03    +0.048 C 
DOCKED: BRANCH  49  50
DOCKED: ATOM     50  C   UNL d   1      21.508  14.181  16.643 -0.22 +0.06    +0.125 C 
DOCKED: BRANCH  50  51
DOCKED: ATOM     51  C   UNL d   1      22.511  14.811  17.567 -0.27 +0.15    +0.305 C 
DOCKED: ATOM     52  O   UNL d   1      23.550  15.371  17.265 -0.60 -0.25    -0.251 OA
DOCKED: BRANCH  51  53
DOCKED: ATOM     53  O   UNL d   1      22.152  14.689  18.861 -0.51 +0.00    -0.481 OA
DOCKED: ATOM     54  H   UNL d   1      22.776  15.275  19.337 -0.36 -0.19    +0.295 HD
DOCKED: ENDBRANCH  51  53
DOCKED: ENDBRANCH  50  51
DOCKED: ENDBRANCH  49  50
DOCKED: ENDBRANCH  22  49
DOCKED: TORSDOF 13
DOCKED: TER
DOCKED: ENDMDL
________________________________________________________________________________


	BEGINNING GENETIC ALGORITHM DOCKING 84 of 100
Run: 84 Seed: 1078696055 1709161157 [ Run 84 of 100 GA/GALS ]
Beginning LAMARCKIAN GENETIC ALGORITHM (LGA), with a maximum of 25000000 energy evaluations.

Final-Value: -11.727


	FINAL GENETIC ALGORITHM DOCKED STATE
	_______________________________________________


Detailed state:  trans 6.305 -11.816 19.672 quatxyzw 0.667338 0.486102 -0.506185 0.249282 center 0.153 0.018 -0.028 ntor 13 109.5476 161.7667 113.8031 -5.1407 175.2424 -7.2861 -39.6460 -9.1701 -14.6512 -137.1706 -67.5729 -9.5253 -4.6287
State:	  6.305 -11.816  19.672   0.689  0.502 -0.523 151.130    109.55  161.77  113.80   -5.14  175.24   -7.29  -39.65   -9.17  -14.65 -137.17  -67.57   -9.53   -4.63

DOCKED: MODEL       84
DOCKED: USER    Run = 84
DOCKED: USER    DPF = D:/Protein_go_brrr/autodock/final/1A3N/heme/dock.dpf
DOCKED: USER  
DOCKED: USER    Estimated Free Energy of Binding    =   -3.53 kcal/mol  [=(1)+(2)+(3)-(4)]
DOCKED: USER    Estimated Inhibition Constant, Ki   =    2.56 mM (millimolar)  [Temperature = 298.15 K]
DOCKED: USER    
DOCKED: USER    (1) Final Intermolecular Energy     =   -7.41 kcal/mol
DOCKED: USER        vdW + Hbond + desolv Energy     =   -7.03 kcal/mol
DOCKED: USER        Electrostatic Energy            =   -0.38 kcal/mol
DOCKED: USER    (2) Final Total Internal Energy     =   -4.31 kcal/mol
DOCKED: USER    (3) Torsional Free Energy           =   +3.88 kcal/mol
DOCKED: USER    (4) Unbound System's Energy  [=(2)] =   -4.31 kcal/mol
DOCKED: USER    
DOCKED: USER    
DOCKED: USER    NEWDPF move heme_opt.pdbqt
DOCKED: USER    NEWDPF about 0.153000 0.018000 -0.028000
DOCKED: USER    NEWDPF tran0 6.304717 -11.816457 19.672322
DOCKED: USER    NEWDPF quaternion0 0.667338 0.486102 -0.506185 0.249282
DOCKED: USER    NEWDPF axisangle0 0.689092 0.501948 -0.522686 151.129919
DOCKED: USER    NEWDPF quat0 0.689092 0.501948 -0.522686 151.129919
DOCKED: USER    NEWDPF dihe0 109.55 161.77 113.80 -5.14 175.24 -7.29 -39.65 -9.17 -14.65 -137.17 -67.57 -9.53 -4.63 
DOCKED: USER  keepresnum = 1 
DOCKED: USER  
DOCKED: REMARK  13 active torsions:
DOCKED: REMARK  status: ('A' for Active; 'I' for Inactive)
DOCKED: REMARK    1  A    between atoms: O_3  and  C_38 
DOCKED: REMARK    2  A    between atoms: O_4  and  C_40 
DOCKED: REMARK    3  A    between atoms: O_7  and  C_46 
DOCKED: REMARK    4  A    between atoms: O_9  and  C_48 
DOCKED: REMARK    5  A    between atoms: C_15  and  C_20 
DOCKED: REMARK    6  A    between atoms: C_16  and  C_23 
DOCKED: REMARK    7  A    between atoms: C_20  and  C_38 
DOCKED: REMARK    8  A    between atoms: C_23  and  C_40 
DOCKED: REMARK    9  A    between atoms: C_32  and  C_41 
DOCKED: REMARK   10  A    between atoms: C_37  and  C_45 
DOCKED: REMARK   11  A    between atoms: C_41  and  C_44 
DOCKED: REMARK   12  A    between atoms: C_44  and  C_46 
DOCKED: REMARK   13  A    between atoms: C_47  and  C_48 
DOCKED: USER                              x       y       z     vdW  Elec       q    Type
DOCKED: USER                           _______ _______ _______ _____ _____    ______ ____
DOCKED: ROOT
DOCKED: ATOM      1  O   UNL d   1       6.295 -17.657  20.475 -0.10 -0.11    -0.289 OA
DOCKED: ATOM      2  O   UNL d   1       5.793 -12.006  25.394 -0.12 -0.00    -0.289 OA
DOCKED: ATOM      3  N   UNL d   1       6.484 -14.343  19.538 -0.13 -0.13    -0.247 NA
DOCKED: ATOM      4  N   UNL d   1       5.889 -12.886  22.059 -0.37 -0.11    -0.247 NA
DOCKED: ATOM      5  N   UNL d   1       5.541 -10.502  20.490 -0.07 -0.14    -0.354 N 
DOCKED: ATOM      6  N   UNL d   1       6.140 -12.025  17.878 -0.02 -0.11    -0.354 N 
DOCKED: ATOM      7  C   UNL d   1       6.401 -16.477  18.336 -0.09 +0.04    +0.084 A 
DOCKED: ATOM      8  C   UNL d   1       6.396 -14.030  24.158 -0.15 +0.01    +0.084 A 
DOCKED: ATOM      9  C   UNL d   1       6.309 -14.067  22.628 -0.20 +0.02    +0.058 A 
DOCKED: ATOM     10  C   UNL d   1       6.473 -14.948  18.293 -0.08 +0.03    +0.058 A 
DOCKED: ATOM     11  C   UNL d   1       6.392 -16.630  19.828 -0.09 +0.09    +0.193 A 
DOCKED: ATOM     12  C   UNL d   1       6.472 -15.267  20.443 -0.08 +0.06    +0.109 A 
DOCKED: ATOM     13  C   UNL d   1       5.911 -12.621  24.353 -0.10 +0.03    +0.193 A 
DOCKED: ATOM     14  C   UNL d   1       5.078 -17.007  17.776 -0.14 +0.01    +0.026 C 
DOCKED: ATOM     15  C   UNL d   1       6.570 -15.172  21.913 -0.23 +0.02    +0.055 C 
DOCKED: ATOM     16  C   UNL d   1       7.844 -14.126  24.647 -0.29 +0.00    +0.026 C 
DOCKED: ATOM     17  C   UNL d   1       5.632 -12.041  23.005 -0.15 +0.04    +0.109 A 
DOCKED: ATOM     18  C   UNL d   1       6.605 -14.283  17.130 -0.08 +0.02    +0.050 C 
DOCKED: ATOM     19  C   UNL d   1       6.764 -12.880  16.998 -0.06 +0.02    +0.045 A 
DOCKED: ATOM     20  C   UNL d   1       5.075 -10.058  21.700 -0.17 +0.02    +0.045 A 
DOCKED: ATOM     21  C   UNL d   1       5.099 -10.676  22.885 -0.20 +0.02    +0.057 C 
DOCKED: ATOM     22  C   UNL d   1       4.688  -8.450  20.124 -0.20 -0.01    -0.019 A 
DOCKED: ATOM     23  C   UNL d   1       5.352  -9.599  19.478 -0.17 +0.01    +0.045 A 
DOCKED: ATOM     24  C   UNL d   1       4.528  -8.727  21.440 -0.18 -0.01    -0.022 A 
DOCKED: ATOM     25  C   UNL d   1       6.354 -10.716  17.513 -0.10 +0.01    +0.049 A 
DOCKED: ATOM     26  C   UNL d   1       7.429 -12.108  16.058 -0.07 -0.01    -0.018 A 
DOCKED: ATOM     27  C   UNL d   1       7.183 -10.742  16.400 -0.11 +0.00    +0.003 A 
DOCKED: ATOM     28  C   UNL d   1       5.682  -9.655  18.178 -0.18 +0.01    +0.052 C 
DOCKED: ATOM     29  C   UNL d   1       3.923  -7.877  22.505 -0.27 +0.01    +0.046 C 
DOCKED: ATOM     30  C   UNL d   1       8.246 -12.605  14.914 -0.11 +0.03    +0.046 C 
DOCKED: ATOM     31  H   UNL d   1       6.043 -11.380  20.410 +0.05 +0.07    +0.166 HD
DOCKED: ATOM     32  H   UNL d   1       5.573 -12.338  18.657 -0.11 +0.06    +0.166 HD
DOCKED: ENDROOT
DOCKED: BRANCH   7  33
DOCKED: ATOM     33  C   UNL d   1       7.602 -17.209  17.728 -0.04 +0.09    +0.141 C 
DOCKED: BRANCH  33  34
DOCKED: ATOM     34  C   UNL d   1       8.893 -16.460  17.916 -0.07 +0.34    +0.306 C 
DOCKED: ATOM     35  O   UNL d   1       9.714 -16.209  17.050 -0.14 -0.35    -0.251 OA
DOCKED: BRANCH  34  36
DOCKED: ATOM     36  O   UNL d   1       9.081 -16.062  19.187 -0.59 -0.61    -0.481 OA
DOCKED: ATOM     37  H   UNL d   1       8.447 -15.324  19.311 +0.06 +0.25    +0.295 HD
DOCKED: ENDBRANCH  34  36
DOCKED: ENDBRANCH  33  34
DOCKED: ENDBRANCH   7  33
DOCKED: BRANCH  27  38
DOCKED: ATOM     38  C   UNL d   1       7.676  -9.609  15.677 -0.17 +0.01    +0.017 C 
DOCKED: ATOM     39  C   UNL d   1       7.911  -8.397  16.203 -0.11 +0.03    +0.092 C 
DOCKED: BRANCH  39  40
DOCKED: ATOM     40  C   UNL d   1       8.434  -7.322  15.355 -0.06 +0.12    +0.330 C 
DOCKED: ATOM     41  O   UNL d   1       8.847  -7.409  14.214 -0.72 -0.13    -0.246 OA
DOCKED: BRANCH  40  42
DOCKED: ATOM     42  O   UNL d   1       8.396  -6.154  16.015 +0.00 -0.14    -0.477 OA
DOCKED: ATOM     43  H   UNL d   1       7.762  -6.316  16.743 +0.08 +0.07    +0.295 HD
DOCKED: ENDBRANCH  40  42
DOCKED: ENDBRANCH  39  40
DOCKED: ENDBRANCH  27  38
DOCKED: BRANCH   8  44
DOCKED: ATOM     44  C   UNL d   1       5.495 -15.027  24.894 -0.13 +0.03    +0.141 C 
DOCKED: BRANCH  44  45
DOCKED: ATOM     45  C   UNL d   1       5.738 -15.062  26.380 -0.03 +0.07    +0.306 C 
DOCKED: ATOM     46  O   UNL d   1       6.598 -15.701  26.961 -0.13 -0.13    -0.251 OA
DOCKED: BRANCH  45  47
DOCKED: ATOM     47  O   UNL d   1       4.860 -14.306  27.063 +0.02 -0.07    -0.481 OA
DOCKED: ATOM     48  H   UNL d   1       5.069 -13.384  26.800 +0.11 +0.03    +0.295 HD
DOCKED: ENDBRANCH  45  47
DOCKED: ENDBRANCH  44  45
DOCKED: ENDBRANCH   8  44
DOCKED: BRANCH  22  49
DOCKED: ATOM     49  C   UNL d   1       4.263  -7.206  19.401 -0.30 +0.01    +0.048 C 
DOCKED: BRANCH  49  50
DOCKED: ATOM     50  C   UNL d   1       5.384  -6.168  19.347 -0.26 +0.01    +0.125 C 
DOCKED: BRANCH  50  51
DOCKED: ATOM     51  C   UNL d   1       5.859  -5.964  17.936 -0.13 +0.04    +0.305 C 
DOCKED: ATOM     52  O   UNL d   1       5.650  -6.679  16.971 -0.16 -0.04    -0.251 OA
DOCKED: BRANCH  51  53
DOCKED: ATOM     53  O   UNL d   1       6.604  -4.848  17.811 -0.04 -0.07    -0.481 OA
DOCKED: ATOM     54  H   UNL d   1       6.924  -4.878  16.885 +0.11 +0.06    +0.295 HD
DOCKED: ENDBRANCH  51  53
DOCKED: ENDBRANCH  50  51
DOCKED: ENDBRANCH  49  50
DOCKED: ENDBRANCH  22  49
DOCKED: TORSDOF 13
DOCKED: TER
DOCKED: ENDMDL
________________________________________________________________________________


	BEGINNING GENETIC ALGORITHM DOCKING 85 of 100
Run: 85 Seed: 173393297 1014279925 [ Run 85 of 100 GA/GALS ]
Beginning LAMARCKIAN GENETIC ALGORITHM (LGA), with a maximum of 25000000 energy evaluations.

Final-Value: -13.229


	FINAL GENETIC ALGORITHM DOCKED STATE
	_______________________________________________


Detailed state:  trans 1.364 -6.974 -7.114 quatxyzw -0.726595 0.084501 -0.598721 0.326271 center 0.153 0.018 -0.028 ntor 13 159.3373 81.7363 -169.4749 106.5830 -145.9840 -51.5306 139.5124 -101.6673 9.7238 -10.0921 -113.8789 -175.4533 -4.5251
State:	  1.364  -6.974  -7.114  -0.769  0.089 -0.633 141.915    159.34   81.74 -169.47  106.58 -145.98  -51.53  139.51 -101.67    9.72  -10.09 -113.88 -175.45   -4.53

DOCKED: MODEL       85
DOCKED: USER    Run = 85
DOCKED: USER    DPF = D:/Protein_go_brrr/autodock/final/1A3N/heme/dock.dpf
DOCKED: USER  
DOCKED: USER    Estimated Free Energy of Binding    =   -6.60 kcal/mol  [=(1)+(2)+(3)-(4)]
DOCKED: USER    Estimated Inhibition Constant, Ki   =   14.55 uM (micromolar)  [Temperature = 298.15 K]
DOCKED: USER    
DOCKED: USER    (1) Final Intermolecular Energy     =  -10.48 kcal/mol
DOCKED: USER        vdW + Hbond + desolv Energy     =  -10.35 kcal/mol
DOCKED: USER        Electrostatic Energy            =   -0.13 kcal/mol
DOCKED: USER    (2) Final Total Internal Energy     =   -2.75 kcal/mol
DOCKED: USER    (3) Torsional Free Energy           =   +3.88 kcal/mol
DOCKED: USER    (4) Unbound System's Energy  [=(2)] =   -2.75 kcal/mol
DOCKED: USER    
DOCKED: USER    
DOCKED: USER    NEWDPF move heme_opt.pdbqt
DOCKED: USER    NEWDPF about 0.153000 0.018000 -0.028000
DOCKED: USER    NEWDPF tran0 1.363794 -6.973670 -7.113527
DOCKED: USER    NEWDPF quaternion0 -0.726595 0.084501 -0.598721 0.326271
DOCKED: USER    NEWDPF axisangle0 -0.768659 0.089393 -0.633382 141.914773
DOCKED: USER    NEWDPF quat0 -0.768659 0.089393 -0.633382 141.914773
DOCKED: USER    NEWDPF dihe0 159.34 81.74 -169.47 106.58 -145.98 -51.53 139.51 -101.67 9.72 -10.09 -113.88 -175.45 -4.53 
DOCKED: USER  keepresnum = 1 
DOCKED: USER  
DOCKED: REMARK  13 active torsions:
DOCKED: REMARK  status: ('A' for Active; 'I' for Inactive)
DOCKED: REMARK    1  A    between atoms: O_3  and  C_38 
DOCKED: REMARK    2  A    between atoms: O_4  and  C_40 
DOCKED: REMARK    3  A    between atoms: O_7  and  C_46 
DOCKED: REMARK    4  A    between atoms: O_9  and  C_48 
DOCKED: REMARK    5  A    between atoms: C_15  and  C_20 
DOCKED: REMARK    6  A    between atoms: C_16  and  C_23 
DOCKED: REMARK    7  A    between atoms: C_20  and  C_38 
DOCKED: REMARK    8  A    between atoms: C_23  and  C_40 
DOCKED: REMARK    9  A    between atoms: C_32  and  C_41 
DOCKED: REMARK   10  A    between atoms: C_37  and  C_45 
DOCKED: REMARK   11  A    between atoms: C_41  and  C_44 
DOCKED: REMARK   12  A    between atoms: C_44  and  C_46 
DOCKED: REMARK   13  A    between atoms: C_47  and  C_48 
DOCKED: USER                              x       y       z     vdW  Elec       q    Type
DOCKED: USER                           _______ _______ _______ _____ _____    ______ ____
DOCKED: ROOT
DOCKED: ATOM      1  O   UNL d   1      -0.484 -10.155 -11.720 -0.01 -0.08    -0.289 OA
DOCKED: ATOM      2  O   UNL d   1       1.851  -3.032 -11.268 -0.13 -0.09    -0.289 OA
DOCKED: ATOM      3  N   UNL d   1       0.386  -8.660  -8.736 -0.12 -0.15    -0.247 NA
DOCKED: ATOM      4  N   UNL d   1       1.442  -6.014  -9.580 -0.18 -0.17    -0.247 NA
DOCKED: ATOM      5  N   UNL d   1       2.516  -5.701  -6.931 -0.03 -0.11    -0.354 N 
DOCKED: ATOM      6  N   UNL d   1       1.433  -8.456  -6.070 -0.13 -0.09    -0.354 N 
DOCKED: ATOM      7  C   UNL d   1      -0.230 -10.932  -9.417 -0.06 +0.02    +0.084 A 
DOCKED: ATOM      8  C   UNL d   1       0.620  -5.104 -11.694 -0.10 +0.05    +0.084 A 
DOCKED: ATOM      9  C   UNL d   1       0.674  -6.265 -10.695 -0.13 +0.05    +0.058 A 
DOCKED: ATOM     10  C   UNL d   1       0.189  -9.962  -8.309 -0.14 +0.02    +0.058 A 
DOCKED: ATOM     11  C   UNL d   1      -0.254  -9.944 -10.544 -0.04 +0.07    +0.193 A 
DOCKED: ATOM     12  C   UNL d   1       0.112  -8.598  -9.999 -0.11 +0.07    +0.109 A 
DOCKED: ATOM     13  C   UNL d   1       1.531  -4.163 -10.958 -0.12 +0.09    +0.193 A 
DOCKED: ATOM     14  C   UNL d   1       0.848 -11.981  -9.701 -0.07 +0.00    +0.026 C 
DOCKED: ATOM     15  C   UNL d   1       0.065  -7.441 -10.915 -0.11 +0.05    +0.055 C 
DOCKED: ATOM     16  C   UNL d   1      -0.777  -4.482 -11.767 -0.21 +0.03    +0.026 C 
DOCKED: ATOM     17  C   UNL d   1       1.967  -4.836  -9.697 -0.19 +0.05    +0.109 A 
DOCKED: ATOM     18  C   UNL d   1       0.263 -10.353  -7.022 -0.21 +0.01    +0.050 C 
DOCKED: ATOM     19  C   UNL d   1       0.560  -9.509  -5.922 -0.26 +0.01    +0.045 A 
DOCKED: ATOM     20  C   UNL d   1       3.113  -4.637  -7.555 -0.32 +0.01    +0.045 A 
DOCKED: ATOM     21  C   UNL d   1       2.906  -4.164  -8.788 -0.32 +0.01    +0.057 C 
DOCKED: ATOM     22  C   UNL d   1       3.976  -4.838  -5.449 -0.42 -0.00    -0.019 A 
DOCKED: ATOM     23  C   UNL d   1       2.973  -5.902  -5.656 -0.30 +0.01    +0.045 A 
DOCKED: ATOM     24  C   UNL d   1       4.053  -4.092  -6.576 -0.42 -0.00    -0.022 A 
DOCKED: ATOM     25  C   UNL d   1       1.645  -7.830  -4.863 -0.34 +0.01    +0.049 A 
DOCKED: ATOM     26  C   UNL d   1       0.165  -9.547  -4.593 -0.33 -0.00    -0.018 A 
DOCKED: ATOM     27  C   UNL d   1       0.838  -8.473  -3.934 -0.39 +0.00    +0.003 A 
DOCKED: ATOM     28  C   UNL d   1       2.628  -6.812  -4.732 -0.23 +0.01    +0.052 C 
DOCKED: ATOM     29  C   UNL d   1       4.910  -2.903  -6.851 -0.50 +0.00    +0.046 C 
DOCKED: ATOM     30  C   UNL d   1      -0.780 -10.519  -3.973 -0.37 +0.00    +0.046 C 
DOCKED: ATOM     31  H   UNL d   1       1.760  -6.213  -7.373 +0.07 +0.08    +0.166 HD
DOCKED: ATOM     32  H   UNL d   1       1.880  -8.217  -6.948 +0.07 +0.05    +0.166 HD
DOCKED: ENDROOT
DOCKED: BRANCH   7  33
DOCKED: ATOM     33  C   UNL d   1      -1.609 -11.577  -9.238 -0.06 +0.03    +0.141 C 
DOCKED: BRANCH  33  34
DOCKED: ATOM     34  C   UNL d   1      -2.713 -10.561  -9.118 -0.07 +0.13    +0.306 C 
DOCKED: ATOM     35  O   UNL d   1      -3.142 -10.083  -8.082 -0.06 -0.13    -0.251 OA
DOCKED: BRANCH  34  36
DOCKED: ATOM     36  O   UNL d   1      -3.216 -10.200 -10.312 -0.04 -0.21    -0.481 OA
DOCKED: ATOM     37  H   UNL d   1      -2.500 -10.398 -10.952 +0.02 +0.11    +0.295 HD
DOCKED: ENDBRANCH  34  36
DOCKED: ENDBRANCH  33  34
DOCKED: ENDBRANCH   7  33
DOCKED: BRANCH  27  38
DOCKED: ATOM     38  C   UNL d   1       0.725  -8.159  -2.541 -0.44 +0.00    +0.017 C 
DOCKED: ATOM     39  C   UNL d   1       0.700  -9.057  -1.545 -0.45 +0.00    +0.092 C 
DOCKED: BRANCH  39  40
DOCKED: ATOM     40  C   UNL d   1       0.599  -8.604  -0.155 -0.30 +0.00    +0.330 C 
DOCKED: ATOM     41  O   UNL d   1       1.309  -7.800   0.418 -0.29 -0.00    -0.246 OA
DOCKED: BRANCH  40  42
DOCKED: ATOM     42  O   UNL d   1      -0.437  -9.204   0.452 -0.23 +0.04    -0.477 OA
DOCKED: ATOM     43  H   UNL d   1      -1.154  -8.539   0.404 -0.30 -0.09    +0.295 HD
DOCKED: ENDBRANCH  40  42
DOCKED: ENDBRANCH  39  40
DOCKED: ENDBRANCH  27  38
DOCKED: BRANCH   8  44
DOCKED: ATOM     44  C   UNL d   1       1.163  -5.412 -13.093 -0.02 +0.05    +0.141 C 
DOCKED: BRANCH  44  45
DOCKED: ATOM     45  C   UNL d   1       2.608  -5.835 -13.090 +0.00 +0.07    +0.306 C 
DOCKED: ATOM     46  O   UNL d   1       3.031  -6.978 -13.081 -0.01 -0.05    -0.251 OA
DOCKED: BRANCH  45  47
DOCKED: ATOM     47  O   UNL d   1       3.451  -4.787 -13.070 +0.01 -0.10    -0.481 OA
DOCKED: ATOM     48  H   UNL d   1       2.877  -4.010 -12.904 +0.06 +0.07    +0.295 HD
DOCKED: ENDBRANCH  45  47
DOCKED: ENDBRANCH  44  45
DOCKED: ENDBRANCH   8  44
DOCKED: BRANCH  22  49
DOCKED: ATOM     49  C   UNL d   1       4.768  -4.661  -4.187 -0.43 +0.00    +0.048 C 
DOCKED: BRANCH  49  50
DOCKED: ATOM     50  C   UNL d   1       4.036  -3.780  -3.175 -0.41 +0.01    +0.125 C 
DOCKED: BRANCH  50  51
DOCKED: ATOM     51  C   UNL d   1       2.795  -4.461  -2.670 -0.26 +0.04    +0.305 C 
DOCKED: ATOM     52  O   UNL d   1       1.637  -4.184  -2.929 -0.51 -0.06    -0.251 OA
DOCKED: BRANCH  51  53
DOCKED: ATOM     53  O   UNL d   1       3.083  -5.476  -1.831 -0.12 +0.01    -0.481 OA
DOCKED: ATOM     54  H   UNL d   1       3.421  -6.183  -2.420 -0.31 -0.06    +0.295 HD
DOCKED: ENDBRANCH  51  53
DOCKED: ENDBRANCH  50  51
DOCKED: ENDBRANCH  49  50
DOCKED: ENDBRANCH  22  49
DOCKED: TORSDOF 13
DOCKED: TER
DOCKED: ENDMDL
________________________________________________________________________________


	BEGINNING GENETIC ALGORITHM DOCKING 86 of 100
Run: 86 Seed: 597737415 342929755 [ Run 86 of 100 GA/GALS ]
Beginning LAMARCKIAN GENETIC ALGORITHM (LGA), with a maximum of 25000000 energy evaluations.

Final-Value: -12.695


	FINAL GENETIC ALGORITHM DOCKED STATE
	_______________________________________________


Detailed state:  trans 12.650 10.875 10.566 quatxyzw -0.353029 -0.445072 -0.050792 -0.821402 center 0.153 0.018 -0.028 ntor 13 -34.3726 164.5108 -129.5548 29.9407 180.0000 -42.5744 123.3440 -10.9799 -158.1692 -21.0140 -67.1566 -16.6717 3.4938
State:	 12.650  10.875  10.566  -0.619 -0.780 -0.089 -69.549    -34.37  164.51 -129.55   29.94  180.00  -42.57  123.34  -10.98 -158.17  -21.01  -67.16  -16.67    3.49

DOCKED: MODEL       86
DOCKED: USER    Run = 86
DOCKED: USER    DPF = D:/Protein_go_brrr/autodock/final/1A3N/heme/dock.dpf
DOCKED: USER  
DOCKED: USER    Estimated Free Energy of Binding    =   -5.10 kcal/mol  [=(1)+(2)+(3)-(4)]
DOCKED: USER    Estimated Inhibition Constant, Ki   =  182.05 uM (micromolar)  [Temperature = 298.15 K]
DOCKED: USER    
DOCKED: USER    (1) Final Intermolecular Energy     =   -8.98 kcal/mol
DOCKED: USER        vdW + Hbond + desolv Energy     =   -8.89 kcal/mol
DOCKED: USER        Electrostatic Energy            =   -0.09 kcal/mol
DOCKED: USER    (2) Final Total Internal Energy     =   -3.71 kcal/mol
DOCKED: USER    (3) Torsional Free Energy           =   +3.88 kcal/mol
DOCKED: USER    (4) Unbound System's Energy  [=(2)] =   -3.71 kcal/mol
DOCKED: USER    
DOCKED: USER    
DOCKED: USER    NEWDPF move heme_opt.pdbqt
DOCKED: USER    NEWDPF about 0.153000 0.018000 -0.028000
DOCKED: USER    NEWDPF tran0 12.650155 10.875170 10.565505
DOCKED: USER    NEWDPF quaternion0 -0.353029 -0.445072 -0.050792 -0.821402
DOCKED: USER    NEWDPF axisangle0 -0.618970 -0.780350 -0.089054 -69.549156
DOCKED: USER    NEWDPF quat0 -0.618970 -0.780350 -0.089054 -69.549156
DOCKED: USER    NEWDPF dihe0 -34.37 164.51 -129.55 29.94 180.00 -42.57 123.34 -10.98 -158.17 -21.01 -67.16 -16.67 3.49 
DOCKED: USER  keepresnum = 1 
DOCKED: USER  
DOCKED: REMARK  13 active torsions:
DOCKED: REMARK  status: ('A' for Active; 'I' for Inactive)
DOCKED: REMARK    1  A    between atoms: O_3  and  C_38 
DOCKED: REMARK    2  A    between atoms: O_4  and  C_40 
DOCKED: REMARK    3  A    between atoms: O_7  and  C_46 
DOCKED: REMARK    4  A    between atoms: O_9  and  C_48 
DOCKED: REMARK    5  A    between atoms: C_15  and  C_20 
DOCKED: REMARK    6  A    between atoms: C_16  and  C_23 
DOCKED: REMARK    7  A    between atoms: C_20  and  C_38 
DOCKED: REMARK    8  A    between atoms: C_23  and  C_40 
DOCKED: REMARK    9  A    between atoms: C_32  and  C_41 
DOCKED: REMARK   10  A    between atoms: C_37  and  C_45 
DOCKED: REMARK   11  A    between atoms: C_41  and  C_44 
DOCKED: REMARK   12  A    between atoms: C_44  and  C_46 
DOCKED: REMARK   13  A    between atoms: C_47  and  C_48 
DOCKED: USER                              x       y       z     vdW  Elec       q    Type
DOCKED: USER                           _______ _______ _______ _____ _____    ______ ____
DOCKED: ROOT
DOCKED: ATOM      1  O   UNL d   1       9.512  11.245   5.588 -0.19 -0.20    -0.289 OA
DOCKED: ATOM      2  O   UNL d   1      10.230   5.662  10.559 -0.06 -0.00    -0.289 OA
DOCKED: ATOM      3  N   UNL d   1      11.601  11.438   8.326 -0.05 -0.07    -0.247 NA
DOCKED: ATOM      4  N   UNL d   1      10.993   8.947   9.827 -0.02 -0.04    -0.247 NA
DOCKED: ATOM      5  N   UNL d   1      12.406  10.062  12.068 -0.00 -0.08    -0.354 N 
DOCKED: ATOM      6  N   UNL d   1      13.016  12.651  10.511 -0.02 -0.05    -0.354 N 
DOCKED: ATOM      7  C   UNL d   1      10.891  13.003   6.579 -0.28 +0.03    +0.084 A 
DOCKED: ATOM      8  C   UNL d   1      10.137   7.050   8.545 -0.18 -0.01    +0.084 A 
DOCKED: ATOM      9  C   UNL d   1      10.561   8.522   8.590 -0.17 +0.01    +0.058 A 
DOCKED: ATOM     10  C   UNL d   1      11.713  12.731   7.842 -0.14 +0.02    +0.058 A 
DOCKED: ATOM     11  C   UNL d   1      10.309  11.630   6.424 -0.21 +0.11    +0.193 A 
DOCKED: ATOM     12  C   UNL d   1      10.836  10.767   7.528 -0.21 +0.04    +0.109 A 
DOCKED: ATOM     13  C   UNL d   1      10.372   6.729   9.994 -0.04 +0.00    +0.193 A 
DOCKED: ATOM     14  C   UNL d   1       9.755  13.996   6.836 -0.32 +0.02    +0.026 C 
DOCKED: ATOM     15  C   UNL d   1      10.469   9.336   7.527 -0.33 +0.01    +0.055 C 
DOCKED: ATOM     16  C   UNL d   1      11.092   6.210   7.693 -0.42 -0.01    +0.026 C 
DOCKED: ATOM     17  C   UNL d   1      10.883   7.964  10.662 -0.04 +0.01    +0.109 A 
DOCKED: ATOM     18  C   UNL d   1      12.535  13.662   8.361 -0.14 +0.01    +0.050 C 
DOCKED: ATOM     19  C   UNL d   1      13.394  13.473   9.473 -0.09 +0.01    +0.045 A 
DOCKED: ATOM     20  C   UNL d   1      11.843   8.965  12.667 -0.08 +0.01    +0.045 A 
DOCKED: ATOM     21  C   UNL d   1      11.163   7.961  12.105 -0.10 +0.01    +0.057 C 
DOCKED: ATOM     22  C   UNL d   1      12.847  10.246  14.269 -0.19 -0.00    -0.019 A 
DOCKED: ATOM     23  C   UNL d   1      13.035  10.894  12.956 -0.14 +0.01    +0.045 A 
DOCKED: ATOM     24  C   UNL d   1      12.143   9.104  14.092 -0.17 -0.01    -0.022 A 
DOCKED: ATOM     25  C   UNL d   1      13.952  12.685  11.519 -0.11 +0.00    +0.049 A 
DOCKED: ATOM     26  C   UNL d   1      14.622  14.027   9.799 -0.15 -0.00    -0.018 A 
DOCKED: ATOM     27  C   UNL d   1      14.979  13.510  11.083 -0.17 +0.00    +0.003 A 
DOCKED: ATOM     28  C   UNL d   1      13.708  12.038  12.761 -0.08 -0.00    +0.052 C 
DOCKED: ATOM     29  C   UNL d   1      11.715   8.104  15.111 -0.25 +0.01    +0.046 C 
DOCKED: ATOM     30  C   UNL d   1      15.419  14.976   8.969 -0.06 +0.01    +0.046 C 
DOCKED: ATOM     31  H   UNL d   1      12.406  10.169  11.060 +0.04 +0.03    +0.166 HD
DOCKED: ATOM     32  H   UNL d   1      12.146  12.134  10.527 +0.05 +0.03    +0.166 HD
DOCKED: ENDROOT
DOCKED: BRANCH   7  33
DOCKED: ATOM     33  C   UNL d   1      11.703  13.387   5.337 -0.44 +0.01    +0.141 C 
DOCKED: BRANCH  33  34
DOCKED: ATOM     34  C   UNL d   1      11.509  14.825   4.940 -0.33 +0.01    +0.306 C 
DOCKED: ATOM     35  O   UNL d   1      11.165  15.229   3.842 -1.05 +0.04    -0.251 OA
DOCKED: BRANCH  34  36
DOCKED: ATOM     36  O   UNL d   1      11.756  15.679   5.948 -0.12 -0.17    -0.481 OA
DOCKED: ATOM     37  H   UNL d   1      12.184  16.451   5.519 -0.17 +0.10    +0.295 HD
DOCKED: ENDBRANCH  34  36
DOCKED: ENDBRANCH  33  34
DOCKED: ENDBRANCH   7  33
DOCKED: BRANCH  27  38
DOCKED: ATOM     38  C   UNL d   1      16.173  13.838  11.802 -0.21 +0.00    +0.017 C 
DOCKED: ATOM     39  C   UNL d   1      16.705  13.107  12.793 -0.18 +0.01    +0.092 C 
DOCKED: BRANCH  39  40
DOCKED: ATOM     40  C   UNL d   1      17.946  13.546  13.438 -0.08 +0.04    +0.330 C 
DOCKED: ATOM     41  O   UNL d   1      18.954  13.966  12.903 -0.12 -0.03    -0.246 OA
DOCKED: BRANCH  40  42
DOCKED: ATOM     42  O   UNL d   1      17.837  13.436  14.771 -0.03 -0.06    -0.477 OA
DOCKED: ATOM     43  H   UNL d   1      16.874  13.335  14.921 +0.11 +0.02    +0.295 HD
DOCKED: ENDBRANCH  40  42
DOCKED: ENDBRANCH  39  40
DOCKED: ENDBRANCH  27  38
DOCKED: BRANCH   8  44
DOCKED: ATOM     44  C   UNL d   1       8.677   6.795   8.157 -0.29 -0.02    +0.141 C 
DOCKED: BRANCH  44  45
DOCKED: ATOM     45  C   UNL d   1       7.697   7.209   9.223 -0.14 -0.04    +0.306 C 
DOCKED: ATOM     46  O   UNL d   1       7.313   8.341   9.456 -0.35 +0.04    -0.251 OA
DOCKED: BRANCH  45  47
DOCKED: ATOM     47  O   UNL d   1       7.271   6.168   9.962 -0.07 +0.10    -0.481 OA
DOCKED: ATOM     48  H   UNL d   1       8.092   5.701  10.228 +0.15 -0.04    +0.295 HD
DOCKED: ENDBRANCH  45  47
DOCKED: ENDBRANCH  44  45
DOCKED: ENDBRANCH   8  44
DOCKED: BRANCH  22  49
DOCKED: ATOM     49  C   UNL d   1      13.357  10.806  15.565 -0.38 +0.01    +0.048 C 
DOCKED: BRANCH  49  50
DOCKED: ATOM     50  C   UNL d   1      14.844  10.516  15.764 -0.26 +0.02    +0.125 C 
DOCKED: BRANCH  50  51
DOCKED: ATOM     51  C   UNL d   1      15.647  11.786  15.737 -0.16 -0.01    +0.305 C 
DOCKED: ATOM     52  O   UNL d   1      15.304  12.873  15.306 -0.20 +0.01    -0.251 OA
DOCKED: BRANCH  51  53
DOCKED: ATOM     53  O   UNL d   1      16.879  11.615  16.257 -0.05 +0.02    -0.481 OA
DOCKED: ATOM     54  H   UNL d   1      17.104  12.494  16.629 -0.21 -0.07    +0.295 HD
DOCKED: ENDBRANCH  51  53
DOCKED: ENDBRANCH  50  51
DOCKED: ENDBRANCH  49  50
DOCKED: ENDBRANCH  22  49
DOCKED: TORSDOF 13
DOCKED: TER
DOCKED: ENDMDL
________________________________________________________________________________


	BEGINNING GENETIC ALGORITHM DOCKING 87 of 100
Run: 87 Seed: 1172533282 2139318489 [ Run 87 of 100 GA/GALS ]
Beginning LAMARCKIAN GENETIC ALGORITHM (LGA), with a maximum of 25000000 energy evaluations.

Final-Value: -14.617


	FINAL GENETIC ALGORITHM DOCKED STATE
	_______________________________________________


Detailed state:  trans 23.429 -6.315 33.370 quatxyzw 0.160805 -0.694253 -0.040700 0.700356 center 0.153 0.018 -0.028 ntor 13 -95.8413 180.0000 175.5636 -33.1921 29.9572 54.5297 152.5934 -122.9531 129.4391 -0.8316 -94.0672 -114.9617 -2.7562
State:	 23.429  -6.315  33.370   0.225 -0.973 -0.057 91.089    -95.84  180.00  175.56  -33.19   29.96   54.53  152.59 -122.95  129.44   -0.83  -94.07 -114.96   -2.76

DOCKED: MODEL       87
DOCKED: USER    Run = 87
DOCKED: USER    DPF = D:/Protein_go_brrr/autodock/final/1A3N/heme/dock.dpf
DOCKED: USER  
DOCKED: USER    Estimated Free Energy of Binding    =   -6.83 kcal/mol  [=(1)+(2)+(3)-(4)]
DOCKED: USER    Estimated Inhibition Constant, Ki   =    9.89 uM (micromolar)  [Temperature = 298.15 K]
DOCKED: USER    
DOCKED: USER    (1) Final Intermolecular Energy     =  -10.71 kcal/mol
DOCKED: USER        vdW + Hbond + desolv Energy     =  -10.35 kcal/mol
DOCKED: USER        Electrostatic Energy            =   -0.35 kcal/mol
DOCKED: USER    (2) Final Total Internal Energy     =   -3.91 kcal/mol
DOCKED: USER    (3) Torsional Free Energy           =   +3.88 kcal/mol
DOCKED: USER    (4) Unbound System's Energy  [=(2)] =   -3.91 kcal/mol
DOCKED: USER    
DOCKED: USER    
DOCKED: USER    NEWDPF move heme_opt.pdbqt
DOCKED: USER    NEWDPF about 0.153000 0.018000 -0.028000
DOCKED: USER    NEWDPF tran0 23.428852 -6.315219 33.370279
DOCKED: USER    NEWDPF quaternion0 0.160805 -0.694253 -0.040700 0.700356
DOCKED: USER    NEWDPF axisangle0 0.225282 -0.972624 -0.057019 91.088905
DOCKED: USER    NEWDPF quat0 0.225282 -0.972624 -0.057019 91.088905
DOCKED: USER    NEWDPF dihe0 -95.84 180.00 175.56 -33.19 29.96 54.53 152.59 -122.95 129.44 -0.83 -94.07 -114.96 -2.76 
DOCKED: USER  keepresnum = 1 
DOCKED: USER  
DOCKED: REMARK  13 active torsions:
DOCKED: REMARK  status: ('A' for Active; 'I' for Inactive)
DOCKED: REMARK    1  A    between atoms: O_3  and  C_38 
DOCKED: REMARK    2  A    between atoms: O_4  and  C_40 
DOCKED: REMARK    3  A    between atoms: O_7  and  C_46 
DOCKED: REMARK    4  A    between atoms: O_9  and  C_48 
DOCKED: REMARK    5  A    between atoms: C_15  and  C_20 
DOCKED: REMARK    6  A    between atoms: C_16  and  C_23 
DOCKED: REMARK    7  A    between atoms: C_20  and  C_38 
DOCKED: REMARK    8  A    between atoms: C_23  and  C_40 
DOCKED: REMARK    9  A    between atoms: C_32  and  C_41 
DOCKED: REMARK   10  A    between atoms: C_37  and  C_45 
DOCKED: REMARK   11  A    between atoms: C_41  and  C_44 
DOCKED: REMARK   12  A    between atoms: C_44  and  C_46 
DOCKED: REMARK   13  A    between atoms: C_47  and  C_48 
DOCKED: USER                              x       y       z     vdW  Elec       q    Type
DOCKED: USER                           _______ _______ _______ _____ _____    ______ ____
DOCKED: ROOT
DOCKED: ATOM      1  O   UNL d   1      23.394  -3.604  38.605 -0.03 -0.06    -0.289 OA
DOCKED: ATOM      2  O   UNL d   1      23.185 -10.898  36.831 -0.08 -0.07    -0.289 OA
DOCKED: ATOM      3  N   UNL d   1      23.295  -4.732  35.347 -0.16 -0.05    -0.247 NA
DOCKED: ATOM      4  N   UNL d   1      23.538  -7.679  35.637 -0.14 -0.08    -0.247 NA
DOCKED: ATOM      5  N   UNL d   1      24.064  -7.821  32.814 -0.16 -0.05    -0.354 N 
DOCKED: ATOM      6  N   UNL d   1      23.830  -4.761  32.526 +0.27 -0.10    -0.354 N 
DOCKED: ATOM      7  C   UNL d   1      23.558  -2.539  36.411 -0.23 +0.01    +0.084 A 
DOCKED: ATOM      8  C   UNL d   1      22.772  -8.662  37.739 -0.14 +0.02    +0.084 A 
DOCKED: ATOM      9  C   UNL d   1      23.059  -7.412  36.901 -0.18 +0.02    +0.058 A 
DOCKED: ATOM     10  C   UNL d   1      23.476  -3.376  35.131 -0.31 +0.01    +0.058 A 
DOCKED: ATOM     11  C   UNL d   1      23.372  -3.660  37.389 -0.09 +0.04    +0.193 A 
DOCKED: ATOM     12  C   UNL d   1      23.198  -4.933  36.621 -0.15 +0.03    +0.109 A 
DOCKED: ATOM     13  C   UNL d   1      23.212  -9.687  36.731 -0.10 +0.06    +0.193 A 
DOCKED: ATOM     14  C   UNL d   1      24.948  -1.931  36.612 -0.40 +0.00    +0.026 C 
DOCKED: ATOM     15  C   UNL d   1      22.906  -6.168  37.378 -0.16 +0.01    +0.055 C 
DOCKED: ATOM     16  C   UNL d   1      21.273  -8.839  37.999 -0.06 +0.00    +0.026 C 
DOCKED: ATOM     17  C   UNL d   1      23.660  -8.961  35.505 -0.20 +0.03    +0.109 A 
DOCKED: ATOM     18  C   UNL d   1      23.491  -2.802  33.913 -0.45 +0.01    +0.050 C 
DOCKED: ATOM     19  C   UNL d   1      23.337  -3.485  32.680 -0.38 +0.01    +0.045 A 
DOCKED: ATOM     20  C   UNL d   1      24.363  -9.109  33.175 -0.33 +0.01    +0.045 A 
DOCKED: ATOM     21  C   UNL d   1      24.190  -9.710  34.356 -0.29 +0.01    +0.057 C 
DOCKED: ATOM     22  C   UNL d   1      24.937  -8.803  30.985 -0.36 -0.00    -0.019 A 
DOCKED: ATOM     23  C   UNL d   1      24.376  -7.542  31.510 -0.28 +0.00    +0.045 A 
DOCKED: ATOM     24  C   UNL d   1      24.925  -9.727  31.974 -0.40 -0.00    -0.022 A 
DOCKED: ATOM     25  C   UNL d   1      23.653  -5.195  31.232 -0.19 +0.01    +0.049 A 
DOCKED: ATOM     26  C   UNL d   1      22.792  -3.094  31.466 -0.49 -0.00    -0.018 A 
DOCKED: ATOM     27  C   UNL d   1      22.977  -4.184  30.562 -0.44 +0.00    +0.003 A 
DOCKED: ATOM     28  C   UNL d   1      24.220  -6.421  30.790 -0.15 +0.00    +0.052 C 
DOCKED: ATOM     29  C   UNL d   1      25.376 -11.147  31.930 -0.40 +0.00    +0.046 C 
DOCKED: ATOM     30  C   UNL d   1      22.138  -1.788  31.163 -0.48 +0.00    +0.046 C 
DOCKED: ATOM     31  H   UNL d   1      23.587  -7.193  33.453 +0.08 +0.03    +0.166 HD
DOCKED: ATOM     32  H   UNL d   1      24.293  -5.275  33.265 +0.12 +0.05    +0.166 HD
DOCKED: ENDROOT
DOCKED: BRANCH   7  33
DOCKED: ATOM     33  C   UNL d   1      22.455  -1.489  36.580 -0.26 +0.00    +0.141 C 
DOCKED: BRANCH  33  34
DOCKED: ATOM     34  C   UNL d   1      22.554  -0.751  37.888 -0.11 +0.00    +0.306 C 
DOCKED: ATOM     35  O   UNL d   1      23.256   0.219  38.117 -0.18 +0.02    -0.251 OA
DOCKED: BRANCH  34  36
DOCKED: ATOM     36  O   UNL d   1      21.760  -1.274  38.839 +0.01 -0.04    -0.481 OA
DOCKED: ATOM     37  H   UNL d   1      22.267  -2.036  39.193 +0.06 +0.03    +0.295 HD
DOCKED: ENDBRANCH  34  36
DOCKED: ENDBRANCH  33  34
DOCKED: ENDBRANCH   7  33
DOCKED: BRANCH  27  38
DOCKED: ATOM     38  C   UNL d   1      22.572  -4.195  29.188 -0.50 +0.00    +0.017 C 
DOCKED: ATOM     39  C   UNL d   1      23.388  -4.010  28.139 -0.44 +0.01    +0.092 C 
DOCKED: BRANCH  39  40
DOCKED: ATOM     40  C   UNL d   1      22.849  -4.062  26.777 +0.01 +0.02    +0.330 C 
DOCKED: ATOM     41  O   UNL d   1      21.903  -3.444  26.328 -0.24 -0.03    -0.246 OA
DOCKED: BRANCH  40  42
DOCKED: ATOM     42  O   UNL d   1      23.565  -4.916  26.030 -0.12 -0.02    -0.477 OA
DOCKED: ATOM     43  H   UNL d   1      24.249  -5.250  26.646 +0.20 +0.01    +0.295 HD
DOCKED: ENDBRANCH  40  42
DOCKED: ENDBRANCH  39  40
DOCKED: ENDBRANCH  27  38
DOCKED: BRANCH   8  44
DOCKED: ATOM     44  C   UNL d   1      23.578  -8.787  39.036 -0.06 +0.05    +0.141 C 
DOCKED: BRANCH  44  45
DOCKED: ATOM     45  C   UNL d   1      25.059  -8.603  38.835 -0.05 +0.26    +0.306 C 
DOCKED: ATOM     46  O   UNL d   1      25.726  -7.646  39.188 -0.37 -0.30    -0.251 OA
DOCKED: BRANCH  45  47
DOCKED: ATOM     47  O   UNL d   1      25.620  -9.629  38.171 -0.31 -0.50    -0.481 OA
DOCKED: ATOM     48  H   UNL d   1      24.896 -10.283  38.068 +0.04 +0.16    +0.295 HD
DOCKED: ENDBRANCH  45  47
DOCKED: ENDBRANCH  44  45
DOCKED: ENDBRANCH   8  44
DOCKED: BRANCH  22  49
DOCKED: ATOM     49  C   UNL d   1      25.440  -8.981  29.583 -0.20 +0.00    +0.048 C 
DOCKED: BRANCH  49  50
DOCKED: ATOM     50  C   UNL d   1      24.317  -9.363  28.619 -0.46 +0.00    +0.125 C 
DOCKED: BRANCH  50  51
DOCKED: ATOM     51  C   UNL d   1      23.631  -8.139  28.082 -0.31 +0.00    +0.305 C 
DOCKED: ATOM     52  O   UNL d   1      22.435  -7.907  28.059 -0.36 +0.01    -0.251 OA
DOCKED: BRANCH  51  53
DOCKED: ATOM     53  O   UNL d   1      24.510  -7.250  27.576 -0.13 -0.02    -0.481 OA
DOCKED: ATOM     54  H   UNL d   1      24.027  -6.838  26.829 +0.20 +0.01    +0.295 HD
DOCKED: ENDBRANCH  51  53
DOCKED: ENDBRANCH  50  51
DOCKED: ENDBRANCH  49  50
DOCKED: ENDBRANCH  22  49
DOCKED: TORSDOF 13
DOCKED: TER
DOCKED: ENDMDL
________________________________________________________________________________


	BEGINNING GENETIC ALGORITHM DOCKING 88 of 100
Run: 88 Seed: 688524914 623492526 [ Run 88 of 100 GA/GALS ]
Beginning LAMARCKIAN GENETIC ALGORITHM (LGA), with a maximum of 25000000 energy evaluations.

Final-Value: -12.861


	FINAL GENETIC ALGORITHM DOCKED STATE
	_______________________________________________


Detailed state:  trans 24.692 -6.081 36.522 quatxyzw -0.565294 -0.096858 0.818876 0.022426 center 0.153 0.018 -0.028 ntor 13 -84.3291 154.4515 -114.1047 -166.8727 35.3693 -98.9801 130.7669 -9.6922 123.3389 -44.3334 110.2018 48.5954 48.5348
State:	 24.692  -6.081  36.522  -0.565 -0.097  0.819 177.430    -84.33  154.45 -114.10 -166.87   35.37  -98.98  130.77   -9.69  123.34  -44.33  110.20   48.60   48.53

DOCKED: MODEL       88
DOCKED: USER    Run = 88
DOCKED: USER    DPF = D:/Protein_go_brrr/autodock/final/1A3N/heme/dock.dpf
DOCKED: USER  
DOCKED: USER    Estimated Free Energy of Binding    =   -5.49 kcal/mol  [=(1)+(2)+(3)-(4)]
DOCKED: USER    Estimated Inhibition Constant, Ki   =   94.80 uM (micromolar)  [Temperature = 298.15 K]
DOCKED: USER    
DOCKED: USER    (1) Final Intermolecular Energy     =   -9.37 kcal/mol
DOCKED: USER        vdW + Hbond + desolv Energy     =   -9.30 kcal/mol
DOCKED: USER        Electrostatic Energy            =   -0.07 kcal/mol
DOCKED: USER    (2) Final Total Internal Energy     =   -3.49 kcal/mol
DOCKED: USER    (3) Torsional Free Energy           =   +3.88 kcal/mol
DOCKED: USER    (4) Unbound System's Energy  [=(2)] =   -3.49 kcal/mol
DOCKED: USER    
DOCKED: USER    
DOCKED: USER    NEWDPF move heme_opt.pdbqt
DOCKED: USER    NEWDPF about 0.153000 0.018000 -0.028000
DOCKED: USER    NEWDPF tran0 24.691789 -6.081159 36.522390
DOCKED: USER    NEWDPF quaternion0 -0.565294 -0.096858 0.818876 0.022426
DOCKED: USER    NEWDPF axisangle0 -0.565436 -0.096883 0.819082 177.429932
DOCKED: USER    NEWDPF quat0 -0.565436 -0.096883 0.819082 177.429932
DOCKED: USER    NEWDPF dihe0 -84.33 154.45 -114.10 -166.87 35.37 -98.98 130.77 -9.69 123.34 -44.33 110.20 48.60 48.53 
DOCKED: USER  keepresnum = 1 
DOCKED: USER  
DOCKED: REMARK  13 active torsions:
DOCKED: REMARK  status: ('A' for Active; 'I' for Inactive)
DOCKED: REMARK    1  A    between atoms: O_3  and  C_38 
DOCKED: REMARK    2  A    between atoms: O_4  and  C_40 
DOCKED: REMARK    3  A    between atoms: O_7  and  C_46 
DOCKED: REMARK    4  A    between atoms: O_9  and  C_48 
DOCKED: REMARK    5  A    between atoms: C_15  and  C_20 
DOCKED: REMARK    6  A    between atoms: C_16  and  C_23 
DOCKED: REMARK    7  A    between atoms: C_20  and  C_38 
DOCKED: REMARK    8  A    between atoms: C_23  and  C_40 
DOCKED: REMARK    9  A    between atoms: C_32  and  C_41 
DOCKED: REMARK   10  A    between atoms: C_37  and  C_45 
DOCKED: REMARK   11  A    between atoms: C_41  and  C_44 
DOCKED: REMARK   12  A    between atoms: C_44  and  C_46 
DOCKED: REMARK   13  A    between atoms: C_47  and  C_48 
DOCKED: USER                              x       y       z     vdW  Elec       q    Type
DOCKED: USER                           _______ _______ _______ _____ _____    ______ ____
DOCKED: ROOT
DOCKED: ATOM      1  O   UNL d   1      26.361  -8.264  41.738 -0.01 -0.14    -0.289 OA
DOCKED: ATOM      2  O   UNL d   1      26.394  -1.234  39.099 +0.09 -0.07    -0.289 OA
DOCKED: ATOM      3  N   UNL d   1      25.400  -7.472  38.522 -0.46 -0.29    -0.247 NA
DOCKED: ATOM      4  N   UNL d   1      25.454  -4.501  38.505 -0.04 -0.11    -0.247 NA
DOCKED: ATOM      5  N   UNL d   1      23.998  -4.580  36.028 -0.09 -0.09    -0.354 N 
DOCKED: ATOM      6  N   UNL d   1      23.929  -7.662  36.063 -0.09 -0.15    -0.354 N 
DOCKED: ATOM      7  C   UNL d   1      25.386  -9.514  39.877 -0.05 +0.05    +0.084 A 
DOCKED: ATOM      8  C   UNL d   1      26.957  -3.401  40.088 -0.07 +0.03    +0.084 A 
DOCKED: ATOM      9  C   UNL d   1      26.322  -4.691  39.558 -0.07 +0.03    +0.058 A 
DOCKED: ATOM     10  C   UNL d   1      25.073  -8.817  38.550 -0.08 +0.05    +0.058 A 
DOCKED: ATOM     11  C   UNL d   1      25.965  -8.328  40.589 -0.04 +0.14    +0.193 A 
DOCKED: ATOM     12  C   UNL d   1      25.943  -7.159  39.654 -0.05 +0.11    +0.109 A 
DOCKED: ATOM     13  C   UNL d   1      26.261  -2.440  39.166 -0.09 +0.06    +0.193 A 
DOCKED: ATOM     14  C   UNL d   1      24.115  -9.957  40.607 -0.02 +0.01    +0.026 C 
DOCKED: ATOM     15  C   UNL d   1      26.553  -5.893  40.108 -0.07 +0.04    +0.055 C 
DOCKED: ATOM     16  C   UNL d   1      28.461  -3.352  39.807 -0.17 +0.01    +0.026 C 
DOCKED: ATOM     17  C   UNL d   1      25.373  -3.232  38.262 -0.12 +0.03    +0.109 A 
DOCKED: ATOM     18  C   UNL d   1      24.604  -9.502  37.490 -0.15 +0.03    +0.050 C 
DOCKED: ATOM     19  C   UNL d   1      24.366  -8.960  36.201 -0.19 +0.02    +0.045 A 
DOCKED: ATOM     20  C   UNL d   1      23.921  -3.239  36.303 -0.24 +0.01    +0.045 A 
DOCKED: ATOM     21  C   UNL d   1      24.528  -2.547  37.273 -0.25 +0.01    +0.057 C 
DOCKED: ATOM     22  C   UNL d   1      22.611  -3.696  34.489 -0.36 -0.00    -0.019 A 
DOCKED: ATOM     23  C   UNL d   1      23.240  -4.951  34.949 -0.27 +0.01    +0.045 A 
DOCKED: ATOM     24  C   UNL d   1      23.019  -2.687  35.293 -0.35 -0.00    -0.022 A 
DOCKED: ATOM     25  C   UNL d   1      23.677  -7.375  34.741 -0.28 +0.01    +0.049 A 
DOCKED: ATOM     26  C   UNL d   1      24.434  -9.519  34.934 -0.24 -0.01    -0.018 A 
DOCKED: ATOM     27  C   UNL d   1      24.016  -8.508  34.015 -0.33 +0.00    +0.003 A 
DOCKED: ATOM     28  C   UNL d   1      23.068  -6.146  34.365 -0.23 +0.01    +0.052 C 
DOCKED: ATOM     29  C   UNL d   1      22.669  -1.239  35.225 -0.43 +0.00    +0.046 C 
DOCKED: ATOM     30  C   UNL d   1      24.862 -10.907  34.595 -0.24 +0.01    +0.046 C 
DOCKED: ATOM     31  H   UNL d   1      24.626  -5.188  36.542 +0.06 +0.07    +0.166 HD
DOCKED: ATOM     32  H   UNL d   1      23.782  -7.034  36.844 +0.05 +0.07    +0.166 HD
DOCKED: ENDROOT
DOCKED: BRANCH   7  33
DOCKED: ATOM     33  C   UNL d   1      26.413 -10.648  39.797 -0.06 +0.09    +0.141 C 
DOCKED: BRANCH  33  34
DOCKED: ATOM     34  C   UNL d   1      26.835 -11.144  41.154 -0.01 +0.11    +0.306 C 
DOCKED: ATOM     35  O   UNL d   1      26.302 -12.036  41.793 +0.00 -0.05    -0.251 OA
DOCKED: BRANCH  34  36
DOCKED: ATOM     36  O   UNL d   1      27.908 -10.491  41.634 -0.00 -0.20    -0.481 OA
DOCKED: ATOM     37  H   UNL d   1      27.533  -9.764  42.175 +0.01 +0.11    +0.295 HD
DOCKED: ENDBRANCH  34  36
DOCKED: ENDBRANCH  33  34
DOCKED: ENDBRANCH   7  33
DOCKED: BRANCH  27  38
DOCKED: ATOM     38  C   UNL d   1      23.923  -8.670  32.595 -0.35 +0.00    +0.017 C 
DOCKED: ATOM     39  C   UNL d   1      24.880  -8.342  31.714 -0.37 +0.01    +0.092 C 
DOCKED: BRANCH  39  40
DOCKED: ATOM     40  C   UNL d   1      24.666  -8.576  30.283 -0.15 +0.02    +0.330 C 
DOCKED: ATOM     41  O   UNL d   1      25.099  -9.489  29.606 -0.34 -0.01    -0.246 OA
DOCKED: BRANCH  40  42
DOCKED: ATOM     42  O   UNL d   1      23.882  -7.615  29.770 -0.12 +0.01    -0.477 OA
DOCKED: ATOM     43  H   UNL d   1      23.361  -7.302  30.538 -0.30 -0.06    +0.295 HD
DOCKED: ENDBRANCH  40  42
DOCKED: ENDBRANCH  39  40
DOCKED: ENDBRANCH  27  38
DOCKED: BRANCH   8  44
DOCKED: ATOM     44  C   UNL d   1      26.656  -3.071  41.554 -0.03 +0.04    +0.141 C 
DOCKED: BRANCH  44  45
DOCKED: ATOM     45  C   UNL d   1      25.475  -2.153  41.726 -0.02 +0.08    +0.306 C 
DOCKED: ATOM     46  O   UNL d   1      24.304  -2.482  41.805 -0.01 -0.05    -0.251 OA
DOCKED: BRANCH  45  47
DOCKED: ATOM     47  O   UNL d   1      25.832  -0.857  41.763 -0.34 -0.19    -0.481 OA
DOCKED: ATOM     48  H   UNL d   1      26.195  -0.674  40.870 +0.09 +0.13    +0.295 HD
DOCKED: ENDBRANCH  45  47
DOCKED: ENDBRANCH  44  45
DOCKED: ENDBRANCH   8  44
DOCKED: BRANCH  22  49
DOCKED: ATOM     49  C   UNL d   1      21.667  -3.605  33.326 -0.47 +0.01    +0.048 C 
DOCKED: BRANCH  49  50
DOCKED: ATOM     50  C   UNL d   1      22.039  -4.584  32.213 -0.36 +0.01    +0.125 C 
DOCKED: BRANCH  50  51
DOCKED: ATOM     51  C   UNL d   1      23.324  -4.177  31.548 -0.25 +0.06    +0.305 C 
DOCKED: ATOM     52  O   UNL d   1      23.884  -3.097  31.612 -0.66 -0.06    -0.251 OA
DOCKED: BRANCH  51  53
DOCKED: ATOM     53  O   UNL d   1      23.845  -5.174  30.806 -0.58 -0.08    -0.481 OA
DOCKED: ATOM     54  H   UNL d   1      23.120  -5.830  30.746 -0.11 -0.02    +0.295 HD
DOCKED: ENDBRANCH  51  53
DOCKED: ENDBRANCH  50  51
DOCKED: ENDBRANCH  49  50
DOCKED: ENDBRANCH  22  49
DOCKED: TORSDOF 13
DOCKED: TER
DOCKED: ENDMDL
________________________________________________________________________________


	BEGINNING GENETIC ALGORITHM DOCKING 89 of 100
Run: 89 Seed: 1819646280 2130289013 [ Run 89 of 100 GA/GALS ]
Beginning LAMARCKIAN GENETIC ALGORITHM (LGA), with a maximum of 25000000 energy evaluations.

Final-Value: -12.054


	FINAL GENETIC ALGORITHM DOCKED STATE
	_______________________________________________


Detailed state:  trans 14.273 16.059 11.509 quatxyzw 0.207519 0.960201 0.089558 -0.164101 center 0.153 0.018 -0.028 ntor 13 105.4354 146.7146 113.9254 91.7621 -129.1436 121.8425 -51.1176 14.9321 44.5909 -123.4470 -78.1041 -85.6614 167.7683
State:	 14.273  16.059  11.509   0.210  0.973  0.091 -161.110    105.44  146.71  113.93   91.76 -129.14  121.84  -51.12   14.93   44.59 -123.45  -78.10  -85.66  167.77

DOCKED: MODEL       89
DOCKED: USER    Run = 89
DOCKED: USER    DPF = D:/Protein_go_brrr/autodock/final/1A3N/heme/dock.dpf
DOCKED: USER  
DOCKED: USER    Estimated Free Energy of Binding    =   -5.75 kcal/mol  [=(1)+(2)+(3)-(4)]
DOCKED: USER    Estimated Inhibition Constant, Ki   =   61.00 uM (micromolar)  [Temperature = 298.15 K]
DOCKED: USER    
DOCKED: USER    (1) Final Intermolecular Energy     =   -9.63 kcal/mol
DOCKED: USER        vdW + Hbond + desolv Energy     =   -8.79 kcal/mol
DOCKED: USER        Electrostatic Energy            =   -0.84 kcal/mol
DOCKED: USER    (2) Final Total Internal Energy     =   -2.43 kcal/mol
DOCKED: USER    (3) Torsional Free Energy           =   +3.88 kcal/mol
DOCKED: USER    (4) Unbound System's Energy  [=(2)] =   -2.43 kcal/mol
DOCKED: USER    
DOCKED: USER    
DOCKED: USER    NEWDPF move heme_opt.pdbqt
DOCKED: USER    NEWDPF about 0.153000 0.018000 -0.028000
DOCKED: USER    NEWDPF tran0 14.272907 16.058872 11.509261
DOCKED: USER    NEWDPF quaternion0 0.207519 0.960201 0.089558 -0.164101
DOCKED: USER    NEWDPF axisangle0 0.210370 0.973397 0.090788 -161.110027
DOCKED: USER    NEWDPF quat0 0.210370 0.973397 0.090788 -161.110027
DOCKED: USER    NEWDPF dihe0 105.44 146.71 113.93 91.76 -129.14 121.84 -51.12 14.93 44.59 -123.45 -78.10 -85.66 167.77 
DOCKED: USER  keepresnum = 1 
DOCKED: USER  
DOCKED: REMARK  13 active torsions:
DOCKED: REMARK  status: ('A' for Active; 'I' for Inactive)
DOCKED: REMARK    1  A    between atoms: O_3  and  C_38 
DOCKED: REMARK    2  A    between atoms: O_4  and  C_40 
DOCKED: REMARK    3  A    between atoms: O_7  and  C_46 
DOCKED: REMARK    4  A    between atoms: O_9  and  C_48 
DOCKED: REMARK    5  A    between atoms: C_15  and  C_20 
DOCKED: REMARK    6  A    between atoms: C_16  and  C_23 
DOCKED: REMARK    7  A    between atoms: C_20  and  C_38 
DOCKED: REMARK    8  A    between atoms: C_23  and  C_40 
DOCKED: REMARK    9  A    between atoms: C_32  and  C_41 
DOCKED: REMARK   10  A    between atoms: C_37  and  C_45 
DOCKED: REMARK   11  A    between atoms: C_41  and  C_44 
DOCKED: REMARK   12  A    between atoms: C_44  and  C_46 
DOCKED: REMARK   13  A    between atoms: C_47  and  C_48 
DOCKED: USER                              x       y       z     vdW  Elec       q    Type
DOCKED: USER                           _______ _______ _______ _____ _____    ______ ____
DOCKED: ROOT
DOCKED: ATOM      1  O   UNL d   1      19.950  15.242  12.872 -0.11 -0.07    -0.289 OA
DOCKED: ATOM      2  O   UNL d   1      14.213  10.407  12.553 -0.03 -0.08    -0.289 OA
DOCKED: ATOM      3  N   UNL d   1      16.723  16.218  12.146 +0.13 -0.05    -0.247 NA
DOCKED: ATOM      4  N   UNL d   1      15.257  13.641  11.951 -0.09 +0.01    -0.247 NA
DOCKED: ATOM      5  N   UNL d   1      13.081  15.076  10.739 -0.08 -0.05    -0.354 N 
DOCKED: ATOM      6  N   UNL d   1      14.616  17.743  10.928 -0.03 -0.09    -0.354 N 
DOCKED: ATOM      7  C   UNL d   1      18.902  17.339  12.180 -0.10 +0.02    +0.084 A 
DOCKED: ATOM      8  C   UNL d   1      16.157  11.745  13.203 -0.10 +0.01    +0.084 A 
DOCKED: ATOM      9  C   UNL d   1      16.301  13.195  12.731 -0.15 +0.00    +0.058 A 
DOCKED: ATOM     10  C   UNL d   1      17.393  17.411  11.932 -0.10 +0.01    +0.058 A 
DOCKED: ATOM     11  C   UNL d   1      18.964  15.898  12.590 -0.10 +0.04    +0.193 A 
DOCKED: ATOM     12  C   UNL d   1      17.577  15.337  12.554 -0.08 +0.02    +0.109 A 
DOCKED: ATOM     13  C   UNL d   1      14.856  11.438  12.516 -0.06 +0.03    +0.193 A 
DOCKED: ATOM     14  C   UNL d   1      19.706  17.522  10.890 -0.07 +0.01    +0.026 C 
DOCKED: ATOM     15  C   UNL d   1      17.377  13.947  13.011 -0.18 +0.01    +0.055 C 
DOCKED: ATOM     16  C   UNL d   1      15.946  11.660  14.718 -0.23 +0.00    +0.026 C 
DOCKED: ATOM     17  C   UNL d   1      14.421  12.666  11.785 -0.08 +0.00    +0.109 A 
DOCKED: ATOM     18  C   UNL d   1      16.786  18.572  11.622 -0.10 +0.01    +0.050 C 
DOCKED: ATOM     19  C   UNL d   1      15.388  18.751  11.458 -0.09 +0.01    +0.045 A 
DOCKED: ATOM     20  C   UNL d   1      12.662  13.789  10.525 -0.16 +0.01    +0.045 A 
DOCKED: ATOM     21  C   UNL d   1      13.192  12.649  10.979 -0.15 +0.01    +0.057 C 
DOCKED: ATOM     22  C   UNL d   1      11.253  15.216   9.430 -0.20 -0.01    -0.019 A 
DOCKED: ATOM     23  C   UNL d   1      12.293  16.008  10.117 -0.19 +0.01    +0.045 A 
DOCKED: ATOM     24  C   UNL d   1      11.477  13.903   9.676 -0.16 -0.01    -0.022 A 
DOCKED: ATOM     25  C   UNL d   1      13.314  18.161  10.775 -0.15 +0.02    +0.049 A 
DOCKED: ATOM     26  C   UNL d   1      14.561  19.840  11.689 -0.09 -0.00    -0.018 A 
DOCKED: ATOM     27  C   UNL d   1      13.249  19.454  11.274 -0.15 +0.00    +0.003 A 
DOCKED: ATOM     28  C   UNL d   1      12.362  17.348  10.102 -0.22 +0.02    +0.052 C 
DOCKED: ATOM     29  C   UNL d   1      10.695  12.721   9.213 -0.20 +0.02    +0.046 C 
DOCKED: ATOM     30  C   UNL d   1      14.962  21.157  12.262 -0.08 +0.01    +0.046 C 
DOCKED: ATOM     31  H   UNL d   1      13.851  15.281  11.367 -0.07 +0.01    +0.166 HD
DOCKED: ATOM     32  H   UNL d   1      14.984  16.839  10.657 +0.05 +0.04    +0.166 HD
DOCKED: ENDROOT
DOCKED: BRANCH   7  33
DOCKED: ATOM     33  C   UNL d   1      19.428  18.241  13.302 -0.09 +0.06    +0.141 C 
DOCKED: BRANCH  33  34
DOCKED: ATOM     34  C   UNL d   1      19.478  17.540  14.633 -0.09 +0.17    +0.306 C 
DOCKED: ATOM     35  O   UNL d   1      18.524  17.278  15.346 -0.17 -0.11    -0.251 OA
DOCKED: BRANCH  34  36
DOCKED: ATOM     36  O   UNL d   1      20.729  17.202  14.994 -0.15 -0.49    -0.481 OA
DOCKED: ATOM     37  H   UNL d   1      20.935  16.409  14.455 +0.13 +0.22    +0.295 HD
DOCKED: ENDBRANCH  34  36
DOCKED: ENDBRANCH  33  34
DOCKED: ENDBRANCH   7  33
DOCKED: BRANCH  27  38
DOCKED: ATOM     38  C   UNL d   1      12.088  20.291  11.325 -0.23 +0.01    +0.017 C 
DOCKED: ATOM     39  C   UNL d   1      11.226  20.482  10.315 -0.30 +0.05    +0.092 C 
DOCKED: BRANCH  39  40
DOCKED: ATOM     40  C   UNL d   1      10.063  21.353  10.503 -0.25 +0.19    +0.330 C 
DOCKED: ATOM     41  O   UNL d   1       9.785  22.365   9.889 -0.77 -0.21    -0.246 OA
DOCKED: BRANCH  40  42
DOCKED: ATOM     42  O   UNL d   1       9.283  20.876  11.486 -0.13 -0.15    -0.477 OA
DOCKED: ATOM     43  H   UNL d   1       9.380  19.904  11.412 -0.30 -0.01    +0.295 HD
DOCKED: ENDBRANCH  40  42
DOCKED: ENDBRANCH  39  40
DOCKED: ENDBRANCH  27  38
DOCKED: BRANCH   8  44
DOCKED: ATOM     44  C   UNL d   1      17.261  10.787  12.742 -0.09 +0.05    +0.141 C 
DOCKED: BRANCH  44  45
DOCKED: ATOM     45  C   UNL d   1      16.985   9.350  13.094 -0.03 +0.28    +0.306 C 
DOCKED: ATOM     46  O   UNL d   1      17.388   8.751  14.076 -0.41 -0.27    -0.251 OA
DOCKED: BRANCH  45  47
DOCKED: ATOM     47  O   UNL d   1      16.232   8.729  12.168 -0.34 -0.62    -0.481 OA
DOCKED: ATOM     48  H   UNL d   1      15.358   9.170  12.222 +0.06 +0.22    +0.295 HD
DOCKED: ENDBRANCH  45  47
DOCKED: ENDBRANCH  44  45
DOCKED: ENDBRANCH   8  44
DOCKED: BRANCH  22  49
DOCKED: ATOM     49  C   UNL d   1      10.159  15.808   8.592 -0.33 +0.03    +0.048 C 
DOCKED: BRANCH  49  50
DOCKED: ATOM     50  C   UNL d   1      10.619  16.072   7.158 -0.27 +0.09    +0.125 C 
DOCKED: BRANCH  50  51
DOCKED: ATOM     51  C   UNL d   1      10.095  15.018   6.224 -0.26 +0.11    +0.305 C 
DOCKED: ATOM     52  O   UNL d   1       9.282  14.145   6.471 -0.60 -0.18    -0.251 OA
DOCKED: BRANCH  51  53
DOCKED: ATOM     53  O   UNL d   1      10.647  15.112   4.998 -0.40 +0.02    -0.481 OA
DOCKED: ATOM     54  H   UNL d   1      10.057  15.731   4.519 -0.29 -0.28    +0.295 HD
DOCKED: ENDBRANCH  51  53
DOCKED: ENDBRANCH  50  51
DOCKED: ENDBRANCH  49  50
DOCKED: ENDBRANCH  22  49
DOCKED: TORSDOF 13
DOCKED: TER
DOCKED: ENDMDL
________________________________________________________________________________


	BEGINNING GENETIC ALGORITHM DOCKING 90 of 100
Run: 90 Seed: 2102114658 957954969 [ Run 90 of 100 GA/GALS ]
Beginning LAMARCKIAN GENETIC ALGORITHM (LGA), with a maximum of 25000000 energy evaluations.

Final-Value: -11.687


	FINAL GENETIC ALGORITHM DOCKED STATE
	_______________________________________________


Detailed state:  trans 19.229 -9.155 -11.696 quatxyzw 0.474303 0.281228 0.311722 0.773807 center 0.153 0.018 -0.028 ntor 13 80.3113 64.6083 130.3144 -8.1102 -178.4894 -151.3583 -80.3153 -133.1053 102.6643 -23.6102 -71.7258 18.0137 179.9794
State:	 19.229  -9.155 -11.696   0.749  0.444  0.492 78.606     80.31   64.61  130.31   -8.11 -178.49 -151.36  -80.32 -133.11  102.66  -23.61  -71.73   18.01  179.98

DOCKED: MODEL       90
DOCKED: USER    Run = 90
DOCKED: USER    DPF = D:/Protein_go_brrr/autodock/final/1A3N/heme/dock.dpf
DOCKED: USER  
DOCKED: USER    Estimated Free Energy of Binding    =   -5.73 kcal/mol  [=(1)+(2)+(3)-(4)]
DOCKED: USER    Estimated Inhibition Constant, Ki   =   63.22 uM (micromolar)  [Temperature = 298.15 K]
DOCKED: USER    
DOCKED: USER    (1) Final Intermolecular Energy     =   -9.61 kcal/mol
DOCKED: USER        vdW + Hbond + desolv Energy     =   -8.90 kcal/mol
DOCKED: USER        Electrostatic Energy            =   -0.70 kcal/mol
DOCKED: USER    (2) Final Total Internal Energy     =   -2.08 kcal/mol
DOCKED: USER    (3) Torsional Free Energy           =   +3.88 kcal/mol
DOCKED: USER    (4) Unbound System's Energy  [=(2)] =   -2.08 kcal/mol
DOCKED: USER    
DOCKED: USER    
DOCKED: USER    NEWDPF move heme_opt.pdbqt
DOCKED: USER    NEWDPF about 0.153000 0.018000 -0.028000
DOCKED: USER    NEWDPF tran0 19.228618 -9.155214 -11.696417
DOCKED: USER    NEWDPF quaternion0 0.474303 0.281228 0.311722 0.773807
DOCKED: USER    NEWDPF axisangle0 0.748795 0.443982 0.492124 78.606011
DOCKED: USER    NEWDPF quat0 0.748795 0.443982 0.492124 78.606011
DOCKED: USER    NEWDPF dihe0 80.31 64.61 130.31 -8.11 -178.49 -151.36 -80.32 -133.11 102.66 -23.61 -71.73 18.01 179.98 
DOCKED: USER  keepresnum = 1 
DOCKED: USER  
DOCKED: REMARK  13 active torsions:
DOCKED: REMARK  status: ('A' for Active; 'I' for Inactive)
DOCKED: REMARK    1  A    between atoms: O_3  and  C_38 
DOCKED: REMARK    2  A    between atoms: O_4  and  C_40 
DOCKED: REMARK    3  A    between atoms: O_7  and  C_46 
DOCKED: REMARK    4  A    between atoms: O_9  and  C_48 
DOCKED: REMARK    5  A    between atoms: C_15  and  C_20 
DOCKED: REMARK    6  A    between atoms: C_16  and  C_23 
DOCKED: REMARK    7  A    between atoms: C_20  and  C_38 
DOCKED: REMARK    8  A    between atoms: C_23  and  C_40 
DOCKED: REMARK    9  A    between atoms: C_32  and  C_41 
DOCKED: REMARK   10  A    between atoms: C_37  and  C_45 
DOCKED: REMARK   11  A    between atoms: C_41  and  C_44 
DOCKED: REMARK   12  A    between atoms: C_44  and  C_46 
DOCKED: REMARK   13  A    between atoms: C_47  and  C_48 
DOCKED: USER                              x       y       z     vdW  Elec       q    Type
DOCKED: USER                           _______ _______ _______ _____ _____    ______ ____
DOCKED: ROOT
DOCKED: ATOM      1  O   UNL d   1      16.771  -6.755 -16.487 -0.01 -0.00    -0.289 OA
DOCKED: ATOM      2  O   UNL d   1      14.098 -11.742 -11.550 -0.30 -0.29    -0.289 OA
DOCKED: ATOM      3  N   UNL d   1      18.653  -7.989 -13.874 -0.06 +0.03    -0.247 NA
DOCKED: ATOM      4  N   UNL d   1      16.700  -9.615 -12.334 -0.06 -0.01    -0.247 NA
DOCKED: ATOM      5  N   UNL d   1      18.603  -9.692 -10.180 -0.05 +0.05    -0.354 N 
DOCKED: ATOM      6  N   UNL d   1      20.615  -7.988 -11.777 +0.14 +0.16    -0.354 N 
DOCKED: ATOM      7  C   UNL d   1      18.988  -6.264 -15.582 -0.09 -0.00    +0.084 A 
DOCKED: ATOM      8  C   UNL d   1      14.793 -10.529 -13.559 -0.08 +0.02    +0.084 A 
DOCKED: ATOM      9  C   UNL d   1      16.041  -9.639 -13.543 -0.06 +0.01    +0.058 A 
DOCKED: ATOM     10  C   UNL d   1      19.520  -7.029 -14.367 -0.13 -0.01    +0.058 A 
DOCKED: ATOM     11  C   UNL d   1      17.673  -6.975 -15.700 -0.02 -0.00    +0.193 A 
DOCKED: ATOM     12  C   UNL d   1      17.600  -8.014 -14.625 -0.04 -0.00    +0.109 A 
DOCKED: ATOM     13  C   UNL d   1      14.845 -10.975 -12.125 -0.16 +0.08    +0.193 A 
DOCKED: ATOM     14  C   UNL d   1      18.727  -4.790 -15.264 -0.19 +0.00    +0.026 C 
DOCKED: ATOM     15  C   UNL d   1      16.425  -8.909 -14.601 -0.03 +0.00    +0.055 C 
DOCKED: ATOM     16  C   UNL d   1      14.979 -11.752 -14.462 -0.06 +0.01    +0.026 C 
DOCKED: ATOM     17  C   UNL d   1      16.043 -10.345 -11.491 -0.15 +0.01    +0.109 A 
DOCKED: ATOM     18  C   UNL d   1      20.766  -6.825 -13.899 -0.22 -0.01    +0.050 C 
DOCKED: ATOM     19  C   UNL d   1      21.373  -7.543 -12.837 -0.20 -0.02    +0.045 A 
DOCKED: ATOM     20  C   UNL d   1      17.509 -10.222  -9.547 -0.16 -0.01    +0.045 A 
DOCKED: ATOM     21  C   UNL d   1      16.327 -10.569 -10.066 -0.18 -0.00    +0.057 C 
DOCKED: ATOM     22  C   UNL d   1      19.165  -9.893  -8.008 -0.14 +0.00    -0.019 A 
DOCKED: ATOM     23  C   UNL d   1      19.653  -9.458  -9.332 -0.15 -0.01    +0.045 A 
DOCKED: ATOM     24  C   UNL d   1      17.896 -10.346  -8.142 -0.18 +0.00    -0.022 A 
DOCKED: ATOM     25  C   UNL d   1      21.415  -8.575 -10.824 -0.23 -0.02    +0.049 A 
DOCKED: ATOM     26  C   UNL d   1      22.693  -7.882 -12.583 -0.26 +0.01    -0.018 A 
DOCKED: ATOM     27  C   UNL d   1      22.711  -8.551 -11.321 -0.21 -0.00    +0.003 A 
DOCKED: ATOM     28  C   UNL d   1      20.881  -8.972  -9.568 -0.24 -0.01    +0.052 C 
DOCKED: ATOM     29  C   UNL d   1      16.988 -10.899  -7.097 -0.37 -0.02    +0.046 C 
DOCKED: ATOM     30  C   UNL d   1      23.867  -7.604 -13.460 -0.27 -0.01    +0.046 C 
DOCKED: ATOM     31  H   UNL d   1      18.622  -9.574 -11.187 +0.04 -0.02    +0.166 HD
DOCKED: ATOM     32  H   UNL d   1      19.613  -7.855 -11.709 -0.52 -0.09    +0.166 HD
DOCKED: ENDROOT
DOCKED: BRANCH   7  33
DOCKED: ATOM     33  C   UNL d   1      19.803  -6.425 -16.870 -0.03 -0.00    +0.141 C 
DOCKED: BRANCH  33  34
DOCKED: ATOM     34  C   UNL d   1      18.959  -6.302 -18.109 -0.00 -0.00    +0.306 C 
DOCKED: ATOM     35  O   UNL d   1      18.868  -7.126 -19.003 -0.00 -0.00    -0.251 OA
DOCKED: BRANCH  34  36
DOCKED: ATOM     36  O   UNL d   1      18.272  -5.147 -18.156 +0.00 -0.01    -0.481 OA
DOCKED: ATOM     37  H   UNL d   1      17.358  -5.393 -17.899 +0.01 +0.01    +0.295 HD
DOCKED: ENDBRANCH  34  36
DOCKED: ENDBRANCH  33  34
DOCKED: ENDBRANCH   7  33
DOCKED: BRANCH  27  38
DOCKED: ATOM     38  C   UNL d   1      23.882  -9.057 -10.672 -0.34 -0.01    +0.017 C 
DOCKED: ATOM     39  C   UNL d   1      24.050 -10.321 -10.253 -0.21 -0.03    +0.092 C 
DOCKED: BRANCH  39  40
DOCKED: ATOM     40  C   UNL d   1      25.309 -10.718  -9.616 -0.19 -0.14    +0.330 C 
DOCKED: ATOM     41  O   UNL d   1      25.808 -11.826  -9.583 -0.11 +0.09    -0.246 OA
DOCKED: BRANCH  40  42
DOCKED: ATOM     42  O   UNL d   1      25.893  -9.654  -9.044 -0.33 +0.22    -0.477 OA
DOCKED: ATOM     43  H   UNL d   1      26.724  -9.542  -9.549 -0.47 -0.42    +0.295 HD
DOCKED: ENDBRANCH  40  42
DOCKED: ENDBRANCH  39  40
DOCKED: ENDBRANCH  27  38
DOCKED: BRANCH   8  44
DOCKED: ATOM     44  C   UNL d   1      13.474  -9.811 -13.863 -0.10 +0.03    +0.141 C 
DOCKED: BRANCH  44  45
DOCKED: ATOM     45  C   UNL d   1      12.982  -8.963 -12.720 -0.18 +0.05    +0.306 C 
DOCKED: ATOM     46  O   UNL d   1      11.893  -9.036 -12.177 -0.28 -0.02    -0.251 OA
DOCKED: BRANCH  45  47
DOCKED: ATOM     47  O   UNL d   1      13.885  -8.042 -12.336 -0.65 -0.14    -0.481 OA
DOCKED: ATOM     48  H   UNL d   1      14.717  -8.547 -12.213 +0.10 +0.07    +0.295 HD
DOCKED: ENDBRANCH  45  47
DOCKED: ENDBRANCH  44  45
DOCKED: ENDBRANCH   8  44
DOCKED: BRANCH  22  49
DOCKED: ATOM     49  C   UNL d   1      19.971  -9.814  -6.745 -0.20 -0.00    +0.048 C 
DOCKED: BRANCH  49  50
DOCKED: ATOM     50  C   UNL d   1      19.651  -8.552  -5.944 -0.34 -0.01    +0.125 C 
DOCKED: BRANCH  50  51
DOCKED: ATOM     51  C   UNL d   1      18.890  -8.889  -4.693 -0.22 -0.06    +0.305 C 
DOCKED: ATOM     52  O   UNL d   1      17.949  -8.285  -4.210 -0.37 +0.08    -0.251 OA
DOCKED: BRANCH  51  53
DOCKED: ATOM     53  O   UNL d   1      19.374  -9.994  -4.091 -0.10 +0.11    -0.481 OA
DOCKED: ATOM     54  H   UNL d   1      18.899 -10.026  -3.235 -0.25 -0.36    +0.295 HD
DOCKED: ENDBRANCH  51  53
DOCKED: ENDBRANCH  50  51
DOCKED: ENDBRANCH  49  50
DOCKED: ENDBRANCH  22  49
DOCKED: TORSDOF 13
DOCKED: TER
DOCKED: ENDMDL
________________________________________________________________________________


	BEGINNING GENETIC ALGORITHM DOCKING 91 of 100
Run: 91 Seed: 199297129 1540461599 [ Run 91 of 100 GA/GALS ]
Beginning LAMARCKIAN GENETIC ALGORITHM (LGA), with a maximum of 25000000 energy evaluations.

Final-Value: -12.537


	FINAL GENETIC ALGORITHM DOCKED STATE
	_______________________________________________


Detailed state:  trans 3.315 -5.140 -6.949 quatxyzw 0.585858 0.160109 0.426331 -0.670356 center 0.153 0.018 -0.028 ntor 13 100.1694 5.6199 111.9556 -179.0517 6.7027 178.3215 -48.2000 -65.5382 -172.9740 -132.6343 -27.2771 -178.7499 -129.7481
State:	  3.315  -5.140  -6.949   0.790  0.216  0.575 -95.811    100.17    5.62  111.96 -179.05    6.70  178.32  -48.20  -65.54 -172.97 -132.63  -27.28 -178.75 -129.75

DOCKED: MODEL       91
DOCKED: USER    Run = 91
DOCKED: USER    DPF = D:/Protein_go_brrr/autodock/final/1A3N/heme/dock.dpf
DOCKED: USER  
DOCKED: USER    Estimated Free Energy of Binding    =   -7.43 kcal/mol  [=(1)+(2)+(3)-(4)]
DOCKED: USER    Estimated Inhibition Constant, Ki   =    3.59 uM (micromolar)  [Temperature = 298.15 K]
DOCKED: USER    
DOCKED: USER    (1) Final Intermolecular Energy     =  -11.31 kcal/mol
DOCKED: USER        vdW + Hbond + desolv Energy     =  -11.22 kcal/mol
DOCKED: USER        Electrostatic Energy            =   -0.09 kcal/mol
DOCKED: USER    (2) Final Total Internal Energy     =   -1.23 kcal/mol
DOCKED: USER    (3) Torsional Free Energy           =   +3.88 kcal/mol
DOCKED: USER    (4) Unbound System's Energy  [=(2)] =   -1.23 kcal/mol
DOCKED: USER    
DOCKED: USER    
DOCKED: USER    NEWDPF move heme_opt.pdbqt
DOCKED: USER    NEWDPF about 0.153000 0.018000 -0.028000
DOCKED: USER    NEWDPF tran0 3.314804 -5.139971 -6.948638
DOCKED: USER    NEWDPF quaternion0 0.585858 0.160109 0.426331 -0.670356
DOCKED: USER    NEWDPF axisangle0 0.789524 0.215769 0.574539 -95.810909
DOCKED: USER    NEWDPF quat0 0.789524 0.215769 0.574539 -95.810909
DOCKED: USER    NEWDPF dihe0 100.17 5.62 111.96 -179.05 6.70 178.32 -48.20 -65.54 -172.97 -132.63 -27.28 -178.75 -129.75 
DOCKED: USER  keepresnum = 1 
DOCKED: USER  
DOCKED: REMARK  13 active torsions:
DOCKED: REMARK  status: ('A' for Active; 'I' for Inactive)
DOCKED: REMARK    1  A    between atoms: O_3  and  C_38 
DOCKED: REMARK    2  A    between atoms: O_4  and  C_40 
DOCKED: REMARK    3  A    between atoms: O_7  and  C_46 
DOCKED: REMARK    4  A    between atoms: O_9  and  C_48 
DOCKED: REMARK    5  A    between atoms: C_15  and  C_20 
DOCKED: REMARK    6  A    between atoms: C_16  and  C_23 
DOCKED: REMARK    7  A    between atoms: C_20  and  C_38 
DOCKED: REMARK    8  A    between atoms: C_23  and  C_40 
DOCKED: REMARK    9  A    between atoms: C_32  and  C_41 
DOCKED: REMARK   10  A    between atoms: C_37  and  C_45 
DOCKED: REMARK   11  A    between atoms: C_41  and  C_44 
DOCKED: REMARK   12  A    between atoms: C_44  and  C_46 
DOCKED: REMARK   13  A    between atoms: C_47  and  C_48 
DOCKED: USER                              x       y       z     vdW  Elec       q    Type
DOCKED: USER                           _______ _______ _______ _____ _____    ______ ____
DOCKED: ROOT
DOCKED: ATOM      1  O   UNL d   1      -0.155  -9.905  -6.820 -0.13 -0.09    -0.289 OA
DOCKED: ATOM      2  O   UNL d   1       2.493  -5.890 -12.588 -0.01 -0.08    -0.289 OA
DOCKED: ATOM      3  N   UNL d   1       1.762  -7.069  -6.398 -0.09 -0.09    -0.247 NA
DOCKED: ATOM      4  N   UNL d   1       2.571  -6.372  -9.171 -0.11 -0.09    -0.247 NA
DOCKED: ATOM      5  N   UNL d   1       4.511  -4.569  -8.054 -0.12 -0.04    -0.354 N 
DOCKED: ATOM      6  N   UNL d   1       3.680  -5.312  -5.180 -0.19 -0.05    -0.354 N 
DOCKED: ATOM      7  C   UNL d   1       0.851  -8.779  -4.897 -0.31 +0.02    +0.084 A 
DOCKED: ATOM      8  C   UNL d   1       1.104  -7.108 -10.982 -0.08 +0.05    +0.084 A 
DOCKED: ATOM      9  C   UNL d   1       1.452  -7.109  -9.490 -0.16 +0.03    +0.058 A 
DOCKED: ATOM     10  C   UNL d   1       1.671  -7.499  -5.085 -0.31 +0.01    +0.058 A 
DOCKED: ATOM     11  C   UNL d   1       0.479  -8.985  -6.335 -0.19 +0.06    +0.193 A 
DOCKED: ATOM     12  C   UNL d   1       1.069  -7.869  -7.140 -0.21 +0.05    +0.109 A 
DOCKED: ATOM     13  C   UNL d   1       2.253  -6.264 -11.456 -0.03 +0.07    +0.193 A 
DOCKED: ATOM     14  C   UNL d   1       1.717  -9.954  -4.437 -0.32 +0.00    +0.026 C 
DOCKED: ATOM     15  C   UNL d   1       0.755  -7.811  -8.582 -0.23 +0.04    +0.055 C 
DOCKED: ATOM     16  C   UNL d   1      -0.204  -6.360 -11.259 -0.08 +0.03    +0.026 C 
DOCKED: ATOM     17  C   UNL d   1       3.071  -5.890 -10.263 -0.10 +0.03    +0.109 A 
DOCKED: ATOM     18  C   UNL d   1       2.172  -6.824  -4.033 -0.23 +0.00    +0.050 C 
DOCKED: ATOM     19  C   UNL d   1       2.868  -5.591  -4.104 -0.30 +0.01    +0.045 A 
DOCKED: ATOM     20  C   UNL d   1       4.899  -4.547  -9.368 -0.20 +0.00    +0.045 A 
DOCKED: ATOM     21  C   UNL d   1       4.296  -5.094 -10.429 -0.14 +0.01    +0.057 C 
DOCKED: ATOM     22  C   UNL d   1       6.431  -3.393  -8.128 -0.43 +0.00    -0.019 A 
DOCKED: ATOM     23  C   UNL d   1       5.374  -3.899  -7.229 -0.42 +0.00    +0.045 A 
DOCKED: ATOM     24  C   UNL d   1       6.143  -3.779  -9.393 -0.27 -0.00    -0.022 A 
DOCKED: ATOM     25  C   UNL d   1       4.325  -4.110  -5.000 -0.43 +0.01    +0.049 A 
DOCKED: ATOM     26  C   UNL d   1       2.960  -4.527  -3.219 -0.39 -0.00    -0.018 A 
DOCKED: ATOM     27  C   UNL d   1       3.866  -3.586  -3.800 -0.45 +0.00    +0.003 A 
DOCKED: ATOM     28  C   UNL d   1       5.334  -3.682  -5.905 -0.51 +0.00    +0.052 C 
DOCKED: ATOM     29  C   UNL d   1       6.901  -3.504 -10.648 -0.19 +0.00    +0.046 C 
DOCKED: ATOM     30  C   UNL d   1       2.249  -4.389  -1.916 -0.42 +0.00    +0.046 C 
DOCKED: ATOM     31  H   UNL d   1       3.627  -4.980  -7.773 +0.08 +0.03    +0.166 HD
DOCKED: ATOM     32  H   UNL d   1       3.803  -5.938  -5.967 +0.09 +0.02    +0.166 HD
DOCKED: ENDROOT
DOCKED: BRANCH   7  33
DOCKED: ATOM     33  C   UNL d   1      -0.405  -8.633  -4.032 -0.41 +0.02    +0.141 C 
DOCKED: BRANCH  33  34
DOCKED: ATOM     34  C   UNL d   1      -0.437  -9.610  -2.888 -0.31 +0.02    +0.306 C 
DOCKED: ATOM     35  O   UNL d   1       0.378  -9.687  -1.984 -0.30 -0.01    -0.251 OA
DOCKED: BRANCH  34  36
DOCKED: ATOM     36  O   UNL d   1      -1.496 -10.437  -2.942 -0.15 +0.01    -0.481 OA
DOCKED: ATOM     37  H   UNL d   1      -2.232  -9.921  -2.550 -0.05 -0.06    +0.295 HD
DOCKED: ENDBRANCH  34  36
DOCKED: ENDBRANCH  33  34
DOCKED: ENDBRANCH   7  33
DOCKED: BRANCH  27  38
DOCKED: ATOM     38  C   UNL d   1       4.258  -2.344  -3.206 -0.41 +0.00    +0.017 C 
DOCKED: ATOM     39  C   UNL d   1       4.483  -2.148  -1.897 -0.48 +0.01    +0.092 C 
DOCKED: BRANCH  39  40
DOCKED: ATOM     40  C   UNL d   1       4.898  -0.827  -1.418 -0.36 +0.01    +0.330 C 
DOCKED: ATOM     41  O   UNL d   1       5.078  -0.477  -0.267 -0.39 -0.01    -0.246 OA
DOCKED: BRANCH  40  42
DOCKED: ATOM     42  O   UNL d   1       5.079   0.005  -2.455 -0.24 +0.01    -0.477 OA
DOCKED: ATOM     43  H   UNL d   1       5.437   0.818  -2.044 +0.22 -0.02    +0.295 HD
DOCKED: ENDBRANCH  40  42
DOCKED: ENDBRANCH  39  40
DOCKED: ENDBRANCH  27  38
DOCKED: BRANCH   8  44
DOCKED: ATOM     44  C   UNL d   1       1.112  -8.480 -11.663 -0.03 +0.05    +0.141 C 
DOCKED: BRANCH  44  45
DOCKED: ATOM     45  C   UNL d   1       0.710  -8.426 -13.113 +0.00 +0.09    +0.306 C 
DOCKED: ATOM     46  O   UNL d   1      -0.414  -8.572 -13.561 -0.00 -0.07    -0.251 OA
DOCKED: BRANCH  45  47
DOCKED: ATOM     47  O   UNL d   1       1.758  -8.218 -13.930 +0.01 -0.09    -0.481 OA
DOCKED: ATOM     48  H   UNL d   1       2.038  -7.296 -13.744 +0.01 +0.06    +0.295 HD
DOCKED: ENDBRANCH  45  47
DOCKED: ENDBRANCH  44  45
DOCKED: ENDBRANCH   8  44
DOCKED: BRANCH  22  49
DOCKED: ATOM     49  C   UNL d   1       7.620  -2.601  -7.669 -0.24 -0.00    +0.048 C 
DOCKED: BRANCH  49  50
DOCKED: ATOM     50  C   UNL d   1       8.859  -2.894  -8.514 -0.22 -0.02    +0.125 C 
DOCKED: BRANCH  50  51
DOCKED: ATOM     51  C   UNL d   1       9.801  -1.723  -8.508 -0.24 -0.00    +0.305 C 
DOCKED: ATOM     52  O   UNL d   1       9.655  -0.649  -9.065 -0.26 -0.01    -0.251 OA
DOCKED: BRANCH  51  53
DOCKED: ATOM     53  O   UNL d   1      10.916  -1.976  -7.793 -0.17 +0.01    -0.481 OA
DOCKED: ATOM     54  H   UNL d   1      10.790  -2.894  -7.474 -0.35 -0.12    +0.295 HD
DOCKED: ENDBRANCH  51  53
DOCKED: ENDBRANCH  50  51
DOCKED: ENDBRANCH  49  50
DOCKED: ENDBRANCH  22  49
DOCKED: TORSDOF 13
DOCKED: TER
DOCKED: ENDMDL
________________________________________________________________________________


	BEGINNING GENETIC ALGORITHM DOCKING 92 of 100
Run: 92 Seed: 2136793143 1416157866 [ Run 92 of 100 GA/GALS ]
Beginning LAMARCKIAN GENETIC ALGORITHM (LGA), with a maximum of 25000000 energy evaluations.

Final-Value: -10.477


	FINAL GENETIC ALGORITHM DOCKED STATE
	_______________________________________________


Detailed state:  trans -8.133 24.718 17.796 quatxyzw -0.558592 0.359495 0.552252 -0.503742 center 0.153 0.018 -0.028 ntor 13 -125.2057 -33.8211 -111.9906 -127.5924 30.2056 -117.2007 126.4430 -76.0725 33.6083 -18.0079 -70.8586 -80.2703 -173.6970
State:	 -8.133  24.718  17.796  -0.647  0.416  0.639 -119.504   -125.21  -33.82 -111.99 -127.59   30.21 -117.20  126.44  -76.07   33.61  -18.01  -70.86  -80.27 -173.70

DOCKED: MODEL       92
DOCKED: USER    Run = 92
DOCKED: USER    DPF = D:/Protein_go_brrr/autodock/final/1A3N/heme/dock.dpf
DOCKED: USER  
DOCKED: USER    Estimated Free Energy of Binding    =   -4.66 kcal/mol  [=(1)+(2)+(3)-(4)]
DOCKED: USER    Estimated Inhibition Constant, Ki   =  382.22 uM (micromolar)  [Temperature = 298.15 K]
DOCKED: USER    
DOCKED: USER    (1) Final Intermolecular Energy     =   -8.54 kcal/mol
DOCKED: USER        vdW + Hbond + desolv Energy     =   -8.18 kcal/mol
DOCKED: USER        Electrostatic Energy            =   -0.36 kcal/mol
DOCKED: USER    (2) Final Total Internal Energy     =   -1.94 kcal/mol
DOCKED: USER    (3) Torsional Free Energy           =   +3.88 kcal/mol
DOCKED: USER    (4) Unbound System's Energy  [=(2)] =   -1.94 kcal/mol
DOCKED: USER    
DOCKED: USER    
DOCKED: USER    NEWDPF move heme_opt.pdbqt
DOCKED: USER    NEWDPF about 0.153000 0.018000 -0.028000
DOCKED: USER    NEWDPF tran0 -8.133100 24.717950 17.795963
DOCKED: USER    NEWDPF quaternion0 -0.558592 0.359495 0.552252 -0.503742
DOCKED: USER    NEWDPF axisangle0 -0.646628 0.416152 0.639288 -119.504229
DOCKED: USER    NEWDPF quat0 -0.646628 0.416152 0.639288 -119.504229
DOCKED: USER    NEWDPF dihe0 -125.21 -33.82 -111.99 -127.59 30.21 -117.20 126.44 -76.07 33.61 -18.01 -70.86 -80.27 -173.70 
DOCKED: USER  keepresnum = 1 
DOCKED: USER  
DOCKED: REMARK  13 active torsions:
DOCKED: REMARK  status: ('A' for Active; 'I' for Inactive)
DOCKED: REMARK    1  A    between atoms: O_3  and  C_38 
DOCKED: REMARK    2  A    between atoms: O_4  and  C_40 
DOCKED: REMARK    3  A    between atoms: O_7  and  C_46 
DOCKED: REMARK    4  A    between atoms: O_9  and  C_48 
DOCKED: REMARK    5  A    between atoms: C_15  and  C_20 
DOCKED: REMARK    6  A    between atoms: C_16  and  C_23 
DOCKED: REMARK    7  A    between atoms: C_20  and  C_38 
DOCKED: REMARK    8  A    between atoms: C_23  and  C_40 
DOCKED: REMARK    9  A    between atoms: C_32  and  C_41 
DOCKED: REMARK   10  A    between atoms: C_37  and  C_45 
DOCKED: REMARK   11  A    between atoms: C_41  and  C_44 
DOCKED: REMARK   12  A    between atoms: C_44  and  C_46 
DOCKED: REMARK   13  A    between atoms: C_47  and  C_48 
DOCKED: USER                              x       y       z     vdW  Elec       q    Type
DOCKED: USER                           _______ _______ _______ _____ _____    ______ ____
DOCKED: ROOT
DOCKED: ATOM      1  O   UNL d   1     -10.654  24.076  23.086 -0.11 -0.02    -0.289 OA
DOCKED: ATOM      2  O   UNL d   1      -3.438  23.925  21.015 -0.05 +0.01    -0.289 OA
DOCKED: ATOM      3  N   UNL d   1      -9.647  24.370  19.801 +0.01 +0.04    -0.247 NA
DOCKED: ATOM      4  N   UNL d   1      -6.686  24.504  20.003 -0.13 +0.00    -0.247 NA
DOCKED: ATOM      5  N   UNL d   1      -6.631  25.384  17.267 -0.09 -0.02    -0.354 N 
DOCKED: ATOM      6  N   UNL d   1      -9.705  25.260  17.071 -0.06 -0.01    -0.354 N 
DOCKED: ATOM      7  C   UNL d   1     -11.792  24.545  20.974 -0.09 -0.00    +0.084 A 
DOCKED: ATOM      8  C   UNL d   1      -5.650  23.452  21.950 -0.28 -0.01    +0.084 A 
DOCKED: ATOM      9  C   UNL d   1      -6.920  23.874  21.205 -0.27 -0.00    +0.058 A 
DOCKED: ATOM     10  C   UNL d   1     -11.004  24.609  19.662 -0.09 -0.01    +0.058 A 
DOCKED: ATOM     11  C   UNL d   1     -10.643  24.210  21.876 -0.11 +0.00    +0.193 A 
DOCKED: ATOM     12  C   UNL d   1      -9.403  24.105  21.043 -0.14 -0.01    +0.109 A 
DOCKED: ATOM     13  C   UNL d   1      -4.651  23.993  20.967 -0.20 -0.01    +0.193 A 
DOCKED: ATOM     14  C   UNL d   1     -12.353  25.912  21.374 -0.03 +0.00    +0.026 C 
DOCKED: ATOM     15  C   UNL d   1      -8.151  23.690  21.707 -0.21 -0.00    +0.055 C 
DOCKED: ATOM     16  C   UNL d   1      -5.506  21.928  22.011 -0.56 -0.01    +0.026 C 
DOCKED: ATOM     17  C   UNL d   1      -5.407  24.612  19.837 -0.22 -0.00    +0.109 A 
DOCKED: ATOM     18  C   UNL d   1     -11.621  24.793  18.480 -0.14 -0.00    +0.050 C 
DOCKED: ATOM     19  C   UNL d   1     -10.988  24.782  17.211 -0.15 -0.00    +0.045 A 
DOCKED: ATOM     20  C   UNL d   1      -5.323  25.603  17.611 -0.27 +0.00    +0.045 A 
DOCKED: ATOM     21  C   UNL d   1      -4.684  25.266  18.736 -0.29 +0.00    +0.057 C 
DOCKED: ATOM     22  C   UNL d   1      -5.691  26.460  15.526 -0.21 -0.00    -0.019 A 
DOCKED: ATOM     23  C   UNL d   1      -6.948  25.866  16.025 -0.24 +0.00    +0.045 A 
DOCKED: ATOM     24  C   UNL d   1      -4.733  26.300  16.468 -0.26 -0.00    -0.022 A 
DOCKED: ATOM     25  C   UNL d   1      -9.323  25.240  15.750 -0.19 +0.00    +0.049 A 
DOCKED: ATOM     26  C   UNL d   1     -11.438  24.407  15.955 -0.17 +0.00    -0.018 A 
DOCKED: ATOM     27  C   UNL d   1     -10.375  24.680  15.039 -0.20 -0.00    +0.003 A 
DOCKED: ATOM     28  C   UNL d   1      -8.098  25.831  15.335 -0.24 +0.00    +0.052 C 
DOCKED: ATOM     29  C   UNL d   1      -3.302  26.719  16.426 -0.17 +0.02    +0.046 C 
DOCKED: ATOM     30  C   UNL d   1     -12.771  23.828  15.623 -0.14 +0.00    +0.046 C 
DOCKED: ATOM     31  H   UNL d   1      -7.248  24.843  17.863 +0.08 +0.02    +0.166 HD
DOCKED: ATOM     32  H   UNL d   1      -9.151  25.613  17.843 +0.04 +0.00    +0.166 HD
DOCKED: ENDROOT
DOCKED: BRANCH   7  33
DOCKED: ATOM     33  C   UNL d   1     -12.866  23.455  21.043 -0.11 -0.00    +0.141 C 
DOCKED: BRANCH  33  34
DOCKED: ATOM     34  C   UNL d   1     -12.299  22.104  21.386 -0.14 +0.00    +0.306 C 
DOCKED: ATOM     35  O   UNL d   1     -12.069  21.683  22.507 -0.58 -0.06    -0.251 OA
DOCKED: BRANCH  34  36
DOCKED: ATOM     36  O   UNL d   1     -12.054  21.353  20.298 -0.20 +0.10    -0.481 OA
DOCKED: ATOM     37  H   UNL d   1     -11.508  21.927  19.720 -0.45 -0.14    +0.295 HD
DOCKED: ENDBRANCH  34  36
DOCKED: ENDBRANCH  33  34
DOCKED: ENDBRANCH   7  33
DOCKED: BRANCH  27  38
DOCKED: ATOM     38  C   UNL d   1     -10.426  24.454  13.626 -0.21 -0.00    +0.017 C 
DOCKED: ATOM     39  C   UNL d   1      -9.979  25.305  12.689 -0.12 +0.00    +0.092 C 
DOCKED: BRANCH  39  40
DOCKED: ATOM     40  C   UNL d   1     -10.073  24.946  11.272 -0.05 +0.00    +0.330 C 
DOCKED: ATOM     41  O   UNL d   1      -9.163  24.818  10.475 -0.10 -0.01    -0.246 OA
DOCKED: BRANCH  40  42
DOCKED: ATOM     42  O   UNL d   1     -11.356  24.751  10.929 -0.00 +0.01    -0.477 OA
DOCKED: ATOM     43  H   UNL d   1     -11.402  25.066  10.003 +0.02 -0.01    +0.295 HD
DOCKED: ENDBRANCH  40  42
DOCKED: ENDBRANCH  39  40
DOCKED: ENDBRANCH  27  38
DOCKED: BRANCH   8  44
DOCKED: ATOM     44  C   UNL d   1      -5.455  24.082  23.333 -0.15 -0.01    +0.141 C 
DOCKED: BRANCH  44  45
DOCKED: ATOM     45  C   UNL d   1      -5.195  25.564  23.280 -0.03 -0.01    +0.306 C 
DOCKED: ATOM     46  O   UNL d   1      -6.031  26.445  23.180 -0.02 +0.01    -0.251 OA
DOCKED: BRANCH  45  47
DOCKED: ATOM     47  O   UNL d   1      -3.883  25.858  23.327 +0.01 +0.01    -0.481 OA
DOCKED: ATOM     48  H   UNL d   1      -3.522  25.515  22.483 +0.11 -0.00    +0.295 HD
DOCKED: ENDBRANCH  45  47
DOCKED: ENDBRANCH  44  45
DOCKED: ENDBRANCH   8  44
DOCKED: BRANCH  22  49
DOCKED: ATOM     49  C   UNL d   1      -5.549  27.135  14.193 -0.14 +0.01    +0.048 C 
DOCKED: BRANCH  49  50
DOCKED: ATOM     50  C   UNL d   1      -5.535  28.657  14.325 -0.11 +0.04    +0.125 C 
DOCKED: BRANCH  50  51
DOCKED: ATOM     51  C   UNL d   1      -4.170  29.209  14.024 -0.08 +0.22    +0.305 C 
DOCKED: ATOM     52  O   UNL d   1      -3.215  29.280  14.776 -0.60 -0.32    -0.251 OA
DOCKED: BRANCH  51  53
DOCKED: ATOM     53  O   UNL d   1      -4.080  29.667  12.759 -0.09 -0.33    -0.481 OA
DOCKED: ATOM     54  H   UNL d   1      -4.844  30.274  12.670 +0.04 +0.11    +0.295 HD
DOCKED: ENDBRANCH  51  53
DOCKED: ENDBRANCH  50  51
DOCKED: ENDBRANCH  49  50
DOCKED: ENDBRANCH  22  49
DOCKED: TORSDOF 13
DOCKED: TER
DOCKED: ENDMDL
________________________________________________________________________________


	BEGINNING GENETIC ALGORITHM DOCKING 93 of 100
Run: 93 Seed: 545173535 152357774 [ Run 93 of 100 GA/GALS ]
Beginning LAMARCKIAN GENETIC ALGORITHM (LGA), with a maximum of 25000000 energy evaluations.

Final-Value: -14.671


	FINAL GENETIC ALGORITHM DOCKED STATE
	_______________________________________________


Detailed state:  trans 16.410 7.163 16.116 quatxyzw -0.181933 -0.133092 0.971993 0.066464 center 0.153 0.018 -0.028 ntor 13 171.8483 52.2876 172.8553 7.7965 -147.3590 32.4876 -52.7109 -84.4700 16.8105 -142.7121 71.6249 155.3870 -9.3456
State:	 16.410   7.163  16.116  -0.182 -0.133  0.974 172.378    171.85   52.29  172.86    7.80 -147.36   32.49  -52.71  -84.47   16.81 -142.71   71.62  155.39   -9.35

DOCKED: MODEL       93
DOCKED: USER    Run = 93
DOCKED: USER    DPF = D:/Protein_go_brrr/autodock/final/1A3N/heme/dock.dpf
DOCKED: USER  
DOCKED: USER    Estimated Free Energy of Binding    =   -8.57 kcal/mol  [=(1)+(2)+(3)-(4)]
DOCKED: USER    Estimated Inhibition Constant, Ki   =  518.49 nM (nanomolar)  [Temperature = 298.15 K]
DOCKED: USER    
DOCKED: USER    (1) Final Intermolecular Energy     =  -12.45 kcal/mol
DOCKED: USER        vdW + Hbond + desolv Energy     =  -11.84 kcal/mol
DOCKED: USER        Electrostatic Energy            =   -0.62 kcal/mol
DOCKED: USER    (2) Final Total Internal Energy     =   -2.22 kcal/mol
DOCKED: USER    (3) Torsional Free Energy           =   +3.88 kcal/mol
DOCKED: USER    (4) Unbound System's Energy  [=(2)] =   -2.22 kcal/mol
DOCKED: USER    
DOCKED: USER    
DOCKED: USER    NEWDPF move heme_opt.pdbqt
DOCKED: USER    NEWDPF about 0.153000 0.018000 -0.028000
DOCKED: USER    NEWDPF tran0 16.410492 7.162889 16.115740
DOCKED: USER    NEWDPF quaternion0 -0.181933 -0.133092 0.971993 0.066464
DOCKED: USER    NEWDPF axisangle0 -0.182336 -0.133387 0.974147 172.378206
DOCKED: USER    NEWDPF quat0 -0.182336 -0.133387 0.974147 172.378206
DOCKED: USER    NEWDPF dihe0 171.85 52.29 172.86 7.80 -147.36 32.49 -52.71 -84.47 16.81 -142.71 71.62 155.39 -9.35 
DOCKED: USER  keepresnum = 1 
DOCKED: USER  
DOCKED: REMARK  13 active torsions:
DOCKED: REMARK  status: ('A' for Active; 'I' for Inactive)
DOCKED: REMARK    1  A    between atoms: O_3  and  C_38 
DOCKED: REMARK    2  A    between atoms: O_4  and  C_40 
DOCKED: REMARK    3  A    between atoms: O_7  and  C_46 
DOCKED: REMARK    4  A    between atoms: O_9  and  C_48 
DOCKED: REMARK    5  A    between atoms: C_15  and  C_20 
DOCKED: REMARK    6  A    between atoms: C_16  and  C_23 
DOCKED: REMARK    7  A    between atoms: C_20  and  C_38 
DOCKED: REMARK    8  A    between atoms: C_23  and  C_40 
DOCKED: REMARK    9  A    between atoms: C_32  and  C_41 
DOCKED: REMARK   10  A    between atoms: C_37  and  C_45 
DOCKED: REMARK   11  A    between atoms: C_41  and  C_44 
DOCKED: REMARK   12  A    between atoms: C_44  and  C_46 
DOCKED: REMARK   13  A    between atoms: C_47  and  C_48 
DOCKED: USER                              x       y       z     vdW  Elec       q    Type
DOCKED: USER                           _______ _______ _______ _____ _____    ______ ____
DOCKED: ROOT
DOCKED: ATOM      1  O   UNL d   1      21.683   5.819  18.385 -0.18 +0.03    -0.289 OA
DOCKED: ATOM      2  O   UNL d   1      18.538  12.456  16.821 -0.18 -0.01    -0.289 OA
DOCKED: ATOM      3  N   UNL d   1      18.577   6.114  16.915 -0.16 -0.02    -0.247 NA
DOCKED: ATOM      4  N   UNL d   1      18.068   9.041  16.976 -0.07 -0.06    -0.247 NA
DOCKED: ATOM      5  N   UNL d   1      15.320   8.482  16.339 -0.11 -0.10    -0.354 N 
DOCKED: ATOM      6  N   UNL d   1      15.853   5.446  16.297 -0.18 -0.13    -0.354 N 
DOCKED: ATOM      7  C   UNL d   1      19.912   4.247  17.776 -0.32 -0.06    +0.084 A 
DOCKED: ATOM      8  C   UNL d   1      20.017  10.514  17.006 -0.18 +0.02    +0.084 A 
DOCKED: ATOM      9  C   UNL d   1      19.441   9.095  17.057 -0.20 +0.02    +0.058 A 
DOCKED: ATOM     10  C   UNL d   1      18.620   4.745  17.122 -0.31 -0.02    +0.058 A 
DOCKED: ATOM     11  C   UNL d   1      20.600   5.575  17.885 -0.25 -0.04    +0.193 A 
DOCKED: ATOM     12  C   UNL d   1      19.700   6.622  17.306 -0.24 +0.00    +0.109 A 
DOCKED: ATOM     13  C   UNL d   1      18.714  11.257  16.918 -0.15 +0.03    +0.193 A 
DOCKED: ATOM     14  C   UNL d   1      19.669   3.699  19.184 -0.35 -0.04    +0.026 C 
DOCKED: ATOM     15  C   UNL d   1      20.208   8.006  17.219 -0.30 +0.01    +0.055 C 
DOCKED: ATOM     16  C   UNL d   1      20.811  10.759  15.719 -0.19 +0.01    +0.026 C 
DOCKED: ATOM     17  C   UNL d   1      17.610  10.250  16.916 -0.19 +0.02    +0.109 A 
DOCKED: ATOM     18  C   UNL d   1      17.664   3.890  16.713 -0.36 -0.02    +0.050 C 
DOCKED: ATOM     19  C   UNL d   1      16.478   4.250  16.025 -0.28 +0.01    +0.045 A 
DOCKED: ATOM     20  C   UNL d   1      15.227   9.818  16.634 -0.30 +0.01    +0.045 A 
DOCKED: ATOM     21  C   UNL d   1      16.208  10.691  16.882 -0.17 -0.00    +0.057 C 
DOCKED: ATOM     22  C   UNL d   1      13.123   8.980  16.330 -0.39 -0.00    -0.019 A 
DOCKED: ATOM     23  C   UNL d   1      14.101   7.890  16.140 -0.26 +0.01    +0.045 A 
DOCKED: ATOM     24  C   UNL d   1      13.796  10.119  16.621 -0.43 -0.00    -0.022 A 
DOCKED: ATOM     25  C   UNL d   1      14.679   5.551  15.588 -0.28 +0.03    +0.049 A 
DOCKED: ATOM     26  C   UNL d   1      15.709   3.577  15.088 -0.22 -0.01    -0.018 A 
DOCKED: ATOM     27  C   UNL d   1      14.585   4.411  14.801 -0.26 +0.00    +0.003 A 
DOCKED: ATOM     28  C   UNL d   1      13.780   6.627  15.820 -0.40 +0.02    +0.052 C 
DOCKED: ATOM     29  C   UNL d   1      13.252  11.482  16.884 -0.34 +0.00    +0.046 C 
DOCKED: ATOM     30  C   UNL d   1      16.000   2.241  14.492 -0.19 +0.01    +0.046 C 
DOCKED: ATOM     31  H   UNL d   1      16.221   8.033  16.211 +0.07 +0.07    +0.166 HD
DOCKED: ATOM     32  H   UNL d   1      16.205   6.124  16.963 +0.07 +0.02    +0.166 HD
DOCKED: ENDROOT
DOCKED: BRANCH   7  33
DOCKED: ATOM     33  C   UNL d   1      20.745   3.278  16.931 -0.02 -0.07    +0.141 C 
DOCKED: BRANCH  33  34
DOCKED: ATOM     34  C   UNL d   1      21.278   3.914  15.676 -0.11 -0.03    +0.306 C 
DOCKED: ATOM     35  O   UNL d   1      20.748   3.899  14.578 -0.12 -0.03    -0.251 OA
DOCKED: BRANCH  34  36
DOCKED: ATOM     36  O   UNL d   1      22.452   4.541  15.872 -0.07 +0.07    -0.481 OA
DOCKED: ATOM     37  H   UNL d   1      22.564   4.558  16.846 +0.18 -0.05    +0.295 HD
DOCKED: ENDBRANCH  34  36
DOCKED: ENDBRANCH  33  34
DOCKED: ENDBRANCH   7  33
DOCKED: BRANCH  27  38
DOCKED: ATOM     38  C   UNL d   1      13.527   4.087  13.892 -0.28 +0.01    +0.017 C 
DOCKED: ATOM     39  C   UNL d   1      13.312   2.877  13.354 -0.19 +0.07    +0.092 C 
DOCKED: BRANCH  39  40
DOCKED: ATOM     40  C   UNL d   1      12.180   2.672  12.447 -0.05 +0.27    +0.330 C 
DOCKED: ATOM     41  O   UNL d   1      11.673   3.483  11.696 -0.17 -0.09    -0.246 OA
DOCKED: BRANCH  40  42
DOCKED: ATOM     42  O   UNL d   1      11.741   1.407  12.535 -0.57 -0.54    -0.477 OA
DOCKED: ATOM     43  H   UNL d   1      11.728   1.098  11.606 +0.10 +0.05    +0.295 HD
DOCKED: ENDBRANCH  40  42
DOCKED: ENDBRANCH  39  40
DOCKED: ENDBRANCH  27  38
DOCKED: BRANCH   8  44
DOCKED: ATOM     44  C   UNL d   1      20.814  10.948  18.240 -0.39 +0.05    +0.141 C 
DOCKED: BRANCH  44  45
DOCKED: ATOM     45  C   UNL d   1      21.598  12.216  18.025 -0.25 +0.13    +0.306 C 
DOCKED: ATOM     46  O   UNL d   1      22.776  12.299  17.724 -0.73 -0.19    -0.251 OA
DOCKED: BRANCH  45  47
DOCKED: ATOM     47  O   UNL d   1      20.857  13.320  18.230 -0.13 -0.08    -0.481 OA
DOCKED: ATOM     48  H   UNL d   1      19.942  12.987  18.345 +0.03 +0.00    +0.295 HD
DOCKED: ENDBRANCH  45  47
DOCKED: ENDBRANCH  44  45
DOCKED: ENDBRANCH   8  44
DOCKED: BRANCH  22  49
DOCKED: ATOM     49  C   UNL d   1      11.637   8.806  16.226 -0.46 +0.01    +0.048 C 
DOCKED: BRANCH  49  50
DOCKED: ATOM     50  C   UNL d   1      11.127   9.105  14.816 -0.28 +0.03    +0.125 C 
DOCKED: BRANCH  50  51
DOCKED: ATOM     51  C   UNL d   1      10.379  10.408  14.782 -0.23 +0.05    +0.305 C 
DOCKED: ATOM     52  O   UNL d   1       9.185  10.584  14.952 -0.35 -0.03    -0.251 OA
DOCKED: BRANCH  51  53
DOCKED: ATOM     53  O   UNL d   1      11.192  11.450  14.517 -0.17 -0.08    -0.481 OA
DOCKED: ATOM     54  H   UNL d   1      10.620  12.236  14.641 -0.24 +0.03    +0.295 HD
DOCKED: ENDBRANCH  51  53
DOCKED: ENDBRANCH  50  51
DOCKED: ENDBRANCH  49  50
DOCKED: ENDBRANCH  22  49
DOCKED: TORSDOF 13
DOCKED: TER
DOCKED: ENDMDL
________________________________________________________________________________


	BEGINNING GENETIC ALGORITHM DOCKING 94 of 100
Run: 94 Seed: 988760490 1370340174 [ Run 94 of 100 GA/GALS ]
Beginning LAMARCKIAN GENETIC ALGORITHM (LGA), with a maximum of 25000000 energy evaluations.

Final-Value: -11.116


	FINAL GENETIC ALGORITHM DOCKED STATE
	_______________________________________________


Detailed state:  trans 6.545 8.722 -13.251 quatxyzw 0.001376 -0.543704 0.779506 -0.311053 center 0.153 0.018 -0.028 ntor 13 111.2203 149.5594 -103.3846 -27.3009 -179.3906 130.7151 124.3062 -91.2691 -22.2738 -22.5431 -109.5990 -147.9429 -1.2231
State:	  6.545   8.722 -13.251   0.001 -0.572  0.820 -143.755    111.22  149.56 -103.38  -27.30 -179.39  130.72  124.31  -91.27  -22.27  -22.54 -109.60 -147.94   -1.22

DOCKED: MODEL       94
DOCKED: USER    Run = 94
DOCKED: USER    DPF = D:/Protein_go_brrr/autodock/final/1A3N/heme/dock.dpf
DOCKED: USER  
DOCKED: USER    Estimated Free Energy of Binding    =   -3.38 kcal/mol  [=(1)+(2)+(3)-(4)]
DOCKED: USER    Estimated Inhibition Constant, Ki   =    3.33 mM (millimolar)  [Temperature = 298.15 K]
DOCKED: USER    
DOCKED: USER    (1) Final Intermolecular Energy     =   -7.26 kcal/mol
DOCKED: USER        vdW + Hbond + desolv Energy     =   -7.46 kcal/mol
DOCKED: USER        Electrostatic Energy            =   +0.20 kcal/mol
DOCKED: USER    (2) Final Total Internal Energy     =   -3.86 kcal/mol
DOCKED: USER    (3) Torsional Free Energy           =   +3.88 kcal/mol
DOCKED: USER    (4) Unbound System's Energy  [=(2)] =   -3.86 kcal/mol
DOCKED: USER    
DOCKED: USER    
DOCKED: USER    NEWDPF move heme_opt.pdbqt
DOCKED: USER    NEWDPF about 0.153000 0.018000 -0.028000
DOCKED: USER    NEWDPF tran0 6.545414 8.721760 -13.251127
DOCKED: USER    NEWDPF quaternion0 0.001376 -0.543704 0.779506 -0.311053
DOCKED: USER    NEWDPF axisangle0 0.001448 -0.572084 0.820194 -143.754546
DOCKED: USER    NEWDPF quat0 0.001448 -0.572084 0.820194 -143.754546
DOCKED: USER    NEWDPF dihe0 111.22 149.56 -103.38 -27.30 -179.39 130.72 124.31 -91.27 -22.27 -22.54 -109.60 -147.94 -1.22 
DOCKED: USER  keepresnum = 1 
DOCKED: USER  
DOCKED: REMARK  13 active torsions:
DOCKED: REMARK  status: ('A' for Active; 'I' for Inactive)
DOCKED: REMARK    1  A    between atoms: O_3  and  C_38 
DOCKED: REMARK    2  A    between atoms: O_4  and  C_40 
DOCKED: REMARK    3  A    between atoms: O_7  and  C_46 
DOCKED: REMARK    4  A    between atoms: O_9  and  C_48 
DOCKED: REMARK    5  A    between atoms: C_15  and  C_20 
DOCKED: REMARK    6  A    between atoms: C_16  and  C_23 
DOCKED: REMARK    7  A    between atoms: C_20  and  C_38 
DOCKED: REMARK    8  A    between atoms: C_23  and  C_40 
DOCKED: REMARK    9  A    between atoms: C_32  and  C_41 
DOCKED: REMARK   10  A    between atoms: C_37  and  C_45 
DOCKED: REMARK   11  A    between atoms: C_41  and  C_44 
DOCKED: REMARK   12  A    between atoms: C_44  and  C_46 
DOCKED: REMARK   13  A    between atoms: C_47  and  C_48 
DOCKED: USER                              x       y       z     vdW  Elec       q    Type
DOCKED: USER                           _______ _______ _______ _____ _____    ______ ____
DOCKED: ROOT
DOCKED: ATOM      1  O   UNL d   1      10.031   5.096 -16.326 -0.02 +0.02    -0.289 OA
DOCKED: ATOM      2  O   UNL d   1      11.576   9.820 -10.697 -0.22 -0.12    -0.289 OA
DOCKED: ATOM      3  N   UNL d   1       7.652   7.149 -14.904 -0.09 +0.16    -0.247 NA
DOCKED: ATOM      4  N   UNL d   1       9.095   8.387 -12.621 +0.06 +0.25    -0.247 NA
DOCKED: ATOM      5  N   UNL d   1       6.553   9.277 -11.617 -0.02 +0.30    -0.354 N 
DOCKED: ATOM      6  N   UNL d   1       5.062   7.974 -13.979 -0.09 +0.25    -0.354 N 
DOCKED: ATOM      7  C   UNL d   1       7.613   5.355 -16.574 -0.09 -0.01    +0.084 A 
DOCKED: ATOM      8  C   UNL d   1      11.526   8.569 -12.801 -0.13 +0.00    +0.084 A 
DOCKED: ATOM      9  C   UNL d   1      10.199   8.061 -13.377 -0.11 -0.02    +0.058 A 
DOCKED: ATOM     10  C   UNL d   1       6.853   6.399 -15.751 -0.15 -0.02    +0.058 A 
DOCKED: ATOM     11  C   UNL d   1       8.987   5.660 -16.056 -0.06 -0.03    +0.193 A 
DOCKED: ATOM     12  C   UNL d   1       8.881   6.782 -15.071 -0.10 -0.04    +0.109 A 
DOCKED: ATOM     13  C   UNL d   1      10.973   9.210 -11.559 -0.21 +0.02    +0.193 A 
DOCKED: ATOM     14  C   UNL d   1       7.240   3.925 -16.174 -0.16 -0.00    +0.026 C 
DOCKED: ATOM     15  C   UNL d   1      10.130   7.320 -14.493 -0.10 -0.02    +0.055 C 
DOCKED: ATOM     16  C   UNL d   1      12.148   9.656 -13.682 -0.11 +0.01    +0.026 C 
DOCKED: ATOM     17  C   UNL d   1       9.491   9.023 -11.566 -0.11 -0.05    +0.109 A 
DOCKED: ATOM     18  C   UNL d   1       5.534   6.607 -15.925 -0.17 -0.02    +0.050 C 
DOCKED: ATOM     19  C   UNL d   1       4.766   7.605 -15.272 -0.13 -0.02    +0.045 A 
DOCKED: ATOM     20  C   UNL d   1       7.348   9.577 -10.542 -0.19 -0.02    +0.045 A 
DOCKED: ATOM     21  C   UNL d   1       8.680   9.515 -10.442 -0.22 -0.01    +0.057 C 
DOCKED: ATOM     22  C   UNL d   1       5.166   9.928  -9.965 -0.19 +0.01    -0.019 A 
DOCKED: ATOM     23  C   UNL d   1       5.219   9.458 -11.364 -0.14 -0.02    +0.045 A 
DOCKED: ATOM     24  C   UNL d   1       6.430   9.998  -9.484 -0.21 +0.00    -0.022 A 
DOCKED: ATOM     25  C   UNL d   1       4.141   8.883 -13.513 -0.15 -0.02    +0.049 A 
DOCKED: ATOM     26  C   UNL d   1       3.647   8.320 -15.669 -0.10 +0.00    -0.018 A 
DOCKED: ATOM     27  C   UNL d   1       3.268   9.140 -14.562 -0.12 -0.00    +0.003 A 
DOCKED: ATOM     28  C   UNL d   1       4.146   9.294 -12.153 -0.20 -0.02    +0.052 C 
DOCKED: ATOM     29  C   UNL d   1       6.892  10.427  -8.133 -0.19 +0.01    +0.046 C 
DOCKED: ATOM     30  C   UNL d   1       2.970   8.249 -16.996 -0.06 -0.00    +0.046 C 
DOCKED: ATOM     31  H   UNL d   1       6.954   9.029 -12.515 -0.28 -0.19    +0.166 HD
DOCKED: ATOM     32  H   UNL d   1       5.832   7.585 -13.447 -0.45 -0.25    +0.166 HD
DOCKED: ENDROOT
DOCKED: BRANCH   7  33
DOCKED: ATOM     33  C   UNL d   1       7.556   5.547 -18.093 -0.02 -0.00    +0.141 C 
DOCKED: BRANCH  33  34
DOCKED: ATOM     34  C   UNL d   1       7.313   6.979 -18.487 +0.00 -0.01    +0.306 C 
DOCKED: ATOM     35  O   UNL d   1       6.419   7.385 -19.209 -0.00 +0.00    -0.251 OA
DOCKED: BRANCH  34  36
DOCKED: ATOM     36  O   UNL d   1       8.209   7.824 -17.947 +0.01 +0.02    -0.481 OA
DOCKED: ATOM     37  H   UNL d   1       7.978   7.852 -16.994 +0.02 -0.03    +0.295 HD
DOCKED: ENDBRANCH  34  36
DOCKED: ENDBRANCH  33  34
DOCKED: ENDBRANCH   7  33
DOCKED: BRANCH  27  38
DOCKED: ATOM     38  C   UNL d   1       2.147  10.030 -14.540 -0.15 -0.00    +0.017 C 
DOCKED: ATOM     39  C   UNL d   1       0.859   9.654 -14.545 -0.15 -0.01    +0.092 C 
DOCKED: BRANCH  39  40
DOCKED: ATOM     40  C   UNL d   1      -0.197  10.669 -14.503 -0.09 -0.05    +0.330 C 
DOCKED: ATOM     41  O   UNL d   1      -1.155  10.776 -15.245 -0.16 +0.03    -0.246 OA
DOCKED: BRANCH  40  42
DOCKED: ATOM     42  O   UNL d   1       0.016  11.516 -13.484 -0.16 +0.17    -0.477 OA
DOCKED: ATOM     43  H   UNL d   1       0.469  10.965 -12.813 +0.09 -0.09    +0.295 HD
DOCKED: ENDBRANCH  40  42
DOCKED: ENDBRANCH  39  40
DOCKED: ENDBRANCH  27  38
DOCKED: BRANCH   8  44
DOCKED: ATOM     44  C   UNL d   1      12.551   7.486 -12.449 -0.14 +0.02    +0.141 C 
DOCKED: BRANCH  44  45
DOCKED: ATOM     45  C   UNL d   1      12.179   6.690 -11.227 -0.14 +0.03    +0.306 C 
DOCKED: ATOM     46  O   UNL d   1      11.385   5.767 -11.174 -0.13 +0.09    -0.251 OA
DOCKED: BRANCH  45  47
DOCKED: ATOM     47  O   UNL d   1      12.812   7.121 -10.120 -0.47 -0.21    -0.481 OA
DOCKED: ATOM     48  H   UNL d   1      12.345   7.947  -9.873 -0.10 +0.19    +0.295 HD
DOCKED: ENDBRANCH  45  47
DOCKED: ENDBRANCH  44  45
DOCKED: ENDBRANCH   8  44
DOCKED: BRANCH  22  49
DOCKED: ATOM     49  C   UNL d   1       3.897  10.248  -9.232 -0.31 -0.01    +0.048 C 
DOCKED: BRANCH  49  50
DOCKED: ATOM     50  C   UNL d   1       3.426  11.676  -9.506 -0.26 -0.03    +0.125 C 
DOCKED: BRANCH  50  51
DOCKED: ATOM     51  C   UNL d   1       2.907  11.810 -10.910 -0.15 -0.06    +0.305 C 
DOCKED: ATOM     52  O   UNL d   1       3.504  12.229 -11.886 -0.04 +0.04    -0.251 OA
DOCKED: BRANCH  51  53
DOCKED: ATOM     53  O   UNL d   1       1.624  11.409 -11.013 -0.68 +0.07    -0.481 OA
DOCKED: ATOM     54  H   UNL d   1       1.272  11.931 -11.764 +0.11 -0.08    +0.295 HD
DOCKED: ENDBRANCH  51  53
DOCKED: ENDBRANCH  50  51
DOCKED: ENDBRANCH  49  50
DOCKED: ENDBRANCH  22  49
DOCKED: TORSDOF 13
DOCKED: TER
DOCKED: ENDMDL
________________________________________________________________________________


	BEGINNING GENETIC ALGORITHM DOCKING 95 of 100
Run: 95 Seed: 1455010192 1826695923 [ Run 95 of 100 GA/GALS ]
Beginning LAMARCKIAN GENETIC ALGORITHM (LGA), with a maximum of 25000000 energy evaluations.

Final-Value: -12.111


	FINAL GENETIC ALGORITHM DOCKED STATE
	_______________________________________________


Detailed state:  trans 16.951 -0.639 11.870 quatxyzw 0.314017 0.313128 -0.888625 -0.117003 center 0.153 0.018 -0.028 ntor 13 -177.4173 -116.6834 -164.1508 -26.7129 46.9145 85.6981 -21.1008 -12.6953 152.6033 -111.0564 111.6098 -150.8465 -152.3604
State:	 16.951  -0.639  11.870   0.316  0.315 -0.895 -166.562   -177.42 -116.68 -164.15  -26.71   46.91   85.70  -21.10  -12.70  152.60 -111.06  111.61 -150.85 -152.36

DOCKED: MODEL       95
DOCKED: USER    Run = 95
DOCKED: USER    DPF = D:/Protein_go_brrr/autodock/final/1A3N/heme/dock.dpf
DOCKED: USER  
DOCKED: USER    Estimated Free Energy of Binding    =   -6.65 kcal/mol  [=(1)+(2)+(3)-(4)]
DOCKED: USER    Estimated Inhibition Constant, Ki   =   13.40 uM (micromolar)  [Temperature = 298.15 K]
DOCKED: USER    
DOCKED: USER    (1) Final Intermolecular Energy     =  -10.53 kcal/mol
DOCKED: USER        vdW + Hbond + desolv Energy     =   -9.44 kcal/mol
DOCKED: USER        Electrostatic Energy            =   -1.09 kcal/mol
DOCKED: USER    (2) Final Total Internal Energy     =   -1.59 kcal/mol
DOCKED: USER    (3) Torsional Free Energy           =   +3.88 kcal/mol
DOCKED: USER    (4) Unbound System's Energy  [=(2)] =   -1.59 kcal/mol
DOCKED: USER    
DOCKED: USER    
DOCKED: USER    NEWDPF move heme_opt.pdbqt
DOCKED: USER    NEWDPF about 0.153000 0.018000 -0.028000
DOCKED: USER    NEWDPF tran0 16.951045 -0.639249 11.869561
DOCKED: USER    NEWDPF quaternion0 0.314017 0.313128 -0.888625 -0.117003
DOCKED: USER    NEWDPF axisangle0 0.316189 0.315294 -0.894771 -166.561717
DOCKED: USER    NEWDPF quat0 0.316189 0.315294 -0.894771 -166.561717
DOCKED: USER    NEWDPF dihe0 -177.42 -116.68 -164.15 -26.71 46.91 85.70 -21.10 -12.70 152.60 -111.06 111.61 -150.85 -152.36 
DOCKED: USER  keepresnum = 1 
DOCKED: USER  
DOCKED: REMARK  13 active torsions:
DOCKED: REMARK  status: ('A' for Active; 'I' for Inactive)
DOCKED: REMARK    1  A    between atoms: O_3  and  C_38 
DOCKED: REMARK    2  A    between atoms: O_4  and  C_40 
DOCKED: REMARK    3  A    between atoms: O_7  and  C_46 
DOCKED: REMARK    4  A    between atoms: O_9  and  C_48 
DOCKED: REMARK    5  A    between atoms: C_15  and  C_20 
DOCKED: REMARK    6  A    between atoms: C_16  and  C_23 
DOCKED: REMARK    7  A    between atoms: C_20  and  C_38 
DOCKED: REMARK    8  A    between atoms: C_23  and  C_40 
DOCKED: REMARK    9  A    between atoms: C_32  and  C_41 
DOCKED: REMARK   10  A    between atoms: C_37  and  C_45 
DOCKED: REMARK   11  A    between atoms: C_41  and  C_44 
DOCKED: REMARK   12  A    between atoms: C_44  and  C_46 
DOCKED: REMARK   13  A    between atoms: C_47  and  C_48 
DOCKED: USER                              x       y       z     vdW  Elec       q    Type
DOCKED: USER                           _______ _______ _______ _____ _____    ______ ____
DOCKED: ROOT
DOCKED: ATOM      1  O   UNL d   1      21.671  -2.296  14.989 -0.42 +0.03    -0.289 OA
DOCKED: ATOM      2  O   UNL d   1      17.816   4.149  14.930 -0.52 -0.24    -0.289 OA
DOCKED: ATOM      3  N   UNL d   1      19.016  -1.727  12.863 -0.04 +0.01    -0.247 NA
DOCKED: ATOM      4  N   UNL d   1      17.969   0.903  13.766 -0.05 +0.02    -0.247 NA
DOCKED: ATOM      5  N   UNL d   1      15.612   0.400  12.198 -0.00 -0.03    -0.354 N 
DOCKED: ATOM      6  N   UNL d   1      16.697  -2.337  11.282 -0.00 +0.00    -0.354 N 
DOCKED: ATOM      7  C   UNL d   1      20.427  -3.661  13.388 -0.14 -0.00    +0.084 A 
DOCKED: ATOM      8  C   UNL d   1      19.542   2.414  14.869 -0.15 -0.01    +0.084 A 
DOCKED: ATOM      9  C   UNL d   1      19.247   1.038  14.261 -0.14 -0.01    +0.058 A 
DOCKED: ATOM     10  C   UNL d   1      19.262  -3.063  12.594 -0.10 -0.00    +0.058 A 
DOCKED: ATOM     11  C   UNL d   1      20.807  -2.421  14.141 -0.14 -0.01    +0.193 A 
DOCKED: ATOM     12  C   UNL d   1      19.895  -1.312  13.716 -0.11 -0.01    +0.109 A 
DOCKED: ATOM     13  C   UNL d   1      18.184   3.022  14.660 -0.10 +0.05    +0.193 A 
DOCKED: ATOM     14  C   UNL d   1      19.957  -4.722  14.387 -0.21 +0.00    +0.026 C 
DOCKED: ATOM     15  C   UNL d   1      20.141   0.038  14.260 -0.19 -0.01    +0.055 C 
DOCKED: ATOM     16  C   UNL d   1      20.564   3.194  14.037 -0.15 +0.00    +0.026 C 
DOCKED: ATOM     17  C   UNL d   1      17.322   2.002  13.990 -0.13 +0.02    +0.109 A 
DOCKED: ATOM     18  C   UNL d   1      18.612  -3.776  11.655 -0.12 +0.00    +0.050 C 
DOCKED: ATOM     19  C   UNL d   1      17.581  -3.283  10.815 -0.10 +0.00    +0.045 A 
DOCKED: ATOM     20  C   UNL d   1      15.202   1.510  12.889 -0.10 +0.01    +0.045 A 
DOCKED: ATOM     21  C   UNL d   1      15.913   2.304  13.697 -0.17 +0.02    +0.057 C 
DOCKED: ATOM     22  C   UNL d   1      13.430   0.677  11.713 -0.15 -0.00    -0.019 A 
DOCKED: ATOM     23  C   UNL d   1      14.611  -0.173  11.460 -0.11 -0.00    +0.045 A 
DOCKED: ATOM     24  C   UNL d   1      13.787   1.672  12.559 -0.14 -0.01    -0.022 A 
DOCKED: ATOM     25  C   UNL d   1      15.732  -2.070  10.339 -0.10 -0.00    +0.049 A 
DOCKED: ATOM     26  C   UNL d   1      17.203  -3.612   9.523 -0.15 +0.00    -0.018 A 
DOCKED: ATOM     27  C   UNL d   1      16.046  -2.829   9.220 -0.15 -0.00    +0.003 A 
DOCKED: ATOM     28  C   UNL d   1      14.619  -1.242  10.649 -0.15 -0.01    +0.052 C 
DOCKED: ATOM     29  C   UNL d   1      12.951   2.783  13.098 -0.20 +0.04    +0.046 C 
DOCKED: ATOM     30  C   UNL d   1      17.874  -4.592   8.621 -0.24 -0.00    +0.046 C 
DOCKED: ATOM     31  H   UNL d   1      16.585   0.111  12.195 +0.05 +0.01    +0.166 HD
DOCKED: ATOM     32  H   UNL d   1      16.745  -1.935  12.211 +0.04 +0.00    +0.166 HD
DOCKED: ENDROOT
DOCKED: BRANCH   7  33
DOCKED: ATOM     33  C   UNL d   1      21.606  -4.163  12.548 -0.26 -0.00    +0.141 C 
DOCKED: BRANCH  33  34
DOCKED: ATOM     34  C   UNL d   1      22.468  -5.148  13.290 -0.20 -0.00    +0.306 C 
DOCKED: ATOM     35  O   UNL d   1      22.449  -6.361  13.164 -0.41 -0.02    -0.251 OA
DOCKED: BRANCH  34  36
DOCKED: ATOM     36  O   UNL d   1      23.311  -4.553  14.152 -0.10 +0.11    -0.481 OA
DOCKED: ATOM     37  H   UNL d   1      23.125  -3.594  14.057 -0.34 -0.14    +0.295 HD
DOCKED: ENDBRANCH  34  36
DOCKED: ENDBRANCH  33  34
DOCKED: ENDBRANCH   7  33
DOCKED: BRANCH  27  38
DOCKED: ATOM     38  C   UNL d   1      15.320  -2.871   7.987 -0.27 -0.00    +0.017 C 
DOCKED: ATOM     39  C   UNL d   1      14.627  -3.926   7.532 -0.26 -0.01    +0.092 C 
DOCKED: BRANCH  39  40
DOCKED: ATOM     40  C   UNL d   1      13.911  -3.834   6.257 -0.31 -0.09    +0.330 C 
DOCKED: ATOM     41  O   UNL d   1      14.359  -4.001   5.139 -0.71 +0.11    -0.246 OA
DOCKED: BRANCH  40  42
DOCKED: ATOM     42  O   UNL d   1      12.620  -3.535   6.473 -0.61 +0.12    -0.477 OA
DOCKED: ATOM     43  H   UNL d   1      12.651  -2.649   6.889 -0.17 -0.30    +0.295 HD
DOCKED: ENDBRANCH  40  42
DOCKED: ENDBRANCH  39  40
DOCKED: ENDBRANCH  27  38
DOCKED: BRANCH   8  44
DOCKED: ATOM     44  C   UNL d   1      19.921   2.412  16.353 -0.14 -0.11    +0.141 C 
DOCKED: BRANCH  44  45
DOCKED: ATOM     45  C   UNL d   1      19.751   3.756  17.011 -0.15 -0.19    +0.306 C 
DOCKED: ATOM     46  O   UNL d   1      20.376   4.772  16.760 -0.15 +0.05    -0.251 OA
DOCKED: BRANCH  45  47
DOCKED: ATOM     47  O   UNL d   1      18.815   3.742  17.977 -0.16 +0.62    -0.481 OA
DOCKED: ATOM     48  H   UNL d   1      18.662   2.791  18.160 -0.29 -0.78    +0.295 HD
DOCKED: ENDBRANCH  45  47
DOCKED: ENDBRANCH  44  45
DOCKED: ENDBRANCH   8  44
DOCKED: BRANCH  22  49
DOCKED: ATOM     49  C   UNL d   1      12.073   0.431  11.123 -0.23 -0.01    +0.048 C 
DOCKED: BRANCH  49  50
DOCKED: ATOM     50  C   UNL d   1      10.996   0.313  12.202 -0.11 +0.08    +0.125 C 
DOCKED: BRANCH  50  51
DOCKED: ATOM     51  C   UNL d   1      11.193  -0.929  13.023 -0.06 +0.22    +0.305 C 
DOCKED: ATOM     52  O   UNL d   1      11.844  -1.917  12.731 -0.05 -0.08    -0.251 OA
DOCKED: BRANCH  51  53
DOCKED: ATOM     53  O   UNL d   1      10.534  -0.868  14.197 -0.13 -0.73    -0.481 OA
DOCKED: ATOM     54  H   UNL d   1      10.355  -1.806  14.419 +0.07 +0.24    +0.295 HD
DOCKED: ENDBRANCH  51  53
DOCKED: ENDBRANCH  50  51
DOCKED: ENDBRANCH  49  50
DOCKED: ENDBRANCH  22  49
DOCKED: TORSDOF 13
DOCKED: TER
DOCKED: ENDMDL
________________________________________________________________________________


	BEGINNING GENETIC ALGORITHM DOCKING 96 of 100
Run: 96 Seed: 349305782 1588291126 [ Run 96 of 100 GA/GALS ]
Beginning LAMARCKIAN GENETIC ALGORITHM (LGA), with a maximum of 25000000 energy evaluations.

Final-Value: -11.972


	FINAL GENETIC ALGORITHM DOCKED STATE
	_______________________________________________


Detailed state:  trans 38.102 -13.593 31.268 quatxyzw -0.690861 0.440238 0.437401 -0.370921 center 0.153 0.018 -0.028 ntor 13 -176.8935 133.3733 105.9768 -123.9819 52.1809 57.1160 -86.2088 -116.9272 159.5055 -12.9689 -95.8940 -42.4137 -8.9096
State:	 38.102 -13.593  31.268  -0.744  0.474  0.471 -136.455   -176.89  133.37  105.98 -123.98   52.18   57.12  -86.21 -116.93  159.51  -12.97  -95.89  -42.41   -8.91

DOCKED: MODEL       96
DOCKED: USER    Run = 96
DOCKED: USER    DPF = D:/Protein_go_brrr/autodock/final/1A3N/heme/dock.dpf
DOCKED: USER  
DOCKED: USER    Estimated Free Energy of Binding    =   -4.44 kcal/mol  [=(1)+(2)+(3)-(4)]
DOCKED: USER    Estimated Inhibition Constant, Ki   =  552.62 uM (micromolar)  [Temperature = 298.15 K]
DOCKED: USER    
DOCKED: USER    (1) Final Intermolecular Energy     =   -8.32 kcal/mol
DOCKED: USER        vdW + Hbond + desolv Energy     =   -7.80 kcal/mol
DOCKED: USER        Electrostatic Energy            =   -0.53 kcal/mol
DOCKED: USER    (2) Final Total Internal Energy     =   -3.65 kcal/mol
DOCKED: USER    (3) Torsional Free Energy           =   +3.88 kcal/mol
DOCKED: USER    (4) Unbound System's Energy  [=(2)] =   -3.65 kcal/mol
DOCKED: USER    
DOCKED: USER    
DOCKED: USER    NEWDPF move heme_opt.pdbqt
DOCKED: USER    NEWDPF about 0.153000 0.018000 -0.028000
DOCKED: USER    NEWDPF tran0 38.101929 -13.593332 31.268192
DOCKED: USER    NEWDPF quaternion0 -0.690861 0.440238 0.437401 -0.370921
DOCKED: USER    NEWDPF axisangle0 -0.743930 0.474054 0.471000 -136.455172
DOCKED: USER    NEWDPF quat0 -0.743930 0.474054 0.471000 -136.455172
DOCKED: USER    NEWDPF dihe0 -176.89 133.37 105.98 -123.98 52.18 57.12 -86.21 -116.93 159.51 -12.97 -95.89 -42.41 -8.91 
DOCKED: USER  keepresnum = 1 
DOCKED: USER  
DOCKED: REMARK  13 active torsions:
DOCKED: REMARK  status: ('A' for Active; 'I' for Inactive)
DOCKED: REMARK    1  A    between atoms: O_3  and  C_38 
DOCKED: REMARK    2  A    between atoms: O_4  and  C_40 
DOCKED: REMARK    3  A    between atoms: O_7  and  C_46 
DOCKED: REMARK    4  A    between atoms: O_9  and  C_48 
DOCKED: REMARK    5  A    between atoms: C_15  and  C_20 
DOCKED: REMARK    6  A    between atoms: C_16  and  C_23 
DOCKED: REMARK    7  A    between atoms: C_20  and  C_38 
DOCKED: REMARK    8  A    between atoms: C_23  and  C_40 
DOCKED: REMARK    9  A    between atoms: C_32  and  C_41 
DOCKED: REMARK   10  A    between atoms: C_37  and  C_45 
DOCKED: REMARK   11  A    between atoms: C_41  and  C_44 
DOCKED: REMARK   12  A    between atoms: C_44  and  C_46 
DOCKED: REMARK   13  A    between atoms: C_47  and  C_48 
DOCKED: USER                              x       y       z     vdW  Elec       q    Type
DOCKED: USER                           _______ _______ _______ _____ _____    ______ ____
DOCKED: ROOT
DOCKED: ATOM      1  O   UNL d   1      35.057 -11.989  36.055 -0.03 +0.00    -0.289 OA
DOCKED: ATOM      2  O   UNL d   1      42.450 -12.622  34.899 -0.00 +0.03    -0.289 OA
DOCKED: ATOM      3  N   UNL d   1      36.394 -13.111  33.080 -0.08 +0.16    -0.247 NA
DOCKED: ATOM      4  N   UNL d   1      39.317 -12.733  33.458 -0.04 +0.20    -0.247 NA
DOCKED: ATOM      5  N   UNL d   1      39.642 -13.143  30.631 -0.09 +0.27    -0.354 N 
DOCKED: ATOM      6  N   UNL d   1      36.606 -13.515  30.245 -0.12 +0.25    -0.354 N 
DOCKED: ATOM      7  C   UNL d   1      34.138 -12.561  33.864 -0.16 -0.02    +0.084 A 
DOCKED: ATOM      8  C   UNL d   1      40.160 -12.762  35.752 -0.02 -0.01    +0.084 A 
DOCKED: ATOM      9  C   UNL d   1      38.968 -12.784  34.790 -0.06 -0.02    +0.058 A 
DOCKED: ATOM     10  C   UNL d   1      35.055 -13.035  32.733 -0.18 -0.03    +0.058 A 
DOCKED: ATOM     11  C   UNL d   1      35.192 -12.400  34.917 -0.06 -0.03    +0.193 A 
DOCKED: ATOM     12  C   UNL d   1      36.512 -12.789  34.327 -0.08 -0.04    +0.109 A 
DOCKED: ATOM     13  C   UNL d   1      41.248 -12.652  34.721 -0.02 -0.04    +0.193 A 
DOCKED: ATOM     14  C   UNL d   1      33.521 -11.191  33.567 -0.28 -0.01    +0.026 C 
DOCKED: ATOM     15  C   UNL d   1      37.694 -12.799  35.212 -0.06 -0.01    +0.055 C 
DOCKED: ATOM     16  C   UNL d   1      40.316 -14.094  36.493 +0.00 -0.00    +0.026 C 
DOCKED: ATOM     17  C   UNL d   1      40.605 -12.637  33.373 -0.02 -0.07    +0.109 A 
DOCKED: ATOM     18  C   UNL d   1      34.561 -13.425  31.543 -0.27 -0.02    +0.050 C 
DOCKED: ATOM     19  C   UNL d   1      35.322 -13.956  30.470 -0.22 -0.02    +0.045 A 
DOCKED: ATOM     20  C   UNL d   1      40.905 -12.721  30.955 -0.12 -0.03    +0.045 A 
DOCKED: ATOM     21  C   UNL d   1      41.428 -12.492  32.164 -0.07 -0.03    +0.057 C 
DOCKED: ATOM     22  C   UNL d   1      40.743 -12.890  28.683 -0.32 +0.01    -0.019 A 
DOCKED: ATOM     23  C   UNL d   1      39.449 -13.274  29.282 -0.30 -0.02    +0.045 A 
DOCKED: ATOM     24  C   UNL d   1      41.601 -12.564  29.678 -0.21 +0.01    -0.022 A 
DOCKED: ATOM     25  C   UNL d   1      37.122 -14.092  29.107 -0.21 -0.02    +0.049 A 
DOCKED: ATOM     26  C   UNL d   1      35.009 -14.870  29.476 -0.25 +0.01    -0.018 A 
DOCKED: ATOM     27  C   UNL d   1      36.156 -14.966  28.630 -0.22 -0.00    +0.003 A 
DOCKED: ATOM     28  C   UNL d   1      38.376 -13.675  28.583 -0.29 -0.02    +0.052 C 
DOCKED: ATOM     29  C   UNL d   1      43.022 -12.126  29.578 -0.15 -0.01    +0.046 C 
DOCKED: ATOM     30  C   UNL d   1      33.724 -15.610  29.320 -0.29 -0.03    +0.046 C 
DOCKED: ATOM     31  H   UNL d   1      38.973 -13.401  31.349 +0.04 -0.14    +0.166 HD
DOCKED: ATOM     32  H   UNL d   1      37.073 -12.828  30.825 -0.12 -0.22    +0.166 HD
DOCKED: ENDROOT
DOCKED: BRANCH   7  33
DOCKED: ATOM     33  C   UNL d   1      33.076 -13.569  34.315 -0.09 -0.02    +0.141 C 
DOCKED: BRANCH  33  34
DOCKED: ATOM     34  C   UNL d   1      31.856 -12.906  34.895 -0.09 +0.00    +0.306 C 
DOCKED: ATOM     35  O   UNL d   1      30.765 -12.808  34.358 -0.17 -0.01    -0.251 OA
DOCKED: BRANCH  34  36
DOCKED: ATOM     36  O   UNL d   1      32.074 -12.402  36.123 -0.02 -0.07    -0.481 OA
DOCKED: ATOM     37  H   UNL d   1      33.015 -12.607  36.310 +0.06 +0.02    +0.295 HD
DOCKED: ENDBRANCH  34  36
DOCKED: ENDBRANCH  33  34
DOCKED: ENDBRANCH   7  33
DOCKED: BRANCH  27  38
DOCKED: ATOM     38  C   UNL d   1      36.255 -15.792  27.464 -0.24 -0.00    +0.017 C 
DOCKED: ATOM     39  C   UNL d   1      37.288 -15.803  26.608 +0.03 -0.02    +0.092 C 
DOCKED: BRANCH  39  40
DOCKED: ATOM     40  C   UNL d   1      37.274 -16.712  25.459 -0.13 -0.07    +0.330 C 
DOCKED: ATOM     41  O   UNL d   1      36.420 -16.809  24.598 -0.25 +0.06    -0.246 OA
DOCKED: BRANCH  40  42
DOCKED: ATOM     42  O   UNL d   1      38.382 -17.469  25.455 +0.01 +0.10    -0.477 OA
DOCKED: ATOM     43  H   UNL d   1      39.105 -16.828  25.617 +0.10 -0.07    +0.295 HD
DOCKED: ENDBRANCH  40  42
DOCKED: ENDBRANCH  39  40
DOCKED: ENDBRANCH  27  38
DOCKED: BRANCH   8  44
DOCKED: ATOM     44  C   UNL d   1      40.203 -11.579  36.724 -0.02 +0.02    +0.141 C 
DOCKED: BRANCH  44  45
DOCKED: ATOM     45  C   UNL d   1      40.327 -10.247  36.033 -0.06 +0.15    +0.306 C 
DOCKED: ATOM     46  O   UNL d   1      41.128  -9.365  36.293 -0.10 -0.17    -0.251 OA
DOCKED: BRANCH  45  47
DOCKED: ATOM     47  O   UNL d   1      39.412 -10.084  35.061 -0.62 -0.28    -0.481 OA
DOCKED: ATOM     48  H   UNL d   1      39.730 -10.647  34.324 -0.33 -0.16    +0.295 HD
DOCKED: ENDBRANCH  45  47
DOCKED: ENDBRANCH  44  45
DOCKED: ENDBRANCH   8  44
DOCKED: BRANCH  22  49
DOCKED: ATOM     49  C   UNL d   1      41.012 -12.862  27.207 -0.28 -0.01    +0.048 C 
DOCKED: BRANCH  49  50
DOCKED: ATOM     50  C   UNL d   1      41.596 -14.184  26.710 -0.23 -0.02    +0.125 C 
DOCKED: BRANCH  50  51
DOCKED: ATOM     51  C   UNL d   1      40.506 -15.172  26.406 -0.13 -0.06    +0.305 C 
DOCKED: ATOM     52  O   UNL d   1      40.362 -16.288  26.874 -0.04 +0.05    -0.251 OA
DOCKED: BRANCH  51  53
DOCKED: ATOM     53  O   UNL d   1      39.634 -14.696  25.495 -0.47 +0.13    -0.481 OA
DOCKED: ATOM     54  H   UNL d   1      40.197 -14.459  24.728 -0.43 -0.18    +0.295 HD
DOCKED: ENDBRANCH  51  53
DOCKED: ENDBRANCH  50  51
DOCKED: ENDBRANCH  49  50
DOCKED: ENDBRANCH  22  49
DOCKED: TORSDOF 13
DOCKED: TER
DOCKED: ENDMDL
________________________________________________________________________________


	BEGINNING GENETIC ALGORITHM DOCKING 97 of 100
Run: 97 Seed: 2097715673 947351427 [ Run 97 of 100 GA/GALS ]
Beginning LAMARCKIAN GENETIC ALGORITHM (LGA), with a maximum of 25000000 energy evaluations.

Final-Value: -11.657


	FINAL GENETIC ALGORITHM DOCKED STATE
	_______________________________________________


Detailed state:  trans 12.183 8.473 9.755 quatxyzw 0.144554 0.051941 0.884978 0.439569 center 0.153 0.018 -0.028 ntor 13 -157.1887 69.8601 82.6013 40.2273 59.5074 -121.8801 2.2624 106.2573 170.1590 138.2118 -66.6067 -146.9189 -68.8023
State:	 12.183   8.473   9.755   0.161  0.058  0.985 127.847   -157.19   69.86   82.60   40.23   59.51 -121.88    2.26  106.26  170.16  138.21  -66.61 -146.92  -68.80

DOCKED: MODEL       97
DOCKED: USER    Run = 97
DOCKED: USER    DPF = D:/Protein_go_brrr/autodock/final/1A3N/heme/dock.dpf
DOCKED: USER  
DOCKED: USER    Estimated Free Energy of Binding    =   -6.61 kcal/mol  [=(1)+(2)+(3)-(4)]
DOCKED: USER    Estimated Inhibition Constant, Ki   =   14.22 uM (micromolar)  [Temperature = 298.15 K]
DOCKED: USER    
DOCKED: USER    (1) Final Intermolecular Energy     =  -10.49 kcal/mol
DOCKED: USER        vdW + Hbond + desolv Energy     =   -9.89 kcal/mol
DOCKED: USER        Electrostatic Energy            =   -0.60 kcal/mol
DOCKED: USER    (2) Final Total Internal Energy     =   -1.17 kcal/mol
DOCKED: USER    (3) Torsional Free Energy           =   +3.88 kcal/mol
DOCKED: USER    (4) Unbound System's Energy  [=(2)] =   -1.17 kcal/mol
DOCKED: USER    
DOCKED: USER    
DOCKED: USER    NEWDPF move heme_opt.pdbqt
DOCKED: USER    NEWDPF about 0.153000 0.018000 -0.028000
DOCKED: USER    NEWDPF tran0 12.182811 8.473099 9.754729
DOCKED: USER    NEWDPF quaternion0 0.144554 0.051941 0.884978 0.439569
DOCKED: USER    NEWDPF axisangle0 0.160936 0.057827 0.985269 127.847262
DOCKED: USER    NEWDPF quat0 0.160936 0.057827 0.985269 127.847262
DOCKED: USER    NEWDPF dihe0 -157.19 69.86 82.60 40.23 59.51 -121.88 2.26 106.26 170.16 138.21 -66.61 -146.92 -68.80 
DOCKED: USER  keepresnum = 1 
DOCKED: USER  
DOCKED: REMARK  13 active torsions:
DOCKED: REMARK  status: ('A' for Active; 'I' for Inactive)
DOCKED: REMARK    1  A    between atoms: O_3  and  C_38 
DOCKED: REMARK    2  A    between atoms: O_4  and  C_40 
DOCKED: REMARK    3  A    between atoms: O_7  and  C_46 
DOCKED: REMARK    4  A    between atoms: O_9  and  C_48 
DOCKED: REMARK    5  A    between atoms: C_15  and  C_20 
DOCKED: REMARK    6  A    between atoms: C_16  and  C_23 
DOCKED: REMARK    7  A    between atoms: C_20  and  C_38 
DOCKED: REMARK    8  A    between atoms: C_23  and  C_40 
DOCKED: REMARK    9  A    between atoms: C_32  and  C_41 
DOCKED: REMARK   10  A    between atoms: C_37  and  C_45 
DOCKED: REMARK   11  A    between atoms: C_41  and  C_44 
DOCKED: REMARK   12  A    between atoms: C_44  and  C_46 
DOCKED: REMARK   13  A    between atoms: C_47  and  C_48 
DOCKED: USER                              x       y       z     vdW  Elec       q    Type
DOCKED: USER                           _______ _______ _______ _____ _____    ______ ____
DOCKED: ROOT
DOCKED: ATOM      1  O   UNL d   1      16.867  11.869   8.621 -0.25 +0.02    -0.289 OA
DOCKED: ATOM      2  O   UNL d   1       9.527  13.102   7.619 -0.75 -0.28    -0.289 OA
DOCKED: ATOM      3  N   UNL d   1      14.462   9.497   9.318 -0.05 -0.05    -0.247 NA
DOCKED: ATOM      4  N   UNL d   1      11.913  10.968   8.910 -0.03 -0.05    -0.247 NA
DOCKED: ATOM      5  N   UNL d   1      10.560   8.807  10.239 +0.01 -0.05    -0.354 N 
DOCKED: ATOM      6  N   UNL d   1      13.212   7.297  10.676 -0.01 -0.13    -0.354 N 
DOCKED: ATOM      7  C   UNL d   1      16.886   9.649   9.643 -0.19 +0.03    +0.084 A 
DOCKED: ATOM      8  C   UNL d   1      11.951  12.864   7.369 -0.16 +0.02    +0.084 A 
DOCKED: ATOM      9  C   UNL d   1      12.711  11.770   8.126 -0.13 +0.01    +0.058 A 
DOCKED: ATOM     10  C   UNL d   1      15.588   8.853   9.804 -0.15 +0.02    +0.058 A 
DOCKED: ATOM     11  C   UNL d   1      16.298  10.848   8.963 -0.18 +0.01    +0.193 A 
DOCKED: ATOM     12  C   UNL d   1      14.827  10.624   8.800 -0.14 +0.01    +0.109 A 
DOCKED: ATOM     13  C   UNL d   1      10.578  12.558   7.899 -0.13 +0.10    +0.193 A 
DOCKED: ATOM     14  C   UNL d   1      17.467  10.080  10.993 -0.20 +0.01    +0.026 C 
DOCKED: ATOM     15  C   UNL d   1      14.046  11.641   8.067 -0.22 +0.00    +0.055 C 
DOCKED: ATOM     16  C   UNL d   1      11.960  12.621   5.857 -0.45 +0.00    +0.026 C 
DOCKED: ATOM     17  C   UNL d   1      10.693  11.394   8.828 -0.14 +0.04    +0.109 A 
DOCKED: ATOM     18  C   UNL d   1      15.587   7.601  10.297 -0.20 +0.05    +0.050 C 
DOCKED: ATOM     19  C   UNL d   1      14.450   6.760  10.404 -0.18 +0.03    +0.045 A 
DOCKED: ATOM     20  C   UNL d   1       9.538   9.718  10.170 -0.16 +0.01    +0.045 A 
DOCKED: ATOM     21  C   UNL d   1       9.505  10.894   9.535 +0.04 +0.03    +0.057 C 
DOCKED: ATOM     22  C   UNL d   1       8.858   7.939  11.433 -0.15 -0.00    -0.019 A 
DOCKED: ATOM     23  C   UNL d   1      10.244   7.701  10.981 -0.07 +0.01    +0.045 A 
DOCKED: ATOM     24  C   UNL d   1       8.445   9.134  10.948 -0.23 -0.00    -0.022 A 
DOCKED: ATOM     25  C   UNL d   1      12.275   6.300  10.826 -0.09 +0.01    +0.049 A 
DOCKED: ATOM     26  C   UNL d   1      14.307   5.382  10.340 -0.25 -0.01    -0.018 A 
DOCKED: ATOM     27  C   UNL d   1      12.928   5.099  10.587 -0.17 +0.00    +0.003 A 
DOCKED: ATOM     28  C   UNL d   1      10.956   6.599  11.264 -0.12 +0.01    +0.052 C 
DOCKED: ATOM     29  C   UNL d   1       7.125   9.805  11.119 -0.28 -0.02    +0.046 C 
DOCKED: ATOM     30  C   UNL d   1      15.384   4.388  10.063 -0.25 +0.03    +0.046 C 
DOCKED: ATOM     31  H   UNL d   1      11.418   8.938   9.715 +0.05 +0.03    +0.166 HD
DOCKED: ATOM     32  H   UNL d   1      13.044   8.290  10.787 +0.04 +0.05    +0.166 HD
DOCKED: ENDROOT
DOCKED: BRANCH   7  33
DOCKED: ATOM     33  C   UNL d   1      17.951   8.995   8.756 -0.38 +0.04    +0.141 C 
DOCKED: BRANCH  33  34
DOCKED: ATOM     34  C   UNL d   1      19.348   9.207   9.275 -0.26 +0.10    +0.306 C 
DOCKED: ATOM     35  O   UNL d   1      20.096   8.343   9.700 -0.33 -0.10    -0.251 OA
DOCKED: BRANCH  34  36
DOCKED: ATOM     36  O   UNL d   1      19.728  10.496   9.230 -0.13 -0.08    -0.481 OA
DOCKED: ATOM     37  H   UNL d   1      18.888  10.999   9.178 -0.12 -0.00    +0.295 HD
DOCKED: ENDBRANCH  34  36
DOCKED: ENDBRANCH  33  34
DOCKED: ENDBRANCH   7  33
DOCKED: BRANCH  27  38
DOCKED: ATOM     38  C   UNL d   1      12.349   3.790  10.628 -0.15 -0.00    +0.017 C 
DOCKED: ATOM     39  C   UNL d   1      12.567   2.876  11.585 -0.20 +0.03    +0.092 C 
DOCKED: BRANCH  39  40
DOCKED: ATOM     40  C   UNL d   1      11.897   1.575  11.518 -0.14 +0.05    +0.330 C 
DOCKED: ATOM     41  O   UNL d   1      11.186   1.061  12.361 -0.44 -0.25    -0.246 OA
DOCKED: BRANCH  40  42
DOCKED: ATOM     42  O   UNL d   1      12.162   0.978  10.346 -0.09 +0.41    -0.477 OA
DOCKED: ATOM     43  H   UNL d   1      11.307   1.005   9.870 -0.27 -0.57    +0.295 HD
DOCKED: ENDBRANCH  40  42
DOCKED: ENDBRANCH  39  40
DOCKED: ENDBRANCH  27  38
DOCKED: BRANCH   8  44
DOCKED: ATOM     44  C   UNL d   1      12.359  14.303   7.702 -0.14 +0.04    +0.141 C 
DOCKED: BRANCH  44  45
DOCKED: ATOM     45  C   UNL d   1      13.489  14.813   6.848 -0.15 +0.06    +0.306 C 
DOCKED: ATOM     46  O   UNL d   1      14.489  14.197   6.522 -0.33 -0.00    -0.251 OA
DOCKED: BRANCH  45  47
DOCKED: ATOM     47  O   UNL d   1      13.311  16.091   6.468 -0.09 -0.21    -0.481 OA
DOCKED: ATOM     48  H   UNL d   1      12.945  16.032   5.560 -0.12 +0.07    +0.295 HD
DOCKED: ENDBRANCH  45  47
DOCKED: ENDBRANCH  44  45
DOCKED: ENDBRANCH   8  44
DOCKED: BRANCH  22  49
DOCKED: ATOM     49  C   UNL d   1       8.079   6.994  12.299 -0.23 +0.00    +0.048 C 
DOCKED: BRANCH  49  50
DOCKED: ATOM     50  C   UNL d   1       6.574   7.113  12.061 -0.28 -0.04    +0.125 C 
DOCKED: BRANCH  50  51
DOCKED: ATOM     51  C   UNL d   1       6.025   5.850  11.461 -0.19 -0.07    +0.305 C 
DOCKED: ATOM     52  O   UNL d   1       5.434   4.951  12.033 -0.27 +0.02    -0.251 OA
DOCKED: BRANCH  51  53
DOCKED: ATOM     53  O   UNL d   1       6.264   5.775  10.136 -0.08 +0.14    -0.481 OA
DOCKED: ATOM     54  H   UNL d   1       5.438   5.399   9.766 -0.30 -0.14    +0.295 HD
DOCKED: ENDBRANCH  51  53
DOCKED: ENDBRANCH  50  51
DOCKED: ENDBRANCH  49  50
DOCKED: ENDBRANCH  22  49
DOCKED: TORSDOF 13
DOCKED: TER
DOCKED: ENDMDL
________________________________________________________________________________


	BEGINNING GENETIC ALGORITHM DOCKING 98 of 100
Run: 98 Seed: 168418107 1470137126 [ Run 98 of 100 GA/GALS ]
Beginning LAMARCKIAN GENETIC ALGORITHM (LGA), with a maximum of 25000000 energy evaluations.

Final-Value: -9.996


	FINAL GENETIC ALGORITHM DOCKED STATE
	_______________________________________________


Detailed state:  trans 8.956 14.691 -7.940 quatxyzw -0.387778 0.449409 -0.706097 -0.386117 center 0.153 0.018 -0.028 ntor 13 146.6278 61.3107 109.1064 -48.8298 -138.7574 -134.9571 -49.2501 -121.7309 16.7464 -127.3583 -147.3369 12.0135 -31.4025
State:	  8.956  14.691  -7.940  -0.420  0.487 -0.765 -134.574    146.63   61.31  109.11  -48.83 -138.76 -134.96  -49.25 -121.73   16.75 -127.36 -147.34   12.01  -31.40

DOCKED: MODEL       98
DOCKED: USER    Run = 98
DOCKED: USER    DPF = D:/Protein_go_brrr/autodock/final/1A3N/heme/dock.dpf
DOCKED: USER  
DOCKED: USER    Estimated Free Energy of Binding    =   -3.44 kcal/mol  [=(1)+(2)+(3)-(4)]
DOCKED: USER    Estimated Inhibition Constant, Ki   =    3.01 mM (millimolar)  [Temperature = 298.15 K]
DOCKED: USER    
DOCKED: USER    (1) Final Intermolecular Energy     =   -7.32 kcal/mol
DOCKED: USER        vdW + Hbond + desolv Energy     =   -6.84 kcal/mol
DOCKED: USER        Electrostatic Energy            =   -0.47 kcal/mol
DOCKED: USER    (2) Final Total Internal Energy     =   -2.68 kcal/mol
DOCKED: USER    (3) Torsional Free Energy           =   +3.88 kcal/mol
DOCKED: USER    (4) Unbound System's Energy  [=(2)] =   -2.68 kcal/mol
DOCKED: USER    
DOCKED: USER    
DOCKED: USER    NEWDPF move heme_opt.pdbqt
DOCKED: USER    NEWDPF about 0.153000 0.018000 -0.028000
DOCKED: USER    NEWDPF tran0 8.956116 14.691395 -7.939549
DOCKED: USER    NEWDPF quaternion0 -0.387778 0.449409 -0.706097 -0.386117
DOCKED: USER    NEWDPF axisangle0 -0.420379 0.487191 -0.765458 -134.573853
DOCKED: USER    NEWDPF quat0 -0.420379 0.487191 -0.765458 -134.573853
DOCKED: USER    NEWDPF dihe0 146.63 61.31 109.11 -48.83 -138.76 -134.96 -49.25 -121.73 16.75 -127.36 -147.34 12.01 -31.40 
DOCKED: USER  keepresnum = 1 
DOCKED: USER  
DOCKED: REMARK  13 active torsions:
DOCKED: REMARK  status: ('A' for Active; 'I' for Inactive)
DOCKED: REMARK    1  A    between atoms: O_3  and  C_38 
DOCKED: REMARK    2  A    between atoms: O_4  and  C_40 
DOCKED: REMARK    3  A    between atoms: O_7  and  C_46 
DOCKED: REMARK    4  A    between atoms: O_9  and  C_48 
DOCKED: REMARK    5  A    between atoms: C_15  and  C_20 
DOCKED: REMARK    6  A    between atoms: C_16  and  C_23 
DOCKED: REMARK    7  A    between atoms: C_20  and  C_38 
DOCKED: REMARK    8  A    between atoms: C_23  and  C_40 
DOCKED: REMARK    9  A    between atoms: C_32  and  C_41 
DOCKED: REMARK   10  A    between atoms: C_37  and  C_45 
DOCKED: REMARK   11  A    between atoms: C_41  and  C_44 
DOCKED: REMARK   12  A    between atoms: C_44  and  C_46 
DOCKED: REMARK   13  A    between atoms: C_47  and  C_48 
DOCKED: USER                              x       y       z     vdW  Elec       q    Type
DOCKED: USER                           _______ _______ _______ _____ _____    ______ ____
DOCKED: ROOT
DOCKED: ATOM      1  O   UNL d   1      12.119  18.986 -10.451 -0.01 -0.02    -0.289 OA
DOCKED: ATOM      2  O   UNL d   1       7.656  19.039  -4.412 -0.02 +0.01    -0.289 OA
DOCKED: ATOM      3  N   UNL d   1      10.338  16.218  -9.420 -0.10 -0.04    -0.247 NA
DOCKED: ATOM      4  N   UNL d   1       9.143  17.095  -6.845 -0.12 +0.01    -0.247 NA
DOCKED: ATOM      5  N   UNL d   1       8.505  14.343  -6.310 -0.11 +0.02    -0.354 N 
DOCKED: ATOM      6  N   UNL d   1       9.764  13.440  -8.975 -0.12 -0.05    -0.354 N 
DOCKED: ATOM      7  C   UNL d   1      12.022  16.646 -11.149 -0.08 +0.03    +0.084 A 
DOCKED: ATOM      8  C   UNL d   1       8.773  19.492  -6.542 -0.05 -0.00    +0.084 A 
DOCKED: ATOM      9  C   UNL d   1       9.339  18.346  -7.387 -0.11 -0.00    +0.058 A 
DOCKED: ATOM     10  C   UNL d   1      11.090  15.659 -10.440 -0.15 +0.02    +0.058 A 
DOCKED: ATOM     11  C   UNL d   1      11.650  17.866 -10.362 -0.04 +0.03    +0.193 A 
DOCKED: ATOM     12  C   UNL d   1      10.603  17.483  -9.363 -0.09 +0.01    +0.109 A 
DOCKED: ATOM     13  C   UNL d   1       8.253  18.663  -5.402 -0.06 -0.01    +0.193 A 
DOCKED: ATOM     14  C   UNL d   1      13.497  16.324 -10.897 -0.15 +0.01    +0.026 C 
DOCKED: ATOM     15  C   UNL d   1      10.012  18.550  -8.530 -0.09 +0.00    +0.055 C 
DOCKED: ATOM     16  C   UNL d   1       7.590  20.176  -7.234 -0.01 -0.00    +0.026 C 
DOCKED: ATOM     17  C   UNL d   1       8.547  17.230  -5.704 -0.04 -0.01    +0.109 A 
DOCKED: ATOM     18  C   UNL d   1      10.967  14.384 -10.856 -0.10 +0.02    +0.050 C 
DOCKED: ATOM     19  C   UNL d   1      10.071  13.426 -10.317 -0.19 +0.01    +0.045 A 
DOCKED: ATOM     20  C   UNL d   1       8.216  14.894  -5.089 -0.13 -0.01    +0.045 A 
DOCKED: ATOM     21  C   UNL d   1       8.187  16.183  -4.736 -0.07 -0.01    +0.057 C 
DOCKED: ATOM     22  C   UNL d   1       8.062  12.620  -4.929 -0.33 +0.00    -0.019 A 
DOCKED: ATOM     23  C   UNL d   1       8.438  12.976  -6.312 -0.28 +0.00    +0.045 A 
DOCKED: ATOM     24  C   UNL d   1       7.930  13.760  -4.210 -0.26 +0.00    -0.022 A 
DOCKED: ATOM     25  C   UNL d   1       8.954  12.375  -8.654 -0.18 +0.00    +0.049 A 
DOCKED: ATOM     26  C   UNL d   1       9.416  12.346 -10.889 -0.14 -0.00    -0.018 A 
DOCKED: ATOM     27  C   UNL d   1       8.697  11.698  -9.838 -0.19 +0.00    +0.003 A 
DOCKED: ATOM     28  C   UNL d   1       8.630  12.088  -7.300 -0.27 +0.00    +0.052 C 
DOCKED: ATOM     29  C   UNL d   1       7.554  13.920  -2.776 -0.35 -0.01    +0.046 C 
DOCKED: ATOM     30  C   UNL d   1       9.453  11.941 -12.323 -0.09 +0.01    +0.046 C 
DOCKED: ATOM     31  H   UNL d   1       8.667  14.926  -7.125 +0.04 -0.00    +0.166 HD
DOCKED: ATOM     32  H   UNL d   1      10.127  14.125  -8.324 +0.03 +0.03    +0.166 HD
DOCKED: ENDROOT
DOCKED: BRANCH   7  33
DOCKED: ATOM     33  C   UNL d   1      11.740  16.861 -12.640 -0.04 +0.04    +0.141 C 
DOCKED: BRANCH  33  34
DOCKED: ATOM     34  C   UNL d   1      10.397  17.494 -12.890 -0.00 +0.04    +0.306 C 
DOCKED: ATOM     35  O   UNL d   1       9.329  16.911 -12.968 -0.00 -0.03    -0.251 OA
DOCKED: BRANCH  34  36
DOCKED: ATOM     36  O   UNL d   1      10.472  18.830 -13.025 +0.00 -0.04    -0.481 OA
DOCKED: ATOM     37  H   UNL d   1      11.172  19.103 -12.395 +0.01 +0.03    +0.295 HD
DOCKED: ENDBRANCH  34  36
DOCKED: ENDBRANCH  33  34
DOCKED: ENDBRANCH   7  33
DOCKED: BRANCH  27  38
DOCKED: ATOM     38  C   UNL d   1       7.894  10.522  -9.991 -0.23 -0.00    +0.017 C 
DOCKED: ATOM     39  C   UNL d   1       6.643  10.374  -9.528 -0.19 -0.01    +0.092 C 
DOCKED: BRANCH  39  40
DOCKED: ATOM     40  C   UNL d   1       5.920   9.122  -9.767 -0.16 -0.11    +0.330 C 
DOCKED: ATOM     41  O   UNL d   1       4.759   8.986 -10.104 -0.20 +0.10    -0.246 OA
DOCKED: BRANCH  40  42
DOCKED: ATOM     42  O   UNL d   1       6.734   8.073  -9.570 -0.64 +0.16    -0.477 OA
DOCKED: ATOM     43  H   UNL d   1       6.759   7.628 -10.442 -0.18 -0.63    +0.295 HD
DOCKED: ENDBRANCH  40  42
DOCKED: ENDBRANCH  39  40
DOCKED: ENDBRANCH  27  38
DOCKED: BRANCH   8  44
DOCKED: ATOM     44  C   UNL d   1       9.799  20.519  -6.051 -0.05 -0.00    +0.141 C 
DOCKED: BRANCH  44  45
DOCKED: ATOM     45  C   UNL d   1       9.200  21.581  -5.168 -0.00 +0.00    +0.306 C 
DOCKED: ATOM     46  O   UNL d   1       8.785  22.671  -5.522 -0.00 -0.00    -0.251 OA
DOCKED: BRANCH  45  47
DOCKED: ATOM     47  O   UNL d   1       9.180  21.222  -3.872 +0.01 -0.01    -0.481 OA
DOCKED: ATOM     48  H   UNL d   1       8.487  20.530  -3.817 +0.03 -0.00    +0.295 HD
DOCKED: ENDBRANCH  45  47
DOCKED: ENDBRANCH  44  45
DOCKED: ENDBRANCH   8  44
DOCKED: BRANCH  22  49
DOCKED: ATOM     49  C   UNL d   1       7.882  11.213  -4.440 -0.53 +0.00    +0.048 C 
DOCKED: BRANCH  49  50
DOCKED: ATOM     50  C   UNL d   1       6.434  10.931  -4.037 -0.18 -0.01    +0.125 C 
DOCKED: BRANCH  50  51
DOCKED: ATOM     51  C   UNL d   1       5.477  11.697  -4.906 -0.02 -0.05    +0.305 C 
DOCKED: ATOM     52  O   UNL d   1       4.569  12.426  -4.548 -0.27 +0.04    -0.251 OA
DOCKED: BRANCH  51  53
DOCKED: ATOM     53  O   UNL d   1       5.711  11.492  -6.218 -0.04 +0.10    -0.481 OA
DOCKED: ATOM     54  H   UNL d   1       4.829  11.275  -6.585 -0.30 -0.16    +0.295 HD
DOCKED: ENDBRANCH  51  53
DOCKED: ENDBRANCH  50  51
DOCKED: ENDBRANCH  49  50
DOCKED: ENDBRANCH  22  49
DOCKED: TORSDOF 13
DOCKED: TER
DOCKED: ENDMDL
________________________________________________________________________________


	BEGINNING GENETIC ALGORITHM DOCKING 99 of 100
Run: 99 Seed: 1606424748 173448839 [ Run 99 of 100 GA/GALS ]
Beginning LAMARCKIAN GENETIC ALGORITHM (LGA), with a maximum of 25000000 energy evaluations.

Final-Value: -11.768


	FINAL GENETIC ALGORITHM DOCKED STATE
	_______________________________________________


Detailed state:  trans 10.629 2.606 -11.881 quatxyzw 0.025282 0.407248 0.525876 0.746301 center 0.153 0.018 -0.028 ntor 13 96.8806 24.8376 39.4631 -35.2198 -132.2961 -164.3989 -49.1479 -114.4341 38.2779 -3.3891 -89.1744 -44.3212 -15.9053
State:	 10.629   2.606 -11.881   0.038  0.612  0.790 83.458     96.88   24.84   39.46  -35.22 -132.30 -164.40  -49.15 -114.43   38.28   -3.39  -89.17  -44.32  -15.91

DOCKED: MODEL       99
DOCKED: USER    Run = 99
DOCKED: USER    DPF = D:/Protein_go_brrr/autodock/final/1A3N/heme/dock.dpf
DOCKED: USER  
DOCKED: USER    Estimated Free Energy of Binding    =   -4.91 kcal/mol  [=(1)+(2)+(3)-(4)]
DOCKED: USER    Estimated Inhibition Constant, Ki   =  250.99 uM (micromolar)  [Temperature = 298.15 K]
DOCKED: USER    
DOCKED: USER    (1) Final Intermolecular Energy     =   -8.79 kcal/mol
DOCKED: USER        vdW + Hbond + desolv Energy     =   -8.55 kcal/mol
DOCKED: USER        Electrostatic Energy            =   -0.24 kcal/mol
DOCKED: USER    (2) Final Total Internal Energy     =   -2.98 kcal/mol
DOCKED: USER    (3) Torsional Free Energy           =   +3.88 kcal/mol
DOCKED: USER    (4) Unbound System's Energy  [=(2)] =   -2.98 kcal/mol
DOCKED: USER    
DOCKED: USER    
DOCKED: USER    NEWDPF move heme_opt.pdbqt
DOCKED: USER    NEWDPF about 0.153000 0.018000 -0.028000
DOCKED: USER    NEWDPF tran0 10.629394 2.606430 -11.881201
DOCKED: USER    NEWDPF quaternion0 0.025282 0.407248 0.525876 0.746301
DOCKED: USER    NEWDPF axisangle0 0.037983 0.611842 0.790067 83.458058
DOCKED: USER    NEWDPF quat0 0.037983 0.611842 0.790067 83.458058
DOCKED: USER    NEWDPF dihe0 96.88 24.84 39.46 -35.22 -132.30 -164.40 -49.15 -114.43 38.28 -3.39 -89.17 -44.32 -15.91 
DOCKED: USER  keepresnum = 1 
DOCKED: USER  
DOCKED: REMARK  13 active torsions:
DOCKED: REMARK  status: ('A' for Active; 'I' for Inactive)
DOCKED: REMARK    1  A    between atoms: O_3  and  C_38 
DOCKED: REMARK    2  A    between atoms: O_4  and  C_40 
DOCKED: REMARK    3  A    between atoms: O_7  and  C_46 
DOCKED: REMARK    4  A    between atoms: O_9  and  C_48 
DOCKED: REMARK    5  A    between atoms: C_15  and  C_20 
DOCKED: REMARK    6  A    between atoms: C_16  and  C_23 
DOCKED: REMARK    7  A    between atoms: C_20  and  C_38 
DOCKED: REMARK    8  A    between atoms: C_23  and  C_40 
DOCKED: REMARK    9  A    between atoms: C_32  and  C_41 
DOCKED: REMARK   10  A    between atoms: C_37  and  C_45 
DOCKED: REMARK   11  A    between atoms: C_41  and  C_44 
DOCKED: REMARK   12  A    between atoms: C_44  and  C_46 
DOCKED: REMARK   13  A    between atoms: C_47  and  C_48 
DOCKED: USER                              x       y       z     vdW  Elec       q    Type
DOCKED: USER                           _______ _______ _______ _____ _____    ______ ____
DOCKED: ROOT
DOCKED: ATOM      1  O   UNL d   1      10.967   7.950 -14.349 -0.03 +0.03    -0.289 OA
DOCKED: ATOM      2  O   UNL d   1       7.338   1.742 -16.513 -0.05 -0.02    -0.289 OA
DOCKED: ATOM      3  N   UNL d   1      11.174   4.969 -12.627 -0.09 +0.08    -0.247 NA
DOCKED: ATOM      4  N   UNL d   1       9.211   3.233 -14.028 -0.01 +0.02    -0.247 NA
DOCKED: ATOM      5  N   UNL d   1       9.397   1.399 -11.821 -0.07 +0.01    -0.354 N 
DOCKED: ATOM      6  N   UNL d   1      11.419   3.215 -10.366 -0.10 -0.01    -0.354 N 
DOCKED: ATOM      7  C   UNL d   1      11.982   7.250 -12.238 -0.15 -0.00    +0.084 A 
DOCKED: ATOM      8  C   UNL d   1       8.734   3.747 -16.368 -0.06 -0.00    +0.084 A 
DOCKED: ATOM      9  C   UNL d   1       9.434   4.119 -15.057 -0.10 -0.01    +0.058 A 
DOCKED: ATOM     10  C   UNL d   1      11.869   5.798 -11.763 -0.16 -0.01    +0.058 A 
DOCKED: ATOM     11  C   UNL d   1      11.243   7.090 -13.533 -0.07 -0.04    +0.193 A 
DOCKED: ATOM     12  C   UNL d   1      10.827   5.657 -13.665 -0.09 -0.03    +0.109 A 
DOCKED: ATOM     13  C   UNL d   1       8.041   2.506 -15.881 -0.07 +0.00    +0.193 A 
DOCKED: ATOM     14  C   UNL d   1      11.201   8.211 -11.339 -0.25 -0.00    +0.026 C 
DOCKED: ATOM     15  C   UNL d   1      10.159   5.239 -14.914 -0.10 -0.01    +0.055 C 
DOCKED: ATOM     16  C   UNL d   1       9.738   3.356 -17.457 -0.02 +0.00    +0.026 C 
DOCKED: ATOM     17  C   UNL d   1       8.406   2.309 -14.446 +0.01 +0.00    +0.109 A 
DOCKED: ATOM     18  C   UNL d   1      12.482   5.376 -10.641 -0.26 +0.01    +0.050 C 
DOCKED: ATOM     19  C   UNL d   1      12.504   4.039 -10.169 -0.21 +0.01    +0.045 A 
DOCKED: ATOM     20  C   UNL d   1       8.333   0.854 -12.491 -0.18 +0.00    +0.045 A 
DOCKED: ATOM     21  C   UNL d   1       7.836   1.187 -13.686 -0.11 +0.00    +0.057 C 
DOCKED: ATOM     22  C   UNL d   1       8.589  -0.236 -10.500 -0.29 +0.00    -0.019 A 
DOCKED: ATOM     23  C   UNL d   1       9.629   0.807 -10.608 -0.20 -0.00    +0.045 A 
DOCKED: ATOM     24  C   UNL d   1       7.825  -0.204 -11.618 -0.24 -0.00    -0.022 A 
DOCKED: ATOM     25  C   UNL d   1      11.617   2.000  -9.752 -0.21 +0.01    +0.049 A 
DOCKED: ATOM     26  C   UNL d   1      13.446   3.329  -9.441 -0.21 -0.01    -0.018 A 
DOCKED: ATOM     27  C   UNL d   1      12.889   2.036  -9.197 -0.23 +0.00    +0.003 A 
DOCKED: ATOM     28  C   UNL d   1      10.572   1.040  -9.682 -0.19 +0.00    +0.052 C 
DOCKED: ATOM     29  C   UNL d   1       6.663  -1.065 -11.979 -0.22 +0.00    +0.046 C 
DOCKED: ATOM     30  C   UNL d   1      14.784   3.819  -9.000 -0.30 +0.02    +0.046 C 
DOCKED: ATOM     31  H   UNL d   1       9.979   2.112 -12.248 +0.05 -0.01    +0.166 HD
DOCKED: ATOM     32  H   UNL d   1      10.582   3.499 -10.861 +0.03 -0.04    +0.166 HD
DOCKED: ENDROOT
DOCKED: BRANCH   7  33
DOCKED: ATOM     33  C   UNL d   1      13.408   7.750 -12.491 -0.13 +0.04    +0.141 C 
DOCKED: BRANCH  33  34
DOCKED: ATOM     34  C   UNL d   1      13.898   7.426 -13.877 -0.01 +0.07    +0.306 C 
DOCKED: ATOM     35  O   UNL d   1      14.305   6.344 -14.262 -0.01 -0.04    -0.251 OA
DOCKED: BRANCH  34  36
DOCKED: ATOM     36  O   UNL d   1      13.846   8.485 -14.705 +0.01 -0.14    -0.481 OA
DOCKED: ATOM     37  H   UNL d   1      12.931   8.477 -15.058 +0.03 +0.06    +0.295 HD
DOCKED: ENDBRANCH  34  36
DOCKED: ENDBRANCH  33  34
DOCKED: ENDBRANCH   7  33
DOCKED: BRANCH  27  38
DOCKED: ATOM     38  C   UNL d   1      13.528   0.987  -8.462 -0.21 +0.01    +0.017 C 
DOCKED: ATOM     39  C   UNL d   1      12.953  -0.172  -8.108 -0.28 +0.05    +0.092 C 
DOCKED: BRANCH  39  40
DOCKED: ATOM     40  C   UNL d   1      13.725  -1.174  -7.368 -0.28 +0.14    +0.330 C 
DOCKED: ATOM     41  O   UNL d   1      13.438  -2.340  -7.174 -0.40 -0.01    -0.246 OA
DOCKED: BRANCH  40  42
DOCKED: ATOM     42  O   UNL d   1      14.863  -0.632  -6.906 -0.61 -0.27    -0.477 OA
DOCKED: ATOM     43  H   UNL d   1      15.464  -1.398  -6.806 -0.34 -0.01    +0.295 HD
DOCKED: ENDBRANCH  40  42
DOCKED: ENDBRANCH  39  40
DOCKED: ENDBRANCH  27  38
DOCKED: BRANCH   8  44
DOCKED: ATOM     44  C   UNL d   1       7.722   4.772 -16.890 -0.07 -0.01    +0.141 C 
DOCKED: BRANCH  44  45
DOCKED: ATOM     45  C   UNL d   1       6.685   5.157 -15.869 -0.12 -0.07    +0.306 C 
DOCKED: ATOM     46  O   UNL d   1       5.586   4.651 -15.722 -0.21 +0.05    -0.251 OA
DOCKED: BRANCH  45  47
DOCKED: ATOM     47  O   UNL d   1       7.081   6.185 -15.097 -0.13 +0.26    -0.481 OA
DOCKED: ATOM     48  H   UNL d   1       6.749   5.964 -14.200 -0.23 -0.33    +0.295 HD
DOCKED: ENDBRANCH  45  47
DOCKED: ENDBRANCH  44  45
DOCKED: ENDBRANCH   8  44
DOCKED: BRANCH  22  49
DOCKED: ATOM     49  C   UNL d   1       8.430  -1.148  -9.319 -0.37 +0.00    +0.048 C 
DOCKED: BRANCH  49  50
DOCKED: ATOM     50  C   UNL d   1       9.053  -2.520  -9.572 -0.27 -0.01    +0.125 C 
DOCKED: BRANCH  50  51
DOCKED: ATOM     51  C   UNL d   1      10.481  -2.555  -9.105 -0.16 -0.03    +0.305 C 
DOCKED: ATOM     52  O   UNL d   1      11.475  -2.789  -9.770 -0.20 +0.00    -0.251 OA
DOCKED: BRANCH  51  53
DOCKED: ATOM     53  O   UNL d   1      10.587  -2.299  -7.786 -0.15 +0.07    -0.481 OA
DOCKED: ATOM     54  H   UNL d   1      11.324  -2.874  -7.490 -0.24 -0.09    +0.295 HD
DOCKED: ENDBRANCH  51  53
DOCKED: ENDBRANCH  50  51
DOCKED: ENDBRANCH  49  50
DOCKED: ENDBRANCH  22  49
DOCKED: TORSDOF 13
DOCKED: TER
DOCKED: ENDMDL
________________________________________________________________________________


	BEGINNING GENETIC ALGORITHM DOCKING 100 of 100
Run: 100 Seed: 232853743 261997756 [ Run 100 of 100 GA/GALS ]
Beginning LAMARCKIAN GENETIC ALGORITHM (LGA), with a maximum of 25000000 energy evaluations.

Final-Value: -13.355


	FINAL GENETIC ALGORITHM DOCKED STATE
	_______________________________________________


Detailed state:  trans 18.031 -6.749 8.774 quatxyzw 0.661082 -0.695394 0.120343 0.254785 center 0.153 0.018 -0.028 ntor 13 126.5525 85.3148 -52.3467 144.3206 -22.7472 -46.4548 144.4160 0.5083 -19.8758 -72.5003 37.5862 -93.4234 -160.1645
State:	 18.031  -6.749   8.774   0.684 -0.719  0.124 150.478    126.55   85.31  -52.35  144.32  -22.75  -46.45  144.42    0.51  -19.88  -72.50   37.59  -93.42 -160.16

DOCKED: MODEL      100
DOCKED: USER    Run = 100
DOCKED: USER    DPF = D:/Protein_go_brrr/autodock/final/1A3N/heme/dock.dpf
DOCKED: USER  
DOCKED: USER    Estimated Free Energy of Binding    =   -7.85 kcal/mol  [=(1)+(2)+(3)-(4)]
DOCKED: USER    Estimated Inhibition Constant, Ki   =    1.76 uM (micromolar)  [Temperature = 298.15 K]
DOCKED: USER    
DOCKED: USER    (1) Final Intermolecular Energy     =  -11.73 kcal/mol
DOCKED: USER        vdW + Hbond + desolv Energy     =  -10.96 kcal/mol
DOCKED: USER        Electrostatic Energy            =   -0.76 kcal/mol
DOCKED: USER    (2) Final Total Internal Energy     =   -1.63 kcal/mol
DOCKED: USER    (3) Torsional Free Energy           =   +3.88 kcal/mol
DOCKED: USER    (4) Unbound System's Energy  [=(2)] =   -1.63 kcal/mol
DOCKED: USER    
DOCKED: USER    
DOCKED: USER    NEWDPF move heme_opt.pdbqt
DOCKED: USER    NEWDPF about 0.153000 0.018000 -0.028000
DOCKED: USER    NEWDPF tran0 18.031213 -6.748617 8.773796
DOCKED: USER    NEWDPF quaternion0 0.661082 -0.695394 0.120343 0.254785
DOCKED: USER    NEWDPF axisangle0 0.683644 -0.719126 0.124450 150.478278
DOCKED: USER    NEWDPF quat0 0.683644 -0.719126 0.124450 150.478278
DOCKED: USER    NEWDPF dihe0 126.55 85.31 -52.35 144.32 -22.75 -46.45 144.42 0.51 -19.88 -72.50 37.59 -93.42 -160.16 
DOCKED: USER  keepresnum = 1 
DOCKED: USER  
DOCKED: REMARK  13 active torsions:
DOCKED: REMARK  status: ('A' for Active; 'I' for Inactive)
DOCKED: REMARK    1  A    between atoms: O_3  and  C_38 
DOCKED: REMARK    2  A    between atoms: O_4  and  C_40 
DOCKED: REMARK    3  A    between atoms: O_7  and  C_46 
DOCKED: REMARK    4  A    between atoms: O_9  and  C_48 
DOCKED: REMARK    5  A    between atoms: C_15  and  C_20 
DOCKED: REMARK    6  A    between atoms: C_16  and  C_23 
DOCKED: REMARK    7  A    between atoms: C_20  and  C_38 
DOCKED: REMARK    8  A    between atoms: C_23  and  C_40 
DOCKED: REMARK    9  A    between atoms: C_32  and  C_41 
DOCKED: REMARK   10  A    between atoms: C_37  and  C_45 
DOCKED: REMARK   11  A    between atoms: C_41  and  C_44 
DOCKED: REMARK   12  A    between atoms: C_44  and  C_46 
DOCKED: REMARK   13  A    between atoms: C_47  and  C_48 
DOCKED: USER                              x       y       z     vdW  Elec       q    Type
DOCKED: USER                           _______ _______ _______ _____ _____    ______ ____
DOCKED: ROOT
DOCKED: ATOM      1  O   UNL d   1      16.893  -0.972   8.473 -0.26 +0.06    -0.289 OA
DOCKED: ATOM      2  O   UNL d   1      21.368  -4.880  13.064 -0.14 -0.00    -0.289 OA
DOCKED: ATOM      3  N   UNL d   1      17.140  -4.410   8.360 -0.09 +0.00    -0.247 NA
DOCKED: ATOM      4  N   UNL d   1      19.322  -5.002  10.288 -0.12 -0.01    -0.247 NA
DOCKED: ATOM      5  N   UNL d   1      19.427  -7.665   9.211 -0.07 -0.01    -0.354 N 
DOCKED: ATOM      6  N   UNL d   1      17.176  -7.037   7.200 -0.07 -0.03    -0.354 N 
DOCKED: ATOM      7  C   UNL d   1      16.012  -2.712   6.999 -0.27 -0.02    +0.084 A 
DOCKED: ATOM      8  C   UNL d   1      19.695  -3.387  12.084 -0.13 +0.00    +0.084 A 
DOCKED: ATOM      9  C   UNL d   1      18.961  -3.773  10.796 -0.16 +0.00    +0.058 A 
DOCKED: ATOM     10  C   UNL d   1      16.340  -4.187   7.252 -0.22 -0.00    +0.058 A 
DOCKED: ATOM     11  C   UNL d   1      16.753  -2.143   8.171 -0.15 -0.04    +0.193 A 
DOCKED: ATOM     12  C   UNL d   1      17.373  -3.274   8.933 -0.16 -0.01    +0.109 A 
DOCKED: ATOM     13  C   UNL d   1      20.567  -4.606  12.193 -0.13 +0.00    +0.193 A 
DOCKED: ATOM     14  C   UNL d   1      16.653  -2.194   5.709 -0.33 -0.01    +0.026 C 
DOCKED: ATOM     15  C   UNL d   1      18.082  -2.961  10.190 -0.17 -0.00    +0.055 C 
DOCKED: ATOM     16  C   UNL d   1      18.749  -3.349  13.287 -0.10 +0.00    +0.026 C 
DOCKED: ATOM     17  C   UNL d   1      20.249  -5.503  11.041 +0.01 +0.00    +0.109 A 
DOCKED: ATOM     18  C   UNL d   1      15.806  -5.165   6.497 -0.21 +0.01    +0.050 C 
DOCKED: ATOM     19  C   UNL d   1      15.984  -6.556   6.707 -0.17 +0.01    +0.045 A 
DOCKED: ATOM     20  C   UNL d   1      20.553  -7.683   9.992 -0.24 +0.00    +0.045 A 
DOCKED: ATOM     21  C   UNL d   1      20.984  -6.763  10.861 -0.19 +0.00    +0.057 C 
DOCKED: ATOM     22  C   UNL d   1      20.479  -9.606   8.761 -0.25 +0.00    -0.019 A 
DOCKED: ATOM     23  C   UNL d   1      19.297  -8.784   8.432 -0.19 +0.00    +0.045 A 
DOCKED: ATOM     24  C   UNL d   1      21.218  -8.949   9.686 -0.34 +0.00    -0.022 A 
DOCKED: ATOM     25  C   UNL d   1      17.164  -8.412   7.239 -0.14 +0.00    +0.049 A 
DOCKED: ATOM     26  C   UNL d   1      15.163  -7.644   6.454 -0.19 -0.00    -0.018 A 
DOCKED: ATOM     27  C   UNL d   1      15.906  -8.812   6.810 -0.17 +0.00    +0.003 A 
DOCKED: ATOM     28  C   UNL d   1      18.339  -9.143   7.564 -0.18 +0.00    +0.052 C 
DOCKED: ATOM     29  C   UNL d   1      22.490  -9.374  10.337 -0.40 +0.00    +0.046 C 
DOCKED: ATOM     30  C   UNL d   1      13.773  -7.604   5.917 -0.34 +0.02    +0.046 C 
DOCKED: ATOM     31  H   UNL d   1      18.744  -6.920   9.289 +0.06 +0.01    +0.166 HD
DOCKED: ATOM     32  H   UNL d   1      17.958  -6.444   7.454 +0.07 +0.01    +0.166 HD
DOCKED: ENDROOT
DOCKED: BRANCH   7  33
DOCKED: ATOM     33  C   UNL d   1      14.525  -2.348   7.075 -0.34 -0.08    +0.141 C 
DOCKED: BRANCH  33  34
DOCKED: ATOM     34  C   UNL d   1      13.751  -3.258   7.989 -0.19 -0.09    +0.306 C 
DOCKED: ATOM     35  O   UNL d   1      14.180  -3.809   8.989 -0.13 -0.00    -0.251 OA
DOCKED: BRANCH  34  36
DOCKED: ATOM     36  O   UNL d   1      12.476  -3.426   7.596 -0.35 +0.02    -0.481 OA
DOCKED: ATOM     37  H   UNL d   1      12.113  -2.516   7.544 -0.36 -0.49    +0.295 HD
DOCKED: ENDBRANCH  34  36
DOCKED: ENDBRANCH  33  34
DOCKED: ENDBRANCH   7  33
DOCKED: BRANCH  27  38
DOCKED: ATOM     38  C   UNL d   1      15.434 -10.159   6.690 -0.24 +0.00    +0.017 C 
DOCKED: ATOM     39  C   UNL d   1      16.039 -11.133   5.994 -0.25 -0.00    +0.092 C 
DOCKED: BRANCH  39  40
DOCKED: ATOM     40  C   UNL d   1      15.460 -12.478   5.965 -0.21 -0.03    +0.330 C 
DOCKED: ATOM     41  O   UNL d   1      15.073 -13.141   6.909 -0.22 -0.01    -0.246 OA
DOCKED: BRANCH  40  42
DOCKED: ATOM     42  O   UNL d   1      15.389 -12.924   4.701 -0.23 +0.18    -0.477 OA
DOCKED: ATOM     43  H   UNL d   1      14.479 -12.695   4.422 -0.37 -0.14    +0.295 HD
DOCKED: ENDBRANCH  40  42
DOCKED: ENDBRANCH  39  40
DOCKED: ENDBRANCH  27  38
DOCKED: BRANCH   8  44
DOCKED: ATOM     44  C   UNL d   1      20.542  -2.112  12.004 -0.20 -0.00    +0.141 C 
DOCKED: BRANCH  44  45
DOCKED: ATOM     45  C   UNL d   1      21.992  -2.340  12.341 -0.22 -0.02    +0.306 C 
DOCKED: ATOM     46  O   UNL d   1      22.911  -2.463  11.550 -0.33 +0.01    -0.251 OA
DOCKED: BRANCH  45  47
DOCKED: ATOM     47  O   UNL d   1      22.204  -2.430  13.666 -0.32 +0.05    -0.481 OA
DOCKED: ATOM     48  H   UNL d   1      22.688  -3.275  13.784 -0.20 -0.08    +0.295 HD
DOCKED: ENDBRANCH  45  47
DOCKED: ENDBRANCH  44  45
DOCKED: ENDBRANCH   8  44
DOCKED: BRANCH  22  49
DOCKED: ATOM     49  C   UNL d   1      20.781 -10.936   8.137 -0.28 +0.00    +0.048 C 
DOCKED: BRANCH  49  50
DOCKED: ATOM     50  C   UNL d   1      22.078 -10.904   7.328 -0.30 -0.00    +0.125 C 
DOCKED: BRANCH  50  51
DOCKED: ATOM     51  C   UNL d   1      21.948 -11.720   6.074 -0.20 +0.03    +0.305 C 
DOCKED: ATOM     52  O   UNL d   1      21.011 -12.423   5.738 -0.17 -0.05    -0.251 OA
DOCKED: BRANCH  51  53
DOCKED: ATOM     53  O   UNL d   1      23.040 -11.617   5.290 -0.14 +0.06    -0.481 OA
DOCKED: ATOM     54  H   UNL d   1      23.326 -10.686   5.401 -0.30 -0.11    +0.295 HD
DOCKED: ENDBRANCH  51  53
DOCKED: ENDBRANCH  50  51
DOCKED: ENDBRANCH  49  50
DOCKED: ENDBRANCH  22  49
DOCKED: TORSDOF 13
DOCKED: TER
DOCKED: ENDMDL
________________________________________________________________________________

DPF> analysis                             # perform a ranked cluster analysis


		CLUSTER ANALYSIS OF CONFORMATIONS
		_________________________________

Number of conformations = 100

RMSD cluster analysis will be performed using the ligand atoms only (54 / 54 total atoms).

Outputting structurally similar clusters, ranked in order of increasing energy.


________________________________________________________________________________

Number of distinct conformational clusters found = 78,  out of 100 runs,
Using an rmsd-tolerance of 2.0 A


	CLUSTERING HISTOGRAM
	____________________

________________________________________________________________________________
     |           |     |           |     |                                    
Clus | Lowest    | Run | Mean      | Num | Histogram                          
-ter | Binding   |     | Binding   | in  |                                    
Rank | Energy    |     | Energy    | Clus|    5    10   15   20   25   30   35
_____|___________|_____|___________|_____|____:____|____:____|____:____|____:___
   1 |     -9.32 |  26 |     -8.90 |   4 |####
   2 |     -8.95 |  28 |     -8.19 |   2 |##
   3 |     -8.84 |  62 |     -8.48 |   4 |####
   4 |     -8.34 |  55 |     -7.78 |   2 |##
   5 |     -8.27 |  34 |     -8.27 |   1 |#
   6 |     -7.91 |  54 |     -7.91 |   1 |#
   7 |     -7.85 |  13 |     -7.85 |   1 |#
   8 |     -7.85 | 100 |     -7.85 |   1 |#
   9 |     -7.68 |  39 |     -7.68 |   1 |#
  10 |     -7.52 |  60 |     -7.52 |   1 |#
  11 |     -7.24 |  37 |     -7.24 |   1 |#
  12 |     -7.11 |  68 |     -7.11 |   1 |#
  13 |     -7.07 |   3 |     -7.07 |   1 |#
  14 |     -6.87 |  73 |     -6.87 |   1 |#
  15 |     -6.83 |  87 |     -6.72 |   3 |###
  16 |     -6.80 |  14 |     -6.80 |   1 |#
  17 |     -6.75 |  40 |     -6.12 |   2 |##
  18 |     -6.65 |  95 |     -6.65 |   1 |#
  19 |     -6.61 |  97 |     -6.61 |   1 |#
  20 |     -6.60 |  85 |     -5.74 |   2 |##
  21 |     -6.46 |  33 |     -6.46 |   1 |#
  22 |     -6.33 |  43 |     -5.96 |   2 |##
  23 |     -6.30 |  69 |     -6.30 |   1 |#
  24 |     -6.22 |  21 |     -6.22 |   1 |#
  25 |     -6.01 |  44 |     -6.01 |   1 |#
  26 |     -5.94 |  15 |     -5.52 |   2 |##
  27 |     -5.89 |  64 |     -5.89 |   1 |#
  28 |     -5.76 |  77 |     -5.33 |   2 |##
  29 |     -5.75 |  59 |     -5.05 |   3 |###
  30 |     -5.75 |  89 |     -5.75 |   1 |#
  31 |     -5.73 |  90 |     -5.07 |   2 |##
  32 |     -5.71 |  10 |     -5.71 |   1 |#
  33 |     -5.64 |  47 |     -5.64 |   1 |#
  34 |     -5.52 |  42 |     -5.52 |   1 |#
  35 |     -5.48 |  83 |     -5.36 |   2 |##
  36 |     -5.38 |  58 |     -5.38 |   1 |#
  37 |     -5.18 |  18 |     -5.18 |   1 |#
  38 |     -5.10 |  66 |     -5.10 |   1 |#
  39 |     -5.09 |  75 |     -5.09 |   1 |#
  40 |     -4.99 |  53 |     -4.99 |   1 |#
  41 |     -4.85 |  20 |     -4.84 |   2 |##
  42 |     -4.82 |  52 |     -4.82 |   1 |#
  43 |     -4.66 |  92 |     -4.66 |   1 |#
  44 |     -4.64 |  29 |     -4.64 |   1 |#
  45 |     -4.56 |  35 |     -4.56 |   1 |#
  46 |     -4.56 |  23 |     -4.56 |   1 |#
  47 |     -4.45 |   8 |     -4.45 |   1 |#
  48 |     -4.44 |  96 |     -4.44 |   1 |#
  49 |     -4.44 |  36 |     -4.44 |   1 |#
  50 |     -4.41 |  46 |     -4.41 |   1 |#
  51 |     -4.35 |  65 |     -4.35 |   1 |#
  52 |     -4.35 |  27 |     -4.35 |   1 |#
  53 |     -4.32 |  41 |     -4.21 |   2 |##
  54 |     -4.23 |  71 |     -4.23 |   1 |#
  55 |     -4.22 |  78 |     -4.22 |   1 |#
  56 |     -4.05 |  57 |     -3.74 |   2 |##
  57 |     -3.93 |   2 |     -3.93 |   1 |#
  58 |     -3.89 |   5 |     -3.89 |   1 |#
  59 |     -3.77 |   1 |     -3.77 |   1 |#
  60 |     -3.60 |   6 |     -3.60 |   1 |#
  61 |     -3.57 |  76 |     -3.57 |   1 |#
  62 |     -3.53 |  84 |     -3.53 |   1 |#
  63 |     -3.52 |  24 |     -3.52 |   1 |#
  64 |     -3.47 |  22 |     -3.47 |   1 |#
  65 |     -3.47 |  61 |     -3.47 |   1 |#
  66 |     -3.47 |  11 |     -3.47 |   1 |#
  67 |     -3.39 |   7 |     -3.39 |   1 |#
  68 |     -3.38 |  94 |     -3.38 |   1 |#
  69 |     -3.35 |  51 |     -3.35 |   1 |#
  70 |     -3.32 |  82 |     -3.32 |   1 |#
  71 |     -3.30 |  80 |     -3.30 |   1 |#
  72 |     -3.27 |  70 |     -3.27 |   1 |#
  73 |     -3.12 |  56 |     -3.12 |   1 |#
  74 |     -3.07 |  16 |     -3.07 |   1 |#
  75 |     -2.67 |  81 |     -2.67 |   1 |#
  76 |     -2.66 |  63 |     -2.66 |   1 |#
  77 |     -2.35 |  45 |     -2.35 |   1 |#
  78 |     -2.31 |  48 |     -2.31 |   1 |#
_____|___________|_____|___________|_____|______________________________________


Number of multi-member conformational clusters found = 16, out of 100 runs.

	RMSD TABLE
	__________

_____________________________________________________________________
     |      |      |           |         |                 |
Rank | Sub- | Run  | Binding   | Cluster | Reference       | Grep
     | Rank |      | Energy    | RMSD    | RMSD            | Pattern
_____|______|______|___________|_________|_________________|___________
   1      1     26       -9.32      0.00     31.52           RANKING
   1      2     72       -9.04      1.02     31.84           RANKING
   1      3      4       -8.88      0.89     31.80           RANKING
   1      4     79       -8.36      1.09     32.13           RANKING
   2      1     28       -8.95      0.00      7.89           RANKING
   2      2     91       -7.43      1.58      8.60           RANKING
   3      1     62       -8.84      0.00     21.56           RANKING
   3      2     93       -8.57      0.49     21.65           RANKING
   3      3     74       -8.33      0.85     21.55           RANKING
   3      4     25       -8.18      0.62     21.59           RANKING
   4      1     55       -8.34      0.00      7.67           RANKING
   4      2     12       -7.23      1.16      8.24           RANKING
   5      1     34       -8.27      0.00     39.11           RANKING
   6      1     54       -7.91      0.00     18.17           RANKING
   7      1     13       -7.85      0.00     15.22           RANKING
   8      1    100       -7.85      0.00     16.72           RANKING
   9      1     39       -7.68      0.00     23.77           RANKING
  10      1     60       -7.52      0.00     18.76           RANKING
  11      1     37       -7.24      0.00      8.78           RANKING
  12      1     68       -7.11      0.00     37.43           RANKING
  13      1      3       -7.07      0.00     17.84           RANKING
  14      1     73       -6.87      0.00     21.10           RANKING
  15      1     87       -6.83      0.00     38.23           RANKING
  15      2     31       -6.80      1.71     37.39           RANKING
  15      3     49       -6.52      1.36     38.36           RANKING
  16      1     14       -6.80      0.00     35.35           RANKING
  17      1     40       -6.75      0.00     40.69           RANKING
  17      2     88       -5.49      1.32     41.61           RANKING
  18      1     95       -6.65      0.00     17.72           RANKING
  19      1     97       -6.61      0.00     15.27           RANKING
  20      1     85       -6.60      0.00      9.20           RANKING
  20      2     38       -4.87      1.42      9.47           RANKING
  21      1     33       -6.46      0.00     34.10           RANKING
  22      1     43       -6.33      0.00     20.24           RANKING
  22      2     17       -5.59      1.32     20.55           RANKING
  23      1     69       -6.30      0.00     20.70           RANKING
  24      1     21       -6.22      0.00     37.61           RANKING
  25      1     44       -6.01      0.00     18.80           RANKING
  26      1     15       -5.94      0.00     17.67           RANKING
  26      2     86       -5.10      1.71     16.99           RANKING
  27      1     64       -5.89      0.00     21.92           RANKING
  28      1     77       -5.76      0.00     14.04           RANKING
  28      2     99       -4.91      1.98     13.65           RANKING
  29      1     59       -5.75      0.00     38.23           RANKING
  29      2     30       -5.48      1.63     38.61           RANKING
  29      3     50       -3.91      1.62     38.65           RANKING
  30      1     89       -5.75      0.00     21.00           RANKING
  31      1     90       -5.73      0.00     19.96           RANKING
  31      2      9       -4.41      1.29     20.47           RANKING
  32      1     10       -5.71      0.00     10.64           RANKING
  33      1     47       -5.64      0.00     38.84           RANKING
  34      1     42       -5.52      0.00     28.50           RANKING
  35      1     83       -5.48      0.00     22.43           RANKING
  35      2     19       -5.24      1.03     22.38           RANKING
  36      1     58       -5.38      0.00     17.70           RANKING
  37      1     18       -5.18      0.00     41.46           RANKING
  38      1     66       -5.10      0.00     14.04           RANKING
  39      1     75       -5.09      0.00     39.55           RANKING
  40      1     53       -4.99      0.00     36.64           RANKING
  41      1     20       -4.85      0.00     40.54           RANKING
  41      2     32       -4.82      0.74     40.40           RANKING
  42      1     52       -4.82      0.00     27.34           RANKING
  43      1     92       -4.66      0.00     28.59           RANKING
  44      1     29       -4.64      0.00     32.75           RANKING
  45      1     35       -4.56      0.00     28.32           RANKING
  46      1     23       -4.56      0.00     32.74           RANKING
  47      1      8       -4.45      0.00     15.59           RANKING
  48      1     96       -4.44      0.00     46.41           RANKING
  49      1     36       -4.44      0.00     29.59           RANKING
  50      1     46       -4.41      0.00     26.30           RANKING
  51      1     65       -4.35      0.00     23.10           RANKING
  52      1     27       -4.35      0.00     25.19           RANKING
  53      1     41       -4.32      0.00     20.39           RANKING
  53      2     67       -4.11      0.79     20.50           RANKING
  54      1     71       -4.23      0.00     27.54           RANKING
  55      1     78       -4.22      0.00     39.88           RANKING
  56      1     57       -4.05      0.00     15.85           RANKING
  56      2     98       -3.44      1.63     15.94           RANKING
  57      1      2       -3.93      0.00     30.34           RANKING
  58      1      5       -3.89      0.00     10.20           RANKING
  59      1      1       -3.77      0.00     21.62           RANKING
  60      1      6       -3.60      0.00     14.37           RANKING
  61      1     76       -3.57      0.00     21.01           RANKING
  62      1     84       -3.53      0.00     21.86           RANKING
  63      1     24       -3.52      0.00     28.33           RANKING
  64      1     22       -3.47      0.00     43.25           RANKING
  65      1     61       -3.47      0.00     30.78           RANKING
  66      1     11       -3.47      0.00     16.08           RANKING
  67      1      7       -3.39      0.00     29.81           RANKING
  68      1     94       -3.38      0.00     14.83           RANKING
  69      1     51       -3.35      0.00     40.53           RANKING
  70      1     82       -3.32      0.00     41.98           RANKING
  71      1     80       -3.30      0.00     26.43           RANKING
  72      1     70       -3.27      0.00     41.53           RANKING
  73      1     56       -3.12      0.00     40.48           RANKING
  74      1     16       -3.07      0.00     43.86           RANKING
  75      1     81       -2.67      0.00     41.07           RANKING
  76      1     63       -2.66      0.00     24.29           RANKING
  77      1     45       -2.35      0.00     27.73           RANKING
  78      1     48       -2.31      0.00     33.85           RANKING
_______________________________________________________________________



	INFORMATION ENTROPY ANALYSIS FOR THIS CLUSTERING
	________________________________________________


Information entropy for this clustering = 0.93  (rmstol = 2.00 Angstrom)

_______________________________________________________________________


	STATISTICAL MECHANICAL ANALYSIS
	_______________________________


Partition function, Q =   100.93            at Temperature, T = 298.15 K
Free energy,        A ~ -2733.94 kcal/mol   at Temperature, T = 298.15 K
Internal energy,    U =    -5.46 kcal/mol   at Temperature, T = 298.15 K
Entropy,            S =     9.15 kcal/mol/K at Temperature, T = 298.15 K

_______________________________________________________________________


	LOWEST ENERGY DOCKED CONFORMATION from EACH CLUSTER
	___________________________________________________



Keeping original residue number (specified in the input PDBQ file) for outputting.

MODEL       26
USER    Run = 26
USER    Cluster Rank = 1
USER    Number of conformations in this cluster = 4
USER  
USER    RMSD from reference structure       = 31.520 A
USER  
USER    Estimated Free Energy of Binding    =   -9.32 kcal/mol  [=(1)+(2)+(3)-(4)]
USER    Estimated Inhibition Constant, Ki   =  147.05 nM (nanomolar)  [Temperature = 298.15 K]
USER    
USER    (1) Final Intermolecular Energy     =  -13.20 kcal/mol
USER        vdW + Hbond + desolv Energy     =  -13.00 kcal/mol
USER        Electrostatic Energy            =   -0.20 kcal/mol
USER    (2) Final Total Internal Energy     =   -3.27 kcal/mol
USER    (3) Torsional Free Energy           =   +3.88 kcal/mol
USER    (4) Unbound System's Energy  [=(2)] =   -3.27 kcal/mol
USER    
USER    
USER  
USER    DPF = D:/Protein_go_brrr/autodock/final/1A3N/heme/dock.dpf
USER    NEWDPF move	heme_opt.pdbqt
USER    NEWDPF about	0.153000 0.018000 -0.028000
USER    NEWDPF tran0	7.603256 12.315760 29.548816
USER    NEWDPF axisangle0	0.386101 -0.922416 0.008634 99.744511
USER    NEWDPF quaternion0	0.295217 -0.705288 0.006602 0.644494
USER    NEWDPF dihe0	-63.58 -173.01 -102.82 72.33 -136.20 43.19 129.35 83.48 -117.78 -23.39 -38.31 -114.86 20.51 
USER  
USER                              x       y       z    vdW   Elec        q     RMS 
ATOM      1  O   UNL d   1       7.478  16.335  33.860 -0.27 -0.29    -0.289    31.520
ATOM      2  O   UNL d   1       8.125   8.858  34.110 -0.49 -0.13    -0.289    31.520
ATOM      3  N   UNL d   1       7.365  14.355  31.038 -0.18 -0.09    -0.247    31.520
ATOM      4  N   UNL d   1       8.000  11.645  32.080 -0.14 -0.10    -0.247    31.520
ATOM      5  N   UNL d   1       8.399  10.796  29.362 -0.18 -0.08    -0.354    31.520
ATOM      6  N   UNL d   1       7.758  13.614  28.292 -0.14 -0.04    -0.354    31.520
ATOM      7  C   UNL d   1       7.394  16.770  31.456 -0.23 +0.03    +0.084    31.520
ATOM      8  C   UNL d   1       7.472  11.196  34.423 -0.26 +0.05    +0.084    31.520
ATOM      9  C   UNL d   1       7.554  12.193  33.262 -0.24 +0.03    +0.058    31.520
ATOM     10  C   UNL d   1       7.358  15.611  30.455 -0.30 +0.02    +0.058    31.520
ATOM     11  C   UNL d   1       7.404  15.946  32.709 -0.17 +0.13    +0.193    31.520
ATOM     12  C   UNL d   1       7.357  14.500  32.323 -0.24 +0.07    +0.109    31.520
ATOM     13  C   UNL d   1       7.990   9.990  33.690 -0.30 +0.09    +0.193    31.520
ATOM     14  C   UNL d   1       8.703  17.560  31.373 +0.19 +0.01    +0.026    31.520
ATOM     15  C   UNL d   1       7.265  13.496  33.402 -0.27 +0.05    +0.055    31.520
ATOM     16  C   UNL d   1       6.023  10.932  34.844 -0.26 +0.02    +0.026    31.520
ATOM     17  C   UNL d   1       8.280  10.398  32.282 -0.32 +0.04    +0.109    31.520
ATOM     18  C   UNL d   1       7.238  15.828  29.132 -0.37 +0.01    +0.050    31.520
ATOM     19  C   UNL d   1       7.113  14.821  28.141 -0.39 +0.01    +0.045    31.520
ATOM     20  C   UNL d   1       8.879   9.696  30.026 -0.37 +0.01    +0.045    31.520
ATOM     21  C   UNL d   1       8.844   9.426  31.334 -0.37 +0.02    +0.057    31.520
ATOM     22  C   UNL d   1       9.300   9.453  27.793 -0.42 -0.00    -0.019    31.520
ATOM     23  C   UNL d   1       8.607  10.740  28.010 -0.32 +0.01    +0.045    31.520
ATOM     24  C   UNL d   1       9.456   8.840  28.990 -0.42 -0.00    -0.022    31.520
ATOM     25  C   UNL d   1       7.574  12.826  27.179 -0.26 +0.00    +0.049    31.520
ATOM     26  C   UNL d   1       6.463  14.802  26.917 -0.43 -0.00    -0.018    31.520
ATOM     27  C   UNL d   1       6.742  13.533  26.322 -0.39 +0.00    +0.003    31.520
ATOM     28  C   UNL d   1       8.273  11.597  27.033 -0.08 +0.00    +0.052    31.520
ATOM     29  C   UNL d   1      10.084   7.520  29.287 -0.35 +0.01    +0.046    31.520
ATOM     30  C   UNL d   1       5.631  15.894  26.334 -0.38 +0.00    +0.046    31.520
ATOM     31  H   UNL d   1       7.877  11.517  29.848 +0.09 +0.04    +0.166    31.520
ATOM     32  H   UNL d   1       8.320  13.376  29.100 +0.07 +0.03    +0.166    31.520
ATOM     33  C   UNL d   1       6.175  17.697  31.431 -0.23 +0.05    +0.141    31.520
ATOM     34  C   UNL d   1       6.112  18.539  30.185 -0.21 +0.05    +0.306    31.520
ATOM     35  O   UNL d   1       6.717  19.579  29.988 -0.17 -0.03    -0.251    31.520
ATOM     36  O   UNL d   1       5.292  18.024  29.253 -0.14 -0.01    -0.481    31.520
ATOM     37  H   UNL d   1       4.559  18.672  29.184 -0.17 -0.04    +0.295    31.520
ATOM     38  C   UNL d   1       6.274  13.102  25.040 -0.41 +0.00    +0.017    31.520
ATOM     39  C   UNL d   1       7.006  13.080  23.916 -0.38 +0.00    +0.092    31.520
ATOM     40  C   UNL d   1       6.412  12.598  22.666 -0.23 +0.01    +0.330    31.520
ATOM     41  O   UNL d   1       5.294  12.818  22.241 -0.31 -0.01    -0.246    31.520
ATOM     42  O   UNL d   1       7.297  11.846  21.994 -0.15 -0.01    -0.477    31.520
ATOM     43  H   UNL d   1       8.049  11.758  22.614 +0.22 +0.01    +0.295    31.520
ATOM     44  C   UNL d   1       8.351  11.521  35.635 -0.16 +0.10    +0.141    31.520
ATOM     45  C   UNL d   1       9.816  11.279  35.389 -0.13 +0.29    +0.306    31.520
ATOM     46  O   UNL d   1      10.605  12.055  34.877 -0.65 -0.33    -0.251    31.520
ATOM     47  O   UNL d   1      10.208  10.053  35.778 -0.23 -0.48    -0.481    31.520
ATOM     48  H   UNL d   1       9.876   9.452  35.077 +0.15 +0.24    +0.295    31.520
ATOM     49  C   UNL d   1       9.752   8.955  26.452 -0.37 +0.01    +0.048    31.520
ATOM     50  C   UNL d   1       8.575   8.727  25.504 -0.41 +0.01    +0.125    31.520
ATOM     51  C   UNL d   1       8.935   9.120  24.099 -0.36 +0.02    +0.305    31.520
ATOM     52  O   UNL d   1       9.612   8.494  23.302 -0.51 -0.02    -0.251    31.520
ATOM     53  O   UNL d   1       8.419  10.319  23.763 -0.15 -0.03    -0.481    31.520
ATOM     54  H   UNL d   1       7.702  10.102  23.131 +0.22 +0.02    +0.295    31.520
TER
ENDMDL
MODEL       28
USER    Run = 28
USER    Cluster Rank = 2
USER    Number of conformations in this cluster = 2
USER  
USER    RMSD from reference structure       = 7.894 A
USER  
USER    Estimated Free Energy of Binding    =   -8.95 kcal/mol  [=(1)+(2)+(3)-(4)]
USER    Estimated Inhibition Constant, Ki   =  275.43 nM (nanomolar)  [Temperature = 298.15 K]
USER    
USER    (1) Final Intermolecular Energy     =  -12.83 kcal/mol
USER        vdW + Hbond + desolv Energy     =  -12.64 kcal/mol
USER        Electrostatic Energy            =   -0.18 kcal/mol
USER    (2) Final Total Internal Energy     =   -2.32 kcal/mol
USER    (3) Torsional Free Energy           =   +3.88 kcal/mol
USER    (4) Unbound System's Energy  [=(2)] =   -2.32 kcal/mol
USER    
USER    
USER  
USER    DPF = D:/Protein_go_brrr/autodock/final/1A3N/heme/dock.dpf
USER    NEWDPF move	heme_opt.pdbqt
USER    NEWDPF about	0.153000 0.018000 -0.028000
USER    NEWDPF tran0	4.049838 -5.064221 -6.130874
USER    NEWDPF axisangle0	-0.893328 -0.433687 0.117817 -98.825513
USER    NEWDPF quaternion0	-0.678408 -0.329349 0.089472 -0.650605
USER    NEWDPF dihe0	174.51 99.87 114.80 138.27 -150.10 -92.19 -55.12 -7.51 14.05 -132.15 -59.81 178.56 168.44 
USER  
USER                              x       y       z    vdW   Elec        q     RMS 
ATOM      1  O   UNL d   1      -0.052  -7.584  -9.534 -0.41 -0.34    -0.289     7.894
ATOM      2  O   UNL d   1       1.279  -8.169  -2.167 -0.24 -0.01    -0.289     7.894
ATOM      3  N   UNL d   1       2.589  -6.000  -7.981 -0.16 -0.08    -0.247     7.894
ATOM      4  N   UNL d   1       2.123  -6.561  -5.100 -0.24 -0.06    -0.247     7.894
ATOM      5  N   UNL d   1       4.073  -4.539  -4.487 -0.20 -0.04    -0.354     7.894
ATOM      6  N   UNL d   1       4.536  -3.950  -7.477 -0.16 -0.03    -0.354     7.894
ATOM      7  C   UNL d   1       1.644  -5.972 -10.242 -0.13 +0.05    +0.084     7.894
ATOM      8  C   UNL d   1       0.862  -8.578  -4.544 -0.32 +0.01    +0.084     7.894
ATOM      9  C   UNL d   1       1.402  -7.618  -5.609 -0.23 +0.02    +0.058     7.894
ATOM     10  C   UNL d   1       2.695  -5.462  -9.253 -0.19 +0.02    +0.058     7.894
ATOM     11  C   UNL d   1       0.935  -6.908  -9.310 -0.14 +0.16    +0.193     7.894
ATOM     12  C   UNL d   1       1.618  -6.854  -7.978 -0.12 +0.06    +0.109     7.894
ATOM     13  C   UNL d   1       1.380  -7.850  -3.335 -0.17 +0.01    +0.193     7.894
ATOM     14  C   UNL d   1       0.673  -4.869 -10.669 -0.24 +0.02    +0.026     7.894
ATOM     15  C   UNL d   1       1.147  -7.768  -6.918 -0.21 +0.02    +0.055     7.894
ATOM     16  C   UNL d   1       1.540  -9.950  -4.620 -0.36 +0.00    +0.026     7.894
ATOM     17  C   UNL d   1       2.119  -6.642  -3.809 -0.11 +0.01    +0.109     7.894
ATOM     18  C   UNL d   1       3.682  -4.632  -9.641 -0.20 +0.01    +0.050     7.894
ATOM     19  C   UNL d   1       4.744  -4.176  -8.819 -0.25 +0.00    +0.045     7.894
ATOM     20  C   UNL d   1       3.568  -4.767  -3.233 -0.37 +0.00    +0.045     7.894
ATOM     21  C   UNL d   1       2.704  -5.707  -2.836 -0.21 +0.00    +0.057     7.894
ATOM     22  C   UNL d   1       4.994  -2.985  -3.141 -0.49 -0.00    -0.019     7.894
ATOM     23  C   UNL d   1       4.943  -3.482  -4.531 -0.45 +0.00    +0.045     7.894
ATOM     24  C   UNL d   1       4.179  -3.750  -2.378 -0.42 -0.00    -0.022     7.894
ATOM     25  C   UNL d   1       5.667  -3.427  -6.894 -0.47 +0.00    +0.049     7.894
ATOM     26  C   UNL d   1       6.054  -3.826  -9.108 -0.30 -0.00    -0.018     7.894
ATOM     27  C   UNL d   1       6.638  -3.373  -7.885 -0.48 -0.00    +0.003     7.894
ATOM     28  C   UNL d   1       5.648  -2.966  -5.550 -0.43 +0.00    +0.052     7.894
ATOM     29  C   UNL d   1       3.904  -3.649  -0.916 -0.47 +0.00    +0.046     7.894
ATOM     30  C   UNL d   1       6.725  -3.909 -10.437 -0.21 +0.00    +0.046     7.894
ATOM     31  H   UNL d   1       3.863  -5.161  -5.260 +0.10 +0.02    +0.166     7.894
ATOM     32  H   UNL d   1       3.651  -4.113  -7.012 +0.10 +0.03    +0.166     7.894
ATOM     33  C   UNL d   1       2.195  -6.735 -11.452 -0.05 +0.05    +0.141     7.894
ATOM     34  C   UNL d   1       2.937  -7.984 -11.061 -0.05 +0.07    +0.306     7.894
ATOM     35  O   UNL d   1       4.143  -8.090 -10.914 -0.08 -0.04    -0.251     7.894
ATOM     36  O   UNL d   1       2.119  -9.035 -10.872 -0.00 -0.12    -0.481     7.894
ATOM     37  H   UNL d   1       1.216  -8.656 -10.919 +0.04 +0.11    +0.295     7.894
ATOM     38  C   UNL d   1       7.981  -2.901  -7.737 -0.43 -0.00    +0.017     7.894
ATOM     39  C   UNL d   1       8.660  -2.196  -8.655 -0.39 -0.00    +0.092     7.894
ATOM     40  C   UNL d   1      10.028  -1.755  -8.373 -0.20 -0.01    +0.330     7.894
ATOM     41  O   UNL d   1      10.386  -0.686  -7.918 -0.30 -0.04    -0.246     7.894
ATOM     42  O   UNL d   1      10.899  -2.728  -8.683 -0.09 +0.07    -0.477     7.894
ATOM     43  H   UNL d   1      10.859  -3.333  -7.914 -0.27 -0.18    +0.295     7.894
ATOM     44  C   UNL d   1      -0.663  -8.716  -4.490 -0.29 +0.03    +0.141     7.894
ATOM     45  C   UNL d   1      -1.135  -9.703  -3.457 -0.29 +0.01    +0.306     7.894
ATOM     46  O   UNL d   1      -1.471 -10.858  -3.654 -0.26 -0.00    -0.251     7.894
ATOM     47  O   UNL d   1      -1.184  -9.171  -2.222 -0.19 +0.00    -0.481     7.894
ATOM     48  H   UNL d   1      -0.249  -8.983  -1.995 +0.19 +0.01    +0.295     7.894
ATOM     49  C   UNL d   1       5.815  -1.810  -2.697 -0.48 +0.00    +0.048     7.894
ATOM     50  C   UNL d   1       5.080  -0.488  -2.914 -0.12 +0.00    +0.125     7.894
ATOM     51  C   UNL d   1       4.912   0.252  -1.617 -0.43 -0.01    +0.305     7.894
ATOM     52  O   UNL d   1       5.070  -0.181  -0.489 -0.44 +0.00    -0.251     7.894
ATOM     53  O   UNL d   1       4.530   1.530  -1.811 -0.20 +0.05    -0.481     7.894
ATOM     54  H   UNL d   1       5.079   1.831  -2.565 -0.15 -0.09    +0.295     7.894
TER
ENDMDL
MODEL       62
USER    Run = 62
USER    Cluster Rank = 3
USER    Number of conformations in this cluster = 4
USER  
USER    RMSD from reference structure       = 21.560 A
USER  
USER    Estimated Free Energy of Binding    =   -8.84 kcal/mol  [=(1)+(2)+(3)-(4)]
USER    Estimated Inhibition Constant, Ki   =  330.76 nM (nanomolar)  [Temperature = 298.15 K]
USER    
USER    (1) Final Intermolecular Energy     =  -12.72 kcal/mol
USER        vdW + Hbond + desolv Energy     =  -12.07 kcal/mol
USER        Electrostatic Energy            =   -0.65 kcal/mol
USER    (2) Final Total Internal Energy     =   -2.05 kcal/mol
USER    (3) Torsional Free Energy           =   +3.88 kcal/mol
USER    (4) Unbound System's Energy  [=(2)] =   -2.05 kcal/mol
USER    
USER    
USER  
USER    DPF = D:/Protein_go_brrr/autodock/final/1A3N/heme/dock.dpf
USER    NEWDPF move	heme_opt.pdbqt
USER    NEWDPF about	0.153000 0.018000 -0.028000
USER    NEWDPF tran0	16.393602 7.063411 16.099291
USER    NEWDPF axisangle0	-0.195205 -0.136151 0.971266 174.376213
USER    NEWDPF quaternion0	-0.194970 -0.135988 0.970097 0.049057
USER    NEWDPF dihe0	-117.14 49.17 137.82 18.35 67.27 24.58 -38.32 -80.45 21.90 -138.58 66.19 165.54 -5.11 
USER  
USER                              x       y       z    vdW   Elec        q     RMS 
ATOM      1  O   UNL d   1      21.565   5.498  18.458 -0.26 +0.05    -0.289    21.560
ATOM      2  O   UNL d   1      18.694  12.266  16.925 -0.17 -0.02    -0.289    21.560
ATOM      3  N   UNL d   1      18.504   5.926  16.928 -0.16 -0.01    -0.247    21.560
ATOM      4  N   UNL d   1      18.098   8.868  17.021 +0.01 -0.06    -0.247    21.560
ATOM      5  N   UNL d   1      15.347   8.418  16.319 -0.11 -0.10    -0.354    21.560
ATOM      6  N   UNL d   1      15.771   5.366  16.244 -0.17 -0.13    -0.354    21.560
ATOM      7  C   UNL d   1      19.752   4.001  17.789 -0.31 -0.07    +0.084    21.560
ATOM      8  C   UNL d   1      20.098  10.269  17.113 -0.20 +0.03    +0.084    21.560
ATOM      9  C   UNL d   1      19.471   8.871  17.132 -0.21 +0.01    +0.058    21.560
ATOM     10  C   UNL d   1      18.493   4.554  17.116 -0.32 -0.03    +0.058    21.560
ATOM     11  C   UNL d   1      20.485   5.301  17.932 -0.26 -0.06    +0.193    21.560
ATOM     12  C   UNL d   1      19.636   6.388  17.349 -0.25 -0.00    +0.109    21.560
ATOM     13  C   UNL d   1      18.824  11.060  17.009 -0.16 +0.03    +0.193    21.560
ATOM     14  C   UNL d   1      19.460   3.442  19.184 -0.35 -0.05    +0.026    21.560
ATOM     15  C   UNL d   1      20.195   7.753  17.294 -0.31 +0.01    +0.055    21.560
ATOM     16  C   UNL d   1      20.927  10.503  15.846 -0.21 +0.01    +0.026    21.560
ATOM     17  C   UNL d   1      17.685  10.094  16.970 -0.18 +0.02    +0.109    21.560
ATOM     18  C   UNL d   1      17.516   3.739  16.674 -0.35 -0.03    +0.050    21.560
ATOM     19  C   UNL d   1      16.358   4.152  15.968 -0.27 +0.01    +0.045    21.560
ATOM     20  C   UNL d   1      15.295   9.752  16.631 -0.29 +0.01    +0.045    21.560
ATOM     21  C   UNL d   1      16.301  10.586  16.912 -0.22 +0.00    +0.057    21.560
ATOM     22  C   UNL d   1      13.170   8.995  16.272 -0.38 -0.00    -0.019    21.560
ATOM     23  C   UNL d   1      14.112   7.873  16.086 -0.26 +0.01    +0.045    21.560
ATOM     24  C   UNL d   1      13.877  10.105  16.593 -0.42 -0.00    -0.022    21.560
ATOM     25  C   UNL d   1      14.617   5.522  15.512 -0.29 +0.03    +0.049    21.560
ATOM     26  C   UNL d   1      15.586   3.519  15.005 -0.22 -0.01    -0.018    21.560
ATOM     27  C   UNL d   1      14.499   4.398  14.707 -0.26 +0.00    +0.003    21.560
ATOM     28  C   UNL d   1      13.753   6.627  15.742 -0.40 +0.02    +0.052    21.560
ATOM     29  C   UNL d   1      13.377  11.483  16.864 -0.46 +0.00    +0.046    21.560
ATOM     30  C   UNL d   1      15.842   2.182  14.396 -0.18 +0.01    +0.046    21.560
ATOM     31  H   UNL d   1      16.233   7.939  16.203 +0.07 +0.07    +0.166    21.560
ATOM     32  H   UNL d   1      16.133   6.021  16.927 +0.07 +0.02    +0.166    21.560
ATOM     33  C   UNL d   1      20.568   3.013  16.947 -0.09 -0.09    +0.141    21.560
ATOM     34  C   UNL d   1      21.251   3.673  15.780 -0.11 -0.05    +0.306    21.560
ATOM     35  O   UNL d   1      22.450   3.685  15.560 -0.18 +0.04    -0.251    21.560
ATOM     36  O   UNL d   1      20.385   4.282  14.950 -0.03 -0.08    -0.481    21.560
ATOM     37  H   UNL d   1      19.941   4.956  15.507 +0.13 +0.06    +0.295    21.560
ATOM     38  C   UNL d   1      13.450   4.125  13.772 -0.27 +0.01    +0.017    21.560
ATOM     39  C   UNL d   1      13.079   2.903  13.358 -0.18 +0.08    +0.092    21.560
ATOM     40  C   UNL d   1      11.975   2.759  12.407 -0.00 +0.27    +0.330    21.560
ATOM     41  O   UNL d   1      11.551   3.591  11.627 -0.16 -0.08    -0.246    21.560
ATOM     42  O   UNL d   1      11.454   1.525  12.488 -0.48 -0.59    -0.477    21.560
ATOM     43  H   UNL d   1      11.412   1.225  11.557 +0.10 +0.05    +0.295    21.560
ATOM     44  C   UNL d   1      20.884  10.658  18.370 -0.40 +0.05    +0.141    21.560
ATOM     45  C   UNL d   1      21.639  11.952  18.222 -0.27 +0.13    +0.306    21.560
ATOM     46  O   UNL d   1      22.730  12.101  17.699 -0.75 -0.21    -0.251    21.560
ATOM     47  O   UNL d   1      20.987  12.993  18.770 -0.20 -0.07    -0.481    21.560
ATOM     48  H   UNL d   1      20.053  12.872  18.497 +0.03 +0.01    +0.295    21.560
ATOM     49  C   UNL d   1      11.681   8.876  16.134 -0.47 +0.01    +0.048    21.560
ATOM     50  C   UNL d   1      11.222   9.112  14.695 -0.27 +0.03    +0.125    21.560
ATOM     51  C   UNL d   1      10.417  10.376  14.589 -0.23 +0.05    +0.305    21.560
ATOM     52  O   UNL d   1       9.220  10.512  14.767 -0.35 -0.03    -0.251    21.560
ATOM     53  O   UNL d   1      11.181  11.432  14.243 -0.16 -0.07    -0.481    21.560
ATOM     54  H   UNL d   1      10.638  12.210  14.489 -0.23 +0.03    +0.295    21.560
TER
ENDMDL
MODEL       55
USER    Run = 55
USER    Cluster Rank = 4
USER    Number of conformations in this cluster = 2
USER  
USER    RMSD from reference structure       = 7.668 A
USER  
USER    Estimated Free Energy of Binding    =   -8.34 kcal/mol  [=(1)+(2)+(3)-(4)]
USER    Estimated Inhibition Constant, Ki   =  776.74 nM (nanomolar)  [Temperature = 298.15 K]
USER    
USER    (1) Final Intermolecular Energy     =  -12.21 kcal/mol
USER        vdW + Hbond + desolv Energy     =  -12.08 kcal/mol
USER        Electrostatic Energy            =   -0.13 kcal/mol
USER    (2) Final Total Internal Energy     =   -2.96 kcal/mol
USER    (3) Torsional Free Energy           =   +3.88 kcal/mol
USER    (4) Unbound System's Energy  [=(2)] =   -2.96 kcal/mol
USER    
USER    
USER  
USER    DPF = D:/Protein_go_brrr/autodock/final/1A3N/heme/dock.dpf
USER    NEWDPF move	heme_opt.pdbqt
USER    NEWDPF about	0.153000 0.018000 -0.028000
USER    NEWDPF tran0	1.718572 -6.659517 -4.982498
USER    NEWDPF axisangle0	0.280241 -0.734667 0.617843 137.104801
USER    NEWDPF quaternion0	0.260835 -0.683793 0.575059 0.365650
USER    NEWDPF dihe0	129.91 167.06 -157.94 50.03 -44.57 -38.28 -76.61 107.31 -15.78 -157.94 -28.17 -51.08 11.22 
USER  
USER                              x       y       z    vdW   Elec        q     RMS 
ATOM      1  O   UNL d   1       5.692  -2.342  -5.557 +0.07 -0.03    -0.289     7.668
ATOM      2  O   UNL d   1       1.731  -4.635   0.397 -0.21 -0.02    -0.289     7.668
ATOM      3  N   UNL d   1       3.347  -4.865  -5.732 -0.33 -0.05    -0.247     7.668
ATOM      4  N   UNL d   1       2.553  -5.259  -2.896 -0.43 -0.03    -0.247     7.668
ATOM      5  N   UNL d   1       1.289  -7.717  -3.688 -0.17 -0.04    -0.354     7.668
ATOM      6  N   UNL d   1       2.133  -7.310  -6.624 -0.13 -0.10    -0.354     7.668
ATOM      7  C   UNL d   1       4.983  -3.913  -7.290 -0.37 +0.01    +0.084     7.668
ATOM      8  C   UNL d   1       2.802  -3.351  -1.390 -0.35 +0.01    +0.084     7.668
ATOM      9  C   UNL d   1       3.020  -3.969  -2.775 -0.38 +0.01    +0.058     7.668
ATOM     10  C   UNL d   1       3.878  -4.937  -7.009 -0.32 +0.01    +0.058     7.668
ATOM     11  C   UNL d   1       4.968  -3.238  -5.951 -0.35 +0.02    +0.193     7.668
ATOM     12  C   UNL d   1       3.917  -3.888  -5.106 -0.38 +0.02    +0.109     7.668
ATOM     13  C   UNL d   1       2.160  -4.541  -0.736 -0.25 +0.01    +0.193     7.668
ATOM     14  C   UNL d   1       6.346  -4.580  -7.493 -0.24 +0.00    +0.026     7.668
ATOM     15  C   UNL d   1       3.656  -3.325  -3.766 -0.42 +0.01    +0.055     7.668
ATOM     16  C   UNL d   1       1.786  -2.205  -1.433 -0.47 +0.00    +0.026     7.668
ATOM     17  C   UNL d   1       2.074  -5.633  -1.753 -0.27 +0.01    +0.109     7.668
ATOM     18  C   UNL d   1       3.423  -5.761  -7.971 -0.28 +0.01    +0.050     7.668
ATOM     19  C   UNL d   1       2.351  -6.679  -7.828 -0.24 +0.02    +0.045     7.668
ATOM     20  C   UNL d   1       1.215  -7.842  -2.325 -0.35 +0.00    +0.045     7.668
ATOM     21  C   UNL d   1       1.524  -6.945  -1.383 -0.35 +0.00    +0.057     7.668
ATOM     22  C   UNL d   1       0.515  -9.793  -3.284 -0.37 -0.00    -0.019     7.668
ATOM     23  C   UNL d   1       0.888  -8.845  -4.353 -0.34 +0.01    +0.045     7.668
ATOM     24  C   UNL d   1       0.710  -9.194  -2.086 -0.42 -0.00    -0.022     7.668
ATOM     25  C   UNL d   1       1.106  -8.219  -6.734 -0.25 +0.02    +0.049     7.668
ATOM     26  C   UNL d   1       1.419  -7.162  -8.733 -0.22 -0.01    -0.018     7.668
ATOM     27  C   UNL d   1       0.623  -8.120  -8.032 -0.23 +0.00    +0.003     7.668
ATOM     28  C   UNL d   1       0.799  -9.105  -5.666 -0.33 +0.01    +0.052     7.668
ATOM     29  C   UNL d   1       0.467  -9.738  -0.720 -0.46 +0.00    +0.046     7.668
ATOM     30  C   UNL d   1       1.273  -6.760 -10.161 -0.16 +0.03    +0.046     7.668
ATOM     31  H   UNL d   1       1.543  -6.836  -4.122 +0.07 +0.03    +0.166     7.668
ATOM     32  H   UNL d   1       2.691  -7.144  -5.795 +0.08 +0.03    +0.166     7.668
ATOM     33  C   UNL d   1       4.677  -2.906  -8.403 -0.26 -0.01    +0.141     7.668
ATOM     34  C   UNL d   1       3.213  -2.574  -8.499 -0.20 +0.02    +0.306     7.668
ATOM     35  O   UNL d   1       2.348  -2.894  -7.700 -0.24 -0.05    -0.251     7.668
ATOM     36  O   UNL d   1       2.915  -1.855  -9.595 -0.20 -0.02    -0.481     7.668
ATOM     37  H   UNL d   1       3.534  -1.095  -9.568 -0.37 -0.07    +0.295     7.668
ATOM     38  C   UNL d   1      -0.452  -8.875  -8.601 -0.13 +0.01    +0.017     7.668
ATOM     39  C   UNL d   1      -1.019  -9.956  -8.045 -0.13 +0.04    +0.092     7.668
ATOM     40  C   UNL d   1      -2.128 -10.631  -8.725 -0.07 +0.13    +0.330     7.668
ATOM     41  O   UNL d   1      -3.058 -10.118  -9.318 -0.10 -0.13    -0.246     7.668
ATOM     42  O   UNL d   1      -1.992 -11.962  -8.621 -0.01 -0.09    -0.477     7.668
ATOM     43  H   UNL d   1      -1.074 -12.080  -8.301 +0.04 +0.05    +0.295     7.668
ATOM     44  C   UNL d   1       4.075  -2.936  -0.645 -0.43 +0.01    +0.141     7.668
ATOM     45  C   UNL d   1       3.855  -1.803   0.322 -0.36 +0.01    +0.306     7.668
ATOM     46  O   UNL d   1       4.408  -0.717   0.307 -0.36 -0.00    -0.251     7.668
ATOM     47  O   UNL d   1       2.962  -2.110   1.281 -0.17 -0.00    -0.481     7.668
ATOM     48  H   UNL d   1       2.949  -3.091   1.301 +0.22 +0.01    +0.295     7.668
ATOM     49  C   UNL d   1       0.023 -11.189  -3.531 +0.02 +0.00    +0.048     7.668
ATOM     50  C   UNL d   1      -1.400 -11.200  -4.089 -0.29 +0.00    +0.125     7.668
ATOM     51  C   UNL d   1      -1.640 -12.426  -4.923 -0.12 +0.01    +0.305     7.668
ATOM     52  O   UNL d   1      -2.231 -13.441  -4.599 -0.09 +0.01    -0.251     7.668
ATOM     53  O   UNL d   1      -1.099 -12.314  -6.152 -0.03 -0.04    -0.481     7.668
ATOM     54  H   UNL d   1      -1.826 -12.570  -6.757 +0.06 +0.03    +0.295     7.668
TER
ENDMDL
MODEL       34
USER    Run = 34
USER    Cluster Rank = 5
USER    Number of conformations in this cluster = 1
USER  
USER    RMSD from reference structure       = 39.106 A
USER  
USER    Estimated Free Energy of Binding    =   -8.27 kcal/mol  [=(1)+(2)+(3)-(4)]
USER    Estimated Inhibition Constant, Ki   =  871.45 nM (nanomolar)  [Temperature = 298.15 K]
USER    
USER    (1) Final Intermolecular Energy     =  -12.14 kcal/mol
USER        vdW + Hbond + desolv Energy     =  -11.81 kcal/mol
USER        Electrostatic Energy            =   -0.34 kcal/mol
USER    (2) Final Total Internal Energy     =   -1.87 kcal/mol
USER    (3) Torsional Free Energy           =   +3.88 kcal/mol
USER    (4) Unbound System's Energy  [=(2)] =   -1.87 kcal/mol
USER    
USER    
USER  
USER    DPF = D:/Protein_go_brrr/autodock/final/1A3N/heme/dock.dpf
USER    NEWDPF move	heme_opt.pdbqt
USER    NEWDPF about	0.153000 0.018000 -0.028000
USER    NEWDPF tran0	25.010086 -9.009863 33.492066
USER    NEWDPF axisangle0	-0.841641 0.087042 0.532977 126.623642
USER    NEWDPF quaternion0	-0.751976 0.077769 0.476196 0.449135
USER    NEWDPF dihe0	121.43 -149.22 136.53 125.67 179.89 -136.21 -62.96 -120.04 -19.50 -142.45 -59.82 105.23 -142.74 
USER  
USER                              x       y       z    vdW   Elec        q     RMS 
ATOM      1  O   UNL d   1      22.027  -7.330  38.292 -0.11 -0.06    -0.289    39.106
ATOM      2  O   UNL d   1      23.325  -3.781  31.803 -0.62 -0.06    -0.289    39.106
ATOM      3  N   UNL d   1      23.973  -8.677  35.783 -0.13 -0.10    -0.247    39.106
ATOM      4  N   UNL d   1      23.658  -6.734  33.557 -0.21 -0.04    -0.247    39.106
ATOM      5  N   UNL d   1      24.827  -8.692  31.805 -0.18 -0.04    -0.354    39.106
ATOM      6  N   UNL d   1      25.133 -10.708  34.117 -0.10 -0.09    -0.354    39.106
ATOM      7  C   UNL d   1      23.118  -9.488  37.932 -0.11 +0.03    +0.084    39.106
ATOM      8  C   UNL d   1      23.114  -4.428  34.154 -0.31 +0.01    +0.084    39.106
ATOM      9  C   UNL d   1      23.332  -5.881  34.588 -0.28 +0.01    +0.058    39.106
ATOM     10  C   UNL d   1      23.924  -9.750  36.656 -0.15 +0.02    +0.058    39.106
ATOM     11  C   UNL d   1      22.735  -8.070  37.633 -0.12 +0.06    +0.193    39.106
ATOM     12  C   UNL d   1      23.335  -7.686  36.315 -0.18 +0.04    +0.109    39.106
ATOM     13  C   UNL d   1      23.340  -4.621  32.681 -0.20 +0.04    +0.193    39.106
ATOM     14  C   UNL d   1      21.848 -10.341  37.994 +0.04 +0.00    +0.026    39.106
ATOM     15  C   UNL d   1      23.167  -6.293  35.854 -0.23 +0.01    +0.055    39.106
ATOM     16  C   UNL d   1      24.204  -3.502  34.703 -0.22 +0.00    +0.026    39.106
ATOM     17  C   UNL d   1      23.654  -6.063  32.450 -0.19 +0.01    +0.109    39.106
ATOM     18  C   UNL d   1      24.593 -10.904  36.472 -0.16 +0.02    +0.050    39.106
ATOM     19  C   UNL d   1      25.430 -11.202  35.367 -0.17 +0.02    +0.045    39.106
ATOM     20  C   UNL d   1      24.398  -7.775  30.881 -0.24 +0.00    +0.045    39.106
ATOM     21  C   UNL d   1      23.881  -6.559  31.084 -0.18 +0.00    +0.057    39.106
ATOM     22  C   UNL d   1      25.161  -9.628  29.784 -0.45 -0.00    -0.019    39.106
ATOM     23  C   UNL d   1      25.305  -9.843  31.238 -0.43 +0.00    +0.045    39.106
ATOM     24  C   UNL d   1      24.626  -8.401  29.579 -0.31 -0.00    -0.022    39.106
ATOM     25  C   UNL d   1      26.019 -11.192  33.182 -0.29 +0.01    +0.049    39.106
ATOM     26  C   UNL d   1      26.560 -11.997  35.249 -0.15 -0.01    -0.018    39.106
ATOM     27  C   UNL d   1      26.939 -11.971  33.871 -0.11 +0.00    +0.003    39.106
ATOM     28  C   UNL d   1      25.822 -10.948  31.796 -0.43 +0.00    +0.052    39.106
ATOM     29  C   UNL d   1      24.303  -7.728  28.289 -0.46 +0.00    +0.046    39.106
ATOM     30  C   UNL d   1      27.249 -12.734  36.347 -0.12 +0.01    +0.046    39.106
ATOM     31  H   UNL d   1      24.848  -8.471  32.795 +0.09 +0.03    +0.166    39.106
ATOM     32  H   UNL d   1      24.340 -10.107  33.926 +0.08 +0.04    +0.166    39.106
ATOM     33  C   UNL d   1      23.913  -9.566  39.239 -0.05 +0.05    +0.141    39.106
ATOM     34  C   UNL d   1      25.365  -9.218  39.056 -0.06 +0.26    +0.306    39.106
ATOM     35  O   UNL d   1      26.318  -9.904  39.385 -0.13 -0.24    -0.251    39.106
ATOM     36  O   UNL d   1      25.541  -8.022  38.465 -0.60 -0.66    -0.481    39.106
ATOM     37  H   UNL d   1      25.112  -8.116  37.588 +0.06 +0.32    +0.295    39.106
ATOM     38  C   UNL d   1      28.051 -12.676  33.307 -0.28 -0.00    +0.017    39.106
ATOM     39  C   UNL d   1      29.243 -12.841  33.900 -0.26 +0.00    +0.092    39.106
ATOM     40  C   UNL d   1      30.296 -13.601  33.221 -0.18 -0.06    +0.330    39.106
ATOM     41  O   UNL d   1      31.059 -14.414  33.709 -0.08 +0.05    -0.246    39.106
ATOM     42  O   UNL d   1      30.324 -13.288  31.917 -0.18 +0.15    -0.477    39.106
ATOM     43  H   UNL d   1      30.025 -12.355  31.893 -0.42 -0.15    +0.295    39.106
ATOM     44  C   UNL d   1      21.717  -3.860  34.425 -0.28 +0.02    +0.141    39.106
ATOM     45  C   UNL d   1      21.639  -2.367  34.253 -0.32 +0.03    +0.306    39.106
ATOM     46  O   UNL d   1      21.544  -1.537  35.141 -0.31 -0.02    -0.251    39.106
ATOM     47  O   UNL d   1      21.657  -1.996  32.960 -0.18 -0.05    -0.481    39.106
ATOM     48  H   UNL d   1      22.364  -2.542  32.555 +0.21 +0.03    +0.295    39.106
ATOM     49  C   UNL d   1      25.544 -10.637  28.741 -0.49 -0.00    +0.048    39.106
ATOM     50  C   UNL d   1      24.459 -10.793  27.676 -0.52 +0.00    +0.125    39.106
ATOM     51  C   UNL d   1      24.998 -10.473  26.311 -0.41 -0.00    +0.305    39.106
ATOM     52  O   UNL d   1      24.551  -9.677  25.503 -0.29 -0.01    -0.251    39.106
ATOM     53  O   UNL d   1      26.096 -11.199  26.019 -0.25 +0.02    -0.481    39.106
ATOM     54  H   UNL d   1      26.706 -11.017  26.764 -0.15 -0.06    +0.295    39.106
TER
ENDMDL
MODEL       54
USER    Run = 54
USER    Cluster Rank = 6
USER    Number of conformations in this cluster = 1
USER  
USER    RMSD from reference structure       = 18.168 A
USER  
USER    Estimated Free Energy of Binding    =   -7.91 kcal/mol  [=(1)+(2)+(3)-(4)]
USER    Estimated Inhibition Constant, Ki   =    1.59 uM (micromolar)  [Temperature = 298.15 K]
USER    
USER    (1) Final Intermolecular Energy     =  -11.79 kcal/mol
USER        vdW + Hbond + desolv Energy     =  -10.59 kcal/mol
USER        Electrostatic Energy            =   -1.20 kcal/mol
USER    (2) Final Total Internal Energy     =   -1.08 kcal/mol
USER    (3) Torsional Free Energy           =   +3.88 kcal/mol
USER    (4) Unbound System's Energy  [=(2)] =   -1.08 kcal/mol
USER    
USER    
USER  
USER    DPF = D:/Protein_go_brrr/autodock/final/1A3N/heme/dock.dpf
USER    NEWDPF move	heme_opt.pdbqt
USER    NEWDPF about	0.153000 0.018000 -0.028000
USER    NEWDPF tran0	14.496576 4.378288 14.782158
USER    NEWDPF axisangle0	0.886776 -0.349919 0.301967 164.053895
USER    NEWDPF quaternion0	0.878204 -0.346536 0.299048 0.138707
USER    NEWDPF dihe0	-122.14 81.27 116.77 116.34 -150.54 -15.32 103.76 -135.80 145.06 -31.66 54.41 58.46 158.41 
USER  
USER                              x       y       z    vdW   Elec        q     RMS 
ATOM      1  O   UNL d   1      10.752   7.064  11.106 -0.04 -0.04    -0.289    18.168
ATOM      2  O   UNL d   1      14.519   9.654  17.063 -0.29 -0.02    -0.289    18.168
ATOM      3  N   UNL d   1      12.757   5.056  13.066 -0.11 -0.16    -0.247    18.168
ATOM      4  N   UNL d   1      14.031   6.981  14.936 -0.13 -0.15    -0.247    18.168
ATOM      5  N   UNL d   1      15.885   4.906  15.661 -0.15 -0.23    -0.354    18.168
ATOM      6  N   UNL d   1      14.569   2.921  13.704 -0.06 -0.23    -0.354    18.168
ATOM      7  C   UNL d   1      11.515   4.746  10.975 -0.13 +0.01    +0.084    18.168
ATOM      8  C   UNL d   1      12.821   9.051  15.407 -0.24 +0.02    +0.084    18.168
ATOM      9  C   UNL d   1      12.931   7.744  14.614 -0.20 +0.02    +0.058    18.168
ATOM     10  C   UNL d   1      12.434   4.166  12.054 -0.16 +0.03    +0.058    18.168
ATOM     11  C   UNL d   1      11.359   6.115  11.566 -0.06 +0.05    +0.193    18.168
ATOM     12  C   UNL d   1      12.138   6.169  12.843 -0.12 +0.05    +0.109    18.168
ATOM     13  C   UNL d   1      14.082   8.906  16.211 -0.20 +0.03    +0.193    18.168
ATOM     14  C   UNL d   1      12.221   4.867   9.623 -0.22 -0.00    +0.026    18.168
ATOM     15  C   UNL d   1      12.058   7.401  13.655 -0.17 +0.02    +0.055    18.168
ATOM     16  C   UNL d   1      11.624   9.036  16.362 -0.50 +0.00    +0.026    18.168
ATOM     17  C   UNL d   1      14.726   7.613  15.826 -0.24 +0.04    +0.109    18.168
ATOM     18  C   UNL d   1      12.806   2.872  12.040 -0.20 +0.02    +0.050    18.168
ATOM     19  C   UNL d   1      13.583   2.229  13.037 -0.16 +0.03    +0.045    18.168
ATOM     20  C   UNL d   1      16.474   5.976  16.283 -0.32 +0.02    +0.045    18.168
ATOM     21  C   UNL d   1      16.010   7.222  16.425 -0.29 +0.02    +0.057    18.168
ATOM     22  C   UNL d   1      17.864   4.171  16.446 -0.30 +0.00    -0.019    18.168
ATOM     23  C   UNL d   1      16.650   3.771  15.707 -0.26 +0.01    +0.045    18.168
ATOM     24  C   UNL d   1      17.754   5.477  16.785 -0.34 -0.00    -0.022    18.168
ATOM     25  C   UNL d   1      15.254   2.086  14.556 -0.14 +0.01    +0.049    18.168
ATOM     26  C   UNL d   1      13.604   0.921  13.495 -0.13 -0.01    -0.018    18.168
ATOM     27  C   UNL d   1      14.647   0.841  14.468 -0.13 +0.00    +0.003    18.168
ATOM     28  C   UNL d   1      16.417   2.536  15.238 -0.24 -0.00    +0.052    18.168
ATOM     29  C   UNL d   1      18.714   6.328  17.545 -0.35 -0.00    +0.046    18.168
ATOM     30  C   UNL d   1      12.708  -0.189  13.058 -0.12 +0.03    +0.046    18.168
ATOM     31  H   UNL d   1      14.944   4.967  15.289 +0.06 +0.12    +0.166    18.168
ATOM     32  H   UNL d   1      14.773   3.901  13.543 +0.05 +0.16    +0.166    18.168
ATOM     33  C   UNL d   1      10.151   4.061  10.838 -0.18 -0.01    +0.141    18.168
ATOM     34  C   UNL d   1       9.425   4.463   9.582 -0.12 -0.11    +0.306    18.168
ATOM     35  O   UNL d   1       8.574   5.331   9.488 -0.14 +0.05    -0.251    18.168
ATOM     36  O   UNL d   1       9.812   3.750   8.510 -0.09 +0.50    -0.481    18.168
ATOM     37  H   UNL d   1       9.675   2.815   8.773 -0.29 -0.57    +0.295    18.168
ATOM     38  C   UNL d   1      15.021  -0.342  15.182 -0.16 -0.00    +0.017    18.168
ATOM     39  C   UNL d   1      14.439  -0.783  16.308 -0.19 -0.02    +0.092    18.168
ATOM     40  C   UNL d   1      14.906  -2.023  16.934 -0.05 -0.06    +0.330    18.168
ATOM     41  O   UNL d   1      15.582  -2.900  16.432 -0.70 -0.06    -0.246    18.168
ATOM     42  O   UNL d   1      14.487  -2.084  18.207 -0.35 +0.10    -0.477    18.168
ATOM     43  H   UNL d   1      15.263  -1.788  18.725 -0.41 -0.43    +0.295    18.168
ATOM     44  C   UNL d   1      12.848  10.334  14.570 -0.21 +0.02    +0.141    18.168
ATOM     45  C   UNL d   1      14.239  10.764  14.186 -0.08 +0.05    +0.306    18.168
ATOM     46  O   UNL d   1      15.043  10.122  13.533 -0.05 -0.09    -0.251    18.168
ATOM     47  O   UNL d   1      14.555  11.978  14.671 -0.10 +0.01    -0.481    18.168
ATOM     48  H   UNL d   1      13.931  12.592  14.228 -0.44 -0.09    +0.295    18.168
ATOM     49  C   UNL d   1      19.015   3.252  16.736 -0.19 -0.04    +0.048    18.168
ATOM     50  C   UNL d   1      19.870   3.002  15.493 -0.19 -0.03    +0.125    18.168
ATOM     51  C   UNL d   1      19.994   1.531  15.215 -0.11 -0.12    +0.305    18.168
ATOM     52  O   UNL d   1      20.974   0.932  14.808 -0.18 +0.04    -0.251    18.168
ATOM     53  O   UNL d   1      18.843   0.873  15.457 -0.02 +0.39    -0.481    18.168
ATOM     54  H   UNL d   1      18.706   0.981  16.422 -0.45 -0.61    +0.295    18.168
TER
ENDMDL
MODEL       13
USER    Run = 13
USER    Cluster Rank = 7
USER    Number of conformations in this cluster = 1
USER  
USER    RMSD from reference structure       = 15.217 A
USER  
USER    Estimated Free Energy of Binding    =   -7.85 kcal/mol  [=(1)+(2)+(3)-(4)]
USER    Estimated Inhibition Constant, Ki   =    1.76 uM (micromolar)  [Temperature = 298.15 K]
USER    
USER    (1) Final Intermolecular Energy     =  -11.73 kcal/mol
USER        vdW + Hbond + desolv Energy     =  -11.18 kcal/mol
USER        Electrostatic Energy            =   -0.55 kcal/mol
USER    (2) Final Total Internal Energy     =   -1.05 kcal/mol
USER    (3) Torsional Free Energy           =   +3.88 kcal/mol
USER    (4) Unbound System's Energy  [=(2)] =   -1.05 kcal/mol
USER    
USER    
USER  
USER    DPF = D:/Protein_go_brrr/autodock/final/1A3N/heme/dock.dpf
USER    NEWDPF move	heme_opt.pdbqt
USER    NEWDPF about	0.153000 0.018000 -0.028000
USER    NEWDPF tran0	9.934982 0.111649 13.619345
USER    NEWDPF axisangle0	0.149381 0.921812 -0.357698 -158.900599
USER    NEWDPF quaternion0	0.146856 0.906230 -0.351652 -0.183088
USER    NEWDPF dihe0	97.89 3.42 143.96 -100.94 -100.38 -175.50 133.83 -180.00 22.18 -159.98 0.78 76.93 -170.54 
USER  
USER                              x       y       z    vdW   Elec        q     RMS 
ATOM      1  O   UNL d   1      15.743   0.091  14.631 -0.06 +0.03    -0.289    15.217
ATOM      2  O   UNL d   1      10.024  -2.601  18.686 -0.08 -0.07    -0.289    15.217
ATOM      3  N   UNL d   1      12.446   0.460  13.687 -0.20 -0.32    -0.247    15.217
ATOM      4  N   UNL d   1      10.974  -1.154  15.701 -0.36 -0.30    -0.247    15.217
ATOM      5  N   UNL d   1       8.655  -0.979  14.009 -0.04 -0.32    -0.354    15.217
ATOM      6  N   UNL d   1      10.196   0.678  11.916 -0.10 -0.16    -0.354    15.217
ATOM      7  C   UNL d   1      14.609   0.968  12.651 -0.08 +0.02    +0.084    15.217
ATOM      8  C   UNL d   1      12.033  -1.456  17.882 -0.16 +0.02    +0.084    15.217
ATOM      9  C   UNL d   1      12.111  -0.931  16.444 -0.15 +0.04    +0.058    15.217
ATOM     10  C   UNL d   1      13.080   0.972  12.566 -0.13 +0.03    +0.058    15.217
ATOM     11  C   UNL d   1      14.727   0.381  14.025 -0.05 +0.04    +0.193    15.217
ATOM     12  C   UNL d   1      13.348   0.141  14.557 -0.10 +0.07    +0.109    15.217
ATOM     13  C   UNL d   1      10.655  -2.050  17.805 -0.09 +0.07    +0.193    15.217
ATOM     14  C   UNL d   1      15.238   0.003  11.644 -0.13 +0.00    +0.026    15.217
ATOM     15  C   UNL d   1      13.213  -0.352  15.942 -0.11 +0.03    +0.055    15.217
ATOM     16  C   UNL d   1      12.020  -0.314  18.903 -0.30 +0.00    +0.026    15.217
ATOM     17  C   UNL d   1      10.126  -1.806  16.429 -0.13 +0.08    +0.109    15.217
ATOM     18  C   UNL d   1      12.435   1.517  11.518 -0.23 +0.01    +0.050    15.217
ATOM     19  C   UNL d   1      11.028   1.641  11.392 -0.22 +0.00    +0.045    15.217
ATOM     20  C   UNL d   1       8.215  -1.907  14.917 -0.16 +0.03    +0.045    15.217
ATOM     21  C   UNL d   1       8.803  -2.319  16.045 -0.17 +0.03    +0.057    15.217
ATOM     22  C   UNL d   1       6.674  -1.725  13.242 -0.24 -0.00    -0.019    15.217
ATOM     23  C   UNL d   1       7.791  -0.802  12.962 -0.22 +0.02    +0.045    15.217
ATOM     24  C   UNL d   1       6.930  -2.376  14.401 -0.19 -0.01    -0.022    15.217
ATOM     25  C   UNL d   1       8.884   0.950  11.602 -0.23 +0.01    +0.049    15.217
ATOM     26  C   UNL d   1      10.235   2.582  10.753 -0.21 +0.01    -0.018    15.217
ATOM     27  C   UNL d   1       8.881   2.150  10.905 -0.29 -0.00    +0.003    15.217
ATOM     28  C   UNL d   1       7.855   0.016  11.900 -0.33 +0.01    +0.052    15.217
ATOM     29  C   UNL d   1       6.098  -3.395  15.103 -0.27 +0.01    +0.046    15.217
ATOM     30  C   UNL d   1      10.703   3.808  10.045 -0.25 -0.02    +0.046    15.217
ATOM     31  H   UNL d   1       9.500  -0.442  14.174 +0.06 +0.32    +0.166    15.217
ATOM     32  H   UNL d   1      10.528  -0.133  12.424 +0.04 +0.11    +0.166    15.217
ATOM     33  C   UNL d   1      15.273   2.349  12.597 -0.15 +0.07    +0.141    15.217
ATOM     34  C   UNL d   1      15.022   3.161  13.839 -0.11 +0.21    +0.306    15.217
ATOM     35  O   UNL d   1      13.949   3.309  14.398 -0.17 -0.18    -0.251    15.217
ATOM     36  O   UNL d   1      16.139   3.742  14.312 -0.50 -0.52    -0.481    15.217
ATOM     37  H   UNL d   1      16.561   3.051  14.866 +0.10 +0.10    +0.295    15.217
ATOM     38  C   UNL d   1       7.734   2.828  10.380 -0.35 -0.00    +0.017    15.217
ATOM     39  C   UNL d   1       7.301   4.036  10.772 -0.28 -0.00    +0.092    15.217
ATOM     40  C   UNL d   1       6.120   4.629  10.140 -0.13 -0.05    +0.330    15.217
ATOM     41  O   UNL d   1       5.632   5.722  10.353 -0.16 +0.09    -0.246    15.217
ATOM     42  O   UNL d   1       5.608   3.782   9.233 -0.60 +0.03    -0.477    15.217
ATOM     43  H   UNL d   1       4.868   4.285   8.834 -0.17 -0.09    +0.295    15.217
ATOM     44  C   UNL d   1      13.070  -2.520  18.254 -0.10 +0.04    +0.141    15.217
ATOM     45  C   UNL d   1      13.447  -2.500  19.711 -0.18 +0.00    +0.306    15.217
ATOM     46  O   UNL d   1      12.905  -3.119  20.611 -0.25 -0.01    -0.251    15.217
ATOM     47  O   UNL d   1      14.476  -1.672  19.965 -0.20 +0.34    -0.481    15.217
ATOM     48  H   UNL d   1      15.067  -1.765  19.188 -0.41 -0.35    +0.295    15.217
ATOM     49  C   UNL d   1       5.478  -1.895  12.351 -0.35 +0.00    +0.048    15.217
ATOM     50  C   UNL d   1       5.526  -3.214  11.580 -0.43 +0.02    +0.125    15.217
ATOM     51  C   UNL d   1       4.341  -3.345  10.666 -0.38 +0.01    +0.305    15.217
ATOM     52  O   UNL d   1       4.130  -4.218   9.842 -0.56 -0.01    -0.251    15.217
ATOM     53  O   UNL d   1       3.462  -2.336  10.832 -0.27 +0.08    -0.481    15.217
ATOM     54  H   UNL d   1       3.864  -1.588  10.344 -0.34 -0.14    +0.295    15.217
TER
ENDMDL
MODEL      100
USER    Run = 100
USER    Cluster Rank = 8
USER    Number of conformations in this cluster = 1
USER  
USER    RMSD from reference structure       = 16.716 A
USER  
USER    Estimated Free Energy of Binding    =   -7.85 kcal/mol  [=(1)+(2)+(3)-(4)]
USER    Estimated Inhibition Constant, Ki   =    1.76 uM (micromolar)  [Temperature = 298.15 K]
USER    
USER    (1) Final Intermolecular Energy     =  -11.73 kcal/mol
USER        vdW + Hbond + desolv Energy     =  -10.96 kcal/mol
USER        Electrostatic Energy            =   -0.76 kcal/mol
USER    (2) Final Total Internal Energy     =   -1.63 kcal/mol
USER    (3) Torsional Free Energy           =   +3.88 kcal/mol
USER    (4) Unbound System's Energy  [=(2)] =   -1.63 kcal/mol
USER    
USER    
USER  
USER    DPF = D:/Protein_go_brrr/autodock/final/1A3N/heme/dock.dpf
USER    NEWDPF move	heme_opt.pdbqt
USER    NEWDPF about	0.153000 0.018000 -0.028000
USER    NEWDPF tran0	18.031213 -6.748617 8.773796
USER    NEWDPF axisangle0	0.683644 -0.719126 0.124450 150.478278
USER    NEWDPF quaternion0	0.661082 -0.695394 0.120343 0.254785
USER    NEWDPF dihe0	126.55 85.31 -52.35 144.32 -22.75 -46.45 144.42 0.51 -19.88 -72.50 37.59 -93.42 -160.16 
USER  
USER                              x       y       z    vdW   Elec        q     RMS 
ATOM      1  O   UNL d   1      16.893  -0.972   8.473 -0.26 +0.06    -0.289    16.716
ATOM      2  O   UNL d   1      21.368  -4.880  13.064 -0.14 -0.00    -0.289    16.716
ATOM      3  N   UNL d   1      17.140  -4.410   8.360 -0.09 +0.00    -0.247    16.716
ATOM      4  N   UNL d   1      19.322  -5.002  10.288 -0.12 -0.01    -0.247    16.716
ATOM      5  N   UNL d   1      19.427  -7.665   9.211 -0.07 -0.01    -0.354    16.716
ATOM      6  N   UNL d   1      17.176  -7.037   7.200 -0.07 -0.03    -0.354    16.716
ATOM      7  C   UNL d   1      16.012  -2.712   6.999 -0.27 -0.02    +0.084    16.716
ATOM      8  C   UNL d   1      19.695  -3.387  12.084 -0.13 +0.00    +0.084    16.716
ATOM      9  C   UNL d   1      18.961  -3.773  10.796 -0.16 +0.00    +0.058    16.716
ATOM     10  C   UNL d   1      16.340  -4.187   7.252 -0.22 -0.00    +0.058    16.716
ATOM     11  C   UNL d   1      16.753  -2.143   8.171 -0.15 -0.04    +0.193    16.716
ATOM     12  C   UNL d   1      17.373  -3.274   8.933 -0.16 -0.01    +0.109    16.716
ATOM     13  C   UNL d   1      20.567  -4.606  12.193 -0.13 +0.00    +0.193    16.716
ATOM     14  C   UNL d   1      16.653  -2.194   5.709 -0.33 -0.01    +0.026    16.716
ATOM     15  C   UNL d   1      18.082  -2.961  10.190 -0.17 -0.00    +0.055    16.716
ATOM     16  C   UNL d   1      18.749  -3.349  13.287 -0.10 +0.00    +0.026    16.716
ATOM     17  C   UNL d   1      20.249  -5.503  11.041 +0.01 +0.00    +0.109    16.716
ATOM     18  C   UNL d   1      15.806  -5.165   6.497 -0.21 +0.01    +0.050    16.716
ATOM     19  C   UNL d   1      15.984  -6.556   6.707 -0.17 +0.01    +0.045    16.716
ATOM     20  C   UNL d   1      20.553  -7.683   9.992 -0.24 +0.00    +0.045    16.716
ATOM     21  C   UNL d   1      20.984  -6.763  10.861 -0.19 +0.00    +0.057    16.716
ATOM     22  C   UNL d   1      20.479  -9.606   8.761 -0.25 +0.00    -0.019    16.716
ATOM     23  C   UNL d   1      19.297  -8.784   8.432 -0.19 +0.00    +0.045    16.716
ATOM     24  C   UNL d   1      21.218  -8.949   9.686 -0.34 +0.00    -0.022    16.716
ATOM     25  C   UNL d   1      17.164  -8.412   7.239 -0.14 +0.00    +0.049    16.716
ATOM     26  C   UNL d   1      15.163  -7.644   6.454 -0.19 -0.00    -0.018    16.716
ATOM     27  C   UNL d   1      15.906  -8.812   6.810 -0.17 +0.00    +0.003    16.716
ATOM     28  C   UNL d   1      18.339  -9.143   7.564 -0.18 +0.00    +0.052    16.716
ATOM     29  C   UNL d   1      22.490  -9.374  10.337 -0.40 +0.00    +0.046    16.716
ATOM     30  C   UNL d   1      13.773  -7.604   5.917 -0.34 +0.02    +0.046    16.716
ATOM     31  H   UNL d   1      18.744  -6.920   9.289 +0.06 +0.01    +0.166    16.716
ATOM     32  H   UNL d   1      17.958  -6.444   7.454 +0.07 +0.01    +0.166    16.716
ATOM     33  C   UNL d   1      14.525  -2.348   7.075 -0.34 -0.08    +0.141    16.716
ATOM     34  C   UNL d   1      13.751  -3.258   7.989 -0.19 -0.09    +0.306    16.716
ATOM     35  O   UNL d   1      14.180  -3.809   8.989 -0.13 -0.00    -0.251    16.716
ATOM     36  O   UNL d   1      12.476  -3.426   7.596 -0.35 +0.02    -0.481    16.716
ATOM     37  H   UNL d   1      12.113  -2.516   7.544 -0.36 -0.49    +0.295    16.716
ATOM     38  C   UNL d   1      15.434 -10.159   6.690 -0.24 +0.00    +0.017    16.716
ATOM     39  C   UNL d   1      16.039 -11.133   5.994 -0.25 -0.00    +0.092    16.716
ATOM     40  C   UNL d   1      15.460 -12.478   5.965 -0.21 -0.03    +0.330    16.716
ATOM     41  O   UNL d   1      15.073 -13.141   6.909 -0.22 -0.01    -0.246    16.716
ATOM     42  O   UNL d   1      15.389 -12.924   4.701 -0.23 +0.18    -0.477    16.716
ATOM     43  H   UNL d   1      14.479 -12.695   4.422 -0.37 -0.14    +0.295    16.716
ATOM     44  C   UNL d   1      20.542  -2.112  12.004 -0.20 -0.00    +0.141    16.716
ATOM     45  C   UNL d   1      21.992  -2.340  12.341 -0.22 -0.02    +0.306    16.716
ATOM     46  O   UNL d   1      22.911  -2.463  11.550 -0.33 +0.01    -0.251    16.716
ATOM     47  O   UNL d   1      22.204  -2.430  13.666 -0.32 +0.05    -0.481    16.716
ATOM     48  H   UNL d   1      22.688  -3.275  13.784 -0.20 -0.08    +0.295    16.716
ATOM     49  C   UNL d   1      20.781 -10.936   8.137 -0.28 +0.00    +0.048    16.716
ATOM     50  C   UNL d   1      22.078 -10.904   7.328 -0.30 -0.00    +0.125    16.716
ATOM     51  C   UNL d   1      21.948 -11.720   6.074 -0.20 +0.03    +0.305    16.716
ATOM     52  O   UNL d   1      21.011 -12.423   5.738 -0.17 -0.05    -0.251    16.716
ATOM     53  O   UNL d   1      23.040 -11.617   5.290 -0.14 +0.06    -0.481    16.716
ATOM     54  H   UNL d   1      23.326 -10.686   5.401 -0.30 -0.11    +0.295    16.716
TER
ENDMDL
MODEL       39
USER    Run = 39
USER    Cluster Rank = 9
USER    Number of conformations in this cluster = 1
USER  
USER    RMSD from reference structure       = 23.768 A
USER  
USER    Estimated Free Energy of Binding    =   -7.68 kcal/mol  [=(1)+(2)+(3)-(4)]
USER    Estimated Inhibition Constant, Ki   =    2.36 uM (micromolar)  [Temperature = 298.15 K]
USER    
USER    (1) Final Intermolecular Energy     =  -11.55 kcal/mol
USER        vdW + Hbond + desolv Energy     =  -10.84 kcal/mol
USER        Electrostatic Energy            =   -0.72 kcal/mol
USER    (2) Final Total Internal Energy     =   -2.39 kcal/mol
USER    (3) Torsional Free Energy           =   +3.88 kcal/mol
USER    (4) Unbound System's Energy  [=(2)] =   -2.39 kcal/mol
USER    
USER    
USER  
USER    DPF = D:/Protein_go_brrr/autodock/final/1A3N/heme/dock.dpf
USER    NEWDPF move	heme_opt.pdbqt
USER    NEWDPF about	0.153000 0.018000 -0.028000
USER    NEWDPF tran0	5.121747 -9.025877 22.743737
USER    NEWDPF axisangle0	0.480717 -0.624923 -0.615128 81.783455
USER    NEWDPF quaternion0	0.314693 -0.409094 -0.402682 0.755948
USER    NEWDPF dihe0	113.84 -62.59 119.23 -180.00 -138.03 149.51 -58.87 -73.86 32.40 -133.31 -53.45 -136.80 180.00 
USER  
USER                              x       y       z    vdW   Elec        q     RMS 
ATOM      1  O   UNL d   1       1.982  -9.669  27.692 -0.07 +0.03    -0.289    23.768
ATOM      2  O   UNL d   1       7.837 -13.545  25.032 -0.22 -0.00    -0.289    23.768
ATOM      3  N   UNL d   1       3.431  -9.000  24.634 -0.12 -0.06    -0.247    23.768
ATOM      4  N   UNL d   1       5.798 -10.797  24.593 -0.11 -0.00    -0.247    23.768
ATOM      5  N   UNL d   1       6.777  -9.302  22.341 -0.02 -0.05    -0.354    23.768
ATOM      6  N   UNL d   1       4.329  -7.430  22.403 -0.05 -0.07    -0.354    23.768
ATOM      7  C   UNL d   1       1.688  -7.938  25.991 -0.17 -0.01    +0.084    23.768
ATOM      8  C   UNL d   1       5.683 -12.828  25.947 -0.15 +0.01    +0.084    23.768
ATOM      9  C   UNL d   1       5.056 -11.498  25.517 -0.17 +0.00    +0.058    23.768
ATOM     10  C   UNL d   1       2.536  -7.947  24.716 -0.21 +0.00    +0.058    23.768
ATOM     11  C   UNL d   1       2.250  -9.183  26.608 -0.09 -0.01    +0.193    23.768
ATOM     12  C   UNL d   1       3.279  -9.748  25.679 -0.16 +0.01    +0.109    23.768
ATOM     13  C   UNL d   1       6.937 -12.734  25.124 -0.18 -0.00    +0.193    23.768
ATOM     14  C   UNL d   1       2.019  -6.745  26.892 -0.36 -0.00    +0.026    23.768
ATOM     15  C   UNL d   1       3.908 -11.035  26.036 -0.18 +0.01    +0.055    23.768
ATOM     16  C   UNL d   1       4.863 -14.026  25.460 -0.15 +0.00    +0.026    23.768
ATOM     17  C   UNL d   1       6.888 -11.453  24.355 -0.13 -0.01    +0.109    23.768
ATOM     18  C   UNL d   1       2.339  -7.046  23.734 -0.27 -0.00    +0.050    23.768
ATOM     19  C   UNL d   1       3.015  -7.028  22.487 -0.29 +0.00    +0.045    23.768
ATOM     20  C   UNL d   1       7.883 -10.064  22.616 -0.19 +0.00    +0.045    23.768
ATOM     21  C   UNL d   1       8.011 -11.069  23.489 -0.30 -0.01    +0.057    23.768
ATOM     22  C   UNL d   1       8.421  -8.539  21.003 -0.09 -0.00    -0.019    23.768
ATOM     23  C   UNL d   1       7.005  -8.353  21.380 -0.12 +0.01    +0.045    23.768
ATOM     24  C   UNL d   1       8.934  -9.554  21.737 -0.18 -0.00    -0.022    23.768
ATOM     25  C   UNL d   1       4.809  -7.246  21.128 -0.26 +0.01    +0.049    23.768
ATOM     26  C   UNL d   1       2.621  -6.606  21.227 -0.40 +0.00    -0.018    23.768
ATOM     27  C   UNL d   1       3.752  -6.765  20.368 -0.38 +0.00    +0.003    23.768
ATOM     28  C   UNL d   1       6.186  -7.443  20.832 -0.20 +0.01    +0.052    23.768
ATOM     29  C   UNL d   1      10.313 -10.122  21.709 -0.33 +0.00    +0.046    23.768
ATOM     30  C   UNL d   1       1.277  -6.089  20.841 -0.57 -0.01    +0.046    23.768
ATOM     31  H   UNL d   1       5.879  -9.504  22.767 +0.07 +0.03    +0.166    23.768
ATOM     32  H   UNL d   1       4.861  -7.773  23.194 +0.08 +0.03    +0.166    23.768
ATOM     33  C   UNL d   1       0.177  -8.079  25.777 -0.16 -0.02    +0.141    23.768
ATOM     34  C   UNL d   1      -0.244  -9.504  25.545 -0.11 -0.04    +0.306    23.768
ATOM     35  O   UNL d   1      -0.221 -10.099  24.481 -0.74 -0.03    -0.251    23.768
ATOM     36  O   UNL d   1      -0.672 -10.107  26.669 -0.01 +0.06    -0.481    23.768
ATOM     37  H   UNL d   1       0.133 -10.200  27.221 +0.07 -0.02    +0.295    23.768
ATOM     38  C   UNL d   1       3.785  -6.431  18.976 -0.44 +0.00    +0.017    23.768
ATOM     39  C   UNL d   1       3.946  -5.195  18.479 -0.39 -0.01    +0.092    23.768
ATOM     40  C   UNL d   1       3.978  -4.989  17.029 -0.27 +0.03    +0.330    23.768
ATOM     41  O   UNL d   1       3.583  -4.022  16.406 -0.66 -0.06    -0.246    23.768
ATOM     42  O   UNL d   1       4.536  -6.050  16.425 -0.12 -0.04    -0.477    23.768
ATOM     43  H   UNL d   1       3.817  -6.405  15.863 -0.10 -0.04    +0.295    23.768
ATOM     44  C   UNL d   1       6.013 -12.951  27.438 -0.22 +0.01    +0.141    23.768
ATOM     45  C   UNL d   1       6.561 -14.301  27.816 -0.13 +0.14    +0.306    23.768
ATOM     46  O   UNL d   1       5.958 -15.199  28.377 -0.08 -0.10    -0.251    23.768
ATOM     47  O   UNL d   1       7.859 -14.441  27.487 -0.72 -0.52    -0.481    23.768
ATOM     48  H   UNL d   1       7.879 -14.346  26.511 +0.12 +0.16    +0.295    23.768
ATOM     49  C   UNL d   1       9.137  -7.706  19.981 -0.07 +0.01    +0.048    23.768
ATOM     50  C   UNL d   1       9.930  -6.570  20.627 -0.12 +0.03    +0.125    23.768
ATOM     51  C   UNL d   1      11.360  -6.583  20.165 -0.10 +0.14    +0.305    23.768
ATOM     52  O   UNL d   1      12.264  -7.295  20.565 -0.37 -0.16    -0.251    23.768
ATOM     53  O   UNL d   1      11.586  -5.666  19.203 -0.32 -0.29    -0.481    23.768
ATOM     54  H   UNL d   1      10.714  -5.239  19.071 +0.08 +0.11    +0.295    23.768
TER
ENDMDL
MODEL       60
USER    Run = 60
USER    Cluster Rank = 10
USER    Number of conformations in this cluster = 1
USER  
USER    RMSD from reference structure       = 18.758 A
USER  
USER    Estimated Free Energy of Binding    =   -7.52 kcal/mol  [=(1)+(2)+(3)-(4)]
USER    Estimated Inhibition Constant, Ki   =    3.06 uM (micromolar)  [Temperature = 298.15 K]
USER    
USER    (1) Final Intermolecular Energy     =  -11.40 kcal/mol
USER        vdW + Hbond + desolv Energy     =  -10.81 kcal/mol
USER        Electrostatic Energy            =   -0.59 kcal/mol
USER    (2) Final Total Internal Energy     =   -2.28 kcal/mol
USER    (3) Torsional Free Energy           =   +3.88 kcal/mol
USER    (4) Unbound System's Energy  [=(2)] =   -2.28 kcal/mol
USER    
USER    
USER  
USER    DPF = D:/Protein_go_brrr/autodock/final/1A3N/heme/dock.dpf
USER    NEWDPF move	heme_opt.pdbqt
USER    NEWDPF about	0.153000 0.018000 -0.028000
USER    NEWDPF tran0	7.561272 -5.228094 18.265036
USER    NEWDPF axisangle0	0.264585 0.399222 0.877848 111.220445
USER    NEWDPF quaternion0	0.218339 0.329444 0.724413 0.564820
USER    NEWDPF dihe0	-3.49 115.85 -101.29 91.53 -105.76 24.71 -56.19 82.27 167.66 172.30 -16.65 -78.44 28.13 
USER  
USER                              x       y       z    vdW   Elec        q     RMS 
ATOM      1  O   UNL d   1      10.646  -1.219  15.237 -0.49 -0.38    -0.289    18.758
ATOM      2  O   UNL d   1       3.695  -3.877  14.232 -0.66 -0.05    -0.289    18.758
ATOM      3  N   UNL d   1       9.291  -3.700  17.213 -0.03 -0.08    -0.247    18.758
ATOM      4  N   UNL d   1       6.476  -3.858  16.276 -0.11 -0.05    -0.247    18.758
ATOM      5  N   UNL d   1       5.882  -5.422  18.615 -0.10 -0.03    -0.354    18.758
ATOM      6  N   UNL d   1       8.800  -5.236  19.590 -0.02 -0.06    -0.354    18.758
ATOM      7  C   UNL d   1      11.368  -2.399  17.253 -0.09 +0.03    +0.084    18.758
ATOM      8  C   UNL d   1       6.021  -3.156  13.980 -0.21 +0.02    +0.084    18.758
ATOM      9  C   UNL d   1       7.012  -3.295  15.140 -0.16 +0.02    +0.058    18.758
ATOM     10  C   UNL d   1      10.480  -3.474  17.886 -0.07 +0.02    +0.058    18.758
ATOM     11  C   UNL d   1      10.477  -2.069  16.093 -0.07 +0.13    +0.193    18.758
ATOM     12  C   UNL d   1       9.263  -2.942  16.166 -0.07 +0.05    +0.109    18.758
ATOM     13  C   UNL d   1       4.812  -3.709  14.681 -0.27 +0.04    +0.193    18.758
ATOM     14  C   UNL d   1      11.497  -1.162  18.146 -0.26 +0.01    +0.026    18.758
ATOM     15  C   UNL d   1       8.279  -2.858  15.068 -0.13 +0.02    +0.055    18.758
ATOM     16  C   UNL d   1       6.379  -4.080  12.812 -0.31 +0.01    +0.026    18.758
ATOM     17  C   UNL d   1       5.219  -4.091  16.067 -0.29 +0.02    +0.109    18.758
ATOM     18  C   UNL d   1      10.891  -4.186  18.952 -0.13 +0.02    +0.050    18.758
ATOM     19  C   UNL d   1      10.176  -5.255  19.552 -0.10 +0.01    +0.045    18.758
ATOM     20  C   UNL d   1       4.611  -5.195  18.154 -0.40 +0.00    +0.045    18.758
ATOM     21  C   UNL d   1       4.224  -4.626  17.008 -0.49 +0.01    +0.057    18.758
ATOM     22  C   UNL d   1       4.486  -6.216  20.194 -0.30 +0.00    -0.019    18.758
ATOM     23  C   UNL d   1       5.908  -6.033  19.840 -0.25 +0.00    +0.045    18.758
ATOM     24  C   UNL d   1       3.723  -5.719  19.191 -0.24 +0.00    -0.022    18.758
ATOM     25  C   UNL d   1       8.321  -6.317  20.293 -0.12 +0.01    +0.049    18.758
ATOM     26  C   UNL d   1      10.601  -6.395  20.216 -0.13 -0.01    -0.018    18.758
ATOM     27  C   UNL d   1       9.425  -7.072  20.665 -0.12 +0.00    +0.003    18.758
ATOM     28  C   UNL d   1       6.939  -6.431  20.601 -0.22 +0.01    +0.052    18.758
ATOM     29  C   UNL d   1       2.237  -5.682  19.080 -0.44 -0.00    +0.046    18.758
ATOM     30  C   UNL d   1      12.012  -6.833  20.421 -0.26 +0.03    +0.046    18.758
ATOM     31  H   UNL d   1       6.694  -5.217  18.042 +0.07 +0.02    +0.166    18.758
ATOM     32  H   UNL d   1       8.239  -4.497  19.184 +0.06 +0.03    +0.166    18.758
ATOM     33  C   UNL d   1      12.736  -2.882  16.760 -0.09 +0.06    +0.141    18.758
ATOM     34  C   UNL d   1      13.816  -1.852  16.948 -0.12 +0.03    +0.306    18.758
ATOM     35  O   UNL d   1      13.774  -0.689  16.584 -0.14 -0.01    -0.251    18.758
ATOM     36  O   UNL d   1      14.893  -2.340  17.589 -0.62 +0.02    -0.481    18.758
ATOM     37  H   UNL d   1      15.550  -1.612  17.559 -0.43 -0.40    +0.295    18.758
ATOM     38  C   UNL d   1       9.410  -8.294  21.412 -0.18 +0.00    +0.017    18.758
ATOM     39  C   UNL d   1       8.604  -8.556  22.451 -0.23 +0.00    +0.092    18.758
ATOM     40  C   UNL d   1       8.676  -9.857  23.122 -0.21 -0.03    +0.330    18.758
ATOM     41  O   UNL d   1       9.610 -10.636  23.134 -0.34 +0.04    -0.246    18.758
ATOM     42  O   UNL d   1       7.528 -10.107  23.770 -0.06 +0.07    -0.477    18.758
ATOM     43  H   UNL d   1       7.490  -9.409  24.456 -0.10 -0.11    +0.295    18.758
ATOM     44  C   UNL d   1       5.767  -1.724  13.496 -0.28 +0.02    +0.141    18.758
ATOM     45  C   UNL d   1       6.068  -1.529  12.034 -0.19 +0.03    +0.306    18.758
ATOM     46  O   UNL d   1       7.074  -1.032  11.560 -0.34 -0.04    -0.251    18.758
ATOM     47  O   UNL d   1       5.065  -1.949  11.242 -0.16 +0.05    -0.481    18.758
ATOM     48  H   UNL d   1       4.394  -1.235  11.291 -0.16 -0.15    +0.295    18.758
ATOM     49  C   UNL d   1       4.010  -6.839  21.473 -0.36 +0.00    +0.048    18.758
ATOM     50  C   UNL d   1       4.602  -8.233  21.682 -0.22 +0.04    +0.125    18.758
ATOM     51  C   UNL d   1       4.435  -8.678  23.107 -0.12 +0.10    +0.305    18.758
ATOM     52  O   UNL d   1       3.419  -9.082  23.645 -0.15 -0.13    -0.251    18.758
ATOM     53  O   UNL d   1       5.584  -8.580  23.804 -0.07 -0.04    -0.481    18.758
ATOM     54  H   UNL d   1       6.024  -9.444  23.661 +0.13 +0.02    +0.295    18.758
TER
ENDMDL
MODEL       37
USER    Run = 37
USER    Cluster Rank = 11
USER    Number of conformations in this cluster = 1
USER  
USER    RMSD from reference structure       = 8.779 A
USER  
USER    Estimated Free Energy of Binding    =   -7.24 kcal/mol  [=(1)+(2)+(3)-(4)]
USER    Estimated Inhibition Constant, Ki   =    4.92 uM (micromolar)  [Temperature = 298.15 K]
USER    
USER    (1) Final Intermolecular Energy     =  -11.12 kcal/mol
USER        vdW + Hbond + desolv Energy     =  -11.17 kcal/mol
USER        Electrostatic Energy            =   +0.05 kcal/mol
USER    (2) Final Total Internal Energy     =   -1.95 kcal/mol
USER    (3) Torsional Free Energy           =   +3.88 kcal/mol
USER    (4) Unbound System's Energy  [=(2)] =   -1.95 kcal/mol
USER    
USER    
USER  
USER    DPF = D:/Protein_go_brrr/autodock/final/1A3N/heme/dock.dpf
USER    NEWDPF move	heme_opt.pdbqt
USER    NEWDPF about	0.153000 0.018000 -0.028000
USER    NEWDPF tran0	0.442917 -8.731172 -5.001302
USER    NEWDPF axisangle0	0.422597 -0.422304 0.801917 -169.421522
USER    NEWDPF quaternion0	0.420797 -0.420506 0.798503 -0.092184
USER    NEWDPF dihe0	-104.62 126.79 113.62 -116.08 34.51 -138.28 -53.26 149.52 129.56 -133.86 -21.44 179.01 -142.69 
USER  
USER                              x       y       z    vdW   Elec        q     RMS 
ATOM      1  O   UNL d   1       3.510  -9.120 -10.021 -0.12 -0.05    -0.289     8.779
ATOM      2  O   UNL d   1       3.604  -3.949  -4.576 -0.45 -0.05    -0.289     8.779
ATOM      3  N   UNL d   1       1.406  -9.243  -7.291 -0.13 -0.07    -0.247     8.779
ATOM      4  N   UNL d   1       2.369  -7.010  -5.584 -0.23 -0.05    -0.247     8.779
ATOM      5  N   UNL d   1       0.798  -8.097  -3.436 -0.18 -0.04    -0.354     8.779
ATOM      6  N   UNL d   1      -0.180 -10.422  -5.207 -0.10 -0.05    -0.354     8.779
ATOM      7  C   UNL d   1       1.884 -10.737  -9.175 -0.11 +0.02    +0.084     8.779
ATOM      8  C   UNL d   1       3.499  -5.155  -6.704 -0.31 +0.02    +0.084     8.779
ATOM      9  C   UNL d   1       2.863  -6.546  -6.783 -0.26 +0.01    +0.058     8.779
ATOM     10  C   UNL d   1       1.107 -10.458  -7.885 -0.15 +0.01    +0.058     8.779
ATOM     11  C   UNL d   1       2.662  -9.456  -9.215 -0.13 +0.04    +0.193     8.779
ATOM     12  C   UNL d   1       2.264  -8.625  -8.035 -0.19 +0.03    +0.109     8.779
ATOM     13  C   UNL d   1       3.308  -4.930  -5.230 -0.16 +0.04    +0.193     8.779
ATOM     14  C   UNL d   1       2.861 -11.905  -9.016 +0.08 +0.00    +0.026     8.779
ATOM     15  C   UNL d   1       2.837  -7.269  -7.914 -0.25 +0.01    +0.055     8.779
ATOM     16  C   UNL d   1       2.681  -4.112  -7.471 -0.34 +0.01    +0.026     8.779
ATOM     17  C   UNL d   1       2.619  -6.131  -4.668 -0.15 +0.02    +0.109     8.779
ATOM     18  C   UNL d   1       0.155 -11.301  -7.442 -0.16 +0.01    +0.050     8.779
ATOM     19  C   UNL d   1      -0.671 -11.086  -6.309 -0.17 +0.01    +0.045     8.779
ATOM     20  C   UNL d   1       1.515  -7.152  -2.749 -0.23 +0.00    +0.045     8.779
ATOM     21  C   UNL d   1       2.337  -6.213  -3.227 -0.23 +0.00    +0.057     8.779
ATOM     22  C   UNL d   1       0.327  -8.407  -1.255 -0.44 -0.00    -0.019     8.779
ATOM     23  C   UNL d   1       0.051  -8.903  -2.618 -0.43 +0.00    +0.045     8.779
ATOM     24  C   UNL d   1       1.193  -7.370  -1.339 -0.36 -0.00    -0.022     8.779
ATOM     25  C   UNL d   1      -1.114 -10.406  -4.197 -0.31 +0.00    +0.049     8.779
ATOM     26  C   UNL d   1      -1.969 -11.479  -6.021 -0.15 -0.00    -0.018     8.779
ATOM     27  C   UNL d   1      -2.250 -11.030  -4.694 -0.11 +0.00    +0.003     8.779
ATOM     28  C   UNL d   1      -0.783  -9.914  -2.906 -0.46 +0.00    +0.052     8.779
ATOM     29  C   UNL d   1       1.759  -6.536  -0.240 -0.43 +0.00    +0.046     8.779
ATOM     30  C   UNL d   1      -2.894 -12.225  -6.923 -0.11 +0.01    +0.046     8.779
ATOM     31  H   UNL d   1       0.786  -8.114  -4.450 +0.09 +0.03    +0.166     8.779
ATOM     32  H   UNL d   1       0.757 -10.042  -5.154 +0.08 +0.03    +0.166     8.779
ATOM     33  C   UNL d   1       1.029 -10.887 -10.438 -0.05 +0.03    +0.141     8.779
ATOM     34  C   UNL d   1       1.858 -11.093 -11.677 -0.02 +0.05    +0.306     8.779
ATOM     35  O   UNL d   1       2.239 -12.163 -12.119 -0.02 -0.03    -0.251     8.779
ATOM     36  O   UNL d   1       2.160  -9.937 -12.296 +0.00 -0.08    -0.481     8.779
ATOM     37  H   UNL d   1       2.832  -9.517 -11.718 +0.04 +0.05    +0.295     8.779
ATOM     38  C   UNL d   1      -3.482 -11.241  -3.995 -0.29 -0.00    +0.017     8.779
ATOM     39  C   UNL d   1      -4.247 -12.340  -4.088 -0.24 -0.02    +0.092     8.779
ATOM     40  C   UNL d   1      -5.480 -12.439  -3.304 -0.19 -0.13    +0.330     8.779
ATOM     41  O   UNL d   1      -5.921 -13.418  -2.732 -0.20 +0.20    -0.246     8.779
ATOM     42  O   UNL d   1      -6.107 -11.253  -3.277 -0.18 +0.14    -0.477     8.779
ATOM     43  H   UNL d   1      -5.419 -10.631  -2.962 -0.43 -0.12    +0.295     8.779
ATOM     44  C   UNL d   1       4.982  -5.084  -7.082 -0.16 +0.02    +0.141     8.779
ATOM     45  C   UNL d   1       5.533  -3.683  -7.067 -0.32 +0.02    +0.306     8.779
ATOM     46  O   UNL d   1       5.668  -2.945  -8.028 -0.29 +0.01    -0.251     8.779
ATOM     47  O   UNL d   1       5.912  -3.292  -5.837 -0.17 -0.04    -0.481     8.779
ATOM     48  H   UNL d   1       5.077  -3.232  -5.327 +0.21 +0.03    +0.295     8.779
ATOM     49  C   UNL d   1      -0.264  -8.997  -0.008 -0.52 -0.00    +0.048     8.779
ATOM     50  C   UNL d   1       0.790  -9.202   1.079 -0.49 -0.00    +0.125     8.779
ATOM     51  C   UNL d   1       0.150  -9.306   2.434 -0.43 -0.00    +0.305     8.779
ATOM     52  O   UNL d   1       0.487 -10.020   3.362 -0.43 -0.00    -0.251     8.779
ATOM     53  O   UNL d   1      -0.918  -8.492   2.551 -0.24 +0.03    -0.481     8.779
ATOM     54  H   UNL d   1      -1.553  -8.836   1.887 -0.19 -0.07    +0.295     8.779
TER
ENDMDL
MODEL       68
USER    Run = 68
USER    Cluster Rank = 12
USER    Number of conformations in this cluster = 1
USER  
USER    RMSD from reference structure       = 37.427 A
USER  
USER    Estimated Free Energy of Binding    =   -7.11 kcal/mol  [=(1)+(2)+(3)-(4)]
USER    Estimated Inhibition Constant, Ki   =    6.19 uM (micromolar)  [Temperature = 298.15 K]
USER    
USER    (1) Final Intermolecular Energy     =  -10.98 kcal/mol
USER        vdW + Hbond + desolv Energy     =   -9.83 kcal/mol
USER        Electrostatic Energy            =   -1.15 kcal/mol
USER    (2) Final Total Internal Energy     =   -1.23 kcal/mol
USER    (3) Torsional Free Energy           =   +3.88 kcal/mol
USER    (4) Unbound System's Energy  [=(2)] =   -1.23 kcal/mol
USER    
USER    
USER  
USER    DPF = D:/Protein_go_brrr/autodock/final/1A3N/heme/dock.dpf
USER    NEWDPF move	heme_opt.pdbqt
USER    NEWDPF about	0.153000 0.018000 -0.028000
USER    NEWDPF tran0	26.105542 16.417957 26.561623
USER    NEWDPF axisangle0	0.770792 0.162674 -0.615968 -155.684995
USER    NEWDPF quaternion0	0.753505 0.159026 -0.602154 -0.210600
USER    NEWDPF dihe0	72.85 -151.40 164.82 141.78 11.73 111.18 150.82 -115.69 -32.74 -16.83 -18.37 -164.28 -122.46 
USER  
USER                              x       y       z    vdW   Elec        q     RMS 
ATOM      1  O   UNL d   1      25.136  14.713  32.121 -0.06 +0.02    -0.289    37.427
ATOM      2  O   UNL d   1      24.446  21.430  28.835 -0.02 +0.03    -0.289    37.427
ATOM      3  N   UNL d   1      25.959  15.270  28.819 -0.09 +0.04    -0.247    37.427
ATOM      4  N   UNL d   1      25.081  18.071  28.359 -0.08 +0.03    -0.247    37.427
ATOM      5  N   UNL d   1      25.383  17.605  25.538 -0.07 +0.05    -0.354    37.427
ATOM      6  N   UNL d   1      26.274  14.694  26.023 -0.10 +0.07    -0.354    37.427
ATOM      7  C   UNL d   1      25.825  13.290  30.257 -0.16 -0.01    +0.084    37.427
ATOM      8  C   UNL d   1      24.999  19.550  30.302 -0.06 -0.01    +0.084    37.427
ATOM      9  C   UNL d   1      25.214  18.146  29.727 -0.13 -0.01    +0.058    37.427
ATOM     10  C   UNL d   1      26.113  13.895  28.880 -0.17 -0.01    +0.058    37.427
ATOM     11  C   UNL d   1      25.499  14.569  30.968 -0.09 -0.02    +0.193    37.427
ATOM     12  C   UNL d   1      25.641  15.699  29.996 -0.12 -0.01    +0.109    37.427
ATOM     13  C   UNL d   1      24.683  20.251  29.011 -0.06 -0.02    +0.193    37.427
ATOM     14  C   UNL d   1      24.580  12.399  30.244 -0.42 +0.00    +0.026    37.427
ATOM     15  C   UNL d   1      25.458  17.076  30.499 -0.13 -0.01    +0.055    37.427
ATOM     16  C   UNL d   1      26.294  20.133  30.875 -0.02 -0.00    +0.026    37.427
ATOM     17  C   UNL d   1      24.759  19.242  27.911 -0.11 -0.01    +0.109    37.427
ATOM     18  C   UNL d   1      26.564  13.140  27.860 -0.26 -0.01    +0.050    37.427
ATOM     19  C   UNL d   1      26.936  13.624  26.580 -0.19 -0.01    +0.045    37.427
ATOM     20  C   UNL d   1      24.750  18.821  25.509 -0.16 -0.00    +0.045    37.427
ATOM     21  C   UNL d   1      24.453  19.635  26.527 -0.16 -0.00    +0.057    37.427
ATOM     22  C   UNL d   1      24.909  18.021  23.375 -0.27 +0.00    -0.019    37.427
ATOM     23  C   UNL d   1      25.524  17.044  24.296 -0.26 -0.01    +0.045    37.427
ATOM     24  C   UNL d   1      24.454  19.071  24.099 -0.21 +0.00    -0.022    37.427
ATOM     25  C   UNL d   1      26.733  14.936  24.749 -0.25 -0.02    +0.049    37.427
ATOM     26  C   UNL d   1      27.875  13.183  25.661 -0.19 +0.00    -0.018    37.427
ATOM     27  C   UNL d   1      27.756  14.027  24.514 -0.24 -0.00    +0.003    37.427
ATOM     28  C   UNL d   1      26.095  15.892  23.913 -0.20 -0.02    +0.052    37.427
ATOM     29  C   UNL d   1      23.772  20.308  23.622 -0.20 +0.00    +0.046    37.427
ATOM     30  C   UNL d   1      28.827  12.048  25.834 -0.28 -0.01    +0.046    37.427
ATOM     31  H   UNL d   1      25.765  17.231  26.400 +0.05 -0.02    +0.166    37.427
ATOM     32  H   UNL d   1      25.526  15.194  26.488 +0.07 -0.03    +0.166    37.427
ATOM     33  C   UNL d   1      27.011  12.589  30.928 -0.18 -0.03    +0.141    37.427
ATOM     34  C   UNL d   1      28.326  12.928  30.280 -0.16 -0.08    +0.306    37.427
ATOM     35  O   UNL d   1      28.861  14.023  30.266 -0.13 +0.05    -0.251    37.427
ATOM     36  O   UNL d   1      28.900  11.867  29.685 -0.46 +0.14    -0.481    37.427
ATOM     37  H   UNL d   1      29.676  11.659  30.247 -0.33 -0.20    +0.295    37.427
ATOM     38  C   UNL d   1      28.533  13.908  23.317 -0.26 -0.01    +0.017    37.427
ATOM     39  C   UNL d   1      28.682  12.785  22.599 -0.34 -0.04    +0.092    37.427
ATOM     40  C   UNL d   1      29.494  12.800  21.379 -0.21 -0.13    +0.330    37.427
ATOM     41  O   UNL d   1      30.583  12.288  21.204 -0.21 +0.07    -0.246    37.427
ATOM     42  O   UNL d   1      28.858  13.478  20.411 -0.09 +0.31    -0.477    37.427
ATOM     43  H   UNL d   1      28.309  14.126  20.899 -0.41 -0.49    +0.295    37.427
ATOM     44  C   UNL d   1      23.842  19.687  31.297 -0.07 -0.01    +0.141    37.427
ATOM     45  C   UNL d   1      22.490  19.473  30.670 -0.09 -0.04    +0.306    37.427
ATOM     46  O   UNL d   1      21.771  18.498  30.807 -0.06 +0.01    -0.251    37.427
ATOM     47  O   UNL d   1      22.124  20.494  29.875 -0.07 +0.14    -0.481    37.427
ATOM     48  H   UNL d   1      22.727  21.228  30.121 +0.06 -0.07    +0.295    37.427
ATOM     49  C   UNL d   1      24.811  17.832  21.890 -0.20 -0.02    +0.048    37.427
ATOM     50  C   UNL d   1      23.638  18.611  21.294 -0.31 +0.00    +0.125    37.427
ATOM     51  C   UNL d   1      23.796  18.764  19.808 -0.25 +0.17    +0.305    37.427
ATOM     52  O   UNL d   1      23.841  19.800  19.168 -0.65 -0.26    -0.251    37.427
ATOM     53  O   UNL d   1      23.878  17.572  19.184 -0.48 -0.27    -0.481    37.427
ATOM     54  H   UNL d   1      24.418  17.022  19.791 -0.29 -0.43    +0.295    37.427
TER
ENDMDL
MODEL        3
USER    Run = 3
USER    Cluster Rank = 13
USER    Number of conformations in this cluster = 1
USER  
USER    RMSD from reference structure       = 17.844 A
USER  
USER    Estimated Free Energy of Binding    =   -7.07 kcal/mol  [=(1)+(2)+(3)-(4)]
USER    Estimated Inhibition Constant, Ki   =    6.60 uM (micromolar)  [Temperature = 298.15 K]
USER    
USER    (1) Final Intermolecular Energy     =  -10.95 kcal/mol
USER        vdW + Hbond + desolv Energy     =  -10.43 kcal/mol
USER        Electrostatic Energy            =   -0.51 kcal/mol
USER    (2) Final Total Internal Energy     =   -2.00 kcal/mol
USER    (3) Torsional Free Energy           =   +3.88 kcal/mol
USER    (4) Unbound System's Energy  [=(2)] =   -2.00 kcal/mol
USER    
USER    
USER  
USER    DPF = D:/Protein_go_brrr/autodock/final/1A3N/heme/dock.dpf
USER    NEWDPF move	heme_opt.pdbqt
USER    NEWDPF about	0.153000 0.018000 -0.028000
USER    NEWDPF tran0	19.207160 -3.953888 10.508087
USER    NEWDPF axisangle0	-0.092244 -0.786145 0.611120 -50.638110
USER    NEWDPF quaternion0	-0.039449 -0.336201 0.261351 -0.903940
USER    NEWDPF dihe0	-76.62 -18.93 -135.52 -180.00 -147.59 173.50 125.53 -97.44 23.86 -18.27 -89.68 19.16 -179.59 
USER  
USER                              x       y       z    vdW   Elec        q     RMS 
ATOM      1  O   UNL d   1      14.471  -5.369   7.296 -0.17 -0.07    -0.289    17.844
ATOM      2  O   UNL d   1      20.667  -9.284   8.928 -0.16 +0.01    -0.289    17.844
ATOM      3  N   UNL d   1      17.079  -4.057   9.132 -0.07 +0.00    -0.247    17.844
ATOM      4  N   UNL d   1      18.887  -6.385   9.509 -0.10 -0.01    -0.247    17.844
ATOM      5  N   UNL d   1      20.279  -4.862  11.511 -0.07 -0.01    -0.354    17.844
ATOM      6  N   UNL d   1      18.387  -2.459  11.127 -0.05 +0.00    -0.354    17.844
ATOM      7  C   UNL d   1      14.837  -3.282   8.515 -0.16 -0.01    +0.084    17.844
ATOM      8  C   UNL d   1      18.788  -8.160   7.833 -0.21 +0.00    +0.084    17.844
ATOM      9  C   UNL d   1      18.232  -6.845   8.389 -0.17 +0.00    +0.058    17.844
ATOM     10  C   UNL d   1      16.159  -3.029   9.246 -0.12 -0.00    +0.058    17.844
ATOM     11  C   UNL d   1      15.180  -4.629   7.952 -0.09 +0.01    +0.193    17.844
ATOM     12  C   UNL d   1      16.574  -4.976   8.375 -0.11 +0.00    +0.109    17.844
ATOM     13  C   UNL d   1      19.856  -8.380   8.867 -0.17 -0.00    +0.193    17.844
ATOM     14  C   UNL d   1      13.664  -3.436   9.487 -0.23 -0.00    +0.026    17.844
ATOM     15  C   UNL d   1      17.166  -6.226   7.858 -0.19 +0.00    +0.055    17.844
ATOM     16  C   UNL d   1      19.457  -7.962   6.469 -0.36 +0.00    +0.026    17.844
ATOM     17  C   UNL d   1      19.806  -7.238   9.829 -0.17 +0.00    +0.109    17.844
ATOM     18  C   UNL d   1      16.409  -1.858   9.861 -0.19 -0.01    +0.050    17.844
ATOM     19  C   UNL d   1      17.630  -1.502  10.489 -0.16 -0.00    +0.045    17.844
ATOM     20  C   UNL d   1      20.855  -6.090  11.707 -0.20 +0.00    +0.045    17.844
ATOM     21  C   UNL d   1      20.716  -7.206  10.984 -0.27 +0.00    +0.057    17.844
ATOM     22  C   UNL d   1      21.566  -4.671  13.350 -0.28 +0.00    -0.019    17.844
ATOM     23  C   UNL d   1      20.649  -3.940  12.453 -0.19 -0.00    +0.045    17.844
ATOM     24  C   UNL d   1      21.685  -5.943  12.902 -0.33 -0.00    -0.022    17.844
ATOM     25  C   UNL d   1      19.476  -1.883  11.740 -0.14 -0.00    +0.049    17.844
ATOM     26  C   UNL d   1      18.262  -0.280  10.660 -0.23 +0.00    -0.018    17.844
ATOM     27  C   UNL d   1      19.438  -0.530  11.434 -0.20 +0.00    +0.003    17.844
ATOM     28  C   UNL d   1      20.321  -2.646  12.592 -0.20 -0.00    +0.052    17.844
ATOM     29  C   UNL d   1      22.504  -7.057  13.462 -0.38 +0.00    +0.046    17.844
ATOM     30  C   UNL d   1      17.806   1.039  10.136 -0.39 +0.00    +0.046    17.844
ATOM     31  H   UNL d   1      19.709  -4.673  10.694 +0.05 +0.00    +0.166    17.844
ATOM     32  H   UNL d   1      18.137  -3.440  11.163 +0.04 +0.00    +0.166    17.844
ATOM     33  C   UNL d   1      14.509  -2.296   7.389 -0.30 -0.08    +0.141    17.844
ATOM     34  C   UNL d   1      15.386  -2.484   6.181 -0.27 -0.17    +0.306    17.844
ATOM     35  O   UNL d   1      16.426  -1.892   5.946 -0.33 +0.13    -0.251    17.844
ATOM     36  O   UNL d   1      14.907  -3.411   5.332 -0.50 +0.26    -0.481    17.844
ATOM     37  H   UNL d   1      14.479  -2.894   4.617 -0.18 -0.45    +0.295    17.844
ATOM     38  C   UNL d   1      20.376   0.466  11.854 -0.33 +0.00    +0.017    17.844
ATOM     39  C   UNL d   1      21.693   0.446  11.599 -0.40 -0.00    +0.092    17.844
ATOM     40  C   UNL d   1      22.546   1.540  12.072 -0.23 -0.02    +0.330    17.844
ATOM     41  O   UNL d   1      23.760   1.600  12.050 -0.31 +0.03    -0.246    17.844
ATOM     42  O   UNL d   1      21.790   2.538  12.556 -0.10 -0.03    -0.477    17.844
ATOM     43  H   UNL d   1      22.409   3.053  13.113 +0.16 -0.01    +0.295    17.844
ATOM     44  C   UNL d   1      17.804  -9.334   7.802 -0.09 +0.01    +0.141    17.844
ATOM     45  C   UNL d   1      17.424  -9.826   9.173 -0.00 +0.04    +0.306    17.844
ATOM     46  O   UNL d   1      16.585  -9.341   9.913 -0.01 -0.04    -0.251    17.844
ATOM     47  O   UNL d   1      18.145 -10.896   9.554 +0.02 -0.06    -0.481    17.844
ATOM     48  H   UNL d   1      19.066 -10.680   9.294 +0.09 +0.03    +0.295    17.844
ATOM     49  C   UNL d   1      22.223  -4.069  14.557 -0.34 -0.01    +0.048    17.844
ATOM     50  C   UNL d   1      21.456  -4.388  15.840 -0.32 -0.00    +0.125    17.844
ATOM     51  C   UNL d   1      21.969  -5.650  16.472 -0.35 +0.01    +0.305    17.844
ATOM     52  O   UNL d   1      21.449  -6.753  16.458 -0.37 -0.03    -0.251    17.844
ATOM     53  O   UNL d   1      23.136  -5.453  17.118 -0.29 +0.04    -0.481    17.844
ATOM     54  H   UNL d   1      23.327  -4.502  16.978 -0.34 -0.10    +0.295    17.844
TER
ENDMDL
MODEL       73
USER    Run = 73
USER    Cluster Rank = 14
USER    Number of conformations in this cluster = 1
USER  
USER    RMSD from reference structure       = 21.100 A
USER  
USER    Estimated Free Energy of Binding    =   -6.87 kcal/mol  [=(1)+(2)+(3)-(4)]
USER    Estimated Inhibition Constant, Ki   =    9.16 uM (micromolar)  [Temperature = 298.15 K]
USER    
USER    (1) Final Intermolecular Energy     =  -10.75 kcal/mol
USER        vdW + Hbond + desolv Energy     =  -10.09 kcal/mol
USER        Electrostatic Energy            =   -0.66 kcal/mol
USER    (2) Final Total Internal Energy     =   -1.88 kcal/mol
USER    (3) Torsional Free Energy           =   +3.88 kcal/mol
USER    (4) Unbound System's Energy  [=(2)] =   -1.88 kcal/mol
USER    
USER    
USER  
USER    DPF = D:/Protein_go_brrr/autodock/final/1A3N/heme/dock.dpf
USER    NEWDPF move	heme_opt.pdbqt
USER    NEWDPF about	0.153000 0.018000 -0.028000
USER    NEWDPF tran0	18.083390 12.804555 11.488467
USER    NEWDPF axisangle0	-0.007798 -0.868809 0.495086 -51.021796
USER    NEWDPF quaternion0	-0.003359 -0.374181 0.213225 -0.902503
USER    NEWDPF dihe0	6.86 -103.62 -131.84 53.87 -162.04 176.89 123.10 62.62 -5.73 -48.70 -130.69 -117.55 128.01 
USER  
USER                              x       y       z    vdW   Elec        q     RMS 
ATOM      1  O   UNL d   1      13.469  12.067   7.894 -0.11 -0.02    -0.289    21.100
ATOM      2  O   UNL d   1      19.334   7.612   9.364 -0.26 -0.15    -0.289    21.100
ATOM      3  N   UNL d   1      16.036  12.993  10.003 -0.12 -0.01    -0.247    21.100
ATOM      4  N   UNL d   1      17.687  10.529  10.193 -0.13 -0.04    -0.247    21.100
ATOM      5  N   UNL d   1      19.043  11.722  12.430 -0.05 -0.06    -0.354    21.100
ATOM      6  N   UNL d   1      17.314  14.266  12.238 -0.09 -0.02    -0.354    21.100
ATOM      7  C   UNL d   1      13.880  13.972   9.369 -0.10 +0.01    +0.084    21.100
ATOM      8  C   UNL d   1      17.587   8.969   8.315 -0.39 +0.02    +0.084    21.100
ATOM      9  C   UNL d   1      17.073  10.243   8.994 -0.30 +0.01    +0.058    21.100
ATOM     10  C   UNL d   1      15.170  14.057  10.191 -0.16 +0.01    +0.058    21.100
ATOM     11  C   UNL d   1      14.180  12.681   8.669 -0.09 +0.01    +0.193    21.100
ATOM     12  C   UNL d   1      15.525  12.201   9.117 -0.19 +0.00    +0.109    21.100
ATOM     13  C   UNL d   1      18.579   8.565   9.369 -0.24 +0.08    +0.193    21.100
ATOM     14  C   UNL d   1      12.646  13.780  10.255 -0.18 +0.00    +0.026    21.100
ATOM     15  C   UNL d   1      16.076  10.984   8.487 -0.21 -0.00    +0.055    21.100
ATOM     16  C   UNL d   1      18.343   9.281   7.020 -0.62 +0.00    +0.026    21.100
ATOM     17  C   UNL d   1      18.537   9.590  10.456 -0.23 +0.04    +0.109    21.100
ATOM     18  C   UNL d   1      15.448  15.131  10.953 -0.18 +0.01    +0.050    21.100
ATOM     19  C   UNL d   1      16.649  15.335  11.680 +0.03 +0.01    +0.045    21.100
ATOM     20  C   UNL d   1      19.537  10.446  12.508 -0.19 +0.02    +0.045    21.100
ATOM     21  C   UNL d   1      19.379   9.432  11.651 -0.24 +0.03    +0.057    21.100
ATOM     22  C   UNL d   1      20.230  11.619  14.341 -0.12 -0.01    -0.019    21.100
ATOM     23  C   UNL d   1      19.408  12.505  13.492 -0.13 +0.01    +0.045    21.100
ATOM     24  C   UNL d   1      20.304  10.402  13.753 -0.13 -0.01    -0.022    21.100
ATOM     25  C   UNL d   1      18.396  14.698  12.969 -0.15 +0.01    +0.049    21.100
ATOM     26  C   UNL d   1      17.337  16.487  12.027 -0.09 -0.00    -0.018    21.100
ATOM     27  C   UNL d   1      18.450  16.078  12.824 -0.15 +0.00    +0.003    21.100
ATOM     28  C   UNL d   1      19.145  13.792  13.767 -0.15 +0.01    +0.052    21.100
ATOM     29  C   UNL d   1      21.026   9.183  14.217 -0.18 +0.02    +0.046    21.100
ATOM     30  C   UNL d   1      16.986  17.884  11.640 -0.12 +0.01    +0.046    21.100
ATOM     31  H   UNL d   1      18.533  12.039  11.613 -0.25 -0.01    +0.166    21.100
ATOM     32  H   UNL d   1      17.007  13.305  12.145 +0.02 +0.00    +0.166    21.100
ATOM     33  C   UNL d   1      13.674  15.100   8.353 -0.14 +0.03    +0.141    21.100
ATOM     34  C   UNL d   1      14.936  15.451   7.613 -0.21 +0.07    +0.306    21.100
ATOM     35  O   UNL d   1      15.601  16.462   7.763 -0.23 -0.08    -0.251    21.100
ATOM     36  O   UNL d   1      15.295  14.508   6.725 -0.16 -0.01    -0.481    21.100
ATOM     37  H   UNL d   1      16.155  14.819   6.369 -0.35 -0.05    +0.295    21.100
ATOM     38  C   UNL d   1      19.417  16.959  13.407 -0.15 +0.01    +0.017    21.100
ATOM     39  C   UNL d   1      19.413  17.379  14.681 -0.17 +0.05    +0.092    21.100
ATOM     40  C   UNL d   1      20.474  18.270  15.160 -0.09 +0.35    +0.330    21.100
ATOM     41  O   UNL d   1      20.563  18.801  16.250 -0.80 -0.33    -0.246    21.100
ATOM     42  O   UNL d   1      21.400  18.439  14.204 -0.16 -0.56    -0.477    21.100
ATOM     43  H   UNL d   1      20.979  19.062  13.576 +0.08 +0.22    +0.295    21.100
ATOM     44  C   UNL d   1      16.542   7.870   8.095 -0.31 +0.03    +0.141    21.100
ATOM     45  C   UNL d   1      16.578   6.797   9.150 -0.24 +0.18    +0.306    21.100
ATOM     46  O   UNL d   1      16.104   6.863  10.271 -0.28 -0.36    -0.251    21.100
ATOM     47  O   UNL d   1      17.238   5.697   8.743 -0.21 -0.18    -0.481    21.100
ATOM     48  H   UNL d   1      18.069   6.039   8.349 -0.05 +0.08    +0.295    21.100
ATOM     49  C   UNL d   1      20.848  12.036  15.644 -0.16 +0.02    +0.048    21.100
ATOM     50  C   UNL d   1      19.867  12.822  16.513 -0.18 +0.03    +0.125    21.100
ATOM     51  C   UNL d   1      18.558  12.096  16.635 -0.13 +0.02    +0.305    21.100
ATOM     52  O   UNL d   1      18.372  10.962  17.040 -0.19 -0.03    -0.251    21.100
ATOM     53  O   UNL d   1      17.522  12.851  16.219 -0.08 +0.03    -0.481    21.100
ATOM     54  H   UNL d   1      16.897  12.835  16.974 -0.38 -0.16    +0.295    21.100
TER
ENDMDL
MODEL       87
USER    Run = 87
USER    Cluster Rank = 15
USER    Number of conformations in this cluster = 3
USER  
USER    RMSD from reference structure       = 38.232 A
USER  
USER    Estimated Free Energy of Binding    =   -6.83 kcal/mol  [=(1)+(2)+(3)-(4)]
USER    Estimated Inhibition Constant, Ki   =    9.89 uM (micromolar)  [Temperature = 298.15 K]
USER    
USER    (1) Final Intermolecular Energy     =  -10.71 kcal/mol
USER        vdW + Hbond + desolv Energy     =  -10.35 kcal/mol
USER        Electrostatic Energy            =   -0.35 kcal/mol
USER    (2) Final Total Internal Energy     =   -3.91 kcal/mol
USER    (3) Torsional Free Energy           =   +3.88 kcal/mol
USER    (4) Unbound System's Energy  [=(2)] =   -3.91 kcal/mol
USER    
USER    
USER  
USER    DPF = D:/Protein_go_brrr/autodock/final/1A3N/heme/dock.dpf
USER    NEWDPF move	heme_opt.pdbqt
USER    NEWDPF about	0.153000 0.018000 -0.028000
USER    NEWDPF tran0	23.428852 -6.315219 33.370279
USER    NEWDPF axisangle0	0.225282 -0.972624 -0.057019 91.088905
USER    NEWDPF quaternion0	0.160805 -0.694253 -0.040700 0.700356
USER    NEWDPF dihe0	-95.84 180.00 175.56 -33.19 29.96 54.53 152.59 -122.95 129.44 -0.83 -94.07 -114.96 -2.76 
USER  
USER                              x       y       z    vdW   Elec        q     RMS 
ATOM      1  O   UNL d   1      23.394  -3.604  38.605 -0.03 -0.06    -0.289    38.232
ATOM      2  O   UNL d   1      23.185 -10.898  36.831 -0.08 -0.07    -0.289    38.232
ATOM      3  N   UNL d   1      23.295  -4.732  35.347 -0.16 -0.05    -0.247    38.232
ATOM      4  N   UNL d   1      23.538  -7.679  35.637 -0.14 -0.08    -0.247    38.232
ATOM      5  N   UNL d   1      24.064  -7.821  32.814 -0.16 -0.05    -0.354    38.232
ATOM      6  N   UNL d   1      23.830  -4.761  32.526 +0.27 -0.10    -0.354    38.232
ATOM      7  C   UNL d   1      23.558  -2.539  36.411 -0.23 +0.01    +0.084    38.232
ATOM      8  C   UNL d   1      22.772  -8.662  37.739 -0.14 +0.02    +0.084    38.232
ATOM      9  C   UNL d   1      23.059  -7.412  36.901 -0.18 +0.02    +0.058    38.232
ATOM     10  C   UNL d   1      23.476  -3.376  35.131 -0.31 +0.01    +0.058    38.232
ATOM     11  C   UNL d   1      23.372  -3.660  37.389 -0.09 +0.04    +0.193    38.232
ATOM     12  C   UNL d   1      23.198  -4.933  36.621 -0.15 +0.03    +0.109    38.232
ATOM     13  C   UNL d   1      23.212  -9.687  36.731 -0.10 +0.06    +0.193    38.232
ATOM     14  C   UNL d   1      24.948  -1.931  36.612 -0.40 +0.00    +0.026    38.232
ATOM     15  C   UNL d   1      22.906  -6.168  37.378 -0.16 +0.01    +0.055    38.232
ATOM     16  C   UNL d   1      21.273  -8.839  37.999 -0.06 +0.00    +0.026    38.232
ATOM     17  C   UNL d   1      23.660  -8.961  35.505 -0.20 +0.03    +0.109    38.232
ATOM     18  C   UNL d   1      23.491  -2.802  33.913 -0.45 +0.01    +0.050    38.232
ATOM     19  C   UNL d   1      23.337  -3.485  32.680 -0.38 +0.01    +0.045    38.232
ATOM     20  C   UNL d   1      24.363  -9.109  33.175 -0.33 +0.01    +0.045    38.232
ATOM     21  C   UNL d   1      24.190  -9.710  34.356 -0.29 +0.01    +0.057    38.232
ATOM     22  C   UNL d   1      24.937  -8.803  30.985 -0.36 -0.00    -0.019    38.232
ATOM     23  C   UNL d   1      24.376  -7.542  31.510 -0.28 +0.00    +0.045    38.232
ATOM     24  C   UNL d   1      24.925  -9.727  31.974 -0.40 -0.00    -0.022    38.232
ATOM     25  C   UNL d   1      23.653  -5.195  31.232 -0.19 +0.01    +0.049    38.232
ATOM     26  C   UNL d   1      22.792  -3.094  31.466 -0.49 -0.00    -0.018    38.232
ATOM     27  C   UNL d   1      22.977  -4.184  30.562 -0.44 +0.00    +0.003    38.232
ATOM     28  C   UNL d   1      24.220  -6.421  30.790 -0.15 +0.00    +0.052    38.232
ATOM     29  C   UNL d   1      25.376 -11.147  31.930 -0.40 +0.00    +0.046    38.232
ATOM     30  C   UNL d   1      22.138  -1.788  31.163 -0.48 +0.00    +0.046    38.232
ATOM     31  H   UNL d   1      23.587  -7.193  33.453 +0.08 +0.03    +0.166    38.232
ATOM     32  H   UNL d   1      24.293  -5.275  33.265 +0.12 +0.05    +0.166    38.232
ATOM     33  C   UNL d   1      22.455  -1.489  36.580 -0.26 +0.00    +0.141    38.232
ATOM     34  C   UNL d   1      22.554  -0.751  37.888 -0.11 +0.00    +0.306    38.232
ATOM     35  O   UNL d   1      23.256   0.219  38.117 -0.18 +0.02    -0.251    38.232
ATOM     36  O   UNL d   1      21.760  -1.274  38.839 +0.01 -0.04    -0.481    38.232
ATOM     37  H   UNL d   1      22.267  -2.036  39.193 +0.06 +0.03    +0.295    38.232
ATOM     38  C   UNL d   1      22.572  -4.195  29.188 -0.50 +0.00    +0.017    38.232
ATOM     39  C   UNL d   1      23.388  -4.010  28.139 -0.44 +0.01    +0.092    38.232
ATOM     40  C   UNL d   1      22.849  -4.062  26.777 +0.01 +0.02    +0.330    38.232
ATOM     41  O   UNL d   1      21.903  -3.444  26.328 -0.24 -0.03    -0.246    38.232
ATOM     42  O   UNL d   1      23.565  -4.916  26.030 -0.12 -0.02    -0.477    38.232
ATOM     43  H   UNL d   1      24.249  -5.250  26.646 +0.20 +0.01    +0.295    38.232
ATOM     44  C   UNL d   1      23.578  -8.787  39.036 -0.06 +0.05    +0.141    38.232
ATOM     45  C   UNL d   1      25.059  -8.603  38.835 -0.05 +0.26    +0.306    38.232
ATOM     46  O   UNL d   1      25.726  -7.646  39.188 -0.37 -0.30    -0.251    38.232
ATOM     47  O   UNL d   1      25.620  -9.629  38.171 -0.31 -0.50    -0.481    38.232
ATOM     48  H   UNL d   1      24.896 -10.283  38.068 +0.04 +0.16    +0.295    38.232
ATOM     49  C   UNL d   1      25.440  -8.981  29.583 -0.20 +0.00    +0.048    38.232
ATOM     50  C   UNL d   1      24.317  -9.363  28.619 -0.46 +0.00    +0.125    38.232
ATOM     51  C   UNL d   1      23.631  -8.139  28.082 -0.31 +0.00    +0.305    38.232
ATOM     52  O   UNL d   1      22.435  -7.907  28.059 -0.36 +0.01    -0.251    38.232
ATOM     53  O   UNL d   1      24.510  -7.250  27.576 -0.13 -0.02    -0.481    38.232
ATOM     54  H   UNL d   1      24.027  -6.838  26.829 +0.20 +0.01    +0.295    38.232
TER
ENDMDL
MODEL       14
USER    Run = 14
USER    Cluster Rank = 16
USER    Number of conformations in this cluster = 1
USER  
USER    RMSD from reference structure       = 35.345 A
USER  
USER    Estimated Free Energy of Binding    =   -6.80 kcal/mol  [=(1)+(2)+(3)-(4)]
USER    Estimated Inhibition Constant, Ki   =   10.41 uM (micromolar)  [Temperature = 298.15 K]
USER    
USER    (1) Final Intermolecular Energy     =  -10.68 kcal/mol
USER        vdW + Hbond + desolv Energy     =  -10.22 kcal/mol
USER        Electrostatic Energy            =   -0.46 kcal/mol
USER    (2) Final Total Internal Energy     =   -2.35 kcal/mol
USER    (3) Torsional Free Energy           =   +3.88 kcal/mol
USER    (4) Unbound System's Energy  [=(2)] =   -2.35 kcal/mol
USER    
USER    
USER  
USER    DPF = D:/Protein_go_brrr/autodock/final/1A3N/heme/dock.dpf
USER    NEWDPF move	heme_opt.pdbqt
USER    NEWDPF about	0.153000 0.018000 -0.028000
USER    NEWDPF tran0	7.622815 17.302674 31.226234
USER    NEWDPF axisangle0	-0.572015 -0.169261 0.802590 -173.623680
USER    NEWDPF quaternion0	-0.571129 -0.168999 0.801347 -0.055615
USER    NEWDPF dihe0	-90.85 -104.17 107.81 -81.27 30.73 -16.94 -45.43 -19.11 122.42 -127.56 139.35 -108.54 -152.69 
USER  
USER                              x       y       z    vdW   Elec        q     RMS 
ATOM      1  O   UNL d   1       9.109  14.003  35.880 -0.04 -0.23    -0.289    35.345
ATOM      2  O   UNL d   1       9.501  21.420  34.770 -0.01 -0.04    -0.289    35.345
ATOM      3  N   UNL d   1       8.236  15.494  32.895 -0.11 -0.15    -0.247    35.345
ATOM      4  N   UNL d   1       8.424  18.397  33.501 -0.06 -0.09    -0.247    35.345
ATOM      5  N   UNL d   1       7.005  18.905  31.052 -0.08 -0.08    -0.354    35.345
ATOM      6  N   UNL d   1       6.797  15.891  30.442 -0.15 -0.11    -0.354    35.345
ATOM      7  C   UNL d   1       8.108  13.217  33.793 -0.17 +0.06    +0.084    35.345
ATOM      8  C   UNL d   1       9.950  19.069  35.287 -0.04 +0.02    +0.084    35.345
ATOM      9  C   UNL d   1       9.265  17.950  34.495 -0.09 +0.02    +0.058    35.345
ATOM     10  C   UNL d   1       7.848  14.189  32.639 -0.23 +0.04    +0.058    35.345
ATOM     11  C   UNL d   1       8.729  14.199  34.740 -0.09 +0.16    +0.193    35.345
ATOM     12  C   UNL d   1       8.774  15.537  34.070 -0.13 +0.08    +0.109    35.345
ATOM     13  C   UNL d   1       9.312  20.233  34.583 -0.02 +0.04    +0.193    35.345
ATOM     14  C   UNL d   1       6.807  12.692  34.407 -0.28 +0.03    +0.026    35.345
ATOM     15  C   UNL d   1       9.434  16.650  34.783 -0.12 +0.03    +0.055    35.345
ATOM     16  C   UNL d   1      11.459  19.105  35.032 -0.11 +0.01    +0.026    35.345
ATOM     17  C   UNL d   1       8.405  19.691  33.527 -0.06 +0.03    +0.109    35.345
ATOM     18  C   UNL d   1       7.365  13.764  31.456 -0.22 +0.02    +0.050    35.345
ATOM     19  C   UNL d   1       7.172  14.573  30.308 -0.31 +0.01    +0.045    35.345
ATOM     20  C   UNL d   1       6.985  20.161  31.601 -0.12 +0.01    +0.045    35.345
ATOM     21  C   UNL d   1       7.606  20.606  32.698 -0.09 +0.01    +0.057    35.345
ATOM     22  C   UNL d   1       5.684  20.155  29.724 -0.28 -0.00    -0.019    35.345
ATOM     23  C   UNL d   1       6.248  18.804  29.916 -0.28 +0.01    +0.045    35.345
ATOM     24  C   UNL d   1       6.125  20.954  30.724 -0.13 -0.00    -0.022    35.345
ATOM     25  C   UNL d   1       6.579  16.459  29.208 -0.37 +0.01    +0.049    35.345
ATOM     26  C   UNL d   1       7.235  14.288  28.953 -0.38 -0.00    -0.018    35.345
ATOM     27  C   UNL d   1       6.878  15.487  28.263 -0.44 +0.00    +0.003    35.345
ATOM     28  C   UNL d   1       6.032  17.766  29.093 -0.39 +0.01    +0.052    35.345
ATOM     29  C   UNL d   1       5.842  22.399  30.958 -0.07 +0.00    +0.046    35.345
ATOM     30  C   UNL d   1       7.605  12.982  28.334 -0.27 +0.01    +0.046    35.345
ATOM     31  H   UNL d   1       7.597  18.174  31.432 +0.06 +0.05    +0.166    35.345
ATOM     32  H   UNL d   1       6.666  16.348  31.336 +0.08 +0.07    +0.166    35.345
ATOM     33  C   UNL d   1       9.084  12.077  33.484 -0.21 +0.09    +0.141    35.345
ATOM     34  C   UNL d   1       9.478  11.303  34.713 -0.13 +0.25    +0.306    35.345
ATOM     35  O   UNL d   1       8.862  10.376  35.210 -0.71 -0.18    -0.251    35.345
ATOM     36  O   UNL d   1      10.632  11.738  35.251 -0.53 -0.68    -0.481    35.345
ATOM     37  H   UNL d   1      10.366  12.468  35.849 +0.08 +0.33    +0.295    35.345
ATOM     38  C   UNL d   1       6.800  15.629  26.840 -0.51 +0.00    +0.017    35.345
ATOM     39  C   UNL d   1       5.665  15.749  26.135 -0.36 +0.01    +0.092    35.345
ATOM     40  C   UNL d   1       5.724  15.906  24.679 -0.32 +0.02    +0.330    35.345
ATOM     41  O   UNL d   1       6.674  16.258  24.006 -0.34 -0.02    -0.246    35.345
ATOM     42  O   UNL d   1       4.539  15.589  24.133 -0.24 +0.02    -0.477    35.345
ATOM     43  H   UNL d   1       3.974  16.363  24.333 -0.36 -0.09    +0.295    35.345
ATOM     44  C   UNL d   1       9.641  19.100  36.788 -0.01 +0.04    +0.141    35.345
ATOM     45  C   UNL d   1      10.285  20.258  37.503 -0.00 +0.05    +0.306    35.345
ATOM     46  O   UNL d   1      11.390  20.271  38.016 -0.00 -0.04    -0.251    35.345
ATOM     47  O   UNL d   1       9.485  21.338  37.559 +0.00 -0.07    -0.481    35.345
ATOM     48  H   UNL d   1       9.485  21.694  36.645 +0.00 +0.04    +0.295    35.345
ATOM     49  C   UNL d   1       4.764  20.532  28.600 -0.35 -0.00    +0.048    35.345
ATOM     50  C   UNL d   1       3.450  21.120  29.114 -0.28 -0.02    +0.125    35.345
ATOM     51  C   UNL d   1       2.969  20.377  30.328 -0.19 -0.07    +0.305    35.345
ATOM     52  O   UNL d   1       3.216  19.226  30.642 -0.28 +0.02    -0.251    35.345
ATOM     53  O   UNL d   1       2.169  21.139  31.101 -0.09 +0.23    -0.481    35.345
ATOM     54  H   UNL d   1       1.262  20.869  30.844 -0.39 -0.38    +0.295    35.345
TER
ENDMDL
MODEL       40
USER    Run = 40
USER    Cluster Rank = 17
USER    Number of conformations in this cluster = 2
USER  
USER    RMSD from reference structure       = 40.687 A
USER  
USER    Estimated Free Energy of Binding    =   -6.75 kcal/mol  [=(1)+(2)+(3)-(4)]
USER    Estimated Inhibition Constant, Ki   =   11.24 uM (micromolar)  [Temperature = 298.15 K]
USER    
USER    (1) Final Intermolecular Energy     =  -10.63 kcal/mol
USER        vdW + Hbond + desolv Energy     =  -10.41 kcal/mol
USER        Electrostatic Energy            =   -0.22 kcal/mol
USER    (2) Final Total Internal Energy     =   -2.26 kcal/mol
USER    (3) Torsional Free Energy           =   +3.88 kcal/mol
USER    (4) Unbound System's Energy  [=(2)] =   -2.26 kcal/mol
USER    
USER    
USER  
USER    DPF = D:/Protein_go_brrr/autodock/final/1A3N/heme/dock.dpf
USER    NEWDPF move	heme_opt.pdbqt
USER    NEWDPF about	0.153000 0.018000 -0.028000
USER    NEWDPF tran0	24.653549 -6.316103 35.359385
USER    NEWDPF axisangle0	-0.620309 -0.118751 0.775316 169.840760
USER    NEWDPF quaternion0	-0.617872 -0.118285 0.772271 0.088540
USER    NEWDPF dihe0	94.98 -68.71 114.02 -64.96 -150.34 -119.49 -41.78 112.33 72.01 -131.82 -84.04 171.64 -19.05 
USER  
USER                              x       y       z    vdW   Elec        q     RMS 
ATOM      1  O   UNL d   1      25.765  -8.173  40.843 -0.02 -0.17    -0.289    40.687
ATOM      2  O   UNL d   1      25.343  -1.245  37.977 -0.15 -0.04    -0.289    40.687
ATOM      3  N   UNL d   1      25.214  -7.568  37.492 -0.41 -0.28    -0.247    40.687
ATOM      4  N   UNL d   1      24.908  -4.615  37.373 -0.08 -0.10    -0.247    40.687
ATOM      5  N   UNL d   1      23.865  -4.924  34.712 -0.08 -0.08    -0.354    40.687
ATOM      6  N   UNL d   1      24.168  -7.988  34.851 -0.12 -0.12    -0.354    40.687
ATOM      7  C   UNL d   1      25.243  -9.570  38.906 -0.08 +0.06    +0.084    40.687
ATOM      8  C   UNL d   1      26.008  -3.306  39.119 -0.10 +0.03    +0.084    40.687
ATOM      9  C   UNL d   1      25.623  -4.675  38.549 -0.10 +0.03    +0.058    40.687
ATOM     10  C   UNL d   1      25.052  -8.943  37.522 -0.10 +0.05    +0.058    40.687
ATOM     11  C   UNL d   1      25.559  -8.308  39.651 -0.05 +0.17    +0.193    40.687
ATOM     12  C   UNL d   1      25.537  -7.169  38.679 -0.02 +0.13    +0.109    40.687
ATOM     13  C   UNL d   1      25.348  -2.458  38.068 -0.13 +0.04    +0.193    40.687
ATOM     14  C   UNL d   1      23.940 -10.156  39.456 -0.05 +0.01    +0.026    40.687
ATOM     15  C   UNL d   1      25.913  -5.828  39.171 -0.10 +0.04    +0.055    40.687
ATOM     16  C   UNL d   1      27.521  -3.073  39.061 -0.20 +0.01    +0.026    40.687
ATOM     17  C   UNL d   1      24.712  -3.372  37.073 -0.18 +0.03    +0.109    40.687
ATOM     18  C   UNL d   1      24.837  -9.702  36.430 -0.18 +0.03    +0.050    40.687
ATOM     19  C   UNL d   1      24.733  -9.218  35.101 -0.19 +0.02    +0.045    40.687
ATOM     20  C   UNL d   1      23.585  -3.599  34.922 -0.31 +0.01    +0.045    40.687
ATOM     21  C   UNL d   1      23.949  -2.818  35.944 -0.33 +0.01    +0.057    40.687
ATOM     22  C   UNL d   1      22.631  -4.251  32.952 -0.43 -0.00    -0.019    40.687
ATOM     23  C   UNL d   1      23.330  -5.407  33.547 -0.32 +0.01    +0.045    40.687
ATOM     24  C   UNL d   1      22.787  -3.183  33.770 -0.43 -0.00    -0.022    40.687
ATOM     25  C   UNL d   1      24.085  -7.760  33.497 -0.32 +0.01    +0.049    40.687
ATOM     26  C   UNL d   1      25.060  -9.788  33.880 -0.26 -0.01    -0.018    40.687
ATOM     27  C   UNL d   1      24.666  -8.855  32.872 -0.37 +0.00    +0.003    40.687
ATOM     28  C   UNL d   1      23.396  -6.626  32.989 -0.34 +0.01    +0.052    40.687
ATOM     29  C   UNL d   1      22.277  -1.793  33.596 -0.43 +0.01    +0.046    40.687
ATOM     30  C   UNL d   1      25.700 -11.117  33.661 -0.28 +0.01    +0.046    40.687
ATOM     31  H   UNL d   1      24.477  -5.438  35.336 +0.07 +0.06    +0.166    40.687
ATOM     32  H   UNL d   1      23.828  -7.370  35.578 +0.07 +0.06    +0.166    40.687
ATOM     33  C   UNL d   1      26.401 -10.568  39.022 -0.08 +0.11    +0.141    40.687
ATOM     34  C   UNL d   1      27.431 -10.145  40.034 -0.04 +0.28    +0.306    40.687
ATOM     35  O   UNL d   1      28.466  -9.545  39.800 -0.18 -0.40    -0.251    40.687
ATOM     36  O   UNL d   1      27.100 -10.497  41.289 -0.00 -0.21    -0.481    40.687
ATOM     37  H   UNL d   1      26.554  -9.752  41.619 +0.01 +0.13    +0.295    40.687
ATOM     38  C   UNL d   1      24.810  -9.055  31.462 -0.46 +0.00    +0.017    40.687
ATOM     39  C   UNL d   1      24.809 -10.246  30.844 -0.43 +0.01    +0.092    40.687
ATOM     40  C   UNL d   1      24.948 -10.313  29.387 -0.31 +0.01    +0.330    40.687
ATOM     41  O   UNL d   1      24.175 -10.807  28.588 -0.35 -0.01    -0.246    40.687
ATOM     42  O   UNL d   1      26.091  -9.723  29.004 -0.06 -0.01    -0.477    40.687
ATOM     43  H   UNL d   1      26.643 -10.466  28.685 -0.33 -0.05    +0.295    40.687
ATOM     44  C   UNL d   1      25.451  -2.989  40.510 -0.04 +0.04    +0.141    40.687
ATOM     45  C   UNL d   1      25.889  -1.648  41.035 -0.07 +0.09    +0.306    40.687
ATOM     46  O   UNL d   1      26.920  -1.405  41.638 -0.10 -0.09    -0.251    40.687
ATOM     47  O   UNL d   1      24.986  -0.680  40.794 -0.38 -0.17    -0.481    40.687
ATOM     48  H   UNL d   1      24.985  -0.579  39.818 +0.09 +0.08    +0.295    40.687
ATOM     49  C   UNL d   1      21.870  -4.300  31.659 -0.29 +0.00    +0.048    40.687
ATOM     50  C   UNL d   1      22.662  -3.680  30.509 -0.43 +0.01    +0.125    40.687
ATOM     51  C   UNL d   1      23.377  -4.738  29.718 -0.28 +0.02    +0.305    40.687
ATOM     52  O   UNL d   1      23.092  -5.158  28.610 -0.30 -0.01    -0.251    40.687
ATOM     53  O   UNL d   1      24.437  -5.237  30.385 -0.48 -0.09    -0.481    40.687
ATOM     54  H   UNL d   1      24.196  -6.172  30.552 +0.14 +0.02    +0.295    40.687
TER
ENDMDL
MODEL       95
USER    Run = 95
USER    Cluster Rank = 18
USER    Number of conformations in this cluster = 1
USER  
USER    RMSD from reference structure       = 17.719 A
USER  
USER    Estimated Free Energy of Binding    =   -6.65 kcal/mol  [=(1)+(2)+(3)-(4)]
USER    Estimated Inhibition Constant, Ki   =   13.40 uM (micromolar)  [Temperature = 298.15 K]
USER    
USER    (1) Final Intermolecular Energy     =  -10.53 kcal/mol
USER        vdW + Hbond + desolv Energy     =   -9.44 kcal/mol
USER        Electrostatic Energy            =   -1.09 kcal/mol
USER    (2) Final Total Internal Energy     =   -1.59 kcal/mol
USER    (3) Torsional Free Energy           =   +3.88 kcal/mol
USER    (4) Unbound System's Energy  [=(2)] =   -1.59 kcal/mol
USER    
USER    
USER  
USER    DPF = D:/Protein_go_brrr/autodock/final/1A3N/heme/dock.dpf
USER    NEWDPF move	heme_opt.pdbqt
USER    NEWDPF about	0.153000 0.018000 -0.028000
USER    NEWDPF tran0	16.951045 -0.639249 11.869561
USER    NEWDPF axisangle0	0.316189 0.315294 -0.894771 -166.561717
USER    NEWDPF quaternion0	0.314017 0.313128 -0.888625 -0.117003
USER    NEWDPF dihe0	-177.42 -116.68 -164.15 -26.71 46.91 85.70 -21.10 -12.70 152.60 -111.06 111.61 -150.85 -152.36 
USER  
USER                              x       y       z    vdW   Elec        q     RMS 
ATOM      1  O   UNL d   1      21.671  -2.296  14.989 -0.42 +0.03    -0.289    17.719
ATOM      2  O   UNL d   1      17.816   4.149  14.930 -0.52 -0.24    -0.289    17.719
ATOM      3  N   UNL d   1      19.016  -1.727  12.863 -0.04 +0.01    -0.247    17.719
ATOM      4  N   UNL d   1      17.969   0.903  13.766 -0.05 +0.02    -0.247    17.719
ATOM      5  N   UNL d   1      15.612   0.400  12.198 -0.00 -0.03    -0.354    17.719
ATOM      6  N   UNL d   1      16.697  -2.337  11.282 -0.00 +0.00    -0.354    17.719
ATOM      7  C   UNL d   1      20.427  -3.661  13.388 -0.14 -0.00    +0.084    17.719
ATOM      8  C   UNL d   1      19.542   2.414  14.869 -0.15 -0.01    +0.084    17.719
ATOM      9  C   UNL d   1      19.247   1.038  14.261 -0.14 -0.01    +0.058    17.719
ATOM     10  C   UNL d   1      19.262  -3.063  12.594 -0.10 -0.00    +0.058    17.719
ATOM     11  C   UNL d   1      20.807  -2.421  14.141 -0.14 -0.01    +0.193    17.719
ATOM     12  C   UNL d   1      19.895  -1.312  13.716 -0.11 -0.01    +0.109    17.719
ATOM     13  C   UNL d   1      18.184   3.022  14.660 -0.10 +0.05    +0.193    17.719
ATOM     14  C   UNL d   1      19.957  -4.722  14.387 -0.21 +0.00    +0.026    17.719
ATOM     15  C   UNL d   1      20.141   0.038  14.260 -0.19 -0.01    +0.055    17.719
ATOM     16  C   UNL d   1      20.564   3.194  14.037 -0.15 +0.00    +0.026    17.719
ATOM     17  C   UNL d   1      17.322   2.002  13.990 -0.13 +0.02    +0.109    17.719
ATOM     18  C   UNL d   1      18.612  -3.776  11.655 -0.12 +0.00    +0.050    17.719
ATOM     19  C   UNL d   1      17.581  -3.283  10.815 -0.10 +0.00    +0.045    17.719
ATOM     20  C   UNL d   1      15.202   1.510  12.889 -0.10 +0.01    +0.045    17.719
ATOM     21  C   UNL d   1      15.913   2.304  13.697 -0.17 +0.02    +0.057    17.719
ATOM     22  C   UNL d   1      13.430   0.677  11.713 -0.15 -0.00    -0.019    17.719
ATOM     23  C   UNL d   1      14.611  -0.173  11.460 -0.11 -0.00    +0.045    17.719
ATOM     24  C   UNL d   1      13.787   1.672  12.559 -0.14 -0.01    -0.022    17.719
ATOM     25  C   UNL d   1      15.732  -2.070  10.339 -0.10 -0.00    +0.049    17.719
ATOM     26  C   UNL d   1      17.203  -3.612   9.523 -0.15 +0.00    -0.018    17.719
ATOM     27  C   UNL d   1      16.046  -2.829   9.220 -0.15 -0.00    +0.003    17.719
ATOM     28  C   UNL d   1      14.619  -1.242  10.649 -0.15 -0.01    +0.052    17.719
ATOM     29  C   UNL d   1      12.951   2.783  13.098 -0.20 +0.04    +0.046    17.719
ATOM     30  C   UNL d   1      17.874  -4.592   8.621 -0.24 -0.00    +0.046    17.719
ATOM     31  H   UNL d   1      16.585   0.111  12.195 +0.05 +0.01    +0.166    17.719
ATOM     32  H   UNL d   1      16.745  -1.935  12.211 +0.04 +0.00    +0.166    17.719
ATOM     33  C   UNL d   1      21.606  -4.163  12.548 -0.26 -0.00    +0.141    17.719
ATOM     34  C   UNL d   1      22.468  -5.148  13.290 -0.20 -0.00    +0.306    17.719
ATOM     35  O   UNL d   1      22.449  -6.361  13.164 -0.41 -0.02    -0.251    17.719
ATOM     36  O   UNL d   1      23.311  -4.553  14.152 -0.10 +0.11    -0.481    17.719
ATOM     37  H   UNL d   1      23.125  -3.594  14.057 -0.34 -0.14    +0.295    17.719
ATOM     38  C   UNL d   1      15.320  -2.871   7.987 -0.27 -0.00    +0.017    17.719
ATOM     39  C   UNL d   1      14.627  -3.926   7.532 -0.26 -0.01    +0.092    17.719
ATOM     40  C   UNL d   1      13.911  -3.834   6.257 -0.31 -0.09    +0.330    17.719
ATOM     41  O   UNL d   1      14.359  -4.001   5.139 -0.71 +0.11    -0.246    17.719
ATOM     42  O   UNL d   1      12.620  -3.535   6.473 -0.61 +0.12    -0.477    17.719
ATOM     43  H   UNL d   1      12.651  -2.649   6.889 -0.17 -0.30    +0.295    17.719
ATOM     44  C   UNL d   1      19.921   2.412  16.353 -0.14 -0.11    +0.141    17.719
ATOM     45  C   UNL d   1      19.751   3.756  17.011 -0.15 -0.19    +0.306    17.719
ATOM     46  O   UNL d   1      20.376   4.772  16.760 -0.15 +0.05    -0.251    17.719
ATOM     47  O   UNL d   1      18.815   3.742  17.977 -0.16 +0.62    -0.481    17.719
ATOM     48  H   UNL d   1      18.662   2.791  18.160 -0.29 -0.78    +0.295    17.719
ATOM     49  C   UNL d   1      12.073   0.431  11.123 -0.23 -0.01    +0.048    17.719
ATOM     50  C   UNL d   1      10.996   0.313  12.202 -0.11 +0.08    +0.125    17.719
ATOM     51  C   UNL d   1      11.193  -0.929  13.023 -0.06 +0.22    +0.305    17.719
ATOM     52  O   UNL d   1      11.844  -1.917  12.731 -0.05 -0.08    -0.251    17.719
ATOM     53  O   UNL d   1      10.534  -0.868  14.197 -0.13 -0.73    -0.481    17.719
ATOM     54  H   UNL d   1      10.355  -1.806  14.419 +0.07 +0.24    +0.295    17.719
TER
ENDMDL
MODEL       97
USER    Run = 97
USER    Cluster Rank = 19
USER    Number of conformations in this cluster = 1
USER  
USER    RMSD from reference structure       = 15.268 A
USER  
USER    Estimated Free Energy of Binding    =   -6.61 kcal/mol  [=(1)+(2)+(3)-(4)]
USER    Estimated Inhibition Constant, Ki   =   14.22 uM (micromolar)  [Temperature = 298.15 K]
USER    
USER    (1) Final Intermolecular Energy     =  -10.49 kcal/mol
USER        vdW + Hbond + desolv Energy     =   -9.89 kcal/mol
USER        Electrostatic Energy            =   -0.60 kcal/mol
USER    (2) Final Total Internal Energy     =   -1.17 kcal/mol
USER    (3) Torsional Free Energy           =   +3.88 kcal/mol
USER    (4) Unbound System's Energy  [=(2)] =   -1.17 kcal/mol
USER    
USER    
USER  
USER    DPF = D:/Protein_go_brrr/autodock/final/1A3N/heme/dock.dpf
USER    NEWDPF move	heme_opt.pdbqt
USER    NEWDPF about	0.153000 0.018000 -0.028000
USER    NEWDPF tran0	12.182811 8.473099 9.754729
USER    NEWDPF axisangle0	0.160936 0.057827 0.985269 127.847262
USER    NEWDPF quaternion0	0.144554 0.051941 0.884978 0.439569
USER    NEWDPF dihe0	-157.19 69.86 82.60 40.23 59.51 -121.88 2.26 106.26 170.16 138.21 -66.61 -146.92 -68.80 
USER  
USER                              x       y       z    vdW   Elec        q     RMS 
ATOM      1  O   UNL d   1      16.867  11.869   8.621 -0.25 +0.02    -0.289    15.268
ATOM      2  O   UNL d   1       9.527  13.102   7.619 -0.75 -0.28    -0.289    15.268
ATOM      3  N   UNL d   1      14.462   9.497   9.318 -0.05 -0.05    -0.247    15.268
ATOM      4  N   UNL d   1      11.913  10.968   8.910 -0.03 -0.05    -0.247    15.268
ATOM      5  N   UNL d   1      10.560   8.807  10.239 +0.01 -0.05    -0.354    15.268
ATOM      6  N   UNL d   1      13.212   7.297  10.676 -0.01 -0.13    -0.354    15.268
ATOM      7  C   UNL d   1      16.886   9.649   9.643 -0.19 +0.03    +0.084    15.268
ATOM      8  C   UNL d   1      11.951  12.864   7.369 -0.16 +0.02    +0.084    15.268
ATOM      9  C   UNL d   1      12.711  11.770   8.126 -0.13 +0.01    +0.058    15.268
ATOM     10  C   UNL d   1      15.588   8.853   9.804 -0.15 +0.02    +0.058    15.268
ATOM     11  C   UNL d   1      16.298  10.848   8.963 -0.18 +0.01    +0.193    15.268
ATOM     12  C   UNL d   1      14.827  10.624   8.800 -0.14 +0.01    +0.109    15.268
ATOM     13  C   UNL d   1      10.578  12.558   7.899 -0.13 +0.10    +0.193    15.268
ATOM     14  C   UNL d   1      17.467  10.080  10.993 -0.20 +0.01    +0.026    15.268
ATOM     15  C   UNL d   1      14.046  11.641   8.067 -0.22 +0.00    +0.055    15.268
ATOM     16  C   UNL d   1      11.960  12.621   5.857 -0.45 +0.00    +0.026    15.268
ATOM     17  C   UNL d   1      10.693  11.394   8.828 -0.14 +0.04    +0.109    15.268
ATOM     18  C   UNL d   1      15.587   7.601  10.297 -0.20 +0.05    +0.050    15.268
ATOM     19  C   UNL d   1      14.450   6.760  10.404 -0.18 +0.03    +0.045    15.268
ATOM     20  C   UNL d   1       9.538   9.718  10.170 -0.16 +0.01    +0.045    15.268
ATOM     21  C   UNL d   1       9.505  10.894   9.535 +0.04 +0.03    +0.057    15.268
ATOM     22  C   UNL d   1       8.858   7.939  11.433 -0.15 -0.00    -0.019    15.268
ATOM     23  C   UNL d   1      10.244   7.701  10.981 -0.07 +0.01    +0.045    15.268
ATOM     24  C   UNL d   1       8.445   9.134  10.948 -0.23 -0.00    -0.022    15.268
ATOM     25  C   UNL d   1      12.275   6.300  10.826 -0.09 +0.01    +0.049    15.268
ATOM     26  C   UNL d   1      14.307   5.382  10.340 -0.25 -0.01    -0.018    15.268
ATOM     27  C   UNL d   1      12.928   5.099  10.587 -0.17 +0.00    +0.003    15.268
ATOM     28  C   UNL d   1      10.956   6.599  11.264 -0.12 +0.01    +0.052    15.268
ATOM     29  C   UNL d   1       7.125   9.805  11.119 -0.28 -0.02    +0.046    15.268
ATOM     30  C   UNL d   1      15.384   4.388  10.063 -0.25 +0.03    +0.046    15.268
ATOM     31  H   UNL d   1      11.418   8.938   9.715 +0.05 +0.03    +0.166    15.268
ATOM     32  H   UNL d   1      13.044   8.290  10.787 +0.04 +0.05    +0.166    15.268
ATOM     33  C   UNL d   1      17.951   8.995   8.756 -0.38 +0.04    +0.141    15.268
ATOM     34  C   UNL d   1      19.348   9.207   9.275 -0.26 +0.10    +0.306    15.268
ATOM     35  O   UNL d   1      20.096   8.343   9.700 -0.33 -0.10    -0.251    15.268
ATOM     36  O   UNL d   1      19.728  10.496   9.230 -0.13 -0.08    -0.481    15.268
ATOM     37  H   UNL d   1      18.888  10.999   9.178 -0.12 -0.00    +0.295    15.268
ATOM     38  C   UNL d   1      12.349   3.790  10.628 -0.15 -0.00    +0.017    15.268
ATOM     39  C   UNL d   1      12.567   2.876  11.585 -0.20 +0.03    +0.092    15.268
ATOM     40  C   UNL d   1      11.897   1.575  11.518 -0.14 +0.05    +0.330    15.268
ATOM     41  O   UNL d   1      11.186   1.061  12.361 -0.44 -0.25    -0.246    15.268
ATOM     42  O   UNL d   1      12.162   0.978  10.346 -0.09 +0.41    -0.477    15.268
ATOM     43  H   UNL d   1      11.307   1.005   9.870 -0.27 -0.57    +0.295    15.268
ATOM     44  C   UNL d   1      12.359  14.303   7.702 -0.14 +0.04    +0.141    15.268
ATOM     45  C   UNL d   1      13.489  14.813   6.848 -0.15 +0.06    +0.306    15.268
ATOM     46  O   UNL d   1      14.489  14.197   6.522 -0.33 -0.00    -0.251    15.268
ATOM     47  O   UNL d   1      13.311  16.091   6.468 -0.09 -0.21    -0.481    15.268
ATOM     48  H   UNL d   1      12.945  16.032   5.560 -0.12 +0.07    +0.295    15.268
ATOM     49  C   UNL d   1       8.079   6.994  12.299 -0.23 +0.00    +0.048    15.268
ATOM     50  C   UNL d   1       6.574   7.113  12.061 -0.28 -0.04    +0.125    15.268
ATOM     51  C   UNL d   1       6.025   5.850  11.461 -0.19 -0.07    +0.305    15.268
ATOM     52  O   UNL d   1       5.434   4.951  12.033 -0.27 +0.02    -0.251    15.268
ATOM     53  O   UNL d   1       6.264   5.775  10.136 -0.08 +0.14    -0.481    15.268
ATOM     54  H   UNL d   1       5.438   5.399   9.766 -0.30 -0.14    +0.295    15.268
TER
ENDMDL
MODEL       85
USER    Run = 85
USER    Cluster Rank = 20
USER    Number of conformations in this cluster = 2
USER  
USER    RMSD from reference structure       = 9.197 A
USER  
USER    Estimated Free Energy of Binding    =   -6.60 kcal/mol  [=(1)+(2)+(3)-(4)]
USER    Estimated Inhibition Constant, Ki   =   14.55 uM (micromolar)  [Temperature = 298.15 K]
USER    
USER    (1) Final Intermolecular Energy     =  -10.48 kcal/mol
USER        vdW + Hbond + desolv Energy     =  -10.35 kcal/mol
USER        Electrostatic Energy            =   -0.13 kcal/mol
USER    (2) Final Total Internal Energy     =   -2.75 kcal/mol
USER    (3) Torsional Free Energy           =   +3.88 kcal/mol
USER    (4) Unbound System's Energy  [=(2)] =   -2.75 kcal/mol
USER    
USER    
USER  
USER    DPF = D:/Protein_go_brrr/autodock/final/1A3N/heme/dock.dpf
USER    NEWDPF move	heme_opt.pdbqt
USER    NEWDPF about	0.153000 0.018000 -0.028000
USER    NEWDPF tran0	1.363794 -6.973670 -7.113527
USER    NEWDPF axisangle0	-0.768659 0.089393 -0.633382 141.914773
USER    NEWDPF quaternion0	-0.726595 0.084501 -0.598721 0.326271
USER    NEWDPF dihe0	159.34 81.74 -169.47 106.58 -145.98 -51.53 139.51 -101.67 9.72 -10.09 -113.88 -175.45 -4.53 
USER  
USER                              x       y       z    vdW   Elec        q     RMS 
ATOM      1  O   UNL d   1      -0.484 -10.155 -11.720 -0.01 -0.08    -0.289     9.197
ATOM      2  O   UNL d   1       1.851  -3.032 -11.268 -0.13 -0.09    -0.289     9.197
ATOM      3  N   UNL d   1       0.386  -8.660  -8.736 -0.12 -0.15    -0.247     9.197
ATOM      4  N   UNL d   1       1.442  -6.014  -9.580 -0.18 -0.17    -0.247     9.197
ATOM      5  N   UNL d   1       2.516  -5.701  -6.931 -0.03 -0.11    -0.354     9.197
ATOM      6  N   UNL d   1       1.433  -8.456  -6.070 -0.13 -0.09    -0.354     9.197
ATOM      7  C   UNL d   1      -0.230 -10.932  -9.417 -0.06 +0.02    +0.084     9.197
ATOM      8  C   UNL d   1       0.620  -5.104 -11.694 -0.10 +0.05    +0.084     9.197
ATOM      9  C   UNL d   1       0.674  -6.265 -10.695 -0.13 +0.05    +0.058     9.197
ATOM     10  C   UNL d   1       0.189  -9.962  -8.309 -0.14 +0.02    +0.058     9.197
ATOM     11  C   UNL d   1      -0.254  -9.944 -10.544 -0.04 +0.07    +0.193     9.197
ATOM     12  C   UNL d   1       0.112  -8.598  -9.999 -0.11 +0.07    +0.109     9.197
ATOM     13  C   UNL d   1       1.531  -4.163 -10.958 -0.12 +0.09    +0.193     9.197
ATOM     14  C   UNL d   1       0.848 -11.981  -9.701 -0.07 +0.00    +0.026     9.197
ATOM     15  C   UNL d   1       0.065  -7.441 -10.915 -0.11 +0.05    +0.055     9.197
ATOM     16  C   UNL d   1      -0.777  -4.482 -11.767 -0.21 +0.03    +0.026     9.197
ATOM     17  C   UNL d   1       1.967  -4.836  -9.697 -0.19 +0.05    +0.109     9.197
ATOM     18  C   UNL d   1       0.263 -10.353  -7.022 -0.21 +0.01    +0.050     9.197
ATOM     19  C   UNL d   1       0.560  -9.509  -5.922 -0.26 +0.01    +0.045     9.197
ATOM     20  C   UNL d   1       3.113  -4.637  -7.555 -0.32 +0.01    +0.045     9.197
ATOM     21  C   UNL d   1       2.906  -4.164  -8.788 -0.32 +0.01    +0.057     9.197
ATOM     22  C   UNL d   1       3.976  -4.838  -5.449 -0.42 -0.00    -0.019     9.197
ATOM     23  C   UNL d   1       2.973  -5.902  -5.656 -0.30 +0.01    +0.045     9.197
ATOM     24  C   UNL d   1       4.053  -4.092  -6.576 -0.42 -0.00    -0.022     9.197
ATOM     25  C   UNL d   1       1.645  -7.830  -4.863 -0.34 +0.01    +0.049     9.197
ATOM     26  C   UNL d   1       0.165  -9.547  -4.593 -0.33 -0.00    -0.018     9.197
ATOM     27  C   UNL d   1       0.838  -8.473  -3.934 -0.39 +0.00    +0.003     9.197
ATOM     28  C   UNL d   1       2.628  -6.812  -4.732 -0.23 +0.01    +0.052     9.197
ATOM     29  C   UNL d   1       4.910  -2.903  -6.851 -0.50 +0.00    +0.046     9.197
ATOM     30  C   UNL d   1      -0.780 -10.519  -3.973 -0.37 +0.00    +0.046     9.197
ATOM     31  H   UNL d   1       1.760  -6.213  -7.373 +0.07 +0.08    +0.166     9.197
ATOM     32  H   UNL d   1       1.880  -8.217  -6.948 +0.07 +0.05    +0.166     9.197
ATOM     33  C   UNL d   1      -1.609 -11.577  -9.238 -0.06 +0.03    +0.141     9.197
ATOM     34  C   UNL d   1      -2.713 -10.561  -9.118 -0.07 +0.13    +0.306     9.197
ATOM     35  O   UNL d   1      -3.142 -10.083  -8.082 -0.06 -0.13    -0.251     9.197
ATOM     36  O   UNL d   1      -3.216 -10.200 -10.312 -0.04 -0.21    -0.481     9.197
ATOM     37  H   UNL d   1      -2.500 -10.398 -10.952 +0.02 +0.11    +0.295     9.197
ATOM     38  C   UNL d   1       0.725  -8.159  -2.541 -0.44 +0.00    +0.017     9.197
ATOM     39  C   UNL d   1       0.700  -9.057  -1.545 -0.45 +0.00    +0.092     9.197
ATOM     40  C   UNL d   1       0.599  -8.604  -0.155 -0.30 +0.00    +0.330     9.197
ATOM     41  O   UNL d   1       1.309  -7.800   0.418 -0.29 -0.00    -0.246     9.197
ATOM     42  O   UNL d   1      -0.437  -9.204   0.452 -0.23 +0.04    -0.477     9.197
ATOM     43  H   UNL d   1      -1.154  -8.539   0.404 -0.30 -0.09    +0.295     9.197
ATOM     44  C   UNL d   1       1.163  -5.412 -13.093 -0.02 +0.05    +0.141     9.197
ATOM     45  C   UNL d   1       2.608  -5.835 -13.090 +0.00 +0.07    +0.306     9.197
ATOM     46  O   UNL d   1       3.031  -6.978 -13.081 -0.01 -0.05    -0.251     9.197
ATOM     47  O   UNL d   1       3.451  -4.787 -13.070 +0.01 -0.10    -0.481     9.197
ATOM     48  H   UNL d   1       2.877  -4.010 -12.904 +0.06 +0.07    +0.295     9.197
ATOM     49  C   UNL d   1       4.768  -4.661  -4.187 -0.43 +0.00    +0.048     9.197
ATOM     50  C   UNL d   1       4.036  -3.780  -3.175 -0.41 +0.01    +0.125     9.197
ATOM     51  C   UNL d   1       2.795  -4.461  -2.670 -0.26 +0.04    +0.305     9.197
ATOM     52  O   UNL d   1       1.637  -4.184  -2.929 -0.51 -0.06    -0.251     9.197
ATOM     53  O   UNL d   1       3.083  -5.476  -1.831 -0.12 +0.01    -0.481     9.197
ATOM     54  H   UNL d   1       3.421  -6.183  -2.420 -0.31 -0.06    +0.295     9.197
TER
ENDMDL
MODEL       33
USER    Run = 33
USER    Cluster Rank = 21
USER    Number of conformations in this cluster = 1
USER  
USER    RMSD from reference structure       = 34.099 A
USER  
USER    Estimated Free Energy of Binding    =   -6.46 kcal/mol  [=(1)+(2)+(3)-(4)]
USER    Estimated Inhibition Constant, Ki   =   18.43 uM (micromolar)  [Temperature = 298.15 K]
USER    
USER    (1) Final Intermolecular Energy     =  -10.34 kcal/mol
USER        vdW + Hbond + desolv Energy     =   -9.99 kcal/mol
USER        Electrostatic Energy            =   -0.35 kcal/mol
USER    (2) Final Total Internal Energy     =   -2.83 kcal/mol
USER    (3) Torsional Free Energy           =   +3.88 kcal/mol
USER    (4) Unbound System's Energy  [=(2)] =   -2.83 kcal/mol
USER    
USER    
USER  
USER    DPF = D:/Protein_go_brrr/autodock/final/1A3N/heme/dock.dpf
USER    NEWDPF move	heme_opt.pdbqt
USER    NEWDPF about	0.153000 0.018000 -0.028000
USER    NEWDPF tran0	8.808141 13.623924 31.331175
USER    NEWDPF axisangle0	0.643890 0.087720 -0.760073 -159.352852
USER    NEWDPF quaternion0	0.633467 0.086300 -0.747768 -0.179207
USER    NEWDPF dihe0	85.03 -155.84 180.00 149.86 169.55 62.87 156.70 47.95 110.16 9.73 -97.92 -82.42 -35.48 
USER  
USER                              x       y       z    vdW   Elec        q     RMS 
ATOM      1  O   UNL d   1       9.599  12.728  37.104 -0.03 -0.21    -0.289    34.099
ATOM      2  O   UNL d   1       8.781  19.070  33.167 -0.06 -0.08    -0.289    34.099
ATOM      3  N   UNL d   1       9.293  12.768  33.669 -0.12 -0.17    -0.247    34.099
ATOM      4  N   UNL d   1       8.722  15.621  33.067 -0.09 -0.14    -0.247    34.099
ATOM      5  N   UNL d   1       7.953  14.813  30.418 -0.14 -0.11    -0.354    34.099
ATOM      6  N   UNL d   1       8.529  11.853  31.056 -0.12 -0.12    -0.354    34.099
ATOM      7  C   UNL d   1       9.385  11.012  35.377 -0.19 +0.07    +0.084    34.099
ATOM      8  C   UNL d   1       9.533  17.285  34.663 -0.10 +0.04    +0.084    34.099
ATOM      9  C   UNL d   1       9.331  15.813  34.287 -0.13 +0.03    +0.058    34.099
ATOM     10  C   UNL d   1       9.260  11.403  33.901 -0.21 +0.04    +0.058    34.099
ATOM     11  C   UNL d   1       9.513  12.397  35.936 -0.08 +0.16    +0.193    34.099
ATOM     12  C   UNL d   1       9.469  13.371  34.799 -0.13 +0.08    +0.109    34.099
ATOM     13  C   UNL d   1       8.892  17.893  33.448 -0.09 +0.08    +0.193    34.099
ATOM     14  C   UNL d   1       8.099  10.379  35.914 -0.07 +0.02    +0.026    34.099
ATOM     15  C   UNL d   1       9.672  14.803  35.102 -0.14 +0.04    +0.055    34.099
ATOM     16  C   UNL d   1      11.016  17.667  34.681 -0.14 +0.01    +0.026    34.099
ATOM     17  C   UNL d   1       8.435  16.779  32.563 -0.15 +0.05    +0.109    34.099
ATOM     18  C   UNL d   1       9.215  10.474  32.929 -0.34 +0.03    +0.050    34.099
ATOM     19  C   UNL d   1       9.184  10.741  31.536 -0.30 +0.02    +0.045    34.099
ATOM     20  C   UNL d   1       7.531  16.117  30.397 -0.22 +0.01    +0.045    34.099
ATOM     21  C   UNL d   1       7.727  17.075  31.309 -0.22 +0.02    +0.057    34.099
ATOM     22  C   UNL d   1       6.821  15.082  28.489 -0.43 -0.00    -0.019    34.099
ATOM     23  C   UNL d   1       7.571  14.108  29.307 -0.32 +0.01    +0.045    34.099
ATOM     24  C   UNL d   1       6.802  16.270  29.139 -0.34 -0.00    -0.022    34.099
ATOM     25  C   UNL d   1       8.546  11.868  29.681 -0.24 +0.01    +0.049    34.099
ATOM     26  C   UNL d   1       9.670  10.034  30.447 -0.36 -0.01    -0.018    34.099
ATOM     27  C   UNL d   1       9.282  10.761  29.279 -0.38 +0.00    +0.003    34.099
ATOM     28  C   UNL d   1       7.801  12.834  28.953 -0.11 +0.01    +0.052    34.099
ATOM     29  C   UNL d   1       6.181  17.556  28.713 -0.37 +0.00    +0.046    34.099
ATOM     30  C   UNL d   1      10.450   8.764  30.485 -0.52 +0.02    +0.046    34.099
ATOM     31  H   UNL d   1       8.553  14.465  31.158 +0.08 +0.06    +0.166    34.099
ATOM     32  H   UNL d   1       8.070  12.532  31.651 +0.09 +0.07    +0.166    34.099
ATOM     33  C   UNL d   1      10.617  10.172  35.731 -0.21 +0.16    +0.141    34.099
ATOM     34  C   UNL d   1      10.980  10.264  37.189 -0.12 +0.34    +0.306    34.099
ATOM     35  O   UNL d   1      12.103  10.400  37.644 -0.30 -0.41    -0.251    34.099
ATOM     36  O   UNL d   1       9.908  10.182  37.996 -0.06 -0.29    -0.481    34.099
ATOM     37  H   UNL d   1       9.687  11.114  38.209 +0.06 +0.18    +0.295    34.099
ATOM     38  C   UNL d   1       9.568  10.371  27.931 -0.36 +0.00    +0.017    34.099
ATOM     39  C   UNL d   1       8.688  10.380  26.919 -0.38 +0.01    +0.092    34.099
ATOM     40  C   UNL d   1       9.114   9.972  25.577 -0.27 +0.03    +0.330    34.099
ATOM     41  O   UNL d   1       9.554   8.892  25.233 -0.34 -0.02    -0.246    34.099
ATOM     42  O   UNL d   1       8.946  10.984  24.712 -0.15 -0.02    -0.477    34.099
ATOM     43  H   UNL d   1       8.968  11.783  25.278 +0.15 -0.00    +0.295    34.099
ATOM     44  C   UNL d   1       8.827  17.743  35.943 -0.05 +0.07    +0.141    34.099
ATOM     45  C   UNL d   1       7.447  17.162  36.100 -0.03 +0.32    +0.306    34.099
ATOM     46  O   UNL d   1       7.087  16.361  36.945 -0.26 -0.35    -0.251    34.099
ATOM     47  O   UNL d   1       6.592  17.605  35.161 -0.48 -0.60    -0.481    34.099
ATOM     48  H   UNL d   1       7.123  18.223  34.614 +0.04 +0.20    +0.295    34.099
ATOM     49  C   UNL d   1       6.186  14.761  27.168 -0.45 +0.01    +0.048    34.099
ATOM     50  C   UNL d   1       6.770  15.605  26.036 -0.44 +0.01    +0.125    34.099
ATOM     51  C   UNL d   1       8.049  15.005  25.523 -0.17 +0.02    +0.305    34.099
ATOM     52  O   UNL d   1       8.287  13.828  25.319 -0.29 -0.01    -0.251    34.099
ATOM     53  O   UNL d   1       8.991  15.942  25.299 -0.08 -0.05    -0.481    34.099
ATOM     54  H   UNL d   1       8.479  16.741  25.052 +0.21 +0.04    +0.295    34.099
TER
ENDMDL
MODEL       43
USER    Run = 43
USER    Cluster Rank = 22
USER    Number of conformations in this cluster = 2
USER  
USER    RMSD from reference structure       = 20.242 A
USER  
USER    Estimated Free Energy of Binding    =   -6.33 kcal/mol  [=(1)+(2)+(3)-(4)]
USER    Estimated Inhibition Constant, Ki   =   23.04 uM (micromolar)  [Temperature = 298.15 K]
USER    
USER    (1) Final Intermolecular Energy     =  -10.20 kcal/mol
USER        vdW + Hbond + desolv Energy     =   -9.72 kcal/mol
USER        Electrostatic Energy            =   -0.48 kcal/mol
USER    (2) Final Total Internal Energy     =   -2.21 kcal/mol
USER    (3) Torsional Free Energy           =   +3.88 kcal/mol
USER    (4) Unbound System's Energy  [=(2)] =   -2.21 kcal/mol
USER    
USER    
USER  
USER    DPF = D:/Protein_go_brrr/autodock/final/1A3N/heme/dock.dpf
USER    NEWDPF move	heme_opt.pdbqt
USER    NEWDPF about	0.153000 0.018000 -0.028000
USER    NEWDPF tran0	18.816040 -7.940771 -12.528092
USER    NEWDPF axisangle0	0.113200 -0.371517 -0.921499 175.335103
USER    NEWDPF quaternion0	0.113106 -0.371210 -0.920736 0.040698
USER    NEWDPF dihe0	-170.12 93.29 148.18 135.65 49.74 89.76 -48.84 96.32 160.87 -104.55 129.08 -2.68 -159.17 
USER  
USER                              x       y       z    vdW   Elec        q     RMS 
ATOM      1  O   UNL d   1      23.881  -8.659  -9.598 -0.81 +0.07    -0.289    20.242
ATOM      2  O   UNL d   1      22.448  -5.516 -16.266 -0.06 +0.03    -0.289    20.242
ATOM      3  N   UNL d   1      20.726  -8.587 -10.990 -0.13 +0.08    -0.247    20.242
ATOM      4  N   UNL d   1      21.089  -6.914 -13.418 -0.18 +0.08    -0.247    20.242
ATOM      5  N   UNL d   1      18.226  -6.727 -13.604 -0.06 +0.07    -0.354    20.242
ATOM      6  N   UNL d   1      17.859  -8.448 -11.073 -0.13 +0.05    -0.354    20.242
ATOM      7  C   UNL d   1      21.649  -9.295  -8.832 -0.17 -0.01    +0.084    20.242
ATOM      8  C   UNL d   1      23.322  -6.849 -14.408 -0.23 -0.02    +0.084    20.242
ATOM      9  C   UNL d   1      22.400  -7.306 -13.272 -0.28 -0.02    +0.058    20.242
ATOM     10  C   UNL d   1      20.431  -9.114  -9.743 -0.18 -0.01    +0.058    20.242
ATOM     11  C   UNL d   1      22.687  -8.796  -9.791 -0.17 -0.06    +0.193    20.242
ATOM     12  C   UNL d   1      22.006  -8.421 -11.071 -0.21 -0.04    +0.109    20.242
ATOM     13  C   UNL d   1      22.298  -6.093 -15.206 -0.14 -0.03    +0.193    20.242
ATOM     14  C   UNL d   1      21.604  -8.361  -7.620 -0.36 -0.00    +0.026    20.242
ATOM     15  C   UNL d   1      22.847  -7.986 -12.205 -0.16 -0.02    +0.055    20.242
ATOM     16  C   UNL d   1      23.822  -8.031 -15.244 -0.10 -0.00    +0.026    20.242
ATOM     17  C   UNL d   1      20.988  -6.202 -14.495 -0.21 -0.02    +0.109    20.242
ATOM     18  C   UNL d   1      19.205  -9.525  -9.369 -0.18 -0.01    +0.050    20.242
ATOM     19  C   UNL d   1      18.039  -9.475 -10.175 -0.18 -0.01    +0.045    20.242
ATOM     20  C   UNL d   1      18.584  -5.801 -14.549 -0.19 -0.00    +0.045    20.242
ATOM     21  C   UNL d   1      19.800  -5.518 -15.026 -0.21 -0.00    +0.057    20.242
ATOM     22  C   UNL d   1      16.321  -5.714 -14.251 -0.14 -0.00    -0.019    20.242
ATOM     23  C   UNL d   1      16.879  -6.748 -13.357 -0.19 -0.00    +0.045    20.242
ATOM     24  C   UNL d   1      17.335  -5.158 -14.955 -0.14 -0.00    -0.022    20.242
ATOM     25  C   UNL d   1      16.628  -8.546 -11.679 -0.19 -0.00    +0.049    20.242
ATOM     26  C   UNL d   1      16.913 -10.282 -10.224 -0.17 +0.00    -0.018    20.242
ATOM     27  C   UNL d   1      16.033  -9.701 -11.190 -0.15 +0.00    +0.003    20.242
ATOM     28  C   UNL d   1      16.150  -7.513 -12.530 -0.25 +0.00    +0.052    20.242
ATOM     29  C   UNL d   1      17.275  -4.084 -15.987 -0.08 +0.00    +0.046    20.242
ATOM     30  C   UNL d   1      16.667 -11.517  -9.427 -0.23 -0.00    +0.046    20.242
ATOM     31  H   UNL d   1      18.906  -7.368 -13.211 -0.17 -0.05    +0.166    20.242
ATOM     32  H   UNL d   1      18.535  -7.708 -11.222 -0.42 -0.07    +0.166    20.242
ATOM     33  C   UNL d   1      21.950 -10.740  -8.418 -0.06 -0.01    +0.141    20.242
ATOM     34  C   UNL d   1      22.635 -10.828  -7.082 -0.06 +0.02    +0.306    20.242
ATOM     35  O   UNL d   1      22.119 -11.160  -6.028 -0.29 -0.09    -0.251    20.242
ATOM     36  O   UNL d   1      23.937 -10.496  -7.144 -0.05 -0.01    -0.481    20.242
ATOM     37  H   UNL d   1      24.063 -10.163  -8.057 +0.11 -0.03    +0.295    20.242
ATOM     38  C   UNL d   1      14.743 -10.211 -11.543 -0.20 +0.00    +0.017    20.242
ATOM     39  C   UNL d   1      14.194 -10.150 -12.765 -0.21 +0.03    +0.092    20.242
ATOM     40  C   UNL d   1      12.868 -10.727 -13.000 -0.15 +0.18    +0.330    20.242
ATOM     41  O   UNL d   1      11.786 -10.189 -12.857 -0.22 -0.09    -0.246    20.242
ATOM     42  O   UNL d   1      12.984 -11.995 -13.425 -0.37 -0.56    -0.477    20.242
ATOM     43  H   UNL d   1      13.084 -11.909 -14.395 +0.04 +0.19    +0.295    20.242
ATOM     44  C   UNL d   1      24.479  -5.935 -13.993 -0.15 -0.04    +0.141    20.242
ATOM     45  C   UNL d   1      24.959  -5.041 -15.105 -0.22 -0.07    +0.306    20.242
ATOM     46  O   UNL d   1      25.866  -5.275 -15.885 -0.15 +0.05    -0.251    20.242
ATOM     47  O   UNL d   1      24.284  -3.878 -15.159 -0.45 +0.06    -0.481    20.242
ATOM     48  H   UNL d   1      23.377  -4.104 -14.861 -0.18 -0.09    +0.295    20.242
ATOM     49  C   UNL d   1      14.865  -5.359 -14.323 -0.09 +0.00    +0.048    20.242
ATOM     50  C   UNL d   1      14.611  -3.910 -13.907 -0.09 +0.01    +0.125    20.242
ATOM     51  C   UNL d   1      15.276  -3.605 -12.595 -0.16 +0.02    +0.305    20.242
ATOM     52  O   UNL d   1      16.403  -3.178 -12.415 -0.29 -0.02    -0.251    20.242
ATOM     53  O   UNL d   1      14.471  -3.871 -11.547 -0.10 -0.03    -0.481    20.242
ATOM     54  H   UNL d   1      13.605  -3.494 -11.810 +0.10 +0.02    +0.295    20.242
TER
ENDMDL
MODEL       69
USER    Run = 69
USER    Cluster Rank = 23
USER    Number of conformations in this cluster = 1
USER  
USER    RMSD from reference structure       = 20.701 A
USER  
USER    Estimated Free Energy of Binding    =   -6.30 kcal/mol  [=(1)+(2)+(3)-(4)]
USER    Estimated Inhibition Constant, Ki   =   23.97 uM (micromolar)  [Temperature = 298.15 K]
USER    
USER    (1) Final Intermolecular Energy     =  -10.18 kcal/mol
USER        vdW + Hbond + desolv Energy     =  -10.13 kcal/mol
USER        Electrostatic Energy            =   -0.05 kcal/mol
USER    (2) Final Total Internal Energy     =   -4.42 kcal/mol
USER    (3) Torsional Free Energy           =   +3.88 kcal/mol
USER    (4) Unbound System's Energy  [=(2)] =   -4.42 kcal/mol
USER    
USER    
USER  
USER    DPF = D:/Protein_go_brrr/autodock/final/1A3N/heme/dock.dpf
USER    NEWDPF move	heme_opt.pdbqt
USER    NEWDPF about	0.153000 0.018000 -0.028000
USER    NEWDPF tran0	23.116290 7.560482 -6.588573
USER    NEWDPF axisangle0	-0.698798 0.241515 -0.673314 148.418262
USER    NEWDPF quaternion0	-0.672427 0.232401 -0.647904 0.272127
USER    NEWDPF dihe0	104.48 131.49 80.26 -58.23 -137.92 115.89 -53.85 36.19 49.12 -81.64 -82.81 -124.17 10.54 
USER  
USER                              x       y       z    vdW   Elec        q     RMS 
ATOM      1  O   UNL d   1      22.181   5.647 -12.086 -0.03 -0.12    -0.289    20.701
ATOM      2  O   UNL d   1      25.024  12.112  -9.534 -0.07 -0.11    -0.289    20.701
ATOM      3  N   UNL d   1      22.416   6.388  -8.725 -0.12 -0.10    -0.247    20.701
ATOM      4  N   UNL d   1      23.909   8.956  -8.695 -0.13 -0.17    -0.247    20.701
ATOM      5  N   UNL d   1      24.306   8.585  -5.871 -0.15 -0.10    -0.354    20.701
ATOM      6  N   UNL d   1      22.773   5.911  -5.916 -0.04 -0.08    -0.354    20.701
ATOM      7  C   UNL d   1      21.768   4.409 -10.019 -0.21 +0.03    +0.084    20.701
ATOM      8  C   UNL d   1      23.740  10.371 -10.680 -0.12 +0.05    +0.084    20.701
ATOM      9  C   UNL d   1      23.424   9.045  -9.981 -0.16 +0.04    +0.058    20.701
ATOM     10  C   UNL d   1      21.989   5.072  -8.656 -0.24 +0.02    +0.058    20.701
ATOM     11  C   UNL d   1      22.127   5.589 -10.871 -0.07 +0.08    +0.193    20.701
ATOM     12  C   UNL d   1      22.476   6.733  -9.970 -0.12 +0.06    +0.109    20.701
ATOM     13  C   UNL d   1      24.525  11.004  -9.566 -0.12 +0.11    +0.193    20.701
ATOM     14  C   UNL d   1      22.773   3.285 -10.281 -0.09 +0.01    +0.026    20.701
ATOM     15  C   UNL d   1      22.777   8.040 -10.590 -0.14 +0.04    +0.055    20.701
ATOM     16  C   UNL d   1      22.475  11.200 -10.923 -0.13 +0.01    +0.026    20.701
ATOM     17  C   UNL d   1      24.560  10.042  -8.424 -0.20 +0.06    +0.109    20.701
ATOM     18  C   UNL d   1      21.697   4.433  -7.508 -0.39 +0.01    +0.050    20.701
ATOM     19  C   UNL d   1      21.790   4.993  -6.208 -0.34 +0.01    +0.045    20.701
ATOM     20  C   UNL d   1      25.144   9.648  -6.089 -0.30 +0.01    +0.045    20.701
ATOM     21  C   UNL d   1      25.303  10.376  -7.199 -0.28 +0.02    +0.057    20.701
ATOM     22  C   UNL d   1      25.424   8.915  -3.944 -0.44 -0.00    -0.019    20.701
ATOM     23  C   UNL d   1      24.405   8.075  -4.604 -0.34 +0.01    +0.045    20.701
ATOM     24  C   UNL d   1      25.857   9.845  -4.828 -0.40 -0.00    -0.022    20.701
ATOM     25  C   UNL d   1      22.735   6.252  -4.584 -0.27 +0.01    +0.049    20.701
ATOM     26  C   UNL d   1      21.072   4.759  -5.046 -0.41 -0.00    -0.018    20.701
ATOM     27  C   UNL d   1      21.660   5.571  -4.028 -0.40 +0.00    +0.003    20.701
ATOM     28  C   UNL d   1      23.750   7.066  -4.010 -0.31 +0.01    +0.052    20.701
ATOM     29  C   UNL d   1      26.869  10.921  -4.629 -0.36 +0.00    +0.046    20.701
ATOM     30  C   UNL d   1      19.908   3.839  -4.888 -0.51 +0.01    +0.046    20.701
ATOM     31  H   UNL d   1      23.638   8.289  -6.575 +0.09 +0.05    +0.166    20.701
ATOM     32  H   UNL d   1      23.447   6.245  -6.594 +0.10 +0.05    +0.166    20.701
ATOM     33  C   UNL d   1      20.331   3.957 -10.304 -0.06 +0.04    +0.141    20.701
ATOM     34  C   UNL d   1      19.558   4.963 -11.113 -0.09 +0.08    +0.306    20.701
ATOM     35  O   UNL d   1      18.974   5.941 -10.679 -0.09 -0.07    -0.251    20.701
ATOM     36  O   UNL d   1      19.563   4.684 -12.429 -0.02 -0.11    -0.481    20.701
ATOM     37  H   UNL d   1      20.444   4.982 -12.741 +0.04 +0.07    +0.295    20.701
ATOM     38  C   UNL d   1      21.232   5.623  -2.663 -0.37 +0.00    +0.017    20.701
ATOM     39  C   UNL d   1      21.727   4.871  -1.667 -0.40 +0.01    +0.092    20.701
ATOM     40  C   UNL d   1      21.212   5.033  -0.305 -0.28 +0.02    +0.330    20.701
ATOM     41  O   UNL d   1      20.583   4.227   0.353 -0.36 -0.01    -0.246    20.701
ATOM     42  O   UNL d   1      21.540   6.245   0.171 -0.13 -0.01    -0.477    20.701
ATOM     43  H   UNL d   1      22.496   6.323  -0.025 +0.19 +0.01    +0.295    20.701
ATOM     44  C   UNL d   1      24.585  10.262 -11.954 -0.08 +0.12    +0.141    20.701
ATOM     45  C   UNL d   1      25.747  11.219 -11.980 -0.06 +0.21    +0.306    20.701
ATOM     46  O   UNL d   1      25.786  12.299 -12.542 -0.02 -0.10    -0.251    20.701
ATOM     47  O   UNL d   1      26.817  10.747 -11.314 -0.28 -0.53    -0.481    20.701
ATOM     48  H   UNL d   1      26.791  11.206 -10.447 +0.04 +0.23    +0.295    20.701
ATOM     49  C   UNL d   1      25.886   8.723  -2.530 -0.37 +0.01    +0.048    20.701
ATOM     50  C   UNL d   1      24.829   9.169  -1.520 -0.41 +0.01    +0.125    20.701
ATOM     51  C   UNL d   1      24.039   7.995  -1.016 -0.26 +0.01    +0.305    20.701
ATOM     52  O   UNL d   1      24.416   6.843  -0.893 -0.24 -0.01    -0.251    20.701
ATOM     53  O   UNL d   1      22.775   8.338  -0.696 -0.13 +0.03    -0.481    20.701
ATOM     54  H   UNL d   1      22.221   7.765  -1.267 -0.08 -0.06    +0.295    20.701
TER
ENDMDL
MODEL       21
USER    Run = 21
USER    Cluster Rank = 24
USER    Number of conformations in this cluster = 1
USER  
USER    RMSD from reference structure       = 37.606 A
USER  
USER    Estimated Free Energy of Binding    =   -6.22 kcal/mol  [=(1)+(2)+(3)-(4)]
USER    Estimated Inhibition Constant, Ki   =   27.42 uM (micromolar)  [Temperature = 298.15 K]
USER    
USER    (1) Final Intermolecular Energy     =  -10.10 kcal/mol
USER        vdW + Hbond + desolv Energy     =   -9.72 kcal/mol
USER        Electrostatic Energy            =   -0.38 kcal/mol
USER    (2) Final Total Internal Energy     =   -1.57 kcal/mol
USER    (3) Torsional Free Energy           =   +3.88 kcal/mol
USER    (4) Unbound System's Energy  [=(2)] =   -1.57 kcal/mol
USER    
USER    
USER  
USER    DPF = D:/Protein_go_brrr/autodock/final/1A3N/heme/dock.dpf
USER    NEWDPF move	heme_opt.pdbqt
USER    NEWDPF about	0.153000 0.018000 -0.028000
USER    NEWDPF tran0	29.929026 16.405789 23.361660
USER    NEWDPF axisangle0	-0.431745 -0.880564 0.195458 -172.424742
USER    NEWDPF quaternion0	-0.430802 -0.878640 0.195031 -0.066058
USER    NEWDPF dihe0	-97.35 27.35 -137.15 -60.83 33.28 -95.78 -33.31 30.21 120.86 -169.80 -24.64 -106.75 141.95 
USER  
USER                              x       y       z    vdW   Elec        q     RMS 
ATOM      1  O   UNL d   1      34.459  12.762  22.385 -0.13 -0.01    -0.289    37.606
ATOM      2  O   UNL d   1      28.481  12.099  26.881 -0.21 +0.03    -0.289    37.606
ATOM      3  N   UNL d   1      32.099  15.252  22.735 -0.01 +0.04    -0.247    37.606
ATOM      4  N   UNL d   1      30.017  13.986  24.434 -0.04 +0.05    -0.247    37.606
ATOM      5  N   UNL d   1      28.264  16.158  23.744 -0.03 +0.12    -0.354    37.606
ATOM      6  N   UNL d   1      30.424  17.455  21.967 -0.03 +0.04    -0.354    37.606
ATOM      7  C   UNL d   1      34.058  14.915  21.300 -0.18 -0.01    +0.084    37.606
ATOM      8  C   UNL d   1      30.730  12.181  25.918 -0.28 -0.01    +0.084    37.606
ATOM      9  C   UNL d   1      31.067  13.176  24.803 -0.17 -0.01    +0.058    37.606
ATOM     10  C   UNL d   1      32.871  15.788  21.717 -0.12 -0.01    +0.058    37.606
ATOM     11  C   UNL d   1      33.831  13.799  22.275 -0.13 -0.02    +0.193    37.606
ATOM     12  C   UNL d   1      32.631  14.133  23.105 -0.10 -0.01    +0.109    37.606
ATOM     13  C   UNL d   1      29.284  12.551  26.089 -0.15 -0.03    +0.193    37.606
ATOM     14  C   UNL d   1      33.899  14.370  19.878 -0.45 -0.01    +0.026    37.606
ATOM     15  C   UNL d   1      32.267  13.216  24.204 -0.20 -0.00    +0.055    37.606
ATOM     16  C   UNL d   1      31.478  12.507  27.215 -0.43 -0.00    +0.026    37.606
ATOM     17  C   UNL d   1      28.975  13.652  25.126 -0.12 -0.02    +0.109    37.606
ATOM     18  C   UNL d   1      32.674  17.009  21.184 -0.23 -0.01    +0.050    37.606
ATOM     19  C   UNL d   1      31.656  17.919  21.566 -0.13 +0.00    +0.045    37.606
ATOM     20  C   UNL d   1      27.373  15.327  24.370 -0.18 -0.02    +0.045    37.606
ATOM     21  C   UNL d   1      27.611  14.193  25.037 -0.23 -0.01    +0.057    37.606
ATOM     22  C   UNL d   1      26.228  17.074  23.446 -0.20 +0.01    -0.019    37.606
ATOM     23  C   UNL d   1      27.666  17.241  23.156 -0.11 -0.01    +0.045    37.606
ATOM     24  C   UNL d   1      26.061  15.940  24.166 -0.28 +0.01    -0.022    37.606
ATOM     25  C   UNL d   1      29.566  18.504  22.203 -0.09 -0.00    +0.049    37.606
ATOM     26  C   UNL d   1      31.609  19.305  21.577 -0.04 -0.00    -0.018    37.606
ATOM     27  C   UNL d   1      30.293  19.668  21.999 -0.10 +0.00    +0.003    37.606
ATOM     28  C   UNL d   1      28.190  18.273  22.477 -0.11 -0.00    +0.052    37.606
ATOM     29  C   UNL d   1      24.800  15.354  24.705 -0.30 -0.02    +0.046    37.606
ATOM     30  C   UNL d   1      32.718  20.236  21.221 -0.22 +0.02    +0.046    37.606
ATOM     31  H   UNL d   1      29.264  15.997  23.802 +0.04 -0.04    +0.166    37.606
ATOM     32  H   UNL d   1      30.189  16.471  22.032 +0.06 -0.04    +0.166    37.606
ATOM     33  C   UNL d   1      35.440  15.541  21.511 -0.17 -0.01    +0.141    37.606
ATOM     34  C   UNL d   1      36.558  14.547  21.346 -0.04 +0.00    +0.306    37.606
ATOM     35  O   UNL d   1      37.113  14.255  20.300 -0.73 -0.03    -0.251    37.606
ATOM     36  O   UNL d   1      36.919  13.976  22.508 -0.03 +0.00    -0.481    37.606
ATOM     37  H   UNL d   1      36.246  13.278  22.660 +0.13 +0.02    +0.295    37.606
ATOM     38  C   UNL d   1      29.811  21.010  22.134 -0.11 +0.00    +0.017    37.606
ATOM     39  C   UNL d   1      28.900  21.589  21.338 -0.12 +0.02    +0.092    37.606
ATOM     40  C   UNL d   1      28.477  22.968  21.595 -0.03 +0.06    +0.330    37.606
ATOM     41  O   UNL d   1      27.484  23.343  22.188 -0.01 -0.03    -0.246    37.606
ATOM     42  O   UNL d   1      29.368  23.828  21.078 -0.03 -0.09    -0.477    37.606
ATOM     43  H   UNL d   1      29.279  24.625  21.640 +0.04 +0.04    +0.295    37.606
ATOM     44  C   UNL d   1      30.878  10.701  25.550 -0.43 -0.02    +0.141    37.606
ATOM     45  C   UNL d   1      31.463   9.868  26.660 -0.42 -0.03    +0.306    37.606
ATOM     46  O   UNL d   1      32.636   9.810  26.983 -0.50 +0.03    -0.251    37.606
ATOM     47  O   UNL d   1      30.535   9.125  27.290 -0.19 +0.08    -0.481    37.606
ATOM     48  H   UNL d   1      29.967   8.775  26.571 -0.22 -0.11    +0.295    37.606
ATOM     49  C   UNL d   1      25.160  18.022  22.985 -0.28 -0.01    +0.048    37.606
ATOM     50  C   UNL d   1      25.139  18.158  21.463 -0.24 -0.03    +0.125    37.606
ATOM     51  C   UNL d   1      23.788  18.604  20.982 -0.23 +0.01    +0.305    37.606
ATOM     52  O   UNL d   1      22.940  19.214  21.609 -0.25 -0.05    -0.251    37.606
ATOM     53  O   UNL d   1      23.561  18.237  19.705 -0.52 -0.22    -0.481    37.606
ATOM     54  H   UNL d   1      22.777  17.651  19.761 -0.42 -0.00    +0.295    37.606
TER
ENDMDL
MODEL       44
USER    Run = 44
USER    Cluster Rank = 25
USER    Number of conformations in this cluster = 1
USER  
USER    RMSD from reference structure       = 18.796 A
USER  
USER    Estimated Free Energy of Binding    =   -6.01 kcal/mol  [=(1)+(2)+(3)-(4)]
USER    Estimated Inhibition Constant, Ki   =   39.12 uM (micromolar)  [Temperature = 298.15 K]
USER    
USER    (1) Final Intermolecular Energy     =   -9.89 kcal/mol
USER        vdW + Hbond + desolv Energy     =   -9.16 kcal/mol
USER        Electrostatic Energy            =   -0.73 kcal/mol
USER    (2) Final Total Internal Energy     =   -2.06 kcal/mol
USER    (3) Torsional Free Energy           =   +3.88 kcal/mol
USER    (4) Unbound System's Energy  [=(2)] =   -2.06 kcal/mol
USER    
USER    
USER  
USER    DPF = D:/Protein_go_brrr/autodock/final/1A3N/heme/dock.dpf
USER    NEWDPF move	heme_opt.pdbqt
USER    NEWDPF about	0.153000 0.018000 -0.028000
USER    NEWDPF tran0	19.756763 3.016243 -10.699384
USER    NEWDPF axisangle0	-0.967055 -0.250282 -0.046508 -92.998610
USER    NEWDPF quaternion0	-0.701469 -0.181546 -0.033736 -0.688363
USER    NEWDPF dihe0	163.27 75.96 -102.89 -65.37 -143.26 55.79 180.00 72.18 20.12 15.13 68.12 -170.79 115.85 
USER  
USER                              x       y       z    vdW   Elec        q     RMS 
ATOM      1  O   UNL d   1      14.906   2.504 -14.010 -0.00 -0.03    -0.289    18.796
ATOM      2  O   UNL d   1      16.142   0.853  -6.790 -0.79 -0.24    -0.289    18.796
ATOM      3  N   UNL d   1      17.995   2.852 -12.517 -0.10 -0.04    -0.247    18.796
ATOM      4  N   UNL d   1      17.441   2.268  -9.657 -0.15 -0.04    -0.247    18.796
ATOM      5  N   UNL d   1      20.027   3.356  -9.029 -0.09 -0.09    -0.354    18.796
ATOM      6  N   UNL d   1      20.586   3.976 -11.996 -0.07 -0.09    -0.354    18.796
ATOM      7  C   UNL d   1      17.062   3.418 -14.711 -0.02 +0.01    +0.084    18.796
ATOM      8  C   UNL d   1      15.529   0.829  -9.160 -0.25 +0.03    +0.084    18.796
ATOM      9  C   UNL d   1      16.359   1.603 -10.189 -0.20 +0.01    +0.058    18.796
ATOM     10  C   UNL d   1      18.258   3.414 -13.754 -0.07 +0.01    +0.058    18.796
ATOM     11  C   UNL d   1      16.081   2.741 -13.801 -0.01 +0.02    +0.193    18.796
ATOM     12  C   UNL d   1      16.774   2.425 -12.512 -0.09 +0.01    +0.109    18.796
ATOM     13  C   UNL d   1      16.319   1.207  -7.939 -0.19 +0.09    +0.193    18.796
ATOM     14  C   UNL d   1      16.566   4.836 -15.006 -0.01 +0.00    +0.026    18.796
ATOM     15  C   UNL d   1      16.026   1.668 -11.488 -0.14 +0.01    +0.055    18.796
ATOM     16  C   UNL d   1      15.637  -0.685  -9.366 -0.33 +0.01    +0.026    18.796
ATOM     17  C   UNL d   1      17.446   2.087  -8.375 -0.28 +0.02    +0.109    18.796
ATOM     18  C   UNL d   1      19.472   3.845 -14.145 -0.07 +0.01    +0.050    18.796
ATOM     19  C   UNL d   1      20.652   3.802 -13.360 -0.10 +0.01    +0.045    18.796
ATOM     20  C   UNL d   1      19.511   3.230  -7.765 -0.36 +0.01    +0.045    18.796
ATOM     21  C   UNL d   1      18.369   2.651  -7.380 -0.35 +0.01    +0.057    18.796
ATOM     22  C   UNL d   1      21.506   4.336  -7.641 -0.35 -0.00    -0.019    18.796
ATOM     23  C   UNL d   1      21.229   4.011  -9.055 -0.27 +0.01    +0.045    18.796
ATOM     24  C   UNL d   1      20.486   3.870  -6.883 -0.38 -0.00    -0.022    18.796
ATOM     25  C   UNL d   1      21.848   3.988 -11.448 -0.14 +0.02    +0.049    18.796
ATOM     26  C   UNL d   1      21.988   3.659 -13.702 -0.10 -0.00    -0.018    18.796
ATOM     27  C   UNL d   1      22.737   3.758 -12.489 -0.17 +0.00    +0.003    18.796
ATOM     28  C   UNL d   1      22.045   4.309 -10.078 -0.27 +0.02    +0.052    18.796
ATOM     29  C   UNL d   1      20.314   3.944  -5.403 -0.49 +0.01    +0.046    18.796
ATOM     30  C   UNL d   1      22.537   3.442 -15.072 -0.06 +0.01    +0.046    18.796
ATOM     31  H   UNL d   1      19.574   2.924  -9.827 +0.08 +0.04    +0.166    18.796
ATOM     32  H   UNL d   1      19.719   4.117 -11.491 +0.04 +0.04    +0.166    18.796
ATOM     33  C   UNL d   1      17.248   2.609 -15.999 -0.02 +0.01    +0.141    18.796
ATOM     34  C   UNL d   1      17.330   1.128 -15.745 -0.03 +0.03    +0.306    18.796
ATOM     35  O   UNL d   1      18.344   0.492 -15.512 -0.08 -0.03    -0.251    18.796
ATOM     36  O   UNL d   1      16.128   0.526 -15.797 +0.00 -0.04    -0.481    18.796
ATOM     37  H   UNL d   1      15.482   1.254 -15.678 +0.02 +0.02    +0.295    18.796
ATOM     38  C   UNL d   1      24.163   3.680 -12.391 -0.21 +0.01    +0.017    18.796
ATOM     39  C   UNL d   1      25.030   4.324 -13.187 -0.11 +0.05    +0.092    18.796
ATOM     40  C   UNL d   1      26.471   4.172 -12.970 -0.08 +0.23    +0.330    18.796
ATOM     41  O   UNL d   1      27.109   3.139 -12.904 -0.15 -0.12    -0.246    18.796
ATOM     42  O   UNL d   1      27.050   5.378 -12.853 -0.57 -0.69    -0.477    18.796
ATOM     43  H   UNL d   1      27.497   5.508 -13.715 +0.06 +0.27    +0.295    18.796
ATOM     44  C   UNL d   1      14.067   1.267  -9.025 -0.17 +0.07    +0.141    18.796
ATOM     45  C   UNL d   1      13.870   2.746  -9.220 -0.07 +0.16    +0.306    18.796
ATOM     46  O   UNL d   1      12.993   3.283  -9.875 -0.11 -0.08    -0.251    18.796
ATOM     47  O   UNL d   1      14.811   3.478  -8.596 -0.04 -0.32    -0.481    18.796
ATOM     48  H   UNL d   1      15.607   3.394  -9.163 +0.14 +0.13    +0.295    18.796
ATOM     49  C   UNL d   1      22.723   5.077  -7.170 -0.27 +0.01    +0.048    18.796
ATOM     50  C   UNL d   1      23.201   6.099  -8.201 -0.24 +0.05    +0.125    18.796
ATOM     51  C   UNL d   1      24.512   5.681  -8.803 -0.06 +0.22    +0.305    18.796
ATOM     52  O   UNL d   1      24.730   4.713  -9.510 -0.29 -0.17    -0.251    18.796
ATOM     53  O   UNL d   1      25.512   6.519  -8.465 -0.69 -0.58    -0.481    18.796
ATOM     54  H   UNL d   1      26.107   5.969  -7.912 -0.39 +0.14    +0.295    18.796
TER
ENDMDL
MODEL       15
USER    Run = 15
USER    Cluster Rank = 26
USER    Number of conformations in this cluster = 2
USER  
USER    RMSD from reference structure       = 17.670 A
USER  
USER    Estimated Free Energy of Binding    =   -5.94 kcal/mol  [=(1)+(2)+(3)-(4)]
USER    Estimated Inhibition Constant, Ki   =   44.17 uM (micromolar)  [Temperature = 298.15 K]
USER    
USER    (1) Final Intermolecular Energy     =   -9.82 kcal/mol
USER        vdW + Hbond + desolv Energy     =   -9.20 kcal/mol
USER        Electrostatic Energy            =   -0.62 kcal/mol
USER    (2) Final Total Internal Energy     =   -2.59 kcal/mol
USER    (3) Torsional Free Energy           =   +3.88 kcal/mol
USER    (4) Unbound System's Energy  [=(2)] =   -2.59 kcal/mol
USER    
USER    
USER  
USER    DPF = D:/Protein_go_brrr/autodock/final/1A3N/heme/dock.dpf
USER    NEWDPF move	heme_opt.pdbqt
USER    NEWDPF about	0.153000 0.018000 -0.028000
USER    NEWDPF tran0	12.616555 12.148986 11.035950
USER    NEWDPF axisangle0	0.896101 -0.089978 0.434634 -152.775348
USER    NEWDPF quaternion0	0.870930 -0.087451 0.422425 -0.235351
USER    NEWDPF dihe0	-65.76 -92.46 -150.04 -112.15 -124.51 -120.26 40.71 -12.25 -3.32 -7.38 -66.80 35.36 27.65 
USER  
USER                              x       y       z    vdW   Elec        q     RMS 
ATOM      1  O   UNL d   1       8.951  10.098   6.899 -0.10 -0.23    -0.289    17.670
ATOM      2  O   UNL d   1      11.553  17.024   8.184 -0.14 -0.26    -0.289    17.670
ATOM      3  N   UNL d   1      11.003  10.858   9.565 -0.06 -0.07    -0.247    17.670
ATOM      4  N   UNL d   1      11.737  13.696   9.075 -0.04 -0.07    -0.247    17.670
ATOM      5  N   UNL d   1      13.795  13.410  11.063 -0.05 -0.01    -0.354    17.670
ATOM      6  N   UNL d   1      13.039  10.462  11.551 +0.01 -0.07    -0.354    17.670
ATOM      7  C   UNL d   1      10.076   8.791   8.631 -0.18 +0.01    +0.084    17.670
ATOM      8  C   UNL d   1      10.173  15.046   7.770 -0.24 +0.04    +0.084    17.670
ATOM      9  C   UNL d   1      10.577  13.679   8.334 -0.19 +0.03    +0.058    17.670
ATOM     10  C   UNL d   1      10.943   9.480   9.688 -0.09 +0.01    +0.058    17.670
ATOM     11  C   UNL d   1       9.641  10.025   7.899 -0.10 +0.10    +0.193    17.670
ATOM     12  C   UNL d   1      10.249  11.214   8.576 -0.14 +0.06    +0.109    17.670
ATOM     13  C   UNL d   1      11.340  15.833   8.296 -0.09 +0.10    +0.193    17.670
ATOM     14  C   UNL d   1      10.906   7.920   7.685 -0.32 +0.00    +0.026    17.670
ATOM     15  C   UNL d   1       9.885  12.557   8.082 -0.13 +0.04    +0.055    17.670
ATOM     16  C   UNL d   1       8.890  15.572   8.420 -0.47 +0.02    +0.026    17.670
ATOM     17  C   UNL d   1      12.217  14.898   9.063 -0.08 +0.03    +0.109    17.670
ATOM     18  C   UNL d   1      11.511   8.787  10.693 -0.07 +0.01    +0.050    17.670
ATOM     19  C   UNL d   1      12.257   9.348  11.760 -0.05 +0.01    +0.045    17.670
ATOM     20  C   UNL d   1      14.134  14.634  10.547 -0.15 +0.00    +0.045    17.670
ATOM     21  C   UNL d   1      13.469  15.384   9.662 -0.14 +0.01    +0.057    17.670
ATOM     22  C   UNL d   1      15.760  13.973  12.009 -0.13 -0.00    -0.019    17.670
ATOM     23  C   UNL d   1      14.716  12.930  11.954 -0.07 -0.00    +0.045    17.670
ATOM     24  C   UNL d   1      15.408  14.980  11.174 -0.14 -0.00    -0.022    17.670
ATOM     25  C   UNL d   1      13.742  10.780  12.690 -0.09 +0.01    +0.049    17.670
ATOM     26  C   UNL d   1      12.428   8.955  13.078 -0.09 -0.01    -0.018    17.670
ATOM     27  C   UNL d   1      13.351   9.874  13.666 -0.11 +0.00    +0.003    17.670
ATOM     28  C   UNL d   1      14.735  11.797  12.674 -0.14 +0.00    +0.052    17.670
ATOM     29  C   UNL d   1      16.130  16.255  10.895 -0.06 +0.01    +0.046    17.670
ATOM     30  C   UNL d   1      11.773   7.798  13.754 -0.18 +0.02    +0.046    17.670
ATOM     31  H   UNL d   1      12.905  12.975  10.844 +0.05 +0.02    +0.166    17.670
ATOM     32  H   UNL d   1      13.105  10.941  10.660 +0.04 +0.03    +0.166    17.670
ATOM     33  C   UNL d   1       8.860   8.031   9.172 -0.22 +0.01    +0.141    17.670
ATOM     34  C   UNL d   1       8.110   8.808  10.220 -0.15 +0.00    +0.306    17.670
ATOM     35  O   UNL d   1       8.497   9.052  11.351 -0.14 -0.00    -0.251    17.670
ATOM     36  O   UNL d   1       6.913   9.240   9.787 -0.13 +0.11    -0.481    17.670
ATOM     37  H   UNL d   1       6.261   8.723  10.307 -0.23 -0.35    +0.295    17.670
ATOM     38  C   UNL d   1      13.819   9.823  15.018 -0.23 +0.00    +0.017    17.670
ATOM     39  C   UNL d   1      13.468  10.676  15.992 -0.40 +0.01    +0.092    17.670
ATOM     40  C   UNL d   1      14.007  10.503  17.344 -0.31 +0.01    +0.330    17.670
ATOM     41  O   UNL d   1      13.385  10.351  18.378 -0.51 -0.01    -0.246    17.670
ATOM     42  O   UNL d   1      15.348  10.524  17.313 -0.09 +0.02    -0.477    17.670
ATOM     43  H   UNL d   1      15.570  11.474  17.390 -0.38 -0.14    +0.295    17.670
ATOM     44  C   UNL d   1      10.097  15.133   6.242 -0.38 +0.05    +0.141    17.670
ATOM     45  C   UNL d   1      11.385  14.757   5.560 -0.31 +0.05    +0.306    17.670
ATOM     46  O   UNL d   1      12.437  14.466   6.103 -0.27 -0.03    -0.251    17.670
ATOM     47  O   UNL d   1      11.288  14.795   4.219 -0.77 +0.03    -0.481    17.670
ATOM     48  H   UNL d   1      10.608  15.478   4.039 -0.30 -0.15    +0.295    17.670
ATOM     49  C   UNL d   1      16.998  13.883  12.851 -0.16 +0.00    +0.048    17.670
ATOM     50  C   UNL d   1      16.667  13.656  14.326 -0.05 +0.01    +0.125    17.670
ATOM     51  C   UNL d   1      17.144  12.306  14.782 -0.10 +0.03    +0.305    17.670
ATOM     52  O   UNL d   1      17.434  11.348  14.088 -0.05 -0.06    -0.251    17.670
ATOM     53  O   UNL d   1      17.222  12.226  16.125 -0.05 +0.02    -0.481    17.670
ATOM     54  H   UNL d   1      16.289  12.274  16.421 -0.27 -0.08    +0.295    17.670
TER
ENDMDL
MODEL       64
USER    Run = 64
USER    Cluster Rank = 27
USER    Number of conformations in this cluster = 1
USER  
USER    RMSD from reference structure       = 21.921 A
USER  
USER    Estimated Free Energy of Binding    =   -5.89 kcal/mol  [=(1)+(2)+(3)-(4)]
USER    Estimated Inhibition Constant, Ki   =   48.50 uM (micromolar)  [Temperature = 298.15 K]
USER    
USER    (1) Final Intermolecular Energy     =   -9.76 kcal/mol
USER        vdW + Hbond + desolv Energy     =   -8.93 kcal/mol
USER        Electrostatic Energy            =   -0.83 kcal/mol
USER    (2) Final Total Internal Energy     =   -1.68 kcal/mol
USER    (3) Torsional Free Energy           =   +3.88 kcal/mol
USER    (4) Unbound System's Energy  [=(2)] =   -1.68 kcal/mol
USER    
USER    
USER  
USER    DPF = D:/Protein_go_brrr/autodock/final/1A3N/heme/dock.dpf
USER    NEWDPF move	heme_opt.pdbqt
USER    NEWDPF about	0.153000 0.018000 -0.028000
USER    NEWDPF tran0	16.750140 10.330115 14.817486
USER    NEWDPF axisangle0	0.015888 0.309679 0.950709 103.329642
USER    NEWDPF quaternion0	0.012462 0.242911 0.745732 0.620261
USER    NEWDPF dihe0	20.19 86.88 165.71 109.14 -150.69 84.30 -54.90 56.19 -170.29 -108.12 -112.41 -127.91 -8.96 
USER  
USER                              x       y       z    vdW   Elec        q     RMS 
ATOM      1  O   UNL d   1      19.432  15.542  14.180 -0.06 -0.09    -0.289    21.921
ATOM      2  O   UNL d   1      13.296  12.721  10.895 -0.08 -0.03    -0.289    21.921
ATOM      3  N   UNL d   1      18.297  12.340  14.778 -0.04 -0.04    -0.247    21.921
ATOM      4  N   UNL d   1      15.716  12.244  13.308 -0.09 -0.02    -0.247    21.921
ATOM      5  N   UNL d   1      15.103   9.820  14.728 -0.01 -0.12    -0.354    21.921
ATOM      6  N   UNL d   1      17.774   9.938  16.262 -0.05 -0.09    -0.354    21.921
ATOM      7  C   UNL d   1      20.072  13.748  15.712 -0.11 +0.02    +0.084    21.921
ATOM      8  C   UNL d   1      15.461  13.746  11.398 -0.16 +0.00    +0.084    21.921
ATOM      9  C   UNL d   1      16.292  13.272  12.595 -0.16 +0.00    +0.058    21.921
ATOM     10  C   UNL d   1      19.320  12.414  15.708 -0.11 +0.01    +0.058    21.921
ATOM     11  C   UNL d   1      19.306  14.408  14.605 -0.06 +0.05    +0.193    21.921
ATOM     12  C   UNL d   1      18.275  13.444  14.105 -0.11 +0.02    +0.109    21.921
ATOM     13  C   UNL d   1      14.290  12.824  11.587 -0.04 +0.00    +0.193    21.921
ATOM     14  C   UNL d   1      19.847  14.532  17.007 -0.34 +0.01    +0.026    21.921
ATOM     15  C   UNL d   1      17.454  13.844  12.944 -0.19 +0.00    +0.055    21.921
ATOM     16  C   UNL d   1      16.141  13.413  10.067 -0.13 +0.00    +0.026    21.921
ATOM     17  C   UNL d   1      14.565  11.971  12.782 -0.10 +0.00    +0.109    21.921
ATOM     18  C   UNL d   1      19.703  11.389  16.492 -0.19 +0.01    +0.050    21.921
ATOM     19  C   UNL d   1      19.122  10.095  16.496 -0.16 +0.01    +0.045    21.921
ATOM     20  C   UNL d   1      13.889  10.063  14.141 -0.12 +0.01    +0.045    21.921
ATOM     21  C   UNL d   1      13.566  10.994  13.237 -0.16 +0.01    +0.057    21.921
ATOM     22  C   UNL d   1      13.673   8.307  15.586 -0.28 -0.01    -0.019    21.921
ATOM     23  C   UNL d   1      15.072   8.778  15.616 -0.21 +0.02    +0.045    21.921
ATOM     24  C   UNL d   1      12.978   9.070  14.710 -0.18 -0.01    -0.022    21.921
ATOM     25  C   UNL d   1      17.410   8.619  16.402 -0.15 +0.02    +0.049    21.921
ATOM     26  C   UNL d   1      19.654   8.842  16.757 -0.21 -0.01    -0.018    21.921
ATOM     27  C   UNL d   1      18.572   7.911  16.678 -0.19 +0.00    +0.003    21.921
ATOM     28  C   UNL d   1      16.043   8.232  16.363 -0.23 +0.02    +0.052    21.921
ATOM     29  C   UNL d   1      11.540   8.976  14.327 -0.25 +0.01    +0.046    21.921
ATOM     30  C   UNL d   1      21.079   8.525  17.061 -0.33 +0.02    +0.046    21.921
ATOM     31  H   UNL d   1      15.935  10.329  14.446 +0.06 +0.05    +0.166    21.921
ATOM     32  H   UNL d   1      17.148  10.707  16.058 +0.06 +0.02    +0.166    21.921
ATOM     33  C   UNL d   1      21.561  13.663  15.358 -0.13 +0.06    +0.141    21.921
ATOM     34  C   UNL d   1      22.446  14.223  16.438 -0.14 +0.19    +0.306    21.921
ATOM     35  O   UNL d   1      22.911  15.349  16.477 -0.58 -0.31    -0.251    21.921
ATOM     36  O   UNL d   1      22.697  13.333  17.415 -0.17 -0.24    -0.481    21.921
ATOM     37  H   UNL d   1      23.017  13.876  18.167 +0.17 +0.06    +0.295    21.921
ATOM     38  C   UNL d   1      18.680   6.500  16.897 -0.32 +0.00    +0.017    21.921
ATOM     39  C   UNL d   1      18.554   5.889  18.085 -0.40 -0.03    +0.092    21.921
ATOM     40  C   UNL d   1      18.669   4.431  18.172 -0.30 -0.34    +0.330    21.921
ATOM     41  O   UNL d   1      19.687   3.768  18.230 -0.33 +0.27    -0.246    21.921
ATOM     42  O   UNL d   1      17.449   3.872  18.190 -0.21 +0.69    -0.477    21.921
ATOM     43  H   UNL d   1      17.247   3.781  19.144 -0.38 -0.83    +0.295    21.921
ATOM     44  C   UNL d   1      15.017  15.212  11.442 -0.04 +0.01    +0.141    21.921
ATOM     45  C   UNL d   1      13.814  15.495  10.582 -0.09 +0.05    +0.306    21.921
ATOM     46  O   UNL d   1      13.818  15.977   9.462 -0.07 -0.07    -0.251    21.921
ATOM     47  O   UNL d   1      12.659  15.178  11.193 -0.09 -0.05    -0.481    21.921
ATOM     48  H   UNL d   1      12.925  14.615  11.951 -0.33 -0.03    +0.295    21.921
ATOM     49  C   UNL d   1      13.148   7.174  16.418 -0.33 +0.01    +0.048    21.921
ATOM     50  C   UNL d   1      13.223   5.840  15.677 -0.35 +0.06    +0.125    21.921
ATOM     51  C   UNL d   1      14.651   5.410  15.490 -0.19 +0.19    +0.305    21.921
ATOM     52  O   UNL d   1      15.526   5.350  16.336 -0.28 -0.08    -0.251    21.921
ATOM     53  O   UNL d   1      14.914   5.080  14.210 -0.11 -0.61    -0.481    21.921
ATOM     54  H   UNL d   1      14.438   4.233  14.079 +0.10 +0.26    +0.295    21.921
TER
ENDMDL
MODEL       77
USER    Run = 77
USER    Cluster Rank = 28
USER    Number of conformations in this cluster = 2
USER  
USER    RMSD from reference structure       = 14.038 A
USER  
USER    Estimated Free Energy of Binding    =   -5.76 kcal/mol  [=(1)+(2)+(3)-(4)]
USER    Estimated Inhibition Constant, Ki   =   60.23 uM (micromolar)  [Temperature = 298.15 K]
USER    
USER    (1) Final Intermolecular Energy     =   -9.64 kcal/mol
USER        vdW + Hbond + desolv Energy     =   -9.20 kcal/mol
USER        Electrostatic Energy            =   -0.44 kcal/mol
USER    (2) Final Total Internal Energy     =   -2.17 kcal/mol
USER    (3) Torsional Free Energy           =   +3.88 kcal/mol
USER    (4) Unbound System's Energy  [=(2)] =   -2.17 kcal/mol
USER    
USER    
USER  
USER    DPF = D:/Protein_go_brrr/autodock/final/1A3N/heme/dock.dpf
USER    NEWDPF move	heme_opt.pdbqt
USER    NEWDPF about	0.153000 0.018000 -0.028000
USER    NEWDPF tran0	11.874633 3.607541 -11.412320
USER    NEWDPF axisangle0	0.149355 0.718241 0.679575 64.394925
USER    NEWDPF quaternion0	0.079582 0.382707 0.362104 0.846217
USER    NEWDPF dihe0	-106.30 -39.52 -87.47 -84.40 34.26 140.22 159.70 -106.69 130.90 -94.82 -63.54 -162.27 -37.56 
USER  
USER                              x       y       z    vdW   Elec        q     RMS 
ATOM      1  O   UNL d   1      10.134   8.196 -14.679 -0.04 +0.05    -0.289    14.038
ATOM      2  O   UNL d   1       8.359   0.910 -15.073 -0.04 -0.01    -0.289    14.038
ATOM      3  N   UNL d   1      11.528   5.819 -12.605 -0.08 +0.06    -0.247    14.038
ATOM      4  N   UNL d   1      10.022   3.350 -13.287 -0.02 +0.04    -0.247    14.038
ATOM      5  N   UNL d   1      11.109   2.143 -10.915 -0.05 -0.00    -0.354    14.038
ATOM      6  N   UNL d   1      12.652   4.715 -10.204 -0.09 -0.08    -0.354    14.038
ATOM      7  C   UNL d   1      11.626   8.264 -12.744 -0.13 +0.00    +0.084    14.038
ATOM      8  C   UNL d   1       9.059   3.211 -15.528 -0.08 -0.00    +0.084    14.038
ATOM      9  C   UNL d   1       9.797   4.029 -14.463 -0.09 -0.01    +0.058    14.038
ATOM     10  C   UNL d   1      12.049   6.971 -12.041 -0.17 -0.00    +0.058    14.038
ATOM     11  C   UNL d   1      10.788   7.637 -13.817 -0.06 -0.04    +0.193    14.038
ATOM     12  C   UNL d   1      10.829   6.151 -13.641 -0.10 -0.04    +0.109    14.038
ATOM     13  C   UNL d   1       8.874   1.955 -14.725 -0.06 +0.00    +0.193    14.038
ATOM     14  C   UNL d   1      10.728   9.132 -11.859 -0.27 -0.00    +0.026    14.038
ATOM     15  C   UNL d   1      10.145   5.312 -14.646 -0.12 -0.01    +0.055    14.038
ATOM     16  C   UNL d   1       9.957   2.901 -16.729 -0.03 +0.00    +0.026    14.038
ATOM     17  C   UNL d   1       9.496   2.171 -13.384 -0.06 -0.00    +0.109    14.038
ATOM     18  C   UNL d   1      12.927   6.981 -11.020 -0.29 +0.01    +0.050    14.038
ATOM     19  C   UNL d   1      13.440   5.832 -10.365 -0.23 +0.01    +0.045    14.038
ATOM     20  C   UNL d   1      10.182   1.194 -11.258 -0.15 -0.00    +0.045    14.038
ATOM     21  C   UNL d   1       9.430   1.117 -12.361 -0.15 +0.00    +0.057    14.038
ATOM     22  C   UNL d   1      11.067   0.658  -9.222 -0.27 -0.00    -0.019    14.038
ATOM     23  C   UNL d   1      11.697   1.904  -9.701 -0.21 +0.01    +0.045    14.038
ATOM     24  C   UNL d   1      10.172   0.241 -10.148 -0.21 -0.00    -0.022    14.038
ATOM     25  C   UNL d   1      13.314   3.760  -9.467 -0.23 +0.02    +0.049    14.038
ATOM     26  C   UNL d   1      14.657   5.583  -9.749 -0.26 -0.01    -0.018    14.038
ATOM     27  C   UNL d   1      14.578   4.266  -9.201 -0.30 +0.00    +0.003    14.038
ATOM     28  C   UNL d   1      12.647   2.580  -9.037 -0.30 +0.03    +0.052    14.038
ATOM     29  C   UNL d   1       9.299  -0.967 -10.126 -0.26 +0.00    +0.046    14.038
ATOM     30  C   UNL d   1      15.823   6.510  -9.675 -0.23 +0.02    +0.046    14.038
ATOM     31  H   UNL d   1      11.365   2.885 -11.557 +0.05 -0.01    +0.166    14.038
ATOM     32  H   UNL d   1      11.704   4.643 -10.553 +0.05 -0.00    +0.166    14.038
ATOM     33  C   UNL d   1      12.767   9.081 -13.360 -0.11 +0.05    +0.141    14.038
ATOM     34  C   UNL d   1      12.279  10.318 -14.064 -0.05 +0.13    +0.306    14.038
ATOM     35  O   UNL d   1      12.107  11.414 -13.558 -0.05 -0.17    -0.251    14.038
ATOM     36  O   UNL d   1      12.035  10.110 -15.370 +0.00 -0.12    -0.481    14.038
ATOM     37  H   UNL d   1      11.227   9.555 -15.385 +0.03 +0.03    +0.295    14.038
ATOM     38  C   UNL d   1      15.619   3.616  -8.464 -0.31 +0.01    +0.017    14.038
ATOM     39  C   UNL d   1      16.224   4.114  -7.375 -0.10 +0.06    +0.092    14.038
ATOM     40  C   UNL d   1      17.268   3.338  -6.700 -0.31 +0.15    +0.330    14.038
ATOM     41  O   UNL d   1      18.321   3.743  -6.248 -0.36 -0.07    -0.246    14.038
ATOM     42  O   UNL d   1      16.905   2.048  -6.621 -0.22 -0.26    -0.477    14.038
ATOM     43  H   UNL d   1      17.736   1.560  -6.798 -0.35 -0.02    +0.295    14.038
ATOM     44  C   UNL d   1       7.708   3.778 -15.978 -0.12 -0.01    +0.141    14.038
ATOM     45  C   UNL d   1       6.689   2.713 -16.284 -0.12 +0.01    +0.306    14.038
ATOM     46  O   UNL d   1       5.643   2.516 -15.690 -0.22 -0.03    -0.251    14.038
ATOM     47  O   UNL d   1       7.057   1.929 -17.313 -0.00 -0.03    -0.481    14.038
ATOM     48  H   UNL d   1       7.536   1.181 -16.896 +0.04 +0.02    +0.295    14.038
ATOM     49  C   UNL d   1      11.384   0.004  -7.909 -0.44 +0.02    +0.048    14.038
ATOM     50  C   UNL d   1      11.900  -1.423  -8.094 -0.40 +0.02    +0.125    14.038
ATOM     51  C   UNL d   1      13.309  -1.554  -7.589 -0.32 +0.08    +0.305    14.038
ATOM     52  O   UNL d   1      14.315  -1.767  -8.242 -0.33 -0.05    -0.251    14.038
ATOM     53  O   UNL d   1      13.379  -1.420  -6.250 -0.64 -0.22    -0.481    14.038
ATOM     54  H   UNL d   1      13.353  -2.341  -5.916 -0.31 -0.09    +0.295    14.038
TER
ENDMDL
MODEL       59
USER    Run = 59
USER    Cluster Rank = 29
USER    Number of conformations in this cluster = 3
USER  
USER    RMSD from reference structure       = 38.230 A
USER  
USER    Estimated Free Energy of Binding    =   -5.75 kcal/mol  [=(1)+(2)+(3)-(4)]
USER    Estimated Inhibition Constant, Ki   =   60.56 uM (micromolar)  [Temperature = 298.15 K]
USER    
USER    (1) Final Intermolecular Energy     =   -9.63 kcal/mol
USER        vdW + Hbond + desolv Energy     =   -8.88 kcal/mol
USER        Electrostatic Energy            =   -0.75 kcal/mol
USER    (2) Final Total Internal Energy     =   -2.31 kcal/mol
USER    (3) Torsional Free Energy           =   +3.88 kcal/mol
USER    (4) Unbound System's Energy  [=(2)] =   -2.31 kcal/mol
USER    
USER    
USER  
USER    DPF = D:/Protein_go_brrr/autodock/final/1A3N/heme/dock.dpf
USER    NEWDPF move	heme_opt.pdbqt
USER    NEWDPF about	0.153000 0.018000 -0.028000
USER    NEWDPF tran0	10.274474 8.849113 37.299302
USER    NEWDPF axisangle0	0.905516 -0.296663 0.303366 96.750912
USER    NEWDPF quaternion0	0.676886 -0.221760 0.226771 0.664246
USER    NEWDPF dihe0	119.93 67.96 -179.95 141.54 -172.23 92.57 148.04 90.39 -34.93 -2.73 122.15 39.71 173.50 
USER  
USER                              x       y       z    vdW   Elec        q     RMS 
ATOM      1  O   UNL d   1       6.184  12.709  35.532 -0.32 -0.42    -0.289    38.230
ATOM      2  O   UNL d   1       7.197   9.279  42.135 -0.03 -0.05    -0.289    38.230
ATOM      3  N   UNL d   1       8.678  10.388  36.068 -0.62 -0.19    -0.247    38.230
ATOM      4  N   UNL d   1       8.482   9.836  38.981 +0.00 -0.10    -0.247    38.230
ATOM      5  N   UNL d   1      11.044   8.540  38.813 -0.01 -0.16    -0.354    38.230
ATOM      6  N   UNL d   1      11.248   9.135  35.796 -0.13 -0.38    -0.354    38.230
ATOM      7  C   UNL d   1       8.072  11.879  34.219 -0.19 +0.05    +0.084    38.230
ATOM      8  C   UNL d   1       6.309  10.184  40.041 -0.12 +0.03    +0.084    38.230
ATOM      9  C   UNL d   1       7.197  10.295  38.798 -0.15 +0.02    +0.058    38.230
ATOM     10  C   UNL d   1       9.011  10.814  34.793 -0.22 +0.04    +0.058    38.230
ATOM     11  C   UNL d   1       7.138  11.967  35.389 -0.14 +0.16    +0.193    38.230
ATOM     12  C   UNL d   1       7.597  10.996  36.433 -0.17 +0.07    +0.109    38.230
ATOM     13  C   UNL d   1       7.338   9.612  40.974 -0.07 +0.05    +0.193    38.230
ATOM     14  C   UNL d   1       8.773  13.228  34.043 -0.21 +0.02    +0.026    38.230
ATOM     15  C   UNL d   1       6.771  10.839  37.647 -0.21 +0.03    +0.055    38.230
ATOM     16  C   UNL d   1       5.191   9.155  39.851 -0.30 +0.01    +0.026    38.230
ATOM     17  C   UNL d   1       8.614   9.456  40.211 -0.06 +0.03    +0.109    38.230
ATOM     18  C   UNL d   1      10.012  10.291  34.060 -0.25 +0.04    +0.050    38.230
ATOM     19  C   UNL d   1      10.876   9.246  34.475 -0.24 +0.04    +0.045    38.230
ATOM     20  C   UNL d   1      10.888   8.580  40.175 -0.11 +0.01    +0.045    38.230
ATOM     21  C   UNL d   1       9.820   8.954  40.885 -0.11 +0.02    +0.057    38.230
ATOM     22  C   UNL d   1      12.991   7.827  39.693 -0.08 -0.01    -0.019    38.230
ATOM     23  C   UNL d   1      12.281   8.099  38.427 -0.17 +0.02    +0.045    38.230
ATOM     24  C   UNL d   1      12.160   8.113  40.724 -0.07 -0.01    -0.022    38.230
ATOM     25  C   UNL d   1      12.155   8.114  35.958 -0.23 +0.04    +0.049    38.230
ATOM     26  C   UNL d   1      11.529   8.248  33.768 -0.35 -0.01    -0.018    38.230
ATOM     27  C   UNL d   1      12.320   7.525  34.712 -0.36 +0.00    +0.003    38.230
ATOM     28  C   UNL d   1      12.804   7.906  37.206 -0.22 +0.04    +0.052    38.230
ATOM     29  C   UNL d   1      12.414   7.990  42.188 -0.03 +0.01    +0.046    38.230
ATOM     30  C   UNL d   1      11.425   7.980  32.304 -0.48 +0.02    +0.046    38.230
ATOM     31  H   UNL d   1      10.271   8.747  38.189 +0.06 +0.07    +0.166    38.230
ATOM     32  H   UNL d   1      10.919   9.757  36.524 +0.04 +0.18    +0.166    38.230
ATOM     33  C   UNL d   1       7.311  11.471  32.953 -0.23 +0.06    +0.141    38.230
ATOM     34  C   UNL d   1       7.395   9.994  32.677 -0.19 +0.10    +0.306    38.230
ATOM     35  O   UNL d   1       7.893   9.472  31.694 -0.10 -0.06    -0.251    38.230
ATOM     36  O   UNL d   1       6.850   9.252  33.657 -0.21 -0.16    -0.481    38.230
ATOM     37  H   UNL d   1       7.395   9.449  34.448 +0.17 +0.14    +0.295    38.230
ATOM     38  C   UNL d   1      13.170   6.415  34.400 -0.39 +0.01    +0.017    38.230
ATOM     39  C   UNL d   1      12.885   5.128  34.646 -0.40 +0.05    +0.092    38.230
ATOM     40  C   UNL d   1      13.836   4.082  34.259 -0.23 +0.25    +0.330    38.230
ATOM     41  O   UNL d   1      14.740   3.616  34.926 -0.32 -0.15    -0.246    38.230
ATOM     42  O   UNL d   1      13.579   3.663  33.011 -0.61 -0.45    -0.477    38.230
ATOM     43  H   UNL d   1      13.261   2.744  33.133 -0.31 +0.06    +0.295    38.230
ATOM     44  C   UNL d   1       5.757  11.509  40.578 -0.03 +0.04    +0.141    38.230
ATOM     45  C   UNL d   1       6.822  12.547  40.809 +0.01 +0.10    +0.306    38.230
ATOM     46  O   UNL d   1       7.060  13.513  40.105 -0.00 -0.11    -0.251    38.230
ATOM     47  O   UNL d   1       7.556  12.296  41.908 +0.01 -0.11    -0.481    38.230
ATOM     48  H   UNL d   1       7.170  11.475  42.281 +0.02 +0.06    +0.295    38.230
ATOM     49  C   UNL d   1      14.405   7.333  39.777 -0.03 +0.01    +0.048    38.230
ATOM     50  C   UNL d   1      15.408   8.486  39.836 -0.01 +0.04    +0.125    38.230
ATOM     51  C   UNL d   1      15.254   9.391  38.647 -0.05 +0.20    +0.305    38.230
ATOM     52  O   UNL d   1      14.468  10.312  38.511 -0.47 -0.28    -0.251    38.230
ATOM     53  O   UNL d   1      16.113   9.075  37.657 -0.03 -0.30    -0.481    38.230
ATOM     54  H   UNL d   1      16.941   8.841  38.127 +0.07 +0.08    +0.295    38.230
TER
ENDMDL
MODEL       89
USER    Run = 89
USER    Cluster Rank = 30
USER    Number of conformations in this cluster = 1
USER  
USER    RMSD from reference structure       = 20.995 A
USER  
USER    Estimated Free Energy of Binding    =   -5.75 kcal/mol  [=(1)+(2)+(3)-(4)]
USER    Estimated Inhibition Constant, Ki   =   61.00 uM (micromolar)  [Temperature = 298.15 K]
USER    
USER    (1) Final Intermolecular Energy     =   -9.63 kcal/mol
USER        vdW + Hbond + desolv Energy     =   -8.79 kcal/mol
USER        Electrostatic Energy            =   -0.84 kcal/mol
USER    (2) Final Total Internal Energy     =   -2.43 kcal/mol
USER    (3) Torsional Free Energy           =   +3.88 kcal/mol
USER    (4) Unbound System's Energy  [=(2)] =   -2.43 kcal/mol
USER    
USER    
USER  
USER    DPF = D:/Protein_go_brrr/autodock/final/1A3N/heme/dock.dpf
USER    NEWDPF move	heme_opt.pdbqt
USER    NEWDPF about	0.153000 0.018000 -0.028000
USER    NEWDPF tran0	14.272907 16.058872 11.509261
USER    NEWDPF axisangle0	0.210370 0.973397 0.090788 -161.110027
USER    NEWDPF quaternion0	0.207519 0.960201 0.089558 -0.164101
USER    NEWDPF dihe0	105.44 146.71 113.93 91.76 -129.14 121.84 -51.12 14.93 44.59 -123.45 -78.10 -85.66 167.77 
USER  
USER                              x       y       z    vdW   Elec        q     RMS 
ATOM      1  O   UNL d   1      19.950  15.242  12.872 -0.11 -0.07    -0.289    20.995
ATOM      2  O   UNL d   1      14.213  10.407  12.553 -0.03 -0.08    -0.289    20.995
ATOM      3  N   UNL d   1      16.723  16.218  12.146 +0.13 -0.05    -0.247    20.995
ATOM      4  N   UNL d   1      15.257  13.641  11.951 -0.09 +0.01    -0.247    20.995
ATOM      5  N   UNL d   1      13.081  15.076  10.739 -0.08 -0.05    -0.354    20.995
ATOM      6  N   UNL d   1      14.616  17.743  10.928 -0.03 -0.09    -0.354    20.995
ATOM      7  C   UNL d   1      18.902  17.339  12.180 -0.10 +0.02    +0.084    20.995
ATOM      8  C   UNL d   1      16.157  11.745  13.203 -0.10 +0.01    +0.084    20.995
ATOM      9  C   UNL d   1      16.301  13.195  12.731 -0.15 +0.00    +0.058    20.995
ATOM     10  C   UNL d   1      17.393  17.411  11.932 -0.10 +0.01    +0.058    20.995
ATOM     11  C   UNL d   1      18.964  15.898  12.590 -0.10 +0.04    +0.193    20.995
ATOM     12  C   UNL d   1      17.577  15.337  12.554 -0.08 +0.02    +0.109    20.995
ATOM     13  C   UNL d   1      14.856  11.438  12.516 -0.06 +0.03    +0.193    20.995
ATOM     14  C   UNL d   1      19.706  17.522  10.890 -0.07 +0.01    +0.026    20.995
ATOM     15  C   UNL d   1      17.377  13.947  13.011 -0.18 +0.01    +0.055    20.995
ATOM     16  C   UNL d   1      15.946  11.660  14.718 -0.23 +0.00    +0.026    20.995
ATOM     17  C   UNL d   1      14.421  12.666  11.785 -0.08 +0.00    +0.109    20.995
ATOM     18  C   UNL d   1      16.786  18.572  11.622 -0.10 +0.01    +0.050    20.995
ATOM     19  C   UNL d   1      15.388  18.751  11.458 -0.09 +0.01    +0.045    20.995
ATOM     20  C   UNL d   1      12.662  13.789  10.525 -0.16 +0.01    +0.045    20.995
ATOM     21  C   UNL d   1      13.192  12.649  10.979 -0.15 +0.01    +0.057    20.995
ATOM     22  C   UNL d   1      11.253  15.216   9.430 -0.20 -0.01    -0.019    20.995
ATOM     23  C   UNL d   1      12.293  16.008  10.117 -0.19 +0.01    +0.045    20.995
ATOM     24  C   UNL d   1      11.477  13.903   9.676 -0.16 -0.01    -0.022    20.995
ATOM     25  C   UNL d   1      13.314  18.161  10.775 -0.15 +0.02    +0.049    20.995
ATOM     26  C   UNL d   1      14.561  19.840  11.689 -0.09 -0.00    -0.018    20.995
ATOM     27  C   UNL d   1      13.249  19.454  11.274 -0.15 +0.00    +0.003    20.995
ATOM     28  C   UNL d   1      12.362  17.348  10.102 -0.22 +0.02    +0.052    20.995
ATOM     29  C   UNL d   1      10.695  12.721   9.213 -0.20 +0.02    +0.046    20.995
ATOM     30  C   UNL d   1      14.962  21.157  12.262 -0.08 +0.01    +0.046    20.995
ATOM     31  H   UNL d   1      13.851  15.281  11.367 -0.07 +0.01    +0.166    20.995
ATOM     32  H   UNL d   1      14.984  16.839  10.657 +0.05 +0.04    +0.166    20.995
ATOM     33  C   UNL d   1      19.428  18.241  13.302 -0.09 +0.06    +0.141    20.995
ATOM     34  C   UNL d   1      19.478  17.540  14.633 -0.09 +0.17    +0.306    20.995
ATOM     35  O   UNL d   1      18.524  17.278  15.346 -0.17 -0.11    -0.251    20.995
ATOM     36  O   UNL d   1      20.729  17.202  14.994 -0.15 -0.49    -0.481    20.995
ATOM     37  H   UNL d   1      20.935  16.409  14.455 +0.13 +0.22    +0.295    20.995
ATOM     38  C   UNL d   1      12.088  20.291  11.325 -0.23 +0.01    +0.017    20.995
ATOM     39  C   UNL d   1      11.226  20.482  10.315 -0.30 +0.05    +0.092    20.995
ATOM     40  C   UNL d   1      10.063  21.353  10.503 -0.25 +0.19    +0.330    20.995
ATOM     41  O   UNL d   1       9.785  22.365   9.889 -0.77 -0.21    -0.246    20.995
ATOM     42  O   UNL d   1       9.283  20.876  11.486 -0.13 -0.15    -0.477    20.995
ATOM     43  H   UNL d   1       9.380  19.904  11.412 -0.30 -0.01    +0.295    20.995
ATOM     44  C   UNL d   1      17.261  10.787  12.742 -0.09 +0.05    +0.141    20.995
ATOM     45  C   UNL d   1      16.985   9.350  13.094 -0.03 +0.28    +0.306    20.995
ATOM     46  O   UNL d   1      17.388   8.751  14.076 -0.41 -0.27    -0.251    20.995
ATOM     47  O   UNL d   1      16.232   8.729  12.168 -0.34 -0.62    -0.481    20.995
ATOM     48  H   UNL d   1      15.358   9.170  12.222 +0.06 +0.22    +0.295    20.995
ATOM     49  C   UNL d   1      10.159  15.808   8.592 -0.33 +0.03    +0.048    20.995
ATOM     50  C   UNL d   1      10.619  16.072   7.158 -0.27 +0.09    +0.125    20.995
ATOM     51  C   UNL d   1      10.095  15.018   6.224 -0.26 +0.11    +0.305    20.995
ATOM     52  O   UNL d   1       9.282  14.145   6.471 -0.60 -0.18    -0.251    20.995
ATOM     53  O   UNL d   1      10.647  15.112   4.998 -0.40 +0.02    -0.481    20.995
ATOM     54  H   UNL d   1      10.057  15.731   4.519 -0.29 -0.28    +0.295    20.995
TER
ENDMDL
MODEL       90
USER    Run = 90
USER    Cluster Rank = 31
USER    Number of conformations in this cluster = 2
USER  
USER    RMSD from reference structure       = 19.960 A
USER  
USER    Estimated Free Energy of Binding    =   -5.73 kcal/mol  [=(1)+(2)+(3)-(4)]
USER    Estimated Inhibition Constant, Ki   =   63.22 uM (micromolar)  [Temperature = 298.15 K]
USER    
USER    (1) Final Intermolecular Energy     =   -9.61 kcal/mol
USER        vdW + Hbond + desolv Energy     =   -8.90 kcal/mol
USER        Electrostatic Energy            =   -0.70 kcal/mol
USER    (2) Final Total Internal Energy     =   -2.08 kcal/mol
USER    (3) Torsional Free Energy           =   +3.88 kcal/mol
USER    (4) Unbound System's Energy  [=(2)] =   -2.08 kcal/mol
USER    
USER    
USER  
USER    DPF = D:/Protein_go_brrr/autodock/final/1A3N/heme/dock.dpf
USER    NEWDPF move	heme_opt.pdbqt
USER    NEWDPF about	0.153000 0.018000 -0.028000
USER    NEWDPF tran0	19.228618 -9.155214 -11.696417
USER    NEWDPF axisangle0	0.748795 0.443982 0.492124 78.606011
USER    NEWDPF quaternion0	0.474303 0.281228 0.311722 0.773807
USER    NEWDPF dihe0	80.31 64.61 130.31 -8.11 -178.49 -151.36 -80.32 -133.11 102.66 -23.61 -71.73 18.01 179.98 
USER  
USER                              x       y       z    vdW   Elec        q     RMS 
ATOM      1  O   UNL d   1      16.771  -6.755 -16.487 -0.01 -0.00    -0.289    19.960
ATOM      2  O   UNL d   1      14.098 -11.742 -11.550 -0.30 -0.29    -0.289    19.960
ATOM      3  N   UNL d   1      18.653  -7.989 -13.874 -0.06 +0.03    -0.247    19.960
ATOM      4  N   UNL d   1      16.700  -9.615 -12.334 -0.06 -0.01    -0.247    19.960
ATOM      5  N   UNL d   1      18.603  -9.692 -10.180 -0.05 +0.05    -0.354    19.960
ATOM      6  N   UNL d   1      20.615  -7.988 -11.777 +0.14 +0.16    -0.354    19.960
ATOM      7  C   UNL d   1      18.988  -6.264 -15.582 -0.09 -0.00    +0.084    19.960
ATOM      8  C   UNL d   1      14.793 -10.529 -13.559 -0.08 +0.02    +0.084    19.960
ATOM      9  C   UNL d   1      16.041  -9.639 -13.543 -0.06 +0.01    +0.058    19.960
ATOM     10  C   UNL d   1      19.520  -7.029 -14.367 -0.13 -0.01    +0.058    19.960
ATOM     11  C   UNL d   1      17.673  -6.975 -15.700 -0.02 -0.00    +0.193    19.960
ATOM     12  C   UNL d   1      17.600  -8.014 -14.625 -0.04 -0.00    +0.109    19.960
ATOM     13  C   UNL d   1      14.845 -10.975 -12.125 -0.16 +0.08    +0.193    19.960
ATOM     14  C   UNL d   1      18.727  -4.790 -15.264 -0.19 +0.00    +0.026    19.960
ATOM     15  C   UNL d   1      16.425  -8.909 -14.601 -0.03 +0.00    +0.055    19.960
ATOM     16  C   UNL d   1      14.979 -11.752 -14.462 -0.06 +0.01    +0.026    19.960
ATOM     17  C   UNL d   1      16.043 -10.345 -11.491 -0.15 +0.01    +0.109    19.960
ATOM     18  C   UNL d   1      20.766  -6.825 -13.899 -0.22 -0.01    +0.050    19.960
ATOM     19  C   UNL d   1      21.373  -7.543 -12.837 -0.20 -0.02    +0.045    19.960
ATOM     20  C   UNL d   1      17.509 -10.222  -9.547 -0.16 -0.01    +0.045    19.960
ATOM     21  C   UNL d   1      16.327 -10.569 -10.066 -0.18 -0.00    +0.057    19.960
ATOM     22  C   UNL d   1      19.165  -9.893  -8.008 -0.14 +0.00    -0.019    19.960
ATOM     23  C   UNL d   1      19.653  -9.458  -9.332 -0.15 -0.01    +0.045    19.960
ATOM     24  C   UNL d   1      17.896 -10.346  -8.142 -0.18 +0.00    -0.022    19.960
ATOM     25  C   UNL d   1      21.415  -8.575 -10.824 -0.23 -0.02    +0.049    19.960
ATOM     26  C   UNL d   1      22.693  -7.882 -12.583 -0.26 +0.01    -0.018    19.960
ATOM     27  C   UNL d   1      22.711  -8.551 -11.321 -0.21 -0.00    +0.003    19.960
ATOM     28  C   UNL d   1      20.881  -8.972  -9.568 -0.24 -0.01    +0.052    19.960
ATOM     29  C   UNL d   1      16.988 -10.899  -7.097 -0.37 -0.02    +0.046    19.960
ATOM     30  C   UNL d   1      23.867  -7.604 -13.460 -0.27 -0.01    +0.046    19.960
ATOM     31  H   UNL d   1      18.622  -9.574 -11.187 +0.04 -0.02    +0.166    19.960
ATOM     32  H   UNL d   1      19.613  -7.855 -11.709 -0.52 -0.09    +0.166    19.960
ATOM     33  C   UNL d   1      19.803  -6.425 -16.870 -0.03 -0.00    +0.141    19.960
ATOM     34  C   UNL d   1      18.959  -6.302 -18.109 -0.00 -0.00    +0.306    19.960
ATOM     35  O   UNL d   1      18.868  -7.126 -19.003 -0.00 -0.00    -0.251    19.960
ATOM     36  O   UNL d   1      18.272  -5.147 -18.156 +0.00 -0.01    -0.481    19.960
ATOM     37  H   UNL d   1      17.358  -5.393 -17.899 +0.01 +0.01    +0.295    19.960
ATOM     38  C   UNL d   1      23.882  -9.057 -10.672 -0.34 -0.01    +0.017    19.960
ATOM     39  C   UNL d   1      24.050 -10.321 -10.253 -0.21 -0.03    +0.092    19.960
ATOM     40  C   UNL d   1      25.309 -10.718  -9.616 -0.19 -0.14    +0.330    19.960
ATOM     41  O   UNL d   1      25.808 -11.826  -9.583 -0.11 +0.09    -0.246    19.960
ATOM     42  O   UNL d   1      25.893  -9.654  -9.044 -0.33 +0.22    -0.477    19.960
ATOM     43  H   UNL d   1      26.724  -9.542  -9.549 -0.47 -0.42    +0.295    19.960
ATOM     44  C   UNL d   1      13.474  -9.811 -13.863 -0.10 +0.03    +0.141    19.960
ATOM     45  C   UNL d   1      12.982  -8.963 -12.720 -0.18 +0.05    +0.306    19.960
ATOM     46  O   UNL d   1      11.893  -9.036 -12.177 -0.28 -0.02    -0.251    19.960
ATOM     47  O   UNL d   1      13.885  -8.042 -12.336 -0.65 -0.14    -0.481    19.960
ATOM     48  H   UNL d   1      14.717  -8.547 -12.213 +0.10 +0.07    +0.295    19.960
ATOM     49  C   UNL d   1      19.971  -9.814  -6.745 -0.20 -0.00    +0.048    19.960
ATOM     50  C   UNL d   1      19.651  -8.552  -5.944 -0.34 -0.01    +0.125    19.960
ATOM     51  C   UNL d   1      18.890  -8.889  -4.693 -0.22 -0.06    +0.305    19.960
ATOM     52  O   UNL d   1      17.949  -8.285  -4.210 -0.37 +0.08    -0.251    19.960
ATOM     53  O   UNL d   1      19.374  -9.994  -4.091 -0.10 +0.11    -0.481    19.960
ATOM     54  H   UNL d   1      18.899 -10.026  -3.235 -0.25 -0.36    +0.295    19.960
TER
ENDMDL
MODEL       10
USER    Run = 10
USER    Cluster Rank = 32
USER    Number of conformations in this cluster = 1
USER  
USER    RMSD from reference structure       = 10.642 A
USER  
USER    Estimated Free Energy of Binding    =   -5.71 kcal/mol  [=(1)+(2)+(3)-(4)]
USER    Estimated Inhibition Constant, Ki   =   65.66 uM (micromolar)  [Temperature = 298.15 K]
USER    
USER    (1) Final Intermolecular Energy     =   -9.58 kcal/mol
USER        vdW + Hbond + desolv Energy     =   -9.41 kcal/mol
USER        Electrostatic Energy            =   -0.18 kcal/mol
USER    (2) Final Total Internal Energy     =   -3.62 kcal/mol
USER    (3) Torsional Free Energy           =   +3.88 kcal/mol
USER    (4) Unbound System's Energy  [=(2)] =   -3.62 kcal/mol
USER    
USER    
USER  
USER    DPF = D:/Protein_go_brrr/autodock/final/1A3N/heme/dock.dpf
USER    NEWDPF move	heme_opt.pdbqt
USER    NEWDPF about	0.153000 0.018000 -0.028000
USER    NEWDPF tran0	3.892088 -6.810121 -8.447656
USER    NEWDPF axisangle0	-0.020817 -0.959788 -0.279952 -111.018246
USER    NEWDPF quaternion0	-0.017157 -0.791073 -0.230741 -0.566275
USER    NEWDPF dihe0	170.42 -118.85 -133.82 -82.11 61.75 130.29 124.38 15.01 153.87 -19.67 -75.20 -160.52 24.38 
USER  
USER                              x       y       z    vdW   Elec        q     RMS 
ATOM      1  O   UNL d   1       5.813  -3.739 -13.099 -0.01 -0.03    -0.289    10.642
ATOM      2  O   UNL d   1       4.848 -11.122 -12.126 -0.06 -0.03    -0.289    10.642
ATOM      3  N   UNL d   1       4.777  -5.109 -10.108 -0.08 -0.03    -0.247    10.642
ATOM      4  N   UNL d   1       4.398  -7.982 -10.768 -0.01 -0.04    -0.247    10.642
ATOM      5  N   UNL d   1       2.992  -8.273  -8.277 -0.09 -0.08    -0.354    10.642
ATOM      6  N   UNL d   1       3.372  -5.288  -7.610 -0.13 -0.08    -0.354    10.642
ATOM      7  C   UNL d   1       5.047  -2.828 -10.964 -0.15 +0.00    +0.084    10.642
ATOM      8  C   UNL d   1       5.710  -8.885 -12.621 -0.10 +0.01    +0.084    10.642
ATOM      9  C   UNL d   1       5.274  -7.677 -11.786 -0.08 +0.01    +0.058    10.642
ATOM     10  C   UNL d   1       4.648  -3.762  -9.817 -0.19 +0.00    +0.058    10.642
ATOM     11  C   UNL d   1       5.442  -3.887 -11.949 -0.04 +0.02    +0.193    10.642
ATOM     12  C   UNL d   1       5.257  -5.225 -11.303 -0.08 +0.01    +0.109    10.642
ATOM     13  C   UNL d   1       4.890  -9.926 -11.912 -0.10 +0.02    +0.193    10.642
ATOM     14  C   UNL d   1       3.848  -2.056 -11.520 -0.31 +0.00    +0.026    10.642
ATOM     15  C   UNL d   1       5.673  -6.425 -12.058 -0.09 +0.01    +0.055    10.642
ATOM     16  C   UNL d   1       7.194  -9.208 -12.422 -0.23 +0.00    +0.026    10.642
ATOM     17  C   UNL d   1       4.136  -9.248 -10.815 -0.13 +0.02    +0.109    10.642
ATOM     18  C   UNL d   1       4.294  -3.281  -8.610 -0.35 +0.00    +0.050    10.642
ATOM     19  C   UNL d   1       3.991  -4.066  -7.468 -0.36 +0.01    +0.045    10.642
ATOM     20  C   UNL d   1       2.719  -9.490  -8.846 -0.19 +0.01    +0.045    10.642
ATOM     21  C   UNL d   1       3.209 -10.018  -9.972 -0.19 +0.01    +0.057    10.642
ATOM     22  C   UNL d   1       1.505  -9.285  -6.921 -0.25 -0.00    -0.019    10.642
ATOM     23  C   UNL d   1       2.305  -8.059  -7.112 -0.27 +0.01    +0.045    10.642
ATOM     24  C   UNL d   1       1.755 -10.129  -7.950 -0.17 -0.00    -0.022    10.642
ATOM     25  C   UNL d   1       3.092  -5.833  -6.378 -0.27 +0.01    +0.049    10.642
ATOM     26  C   UNL d   1       4.151  -3.829  -6.112 -0.44 -0.00    -0.018    10.642
ATOM     27  C   UNL d   1       3.600  -4.957  -5.429 -0.41 +0.00    +0.003    10.642
ATOM     28  C   UNL d   1       2.315  -7.018  -6.265 -0.32 +0.01    +0.052    10.642
ATOM     29  C   UNL d   1       1.199 -11.490  -8.197 -0.14 +0.01    +0.046    10.642
ATOM     30  C   UNL d   1       4.780  -2.630  -5.486 -0.31 +0.00    +0.046    10.642
ATOM     31  H   UNL d   1       3.697  -7.657  -8.667 +0.05 +0.03    +0.166    10.642
ATOM     32  H   UNL d   1       3.127  -5.692  -8.506 +0.07 +0.04    +0.166    10.642
ATOM     33  C   UNL d   1       6.229  -1.897 -10.672 -0.16 -0.01    +0.141    10.642
ATOM     34  C   UNL d   1       6.253  -0.693 -11.574 -0.19 +0.00    +0.306    10.642
ATOM     35  O   UNL d   1       6.126   0.470 -11.226 -0.58 -0.02    -0.251    10.642
ATOM     36  O   UNL d   1       6.438  -1.016 -12.866 -0.02 -0.04    -0.481    10.642
ATOM     37  H   UNL d   1       6.706  -1.959 -12.848 +0.08 +0.02    +0.295    10.642
ATOM     38  C   UNL d   1       3.544  -5.114  -4.007 -0.45 +0.00    +0.017    10.642
ATOM     39  C   UNL d   1       2.972  -4.251  -3.154 -0.40 +0.01    +0.092    10.642
ATOM     40  C   UNL d   1       2.968  -4.538  -1.717 -0.24 +0.02    +0.330    10.642
ATOM     41  O   UNL d   1       3.332  -3.812  -0.812 -0.25 -0.01    -0.246    10.642
ATOM     42  O   UNL d   1       2.478  -5.768  -1.494 -0.14 -0.00    -0.477    10.642
ATOM     43  H   UNL d   1       3.099  -6.358  -1.968 -0.15 -0.05    +0.295    10.642
ATOM     44  C   UNL d   1       5.351  -8.824 -14.109 -0.03 +0.01    +0.141    10.642
ATOM     45  C   UNL d   1       3.873  -8.943 -14.369 -0.01 +0.04    +0.306    10.642
ATOM     46  O   UNL d   1       3.044  -8.055 -14.271 -0.00 -0.04    -0.251    10.642
ATOM     47  O   UNL d   1       3.510 -10.191 -14.716 +0.00 -0.05    -0.481    10.642
ATOM     48  H   UNL d   1       3.976 -10.771 -14.076 +0.01 +0.03    +0.295    10.642
ATOM     49  C   UNL d   1       0.569  -9.510  -5.770 -0.31 +0.01    +0.048    10.642
ATOM     50  C   UNL d   1       1.291  -9.431  -4.426 -0.31 +0.02    +0.125    10.642
ATOM     51  C   UNL d   1       0.969  -8.145  -3.718 -0.25 +0.04    +0.305    10.642
ATOM     52  O   UNL d   1       0.134  -7.314  -4.030 -0.31 -0.05    -0.251    10.642
ATOM     53  O   UNL d   1       1.745  -7.960  -2.632 -0.05 -0.01    -0.481    10.642
ATOM     54  H   UNL d   1       2.460  -7.369  -2.948 -0.23 -0.05    +0.295    10.642
TER
ENDMDL
MODEL       47
USER    Run = 47
USER    Cluster Rank = 33
USER    Number of conformations in this cluster = 1
USER  
USER    RMSD from reference structure       = 38.839 A
USER  
USER    Estimated Free Energy of Binding    =   -5.64 kcal/mol  [=(1)+(2)+(3)-(4)]
USER    Estimated Inhibition Constant, Ki   =   73.35 uM (micromolar)  [Temperature = 298.15 K]
USER    
USER    (1) Final Intermolecular Energy     =   -9.52 kcal/mol
USER        vdW + Hbond + desolv Energy     =   -8.68 kcal/mol
USER        Electrostatic Energy            =   -0.84 kcal/mol
USER    (2) Final Total Internal Energy     =   -2.15 kcal/mol
USER    (3) Torsional Free Energy           =   +3.88 kcal/mol
USER    (4) Unbound System's Energy  [=(2)] =   -2.15 kcal/mol
USER    
USER    
USER  
USER    DPF = D:/Protein_go_brrr/autodock/final/1A3N/heme/dock.dpf
USER    NEWDPF move	heme_opt.pdbqt
USER    NEWDPF about	0.153000 0.018000 -0.028000
USER    NEWDPF tran0	7.322487 -2.063609 39.568963
USER    NEWDPF axisangle0	0.315463 -0.863538 -0.393429 151.690351
USER    NEWDPF quaternion0	0.305885 -0.837319 -0.381484 0.244543
USER    NEWDPF dihe0	169.43 -74.30 -77.47 -50.10 -146.40 -150.24 130.18 -22.17 18.26 -32.78 -11.75 -94.52 -117.08 
USER  
USER                              x       y       z    vdW   Elec        q     RMS 
ATOM      1  O   UNL d   1      10.146   1.156  43.621 -0.02 -0.01    -0.289    38.839
ATOM      2  O   UNL d   1      12.273  -4.972  39.837 -0.31 -0.11    -0.289    38.839
ATOM      3  N   UNL d   1       8.071  -0.489  41.412 -0.09 +0.04    -0.247    38.839
ATOM      4  N   UNL d   1       9.846  -2.547  40.210 -0.09 -0.01    -0.247    38.839
ATOM      5  N   UNL d   1       7.842  -2.964  38.191 -0.06 +0.04    -0.354    38.839
ATOM      6  N   UNL d   1       6.015  -0.813  39.432 -0.05 +0.13    -0.354    38.839
ATOM      7  C   UNL d   1       7.923   1.589  42.701 -0.13 -0.00    +0.084    38.839
ATOM      8  C   UNL d   1      11.749  -3.300  41.546 -0.08 +0.02    +0.084    38.839
ATOM      9  C   UNL d   1      10.558  -2.351  41.372 -0.07 +0.01    +0.058    38.839
ATOM     10  C   UNL d   1       7.288   0.614  41.706 -0.15 -0.01    +0.058    38.839
ATOM     11  C   UNL d   1       9.196   0.832  42.932 -0.05 +0.00    +0.193    38.839
ATOM     12  C   UNL d   1       9.154  -0.422  42.114 -0.08 -0.00    +0.109    38.839
ATOM     13  C   UNL d   1      11.602  -4.046  40.250 -0.18 +0.05    +0.193    38.839
ATOM     14  C   UNL d   1       8.258   2.935  42.053 -0.03 +0.00    +0.026    38.839
ATOM     15  C   UNL d   1      10.270  -1.380  42.252 -0.06 +0.00    +0.055    38.839
ATOM     16  C   UNL d   1      11.531  -4.277  42.705 -0.06 +0.01    +0.026    38.839
ATOM     17  C   UNL d   1      10.416  -3.490  39.531 -0.18 +0.01    +0.109    38.839
ATOM     18  C   UNL d   1       6.036   0.796  41.245 -0.27 -0.01    +0.050    38.839
ATOM     19  C   UNL d   1       5.337  -0.093  40.390 -0.26 -0.01    +0.045    38.839
ATOM     20  C   UNL d   1       8.870  -3.696  37.657 -0.20 -0.01    +0.045    38.839
ATOM     21  C   UNL d   1      10.052  -4.002  38.202 +0.05 -0.01    +0.057    38.839
ATOM     22  C   UNL d   1       7.166  -3.600  36.138 -0.14 +0.00    -0.019    38.839
ATOM     23  C   UNL d   1       6.769  -2.850  37.347 -0.15 -0.01    +0.045    38.839
ATOM     24  C   UNL d   1       8.410  -4.100  36.329 -0.22 +0.00    -0.022    38.839
ATOM     25  C   UNL d   1       5.137  -1.539  38.661 -0.21 -0.01    +0.049    38.839
ATOM     26  C   UNL d   1       3.988  -0.386  40.261 -0.24 +0.00    -0.018    38.839
ATOM     27  C   UNL d   1       3.870  -1.315  39.181 -0.23 -0.00    +0.003    38.839
ATOM     28  C   UNL d   1       5.586  -2.239  37.508 -0.21 -0.01    +0.052    38.839
ATOM     29  C   UNL d   1       9.233  -4.932  35.405 -0.34 -0.02    +0.046    38.839
ATOM     30  C   UNL d   1       2.876   0.159  41.091 -0.22 -0.01    +0.046    38.839
ATOM     31  H   UNL d   1       7.877  -2.626  39.147 +0.03 -0.02    +0.166    38.839
ATOM     32  H   UNL d   1       7.019  -0.769  39.304 -0.45 -0.10    +0.166    38.839
ATOM     33  C   UNL d   1       7.161   1.774  44.018 -0.04 +0.00    +0.141    38.839
ATOM     34  C   UNL d   1       7.137   0.522  44.854 -0.00 +0.00    +0.306    38.839
ATOM     35  O   UNL d   1       6.273  -0.338  44.837 -0.00 +0.00    -0.251    38.839
ATOM     36  O   UNL d   1       8.205   0.420  45.664 +0.00 -0.01    -0.481    38.839
ATOM     37  H   UNL d   1       8.831   1.100  45.335 +0.01 +0.01    +0.295    38.839
ATOM     38  C   UNL d   1       2.640  -1.868  38.700 -0.27 -0.01    +0.017    38.839
ATOM     39  C   UNL d   1       2.185  -1.767  37.442 -0.30 -0.03    +0.092    38.839
ATOM     40  C   UNL d   1       0.914  -2.397  37.073 -0.21 -0.16    +0.330    38.839
ATOM     41  O   UNL d   1       0.578  -2.807  35.978 -0.29 +0.07    -0.246    38.839
ATOM     42  O   UNL d   1       0.113  -2.485  38.146 -0.12 +0.42    -0.477    38.839
ATOM     43  H   UNL d   1      -0.559  -1.788  37.995 -0.17 -0.58    +0.295    38.839
ATOM     44  C   UNL d   1      13.122  -2.626  41.639 -0.08 +0.02    +0.141    38.839
ATOM     45  C   UNL d   1      13.709  -2.285  40.295 -0.12 +0.04    +0.306    38.839
ATOM     46  O   UNL d   1      13.506  -1.271  39.650 -0.50 -0.04    -0.251    38.839
ATOM     47  O   UNL d   1      14.504  -3.259  39.818 -0.16 +0.01    -0.481    38.839
ATOM     48  H   UNL d   1      13.954  -3.726  39.154 -0.42 -0.02    +0.295    38.839
ATOM     49  C   UNL d   1       6.308  -3.744  34.916 -0.16 -0.00    +0.048    38.839
ATOM     50  C   UNL d   1       7.131  -4.113  33.683 -0.23 -0.02    +0.125    38.839
ATOM     51  C   UNL d   1       6.239  -4.510  32.541 -0.17 +0.01    +0.305    38.839
ATOM     52  O   UNL d   1       5.129  -5.010  32.604 -0.37 -0.18    -0.251    38.839
ATOM     53  O   UNL d   1       6.809  -4.262  31.345 +0.03 +0.16    -0.481    38.839
ATOM     54  H   UNL d   1       6.716  -5.107  30.857 -0.37 -0.50    +0.295    38.839
TER
ENDMDL
MODEL       42
USER    Run = 42
USER    Cluster Rank = 34
USER    Number of conformations in this cluster = 1
USER  
USER    RMSD from reference structure       = 28.496 A
USER  
USER    Estimated Free Energy of Binding    =   -5.52 kcal/mol  [=(1)+(2)+(3)-(4)]
USER    Estimated Inhibition Constant, Ki   =   89.73 uM (micromolar)  [Temperature = 298.15 K]
USER    
USER    (1) Final Intermolecular Energy     =   -9.40 kcal/mol
USER        vdW + Hbond + desolv Energy     =   -9.19 kcal/mol
USER        Electrostatic Energy            =   -0.21 kcal/mol
USER    (2) Final Total Internal Energy     =   -1.00 kcal/mol
USER    (3) Torsional Free Energy           =   +3.88 kcal/mol
USER    (4) Unbound System's Energy  [=(2)] =   -1.00 kcal/mol
USER    
USER    
USER  
USER    DPF = D:/Protein_go_brrr/autodock/final/1A3N/heme/dock.dpf
USER    NEWDPF move	heme_opt.pdbqt
USER    NEWDPF about	0.153000 0.018000 -0.028000
USER    NEWDPF tran0	18.595337 -22.031797 14.785887
USER    NEWDPF axisangle0	-0.245448 0.420775 -0.873329 -166.168094
USER    NEWDPF quaternion0	-0.243663 0.417713 -0.866975 -0.120413
USER    NEWDPF dihe0	179.85 -31.07 12.04 78.14 39.31 128.86 24.86 -149.86 179.39 -128.63 -65.95 7.85 142.63 
USER  
USER                              x       y       z    vdW   Elec        q     RMS 
ATOM      1  O   UNL d   1      23.725 -21.200  12.002 -0.31 +0.00    -0.289    28.496
ATOM      2  O   UNL d   1      20.008 -16.871  16.884 -0.14 -0.05    -0.289    28.496
ATOM      3  N   UNL d   1      20.640 -22.055  13.286 -0.14 +0.13    -0.247    28.496
ATOM      4  N   UNL d   1      20.130 -19.937  15.306 -0.16 +0.04    -0.247    28.496
ATOM      5  N   UNL d   1      17.991 -21.561  16.333 -0.09 +0.02    -0.354    28.496
ATOM      6  N   UNL d   1      18.540 -23.763  14.246 -0.06 +0.12    -0.354    28.496
ATOM      7  C   UNL d   1      22.293 -23.176  11.864 -0.28 -0.04    +0.084    28.496
ATOM      8  C   UNL d   1      21.225 -17.779  14.964 -0.30 +0.01    +0.084    28.496
ATOM      9  C   UNL d   1      21.031 -19.238  14.535 -0.32 -0.00    +0.058    28.496
ATOM     10  C   UNL d   1      20.944 -23.213  12.589 -0.10 -0.04    +0.058    28.496
ATOM     11  C   UNL d   1      22.688 -21.785  12.258 -0.29 -0.04    +0.193    28.496
ATOM     12  C   UNL d   1      21.593 -21.202  13.097 -0.34 -0.02    +0.109    28.496
ATOM     13  C   UNL d   1      20.294 -17.792  16.144 -0.17 +0.01    +0.193    28.496
ATOM     14  C   UNL d   1      23.296 -24.165  12.463 -0.14 -0.02    +0.026    28.496
ATOM     15  C   UNL d   1      21.721 -19.795  13.528 -0.40 +0.01    +0.055    28.496
ATOM     16  C   UNL d   1      20.681 -16.803  13.918 -0.37 +0.00    +0.026    28.496
ATOM     17  C   UNL d   1      19.700 -19.159  16.247 -0.21 -0.00    +0.109    28.496
ATOM     18  C   UNL d   1      20.109 -24.261  12.466 -0.14 -0.02    +0.050    28.496
ATOM     19  C   UNL d   1      18.810 -24.349  13.030 -0.08 -0.01    +0.045    28.496
ATOM     20  C   UNL d   1      18.053 -20.605  17.313 -0.28 +0.01    +0.045    28.496
ATOM     21  C   UNL d   1      18.776 -19.481  17.343 -0.40 +0.01    +0.057    28.496
ATOM     22  C   UNL d   1      16.594 -22.238  17.965 -0.18 -0.00    -0.019    28.496
ATOM     23  C   UNL d   1      17.137 -22.588  16.637 -0.13 -0.00    +0.045    28.496
ATOM     24  C   UNL d   1      17.139 -21.063  18.360 -0.32 -0.00    -0.022    28.496
ATOM     25  C   UNL d   1      17.254 -24.046  14.644 -0.06 -0.01    +0.049    28.496
ATOM     26  C   UNL d   1      17.660 -24.998  12.610 -0.03 +0.00    -0.018    28.496
ATOM     27  C   UNL d   1      16.675 -24.787  13.624 -0.02 -0.00    +0.003    28.496
ATOM     28  C   UNL d   1      16.795 -23.682  15.939 -0.09 -0.00    +0.052    28.496
ATOM     29  C   UNL d   1      16.897 -20.298  19.616 -0.43 +0.02    +0.046    28.496
ATOM     30  C   UNL d   1      17.483 -25.766  11.344 -0.02 -0.00    +0.046    28.496
ATOM     31  H   UNL d   1      18.480 -21.444  15.452 +0.06 -0.02    +0.166    28.496
ATOM     32  H   UNL d   1      19.222 -23.235  14.777 -0.00 -0.10    +0.166    28.496
ATOM     33  C   UNL d   1      22.221 -23.303  10.338 -0.23 -0.04    +0.141    28.496
ATOM     34  C   UNL d   1      23.209 -24.299   9.793 -0.18 -0.06    +0.306    28.496
ATOM     35  O   UNL d   1      22.993 -25.477   9.567 -0.09 +0.03    -0.251    28.496
ATOM     36  O   UNL d   1      24.417 -23.756   9.559 -0.18 +0.11    -0.481    28.496
ATOM     37  H   UNL d   1      24.307 -22.806   9.778 -0.37 -0.17    +0.295    28.496
ATOM     38  C   UNL d   1      15.339 -25.303  13.596 -0.01 +0.00    +0.017    28.496
ATOM     39  C   UNL d   1      14.234 -24.608  13.908 -0.00 +0.01    +0.092    28.496
ATOM     40  C   UNL d   1      12.920 -25.250  13.822 +0.00 +0.03    +0.330    28.496
ATOM     41  O   UNL d   1      12.066 -25.313  14.686 +0.00 -0.03    -0.246    28.496
ATOM     42  O   UNL d   1      12.747 -25.787  12.605 +0.00 -0.04    -0.477    28.496
ATOM     43  H   UNL d   1      12.174 -26.564  12.770 +0.00 +0.02    +0.295    28.496
ATOM     44  C   UNL d   1      22.647 -17.400  15.391 -0.32 +0.01    +0.141    28.496
ATOM     45  C   UNL d   1      22.769 -15.968  15.841 -0.32 +0.02    +0.306    28.496
ATOM     46  O   UNL d   1      21.996 -15.060  15.594 -0.32 -0.01    -0.251    28.496
ATOM     47  O   UNL d   1      23.884 -15.749  16.561 -0.25 -0.04    -0.481    28.496
ATOM     48  H   UNL d   1      23.761 -14.854  16.943 +0.01 +0.01    +0.295    28.496
ATOM     49  C   UNL d   1      15.615 -23.085  18.724 -0.15 +0.00    +0.048    28.496
ATOM     50  C   UNL d   1      16.167 -24.483  19.002 -0.13 -0.01    +0.125    28.496
ATOM     51  C   UNL d   1      16.353 -24.702  20.477 -0.10 -0.02    +0.305    28.496
ATOM     52  O   UNL d   1      17.110 -25.487  21.021 -0.16 +0.02    -0.251    28.496
ATOM     53  O   UNL d   1      15.547 -23.909  21.210 -0.06 +0.02    -0.481    28.496
ATOM     54  H   UNL d   1      16.138 -23.193  21.524 -0.40 -0.07    +0.295    28.496
TER
ENDMDL
MODEL       83
USER    Run = 83
USER    Cluster Rank = 35
USER    Number of conformations in this cluster = 2
USER  
USER    RMSD from reference structure       = 22.433 A
USER  
USER    Estimated Free Energy of Binding    =   -5.48 kcal/mol  [=(1)+(2)+(3)-(4)]
USER    Estimated Inhibition Constant, Ki   =   95.91 uM (micromolar)  [Temperature = 298.15 K]
USER    
USER    (1) Final Intermolecular Energy     =   -9.36 kcal/mol
USER        vdW + Hbond + desolv Energy     =   -8.70 kcal/mol
USER        Electrostatic Energy            =   -0.66 kcal/mol
USER    (2) Final Total Internal Energy     =   -2.31 kcal/mol
USER    (3) Torsional Free Energy           =   +3.88 kcal/mol
USER    (4) Unbound System's Energy  [=(2)] =   -2.31 kcal/mol
USER    
USER    
USER  
USER    DPF = D:/Protein_go_brrr/autodock/final/1A3N/heme/dock.dpf
USER    NEWDPF move	heme_opt.pdbqt
USER    NEWDPF about	0.153000 0.018000 -0.028000
USER    NEWDPF tran0	18.449343 14.423008 11.721875
USER    NEWDPF axisangle0	-0.451724 -0.714680 0.534020 -36.442195
USER    NEWDPF quaternion0	-0.141247 -0.223469 0.166980 -0.949857
USER    NEWDPF dihe0	168.92 -132.51 114.12 11.00 -149.89 -8.04 -63.03 17.71 9.82 -142.44 1.93 -12.28 -180.00 
USER  
USER                              x       y       z    vdW   Elec        q     RMS 
ATOM      1  O   UNL d   1      12.977  13.942   9.583 -0.05 -0.05    -0.289    22.433
ATOM      2  O   UNL d   1      18.182   8.724  11.023 -0.07 -0.25    -0.289    22.433
ATOM      3  N   UNL d   1      16.138  14.721  10.721 +0.01 -0.02    -0.247    22.433
ATOM      4  N   UNL d   1      17.338  12.061  11.278 -0.02 +0.00    -0.247    22.433
ATOM      5  N   UNL d   1      19.432  13.409  12.715 -0.05 -0.03    -0.354    22.433
ATOM      6  N   UNL d   1      18.170  16.164  12.148 -0.04 -0.07    -0.354    22.433
ATOM      7  C   UNL d   1      14.088  15.997  10.301 -0.13 +0.02    +0.084    22.433
ATOM      8  C   UNL d   1      16.471  10.156  10.017 -0.14 +0.02    +0.084    22.433
ATOM      9  C   UNL d   1      16.383  11.642  10.379 -0.16 +0.00    +0.058    22.433
ATOM     10  C   UNL d   1      15.547  15.973  10.765 -0.13 +0.01    +0.058    22.433
ATOM     11  C   UNL d   1      13.964  14.541   9.969 -0.08 +0.03    +0.193    22.433
ATOM     12  C   UNL d   1      15.280  13.880  10.242 -0.14 +0.01    +0.109    22.433
ATOM     13  C   UNL d   1      17.629   9.800  10.905 -0.12 +0.09    +0.193    22.433
ATOM     14  C   UNL d   1      13.127  16.328  11.446 -0.26 +0.00    +0.026    22.433
ATOM     15  C   UNL d   1      15.425  12.451   9.900 -0.19 +0.00    +0.055    22.433
ATOM     16  C   UNL d   1      16.888   9.951   8.557 -0.39 +0.00    +0.026    22.433
ATOM     17  C   UNL d   1      18.057  11.040  11.621 -0.11 +0.02    +0.109    22.433
ATOM     18  C   UNL d   1      16.199  17.104  11.095 -0.12 +0.01    +0.050    22.433
ATOM     19  C   UNL d   1      17.569  17.189  11.453 -0.02 +0.01    +0.045    22.433
ATOM     20  C   UNL d   1      19.706  12.112  13.062 -0.16 +0.01    +0.045    22.433
ATOM     21  C   UNL d   1      19.153  10.986  12.600 -0.19 +0.02    +0.057    22.433
ATOM     22  C   UNL d   1      21.058  13.501  14.270 -0.15 -0.01    -0.019    22.433
ATOM     23  C   UNL d   1      20.199  14.320  13.393 -0.17 +0.01    +0.045    22.433
ATOM     24  C   UNL d   1      20.763  12.195  14.069 -0.15 -0.01    -0.022    22.433
ATOM     25  C   UNL d   1      19.466  16.493  12.469 -0.14 +0.01    +0.049    22.433
ATOM     26  C   UNL d   1      18.509  18.193  11.286 -0.10 -0.00    -0.018    22.433
ATOM     27  C   UNL d   1      19.711  17.740  11.912 -0.13 +0.00    +0.003    22.433
ATOM     28  C   UNL d   1      20.241  15.659  13.321 -0.18 +0.02    +0.052    22.433
ATOM     29  C   UNL d   1      21.368  10.992  14.710 -0.17 +0.02    +0.046    22.433
ATOM     30  C   UNL d   1      18.307  19.494  10.586 -0.08 +0.01    +0.046    22.433
ATOM     31  H   UNL d   1      18.780  13.628  11.969 -0.43 -0.02    +0.166    22.433
ATOM     32  H   UNL d   1      17.692  15.311  12.413 +0.04 +0.02    +0.166    22.433
ATOM     33  C   UNL d   1      13.806  16.856   9.064 -0.11 +0.05    +0.141    22.433
ATOM     34  C   UNL d   1      14.625  16.442   7.872 -0.14 +0.11    +0.306    22.433
ATOM     35  O   UNL d   1      15.683  16.934   7.518 -0.21 -0.09    -0.251    22.433
ATOM     36  O   UNL d   1      14.069  15.425   7.189 -0.11 -0.13    -0.481    22.433
ATOM     37  H   UNL d   1      13.375  15.077   7.788 +0.15 +0.08    +0.295    22.433
ATOM     38  C   UNL d   1      20.934  18.482  11.985 -0.18 +0.01    +0.017    22.433
ATOM     39  C   UNL d   1      22.156  17.948  12.133 -0.26 +0.04    +0.092    22.433
ATOM     40  C   UNL d   1      23.333  18.820  12.177 -0.20 +0.21    +0.330    22.433
ATOM     41  O   UNL d   1      23.387  20.009  11.927 -0.21 -0.14    -0.246    22.433
ATOM     42  O   UNL d   1      24.413  18.118  12.555 -0.26 -0.33    -0.477    22.433
ATOM     43  H   UNL d   1      24.377  17.314  11.998 -0.38 +0.02    +0.295    22.433
ATOM     44  C   UNL d   1      15.236   9.318  10.363 -0.10 +0.06    +0.141    22.433
ATOM     45  C   UNL d   1      15.251   7.950   9.736 -0.13 +0.16    +0.306    22.433
ATOM     46  O   UNL d   1      14.564   7.569   8.804 -0.19 -0.07    -0.251    22.433
ATOM     47  O   UNL d   1      16.120   7.117  10.338 -0.14 -0.65    -0.481    22.433
ATOM     48  H   UNL d   1      17.004   7.495  10.139 +0.13 +0.33    +0.295    22.433
ATOM     49  C   UNL d   1      22.068  14.066  15.226 -0.23 +0.03    +0.048    22.433
ATOM     50  C   UNL d   1      21.508  14.181  16.643 -0.22 +0.06    +0.125    22.433
ATOM     51  C   UNL d   1      22.511  14.811  17.567 -0.27 +0.15    +0.305    22.433
ATOM     52  O   UNL d   1      23.550  15.371  17.265 -0.60 -0.25    -0.251    22.433
ATOM     53  O   UNL d   1      22.152  14.689  18.861 -0.51 +0.00    -0.481    22.433
ATOM     54  H   UNL d   1      22.776  15.275  19.337 -0.36 -0.19    +0.295    22.433
TER
ENDMDL
MODEL       58
USER    Run = 58
USER    Cluster Rank = 36
USER    Number of conformations in this cluster = 1
USER  
USER    RMSD from reference structure       = 17.699 A
USER  
USER    Estimated Free Energy of Binding    =   -5.38 kcal/mol  [=(1)+(2)+(3)-(4)]
USER    Estimated Inhibition Constant, Ki   =  113.99 uM (micromolar)  [Temperature = 298.15 K]
USER    
USER    (1) Final Intermolecular Energy     =   -9.26 kcal/mol
USER        vdW + Hbond + desolv Energy     =   -8.96 kcal/mol
USER        Electrostatic Energy            =   -0.29 kcal/mol
USER    (2) Final Total Internal Energy     =   -2.21 kcal/mol
USER    (3) Torsional Free Energy           =   +3.88 kcal/mol
USER    (4) Unbound System's Energy  [=(2)] =   -2.21 kcal/mol
USER    
USER    
USER  
USER    DPF = D:/Protein_go_brrr/autodock/final/1A3N/heme/dock.dpf
USER    NEWDPF move	heme_opt.pdbqt
USER    NEWDPF about	0.153000 0.018000 -0.028000
USER    NEWDPF tran0	18.827441 -5.192075 9.755686
USER    NEWDPF axisangle0	-0.515351 -0.061982 0.854735 126.063887
USER    NEWDPF quaternion0	-0.459311 -0.055242 0.761791 0.453494
USER    NEWDPF dihe0	179.92 180.00 -93.17 72.43 46.16 -103.91 164.32 -73.95 148.03 -100.57 143.19 -179.03 -166.55 
USER  
USER                              x       y       z    vdW   Elec        q     RMS 
ATOM      1  O   UNL d   1      20.595  -2.908  14.895 -0.18 +0.02    -0.289    17.699
ATOM      2  O   UNL d   1      16.702   0.123   9.234 -0.26 +0.05    -0.289    17.699
ATOM      3  N   UNL d   1      19.901  -4.616  11.981 -0.09 -0.01    -0.247    17.699
ATOM      4  N   UNL d   1      18.104  -2.760  10.513 -0.09 +0.00    -0.247    17.699
ATOM      5  N   UNL d   1      17.447  -4.936   8.752 -0.05 -0.01    -0.354    17.699
ATOM      6  N   UNL d   1      19.298  -6.860  10.292 -0.05 -0.02    -0.354    17.699
ATOM      7  C   UNL d   1      20.930  -5.204  14.126 -0.21 +0.00    +0.084    17.699
ATOM      8  C   UNL d   1      18.312  -0.376  11.009 -0.19 +0.00    +0.084    17.699
ATOM      9  C   UNL d   1      18.712  -1.823  11.318 -0.12 -0.00    +0.058    17.699
ATOM     10  C   UNL d   1      20.478  -5.630  12.726 -0.18 +0.00    +0.058    17.699
ATOM     11  C   UNL d   1      20.522  -3.765  14.033 -0.12 -0.00    +0.193    17.699
ATOM     12  C   UNL d   1      19.935  -3.527  12.676 -0.11 -0.00    +0.109    17.699
ATOM     13  C   UNL d   1      17.336  -0.668   9.905 -0.19 -0.02    +0.193    17.699
ATOM     14  C   UNL d   1      20.108  -5.882  15.226 -0.33 +0.00    +0.026    17.699
ATOM     15  C   UNL d   1      19.543  -2.148  12.320 -0.16 -0.00    +0.055    17.699
ATOM     16  C   UNL d   1      19.483   0.426  10.432 -0.08 +0.00    +0.026    17.699
ATOM     17  C   UNL d   1      17.296  -2.149   9.707 -0.16 -0.01    +0.109    17.699
ATOM     18  C   UNL d   1      20.719  -6.869  12.256 -0.26 +0.00    +0.050    17.699
ATOM     19  C   UNL d   1      20.414  -7.326  10.949 -0.22 +0.00    +0.045    17.699
ATOM     20  C   UNL d   1      16.512  -4.017   8.350 -0.16 -0.00    +0.045    17.699
ATOM     21  C   UNL d   1      16.387  -2.736   8.711 -0.21 -0.01    +0.057    17.699
ATOM     22  C   UNL d   1      16.091  -6.004   7.305 -0.18 -0.00    -0.019    17.699
ATOM     23  C   UNL d   1      17.274  -6.165   8.174 -0.14 +0.00    +0.045    17.699
ATOM     24  C   UNL d   1      15.645  -4.730   7.413 -0.20 -0.00    -0.022    17.699
ATOM     25  C   UNL d   1      19.146  -7.499   9.084 -0.18 +0.00    +0.049    17.699
ATOM     26  C   UNL d   1      21.023  -8.266  10.131 -0.32 -0.00    -0.018    17.699
ATOM     27  C   UNL d   1      20.229  -8.356   8.946 -0.28 -0.00    +0.003    17.699
ATOM     28  C   UNL d   1      17.981  -7.300   8.295 -0.17 +0.00    +0.052    17.699
ATOM     29  C   UNL d   1      14.491  -4.084   6.725 -0.38 -0.01    +0.046    17.699
ATOM     30  C   UNL d   1      22.268  -9.031  10.428 -0.47 +0.00    +0.046    17.699
ATOM     31  H   UNL d   1      18.220  -4.671   9.353 +0.05 +0.00    +0.166    17.699
ATOM     32  H   UNL d   1      18.666  -6.170  10.681 +0.05 +0.01    +0.166    17.699
ATOM     33  C   UNL d   1      22.434  -5.321  14.395 -0.38 -0.01    +0.141    17.699
ATOM     34  C   UNL d   1      22.767  -5.256  15.861 -0.37 -0.03    +0.306    17.699
ATOM     35  O   UNL d   1      23.012  -6.205  16.586 -0.41 +0.00    -0.251    17.699
ATOM     36  O   UNL d   1      22.775  -3.998  16.336 -0.02 +0.17    -0.481    17.699
ATOM     37  H   UNL d   1      22.594  -3.437  15.552 -0.07 -0.12    +0.295    17.699
ATOM     38  C   UNL d   1      20.494  -9.225   7.840 -0.30 -0.00    +0.017    17.699
ATOM     39  C   UNL d   1      20.969 -10.477   7.934 -0.29 -0.00    +0.092    17.699
ATOM     40  C   UNL d   1      21.181 -11.271   6.721 -0.17 +0.02    +0.330    17.699
ATOM     41  O   UNL d   1      20.510 -12.199   6.313 -0.16 -0.04    -0.246    17.699
ATOM     42  O   UNL d   1      22.262 -10.826   6.061 -0.14 +0.05    -0.477    17.699
ATOM     43  H   UNL d   1      22.584 -10.084   6.612 -0.11 -0.11    +0.295    17.699
ATOM     44  C   UNL d   1      17.634   0.380  12.156 -0.13 +0.01    +0.141    17.699
ATOM     45  C   UNL d   1      16.663   1.430  11.683 -0.13 +0.07    +0.306    17.699
ATOM     46  O   UNL d   1      15.471   1.482  11.930 -0.09 -0.06    -0.251    17.699
ATOM     47  O   UNL d   1      17.246   2.351  10.894 -0.12 -0.20    -0.481    17.699
ATOM     48  H   UNL d   1      17.213   1.963   9.994 +0.02 +0.03    +0.295    17.699
ATOM     49  C   UNL d   1      15.503  -7.104   6.470 -0.19 +0.01    +0.048    17.699
ATOM     50  C   UNL d   1      14.148  -7.563   7.007 -0.24 +0.05    +0.125    17.699
ATOM     51  C   UNL d   1      14.124  -7.525   8.509 -0.05 +0.15    +0.305    17.699
ATOM     52  O   UNL d   1      14.583  -8.348   9.280 -0.05 -0.09    -0.251    17.699
ATOM     53  O   UNL d   1      13.497  -6.427   8.976 +0.01 -0.36    -0.481    17.699
ATOM     54  H   UNL d   1      14.221  -5.873   9.334 +0.08 +0.12    +0.295    17.699
TER
ENDMDL
MODEL       18
USER    Run = 18
USER    Cluster Rank = 37
USER    Number of conformations in this cluster = 1
USER  
USER    RMSD from reference structure       = 41.461 A
USER  
USER    Estimated Free Energy of Binding    =   -5.18 kcal/mol  [=(1)+(2)+(3)-(4)]
USER    Estimated Inhibition Constant, Ki   =  158.58 uM (micromolar)  [Temperature = 298.15 K]
USER    
USER    (1) Final Intermolecular Energy     =   -9.06 kcal/mol
USER        vdW + Hbond + desolv Energy     =   -8.62 kcal/mol
USER        Electrostatic Energy            =   -0.44 kcal/mol
USER    (2) Final Total Internal Energy     =   -2.15 kcal/mol
USER    (3) Torsional Free Energy           =   +3.88 kcal/mol
USER    (4) Unbound System's Energy  [=(2)] =   -2.15 kcal/mol
USER    
USER    
USER  
USER    DPF = D:/Protein_go_brrr/autodock/final/1A3N/heme/dock.dpf
USER    NEWDPF move	heme_opt.pdbqt
USER    NEWDPF about	0.153000 0.018000 -0.028000
USER    NEWDPF tran0	21.252903 -4.800834 38.011515
USER    NEWDPF axisangle0	-0.120296 -0.283051 -0.951531 98.986865
USER    NEWDPF quaternion0	-0.091465 -0.215213 -0.723479 0.649535
USER    NEWDPF dihe0	-100.47 -157.04 -107.76 104.26 33.97 -42.41 175.18 107.77 125.61 16.91 30.60 56.82 169.17 
USER  
USER                              x       y       z    vdW   Elec        q     RMS 
ATOM      1  O   UNL d   1      20.782 -10.278  40.141 -0.07 -0.04    -0.289    41.461
ATOM      2  O   UNL d   1      25.337  -7.399  34.912 -0.12 -0.17    -0.289    41.461
ATOM      3  N   UNL d   1      20.600  -6.992  39.110 -0.10 -0.04    -0.247    41.461
ATOM      4  N   UNL d   1      22.935  -6.716  37.294 -0.10 -0.07    -0.247    41.461
ATOM      5  N   UNL d   1      22.576  -3.866  37.415 -0.04 -0.06    -0.354    41.461
ATOM      6  N   UNL d   1      20.166  -4.160  39.315 +0.04 -0.04    -0.354    41.461
ATOM      7  C   UNL d   1      19.509  -8.318  40.859 -0.12 +0.01    +0.084    41.461
ATOM      8  C   UNL d   1      23.737  -8.742  36.188 -0.18 +0.03    +0.084    41.461
ATOM      9  C   UNL d   1      22.795  -8.082  37.201 -0.17 +0.02    +0.058    41.461
ATOM     10  C   UNL d   1      19.690  -6.971  40.154 -0.16 +0.01    +0.058    41.461
ATOM     11  C   UNL d   1      20.464  -9.109  40.017 -0.10 +0.03    +0.193    41.461
ATOM     12  C   UNL d   1      21.041  -8.200  38.976 -0.16 +0.02    +0.109    41.461
ATOM     13  C   UNL d   1      24.463  -7.501  35.751 -0.17 +0.10    +0.193    41.461
ATOM     14  C   UNL d   1      20.027  -8.287  42.299 -0.05 +0.00    +0.026    41.461
ATOM     15  C   UNL d   1      21.945  -8.785  37.966 -0.17 +0.01    +0.055    41.461
ATOM     16  C   UNL d   1      22.973  -9.313  34.989 -0.28 +0.01    +0.026    41.461
ATOM     17  C   UNL d   1      23.888  -6.344  36.501 -0.17 +0.04    +0.109    41.461
ATOM     18  C   UNL d   1      18.946  -5.898  40.485 -0.18 +0.01    +0.050    41.461
ATOM     19  C   UNL d   1      18.984  -4.639  39.834 -0.14 +0.00    +0.045    41.461
ATOM     20  C   UNL d   1      23.787  -3.923  36.776 -0.18 +0.01    +0.045    41.461
ATOM     21  C   UNL d   1      24.437  -4.993  36.309 -0.23 +0.02    +0.057    41.461
ATOM     22  C   UNL d   1      23.318  -1.744  37.275 -0.22 -0.00    -0.019    41.461
ATOM     23  C   UNL d   1      22.209  -2.591  37.756 -0.13 +0.00    +0.045    41.461
ATOM     24  C   UNL d   1      24.248  -2.538  36.694 -0.27 -0.00    -0.022    41.461
ATOM     25  C   UNL d   1      19.994  -2.891  38.814 -0.11 +0.00    +0.049    41.461
ATOM     26  C   UNL d   1      18.012  -3.671  39.633 -0.23 -0.00    -0.018    41.461
ATOM     27  C   UNL d   1      18.651  -2.577  38.971 -0.22 +0.00    +0.003    41.461
ATOM     28  C   UNL d   1      21.107  -2.128  38.366 -0.14 +0.00    +0.052    41.461
ATOM     29  C   UNL d   1      25.536  -2.150  36.051 -0.38 +0.01    +0.046    41.461
ATOM     30  C   UNL d   1      16.577  -3.754  40.029 -0.09 -0.00    +0.046    41.461
ATOM     31  H   UNL d   1      22.003  -4.695  37.533 +0.05 +0.03    +0.166    41.461
ATOM     32  H   UNL d   1      21.039  -4.673  39.345 +0.03 +0.02    +0.166    41.461
ATOM     33  C   UNL d   1      18.100  -8.916  40.781 -0.18 +0.03    +0.141    41.461
ATOM     34  C   UNL d   1      18.029 -10.307  41.350 -0.08 +0.06    +0.306    41.461
ATOM     35  O   UNL d   1      17.819 -10.599  42.515 -0.03 -0.05    -0.251    41.461
ATOM     36  O   UNL d   1      18.225 -11.259  40.420 -0.04 -0.07    -0.481    41.461
ATOM     37  H   UNL d   1      19.195 -11.260  40.269 +0.05 +0.04    +0.295    41.461
ATOM     38  C   UNL d   1      18.010  -1.356  38.588 -0.25 -0.00    +0.017    41.461
ATOM     39  C   UNL d   1      17.350  -1.155  37.437 -0.36 -0.01    +0.092    41.461
ATOM     40  C   UNL d   1      16.721   0.141  37.172 -0.18 +0.00    +0.330    41.461
ATOM     41  O   UNL d   1      16.053   0.813  37.935 -0.13 -0.02    -0.246    41.461
ATOM     42  O   UNL d   1      16.988   0.537  35.918 -0.14 +0.00    -0.477    41.461
ATOM     43  H   UNL d   1      17.194  -0.297  35.448 -0.19 -0.10    +0.295    41.461
ATOM     44  C   UNL d   1      24.711  -9.773  36.766 -0.15 +0.08    +0.141    41.461
ATOM     45  C   UNL d   1      25.154  -9.451  38.169 -0.07 +0.26    +0.306    41.461
ATOM     46  O   UNL d   1      25.162 -10.213  39.121 -0.06 -0.14    -0.251    41.461
ATOM     47  O   UNL d   1      25.539  -8.170  38.306 -0.62 -0.67    -0.481    41.461
ATOM     48  H   UNL d   1      24.706  -7.654  38.251 +0.05 +0.23    +0.295    41.461
ATOM     49  C   UNL d   1      23.372  -0.253  37.438 -0.01 -0.01    +0.048    41.461
ATOM     50  C   UNL d   1      23.959   0.150  38.791 -0.26 +0.01    +0.125    41.461
ATOM     51  C   UNL d   1      23.356   1.438  39.275 -0.18 +0.02    +0.305    41.461
ATOM     52  O   UNL d   1      22.485   1.582  40.114 -0.10 -0.03    -0.251    41.461
ATOM     53  O   UNL d   1      23.888   2.509  38.652 -0.71 -0.04    -0.481    41.461
ATOM     54  H   UNL d   1      24.766   2.619  39.074 -0.43 -0.00    +0.295    41.461
TER
ENDMDL
MODEL       66
USER    Run = 66
USER    Cluster Rank = 38
USER    Number of conformations in this cluster = 1
USER  
USER    RMSD from reference structure       = 14.041 A
USER  
USER    Estimated Free Energy of Binding    =   -5.10 kcal/mol  [=(1)+(2)+(3)-(4)]
USER    Estimated Inhibition Constant, Ki   =  182.38 uM (micromolar)  [Temperature = 298.15 K]
USER    
USER    (1) Final Intermolecular Energy     =   -8.98 kcal/mol
USER        vdW + Hbond + desolv Energy     =   -8.71 kcal/mol
USER        Electrostatic Energy            =   -0.27 kcal/mol
USER    (2) Final Total Internal Energy     =   -2.34 kcal/mol
USER    (3) Torsional Free Energy           =   +3.88 kcal/mol
USER    (4) Unbound System's Energy  [=(2)] =   -2.34 kcal/mol
USER    
USER    
USER  
USER    DPF = D:/Protein_go_brrr/autodock/final/1A3N/heme/dock.dpf
USER    NEWDPF move	heme_opt.pdbqt
USER    NEWDPF about	0.153000 0.018000 -0.028000
USER    NEWDPF tran0	8.819968 -5.300715 -12.275270
USER    NEWDPF axisangle0	-0.075504 0.134977 -0.987968 100.506864
USER    NEWDPF quaternion0	-0.058053 0.103781 -0.759629 0.639393
USER    NEWDPF dihe0	-127.33 -71.37 -156.87 179.23 37.91 -180.00 132.83 -105.92 146.13 -16.59 -54.49 -158.04 179.28 
USER  
USER                              x       y       z    vdW   Elec        q     RMS 
ATOM      1  O   UNL d   1       8.115 -11.106 -13.026 -0.13 -0.07    -0.289    14.041
ATOM      2  O   UNL d   1      14.123  -6.704 -13.992 -0.06 -0.02    -0.289    14.041
ATOM      3  N   UNL d   1       8.016  -7.686 -12.586 -0.12 -0.01    -0.247    14.041
ATOM      4  N   UNL d   1      10.860  -6.877 -12.882 -0.11 +0.01    -0.247    14.041
ATOM      5  N   UNL d   1      10.150  -4.318 -11.780 -0.06 +0.01    -0.354    14.041
ATOM      6  N   UNL d   1       7.205  -5.173 -11.458 -0.06 -0.01    -0.354    14.041
ATOM      7  C   UNL d   1       6.436  -9.523 -12.219 -0.17 +0.01    +0.084    14.041
ATOM      8  C   UNL d   1      12.297  -8.317 -14.235 -0.07 +0.01    +0.084    14.041
ATOM      9  C   UNL d   1      10.937  -8.063 -13.577 -0.13 +0.00    +0.058    14.041
ATOM     10  C   UNL d   1       6.746  -8.025 -12.150 -0.13 +0.00    +0.058    14.041
ATOM     11  C   UNL d   1       7.749  -9.969 -12.789 -0.14 +0.03    +0.193    14.041
ATOM     12  C   UNL d   1       8.611  -8.761 -12.990 -0.17 +0.01    +0.109    14.041
ATOM     13  C   UNL d   1      12.989  -7.073 -13.753 -0.07 +0.01    +0.193    14.041
ATOM     14  C   UNL d   1       6.265 -10.140 -10.828 -0.29 +0.00    +0.026    14.041
ATOM     15  C   UNL d   1       9.928  -8.945 -13.633 -0.17 +0.01    +0.055    14.041
ATOM     16  C   UNL d   1      12.206  -8.269 -15.764 -0.02 +0.00    +0.026    14.041
ATOM     17  C   UNL d   1      12.012  -6.290 -12.938 -0.15 -0.00    +0.109    14.041
ATOM     18  C   UNL d   1       5.812  -7.130 -11.778 -0.07 +0.00    +0.050    14.041
ATOM     19  C   UNL d   1       5.981  -5.722 -11.765 -0.09 +0.00    +0.045    14.041
ATOM     20  C   UNL d   1      11.516  -4.205 -11.775 -0.17 -0.00    +0.045    14.041
ATOM     21  C   UNL d   1      12.426  -5.034 -12.295 -0.18 -0.00    +0.057    14.041
ATOM     22  C   UNL d   1      10.623  -2.401 -10.695 -0.15 -0.00    -0.019    14.041
ATOM     23  C   UNL d   1       9.523  -3.275 -11.150 -0.14 -0.00    +0.045    14.041
ATOM     24  C   UNL d   1      11.800  -2.957 -11.069 -0.16 -0.00    -0.022    14.041
ATOM     25  C   UNL d   1       7.122  -3.800 -11.415 -0.11 +0.00    +0.049    14.041
ATOM     26  C   UNL d   1       5.088  -4.680 -11.962 -0.07 -0.00    -0.018    14.041
ATOM     27  C   UNL d   1       5.819  -3.469 -11.758 -0.10 +0.00    +0.003    14.041
ATOM     28  C   UNL d   1       8.219  -3.017 -10.965 -0.16 -0.00    +0.052    14.041
ATOM     29  C   UNL d   1      13.183  -2.446 -10.850 -0.21 +0.00    +0.046    14.041
ATOM     30  C   UNL d   1       3.645  -4.799 -12.319 -0.05 +0.01    +0.046    14.041
ATOM     31  H   UNL d   1       9.685  -5.068 -12.280 +0.04 -0.01    +0.166    14.041
ATOM     32  H   UNL d   1       8.032  -5.723 -11.255 +0.04 -0.00    +0.166    14.041
ATOM     33  C   UNL d   1       5.284  -9.913 -13.152 -0.07 +0.02    +0.141    14.041
ATOM     34  C   UNL d   1       4.813 -11.325 -12.932 -0.04 +0.03    +0.306    14.041
ATOM     35  O   UNL d   1       3.915 -11.677 -12.186 -0.04 -0.03    -0.251    14.041
ATOM     36  O   UNL d   1       5.498 -12.221 -13.666 -0.00 -0.06    -0.481    14.041
ATOM     37  H   UNL d   1       6.441 -12.011 -13.493 +0.05 +0.04    +0.295    14.041
ATOM     38  C   UNL d   1       5.270  -2.149 -11.849 -0.21 +0.00    +0.017    14.041
ATOM     39  C   UNL d   1       4.251  -1.682 -11.113 -0.30 +0.00    +0.092    14.041
ATOM     40  C   UNL d   1       3.793  -0.301 -11.291 -0.32 +0.02    +0.330    14.041
ATOM     41  O   UNL d   1       2.869   0.255 -10.729 -0.42 -0.03    -0.246    14.041
ATOM     42  O   UNL d   1       4.562   0.326 -12.195 -0.79 -0.12    -0.477    14.041
ATOM     43  H   UNL d   1       3.978   0.419 -12.976 -0.39 +0.06    +0.295    14.041
ATOM     44  C   UNL d   1      13.035  -9.574 -13.763 -0.12 +0.03    +0.141    14.041
ATOM     45  C   UNL d   1      13.467  -9.503 -12.322 -0.22 +0.07    +0.306    14.041
ATOM     46  O   UNL d   1      12.816  -9.844 -11.350 -0.32 -0.04    -0.251    14.041
ATOM     47  O   UNL d   1      14.696  -8.975 -12.179 -0.46 -0.09    -0.481    14.041
ATOM     48  H   UNL d   1      14.838  -8.452 -12.996 +0.09 +0.04    +0.295    14.041
ATOM     49  C   UNL d   1      10.423  -1.125  -9.931 -0.22 +0.00    +0.048    14.041
ATOM     50  C   UNL d   1      10.556  -1.338  -8.423 -0.36 +0.01    +0.125    14.041
ATOM     51  C   UNL d   1      11.562  -0.391  -7.834 -0.23 +0.12    +0.305    14.041
ATOM     52  O   UNL d   1      12.648  -0.665  -7.354 -0.47 -0.16    -0.251    14.041
ATOM     53  O   UNL d   1      11.133   0.886  -7.869 -0.22 -0.23    -0.481    14.041
ATOM     54  H   UNL d   1      10.257   0.832  -8.305 -0.04 +0.02    +0.295    14.041
TER
ENDMDL
MODEL       75
USER    Run = 75
USER    Cluster Rank = 39
USER    Number of conformations in this cluster = 1
USER  
USER    RMSD from reference structure       = 39.546 A
USER  
USER    Estimated Free Energy of Binding    =   -5.09 kcal/mol  [=(1)+(2)+(3)-(4)]
USER    Estimated Inhibition Constant, Ki   =  185.06 uM (micromolar)  [Temperature = 298.15 K]
USER    
USER    (1) Final Intermolecular Energy     =   -8.97 kcal/mol
USER        vdW + Hbond + desolv Energy     =   -8.08 kcal/mol
USER        Electrostatic Energy            =   -0.89 kcal/mol
USER    (2) Final Total Internal Energy     =   -1.89 kcal/mol
USER    (3) Torsional Free Energy           =   +3.88 kcal/mol
USER    (4) Unbound System's Energy  [=(2)] =   -1.89 kcal/mol
USER    
USER    
USER  
USER    DPF = D:/Protein_go_brrr/autodock/final/1A3N/heme/dock.dpf
USER    NEWDPF move	heme_opt.pdbqt
USER    NEWDPF about	0.153000 0.018000 -0.028000
USER    NEWDPF tran0	6.336206 10.040960 38.789473
USER    NEWDPF axisangle0	-0.109294 -0.376610 -0.919902 -142.473391
USER    NEWDPF quaternion0	-0.103485 -0.356595 -0.871014 -0.321659
USER    NEWDPF dihe0	158.87 -139.64 82.25 -74.76 -143.43 -152.02 102.65 -65.88 46.77 7.15 144.39 170.85 179.85 
USER  
USER                              x       y       z    vdW   Elec        q     RMS 
ATOM      1  O   UNL d   1      11.705  12.307  37.897 -0.09 -0.33    -0.289    39.546
ATOM      2  O   UNL d   1       5.391  12.858  33.870 -0.73 -0.38    -0.289    39.546
ATOM      3  N   UNL d   1       8.793  10.670  38.755 -0.07 -0.11    -0.247    39.546
ATOM      4  N   UNL d   1       6.819  11.716  36.796 -0.09 -0.18    -0.247    39.546
ATOM      5  N   UNL d   1       4.739  10.588  38.430 -0.08 -0.15    -0.354    39.546
ATOM      6  N   UNL d   1       6.793   9.523  40.467 -0.06 -0.09    -0.354    39.546
ATOM      7  C   UNL d   1      10.988  10.960  39.807 -0.04 +0.04    +0.084    39.546
ATOM      8  C   UNL d   1       7.684  12.514  34.655 -0.16 +0.07    +0.084    39.546
ATOM      9  C   UNL d   1       7.955  11.980  36.065 -0.13 +0.04    +0.058    39.546
ATOM     10  C   UNL d   1       9.574  10.375  39.860 -0.08 +0.02    +0.058    39.546
ATOM     11  C   UNL d   1      10.875  11.623  38.467 -0.06 +0.15    +0.193    39.546
ATOM     12  C   UNL d   1       9.507  11.353  37.920 -0.09 +0.07    +0.109    39.546
ATOM     13  C   UNL d   1       6.183  12.539  34.734 -0.16 +0.23    +0.193    39.546
ATOM     14  C   UNL d   1      11.206  12.035  40.874 -0.01 +0.01    +0.026    39.546
ATOM     15  C   UNL d   1       9.194  11.833  36.559 -0.14 +0.04    +0.055    39.546
ATOM     16  C   UNL d   1       8.103  11.509  33.577 -0.31 +0.01    +0.026    39.546
ATOM     17  C   UNL d   1       5.787  12.039  36.085 -0.20 +0.11    +0.109    39.546
ATOM     18  C   UNL d   1       9.183   9.570  40.867 -0.10 +0.01    +0.050    39.546
ATOM     19  C   UNL d   1       7.927   8.918  40.958 -0.13 +0.01    +0.045    39.546
ATOM     20  C   UNL d   1       3.980  11.329  37.561 -0.25 +0.03    +0.045    39.546
ATOM     21  C   UNL d   1       4.368  11.993  36.468 -0.32 +0.06    +0.057    39.546
ATOM     22  C   UNL d   1       2.623  10.488  39.194 -0.24 -0.01    -0.019    39.546
ATOM     23  C   UNL d   1       4.007  10.041  39.449 -0.23 +0.02    +0.045    39.546
ATOM     24  C   UNL d   1       2.614  11.249  38.075 -0.29 -0.01    -0.022    39.546
ATOM     25  C   UNL d   1       5.681   8.760  40.740 -0.22 +0.01    +0.049    39.546
ATOM     26  C   UNL d   1       7.549   7.714  41.533 -0.19 -0.00    -0.018    39.546
ATOM     27  C   UNL d   1       6.132   7.611  41.375 -0.26 +0.00    +0.003    39.546
ATOM     28  C   UNL d   1       4.375   9.251  40.470 -0.23 +0.02    +0.052    39.546
ATOM     29  C   UNL d   1       1.458  11.915  37.409 -0.40 +0.02    +0.046    39.546
ATOM     30  C   UNL d   1       8.446   6.719  42.187 -0.15 +0.01    +0.046    39.546
ATOM     31  H   UNL d   1       5.724  10.419  38.255 +0.06 +0.07    +0.166    39.546
ATOM     32  H   UNL d   1       6.793  10.426  40.007 +0.04 +0.05    +0.166    39.546
ATOM     33  C   UNL d   1      12.125   9.932  39.804 -0.06 +0.07    +0.141    39.546
ATOM     34  C   UNL d   1      12.589   9.586  38.415 -0.06 +0.30    +0.306    39.546
ATOM     35  O   UNL d   1      12.143   8.699  37.706 -0.18 -0.21    -0.251    39.546
ATOM     36  O   UNL d   1      13.590  10.377  37.991 -0.52 -0.94    -0.481    39.546
ATOM     37  H   UNL d   1      13.499  11.196  38.522 +0.04 +0.41    +0.295    39.546
ATOM     38  C   UNL d   1       5.327   6.523  41.843 -0.11 +0.00    +0.017    39.546
ATOM     39  C   UNL d   1       5.619   5.739  42.892 -0.17 +0.00    +0.092    39.546
ATOM     40  C   UNL d   1       4.699   4.666  43.279 -0.09 +0.00    +0.330    39.546
ATOM     41  O   UNL d   1       4.558   4.169  44.381 -0.03 -0.00    -0.246    39.546
ATOM     42  O   UNL d   1       3.976   4.273  42.220 -0.47 -0.02    -0.477    39.546
ATOM     43  H   UNL d   1       4.620   4.274  41.482 -0.23 -0.03    +0.295    39.546
ATOM     44  C   UNL d   1       8.241  13.910  34.358 -0.15 +0.12    +0.141    39.546
ATOM     45  C   UNL d   1       8.037  14.884  35.488 -0.06 +0.35    +0.306    39.546
ATOM     46  O   UNL d   1       8.440  14.765  36.632 -0.05 -0.22    -0.251    39.546
ATOM     47  O   UNL d   1       7.305  15.951  35.121 -0.48 -0.83    -0.481    39.546
ATOM     48  H   UNL d   1       7.965  16.653  34.936 +0.05 +0.28    +0.295    39.546
ATOM     49  C   UNL d   1       1.452  10.145  40.068 -0.06 +0.02    +0.048    39.546
ATOM     50  C   UNL d   1       1.147  11.257  41.072 -0.07 +0.03    +0.125    39.546
ATOM     51  C   UNL d   1       2.411  11.925  41.533 -0.00 +0.07    +0.305    39.546
ATOM     52  O   UNL d   1       3.263  11.472  42.276 -0.01 -0.05    -0.251    39.546
ATOM     53  O   UNL d   1       2.536  13.170  41.030 +0.02 -0.14    -0.481    39.546
ATOM     54  H   UNL d   1       2.324  13.755  41.787 +0.01 +0.07    +0.295    39.546
TER
ENDMDL
MODEL       53
USER    Run = 53
USER    Cluster Rank = 40
USER    Number of conformations in this cluster = 1
USER  
USER    RMSD from reference structure       = 36.639 A
USER  
USER    Estimated Free Energy of Binding    =   -4.99 kcal/mol  [=(1)+(2)+(3)-(4)]
USER    Estimated Inhibition Constant, Ki   =  218.87 uM (micromolar)  [Temperature = 298.15 K]
USER    
USER    (1) Final Intermolecular Energy     =   -8.87 kcal/mol
USER        vdW + Hbond + desolv Energy     =   -8.06 kcal/mol
USER        Electrostatic Energy            =   -0.81 kcal/mol
USER    (2) Final Total Internal Energy     =   -2.76 kcal/mol
USER    (3) Torsional Free Energy           =   +3.88 kcal/mol
USER    (4) Unbound System's Energy  [=(2)] =   -2.76 kcal/mol
USER    
USER    
USER  
USER    DPF = D:/Protein_go_brrr/autodock/final/1A3N/heme/dock.dpf
USER    NEWDPF move	heme_opt.pdbqt
USER    NEWDPF about	0.153000 0.018000 -0.028000
USER    NEWDPF tran0	6.305702 16.890967 33.337807
USER    NEWDPF axisangle0	-0.131567 -0.819532 -0.557725 122.320883
USER    NEWDPF quaternion0	-0.115249 -0.717889 -0.488552 0.482359
USER    NEWDPF dihe0	146.56 42.02 -65.85 84.55 -136.86 58.23 115.65 64.41 21.54 115.43 -60.01 29.58 32.95 
USER  
USER                              x       y       z    vdW   Elec        q     RMS 
ATOM      1  O   UNL d   1       9.162  14.538  37.927 -0.00 -0.17    -0.289    36.639
ATOM      2  O   UNL d   1       7.866  11.863  31.031 +0.19 -0.09    -0.289    36.639
ATOM      3  N   UNL d   1       7.296  16.245  35.582 -0.53 -0.41    -0.247    36.639
ATOM      4  N   UNL d   1       7.591  14.585  33.135 -0.13 -0.20    -0.247    36.639
ATOM      5  N   UNL d   1       6.507  16.779  31.627 -0.11 -0.17    -0.354    36.639
ATOM      6  N   UNL d   1       6.222  18.502  34.168 -0.07 -0.25    -0.354    36.639
ATOM      7  C   UNL d   1       8.140  16.756  37.825 -0.03 +0.05    +0.084    36.639
ATOM      8  C   UNL d   1       8.059  12.207  33.447 -0.21 +0.05    +0.084    36.639
ATOM      9  C   UNL d   1       7.876  13.601  34.056 -0.18 +0.05    +0.058    36.639
ATOM     10  C   UNL d   1       7.361  17.199  36.583 -0.06 +0.06    +0.058    36.639
ATOM     11  C   UNL d   1       8.487  15.375  37.357 -0.03 +0.14    +0.193    36.639
ATOM     12  C   UNL d   1       7.897  15.177  35.995 -0.06 +0.13    +0.109    36.639
ATOM     13  C   UNL d   1       7.862  12.588  32.007 -0.09 +0.08    +0.193    36.639
ATOM     14  C   UNL d   1       9.432  17.556  38.009 -0.01 +0.01    +0.026    36.639
ATOM     15  C   UNL d   1       8.032  13.847  35.365 -0.13 +0.06    +0.055    36.639
ATOM     16  C   UNL d   1       6.934  11.254  33.863 -0.39 +0.01    +0.026    36.639
ATOM     17  C   UNL d   1       7.593  14.057  31.953 -0.23 +0.05    +0.109    36.639
ATOM     18  C   UNL d   1       6.729  18.387  36.535 -0.08 +0.04    +0.050    36.639
ATOM     19  C   UNL d   1       5.919  18.845  35.466 -0.10 +0.03    +0.045    36.639
ATOM     20  C   UNL d   1       6.924  15.972  30.601 -0.32 +0.01    +0.045    36.639
ATOM     21  C   UNL d   1       7.402  14.725  30.657 -0.35 +0.02    +0.057    36.639
ATOM     22  C   UNL d   1       6.232  17.969  29.734 -0.32 -0.00    -0.019    36.639
ATOM     23  C   UNL d   1       6.071  18.006  31.202 -0.25 +0.01    +0.045    36.639
ATOM     24  C   UNL d   1       6.735  16.762  29.385 -0.30 -0.00    -0.022    36.639
ATOM     25  C   UNL d   1       5.365  19.125  33.290 -0.09 +0.02    +0.049    36.639
ATOM     26  C   UNL d   1       4.814  19.683  35.434 -0.09 -0.01    -0.018    36.639
ATOM     27  C   UNL d   1       4.457  19.840  34.059 -0.13 +0.00    +0.003    36.639
ATOM     28  C   UNL d   1       5.577  19.049  31.887 -0.22 +0.01    +0.052    36.639
ATOM     29  C   UNL d   1       7.059  16.244  28.024 -0.27 +0.01    +0.046    36.639
ATOM     30  C   UNL d   1       4.130  20.299  36.606 -0.05 +0.01    +0.046    36.639
ATOM     31  H   UNL d   1       6.464  16.438  32.581 +0.05 +0.13    +0.166    36.639
ATOM     32  H   UNL d   1       7.000  17.904  33.913 +0.03 +0.12    +0.166    36.639
ATOM     33  C   UNL d   1       7.326  16.696  39.123 -0.02 +0.07    +0.141    36.639
ATOM     34  C   UNL d   1       6.312  15.584  39.119 -0.03 +0.24    +0.306    36.639
ATOM     35  O   UNL d   1       5.202  15.624  38.616 -0.39 -0.33    -0.251    36.639
ATOM     36  O   UNL d   1       6.751  14.479  39.748 +0.00 -0.26    -0.481    36.639
ATOM     37  H   UNL d   1       7.707  14.438  39.535 +0.01 +0.15    +0.295    36.639
ATOM     38  C   UNL d   1       3.375  20.642  33.574 -0.13 +0.00    +0.017    36.639
ATOM     39  C   UNL d   1       2.274  20.173  32.967 -0.22 -0.01    +0.092    36.639
ATOM     40  C   UNL d   1       1.228  21.102  32.532 -0.08 -0.18    +0.330    36.639
ATOM     41  O   UNL d   1       1.344  22.057  31.789 -0.12 +0.15    -0.246    36.639
ATOM     42  O   UNL d   1       0.049  20.755  33.072 -0.06 +0.33    -0.477    36.639
ATOM     43  H   UNL d   1      -0.588  20.868  32.336 -0.42 -0.54    +0.295    36.639
ATOM     44  C   UNL d   1       9.434  11.567  33.662 -0.21 +0.10    +0.141    36.639
ATOM     45  C   UNL d   1       9.726  11.257  35.106 -0.13 +0.28    +0.306    36.639
ATOM     46  O   UNL d   1       9.214  10.378  35.778 -0.64 -0.21    -0.251    36.639
ATOM     47  O   UNL d   1      10.634  12.094  35.640 -0.48 -0.66    -0.481    36.639
ATOM     48  H   UNL d   1      10.134  12.606  36.311 +0.07 +0.28    +0.295    36.639
ATOM     49  C   UNL d   1       5.895  19.111  28.821 -0.19 +0.00    +0.048    36.639
ATOM     50  C   UNL d   1       4.490  19.654  29.083 -0.22 -0.01    +0.125    36.639
ATOM     51  C   UNL d   1       4.538  21.108  29.458 -0.19 -0.01    +0.305    36.639
ATOM     52  O   UNL d   1       5.001  22.028  28.807 -0.16 -0.00    -0.251    36.639
ATOM     53  O   UNL d   1       3.997  21.333  30.672 -0.03 +0.03    -0.481    36.639
ATOM     54  H   UNL d   1       3.075  21.600  30.475 +0.12 -0.06    +0.295    36.639
TER
ENDMDL
MODEL       20
USER    Run = 20
USER    Cluster Rank = 41
USER    Number of conformations in this cluster = 2
USER  
USER    RMSD from reference structure       = 40.537 A
USER  
USER    Estimated Free Energy of Binding    =   -4.85 kcal/mol  [=(1)+(2)+(3)-(4)]
USER    Estimated Inhibition Constant, Ki   =  278.96 uM (micromolar)  [Temperature = 298.15 K]
USER    
USER    (1) Final Intermolecular Energy     =   -8.73 kcal/mol
USER        vdW + Hbond + desolv Energy     =   -8.60 kcal/mol
USER        Electrostatic Energy            =   -0.13 kcal/mol
USER    (2) Final Total Internal Energy     =   -2.55 kcal/mol
USER    (3) Torsional Free Energy           =   +3.88 kcal/mol
USER    (4) Unbound System's Energy  [=(2)] =   -2.55 kcal/mol
USER    
USER    
USER  
USER    DPF = D:/Protein_go_brrr/autodock/final/1A3N/heme/dock.dpf
USER    NEWDPF move	heme_opt.pdbqt
USER    NEWDPF about	0.153000 0.018000 -0.028000
USER    NEWDPF tran0	15.734261 -2.121729 39.037252
USER    NEWDPF axisangle0	0.674495 -0.521472 0.522612 45.027569
USER    NEWDPF quaternion0	0.258268 -0.199675 0.200111 0.923787
USER    NEWDPF dihe0	-117.32 148.67 -141.46 -88.45 43.64 41.03 128.41 -54.46 142.50 -14.20 138.61 -178.94 -171.68 
USER  
USER                              x       y       z    vdW   Elec        q     RMS 
ATOM      1  O   UNL d   1      11.776   2.117  40.096 -0.21 -0.04    -0.289    40.537
ATOM      2  O   UNL d   1      11.464  -5.304  41.200 -0.14 -0.22    -0.289    40.537
ATOM      3  N   UNL d   1      14.328  -0.016  39.183 -0.14 -0.02    -0.247    40.537
ATOM      4  N   UNL d   1      13.448  -2.638  40.270 -0.58 -0.04    -0.247    40.537
ATOM      5  N   UNL d   1      16.112  -3.617  39.812 +0.17 +0.03    -0.354    40.537
ATOM      6  N   UNL d   1      17.022  -0.888  38.704 -0.09 +0.00    -0.354    40.537
ATOM      7  C   UNL d   1      14.036   2.417  39.214 -0.12 +0.01    +0.084    40.537
ATOM      8  C   UNL d   1      11.046  -2.980  40.556 -0.14 +0.01    +0.084    40.537
ATOM      9  C   UNL d   1      12.207  -2.045  40.202 -0.15 +0.01    +0.058    40.537
ATOM     10  C   UNL d   1      14.925   1.205  38.919 -0.15 +0.01    +0.058    40.537
ATOM     11  C   UNL d   1      12.825   1.664  39.674 -0.15 +0.03    +0.193    40.537
ATOM     12  C   UNL d   1      13.118   0.198  39.585 -0.19 +0.01    +0.109    40.537
ATOM     13  C   UNL d   1      11.860  -4.202  40.874 -0.15 +0.07    +0.193    40.537
ATOM     14  C   UNL d   1      14.572   3.253  40.379 -0.06 +0.00    +0.026    40.537
ATOM     15  C   UNL d   1      12.030  -0.749  39.903 -0.24 +0.01    +0.055    40.537
ATOM     16  C   UNL d   1      10.165  -3.278  39.339 -0.24 +0.00    +0.026    40.537
ATOM     17  C   UNL d   1      13.300  -3.860  40.668 -0.23 +0.03    +0.109    40.537
ATOM     18  C   UNL d   1      16.143   1.345  38.364 -0.14 +0.00    +0.050    40.537
ATOM     19  C   UNL d   1      16.999   0.282  37.980 -0.18 +0.00    +0.045    40.537
ATOM     20  C   UNL d   1      15.600  -4.659  40.541 -0.20 +0.01    +0.045    40.537
ATOM     21  C   UNL d   1      14.343  -4.859  40.947 -0.24 +0.02    +0.057    40.537
ATOM     22  C   UNL d   1      17.836  -5.006  40.227 -0.24 -0.00    -0.019    40.537
ATOM     23  C   UNL d   1      17.455  -3.738  39.573 -0.19 -0.00    +0.045    40.537
ATOM     24  C   UNL d   1      16.734  -5.547  40.797 -0.23 -0.01    -0.022    40.537
ATOM     25  C   UNL d   1      17.982  -1.742  38.213 -0.27 -0.00    +0.049    40.537
ATOM     26  C   UNL d   1      17.942   0.171  36.970 -0.26 -0.00    -0.018    40.537
ATOM     27  C   UNL d   1      18.546  -1.116  37.110 -0.32 -0.00    +0.003    40.537
ATOM     28  C   UNL d   1      18.301  -2.949  38.893 -0.26 +0.00    +0.052    40.537
ATOM     29  C   UNL d   1      16.608  -6.823  41.559 -0.19 +0.02    +0.046    40.537
ATOM     30  C   UNL d   1      18.264   1.196  35.935 -0.35 +0.00    +0.046    40.537
ATOM     31  H   UNL d   1      15.511  -2.892  39.437 -0.34 -0.04    +0.166    40.537
ATOM     32  H   UNL d   1      16.433  -1.060  39.510 +0.04 +0.00    +0.166    40.537
ATOM     33  C   UNL d   1      13.697   3.293  38.003 +0.01 +0.03    +0.141    40.537
ATOM     34  C   UNL d   1      13.034   4.587  38.392 -0.14 +0.07    +0.306    40.537
ATOM     35  O   UNL d   1      13.582   5.669  38.514 -0.07 -0.07    -0.251    40.537
ATOM     36  O   UNL d   1      11.713   4.449  38.604 -0.20 -0.12    -0.481    40.537
ATOM     37  H   UNL d   1      11.647   3.799  39.336 +0.10 +0.06    +0.295    40.537
ATOM     38  C   UNL d   1      19.588  -1.634  36.276 -0.41 +0.00    +0.017    40.537
ATOM     39  C   UNL d   1      20.609  -0.920  35.777 -0.40 +0.00    +0.092    40.537
ATOM     40  C   UNL d   1      21.623  -1.576  34.948 -0.24 +0.02    +0.330    40.537
ATOM     41  O   UNL d   1      21.452  -2.440  34.109 -0.35 -0.02    -0.246    40.537
ATOM     42  O   UNL d   1      22.838  -1.080  35.227 -0.16 +0.00    -0.477    40.537
ATOM     43  H   UNL d   1      22.661  -0.150  35.478 -0.32 -0.06    +0.295    40.537
ATOM     44  C   UNL d   1      10.200  -2.555  41.762 -0.05 +0.01    +0.141    40.537
ATOM     45  C   UNL d   1      10.972  -2.543  43.054 +0.00 +0.04    +0.306    40.537
ATOM     46  O   UNL d   1      11.670  -1.637  43.475 -0.00 -0.03    -0.251    40.537
ATOM     47  O   UNL d   1      10.845  -3.693  43.740 +0.01 -0.10    -0.481    40.537
ATOM     48  H   UNL d   1      10.839  -4.393  43.053 +0.03 +0.10    +0.295    40.537
ATOM     49  C   UNL d   1      19.231  -5.558  40.246 -0.18 +0.01    +0.048    40.537
ATOM     50  C   UNL d   1      19.896  -5.376  41.611 -0.06 +0.02    +0.125    40.537
ATOM     51  C   UNL d   1      19.571  -4.029  42.190 -0.01 +0.04    +0.305    40.537
ATOM     52  O   UNL d   1      19.832  -2.935  41.720 -0.01 -0.03    -0.251    40.537
ATOM     53  O   UNL d   1      18.928  -4.129  43.371 +0.00 -0.06    -0.481    40.537
ATOM     54  H   UNL d   1      19.648  -4.123  44.036 +0.00 +0.03    +0.295    40.537
TER
ENDMDL
MODEL       52
USER    Run = 52
USER    Cluster Rank = 42
USER    Number of conformations in this cluster = 1
USER  
USER    RMSD from reference structure       = 27.341 A
USER  
USER    Estimated Free Energy of Binding    =   -4.82 kcal/mol  [=(1)+(2)+(3)-(4)]
USER    Estimated Inhibition Constant, Ki   =  295.38 uM (micromolar)  [Temperature = 298.15 K]
USER    
USER    (1) Final Intermolecular Energy     =   -8.69 kcal/mol
USER        vdW + Hbond + desolv Energy     =   -8.37 kcal/mol
USER        Electrostatic Energy            =   -0.32 kcal/mol
USER    (2) Final Total Internal Energy     =   -1.67 kcal/mol
USER    (3) Torsional Free Energy           =   +3.88 kcal/mol
USER    (4) Unbound System's Energy  [=(2)] =   -1.67 kcal/mol
USER    
USER    
USER  
USER    DPF = D:/Protein_go_brrr/autodock/final/1A3N/heme/dock.dpf
USER    NEWDPF move	heme_opt.pdbqt
USER    NEWDPF about	0.153000 0.018000 -0.028000
USER    NEWDPF tran0	20.696934 23.267292 6.385956
USER    NEWDPF axisangle0	0.576088 -0.068740 -0.814492 111.911052
USER    NEWDPF quaternion0	0.477348 -0.056958 -0.674891 0.559836
USER    NEWDPF dihe0	-159.84 -129.92 -10.33 -180.00 53.49 -169.51 129.44 -92.37 166.53 -164.43 -146.51 86.79 146.81 
USER  
USER                              x       y       z    vdW   Elec        q     RMS 
ATOM      1  O   UNL d   1      18.489  19.109   9.935 -0.06 -0.07    -0.289    27.341
ATOM      2  O   UNL d   1      25.320  22.216   9.636 -0.21 -0.05    -0.289    27.341
ATOM      3  N   UNL d   1      19.375  21.449   7.560 -0.06 -0.04    -0.247    27.341
ATOM      4  N   UNL d   1      22.093  22.293   8.414 -0.04 -0.02    -0.247    27.341
ATOM      5  N   UNL d   1      21.873  24.513   6.600 -0.08 +0.13    -0.354    27.341
ATOM      6  N   UNL d   1      19.046  23.640   5.734 -0.01 -0.01    -0.354    27.341
ATOM      7  C   UNL d   1      17.291  20.319   8.181 -0.08 +0.02    +0.084    27.341
ATOM      8  C   UNL d   1      23.406  20.691   9.710 -0.19 +0.02    +0.084    27.341
ATOM      9  C   UNL d   1      22.080  21.068   9.042 -0.16 +0.01    +0.058    27.341
ATOM     10  C   UNL d   1      18.024  21.322   7.285 -0.11 +0.01    +0.058    27.341
ATOM     11  C   UNL d   1      18.471  19.887   8.999 -0.07 +0.04    +0.193    27.341
ATOM     12  C   UNL d   1      19.679  20.624   8.509 -0.12 +0.02    +0.109    27.341
ATOM     13  C   UNL d   1      24.163  21.946   9.378 -0.17 +0.03    +0.193    27.341
ATOM     14  C   UNL d   1      16.276  21.003   9.099 -0.06 +0.01    +0.026    27.341
ATOM     15  C   UNL d   1      20.987  20.292   9.109 -0.18 +0.01    +0.055    27.341
ATOM     16  C   UNL d   1      24.080  19.509   9.008 -0.41 +0.01    +0.026    27.341
ATOM     17  C   UNL d   1      23.253  22.838   8.597 -0.19 +0.00    +0.109    27.341
ATOM     18  C   UNL d   1      17.399  21.943   6.267 -0.14 +0.01    +0.050    27.341
ATOM     19  C   UNL d   1      18.014  22.820   5.338 -0.11 +0.01    +0.045    27.341
ATOM     20  C   UNL d   1      23.013  24.870   7.272 -0.28 -0.02    +0.045    27.341
ATOM     21  C   UNL d   1      23.712  24.167   8.168 -0.30 -0.01    +0.057    27.341
ATOM     22  C   UNL d   1      22.395  26.589   5.899 -0.19 +0.02    -0.019    27.341
ATOM     23  C   UNL d   1      21.424  25.487   5.748 -0.23 -0.03    +0.045    27.341
ATOM     24  C   UNL d   1      23.334  26.217   6.802 -0.22 +0.02    -0.022    27.341
ATOM     25  C   UNL d   1      19.429  24.467   4.703 -0.03 -0.00    +0.049    27.341
ATOM     26  C   UNL d   1      17.745  23.093   4.005 -0.14 -0.00    -0.018    27.341
ATOM     27  C   UNL d   1      18.655  24.120   3.605 -0.13 +0.00    +0.003    27.341
ATOM     28  C   UNL d   1      20.371  25.510   4.917 -0.23 -0.02    +0.052    27.341
ATOM     29  C   UNL d   1      24.523  26.980   7.279 -0.22 -0.03    +0.046    27.341
ATOM     30  C   UNL d   1      16.709  22.441   3.154 -0.16 +0.01    +0.046    27.341
ATOM     31  H   UNL d   1      21.478  23.583   6.691 +0.10 -0.02    +0.166    27.341
ATOM     32  H   UNL d   1      19.427  23.648   6.673 +0.03 +0.01    +0.166    27.341
ATOM     33  C   UNL d   1      16.673  19.119   7.455 -0.16 +0.05    +0.141    27.341
ATOM     34  C   UNL d   1      15.386  18.660   8.086 -0.08 +0.13    +0.306    27.341
ATOM     35  O   UNL d   1      14.266  18.807   7.629 -0.23 -0.18    -0.251    27.341
ATOM     36  O   UNL d   1      15.580  18.035   9.261 -0.01 -0.15    -0.481    27.341
ATOM     37  H   UNL d   1      16.486  18.296   9.533 +0.08 +0.08    +0.295    27.341
ATOM     38  C   UNL d   1      18.709  24.712   2.302 -0.22 -0.00    +0.017    27.341
ATOM     39  C   UNL d   1      18.886  24.042   1.153 -0.27 +0.01    +0.092    27.341
ATOM     40  C   UNL d   1      18.905  24.767  -0.120 -0.10 +0.06    +0.330    27.341
ATOM     41  O   UNL d   1      18.912  24.298  -1.242 -0.65 -0.11    -0.246    27.341
ATOM     42  O   UNL d   1      18.905  26.090   0.103 -0.34 -0.04    -0.477    27.341
ATOM     43  H   UNL d   1      19.625  26.219   0.754 +0.01 -0.02    +0.295    27.341
ATOM     44  C   UNL d   1      23.344  20.473  11.226 -0.20 +0.06    +0.141    27.341
ATOM     45  C   UNL d   1      24.285  19.404  11.712 -0.26 +0.18    +0.306    27.341
ATOM     46  O   UNL d   1      25.462  19.545  11.996 -0.80 -0.19    -0.251    27.341
ATOM     47  O   UNL d   1      23.697  18.196  11.788 -0.14 -0.22    -0.481    27.341
ATOM     48  H   UNL d   1      24.437  17.568  11.931 -0.37 +0.08    +0.295    27.341
ATOM     49  C   UNL d   1      22.308  27.895   5.166 -0.16 -0.04    +0.048    27.341
ATOM     50  C   UNL d   1      21.049  28.675   5.542 -0.04 -0.04    +0.125    27.341
ATOM     51  C   UNL d   1      20.691  28.455   6.985 -0.00 -0.05    +0.305    27.341
ATOM     52  O   UNL d   1      19.863  27.684   7.436 -0.01 +0.03    -0.251    27.341
ATOM     53  O   UNL d   1      21.407  29.247   7.808 +0.01 +0.07    -0.481    27.341
ATOM     54  H   UNL d   1      21.986  29.757   7.204 +0.02 -0.05    +0.295    27.341
TER
ENDMDL
MODEL       92
USER    Run = 92
USER    Cluster Rank = 43
USER    Number of conformations in this cluster = 1
USER  
USER    RMSD from reference structure       = 28.594 A
USER  
USER    Estimated Free Energy of Binding    =   -4.66 kcal/mol  [=(1)+(2)+(3)-(4)]
USER    Estimated Inhibition Constant, Ki   =  382.22 uM (micromolar)  [Temperature = 298.15 K]
USER    
USER    (1) Final Intermolecular Energy     =   -8.54 kcal/mol
USER        vdW + Hbond + desolv Energy     =   -8.18 kcal/mol
USER        Electrostatic Energy            =   -0.36 kcal/mol
USER    (2) Final Total Internal Energy     =   -1.94 kcal/mol
USER    (3) Torsional Free Energy           =   +3.88 kcal/mol
USER    (4) Unbound System's Energy  [=(2)] =   -1.94 kcal/mol
USER    
USER    
USER  
USER    DPF = D:/Protein_go_brrr/autodock/final/1A3N/heme/dock.dpf
USER    NEWDPF move	heme_opt.pdbqt
USER    NEWDPF about	0.153000 0.018000 -0.028000
USER    NEWDPF tran0	-8.133100 24.717950 17.795963
USER    NEWDPF axisangle0	-0.646628 0.416152 0.639288 -119.504229
USER    NEWDPF quaternion0	-0.558592 0.359495 0.552252 -0.503742
USER    NEWDPF dihe0	-125.21 -33.82 -111.99 -127.59 30.21 -117.20 126.44 -76.07 33.61 -18.01 -70.86 -80.27 -173.70 
USER  
USER                              x       y       z    vdW   Elec        q     RMS 
ATOM      1  O   UNL d   1     -10.654  24.076  23.086 -0.11 -0.02    -0.289    28.594
ATOM      2  O   UNL d   1      -3.438  23.925  21.015 -0.05 +0.01    -0.289    28.594
ATOM      3  N   UNL d   1      -9.647  24.370  19.801 +0.01 +0.04    -0.247    28.594
ATOM      4  N   UNL d   1      -6.686  24.504  20.003 -0.13 +0.00    -0.247    28.594
ATOM      5  N   UNL d   1      -6.631  25.384  17.267 -0.09 -0.02    -0.354    28.594
ATOM      6  N   UNL d   1      -9.705  25.260  17.071 -0.06 -0.01    -0.354    28.594
ATOM      7  C   UNL d   1     -11.792  24.545  20.974 -0.09 -0.00    +0.084    28.594
ATOM      8  C   UNL d   1      -5.650  23.452  21.950 -0.28 -0.01    +0.084    28.594
ATOM      9  C   UNL d   1      -6.920  23.874  21.205 -0.27 -0.00    +0.058    28.594
ATOM     10  C   UNL d   1     -11.004  24.609  19.662 -0.09 -0.01    +0.058    28.594
ATOM     11  C   UNL d   1     -10.643  24.210  21.876 -0.11 +0.00    +0.193    28.594
ATOM     12  C   UNL d   1      -9.403  24.105  21.043 -0.14 -0.01    +0.109    28.594
ATOM     13  C   UNL d   1      -4.651  23.993  20.967 -0.20 -0.01    +0.193    28.594
ATOM     14  C   UNL d   1     -12.353  25.912  21.374 -0.03 +0.00    +0.026    28.594
ATOM     15  C   UNL d   1      -8.151  23.690  21.707 -0.21 -0.00    +0.055    28.594
ATOM     16  C   UNL d   1      -5.506  21.928  22.011 -0.56 -0.01    +0.026    28.594
ATOM     17  C   UNL d   1      -5.407  24.612  19.837 -0.22 -0.00    +0.109    28.594
ATOM     18  C   UNL d   1     -11.621  24.793  18.480 -0.14 -0.00    +0.050    28.594
ATOM     19  C   UNL d   1     -10.988  24.782  17.211 -0.15 -0.00    +0.045    28.594
ATOM     20  C   UNL d   1      -5.323  25.603  17.611 -0.27 +0.00    +0.045    28.594
ATOM     21  C   UNL d   1      -4.684  25.266  18.736 -0.29 +0.00    +0.057    28.594
ATOM     22  C   UNL d   1      -5.691  26.460  15.526 -0.21 -0.00    -0.019    28.594
ATOM     23  C   UNL d   1      -6.948  25.866  16.025 -0.24 +0.00    +0.045    28.594
ATOM     24  C   UNL d   1      -4.733  26.300  16.468 -0.26 -0.00    -0.022    28.594
ATOM     25  C   UNL d   1      -9.323  25.240  15.750 -0.19 +0.00    +0.049    28.594
ATOM     26  C   UNL d   1     -11.438  24.407  15.955 -0.17 +0.00    -0.018    28.594
ATOM     27  C   UNL d   1     -10.375  24.680  15.039 -0.20 -0.00    +0.003    28.594
ATOM     28  C   UNL d   1      -8.098  25.831  15.335 -0.24 +0.00    +0.052    28.594
ATOM     29  C   UNL d   1      -3.302  26.719  16.426 -0.17 +0.02    +0.046    28.594
ATOM     30  C   UNL d   1     -12.771  23.828  15.623 -0.14 +0.00    +0.046    28.594
ATOM     31  H   UNL d   1      -7.248  24.843  17.863 +0.08 +0.02    +0.166    28.594
ATOM     32  H   UNL d   1      -9.151  25.613  17.843 +0.04 +0.00    +0.166    28.594
ATOM     33  C   UNL d   1     -12.866  23.455  21.043 -0.11 -0.00    +0.141    28.594
ATOM     34  C   UNL d   1     -12.299  22.104  21.386 -0.14 +0.00    +0.306    28.594
ATOM     35  O   UNL d   1     -12.069  21.683  22.507 -0.58 -0.06    -0.251    28.594
ATOM     36  O   UNL d   1     -12.054  21.353  20.298 -0.20 +0.10    -0.481    28.594
ATOM     37  H   UNL d   1     -11.508  21.927  19.720 -0.45 -0.14    +0.295    28.594
ATOM     38  C   UNL d   1     -10.426  24.454  13.626 -0.21 -0.00    +0.017    28.594
ATOM     39  C   UNL d   1      -9.979  25.305  12.689 -0.12 +0.00    +0.092    28.594
ATOM     40  C   UNL d   1     -10.073  24.946  11.272 -0.05 +0.00    +0.330    28.594
ATOM     41  O   UNL d   1      -9.163  24.818  10.475 -0.10 -0.01    -0.246    28.594
ATOM     42  O   UNL d   1     -11.356  24.751  10.929 -0.00 +0.01    -0.477    28.594
ATOM     43  H   UNL d   1     -11.402  25.066  10.003 +0.02 -0.01    +0.295    28.594
ATOM     44  C   UNL d   1      -5.455  24.082  23.333 -0.15 -0.01    +0.141    28.594
ATOM     45  C   UNL d   1      -5.195  25.564  23.280 -0.03 -0.01    +0.306    28.594
ATOM     46  O   UNL d   1      -6.031  26.445  23.180 -0.02 +0.01    -0.251    28.594
ATOM     47  O   UNL d   1      -3.883  25.858  23.327 +0.01 +0.01    -0.481    28.594
ATOM     48  H   UNL d   1      -3.522  25.515  22.483 +0.11 -0.00    +0.295    28.594
ATOM     49  C   UNL d   1      -5.549  27.135  14.193 -0.14 +0.01    +0.048    28.594
ATOM     50  C   UNL d   1      -5.535  28.657  14.325 -0.11 +0.04    +0.125    28.594
ATOM     51  C   UNL d   1      -4.170  29.209  14.024 -0.08 +0.22    +0.305    28.594
ATOM     52  O   UNL d   1      -3.215  29.280  14.776 -0.60 -0.32    -0.251    28.594
ATOM     53  O   UNL d   1      -4.080  29.667  12.759 -0.09 -0.33    -0.481    28.594
ATOM     54  H   UNL d   1      -4.844  30.274  12.670 +0.04 +0.11    +0.295    28.594
TER
ENDMDL
MODEL       29
USER    Run = 29
USER    Cluster Rank = 44
USER    Number of conformations in this cluster = 1
USER  
USER    RMSD from reference structure       = 32.754 A
USER  
USER    Estimated Free Energy of Binding    =   -4.64 kcal/mol  [=(1)+(2)+(3)-(4)]
USER    Estimated Inhibition Constant, Ki   =  394.17 uM (micromolar)  [Temperature = 298.15 K]
USER    
USER    (1) Final Intermolecular Energy     =   -8.52 kcal/mol
USER        vdW + Hbond + desolv Energy     =   -8.25 kcal/mol
USER        Electrostatic Energy            =   -0.27 kcal/mol
USER    (2) Final Total Internal Energy     =   -2.23 kcal/mol
USER    (3) Torsional Free Energy           =   +3.88 kcal/mol
USER    (4) Unbound System's Energy  [=(2)] =   -2.23 kcal/mol
USER    
USER    
USER  
USER    DPF = D:/Protein_go_brrr/autodock/final/1A3N/heme/dock.dpf
USER    NEWDPF move	heme_opt.pdbqt
USER    NEWDPF about	0.153000 0.018000 -0.028000
USER    NEWDPF tran0	24.935404 25.632784 8.842459
USER    NEWDPF axisangle0	-0.318599 0.911051 -0.261689 -149.898799
USER    NEWDPF quaternion0	-0.307670 0.879799 -0.252712 -0.259672
USER    NEWDPF dihe0	-179.72 -90.64 -90.69 50.66 -155.73 -145.14 163.12 134.53 8.00 -101.12 61.11 -173.97 -28.12 
USER  
USER                              x       y       z    vdW   Elec        q     RMS 
ATOM      1  O   UNL d   1      28.432  30.376   9.035 -0.01 +0.04    -0.289    32.754
ATOM      2  O   UNL d   1      27.752  24.560  13.737 -0.43 -0.36    -0.289    32.754
ATOM      3  N   UNL d   1      26.117  27.861   8.573 -0.08 +0.07    -0.247    32.754
ATOM      4  N   UNL d   1      26.795  25.908  10.708 -0.12 -0.04    -0.247    32.754
ATOM      5  N   UNL d   1      25.119  23.997   9.363 +0.08 +0.04    -0.354    32.754
ATOM      6  N   UNL d   1      24.436  26.024   7.143 -0.13 +0.26    -0.354    32.754
ATOM      7  C   UNL d   1      26.842  29.805   7.268 -0.04 -0.02    +0.084    32.754
ATOM      8  C   UNL d   1      27.900  26.776  12.707 -0.09 +0.03    +0.084    32.754
ATOM      9  C   UNL d   1      27.358  27.019  11.294 -0.12 +0.01    +0.058    32.754
ATOM     10  C   UNL d   1      25.943  28.571   7.397 -0.13 -0.02    +0.058    32.754
ATOM     11  C   UNL d   1      27.541  29.677   8.588 -0.03 -0.03    +0.193    32.754
ATOM     12  C   UNL d   1      26.995  28.475   9.296 -0.08 -0.02    +0.109    32.754
ATOM     13  C   UNL d   1      27.573  25.312  12.799 +0.02 +0.19    +0.193    32.754
ATOM     14  C   UNL d   1      27.871  29.651   6.146 -0.09 -0.01    +0.026    32.754
ATOM     15  C   UNL d   1      27.472  28.200  10.667 -0.09 -0.00    +0.055    32.754
ATOM     16  C   UNL d   1      27.087  27.529  13.764 -0.03 +0.01    +0.026    32.754
ATOM     17  C   UNL d   1      26.913  24.908  11.520 -0.17 +0.07    +0.109    32.754
ATOM     18  C   UNL d   1      25.011  28.280   6.471 -0.18 -0.03    +0.050    32.754
ATOM     19  C   UNL d   1      24.081  27.212   6.546 -0.15 -0.04    +0.045    32.754
ATOM     20  C   UNL d   1      25.716  23.179  10.287 -0.27 +0.01    +0.045    32.754
ATOM     21  C   UNL d   1      26.517  23.508  11.305 -0.32 +0.04    +0.057    32.754
ATOM     22  C   UNL d   1      24.486  21.898   8.850 -0.37 -0.00    -0.019    32.754
ATOM     23  C   UNL d   1      24.356  23.314   8.454 -0.31 -0.00    +0.045    32.754
ATOM     24  C   UNL d   1      25.291  21.824   9.936 -0.33 -0.00    -0.022    32.754
ATOM     25  C   UNL d   1      23.421  25.102   7.025 -0.30 -0.03    +0.049    32.754
ATOM     26  C   UNL d   1      22.790  27.072   6.061 -0.18 +0.01    -0.018    32.754
ATOM     27  C   UNL d   1      22.371  25.744   6.384 -0.23 -0.00    +0.003    32.754
ATOM     28  C   UNL d   1      23.613  23.752   7.426 -0.26 -0.01    +0.052    32.754
ATOM     29  C   UNL d   1      25.711  20.619  10.706 -0.44 +0.02    +0.046    32.754
ATOM     30  C   UNL d   1      21.991  28.107   5.344 -0.14 -0.03    +0.046    32.754
ATOM     31  H   UNL d   1      25.193  25.007   9.430 -0.20 -0.04    +0.166    32.754
ATOM     32  H   UNL d   1      25.341  25.858   7.568 -0.54 -0.16    +0.166    32.754
ATOM     33  C   UNL d   1      26.107  31.146   7.177 -0.01 -0.02    +0.141    32.754
ATOM     34  C   UNL d   1      25.175  31.376   8.335 +0.00 -0.03    +0.306    32.754
ATOM     35  O   UNL d   1      23.963  31.236   8.324 -0.00 +0.03    -0.251    32.754
ATOM     36  O   UNL d   1      25.819  31.768   9.449 +0.00 +0.03    -0.481    32.754
ATOM     37  H   UNL d   1      26.768  31.763   9.200 +0.01 -0.02    +0.295    32.754
ATOM     38  C   UNL d   1      21.100  25.176   6.050 -0.23 -0.01    +0.017    32.754
ATOM     39  C   UNL d   1      20.476  25.314   4.870 -0.24 -0.04    +0.092    32.754
ATOM     40  C   UNL d   1      19.182  24.665   4.648 -0.05 -0.03    +0.330    32.754
ATOM     41  O   UNL d   1      18.745  24.212   3.607 -0.12 +0.00    -0.246    32.754
ATOM     42  O   UNL d   1      18.489  24.612   5.796 -0.02 -0.00    -0.477    32.754
ATOM     43  H   UNL d   1      17.987  25.453   5.806 +0.04 +0.00    +0.295    32.754
ATOM     44  C   UNL d   1      29.402  27.015  12.889 -0.12 +0.05    +0.141    32.754
ATOM     45  C   UNL d   1      30.014  26.160  13.967 -0.06 +0.22    +0.306    32.754
ATOM     46  O   UNL d   1      30.899  25.334  13.825 -0.56 -0.32    -0.251    32.754
ATOM     47  O   UNL d   1      29.454  26.372  15.171 -0.02 -0.21    -0.481    32.754
ATOM     48  H   UNL d   1      28.697  25.749  15.206 +0.09 +0.15    +0.295    32.754
ATOM     49  C   UNL d   1      23.829  20.758   8.128 -0.30 +0.01    +0.048    32.754
ATOM     50  C   UNL d   1      22.731  20.109   8.970 -0.25 +0.03    +0.125    32.754
ATOM     51  C   UNL d   1      23.055  18.670   9.258 -0.23 +0.08    +0.305    32.754
ATOM     52  O   UNL d   1      23.067  18.114  10.342 -0.22 -0.07    -0.251    32.754
ATOM     53  O   UNL d   1      23.368  17.990   8.138 -0.15 -0.11    -0.481    32.754
ATOM     54  H   UNL d   1      22.804  17.189   8.181 -0.03 +0.04    +0.295    32.754
TER
ENDMDL
MODEL       35
USER    Run = 35
USER    Cluster Rank = 45
USER    Number of conformations in this cluster = 1
USER  
USER    RMSD from reference structure       = 28.320 A
USER  
USER    Estimated Free Energy of Binding    =   -4.56 kcal/mol  [=(1)+(2)+(3)-(4)]
USER    Estimated Inhibition Constant, Ki   =  454.85 uM (micromolar)  [Temperature = 298.15 K]
USER    
USER    (1) Final Intermolecular Energy     =   -8.44 kcal/mol
USER        vdW + Hbond + desolv Energy     =   -7.99 kcal/mol
USER        Electrostatic Energy            =   -0.45 kcal/mol
USER    (2) Final Total Internal Energy     =   -3.09 kcal/mol
USER    (3) Torsional Free Energy           =   +3.88 kcal/mol
USER    (4) Unbound System's Energy  [=(2)] =   -3.09 kcal/mol
USER    
USER    
USER  
USER    DPF = D:/Protein_go_brrr/autodock/final/1A3N/heme/dock.dpf
USER    NEWDPF move	heme_opt.pdbqt
USER    NEWDPF about	0.153000 0.018000 -0.028000
USER    NEWDPF tran0	20.851246 23.877004 6.997751
USER    NEWDPF axisangle0	0.571757 0.818512 -0.055966 -138.440836
USER    NEWDPF quaternion0	0.534565 0.765269 -0.052325 -0.354774
USER    NEWDPF dihe0	131.30 -127.82 -176.92 -26.61 -132.46 83.14 150.06 72.74 132.57 1.08 -55.22 -137.99 26.53 
USER  
USER                              x       y       z    vdW   Elec        q     RMS 
ATOM      1  O   UNL d   1      23.603  19.911  10.382 -0.12 -0.09    -0.289    28.320
ATOM      2  O   UNL d   1      16.407  20.477   8.312 -0.03 -0.08    -0.289    28.320
ATOM      3  N   UNL d   1      22.409  22.522   8.471 -0.08 -0.02    -0.247    28.320
ATOM      4  N   UNL d   1      19.596  21.737   7.923 -0.05 -0.04    -0.247    28.320
ATOM      5  N   UNL d   1      19.512  23.790   5.912 +0.02 -0.00    -0.354    28.320
ATOM      6  N   UNL d   1      22.437  24.586   6.474 -0.14 +0.20    -0.354    28.320
ATOM      7  C   UNL d   1      24.628  21.803   9.222 -0.30 +0.01    +0.084    28.320
ATOM      8  C   UNL d   1      18.515  20.255   9.537 -0.07 +0.02    +0.084    28.320
ATOM      9  C   UNL d   1      19.778  20.976   9.056 -0.10 +0.01    +0.058    28.320
ATOM     10  C   UNL d   1      23.766  22.796   8.438 -0.27 +0.00    +0.058    28.320
ATOM     11  C   UNL d   1      23.517  20.929   9.719 -0.13 +0.04    +0.193    28.320
ATOM     12  C   UNL d   1      22.219  21.483   9.218 -0.13 +0.02    +0.109    28.320
ATOM     13  C   UNL d   1      17.591  20.717   8.445 -0.05 +0.04    +0.193    28.320
ATOM     14  C   UNL d   1      25.534  20.978   8.304 -0.58 +0.00    +0.026    28.320
ATOM     15  C   UNL d   1      20.968  20.835   9.660 -0.13 +0.01    +0.055    28.320
ATOM     16  C   UNL d   1      18.016  20.813  10.873 -0.04 +0.01    +0.026    28.320
ATOM     17  C   UNL d   1      18.371  21.602   7.528 -0.09 +0.02    +0.109    28.320
ATOM     18  C   UNL d   1      24.302  23.885   7.854 -0.26 -0.01    +0.050    28.320
ATOM     19  C   UNL d   1      23.575  24.900   7.182 -0.30 -0.03    +0.045    28.320
ATOM     20  C   UNL d   1      18.330  23.149   5.644 -0.10 +0.00    +0.045    28.320
ATOM     21  C   UNL d   1      17.732  22.172   6.333 -0.13 +0.01    +0.057    28.320
ATOM     22  C   UNL d   1      18.707  24.712   4.021 -0.13 +0.00    -0.019    28.320
ATOM     23  C   UNL d   1      19.824  24.750   4.987 -0.13 -0.01    +0.045    28.320
ATOM     24  C   UNL d   1      17.826  23.763   4.417 -0.11 -0.00    -0.022    28.320
ATOM     25  C   UNL d   1      21.946  25.698   5.830 -0.21 -0.04    +0.049    28.320
ATOM     26  C   UNL d   1      23.808  26.257   7.025 -0.25 +0.01    -0.018    28.320
ATOM     27  C   UNL d   1      22.766  26.760   6.186 -0.19 -0.00    +0.003    28.320
ATOM     28  C   UNL d   1      20.867  25.591   4.911 -0.27 -0.03    +0.052    28.320
ATOM     29  C   UNL d   1      16.540  23.361   3.778 -0.10 +0.01    +0.046    28.320
ATOM     30  C   UNL d   1      24.929  27.042   7.617 -0.15 -0.02    +0.046    28.320
ATOM     31  H   UNL d   1      20.032  23.601   6.762 +0.04 +0.00    +0.166    28.320
ATOM     32  H   UNL d   1      22.054  23.649   6.414 +0.07 -0.04    +0.166    28.320
ATOM     33  C   UNL d   1      25.411  22.398  10.398 -0.27 +0.04    +0.141    28.320
ATOM     34  C   UNL d   1      26.241  21.371  11.120 -0.30 +0.16    +0.306    28.320
ATOM     35  O   UNL d   1      25.832  20.553  11.927 -0.80 -0.18    -0.251    28.320
ATOM     36  O   UNL d   1      27.542  21.427  10.786 -0.16 -0.30    -0.481    28.320
ATOM     37  H   UNL d   1      27.546  21.404   9.805 -0.31 +0.02    +0.295    28.320
ATOM     38  C   UNL d   1      22.635  28.119   5.758 -0.15 -0.01    +0.017    28.320
ATOM     39  C   UNL d   1      23.336  28.690   4.766 -0.12 -0.09    +0.092    28.320
ATOM     40  C   UNL d   1      23.094  30.091   4.413 -0.04 -0.16    +0.330    28.320
ATOM     41  O   UNL d   1      23.530  31.083   4.965 -0.01 +0.07    -0.246    28.320
ATOM     42  O   UNL d   1      22.294  30.164   3.338 -0.02 +0.21    -0.477    28.320
ATOM     43  H   UNL d   1      21.528  29.603   3.577 +0.03 -0.13    +0.295    28.320
ATOM     44  C   UNL d   1      18.600  18.725   9.572 -0.12 +0.03    +0.141    28.320
ATOM     45  C   UNL d   1      19.147  18.131   8.302 -0.06 +0.08    +0.306    28.320
ATOM     46  O   UNL d   1      20.258  17.655   8.141 -0.29 -0.06    -0.251    28.320
ATOM     47  O   UNL d   1      18.269  18.193   7.285 -0.17 -0.13    -0.481    28.320
ATOM     48  H   UNL d   1      17.491  18.661   7.657 +0.12 +0.08    +0.295    28.320
ATOM     49  C   UNL d   1      18.614  25.588   2.806 -0.14 -0.00    +0.048    28.320
ATOM     50  C   UNL d   1      18.674  27.071   3.168 -0.07 -0.02    +0.125    28.320
ATOM     51  C   UNL d   1      19.764  27.767   2.402 +0.01 -0.11    +0.305    28.320
ATOM     52  O   UNL d   1      19.820  27.961   1.201 -0.19 +0.07    -0.251    28.320
ATOM     53  O   UNL d   1      20.760  28.183   3.209 -0.03 +0.28    -0.481    28.320
ATOM     54  H   UNL d   1      21.548  28.196   2.626 -0.43 -0.29    +0.295    28.320
TER
ENDMDL
MODEL       23
USER    Run = 23
USER    Cluster Rank = 46
USER    Number of conformations in this cluster = 1
USER  
USER    RMSD from reference structure       = 32.741 A
USER  
USER    Estimated Free Energy of Binding    =   -4.56 kcal/mol  [=(1)+(2)+(3)-(4)]
USER    Estimated Inhibition Constant, Ki   =  455.69 uM (micromolar)  [Temperature = 298.15 K]
USER    
USER    (1) Final Intermolecular Energy     =   -8.44 kcal/mol
USER        vdW + Hbond + desolv Energy     =   -7.83 kcal/mol
USER        Electrostatic Energy            =   -0.61 kcal/mol
USER    (2) Final Total Internal Energy     =   -3.26 kcal/mol
USER    (3) Torsional Free Energy           =   +3.88 kcal/mol
USER    (4) Unbound System's Energy  [=(2)] =   -3.26 kcal/mol
USER    
USER    
USER  
USER    DPF = D:/Protein_go_brrr/autodock/final/1A3N/heme/dock.dpf
USER    NEWDPF move	heme_opt.pdbqt
USER    NEWDPF about	0.153000 0.018000 -0.028000
USER    NEWDPF tran0	-2.274574 -4.140688 33.372447
USER    NEWDPF axisangle0	0.414461 -0.430135 -0.802001 148.775492
USER    NEWDPF quaternion0	0.399170 -0.414266 -0.772411 0.269126
USER    NEWDPF dihe0	140.68 -170.04 76.51 -141.83 -138.75 -13.90 115.96 22.57 15.74 -0.05 61.13 -66.78 114.60 
USER  
USER                              x       y       z    vdW   Elec        q     RMS 
ATOM      1  O   UNL d   1      -0.780  -4.928  39.021 -0.01 +0.07    -0.289    32.741
ATOM      2  O   UNL d   1       3.390  -3.236  33.009 -0.55 -0.24    -0.289    32.741
ATOM      3  N   UNL d   1      -2.095  -4.698  35.840 -0.05 +0.03    -0.247    32.741
ATOM      4  N   UNL d   1       0.195  -3.709  34.225 -0.12 -0.00    -0.247    32.741
ATOM      5  N   UNL d   1      -1.665  -3.134  32.110 -0.13 +0.01    -0.354    32.741
ATOM      6  N   UNL d   1      -4.038  -4.144  33.799 -0.07 -0.01    -0.354    32.741
ATOM      7  C   UNL d   1      -3.035  -5.019  38.081 -0.03 -0.02    +0.084    32.741
ATOM      8  C   UNL d   1       2.441  -4.219  35.040 -0.08 +0.01    +0.084    32.741
ATOM      9  C   UNL d   1       0.925  -4.254  35.258 -0.10 -0.00    +0.058    32.741
ATOM     10  C   UNL d   1      -3.257  -4.869  36.573 -0.06 -0.01    +0.058    32.741
ATOM     11  C   UNL d   1      -1.539  -4.921  38.069 -0.02 -0.05    +0.193    32.741
ATOM     12  C   UNL d   1      -1.088  -4.754  36.651 -0.06 -0.02    +0.109    32.741
ATOM     13  C   UNL d   1       2.438  -3.520  33.710 -0.17 +0.07    +0.193    32.741
ATOM     14  C   UNL d   1      -3.603  -3.834  38.866 -0.09 -0.01    +0.026    32.741
ATOM     15  C   UNL d   1       0.363  -4.727  36.381 -0.07 -0.01    +0.055    32.741
ATOM     16  C   UNL d   1       3.021  -5.625  34.856 -0.07 +0.00    +0.026    32.741
ATOM     17  C   UNL d   1       1.017  -3.260  33.331 -0.24 +0.02    +0.109    32.741
ATOM     18  C   UNL d   1      -4.482  -4.990  36.027 -0.07 -0.00    +0.050    32.741
ATOM     19  C   UNL d   1      -4.772  -4.950  34.640 -0.08 -0.00    +0.045    32.741
ATOM     20  C   UNL d   1      -0.546  -2.518  31.613 -0.29 +0.00    +0.045    32.741
ATOM     21  C   UNL d   1       0.704  -2.543  32.086 -0.37 +0.01    +0.057    32.741
ATOM     22  C   UNL d   1      -2.323  -2.018  30.267 -0.33 +0.00    -0.019    32.741
ATOM     23  C   UNL d   1      -2.788  -2.890  31.364 -0.29 -0.00    +0.045    32.741
ATOM     24  C   UNL d   1      -0.994  -1.803  30.419 -0.37 +0.00    -0.022    32.741
ATOM     25  C   UNL d   1      -4.544  -4.189  32.521 -0.15 -0.00    +0.049    32.741
ATOM     26  C   UNL d   1      -5.757  -5.563  33.881 -0.04 +0.00    -0.018    32.741
ATOM     27  C   UNL d   1      -5.596  -5.094  32.541 -0.07 -0.00    +0.003    32.741
ATOM     28  C   UNL d   1      -4.050  -3.321  31.510 -0.25 -0.00    +0.052    32.741
ATOM     29  C   UNL d   1      -0.075  -1.002  29.561 -0.52 -0.00    +0.046    32.741
ATOM     30  C   UNL d   1      -6.785  -6.527  34.369 -0.01 -0.00    +0.046    32.741
ATOM     31  H   UNL d   1      -1.611  -3.763  32.903 +0.05 +0.00    +0.166    32.741
ATOM     32  H   UNL d   1      -3.261  -3.571  34.109 +0.04 +0.02    +0.166    32.741
ATOM     33  C   UNL d   1      -3.481  -6.357  38.681 -0.00 -0.02    +0.141    32.741
ATOM     34  C   UNL d   1      -2.707  -7.525  38.132 +0.00 -0.03    +0.306    32.741
ATOM     35  O   UNL d   1      -2.947  -8.127  37.099 -0.00 +0.02    -0.251    32.741
ATOM     36  O   UNL d   1      -1.669  -7.871  38.913 +0.00 +0.04    -0.481    32.741
ATOM     37  H   UNL d   1      -1.270  -7.018  39.187 +0.01 -0.03    +0.295    32.741
ATOM     38  C   UNL d   1      -6.420  -5.468  31.431 -0.06 -0.00    +0.017    32.741
ATOM     39  C   UNL d   1      -6.686  -4.693  30.369 -0.10 -0.01    +0.092    32.741
ATOM     40  C   UNL d   1      -7.534  -5.203  29.288 -0.05 -0.03    +0.330    32.741
ATOM     41  O   UNL d   1      -7.847  -6.358  29.070 -0.04 +0.02    -0.246    32.741
ATOM     42  O   UNL d   1      -7.963  -4.189  28.520 -0.03 +0.04    -0.477    32.741
ATOM     43  H   UNL d   1      -7.439  -3.422  28.830 +0.12 -0.05    +0.295    32.741
ATOM     44  C   UNL d   1       3.239  -3.422  36.077 -0.11 -0.01    +0.141    32.741
ATOM     45  C   UNL d   1       2.686  -2.043  36.321 -0.15 -0.03    +0.306    32.741
ATOM     46  O   UNL d   1       1.656  -1.768  36.911 -0.78 +0.08    -0.251    32.741
ATOM     47  O   UNL d   1       3.452  -1.079  35.780 -0.52 +0.07    -0.481    32.741
ATOM     48  H   UNL d   1       3.926  -0.682  36.542 -0.41 -0.15    +0.295    32.741
ATOM     49  C   UNL d   1      -3.213  -1.471  29.190 -0.03 -0.02    +0.048    32.741
ATOM     50  C   UNL d   1      -4.637  -1.238  29.694 -0.01 -0.11    +0.125    32.741
ATOM     51  C   UNL d   1      -5.619  -2.090  28.941 -0.22 -0.19    +0.305    32.741
ATOM     52  O   UNL d   1      -5.379  -3.062  28.247 -0.25 +0.07    -0.251    32.741
ATOM     53  O   UNL d   1      -6.886  -1.656  29.095 -0.15 +0.35    -0.481    32.741
ATOM     54  H   UNL d   1      -6.804  -0.680  29.097 -0.37 -0.49    +0.295    32.741
TER
ENDMDL
MODEL        8
USER    Run = 8
USER    Cluster Rank = 47
USER    Number of conformations in this cluster = 1
USER  
USER    RMSD from reference structure       = 15.587 A
USER  
USER    Estimated Free Energy of Binding    =   -4.45 kcal/mol  [=(1)+(2)+(3)-(4)]
USER    Estimated Inhibition Constant, Ki   =  548.48 uM (micromolar)  [Temperature = 298.15 K]
USER    
USER    (1) Final Intermolecular Energy     =   -8.33 kcal/mol
USER        vdW + Hbond + desolv Energy     =   -7.71 kcal/mol
USER        Electrostatic Energy            =   -0.61 kcal/mol
USER    (2) Final Total Internal Energy     =   -1.46 kcal/mol
USER    (3) Torsional Free Energy           =   +3.88 kcal/mol
USER    (4) Unbound System's Energy  [=(2)] =   -1.46 kcal/mol
USER    
USER    
USER  
USER    DPF = D:/Protein_go_brrr/autodock/final/1A3N/heme/dock.dpf
USER    NEWDPF move	heme_opt.pdbqt
USER    NEWDPF about	0.153000 0.018000 -0.028000
USER    NEWDPF tran0	6.648971 17.762661 -1.596301
USER    NEWDPF axisangle0	0.264943 0.828624 -0.493141 -79.999348
USER    NEWDPF quaternion0	0.170301 0.532625 -0.316983 -0.766048
USER    NEWDPF dihe0	91.58 -53.17 -119.61 -13.76 -148.58 -91.30 38.01 161.83 65.13 -124.10 -59.68 -174.49 -167.39 
USER  
USER                              x       y       z    vdW   Elec        q     RMS 
ATOM      1  O   UNL d   1       6.935  20.333   3.701 -0.40 -0.26    -0.289    15.587
ATOM      2  O   UNL d   1       1.683  15.925   0.639 -0.06 +0.05    -0.289    15.587
ATOM      3  N   UNL d   1       7.139  19.154   0.467 -0.08 +0.06    -0.247    15.587
ATOM      4  N   UNL d   1       4.826  17.300   0.268 -0.08 +0.11    -0.247    15.587
ATOM      5  N   UNL d   1       5.971  16.281  -2.165 -0.02 +0.07    -0.354    15.587
ATOM      6  N   UNL d   1       8.377  18.194  -1.941 -0.04 +0.05    -0.354    15.587
ATOM      7  C   UNL d   1       8.631  20.419   1.944 -0.21 +0.02    +0.084    15.587
ATOM      8  C   UNL d   1       2.926  17.721   1.745 -0.16 -0.03    +0.084    15.587
ATOM      9  C   UNL d   1       4.353  18.067   1.309 -0.15 -0.02    +0.058    15.587
ATOM     10  C   UNL d   1       8.379  19.760   0.584 -0.12 -0.00    +0.058    15.587
ATOM     11  C   UNL d   1       7.308  20.094   2.568 -0.24 +0.07    +0.193    15.587
ATOM     12  C   UNL d   1       6.483  19.349   1.564 -0.17 -0.01    +0.109    15.587
ATOM     13  C   UNL d   1       2.690  16.591   0.783 -0.05 -0.05    +0.193    15.587
ATOM     14  C   UNL d   1       9.737  19.709   2.730 -0.38 +0.01    +0.026    15.587
ATOM     15  C   UNL d   1       5.094  19.001   1.925 -0.25 -0.01    +0.055    15.587
ATOM     16  C   UNL d   1       1.945  18.853   1.425 -0.17 -0.01    +0.026    15.587
ATOM     17  C   UNL d   1       3.920  16.432  -0.050 -0.10 -0.03    +0.109    15.587
ATOM     18  C   UNL d   1       9.269  19.859  -0.421 -0.12 -0.00    +0.050    15.587
ATOM     19  C   UNL d   1       9.086  19.356  -1.734 -0.09 -0.00    +0.045    15.587
ATOM     20  C   UNL d   1       4.974  15.360  -1.970 -0.12 -0.01    +0.045    15.587
ATOM     21  C   UNL d   1       3.996  15.365  -1.059 -0.17 -0.01    +0.057    15.587
ATOM     22  C   UNL d   1       6.274  14.681  -3.721 -0.13 +0.00    -0.019    15.587
ATOM     23  C   UNL d   1       6.806  15.956  -3.200 -0.11 -0.01    +0.045    15.587
ATOM     24  C   UNL d   1       5.188  14.334  -2.990 -0.15 +0.00    -0.022    15.587
ATOM     25  C   UNL d   1       8.400  17.844  -3.271 -0.11 -0.00    +0.049    15.587
ATOM     26  C   UNL d   1       9.550  19.792  -2.965 -0.10 +0.00    -0.018    15.587
ATOM     27  C   UNL d   1       9.098  18.844  -3.935 -0.09 -0.00    +0.003    15.587
ATOM     28  C   UNL d   1       7.869  16.599  -3.706 -0.15 -0.01    +0.052    15.587
ATOM     29  C   UNL d   1       4.305  13.142  -3.138 -0.16 -0.00    +0.046    15.587
ATOM     30  C   UNL d   1      10.363  21.014  -3.229 -0.07 +0.00    +0.046    15.587
ATOM     31  H   UNL d   1       6.004  17.141  -1.629 +0.04 -0.04    +0.166    15.587
ATOM     32  H   UNL d   1       7.941  17.664  -1.196 +0.06 -0.04    +0.166    15.587
ATOM     33  C   UNL d   1       8.851  21.935   1.909 -0.15 +0.04    +0.141    15.587
ATOM     34  C   UNL d   1       7.737  22.697   2.574 -0.16 +0.11    +0.306    15.587
ATOM     35  O   UNL d   1       6.762  23.176   2.021 -0.15 -0.09    -0.251    15.587
ATOM     36  O   UNL d   1       7.910  22.814   3.903 -0.23 -0.24    -0.481    15.587
ATOM     37  H   UNL d   1       7.453  22.032   4.280 +0.12 +0.16    +0.295    15.587
ATOM     38  C   UNL d   1       9.370  18.905  -5.339 -0.11 -0.00    +0.017    15.587
ATOM     39  C   UNL d   1      10.553  19.226  -5.885 -0.08 -0.00    +0.092    15.587
ATOM     40  C   UNL d   1      10.706  19.236  -7.342 -0.08 -0.01    +0.330    15.587
ATOM     41  O   UNL d   1      11.098  18.331  -8.055 -0.13 -0.00    -0.246    15.587
ATOM     42  O   UNL d   1      10.333  20.426  -7.838 +0.00 +0.01    -0.477    15.587
ATOM     43  H   UNL d   1      11.103  20.708  -8.374 +0.03 -0.01    +0.295    15.587
ATOM     44  C   UNL d   1       2.773  17.249   3.194 -0.23 -0.10    +0.141    15.587
ATOM     45  C   UNL d   1       1.380  16.782   3.524 -0.17 -0.20    +0.306    15.587
ATOM     46  O   UNL d   1       0.401  16.850   2.802 -0.21 +0.09    -0.251    15.587
ATOM     47  O   UNL d   1       1.288  16.274   4.766 -0.16 +0.39    -0.481    15.587
ATOM     48  H   UNL d   1       1.559  17.010   5.356 -0.25 -0.54    +0.295    15.587
ATOM     49  C   UNL d   1       6.878  13.920  -4.865 -0.17 -0.00    +0.048    15.587
ATOM     50  C   UNL d   1       7.554  12.631  -4.396 -0.29 -0.01    +0.125    15.587
ATOM     51  C   UNL d   1       6.945  11.432  -5.067 -0.25 +0.00    +0.305    15.587
ATOM     52  O   UNL d   1       7.461  10.345  -5.256 -0.63 -0.07    -0.251    15.587
ATOM     53  O   UNL d   1       5.687  11.674  -5.486 -0.08 +0.09    -0.481    15.587
ATOM     54  H   UNL d   1       5.492  10.930  -6.093 -0.17 -0.11    +0.295    15.587
TER
ENDMDL
MODEL       96
USER    Run = 96
USER    Cluster Rank = 48
USER    Number of conformations in this cluster = 1
USER  
USER    RMSD from reference structure       = 46.406 A
USER  
USER    Estimated Free Energy of Binding    =   -4.44 kcal/mol  [=(1)+(2)+(3)-(4)]
USER    Estimated Inhibition Constant, Ki   =  552.62 uM (micromolar)  [Temperature = 298.15 K]
USER    
USER    (1) Final Intermolecular Energy     =   -8.32 kcal/mol
USER        vdW + Hbond + desolv Energy     =   -7.80 kcal/mol
USER        Electrostatic Energy            =   -0.53 kcal/mol
USER    (2) Final Total Internal Energy     =   -3.65 kcal/mol
USER    (3) Torsional Free Energy           =   +3.88 kcal/mol
USER    (4) Unbound System's Energy  [=(2)] =   -3.65 kcal/mol
USER    
USER    
USER  
USER    DPF = D:/Protein_go_brrr/autodock/final/1A3N/heme/dock.dpf
USER    NEWDPF move	heme_opt.pdbqt
USER    NEWDPF about	0.153000 0.018000 -0.028000
USER    NEWDPF tran0	38.101929 -13.593332 31.268192
USER    NEWDPF axisangle0	-0.743930 0.474054 0.471000 -136.455172
USER    NEWDPF quaternion0	-0.690861 0.440238 0.437401 -0.370921
USER    NEWDPF dihe0	-176.89 133.37 105.98 -123.98 52.18 57.12 -86.21 -116.93 159.51 -12.97 -95.89 -42.41 -8.91 
USER  
USER                              x       y       z    vdW   Elec        q     RMS 
ATOM      1  O   UNL d   1      35.057 -11.989  36.055 -0.03 +0.00    -0.289    46.406
ATOM      2  O   UNL d   1      42.450 -12.622  34.899 -0.00 +0.03    -0.289    46.406
ATOM      3  N   UNL d   1      36.394 -13.111  33.080 -0.08 +0.16    -0.247    46.406
ATOM      4  N   UNL d   1      39.317 -12.733  33.458 -0.04 +0.20    -0.247    46.406
ATOM      5  N   UNL d   1      39.642 -13.143  30.631 -0.09 +0.27    -0.354    46.406
ATOM      6  N   UNL d   1      36.606 -13.515  30.245 -0.12 +0.25    -0.354    46.406
ATOM      7  C   UNL d   1      34.138 -12.561  33.864 -0.16 -0.02    +0.084    46.406
ATOM      8  C   UNL d   1      40.160 -12.762  35.752 -0.02 -0.01    +0.084    46.406
ATOM      9  C   UNL d   1      38.968 -12.784  34.790 -0.06 -0.02    +0.058    46.406
ATOM     10  C   UNL d   1      35.055 -13.035  32.733 -0.18 -0.03    +0.058    46.406
ATOM     11  C   UNL d   1      35.192 -12.400  34.917 -0.06 -0.03    +0.193    46.406
ATOM     12  C   UNL d   1      36.512 -12.789  34.327 -0.08 -0.04    +0.109    46.406
ATOM     13  C   UNL d   1      41.248 -12.652  34.721 -0.02 -0.04    +0.193    46.406
ATOM     14  C   UNL d   1      33.521 -11.191  33.567 -0.28 -0.01    +0.026    46.406
ATOM     15  C   UNL d   1      37.694 -12.799  35.212 -0.06 -0.01    +0.055    46.406
ATOM     16  C   UNL d   1      40.316 -14.094  36.493 +0.00 -0.00    +0.026    46.406
ATOM     17  C   UNL d   1      40.605 -12.637  33.373 -0.02 -0.07    +0.109    46.406
ATOM     18  C   UNL d   1      34.561 -13.425  31.543 -0.27 -0.02    +0.050    46.406
ATOM     19  C   UNL d   1      35.322 -13.956  30.470 -0.22 -0.02    +0.045    46.406
ATOM     20  C   UNL d   1      40.905 -12.721  30.955 -0.12 -0.03    +0.045    46.406
ATOM     21  C   UNL d   1      41.428 -12.492  32.164 -0.07 -0.03    +0.057    46.406
ATOM     22  C   UNL d   1      40.743 -12.890  28.683 -0.32 +0.01    -0.019    46.406
ATOM     23  C   UNL d   1      39.449 -13.274  29.282 -0.30 -0.02    +0.045    46.406
ATOM     24  C   UNL d   1      41.601 -12.564  29.678 -0.21 +0.01    -0.022    46.406
ATOM     25  C   UNL d   1      37.122 -14.092  29.107 -0.21 -0.02    +0.049    46.406
ATOM     26  C   UNL d   1      35.009 -14.870  29.476 -0.25 +0.01    -0.018    46.406
ATOM     27  C   UNL d   1      36.156 -14.966  28.630 -0.22 -0.00    +0.003    46.406
ATOM     28  C   UNL d   1      38.376 -13.675  28.583 -0.29 -0.02    +0.052    46.406
ATOM     29  C   UNL d   1      43.022 -12.126  29.578 -0.15 -0.01    +0.046    46.406
ATOM     30  C   UNL d   1      33.724 -15.610  29.320 -0.29 -0.03    +0.046    46.406
ATOM     31  H   UNL d   1      38.973 -13.401  31.349 +0.04 -0.14    +0.166    46.406
ATOM     32  H   UNL d   1      37.073 -12.828  30.825 -0.12 -0.22    +0.166    46.406
ATOM     33  C   UNL d   1      33.076 -13.569  34.315 -0.09 -0.02    +0.141    46.406
ATOM     34  C   UNL d   1      31.856 -12.906  34.895 -0.09 +0.00    +0.306    46.406
ATOM     35  O   UNL d   1      30.765 -12.808  34.358 -0.17 -0.01    -0.251    46.406
ATOM     36  O   UNL d   1      32.074 -12.402  36.123 -0.02 -0.07    -0.481    46.406
ATOM     37  H   UNL d   1      33.015 -12.607  36.310 +0.06 +0.02    +0.295    46.406
ATOM     38  C   UNL d   1      36.255 -15.792  27.464 -0.24 -0.00    +0.017    46.406
ATOM     39  C   UNL d   1      37.288 -15.803  26.608 +0.03 -0.02    +0.092    46.406
ATOM     40  C   UNL d   1      37.274 -16.712  25.459 -0.13 -0.07    +0.330    46.406
ATOM     41  O   UNL d   1      36.420 -16.809  24.598 -0.25 +0.06    -0.246    46.406
ATOM     42  O   UNL d   1      38.382 -17.469  25.455 +0.01 +0.10    -0.477    46.406
ATOM     43  H   UNL d   1      39.105 -16.828  25.617 +0.10 -0.07    +0.295    46.406
ATOM     44  C   UNL d   1      40.203 -11.579  36.724 -0.02 +0.02    +0.141    46.406
ATOM     45  C   UNL d   1      40.327 -10.247  36.033 -0.06 +0.15    +0.306    46.406
ATOM     46  O   UNL d   1      41.128  -9.365  36.293 -0.10 -0.17    -0.251    46.406
ATOM     47  O   UNL d   1      39.412 -10.084  35.061 -0.62 -0.28    -0.481    46.406
ATOM     48  H   UNL d   1      39.730 -10.647  34.324 -0.33 -0.16    +0.295    46.406
ATOM     49  C   UNL d   1      41.012 -12.862  27.207 -0.28 -0.01    +0.048    46.406
ATOM     50  C   UNL d   1      41.596 -14.184  26.710 -0.23 -0.02    +0.125    46.406
ATOM     51  C   UNL d   1      40.506 -15.172  26.406 -0.13 -0.06    +0.305    46.406
ATOM     52  O   UNL d   1      40.362 -16.288  26.874 -0.04 +0.05    -0.251    46.406
ATOM     53  O   UNL d   1      39.634 -14.696  25.495 -0.47 +0.13    -0.481    46.406
ATOM     54  H   UNL d   1      40.197 -14.459  24.728 -0.43 -0.18    +0.295    46.406
TER
ENDMDL
MODEL       36
USER    Run = 36
USER    Cluster Rank = 49
USER    Number of conformations in this cluster = 1
USER  
USER    RMSD from reference structure       = 29.591 A
USER  
USER    Estimated Free Energy of Binding    =   -4.44 kcal/mol  [=(1)+(2)+(3)-(4)]
USER    Estimated Inhibition Constant, Ki   =  560.61 uM (micromolar)  [Temperature = 298.15 K]
USER    
USER    (1) Final Intermolecular Energy     =   -8.31 kcal/mol
USER        vdW + Hbond + desolv Energy     =   -7.94 kcal/mol
USER        Electrostatic Energy            =   -0.38 kcal/mol
USER    (2) Final Total Internal Energy     =   -2.39 kcal/mol
USER    (3) Torsional Free Energy           =   +3.88 kcal/mol
USER    (4) Unbound System's Energy  [=(2)] =   -2.39 kcal/mol
USER    
USER    
USER  
USER    DPF = D:/Protein_go_brrr/autodock/final/1A3N/heme/dock.dpf
USER    NEWDPF move	heme_opt.pdbqt
USER    NEWDPF about	0.153000 0.018000 -0.028000
USER    NEWDPF tran0	-10.882821 3.900796 30.099184
USER    NEWDPF axisangle0	-0.751971 -0.597615 -0.278201 -86.452672
USER    NEWDPF quaternion0	-0.515011 -0.409296 -0.190535 -0.728654
USER    NEWDPF dihe0	-168.90 -28.77 -78.47 63.79 -163.14 141.92 165.22 -77.38 4.51 -101.01 155.80 97.10 180.00 
USER  
USER                              x       y       z    vdW   Elec        q     RMS 
ATOM      1  O   UNL d   1     -13.285   4.351  24.734 -0.10 +0.03    -0.289    29.591
ATOM      2  O   UNL d   1     -15.213   0.164  30.662 -0.00 +0.01    -0.289    29.591
ATOM      3  N   UNL d   1     -11.471   4.318  27.668 -0.04 +0.08    -0.247    29.591
ATOM      4  N   UNL d   1     -13.134   2.651  29.480 -0.05 +0.03    -0.247    29.591
ATOM      5  N   UNL d   1     -11.529   3.596  31.671 +0.02 +0.06    -0.354    29.591
ATOM      6  N   UNL d   1      -9.822   5.338  29.786 -0.04 +0.08    -0.354    29.591
ATOM      7  C   UNL d   1     -11.372   5.612  25.588 -0.14 -0.05    +0.084    29.591
ATOM      8  C   UNL d   1     -14.608   1.001  28.443 -0.02 -0.00    +0.084    29.591
ATOM      9  C   UNL d   1     -13.624   2.166  28.288 -0.05 -0.00    +0.058    29.591
ATOM     10  C   UNL d   1     -10.813   5.327  26.985 -0.10 -0.03    +0.058    29.591
ATOM     11  C   UNL d   1     -12.453   4.572  25.595 -0.06 -0.05    +0.193    29.591
ATOM     12  C   UNL d   1     -12.393   3.838  26.898 -0.05 -0.02    +0.109    29.591
ATOM     13  C   UNL d   1     -14.614   0.941  29.944 -0.01 -0.01    +0.193    29.591
ATOM     14  C   UNL d   1     -12.018   6.996  25.499 -0.22 -0.02    +0.026    29.591
ATOM     15  C   UNL d   1     -13.310   2.698  27.097 -0.07 -0.00    +0.055    29.591
ATOM     16  C   UNL d   1     -14.028  -0.308  27.899 -0.04 -0.00    +0.026    29.591
ATOM     17  C   UNL d   1     -13.686   1.997  30.451 -0.05 -0.01    +0.109    29.591
ATOM     18  C   UNL d   1      -9.716   5.958  27.445 -0.20 -0.03    +0.050    29.591
ATOM     19  C   UNL d   1      -9.079   5.701  28.685 -0.18 -0.02    +0.045    29.591
ATOM     20  C   UNL d   1     -12.526   2.963  32.365 -0.08 -0.00    +0.045    29.591
ATOM     21  C   UNL d   1     -13.521   2.202  31.897 -0.07 -0.00    +0.057    29.591
ATOM     22  C   UNL d   1     -11.187   4.074  33.845 -0.14 -0.00    -0.019    29.591
ATOM     23  C   UNL d   1     -10.672   4.294  32.479 -0.17 +0.00    +0.045    29.591
ATOM     24  C   UNL d   1     -12.284   3.284  33.771 -0.08 -0.00    -0.022    29.591
ATOM     25  C   UNL d   1      -9.018   5.228  30.897 -0.20 -0.00    +0.049    29.591
ATOM     26  C   UNL d   1      -7.754   5.794  29.082 -0.31 +0.01    -0.018    29.591
ATOM     27  C   UNL d   1      -7.718   5.475  30.475 -0.36 -0.00    +0.003    29.591
ATOM     28  C   UNL d   1      -9.579   5.016  32.185 -0.25 +0.01    +0.052    29.591
ATOM     29  C   UNL d   1     -13.145   2.777  34.878 -0.03 +0.00    +0.046    29.591
ATOM     30  C   UNL d   1      -6.590   6.154  28.223 -0.42 -0.03    +0.046    29.591
ATOM     31  H   UNL d   1     -11.423   3.470  30.670 -0.21 -0.05    +0.166    29.591
ATOM     32  H   UNL d   1     -10.827   5.215  29.767 +0.04 -0.03    +0.166    29.591
ATOM     33  C   UNL d   1     -10.400   5.369  24.428 -0.22 -0.13    +0.141    29.591
ATOM     34  C   UNL d   1      -9.777   4.000  24.472 -0.19 -0.17    +0.306    29.591
ATOM     35  O   UNL d   1      -8.616   3.745  24.743 -0.31 +0.13    -0.251    29.591
ATOM     36  O   UNL d   1     -10.652   3.023  24.173 -0.09 +0.10    -0.481    29.591
ATOM     37  H   UNL d   1     -11.454   3.496  23.865 +0.17 -0.07    +0.295    29.591
ATOM     38  C   UNL d   1      -6.541   5.466  31.290 -0.48 -0.00    +0.017    29.591
ATOM     39  C   UNL d   1      -5.371   4.902  30.954 -0.51 -0.03    +0.092    29.591
ATOM     40  C   UNL d   1      -4.233   4.978  31.874 -0.38 -0.03    +0.330    29.591
ATOM     41  O   UNL d   1      -3.423   4.106  32.128 -0.64 +0.04    -0.246    29.591
ATOM     42  O   UNL d   1      -4.173   6.195  32.435 -0.33 -0.01    -0.477    29.591
ATOM     43  H   UNL d   1      -3.755   6.032  33.305 -0.32 -0.07    +0.295    29.591
ATOM     44  C   UNL d   1     -16.018   1.252  27.898 -0.02 +0.01    +0.141    29.591
ATOM     45  C   UNL d   1     -17.084   0.480  28.631 -0.00 +0.01    +0.306    29.591
ATOM     46  O   UNL d   1     -18.044   0.947  29.219 -0.00 -0.01    -0.251    29.591
ATOM     47  O   UNL d   1     -16.866  -0.847  28.607 +0.00 -0.01    -0.481    29.591
ATOM     48  H   UNL d   1     -16.479  -1.051  29.485 +0.00 +0.00    +0.295    29.591
ATOM     49  C   UNL d   1     -10.575   4.663  35.082 -0.17 +0.02    +0.048    29.591
ATOM     50  C   UNL d   1     -11.282   5.949  35.510 -0.10 +0.07    +0.125    29.591
ATOM     51  C   UNL d   1     -11.987   6.587  34.347 -0.04 +0.20    +0.305    29.591
ATOM     52  O   UNL d   1     -11.510   7.326  33.504 -0.64 -0.29    -0.251    29.591
ATOM     53  O   UNL d   1     -13.295   6.262  34.310 +0.01 -0.13    -0.481    29.591
ATOM     54  H   UNL d   1     -13.393   5.765  33.471 +0.02 +0.05    +0.295    29.591
TER
ENDMDL
MODEL       46
USER    Run = 46
USER    Cluster Rank = 50
USER    Number of conformations in this cluster = 1
USER  
USER    RMSD from reference structure       = 26.304 A
USER  
USER    Estimated Free Energy of Binding    =   -4.41 kcal/mol  [=(1)+(2)+(3)-(4)]
USER    Estimated Inhibition Constant, Ki   =  588.10 uM (micromolar)  [Temperature = 298.15 K]
USER    
USER    (1) Final Intermolecular Energy     =   -8.29 kcal/mol
USER        vdW + Hbond + desolv Energy     =   -7.89 kcal/mol
USER        Electrostatic Energy            =   -0.40 kcal/mol
USER    (2) Final Total Internal Energy     =   -2.25 kcal/mol
USER    (3) Torsional Free Energy           =   +3.88 kcal/mol
USER    (4) Unbound System's Energy  [=(2)] =   -2.25 kcal/mol
USER    
USER    
USER  
USER    DPF = D:/Protein_go_brrr/autodock/final/1A3N/heme/dock.dpf
USER    NEWDPF move	heme_opt.pdbqt
USER    NEWDPF about	0.153000 0.018000 -0.028000
USER    NEWDPF tran0	14.443357 22.458056 13.851569
USER    NEWDPF axisangle0	0.924147 0.187768 0.332710 -176.332352
USER    NEWDPF quaternion0	0.923673 0.187672 0.332540 -0.032001
USER    NEWDPF dihe0	-160.25 84.07 -104.20 -115.61 40.46 165.95 178.94 -55.32 125.94 -102.45 137.88 5.24 -171.96 
USER  
USER                              x       y       z    vdW   Elec        q     RMS 
ATOM      1  O   UNL d   1      11.424  18.869  10.279 -0.16 -0.13    -0.289    26.304
ATOM      2  O   UNL d   1       9.995  25.871  12.586 -0.28 -0.02    -0.289    26.304
ATOM      3  N   UNL d   1      13.444  20.548  12.515 -0.07 -0.06    -0.247    26.304
ATOM      4  N   UNL d   1      12.273  23.279  12.576 -0.07 -0.05    -0.247    26.304
ATOM      5  N   UNL d   1      14.655  24.170  13.917 +0.02 -0.06    -0.354    26.304
ATOM      6  N   UNL d   1      15.871  21.339  13.831 -0.03 -0.08    -0.354    26.304
ATOM      7  C   UNL d   1      13.575  18.401  11.341 -0.15 +0.02    +0.084    26.304
ATOM      8  C   UNL d   1       9.901  23.490  12.027 -0.28 +0.02    +0.084    26.304
ATOM      9  C   UNL d   1      11.151  22.611  12.136 -0.19 +0.02    +0.058    26.304
ATOM     10  C   UNL d   1      14.202  19.408  12.310 -0.14 +0.01    +0.058    26.304
ATOM     11  C   UNL d   1      12.320  19.166  11.049 -0.13 +0.07    +0.193    26.304
ATOM     12  C   UNL d   1      12.347  20.437  11.839 -0.15 +0.03    +0.109    26.304
ATOM     13  C   UNL d   1      10.529  24.788  12.451 -0.22 +0.03    +0.193    26.304
ATOM     14  C   UNL d   1      14.385  18.266  10.049 -0.12 +0.01    +0.026    26.304
ATOM     15  C   UNL d   1      11.162  21.317  11.782 -0.27 +0.02    +0.055    26.304
ATOM     16  C   UNL d   1       8.839  23.097  13.058 -0.44 +0.00    +0.026    26.304
ATOM     17  C   UNL d   1      11.970  24.525  12.749 -0.16 +0.02    +0.109    26.304
ATOM     18  C   UNL d   1      15.349  19.137  12.961 -0.11 +0.01    +0.050    26.304
ATOM     19  C   UNL d   1      15.958  19.969  13.935 -0.15 +0.01    +0.045    26.304
ATOM     20  C   UNL d   1      14.067  25.380  13.651 -0.13 +0.00    +0.045    26.304
ATOM     21  C   UNL d   1      12.854  25.629  13.150 -0.20 +0.00    +0.057    26.304
ATOM     22  C   UNL d   1      16.156  25.744  14.502 -0.10 -0.00    -0.019    26.304
ATOM     23  C   UNL d   1      15.918  24.288  14.433 +0.05 +0.01    +0.045    26.304
ATOM     24  C   UNL d   1      15.056  26.385  14.039 -0.12 +0.00    -0.022    26.304
ATOM     25  C   UNL d   1      16.604  21.946  14.824 -0.13 +0.01    +0.049    26.304
ATOM     26  C   UNL d   1      16.737  19.678  15.044 -0.22 -0.01    -0.018    26.304
ATOM     27  C   UNL d   1      17.126  20.930  15.613 -0.19 +0.00    +0.003    26.304
ATOM     28  C   UNL d   1      16.795  23.355  14.832 -0.12 +0.01    +0.052    26.304
ATOM     29  C   UNL d   1      14.810  27.850  13.923 -0.11 -0.01    +0.046    26.304
ATOM     30  C   UNL d   1      17.097  18.322  15.549 -0.18 +0.02    +0.046    26.304
ATOM     31  H   UNL d   1      14.143  23.301  13.806 +0.05 +0.03    +0.166    26.304
ATOM     32  H   UNL d   1      15.365  21.814  13.093 +0.04 +0.03    +0.166    26.304
ATOM     33  C   UNL d   1      13.243  17.031  11.942 -0.07 +0.03    +0.141    26.304
ATOM     34  C   UNL d   1      12.493  16.145  10.984 -0.18 +0.06    +0.306    26.304
ATOM     35  O   UNL d   1      12.982  15.309  10.243 -0.11 -0.05    -0.251    26.304
ATOM     36  O   UNL d   1      11.166  16.357  11.012 -0.12 -0.08    -0.481    26.304
ATOM     37  H   UNL d   1      11.065  17.229  11.449 -0.32 +0.01    +0.295    26.304
ATOM     38  C   UNL d   1      17.954  21.089  16.771 -0.23 +0.01    +0.017    26.304
ATOM     39  C   UNL d   1      17.746  21.976  17.756 -0.24 +0.03    +0.092    26.304
ATOM     40  C   UNL d   1      18.661  22.026  18.899 -0.14 +0.12    +0.330    26.304
ATOM     41  O   UNL d   1      18.780  22.917  19.718 -0.15 -0.12    -0.246    26.304
ATOM     42  O   UNL d   1      19.396  20.904  18.950 -0.12 -0.17    -0.477    26.304
ATOM     43  H   UNL d   1      18.913  20.336  19.585 -0.41 +0.02    +0.295    26.304
ATOM     44  C   UNL d   1       9.295  23.606  10.624 -0.37 +0.07    +0.141    26.304
ATOM     45  C   UNL d   1       8.558  24.900  10.401 -0.21 +0.22    +0.306    26.304
ATOM     46  O   UNL d   1       8.637  25.621   9.421 -0.30 -0.32    -0.251    26.304
ATOM     47  O   UNL d   1       7.776  25.234  11.443 -0.07 -0.21    -0.481    26.304
ATOM     48  H   UNL d   1       8.400  25.553  12.129 -0.32 +0.01    +0.295    26.304
ATOM     49  C   UNL d   1      17.428  26.367  14.995 -0.07 +0.00    +0.048    26.304
ATOM     50  C   UNL d   1      18.281  26.906  13.846 -0.02 +0.01    +0.125    26.304
ATOM     51  C   UNL d   1      18.279  25.953  12.685 -0.01 +0.02    +0.305    26.304
ATOM     52  O   UNL d   1      18.684  24.804  12.665 -0.01 -0.03    -0.251    26.304
ATOM     53  O   UNL d   1      17.764  26.515  11.573 +0.00 -0.02    -0.481    26.304
ATOM     54  H   UNL d   1      18.388  27.240  11.362 +0.00 +0.01    +0.295    26.304
TER
ENDMDL
MODEL       65
USER    Run = 65
USER    Cluster Rank = 51
USER    Number of conformations in this cluster = 1
USER  
USER    RMSD from reference structure       = 23.097 A
USER  
USER    Estimated Free Energy of Binding    =   -4.35 kcal/mol  [=(1)+(2)+(3)-(4)]
USER    Estimated Inhibition Constant, Ki   =  643.67 uM (micromolar)  [Temperature = 298.15 K]
USER    
USER    (1) Final Intermolecular Energy     =   -8.23 kcal/mol
USER        vdW + Hbond + desolv Energy     =   -7.65 kcal/mol
USER        Electrostatic Energy            =   -0.58 kcal/mol
USER    (2) Final Total Internal Energy     =   -2.64 kcal/mol
USER    (3) Torsional Free Energy           =   +3.88 kcal/mol
USER    (4) Unbound System's Energy  [=(2)] =   -2.64 kcal/mol
USER    
USER    
USER  
USER    DPF = D:/Protein_go_brrr/autodock/final/1A3N/heme/dock.dpf
USER    NEWDPF move	heme_opt.pdbqt
USER    NEWDPF about	0.153000 0.018000 -0.028000
USER    NEWDPF tran0	6.218608 -15.134904 19.351282
USER    NEWDPF axisangle0	0.132004 -0.924595 0.357351 125.330006
USER    NEWDPF quaternion0	0.117264 -0.821351 0.317448 0.459192
USER    NEWDPF dihe0	117.33 42.12 123.99 74.25 -132.22 144.86 -51.17 109.89 27.26 -146.76 116.25 -67.07 40.15 
USER  
USER                              x       y       z    vdW   Elec        q     RMS 
ATOM      1  O   UNL d   1      10.013 -11.384  21.859 -0.26 -0.04    -0.289    23.097
ATOM      2  O   UNL d   1       5.894 -16.931  24.801 -0.06 -0.06    -0.289    23.097
ATOM      3  N   UNL d   1       7.796 -13.256  19.995 -0.09 -0.11    -0.247    23.097
ATOM      4  N   UNL d   1       6.893 -15.346  21.903 -0.16 -0.10    -0.247    23.097
ATOM      5  N   UNL d   1       5.779 -16.774  19.670 +0.00 -0.16    -0.354    23.097
ATOM      6  N   UNL d   1       6.736 -14.609  17.694 -0.02 -0.17    -0.354    23.097
ATOM      7  C   UNL d   1       9.456 -11.526  19.483 -0.08 +0.03    +0.084    23.097
ATOM      8  C   UNL d   1       6.986 -14.802  24.284 -0.18 +0.02    +0.084    23.097
ATOM      9  C   UNL d   1       7.294 -14.414  22.834 -0.22 +0.01    +0.058    23.097
ATOM     10  C   UNL d   1       8.388 -12.507  18.991 -0.07 +0.02    +0.058    23.097
ATOM     11  C   UNL d   1       9.350 -11.840  20.946 -0.12 +0.05    +0.193    23.097
ATOM     12  C   UNL d   1       8.292 -12.884  21.129 -0.15 +0.03    +0.109    23.097
ATOM     13  C   UNL d   1       6.369 -16.144  24.006 -0.11 +0.05    +0.193    23.097
ATOM     14  C   UNL d   1      10.855 -11.909  18.995 -0.17 +0.01    +0.026    23.097
ATOM     15  C   UNL d   1       7.945 -13.287  22.507 -0.25 +0.01    +0.055    23.097
ATOM     16  C   UNL d   1       5.922 -13.890  24.902 -0.17 +0.00    +0.026    23.097
ATOM     17  C   UNL d   1       6.380 -16.358  22.527 -0.17 +0.03    +0.109    23.097
ATOM     18  C   UNL d   1       8.014 -12.549  17.698 -0.05 +0.02    +0.050    23.097
ATOM     19  C   UNL d   1       6.980 -13.361  17.167 -0.05 +0.02    +0.045    23.097
ATOM     20  C   UNL d   1       5.649 -17.726  20.646 -0.06 +0.02    +0.045    23.097
ATOM     21  C   UNL d   1       5.874 -17.616  21.960 -0.15 +0.02    +0.057    23.097
ATOM     22  C   UNL d   1       5.083 -18.649  18.635 -0.10 -0.01    -0.019    23.097
ATOM     23  C   UNL d   1       5.460 -17.238  18.421 -0.11 +0.02    +0.045    23.097
ATOM     24  C   UNL d   1       5.195 -18.932  19.954 -0.11 -0.01    -0.022    23.097
ATOM     25  C   UNL d   1       5.758 -15.256  16.974 -0.08 +0.02    +0.049    23.097
ATOM     26  C   UNL d   1       6.113 -13.177  16.101 -0.09 -0.01    -0.018    23.097
ATOM     27  C   UNL d   1       5.331 -14.368  15.996 -0.11 +0.00    +0.003    23.097
ATOM     28  C   UNL d   1       5.444 -16.618  17.231 -0.10 +0.02    +0.052    23.097
ATOM     29  C   UNL d   1       4.916 -20.215  20.661 -0.09 +0.01    +0.046    23.097
ATOM     30  C   UNL d   1       6.014 -11.969  15.233 -0.21 +0.02    +0.046    23.097
ATOM     31  H   UNL d   1       6.012 -15.813  19.899 +0.04 +0.08    +0.166    23.097
ATOM     32  H   UNL d   1       7.248 -14.996  18.479 +0.04 +0.09    +0.166    23.097
ATOM     33  C   UNL d   1       9.156 -10.045  19.228 -0.03 +0.04    +0.141    23.097
ATOM     34  C   UNL d   1       8.110  -9.497  20.160 -0.01 +0.06    +0.306    23.097
ATOM     35  O   UNL d   1       6.906  -9.664  20.071 -0.03 -0.06    -0.251    23.097
ATOM     36  O   UNL d   1       8.638  -8.767  21.159 +0.02 -0.07    -0.481    23.097
ATOM     37  H   UNL d   1       9.161  -9.410  21.684 +0.13 +0.03    +0.295    23.097
ATOM     38  C   UNL d   1       4.318 -14.607  15.012 -0.20 +0.01    +0.017    23.097
ATOM     39  C   UNL d   1       3.989 -15.809  14.515 -0.19 +0.03    +0.092    23.097
ATOM     40  C   UNL d   1       2.918 -15.920  13.522 -0.13 +0.06    +0.330    23.097
ATOM     41  O   UNL d   1       2.868 -16.665  12.562 -0.75 -0.06    -0.246    23.097
ATOM     42  O   UNL d   1       1.929 -15.059  13.810 -0.08 -0.02    -0.477    23.097
ATOM     43  H   UNL d   1       1.114 -15.577  13.651 -0.36 -0.12    +0.295    23.097
ATOM     44  C   UNL d   1       8.203 -14.937  25.204 -0.30 +0.04    +0.141    23.097
ATOM     45  C   UNL d   1       7.846 -14.929  26.667 -0.16 +0.24    +0.306    23.097
ATOM     46  O   UNL d   1       7.856 -13.964  27.412 -0.76 -0.19    -0.251    23.097
ATOM     47  O   UNL d   1       7.520 -16.151  27.124 -0.29 -0.46    -0.481    23.097
ATOM     48  H   UNL d   1       6.780 -16.441  26.550 +0.08 +0.14    +0.295    23.097
ATOM     49  C   UNL d   1       4.666 -19.585  17.539 -0.06 +0.01    +0.048    23.097
ATOM     50  C   UNL d   1       3.704 -18.918  16.556 -0.13 +0.01    +0.125    23.097
ATOM     51  C   UNL d   1       2.428 -18.521  17.241 -0.17 +0.01    +0.305    23.097
ATOM     52  O   UNL d   1       2.087 -17.404  17.589 -0.27 -0.06    -0.251    23.097
ATOM     53  O   UNL d   1       1.628 -19.582  17.470 -0.08 +0.14    -0.481    23.097
ATOM     54  H   UNL d   1       0.910 -19.486  16.810 -0.36 -0.32    +0.295    23.097
TER
ENDMDL
MODEL       27
USER    Run = 27
USER    Cluster Rank = 52
USER    Number of conformations in this cluster = 1
USER  
USER    RMSD from reference structure       = 25.191 A
USER  
USER    Estimated Free Energy of Binding    =   -4.35 kcal/mol  [=(1)+(2)+(3)-(4)]
USER    Estimated Inhibition Constant, Ki   =  649.69 uM (micromolar)  [Temperature = 298.15 K]
USER    
USER    (1) Final Intermolecular Energy     =   -8.23 kcal/mol
USER        vdW + Hbond + desolv Energy     =   -7.81 kcal/mol
USER        Electrostatic Energy            =   -0.42 kcal/mol
USER    (2) Final Total Internal Energy     =   -2.43 kcal/mol
USER    (3) Torsional Free Energy           =   +3.88 kcal/mol
USER    (4) Unbound System's Energy  [=(2)] =   -2.43 kcal/mol
USER    
USER    
USER  
USER    DPF = D:/Protein_go_brrr/autodock/final/1A3N/heme/dock.dpf
USER    NEWDPF move	heme_opt.pdbqt
USER    NEWDPF about	0.153000 0.018000 -0.028000
USER    NEWDPF tran0	26.644412 -11.500301 -8.649243
USER    NEWDPF axisangle0	0.739665 -0.672504 0.025169 -74.722147
USER    NEWDPF quaternion0	0.448856 -0.408100 0.015274 -0.794827
USER    NEWDPF dihe0	143.25 28.87 105.88 -146.46 73.23 74.46 -45.12 -67.59 156.34 -127.57 -176.85 57.14 6.24 
USER  
USER                              x       y       z    vdW   Elec        q     RMS 
ATOM      1  O   UNL d   1      21.834  -9.044 -11.011 -0.12 +0.08    -0.289    25.191
ATOM      2  O   UNL d   1      27.769 -12.336 -14.224 -0.02 +0.11    -0.289    25.191
ATOM      3  N   UNL d   1      24.517 -10.235  -9.200 -0.33 +0.06    -0.247    25.191
ATOM      4  N   UNL d   1      26.174 -11.601 -11.253 -0.10 +0.16    -0.247    25.191
ATOM      5  N   UNL d   1      27.656 -12.820  -9.112 -0.06 +0.08    -0.354    25.191
ATOM      6  N   UNL d   1      25.919 -11.414  -6.989 -0.10 +0.03    -0.354    25.191
ATOM      7  C   UNL d   1      22.329  -9.289  -8.630 -0.21 -0.01    +0.084    25.191
ATOM      8  C   UNL d   1      25.967 -10.819 -13.559 -0.10 -0.04    +0.084    25.191
ATOM      9  C   UNL d   1      25.493 -10.759 -12.103 -0.14 -0.04    +0.058    25.191
ATOM     10  C   UNL d   1      23.663  -9.883  -8.168 -0.24 -0.01    +0.058    25.191
ATOM     11  C   UNL d   1      22.587  -9.350 -10.105 -0.15 -0.05    +0.193    25.191
ATOM     12  C   UNL d   1      23.956  -9.918 -10.322 -0.21 -0.03    +0.109    25.191
ATOM     13  C   UNL d   1      27.017 -11.880 -13.385 -0.06 -0.10    +0.193    25.191
ATOM     14  C   UNL d   1      21.147 -10.202  -8.296 -0.12 -0.00    +0.026    25.191
ATOM     15  C   UNL d   1      24.469  -9.988 -11.705 -0.23 -0.03    +0.055    25.191
ATOM     16  C   UNL d   1      26.649  -9.517 -13.989 -0.01 -0.02    +0.026    25.191
ATOM     17  C   UNL d   1      27.037 -12.274 -11.944 -0.10 -0.06    +0.109    25.191
ATOM     18  C   UNL d   1      23.985  -9.958  -6.863 -0.27 +0.00    +0.050    25.191
ATOM     19  C   UNL d   1      25.225 -10.413  -6.347 -0.25 +0.00    +0.045    25.191
ATOM     20  C   UNL d   1      28.153 -13.529 -10.175 -0.08 -0.01    +0.045    25.191
ATOM     21  C   UNL d   1      27.945 -13.335 -11.482 -0.08 -0.02    +0.057    25.191
ATOM     22  C   UNL d   1      28.949 -14.446  -8.241 -0.05 +0.00    -0.019    25.191
ATOM     23  C   UNL d   1      28.081 -13.300  -7.902 -0.09 -0.01    +0.045    25.191
ATOM     24  C   UNL d   1      28.988 -14.575  -9.588 -0.04 +0.00    -0.022    25.191
ATOM     25  C   UNL d   1      27.041 -11.760  -6.272 -0.18 -0.00    +0.049    25.191
ATOM     26  C   UNL d   1      25.932 -10.075  -5.204 -0.30 -0.00    -0.018    25.191
ATOM     27  C   UNL d   1      27.088 -10.915  -5.172 -0.26 -0.00    +0.003    25.191
ATOM     28  C   UNL d   1      27.834 -12.876  -6.653 -0.13 -0.00    +0.052    25.191
ATOM     29  C   UNL d   1      29.735 -15.571 -10.408 -0.01 -0.01    +0.046    25.191
ATOM     30  C   UNL d   1      25.561  -9.035  -4.202 -0.34 +0.01    +0.046    25.191
ATOM     31  H   UNL d   1      27.100 -11.984  -9.251 +0.03 -0.06    +0.166    25.191
ATOM     32  H   UNL d   1      25.607 -11.850  -7.848 +0.05 -0.02    +0.166    25.191
ATOM     33  C   UNL d   1      22.065  -7.844  -8.190 -0.33 -0.03    +0.141    25.191
ATOM     34  C   UNL d   1      20.599  -7.510  -8.148 -0.26 -0.07    +0.306    25.191
ATOM     35  O   UNL d   1      19.996  -7.028  -7.204 -0.41 +0.05    -0.251    25.191
ATOM     36  O   UNL d   1      19.968  -7.799  -9.300 -0.09 +0.12    -0.481    25.191
ATOM     37  H   UNL d   1      20.605  -7.542 -10.001 -0.08 -0.13    +0.295    25.191
ATOM     38  C   UNL d   1      28.087 -10.905  -4.146 -0.30 -0.00    +0.017    25.191
ATOM     39  C   UNL d   1      29.154 -10.093  -4.111 -0.35 -0.03    +0.092    25.191
ATOM     40  C   UNL d   1      30.096 -10.172  -2.991 -0.24 -0.20    +0.330    25.191
ATOM     41  O   UNL d   1      30.905 -11.050  -2.762 -0.25 +0.13    -0.246    25.191
ATOM     42  O   UNL d   1      29.965  -9.096  -2.201 -0.13 +0.44    -0.477    25.191
ATOM     43  H   UNL d   1      30.857  -8.979  -1.813 -0.29 -0.61    +0.295    25.191
ATOM     44  C   UNL d   1      24.910 -11.255 -14.580 -0.02 -0.03    +0.141    25.191
ATOM     45  C   UNL d   1      25.447 -11.362 -15.982 +0.00 -0.06    +0.306    25.191
ATOM     46  O   UNL d   1      25.486 -10.472 -16.815 -0.00 +0.04    -0.251    25.191
ATOM     47  O   UNL d   1      25.886 -12.600 -16.273 +0.01 +0.07    -0.481    25.191
ATOM     48  H   UNL d   1      26.740 -12.678 -15.798 +0.01 -0.05    +0.295    25.191
ATOM     49  C   UNL d   1      29.640 -15.308  -7.226 -0.03 -0.00    +0.048    25.191
ATOM     50  C   UNL d   1      30.876 -14.622  -6.643 -0.05 -0.01    +0.125    25.191
ATOM     51  C   UNL d   1      31.013 -13.224  -7.175 -0.08 -0.01    +0.305    25.191
ATOM     52  O   UNL d   1      31.367 -12.884  -8.290 -0.10 +0.02    -0.251    25.191
ATOM     53  O   UNL d   1      30.701 -12.298  -6.246 -0.65 -0.05    -0.481    25.191
ATOM     54  H   UNL d   1      30.987 -12.703  -5.400 +0.08 -0.00    +0.295    25.191
TER
ENDMDL
MODEL       41
USER    Run = 41
USER    Cluster Rank = 53
USER    Number of conformations in this cluster = 2
USER  
USER    RMSD from reference structure       = 20.387 A
USER  
USER    Estimated Free Energy of Binding    =   -4.32 kcal/mol  [=(1)+(2)+(3)-(4)]
USER    Estimated Inhibition Constant, Ki   =  687.12 uM (micromolar)  [Temperature = 298.15 K]
USER    
USER    (1) Final Intermolecular Energy     =   -8.19 kcal/mol
USER        vdW + Hbond + desolv Energy     =   -7.64 kcal/mol
USER        Electrostatic Energy            =   -0.55 kcal/mol
USER    (2) Final Total Internal Energy     =   -3.62 kcal/mol
USER    (3) Torsional Free Energy           =   +3.88 kcal/mol
USER    (4) Unbound System's Energy  [=(2)] =   -3.62 kcal/mol
USER    
USER    
USER  
USER    DPF = D:/Protein_go_brrr/autodock/final/1A3N/heme/dock.dpf
USER    NEWDPF move	heme_opt.pdbqt
USER    NEWDPF about	0.153000 0.018000 -0.028000
USER    NEWDPF tran0	19.412763 -16.306585 -0.364580
USER    NEWDPF axisangle0	-0.907992 -0.407824 -0.096076 66.381083
USER    NEWDPF quaternion0	-0.497057 -0.223253 -0.052594 0.836855
USER    NEWDPF dihe0	141.62 115.92 -160.38 -127.56 73.30 -4.43 133.09 -26.01 154.75 -14.76 135.16 5.15 31.81 
USER  
USER                              x       y       z    vdW   Elec        q     RMS 
ATOM      1  O   UNL d   1      14.894 -17.725   3.147 -0.28 -0.02    -0.289    20.387
ATOM      2  O   UNL d   1      15.714 -18.278  -4.297 -0.11 +0.23    -0.289    20.387
ATOM      3  N   UNL d   1      17.713 -16.625   1.491 -0.12 +0.05    -0.247    20.387
ATOM      4  N   UNL d   1      17.258 -17.525  -1.304 -0.12 +0.09    -0.247    20.387
ATOM      5  N   UNL d   1      20.026 -16.964  -1.838 -0.05 +0.12    -0.354    20.387
ATOM      6  N   UNL d   1      20.495 -16.050   1.069 +0.00 +0.07    -0.354    20.387
ATOM      7  C   UNL d   1      17.064 -16.840   3.844 -0.20 -0.01    +0.084    20.387
ATOM      8  C   UNL d   1      14.940 -17.814  -2.022 -0.28 -0.06    +0.084    20.387
ATOM      9  C   UNL d   1      15.941 -17.516  -0.901 -0.27 -0.03    +0.058    20.387
ATOM     10  C   UNL d   1      18.115 -16.445   2.803 -0.19 -0.01    +0.058    20.387
ATOM     11  C   UNL d   1      15.988 -17.258   2.887 -0.24 -0.02    +0.193    20.387
ATOM     12  C   UNL d   1      16.494 -17.056   1.492 -0.29 -0.02    +0.109    20.387
ATOM     13  C   UNL d   1      15.934 -18.030  -3.128 -0.15 -0.13    +0.193    20.387
ATOM     14  C   UNL d   1      17.496 -18.057   4.665 -0.19 +0.00    +0.026    20.387
ATOM     15  C   UNL d   1      15.567 -17.316   0.372 -0.36 -0.02    +0.055    20.387
ATOM     16  C   UNL d   1      14.085 -16.589  -2.361 -0.47 -0.03    +0.026    20.387
ATOM     17  C   UNL d   1      17.302 -17.833  -2.561 -0.15 -0.05    +0.109    20.387
ATOM     18  C   UNL d   1      19.287 -15.888   3.164 -0.18 -0.00    +0.050    20.387
ATOM     19  C   UNL d   1      20.282 -15.415   2.271 -0.14 -0.01    +0.045    20.387
ATOM     20  C   UNL d   1      19.692 -17.619  -2.994 -0.10 -0.01    +0.045    20.387
ATOM     21  C   UNL d   1      18.487 -18.025  -3.409 -0.15 -0.02    +0.057    20.387
ATOM     22  C   UNL d   1      21.947 -17.254  -2.979 -0.07 +0.00    -0.019    20.387
ATOM     23  C   UNL d   1      21.367 -16.700  -1.739 -0.13 -0.01    +0.045    20.387
ATOM     24  C   UNL d   1      20.950 -17.795  -3.719 -0.08 +0.01    -0.022    20.387
ATOM     25  C   UNL d   1      21.560 -15.486   0.406 -0.13 -0.01    +0.049    20.387
ATOM     26  C   UNL d   1      21.208 -14.389   2.376 -0.20 +0.00    -0.018    20.387
ATOM     27  C   UNL d   1      21.999 -14.426   1.186 -0.19 -0.00    +0.003    20.387
ATOM     28  C   UNL d   1      22.070 -16.070  -0.785 -0.14 -0.01    +0.052    20.387
ATOM     29  C   UNL d   1      21.032 -18.461  -5.050 -0.03 -0.01    +0.046    20.387
ATOM     30  C   UNL d   1      21.349 -13.429   3.508 -0.24 -0.00    +0.046    20.387
ATOM     31  H   UNL d   1      19.315 -16.651  -1.186 +0.05 -0.05    +0.166    20.387
ATOM     32  H   UNL d   1      19.956 -16.849   0.754 +0.04 -0.03    +0.166    20.387
ATOM     33  C   UNL d   1      16.570 -15.702   4.744 -0.22 -0.03    +0.141    20.387
ATOM     34  C   UNL d   1      15.988 -16.198   6.040 -0.15 -0.01    +0.306    20.387
ATOM     35  O   UNL d   1      16.302 -15.829   7.159 -0.17 -0.03    -0.251    20.387
ATOM     36  O   UNL d   1      15.039 -17.133   5.857 -0.15 -0.00    -0.481    20.387
ATOM     37  H   UNL d   1      14.520 -16.811   5.090 -0.28 -0.08    +0.295    20.387
ATOM     38  C   UNL d   1      23.087 -13.543   0.891 -0.24 -0.00    +0.017    20.387
ATOM     39  C   UNL d   1      23.328 -12.983  -0.304 -0.23 -0.00    +0.092    20.387
ATOM     40  C   UNL d   1      24.470 -12.080  -0.471 -0.18 +0.10    +0.330    20.387
ATOM     41  O   UNL d   1      25.217 -11.659   0.392 -0.19 -0.01    -0.246    20.387
ATOM     42  O   UNL d   1      24.616 -11.754  -1.764 -0.42 -0.42    -0.477    20.387
ATOM     43  H   UNL d   1      24.831 -12.606  -2.198 +0.09 +0.12    +0.295    20.387
ATOM     44  C   UNL d   1      14.069 -19.058  -1.816 -0.22 -0.10    +0.141    20.387
ATOM     45  C   UNL d   1      14.858 -20.339  -1.795 -0.04 -0.12    +0.306    20.387
ATOM     46  O   UNL d   1      15.364 -20.865  -0.818 -0.03 +0.05    -0.251    20.387
ATOM     47  O   UNL d   1      14.994 -20.881  -3.018 +0.00 +0.22    -0.481    20.387
ATOM     48  H   UNL d   1      14.804 -20.145  -3.638 +0.06 -0.19    +0.295    20.387
ATOM     49  C   UNL d   1      23.408 -17.215  -3.316 -0.02 -0.01    +0.048    20.387
ATOM     50  C   UNL d   1      23.985 -15.805  -3.189 -0.02 -0.01    +0.125    20.387
ATOM     51  C   UNL d   1      23.060 -14.791  -3.801 -0.05 -0.01    +0.305    20.387
ATOM     52  O   UNL d   1      22.319 -14.942  -4.757 -0.06 +0.03    -0.251    20.387
ATOM     53  O   UNL d   1      23.126 -13.602  -3.169 -0.05 -0.14    -0.481    20.387
ATOM     54  H   UNL d   1      24.084 -13.393  -3.155 +0.07 +0.09    +0.295    20.387
TER
ENDMDL
MODEL       71
USER    Run = 71
USER    Cluster Rank = 54
USER    Number of conformations in this cluster = 1
USER  
USER    RMSD from reference structure       = 27.544 A
USER  
USER    Estimated Free Energy of Binding    =   -4.23 kcal/mol  [=(1)+(2)+(3)-(4)]
USER    Estimated Inhibition Constant, Ki   =  793.81 uM (micromolar)  [Temperature = 298.15 K]
USER    
USER    (1) Final Intermolecular Energy     =   -8.11 kcal/mol
USER        vdW + Hbond + desolv Energy     =   -7.66 kcal/mol
USER        Electrostatic Energy            =   -0.45 kcal/mol
USER    (2) Final Total Internal Energy     =   -2.11 kcal/mol
USER    (3) Torsional Free Energy           =   +3.88 kcal/mol
USER    (4) Unbound System's Energy  [=(2)] =   -2.11 kcal/mol
USER    
USER    
USER  
USER    DPF = D:/Protein_go_brrr/autodock/final/1A3N/heme/dock.dpf
USER    NEWDPF move	heme_opt.pdbqt
USER    NEWDPF about	0.153000 0.018000 -0.028000
USER    NEWDPF tran0	17.925668 -22.140123 15.061279
USER    NEWDPF axisangle0	-0.961283 -0.055634 0.269889 -140.616668
USER    NEWDPF quaternion0	-0.905067 -0.052381 0.254105 -0.336958
USER    NEWDPF dihe0	-101.14 76.48 -109.46 65.27 35.01 166.16 175.53 114.29 128.79 16.79 -30.54 -149.37 -172.91 
USER  
USER                              x       y       z    vdW   Elec        q     RMS 
ATOM      1  O   UNL d   1      12.620 -24.551  15.952 +0.00 -0.04    -0.289    27.544
ATOM      2  O   UNL d   1      16.779 -20.049  20.291 -0.72 -0.19    -0.289    27.544
ATOM      3  N   UNL d   1      15.774 -23.483  15.054 -0.00 -0.01    -0.247    27.544
ATOM      4  N   UNL d   1      16.478 -21.551  17.199 -0.07 -0.04    -0.247    27.544
ATOM      5  N   UNL d   1      18.654 -20.653  15.548 -0.07 +0.01    -0.354    27.544
ATOM      6  N   UNL d   1      17.905 -22.647  13.320 -0.02 +0.03    -0.354    27.544
ATOM      7  C   UNL d   1      13.998 -24.755  13.943 -0.00 +0.01    +0.084    27.544
ATOM      8  C   UNL d   1      15.404 -21.854  19.373 -0.19 +0.02    +0.084    27.544
ATOM      9  C   UNL d   1      15.535 -22.267  17.903 -0.09 +0.01    +0.058    27.544
ATOM     10  C   UNL d   1      15.395 -24.131  13.890 -0.01 +0.00    +0.058    27.544
ATOM     11  C   UNL d   1      13.661 -24.361  15.350 +0.00 +0.02    +0.193    27.544
ATOM     12  C   UNL d   1      14.827 -23.618  15.924 -0.01 +0.01    +0.109    27.544
ATOM     13  C   UNL d   1      16.420 -20.747  19.363 -0.30 +0.08    +0.193    27.544
ATOM     14  C   UNL d   1      13.022 -24.062  12.988 -0.00 +0.00    +0.026    27.544
ATOM     15  C   UNL d   1      14.761 -23.208  17.341 -0.04 +0.01    +0.055    27.544
ATOM     16  C   UNL d   1      15.888 -22.959  20.317 -0.26 +0.00    +0.026    27.544
ATOM     17  C   UNL d   1      16.992 -20.661  17.985 -0.23 +0.03    +0.109    27.544
ATOM     18  C   UNL d   1      16.198 -24.294  12.821 -0.03 -0.00    +0.050    27.544
ATOM     19  C   UNL d   1      17.533 -23.827  12.717 -0.05 -0.00    +0.045    27.544
ATOM     20  C   UNL d   1      18.685 -19.690  16.523 -0.25 +0.00    +0.045    27.544
ATOM     21  C   UNL d   1      17.989 -19.629  17.663 -0.36 +0.02    +0.057    27.544
ATOM     22  C   UNL d   1      20.154 -19.115  14.871 -0.26 -0.00    -0.019    27.544
ATOM     23  C   UNL d   1      19.507 -20.392  14.509 -0.21 -0.00    +0.045    27.544
ATOM     24  C   UNL d   1      19.664 -18.705  16.065 -0.26 -0.00    -0.022    27.544
ATOM     25  C   UNL d   1      19.211 -22.340  13.016 -0.16 -0.01    +0.049    27.544
ATOM     26  C   UNL d   1      18.635 -24.318  12.034 -0.07 +0.00    -0.018    27.544
ATOM     27  C   UNL d   1      19.697 -23.385  12.243 -0.16 -0.00    +0.003    27.544
ATOM     28  C   UNL d   1      19.773 -21.090  13.395 -0.23 -0.01    +0.052    27.544
ATOM     29  C   UNL d   1      20.015 -17.486  16.849 -0.16 +0.01    +0.046    27.544
ATOM     30  C   UNL d   1      18.701 -25.577  11.238 -0.04 -0.01    +0.046    27.544
ATOM     31  H   UNL d   1      18.102 -21.497  15.659 +0.06 -0.01    +0.166    27.544
ATOM     32  H   UNL d   1      17.276 -22.077  13.873 +0.04 -0.00    +0.166    27.544
ATOM     33  C   UNL d   1      13.952 -26.279  13.786 -0.00 +0.01    +0.141    27.544
ATOM     34  C   UNL d   1      12.562 -26.835  13.932 +0.00 +0.02    +0.306    27.544
ATOM     35  O   UNL d   1      11.748 -26.984  13.036 +0.00 -0.02    -0.251    27.544
ATOM     36  O   UNL d   1      12.271 -27.176  15.200 +0.00 -0.03    -0.481    27.544
ATOM     37  H   UNL d   1      12.098 -26.323  15.652 +0.00 +0.02    +0.295    27.544
ATOM     38  C   UNL d   1      21.016 -23.501  11.698 -0.24 -0.01    +0.017    27.544
ATOM     39  C   UNL d   1      21.327 -23.409  10.396 -0.25 -0.02    +0.092    27.544
ATOM     40  C   UNL d   1      22.723 -23.529   9.968 -0.05 -0.09    +0.330    27.544
ATOM     41  O   UNL d   1      23.142 -23.734   8.845 -0.26 +0.05    -0.246    27.544
ATOM     42  O   UNL d   1      23.543 -23.369  11.019 -0.14 +0.13    -0.477    27.544
ATOM     43  H   UNL d   1      23.892 -22.460  10.907 -0.28 -0.14    +0.295    27.544
ATOM     44  C   UNL d   1      14.026 -21.331  19.792 -0.16 +0.07    +0.141    27.544
ATOM     45  C   UNL d   1      13.314 -20.587  18.693 -0.07 +0.31    +0.306    27.544
ATOM     46  O   UNL d   1      12.162 -20.752  18.333 -0.42 -0.26    -0.251    27.544
ATOM     47  O   UNL d   1      14.107 -19.686  18.085 -0.23 -0.61    -0.481    27.544
ATOM     48  H   UNL d   1      14.756 -20.225  17.585 +0.07 +0.21    +0.295    27.544
ATOM     49  C   UNL d   1      21.170 -18.414  14.019 -0.38 +0.01    +0.048    27.544
ATOM     50  C   UNL d   1      20.569 -17.213  13.289 -0.22 +0.03    +0.125    27.544
ATOM     51  C   UNL d   1      21.606 -16.152  13.055 -0.31 +0.06    +0.305    27.544
ATOM     52  O   UNL d   1      22.126 -15.841  11.998 -0.35 -0.07    -0.251    27.544
ATOM     53  O   UNL d   1      21.955 -15.528  14.198 -0.17 -0.03    -0.481    27.544
ATOM     54  H   UNL d   1      21.653 -14.605  14.067 -0.06 -0.03    +0.295    27.544
TER
ENDMDL
MODEL       78
USER    Run = 78
USER    Cluster Rank = 55
USER    Number of conformations in this cluster = 1
USER  
USER    RMSD from reference structure       = 39.876 A
USER  
USER    Estimated Free Energy of Binding    =   -4.22 kcal/mol  [=(1)+(2)+(3)-(4)]
USER    Estimated Inhibition Constant, Ki   =  803.41 uM (micromolar)  [Temperature = 298.15 K]
USER    
USER    (1) Final Intermolecular Energy     =   -8.10 kcal/mol
USER        vdW + Hbond + desolv Energy     =   -7.25 kcal/mol
USER        Electrostatic Energy            =   -0.85 kcal/mol
USER    (2) Final Total Internal Energy     =   -2.80 kcal/mol
USER    (3) Torsional Free Energy           =   +3.88 kcal/mol
USER    (4) Unbound System's Energy  [=(2)] =   -2.80 kcal/mol
USER    
USER    
USER  
USER    DPF = D:/Protein_go_brrr/autodock/final/1A3N/heme/dock.dpf
USER    NEWDPF move	heme_opt.pdbqt
USER    NEWDPF about	0.153000 0.018000 -0.028000
USER    NEWDPF tran0	38.524978 22.746589 5.529435
USER    NEWDPF axisangle0	-0.447644 -0.439315 0.778856 -160.090990
USER    NEWDPF quaternion0	-0.440905 -0.432701 0.767131 -0.172866
USER    NEWDPF dihe0	105.36 -84.42 -138.60 -151.51 -133.44 -89.07 128.50 -87.60 35.36 -12.25 174.77 -93.33 166.63 
USER  
USER                              x       y       z    vdW   Elec        q     RMS 
ATOM      1  O   UNL d   1      41.280  17.830   7.260 -0.20 -0.02    -0.289    39.876
ATOM      2  O   UNL d   1      40.731  24.577  10.511 -0.01 -0.06    -0.289    39.876
ATOM      3  N   UNL d   1      39.649  20.488   5.785 -0.11 -0.10    -0.247    39.876
ATOM      4  N   UNL d   1      39.692  22.574   7.900 -0.27 -0.20    -0.247    39.876
ATOM      5  N   UNL d   1      37.738  24.030   6.374 +0.04 -0.42    -0.354    39.876
ATOM      6  N   UNL d   1      37.685  21.851   4.194 -0.14 -0.13    -0.354    39.876
ATOM      7  C   UNL d   1      39.931  18.114   5.242 -0.24 +0.01    +0.084    39.876
ATOM      8  C   UNL d   1      41.497  22.464   9.544 -0.04 +0.02    +0.084    39.876
ATOM      9  C   UNL d   1      40.766  21.839   8.351 -0.11 +0.02    +0.058    39.876
ATOM     10  C   UNL d   1      39.338  19.481   4.887 -0.20 +0.01    +0.058    39.876
ATOM     11  C   UNL d   1      40.647  18.530   6.491 -0.16 +0.03    +0.193    39.876
ATOM     12  C   UNL d   1      40.421  19.996   6.699 -0.15 +0.03    +0.109    39.876
ATOM     13  C   UNL d   1      40.617  23.670   9.710 -0.03 +0.06    +0.193    39.876
ATOM     14  C   UNL d   1      38.848  17.096   5.608 -0.36 +0.00    +0.026    39.876
ATOM     15  C   UNL d   1      41.112  20.653   7.827 -0.15 +0.02    +0.055    39.876
ATOM     16  C   UNL d   1      42.906  22.930   9.165 -0.02 +0.00    +0.026    39.876
ATOM     17  C   UNL d   1      39.558  23.615   8.658 -0.08 +0.08    +0.109    39.876
ATOM     18  C   UNL d   1      38.655  19.675   3.743 -0.24 +0.01    +0.050    39.876
ATOM     19  C   UNL d   1      38.144  20.918   3.291 -0.18 +0.01    +0.045    39.876
ATOM     20  C   UNL d   1      37.719  24.757   7.535 +0.11 +0.05    +0.045    39.876
ATOM     21  C   UNL d   1      38.518  24.653   8.602 -0.03 +0.05    +0.057    39.876
ATOM     22  C   UNL d   1      36.051  25.508   6.168 -0.10 -0.01    -0.019    39.876
ATOM     23  C   UNL d   1      36.766  24.410   5.487 -0.13 +0.03    +0.045    39.876
ATOM     24  C   UNL d   1      36.620  25.709   7.379 -0.07 -0.01    -0.022    39.876
ATOM     25  C   UNL d   1      37.154  22.937   3.539 -0.17 +0.01    +0.049    39.876
ATOM     26  C   UNL d   1      37.939  21.428   2.018 -0.09 -0.00    -0.018    39.876
ATOM     27  C   UNL d   1      37.332  22.711   2.182 -0.15 +0.00    +0.003    39.876
ATOM     28  C   UNL d   1      36.476  23.961   4.256 -0.11 +0.01    +0.052    39.876
ATOM     29  C   UNL d   1      36.260  26.710   8.424 -0.06 +0.01    +0.046    39.876
ATOM     30  C   UNL d   1      38.288  20.767   0.728 -0.12 +0.00    +0.046    39.876
ATOM     31  H   UNL d   1      38.463  23.344   6.194 +0.02 +0.16    +0.166    39.876
ATOM     32  H   UNL d   1      37.707  21.716   5.198 +0.04 +0.12    +0.166    39.876
ATOM     33  C   UNL d   1      40.919  17.541   4.221 -0.14 +0.01    +0.141    39.876
ATOM     34  C   UNL d   1      42.312  18.082   4.396 -0.04 +0.01    +0.306    39.876
ATOM     35  O   UNL d   1      42.716  19.168   4.016 -0.01 -0.01    -0.251    39.876
ATOM     36  O   UNL d   1      43.123  17.227   5.045 -0.02 -0.01    -0.481    39.876
ATOM     37  H   UNL d   1      42.865  17.310   5.987 +0.09 +0.01    +0.295    39.876
ATOM     38  C   UNL d   1      36.936  23.579   1.113 -0.17 -0.00    +0.017    39.876
ATOM     39  C   UNL d   1      35.699  24.062   0.926 -0.22 -0.01    +0.092    39.876
ATOM     40  C   UNL d   1      35.428  24.959  -0.201 -0.10 -0.04    +0.330    39.876
ATOM     41  O   UNL d   1      35.485  26.173  -0.215 -0.05 +0.02    -0.246    39.876
ATOM     42  O   UNL d   1      35.097  24.246  -1.289 -0.06 +0.08    -0.477    39.876
ATOM     43  H   UNL d   1      34.118  24.238  -1.275 -0.34 -0.12    +0.295    39.876
ATOM     44  C   UNL d   1      41.517  21.619  10.822 -0.08 +0.02    +0.141    39.876
ATOM     45  C   UNL d   1      40.144  21.350  11.378 -0.16 +0.07    +0.306    39.876
ATOM     46  O   UNL d   1      39.385  20.459  11.039 -0.32 -0.09    -0.251    39.876
ATOM     47  O   UNL d   1      39.787  22.241  12.320 -0.07 -0.06    -0.481    39.876
ATOM     48  H   UNL d   1      40.107  23.104  11.979 +0.06 +0.05    +0.295    39.876
ATOM     49  C   UNL d   1      34.879  26.240   5.583 -0.11 +0.00    +0.048    39.876
ATOM     50  C   UNL d   1      33.568  25.487   5.807 -0.26 -0.02    +0.125    39.876
ATOM     51  C   UNL d   1      33.818  24.158   6.463 -0.31 +0.13    +0.305    39.876
ATOM     52  O   UNL d   1      33.966  23.078   5.920 -0.87 -0.17    -0.251    39.876
ATOM     53  O   UNL d   1      33.857  24.259   7.807 -0.50 -0.16    -0.481    39.876
ATOM     54  H   UNL d   1      33.283  25.028   8.005 -0.06 -0.37    +0.295    39.876
TER
ENDMDL
MODEL       57
USER    Run = 57
USER    Cluster Rank = 56
USER    Number of conformations in this cluster = 2
USER  
USER    RMSD from reference structure       = 15.848 A
USER  
USER    Estimated Free Energy of Binding    =   -4.05 kcal/mol  [=(1)+(2)+(3)-(4)]
USER    Estimated Inhibition Constant, Ki   =    1.08 mM (millimolar)  [Temperature = 298.15 K]
USER    
USER    (1) Final Intermolecular Energy     =   -7.93 kcal/mol
USER        vdW + Hbond + desolv Energy     =   -7.57 kcal/mol
USER        Electrostatic Energy            =   -0.35 kcal/mol
USER    (2) Final Total Internal Energy     =   -2.68 kcal/mol
USER    (3) Torsional Free Energy           =   +3.88 kcal/mol
USER    (4) Unbound System's Energy  [=(2)] =   -2.68 kcal/mol
USER    
USER    
USER  
USER    DPF = D:/Protein_go_brrr/autodock/final/1A3N/heme/dock.dpf
USER    NEWDPF move	heme_opt.pdbqt
USER    NEWDPF about	0.153000 0.018000 -0.028000
USER    NEWDPF tran0	8.889129 15.032730 -7.272489
USER    NEWDPF axisangle0	-0.416642 0.549686 -0.724055 -121.900039
USER    NEWDPF quaternion0	-0.364227 0.480533 -0.632966 -0.485572
USER    NEWDPF dihe0	-112.19 -25.75 -158.21 75.46 35.32 164.60 135.68 101.79 131.22 -8.85 -170.16 -7.68 1.48 
USER  
USER                              x       y       z    vdW   Elec        q     RMS 
ATOM      1  O   UNL d   1      11.414  20.168  -8.689 -0.02 +0.01    -0.289    15.848
ATOM      2  O   UNL d   1       6.841  18.321  -3.026 -0.02 +0.03    -0.289    15.848
ATOM      3  N   UNL d   1      10.056  17.018  -8.336 -0.12 -0.01    -0.247    15.848
ATOM      4  N   UNL d   1       8.674  17.160  -5.710 -0.06 +0.02    -0.247    15.848
ATOM      5  N   UNL d   1       8.455  14.294  -5.774 -0.10 +0.04    -0.354    15.848
ATOM      6  N   UNL d   1       9.907  14.154  -8.490 -0.11 -0.06    -0.354    15.848
ATOM      7  C   UNL d   1      11.698  18.034  -9.846 -0.07 +0.01    +0.084    15.848
ATOM      8  C   UNL d   1       7.930  19.362  -4.956 -0.04 -0.00    +0.084    15.848
ATOM      9  C   UNL d   1       8.688  18.510  -5.979 -0.10 -0.00    +0.058    15.848
ATOM     10  C   UNL d   1      10.912  16.797  -9.403 -0.14 +0.01    +0.058    15.848
ATOM     11  C   UNL d   1      11.122  18.998  -8.853 -0.05 +0.00    +0.193    15.848
ATOM     12  C   UNL d   1      10.121  18.268  -8.012 -0.11 +0.00    +0.109    15.848
ATOM     13  C   UNL d   1       7.514  18.249  -4.036 -0.04 -0.01    +0.193    15.848
ATOM     14  C   UNL d   1      13.199  17.886  -9.580 -0.15 +0.00    +0.026    15.848
ATOM     15  C   UNL d   1       9.351  19.042  -7.018 -0.10 -0.00    +0.055    15.848
ATOM     16  C   UNL d   1       6.674  19.994  -5.562 -0.01 -0.00    +0.026    15.848
ATOM     17  C   UNL d   1       8.034  16.967  -4.601 -0.06 -0.01    +0.109    15.848
ATOM     18  C   UNL d   1      10.999  15.631 -10.071 -0.20 +0.01    +0.050    15.848
ATOM     19  C   UNL d   1      10.248  14.462  -9.787 -0.20 +0.01    +0.045    15.848
ATOM     20  C   UNL d   1       8.053  14.532  -4.486 -0.19 -0.01    +0.045    15.848
ATOM     21  C   UNL d   1       7.816  15.702  -3.885 -0.18 -0.01    +0.057    15.848
ATOM     22  C   UNL d   1       8.248  12.277  -4.794 -0.39 +0.00    -0.019    15.848
ATOM     23  C   UNL d   1       8.600  12.961  -6.054 -0.30 -0.00    +0.045    15.848
ATOM     24  C   UNL d   1       7.923  13.212  -3.870 -0.33 +0.00    -0.022    15.848
ATOM     25  C   UNL d   1       9.264  12.939  -8.435 -0.12 +0.00    +0.049    15.848
ATOM     26  C   UNL d   1       9.783  13.440 -10.600 -0.16 -0.00    -0.018    15.848
ATOM     27  C   UNL d   1       9.145  12.490  -9.743 -0.19 +0.00    +0.003    15.848
ATOM     28  C   UNL d   1       8.953  12.334  -7.186 -0.26 +0.00    +0.052    15.848
ATOM     29  C   UNL d   1       7.490  13.016  -2.457 -0.38 -0.01    +0.046    15.848
ATOM     30  C   UNL d   1       9.919  13.349 -12.082 -0.10 +0.01    +0.046    15.848
ATOM     31  H   UNL d   1       8.546  15.049  -6.445 +0.03 -0.01    +0.166    15.848
ATOM     32  H   UNL d   1      10.143  14.736  -7.695 +0.05 +0.02    +0.166    15.848
ATOM     33  C   UNL d   1      11.425  18.508 -11.277 -0.02 +0.02    +0.141    15.848
ATOM     34  C   UNL d   1      12.209  19.741 -11.638 +0.01 +0.02    +0.306    15.848
ATOM     35  O   UNL d   1      13.324  19.767 -12.131 -0.00 -0.02    -0.251    15.848
ATOM     36  O   UNL d   1      11.545  20.877 -11.361 +0.00 -0.02    -0.481    15.848
ATOM     37  H   UNL d   1      11.464  20.884 -10.384 +0.01 +0.00    +0.295    15.848
ATOM     38  C   UNL d   1       8.538  11.268 -10.174 -0.20 +0.00    +0.017    15.848
ATOM     39  C   UNL d   1       7.510  10.657  -9.564 -0.19 +0.00    +0.092    15.848
ATOM     40  C   UNL d   1       6.967   9.414 -10.119 -0.12 -0.10    +0.330    15.848
ATOM     41  O   UNL d   1       6.261   8.597  -9.559 -0.66 +0.07    -0.246    15.848
ATOM     42  O   UNL d   1       7.351   9.272 -11.397 -0.06 +0.41    -0.477    15.848
ATOM     43  H   UNL d   1       7.329   8.303 -11.542 -0.38 -0.75    +0.295    15.848
ATOM     44  C   UNL d   1       8.771  20.404  -4.211 -0.04 -0.00    +0.141    15.848
ATOM     45  C   UNL d   1       9.924  19.804  -3.451 -0.06 +0.00    +0.306    15.848
ATOM     46  O   UNL d   1      11.059  19.640  -3.863 -0.22 -0.01    -0.251    15.848
ATOM     47  O   UNL d   1       9.576  19.415  -2.211 -0.02 +0.01    -0.481    15.848
ATOM     48  H   UNL d   1       8.601  19.312  -2.248 +0.07 -0.02    +0.295    15.848
ATOM     49  C   UNL d   1       8.275  10.788  -4.607 -0.48 +0.01    +0.048    15.848
ATOM     50  C   UNL d   1       7.005  10.125  -5.139 -0.41 +0.02    +0.125    15.848
ATOM     51  C   UNL d   1       6.184  11.099  -5.936 -0.09 -0.03    +0.305    15.848
ATOM     52  O   UNL d   1       6.184  11.256  -7.145 -0.16 +0.02    -0.251    15.848
ATOM     53  O   UNL d   1       5.393  11.855  -5.149 -0.08 +0.09    -0.481    15.848
ATOM     54  H   UNL d   1       4.497  11.480  -5.282 -0.28 -0.12    +0.295    15.848
TER
ENDMDL
MODEL        2
USER    Run = 2
USER    Cluster Rank = 57
USER    Number of conformations in this cluster = 1
USER  
USER    RMSD from reference structure       = 30.344 A
USER  
USER    Estimated Free Energy of Binding    =   -3.93 kcal/mol  [=(1)+(2)+(3)-(4)]
USER    Estimated Inhibition Constant, Ki   =    1.33 mM (millimolar)  [Temperature = 298.15 K]
USER    
USER    (1) Final Intermolecular Energy     =   -7.80 kcal/mol
USER        vdW + Hbond + desolv Energy     =   -7.35 kcal/mol
USER        Electrostatic Energy            =   -0.45 kcal/mol
USER    (2) Final Total Internal Energy     =   -3.87 kcal/mol
USER    (3) Torsional Free Energy           =   +3.88 kcal/mol
USER    (4) Unbound System's Energy  [=(2)] =   -3.87 kcal/mol
USER    
USER    
USER  
USER    DPF = D:/Protein_go_brrr/autodock/final/1A3N/heme/dock.dpf
USER    NEWDPF move	heme_opt.pdbqt
USER    NEWDPF about	0.153000 0.018000 -0.028000
USER    NEWDPF tran0	21.625651 22.210216 14.113269
USER    NEWDPF axisangle0	0.944357 0.057332 -0.323888 164.667940
USER    NEWDPF quaternion0	0.935916 0.056820 -0.320994 0.133399
USER    NEWDPF dihe0	113.44 150.47 133.54 -153.36 179.90 17.27 -51.22 -103.88 -24.52 -149.44 -95.64 -31.95 -14.15 
USER  
USER                              x       y       z    vdW   Elec        q     RMS 
ATOM      1  O   UNL d   1      16.843  19.653  16.425 -0.19 -0.10    -0.289    30.344
ATOM      2  O   UNL d   1      20.406  26.006  18.254 -0.01 -0.05    -0.289    30.344
ATOM      3  N   UNL d   1      19.729  20.696  14.850 -0.04 -0.12    -0.247    30.344
ATOM      4  N   UNL d   1      20.206  23.389  16.013 -0.04 -0.07    -0.247    30.344
ATOM      5  N   UNL d   1      22.120  23.852  13.918 -0.05 -0.10    -0.354    30.344
ATOM      6  N   UNL d   1      21.604  21.065  12.707 -0.05 -0.16    -0.354    30.344
ATOM      7  C   UNL d   1      18.135  18.866  14.505 -0.13 +0.03    +0.084    30.344
ATOM      8  C   UNL d   1      19.306  23.819  18.243 -0.09 +0.02    +0.084    30.344
ATOM      9  C   UNL d   1      19.431  22.886  17.034 -0.10 +0.02    +0.058    30.344
ATOM     10  C   UNL d   1      19.406  19.601  14.067 -0.10 +0.03    +0.058    30.344
ATOM     11  C   UNL d   1      17.807  19.730  15.686 -0.11 +0.07    +0.193    30.344
ATOM     12  C   UNL d   1      18.861  20.787  15.805 -0.12 +0.04    +0.109    30.344
ATOM     13  C   UNL d   1      20.123  24.959  17.704 -0.03 +0.04    +0.193    30.344
ATOM     14  C   UNL d   1      17.013  18.993  13.472 -0.13 +0.01    +0.026    30.344
ATOM     15  C   UNL d   1      18.797  21.706  16.959 -0.19 +0.02    +0.055    30.344
ATOM     16  C   UNL d   1      20.012  23.247  19.477 -0.15 +0.01    +0.026    30.344
ATOM     17  C   UNL d   1      20.604  24.576  16.343 -0.05 +0.02    +0.109    30.344
ATOM     18  C   UNL d   1      20.171  19.142  13.059 -0.12 +0.02    +0.050    30.344
ATOM     19  C   UNL d   1      21.403  19.705  12.640 -0.15 +0.02    +0.045    30.344
ATOM     20  C   UNL d   1      22.039  25.115  14.446 -0.06 +0.01    +0.045    30.344
ATOM     21  C   UNL d   1      21.400  25.522  15.547 -0.05 +0.01    +0.057    30.344
ATOM     22  C   UNL d   1      23.310  25.189  12.550 -0.05 -0.00    -0.019    30.344
ATOM     23  C   UNL d   1      22.866  23.798  12.771 -0.09 +0.01    +0.045    30.344
ATOM     24  C   UNL d   1      22.818  25.963  13.546 -0.03 -0.00    -0.022    30.344
ATOM     25  C   UNL d   1      22.825  21.401  12.168 -0.13 +0.02    +0.049    30.344
ATOM     26  C   UNL d   1      22.537  19.138  12.078 -0.24 -0.01    -0.018    30.344
ATOM     27  C   UNL d   1      23.439  20.212  11.800 -0.25 +0.00    +0.003    30.344
ATOM     28  C   UNL d   1      23.190  22.762  11.982 -0.13 +0.02    +0.052    30.344
ATOM     29  C   UNL d   1      23.000  27.426  13.766 -0.01 +0.00    +0.046    30.344
ATOM     30  C   UNL d   1      22.772  17.689  11.816 -0.25 +0.02    +0.046    30.344
ATOM     31  H   UNL d   1      21.722  23.054  14.400 +0.02 +0.06    +0.166    30.344
ATOM     32  H   UNL d   1      20.917  21.716  13.068 +0.02 +0.06    +0.166    30.344
ATOM     33  C   UNL d   1      18.335  17.411  14.942 -0.18 +0.05    +0.141    30.344
ATOM     34  C   UNL d   1      19.744  17.129  15.390 -0.13 +0.20    +0.306    30.344
ATOM     35  O   UNL d   1      20.472  16.249  14.965 -0.11 -0.17    -0.251    30.344
ATOM     36  O   UNL d   1      20.162  17.974  16.349 -0.40 -0.50    -0.481    30.344
ATOM     37  H   UNL d   1      20.247  18.840  15.896 +0.09 +0.32    +0.295    30.344
ATOM     38  C   UNL d   1      24.731  20.070  11.199 -0.40 +0.01    +0.017    30.344
ATOM     39  C   UNL d   1      25.615  21.063  11.019 -0.38 +0.04    +0.092    30.344
ATOM     40  C   UNL d   1      26.914  20.781  10.404 -0.28 +0.12    +0.330    30.344
ATOM     41  O   UNL d   1      27.244  19.788   9.783 -0.36 -0.05    -0.246    30.344
ATOM     42  O   UNL d   1      27.754  21.808  10.607 -0.11 -0.33    -0.477    30.344
ATOM     43  H   UNL d   1      27.163  22.588  10.657 +0.14 +0.20    +0.295    30.344
ATOM     44  C   UNL d   1      17.882  24.275  18.581 -0.13 +0.04    +0.141    30.344
ATOM     45  C   UNL d   1      17.741  24.789  19.989 -0.14 +0.12    +0.306    30.344
ATOM     46  O   UNL d   1      17.369  24.154  20.961 -0.41 -0.20    -0.251    30.344
ATOM     47  O   UNL d   1      18.053  26.093  20.094 -0.02 -0.11    -0.481    30.344
ATOM     48  H   UNL d   1      18.902  26.186  19.611 +0.06 +0.06    +0.295    30.344
ATOM     49  C   UNL d   1      24.153  25.630  11.389 -0.06 +0.00    +0.048    30.344
ATOM     50  C   UNL d   1      25.632  25.722  11.763 -0.09 +0.03    +0.125    30.344
ATOM     51  C   UNL d   1      26.305  24.386  11.627 -0.14 +0.17    +0.305    30.344
ATOM     52  O   UNL d   1      26.718  23.668  12.519 -0.73 -0.26    -0.251    30.344
ATOM     53  O   UNL d   1      26.436  24.017  10.337 -0.12 -0.13    -0.481    30.344
ATOM     54  H   UNL d   1      26.455  24.866   9.847 -0.35 -0.03    +0.295    30.344
TER
ENDMDL
MODEL        5
USER    Run = 5
USER    Cluster Rank = 58
USER    Number of conformations in this cluster = 1
USER  
USER    RMSD from reference structure       = 10.199 A
USER  
USER    Estimated Free Energy of Binding    =   -3.89 kcal/mol  [=(1)+(2)+(3)-(4)]
USER    Estimated Inhibition Constant, Ki   =    1.41 mM (millimolar)  [Temperature = 298.15 K]
USER    
USER    (1) Final Intermolecular Energy     =   -7.77 kcal/mol
USER        vdW + Hbond + desolv Energy     =   -7.58 kcal/mol
USER        Electrostatic Energy            =   -0.18 kcal/mol
USER    (2) Final Total Internal Energy     =   -3.88 kcal/mol
USER    (3) Torsional Free Energy           =   +3.88 kcal/mol
USER    (4) Unbound System's Energy  [=(2)] =   -3.88 kcal/mol
USER    
USER    
USER  
USER    DPF = D:/Protein_go_brrr/autodock/final/1A3N/heme/dock.dpf
USER    NEWDPF move	heme_opt.pdbqt
USER    NEWDPF about	0.153000 0.018000 -0.028000
USER    NEWDPF tran0	-1.481783 -10.035049 -6.861151
USER    NEWDPF axisangle0	-0.839807 -0.369296 -0.397925 105.745245
USER    NEWDPF quaternion0	-0.669575 -0.294438 -0.317264 0.603589
USER    NEWDPF dihe0	-155.10 -165.59 -160.31 18.94 -93.70 57.53 135.27 148.16 11.83 -10.94 -54.18 -90.87 12.13 
USER  
USER                              x       y       z    vdW   Elec        q     RMS 
ATOM      1  O   UNL d   1      -4.466 -14.965  -5.615 -0.01 +0.04    -0.289    10.199
ATOM      2  O   UNL d   1      -4.430 -10.644 -11.757 -0.01 -0.08    -0.289    10.199
ATOM      3  N   UNL d   1      -2.630 -12.053  -5.841 -0.08 -0.02    -0.247    10.199
ATOM      4  N   UNL d   1      -3.000 -11.230  -8.672 -0.07 -0.07    -0.247    10.199
ATOM      5  N   UNL d   1      -0.835  -9.371  -8.318 -0.04 -0.22    -0.354    10.199
ATOM      6  N   UNL d   1      -0.445 -10.245  -5.387 -0.10 -0.06    -0.354    10.199
ATOM      7  C   UNL d   1      -2.822 -13.853  -4.188 -0.12 -0.01    +0.084    10.199
ATOM      8  C   UNL d   1      -5.036 -11.979  -9.797 -0.03 +0.01    +0.084    10.199
ATOM      9  C   UNL d   1      -4.129 -12.010  -8.562 -0.06 +0.01    +0.058    10.199
ATOM     10  C   UNL d   1      -2.183 -12.530  -4.620 -0.18 -0.00    +0.058    10.199
ATOM     11  C   UNL d   1      -3.722 -14.031  -5.373 -0.03 -0.02    +0.193    10.199
ATOM     12  C   UNL d   1      -3.533 -12.863  -6.290 -0.07 +0.00    +0.109    10.199
ATOM     13  C   UNL d   1      -4.194 -11.065 -10.642 -0.03 +0.05    +0.193    10.199
ATOM     14  C   UNL d   1      -1.807 -14.999  -4.161 -0.14 -0.00    +0.026    10.199
ATOM     15  C   UNL d   1      -4.390 -12.774  -7.490 -0.06 +0.00    +0.055    10.199
ATOM     16  C   UNL d   1      -6.371 -11.286  -9.503 -0.04 +0.01    +0.026    10.199
ATOM     17  C   UNL d   1      -2.985 -10.690  -9.848 -0.07 +0.04    +0.109    10.199
ATOM     18  C   UNL d   1      -1.332 -11.865  -3.816 -0.27 +0.00    +0.050    10.199
ATOM     19  C   UNL d   1      -0.759 -10.598  -4.094 -0.31 +0.00    +0.045    10.199
ATOM     20  C   UNL d   1      -0.997  -9.289  -9.676 -0.09 +0.03    +0.045    10.199
ATOM     21  C   UNL d   1      -1.950  -9.830 -10.441 -0.08 +0.03    +0.057    10.199
ATOM     22  C   UNL d   1       0.862  -8.102  -9.080 -0.18 -0.01    -0.019    10.199
ATOM     23  C   UNL d   1       0.261  -8.687  -7.865 -0.19 +0.02    +0.045    10.199
ATOM     24  C   UNL d   1       0.112  -8.461 -10.149 -0.12 -0.01    -0.022    10.199
ATOM     25  C   UNL d   1       0.179  -9.020  -5.416 -0.29 +0.01    +0.049    10.199
ATOM     26  C   UNL d   1      -0.361  -9.559  -3.266 -0.43 -0.00    -0.018    10.199
ATOM     27  C   UNL d   1       0.212  -8.558  -4.108 -0.41 +0.00    +0.003    10.199
ATOM     28  C   UNL d   1       0.737  -8.515  -6.622 -0.30 +0.02    +0.052    10.199
ATOM     29  C   UNL d   1       0.306  -8.109 -11.585 -0.07 +0.02    +0.046    10.199
ATOM     30  C   UNL d   1      -0.506  -9.498  -1.783 -0.47 +0.00    +0.046    10.199
ATOM     31  H   UNL d   1      -1.524  -9.833  -7.733 +0.03 +0.09    +0.166    10.199
ATOM     32  H   UNL d   1      -0.622 -10.840  -6.188 +0.06 +0.03    +0.166    10.199
ATOM     33  C   UNL d   1      -3.641 -13.796  -2.894 -0.18 -0.05    +0.141    10.199
ATOM     34  C   UNL d   1      -4.784 -12.821  -2.974 -0.19 -0.13    +0.306    10.199
ATOM     35  O   UNL d   1      -4.760 -11.725  -3.509 -0.28 +0.07    -0.251    10.199
ATOM     36  O   UNL d   1      -5.899 -13.280  -2.379 -0.14 +0.45    -0.481    10.199
ATOM     37  H   UNL d   1      -5.580 -13.957  -1.745 -0.34 -0.53    +0.295    10.199
ATOM     38  C   UNL d   1       0.767  -7.317  -3.656 -0.34 +0.00    +0.017    10.199
ATOM     39  C   UNL d   1       2.003  -6.874  -3.933 -0.21 +0.01    +0.092    10.199
ATOM     40  C   UNL d   1       2.444  -5.574  -3.421 -0.15 +0.05    +0.330    10.199
ATOM     41  O   UNL d   1       2.456  -5.195  -2.266 -0.32 -0.02    -0.246    10.199
ATOM     42  O   UNL d   1       2.869  -4.800  -4.432 -0.66 -0.15    -0.477    10.199
ATOM     43  H   UNL d   1       2.537  -5.256  -5.233 +0.17 +0.12    +0.295    10.199
ATOM     44  C   UNL d   1      -5.252 -13.326 -10.493 -0.01 +0.01    +0.141    10.199
ATOM     45  C   UNL d   1      -3.977 -13.943 -11.003 -0.00 +0.02    +0.306    10.199
ATOM     46  O   UNL d   1      -3.252 -14.716 -10.401 -0.00 -0.01    -0.251    10.199
ATOM     47  O   UNL d   1      -3.665 -13.528 -12.244 +0.00 -0.05    -0.481    10.199
ATOM     48  H   UNL d   1      -4.185 -12.705 -12.368 +0.01 +0.04    +0.295    10.199
ATOM     49  C   UNL d   1       2.109  -7.268  -9.085 -0.20 +0.02    +0.048    10.199
ATOM     50  C   UNL d   1       1.873  -5.888  -8.471 -0.19 +0.06    +0.125    10.199
ATOM     51  C   UNL d   1       2.868  -5.610  -7.380 -0.19 +0.08    +0.305    10.199
ATOM     52  O   UNL d   1       3.412  -4.550  -7.123 -0.25 -0.05    -0.251    10.199
ATOM     53  O   UNL d   1       3.143  -6.712  -6.655 -0.04 -0.10    -0.481    10.199
ATOM     54  H   UNL d   1       3.535  -6.362  -5.828 +0.16 +0.04    +0.295    10.199
TER
ENDMDL
MODEL        1
USER    Run = 1
USER    Cluster Rank = 59
USER    Number of conformations in this cluster = 1
USER  
USER    RMSD from reference structure       = 21.617 A
USER  
USER    Estimated Free Energy of Binding    =   -3.77 kcal/mol  [=(1)+(2)+(3)-(4)]
USER    Estimated Inhibition Constant, Ki   =    1.74 mM (millimolar)  [Temperature = 298.15 K]
USER    
USER    (1) Final Intermolecular Energy     =   -7.64 kcal/mol
USER        vdW + Hbond + desolv Energy     =   -7.51 kcal/mol
USER        Electrostatic Energy            =   -0.14 kcal/mol
USER    (2) Final Total Internal Energy     =   -4.31 kcal/mol
USER    (3) Torsional Free Energy           =   +3.88 kcal/mol
USER    (4) Unbound System's Energy  [=(2)] =   -4.31 kcal/mol
USER    
USER    
USER  
USER    DPF = D:/Protein_go_brrr/autodock/final/1A3N/heme/dock.dpf
USER    NEWDPF move	heme_opt.pdbqt
USER    NEWDPF about	0.153000 0.018000 -0.028000
USER    NEWDPF tran0	22.732171 9.600793 -9.524559
USER    NEWDPF axisangle0	-0.863058 -0.415858 -0.286695 149.891509
USER    NEWDPF quaternion0	-0.833438 -0.401586 -0.276856 0.259733
USER    NEWDPF dihe0	-129.05 -166.05 -157.19 -67.74 66.15 62.31 -70.35 -111.86 29.58 -146.63 -99.41 -66.03 -11.66 
USER  
USER                              x       y       z    vdW   Elec        q     RMS 
ATOM      1  O   UNL d   1      21.113   3.985 -10.298 -0.50 -0.11    -0.289    21.617
ATOM      2  O   UNL d   1      17.734  10.402 -12.248 -0.23 -0.27    -0.289    21.617
ATOM      3  N   UNL d   1      22.394   7.087  -9.503 -0.10 -0.12    -0.247    21.617
ATOM      4  N   UNL d   1      20.576   8.961 -10.922 -0.10 -0.10    -0.247    21.617
ATOM      5  N   UNL d   1      22.499  11.044 -10.443 -0.04 -0.14    -0.354    21.617
ATOM      6  N   UNL d   1      24.388   9.089  -8.989 -0.11 -0.31    -0.354    21.617
ATOM      7  C   UNL d   1      23.185   4.779  -9.273 -0.26 +0.04    +0.084    21.617
ATOM      8  C   UNL d   1      18.301   8.189 -11.368 -0.18 +0.03    +0.084    21.617
ATOM      9  C   UNL d   1      19.712   7.891 -10.852 -0.16 +0.02    +0.058    21.617
ATOM     10  C   UNL d   1      23.431   6.277  -9.072 -0.21 +0.04    +0.058    21.617
ATOM     11  C   UNL d   1      21.817   4.884  -9.877 -0.14 +0.07    +0.193    21.617
ATOM     12  C   UNL d   1      21.439   6.332  -9.939 -0.12 +0.04    +0.109    21.617
ATOM     13  C   UNL d   1      18.534   9.615 -11.780 -0.12 +0.11    +0.193    21.617
ATOM     14  C   UNL d   1      24.138   4.174 -10.307 -0.28 +0.01    +0.026    21.617
ATOM     15  C   UNL d   1      20.085   6.677 -10.417 -0.07 +0.02    +0.055    21.617
ATOM     16  C   UNL d   1      17.266   8.165 -10.239 -0.30 +0.01    +0.026    21.617
ATOM     17  C   UNL d   1      19.954   9.958 -11.464 +0.06 +0.05    +0.109    21.617
ATOM     18  C   UNL d   1      24.532   6.731  -8.444 -0.27 +0.04    +0.050    21.617
ATOM     19  C   UNL d   1      24.804   8.089  -8.139 -0.26 +0.04    +0.045    21.617
ATOM     20  C   UNL d   1      21.660  11.693 -11.310 -0.11 +0.02    +0.045    21.617
ATOM     21  C   UNL d   1      20.484  11.288 -11.800 -0.11 +0.02    +0.057    21.617
ATOM     22  C   UNL d   1      23.486  13.011 -10.924 -0.08 -0.01    -0.019    21.617
ATOM     23  C   UNL d   1      23.629  11.761 -10.151 -0.12 +0.02    +0.045    21.617
ATOM     24  C   UNL d   1      22.318  12.965 -11.607 -0.08 -0.01    -0.022    21.617
ATOM     25  C   UNL d   1      24.834  10.314  -8.549 -0.22 +0.03    +0.049    21.617
ATOM     26  C   UNL d   1      25.506   8.683  -7.101 -0.35 -0.01    -0.018    21.617
ATOM     27  C   UNL d   1      25.505  10.089  -7.355 -0.30 +0.00    +0.003    21.617
ATOM     28  C   UNL d   1      24.664  11.480  -9.344 -0.18 +0.02    +0.052    21.617
ATOM     29  C   UNL d   1      21.726  13.991 -12.513 -0.04 +0.01    +0.046    21.617
ATOM     30  C   UNL d   1      26.138   7.989  -5.942 -0.29 +0.02    +0.046    21.617
ATOM     31  H   UNL d   1      22.237  10.160 -10.020 +0.04 +0.07    +0.166    21.617
ATOM     32  H   UNL d   1      23.862   8.920  -9.838 +0.04 +0.15    +0.166    21.617
ATOM     33  C   UNL d   1      23.144   3.942  -7.990 -0.38 +0.03    +0.141    21.617
ATOM     34  C   UNL d   1      21.843   4.085  -7.247 -0.27 +0.06    +0.306    21.617
ATOM     35  O   UNL d   1      21.063   3.186  -6.980 -0.34 -0.03    -0.251    21.617
ATOM     36  O   UNL d   1      21.593   5.354  -6.878 -0.09 -0.11    -0.481    21.617
ATOM     37  H   UNL d   1      21.751   5.882  -7.689 +0.14 +0.08    +0.295    21.617
ATOM     38  C   UNL d   1      26.136  11.077  -6.533 -0.25 +0.00    +0.017    21.617
ATOM     39  C   UNL d   1      26.632  12.245  -6.968 -0.23 +0.02    +0.092    21.617
ATOM     40  C   UNL d   1      27.241  13.179  -6.018 -0.15 +0.05    +0.330    21.617
ATOM     41  O   UNL d   1      28.204  12.988  -5.300 -0.26 -0.02    -0.246    21.617
ATOM     42  O   UNL d   1      26.581  14.348  -6.033 -0.07 -0.07    -0.477    21.617
ATOM     43  H   UNL d   1      25.753  14.144  -6.514 +0.12 +0.05    +0.295    21.617
ATOM     44  C   UNL d   1      17.841   7.342 -12.559 -0.08 +0.05    +0.141    21.617
ATOM     45  C   UNL d   1      16.352   7.386 -12.780 -0.04 +0.11    +0.306    21.617
ATOM     46  O   UNL d   1      15.573   6.457 -12.666 -0.03 -0.07    -0.251    21.617
ATOM     47  O   UNL d   1      15.925   8.603 -13.163 -0.04 -0.27    -0.481    21.617
ATOM     48  H   UNL d   1      16.720   9.039 -13.537 +0.05 +0.17    +0.295    21.617
ATOM     49  C   UNL d   1      24.501  14.116 -10.935 -0.05 +0.01    +0.048    21.617
ATOM     50  C   UNL d   1      24.164  15.207  -9.919 -0.09 +0.02    +0.125    21.617
ATOM     51  C   UNL d   1      24.614  14.814  -8.540 -0.11 +0.06    +0.305    21.617
ATOM     52  O   UNL d   1      23.921  14.647  -7.552 -0.24 -0.05    -0.251    21.617
ATOM     53  O   UNL d   1      25.951  14.660  -8.471 -0.01 -0.08    -0.481    21.617
ATOM     54  H   UNL d   1      26.248  15.401  -7.903 +0.07 +0.04    +0.295    21.617
TER
ENDMDL
MODEL        6
USER    Run = 6
USER    Cluster Rank = 60
USER    Number of conformations in this cluster = 1
USER  
USER    RMSD from reference structure       = 14.373 A
USER  
USER    Estimated Free Energy of Binding    =   -3.60 kcal/mol  [=(1)+(2)+(3)-(4)]
USER    Estimated Inhibition Constant, Ki   =    2.30 mM (millimolar)  [Temperature = 298.15 K]
USER    
USER    (1) Final Intermolecular Energy     =   -7.48 kcal/mol
USER        vdW + Hbond + desolv Energy     =   -7.46 kcal/mol
USER        Electrostatic Energy            =   -0.02 kcal/mol
USER    (2) Final Total Internal Energy     =   -4.23 kcal/mol
USER    (3) Torsional Free Energy           =   +3.88 kcal/mol
USER    (4) Unbound System's Energy  [=(2)] =   -4.23 kcal/mol
USER    
USER    
USER  
USER    DPF = D:/Protein_go_brrr/autodock/final/1A3N/heme/dock.dpf
USER    NEWDPF move	heme_opt.pdbqt
USER    NEWDPF about	0.153000 0.018000 -0.028000
USER    NEWDPF tran0	2.275479 16.407360 -5.969936
USER    NEWDPF axisangle0	-0.863750 -0.195553 0.464430 149.553563
USER    NEWDPF quaternion0	-0.833441 -0.188691 0.448133 0.262580
USER    NEWDPF dihe0	179.21 141.23 113.42 39.65 -149.37 -35.38 -47.13 180.00 33.03 -131.62 70.15 -22.74 121.97 
USER  
USER                              x       y       z    vdW   Elec        q     RMS 
ATOM      1  O   UNL d   1      -0.173  14.234  -1.067 -0.20 +0.01    -0.289    14.373
ATOM      2  O   UNL d   1      -0.767  20.988  -4.296 -0.02 +0.01    -0.289    14.373
ATOM      3  N   UNL d   1       1.581  15.109  -3.905 -0.17 +0.06    -0.247    14.373
ATOM      4  N   UNL d   1       0.487  17.786  -4.586 -0.14 +0.05    -0.247    14.373
ATOM      5  N   UNL d   1       1.753  17.546  -7.157 +0.01 +0.11    -0.354    14.373
ATOM      6  N   UNL d   1       2.868  14.761  -6.449 -0.10 +0.11    -0.354    14.373
ATOM      7  C   UNL d   1       1.289  13.041  -2.621 -0.43 -0.01    +0.084    14.373
ATOM      8  C   UNL d   1      -0.442  19.112  -2.757 -0.10 -0.00    +0.084    14.373
ATOM      9  C   UNL d   1       0.156  17.791  -3.250 -0.19 -0.00    +0.058    14.373
ATOM     10  C   UNL d   1       1.913  13.767  -3.817 -0.34 -0.01    +0.058    14.373
ATOM     11  C   UNL d   1       0.561  14.215  -2.038 -0.26 -0.02    +0.193    14.373
ATOM     12  C   UNL d   1       0.838  15.414  -2.892 -0.25 -0.01    +0.109    14.373
ATOM     13  C   UNL d   1      -0.424  19.844  -4.070 -0.06 -0.01    +0.193    14.373
ATOM     14  C   UNL d   1       0.265  11.990  -3.057 -0.72 -0.00    +0.026    14.373
ATOM     15  C   UNL d   1       0.296  16.717  -2.457 -0.21 -0.00    +0.055    14.373
ATOM     16  C   UNL d   1       0.494  19.831  -1.780 -0.05 -0.00    +0.026    14.373
ATOM     17  C   UNL d   1       0.155  18.928  -5.098 -0.13 -0.01    +0.109    14.373
ATOM     18  C   UNL d   1       2.778  13.148  -4.642 -0.38 -0.01    +0.050    14.373
ATOM     19  C   UNL d   1       3.467  13.759  -5.720 -0.25 -0.01    +0.045    14.373
ATOM     20  C   UNL d   1       0.988  18.663  -7.374 -0.14 -0.01    +0.045    14.373
ATOM     21  C   UNL d   1       0.258  19.362  -6.499 -0.13 -0.01    +0.057    14.373
ATOM     22  C   UNL d   1       1.948  18.030  -9.348 -0.10 +0.00    -0.019    14.373
ATOM     23  C   UNL d   1       2.371  17.091  -8.291 -0.12 -0.01    +0.045    14.373
ATOM     24  C   UNL d   1       1.130  18.959  -8.799 -0.10 +0.00    -0.022    14.373
ATOM     25  C   UNL d   1       3.673  15.145  -7.496 -0.14 -0.01    +0.049    14.373
ATOM     26  C   UNL d   1       4.708  13.511  -6.286 -0.16 +0.00    -0.018    14.373
ATOM     27  C   UNL d   1       4.841  14.402  -7.395 -0.09 -0.00    +0.003    14.373
ATOM     28  C   UNL d   1       3.202  16.055  -8.482 -0.14 -0.01    +0.052    14.373
ATOM     29  C   UNL d   1       0.461  20.118  -9.456 -0.04 -0.00    +0.046    14.373
ATOM     30  C   UNL d   1       5.712  12.509  -5.825 -0.22 -0.01    +0.046    14.373
ATOM     31  H   UNL d   1       1.887  17.174  -6.223 -0.36 -0.07    +0.166    14.373
ATOM     32  H   UNL d   1       1.942  15.123  -6.249 -0.35 -0.12    +0.166    14.373
ATOM     33  C   UNL d   1       2.285  12.469  -1.607 -0.40 -0.02    +0.141    14.373
ATOM     34  C   UNL d   1       2.799  13.509  -0.649 -0.18 -0.06    +0.306    14.373
ATOM     35  O   UNL d   1       3.833  14.145  -0.764 -0.17 +0.04    -0.251    14.373
ATOM     36  O   UNL d   1       1.981  13.696   0.401 -0.10 +0.14    -0.481    14.373
ATOM     37  H   UNL d   1       1.212  13.113   0.222 -0.15 -0.09    +0.295    14.373
ATOM     38  C   UNL d   1       5.972  14.468  -8.270 -0.05 -0.00    +0.017    14.373
ATOM     39  C   UNL d   1       6.224  15.460  -9.137 -0.02 -0.00    +0.092    14.373
ATOM     40  C   UNL d   1       7.430  15.416  -9.967 -0.00 +0.01    +0.330    14.373
ATOM     41  O   UNL d   1       8.535  15.016  -9.652 -0.04 -0.02    -0.246    14.373
ATOM     42  O   UNL d   1       7.164  15.888 -11.195 +0.00 -0.01    -0.477    14.373
ATOM     43  H   UNL d   1       6.270  15.539 -11.391 +0.01 -0.00    +0.295    14.373
ATOM     44  C   UNL d   1      -1.866  19.025  -2.197 -0.13 -0.00    +0.141    14.373
ATOM     45  C   UNL d   1      -2.392  20.345  -1.700 -0.03 -0.01    +0.306    14.373
ATOM     46  O   UNL d   1      -2.303  20.782  -0.566 -0.03 +0.01    -0.251    14.373
ATOM     47  O   UNL d   1      -3.031  21.038  -2.660 +0.00 +0.02    -0.481    14.373
ATOM     48  H   UNL d   1      -2.328  21.283  -3.299 +0.03 -0.01    +0.295    14.373
ATOM     49  C   UNL d   1       2.366  17.925 -10.785 -0.05 -0.00    +0.048    14.373
ATOM     50  C   UNL d   1       2.415  16.472 -11.258 -0.07 -0.01    +0.125    14.373
ATOM     51  C   UNL d   1       3.834  16.023 -11.464 -0.01 -0.02    +0.305    14.373
ATOM     52  O   UNL d   1       4.226  14.902 -11.734 -0.01 +0.02    -0.251    14.373
ATOM     53  O   UNL d   1       4.711  17.034 -11.304 +0.00 +0.02    -0.481    14.373
ATOM     54  H   UNL d   1       5.379  16.883 -12.005 +0.01 -0.01    +0.295    14.373
TER
ENDMDL
MODEL       76
USER    Run = 76
USER    Cluster Rank = 61
USER    Number of conformations in this cluster = 1
USER  
USER    RMSD from reference structure       = 21.011 A
USER  
USER    Estimated Free Energy of Binding    =   -3.57 kcal/mol  [=(1)+(2)+(3)-(4)]
USER    Estimated Inhibition Constant, Ki   =    2.42 mM (millimolar)  [Temperature = 298.15 K]
USER    
USER    (1) Final Intermolecular Energy     =   -7.45 kcal/mol
USER        vdW + Hbond + desolv Energy     =   -7.50 kcal/mol
USER        Electrostatic Energy            =   +0.05 kcal/mol
USER    (2) Final Total Internal Energy     =   -3.60 kcal/mol
USER    (3) Torsional Free Energy           =   +3.88 kcal/mol
USER    (4) Unbound System's Energy  [=(2)] =   -3.60 kcal/mol
USER    
USER    
USER  
USER    DPF = D:/Protein_go_brrr/autodock/final/1A3N/heme/dock.dpf
USER    NEWDPF move	heme_opt.pdbqt
USER    NEWDPF about	0.153000 0.018000 -0.028000
USER    NEWDPF tran0	20.794427 -9.324449 -10.859942
USER    NEWDPF axisangle0	0.498460 -0.570705 -0.652560 126.506647
USER    NEWDPF quaternion0	0.445127 -0.509642 -0.582739 0.450047
USER    NEWDPF dihe0	-61.98 143.06 -180.00 25.06 33.79 36.91 -67.39 179.69 119.90 -154.95 -75.93 -66.14 -32.66 
USER  
USER                              x       y       z    vdW   Elec        q     RMS 
ATOM      1  O   UNL d   1      20.218  -9.205  -4.994 -0.20 -0.06    -0.289    21.011
ATOM      2  O   UNL d   1      26.158 -10.718  -9.333 -0.29 +0.17    -0.289    21.011
ATOM      3  N   UNL d   1      20.043  -9.286  -8.438 -0.08 +0.04    -0.247    21.011
ATOM      4  N   UNL d   1      22.876  -9.651  -9.257 -0.14 +0.05    -0.247    21.011
ATOM      5  N   UNL d   1      22.094  -8.960 -11.936 -0.07 +0.10    -0.354    21.011
ATOM      6  N   UNL d   1      19.161  -8.564 -11.074 -0.06 +0.09    -0.354    21.011
ATOM      7  C   UNL d   1      18.492  -8.675  -6.642 -0.28 -0.02    +0.084    21.011
ATOM      8  C   UNL d   1      24.369 -10.747  -7.662 -0.18 -0.01    +0.084    21.011
ATOM      9  C   UNL d   1      22.991 -10.159  -7.982 -0.16 -0.00    +0.058    21.011
ATOM     10  C   UNL d   1      18.772  -8.826  -8.140 -0.24 -0.01    +0.058    21.011
ATOM     11  C   UNL d   1      19.825  -9.148  -6.145 -0.17 -0.01    +0.193    21.011
ATOM     12  C   UNL d   1      20.667  -9.514  -7.328 -0.13 -0.01    +0.109    21.011
ATOM     13  C   UNL d   1      25.027 -10.446  -8.979 -0.22 -0.05    +0.193    21.011
ATOM     14  C   UNL d   1      18.304  -7.210  -6.238 -0.55 -0.01    +0.026    21.011
ATOM     15  C   UNL d   1      22.000 -10.098  -7.078 -0.19 +0.00    +0.055    21.011
ATOM     16  C   UNL d   1      24.309 -12.266  -7.477 -0.07 -0.00    +0.026    21.011
ATOM     17  C   UNL d   1      24.018  -9.775  -9.854 -0.24 -0.03    +0.109    21.011
ATOM     18  C   UNL d   1      17.813  -8.610  -9.060 -0.20 -0.01    +0.050    21.011
ATOM     19  C   UNL d   1      17.954  -8.806 -10.457 -0.22 -0.01    +0.045    21.011
ATOM     20  C   UNL d   1      23.458  -8.948 -12.078 -0.22 -0.02    +0.045    21.011
ATOM     21  C   UNL d   1      24.395  -9.321 -11.201 -0.26 -0.03    +0.057    21.011
ATOM     22  C   UNL d   1      22.508  -8.168 -14.003 -0.14 +0.00    -0.019    21.011
ATOM     23  C   UNL d   1      21.435  -8.505 -13.046 -0.15 -0.01    +0.045    21.011
ATOM     24  C   UNL d   1      23.703  -8.433 -13.424 -0.20 +0.01    -0.022    21.011
ATOM     25  C   UNL d   1      19.050  -8.729 -12.435 -0.10 -0.01    +0.049    21.011
ATOM     26  C   UNL d   1      17.046  -9.173 -11.438 -0.19 +0.00    -0.018    21.011
ATOM     27  C   UNL d   1      17.748  -9.142 -12.682 -0.11 -0.00    +0.003    21.011
ATOM     28  C   UNL d   1      20.123  -8.384 -13.301 -0.13 -0.01    +0.052    21.011
ATOM     29  C   UNL d   1      25.071  -8.269 -13.992 -0.16 -0.02    +0.046    21.011
ATOM     30  C   UNL d   1      15.613  -9.533 -11.234 -0.12 +0.00    +0.046    21.011
ATOM     31  H   UNL d   1      21.655  -9.349 -11.108 +0.06 -0.04    +0.166    21.011
ATOM     32  H   UNL d   1      19.994  -8.267 -10.579 -0.15 -0.06    +0.166    21.011
ATOM     33  C   UNL d   1      17.368  -9.558  -6.091 -0.33 -0.06    +0.141    21.011
ATOM     34  C   UNL d   1      17.339  -9.588  -4.586 -0.26 -0.17    +0.306    21.011
ATOM     35  O   UNL d   1      16.746  -8.807  -3.861 -0.37 +0.13    -0.251    21.011
ATOM     36  O   UNL d   1      18.057 -10.603  -4.074 -0.17 +0.43    -0.481    21.011
ATOM     37  H   UNL d   1      18.783 -10.167  -3.580 -0.15 -0.28    +0.295    21.011
ATOM     38  C   UNL d   1      17.176  -9.440 -13.960 -0.05 +0.00    +0.017    21.011
ATOM     39  C   UNL d   1      17.577  -8.917 -15.129 -0.02 +0.00    +0.092    21.011
ATOM     40  C   UNL d   1      16.917  -9.320 -16.374 +0.01 +0.01    +0.330    21.011
ATOM     41  O   UNL d   1      15.743  -9.594 -16.538 +0.00 -0.02    -0.246    21.011
ATOM     42  O   UNL d   1      17.805  -9.346 -17.379 +0.00 -0.01    -0.477    21.011
ATOM     43  H   UNL d   1      18.393  -8.586 -17.193 +0.01 -0.00    +0.295    21.011
ATOM     44  C   UNL d   1      25.121 -10.077  -6.507 -0.24 +0.00    +0.141    21.011
ATOM     45  C   UNL d   1      26.129 -10.983  -5.850 -0.16 -0.01    +0.306    21.011
ATOM     46  O   UNL d   1      26.066 -11.444  -4.724 -0.10 -0.02    -0.251    21.011
ATOM     47  O   UNL d   1      27.184 -11.239  -6.643 -0.11 +0.06    -0.481    21.011
ATOM     48  H   UNL d   1      26.993 -10.755  -7.475 +0.10 -0.07    +0.295    21.011
ATOM     49  C   UNL d   1      22.268  -7.608 -15.375 -0.09 -0.01    +0.048    21.011
ATOM     50  C   UNL d   1      22.745  -8.563 -16.469 -0.01 -0.01    +0.125    21.011
ATOM     51  C   UNL d   1      21.581  -9.246 -17.129 +0.00 -0.02    +0.305    21.011
ATOM     52  O   UNL d   1      21.603  -9.977 -18.104 -0.00 +0.01    -0.251    21.011
ATOM     53  O   UNL d   1      20.414  -8.956 -16.519 +0.01 +0.02    -0.481    21.011
ATOM     54  H   UNL d   1      19.835  -9.716 -16.740 +0.00 -0.01    +0.295    21.011
TER
ENDMDL
MODEL       84
USER    Run = 84
USER    Cluster Rank = 62
USER    Number of conformations in this cluster = 1
USER  
USER    RMSD from reference structure       = 21.863 A
USER  
USER    Estimated Free Energy of Binding    =   -3.53 kcal/mol  [=(1)+(2)+(3)-(4)]
USER    Estimated Inhibition Constant, Ki   =    2.56 mM (millimolar)  [Temperature = 298.15 K]
USER    
USER    (1) Final Intermolecular Energy     =   -7.41 kcal/mol
USER        vdW + Hbond + desolv Energy     =   -7.03 kcal/mol
USER        Electrostatic Energy            =   -0.38 kcal/mol
USER    (2) Final Total Internal Energy     =   -4.31 kcal/mol
USER    (3) Torsional Free Energy           =   +3.88 kcal/mol
USER    (4) Unbound System's Energy  [=(2)] =   -4.31 kcal/mol
USER    
USER    
USER  
USER    DPF = D:/Protein_go_brrr/autodock/final/1A3N/heme/dock.dpf
USER    NEWDPF move	heme_opt.pdbqt
USER    NEWDPF about	0.153000 0.018000 -0.028000
USER    NEWDPF tran0	6.304717 -11.816457 19.672322
USER    NEWDPF axisangle0	0.689092 0.501948 -0.522686 151.129919
USER    NEWDPF quaternion0	0.667338 0.486102 -0.506185 0.249282
USER    NEWDPF dihe0	109.55 161.77 113.80 -5.14 175.24 -7.29 -39.65 -9.17 -14.65 -137.17 -67.57 -9.53 -4.63 
USER  
USER                              x       y       z    vdW   Elec        q     RMS 
ATOM      1  O   UNL d   1       6.295 -17.657  20.475 -0.10 -0.11    -0.289    21.863
ATOM      2  O   UNL d   1       5.793 -12.006  25.394 -0.12 -0.00    -0.289    21.863
ATOM      3  N   UNL d   1       6.484 -14.343  19.538 -0.13 -0.13    -0.247    21.863
ATOM      4  N   UNL d   1       5.889 -12.886  22.059 -0.37 -0.11    -0.247    21.863
ATOM      5  N   UNL d   1       5.541 -10.502  20.490 -0.07 -0.14    -0.354    21.863
ATOM      6  N   UNL d   1       6.140 -12.025  17.878 -0.02 -0.11    -0.354    21.863
ATOM      7  C   UNL d   1       6.401 -16.477  18.336 -0.09 +0.04    +0.084    21.863
ATOM      8  C   UNL d   1       6.396 -14.030  24.158 -0.15 +0.01    +0.084    21.863
ATOM      9  C   UNL d   1       6.309 -14.067  22.628 -0.20 +0.02    +0.058    21.863
ATOM     10  C   UNL d   1       6.473 -14.948  18.293 -0.08 +0.03    +0.058    21.863
ATOM     11  C   UNL d   1       6.392 -16.630  19.828 -0.09 +0.09    +0.193    21.863
ATOM     12  C   UNL d   1       6.472 -15.267  20.443 -0.08 +0.06    +0.109    21.863
ATOM     13  C   UNL d   1       5.911 -12.621  24.353 -0.10 +0.03    +0.193    21.863
ATOM     14  C   UNL d   1       5.078 -17.007  17.776 -0.14 +0.01    +0.026    21.863
ATOM     15  C   UNL d   1       6.570 -15.172  21.913 -0.23 +0.02    +0.055    21.863
ATOM     16  C   UNL d   1       7.844 -14.126  24.647 -0.29 +0.00    +0.026    21.863
ATOM     17  C   UNL d   1       5.632 -12.041  23.005 -0.15 +0.04    +0.109    21.863
ATOM     18  C   UNL d   1       6.605 -14.283  17.130 -0.08 +0.02    +0.050    21.863
ATOM     19  C   UNL d   1       6.764 -12.880  16.998 -0.06 +0.02    +0.045    21.863
ATOM     20  C   UNL d   1       5.075 -10.058  21.700 -0.17 +0.02    +0.045    21.863
ATOM     21  C   UNL d   1       5.099 -10.676  22.885 -0.20 +0.02    +0.057    21.863
ATOM     22  C   UNL d   1       4.688  -8.450  20.124 -0.20 -0.01    -0.019    21.863
ATOM     23  C   UNL d   1       5.352  -9.599  19.478 -0.17 +0.01    +0.045    21.863
ATOM     24  C   UNL d   1       4.528  -8.727  21.440 -0.18 -0.01    -0.022    21.863
ATOM     25  C   UNL d   1       6.354 -10.716  17.513 -0.10 +0.01    +0.049    21.863
ATOM     26  C   UNL d   1       7.429 -12.108  16.058 -0.07 -0.01    -0.018    21.863
ATOM     27  C   UNL d   1       7.183 -10.742  16.400 -0.11 +0.00    +0.003    21.863
ATOM     28  C   UNL d   1       5.682  -9.655  18.178 -0.18 +0.01    +0.052    21.863
ATOM     29  C   UNL d   1       3.923  -7.877  22.505 -0.27 +0.01    +0.046    21.863
ATOM     30  C   UNL d   1       8.246 -12.605  14.914 -0.11 +0.03    +0.046    21.863
ATOM     31  H   UNL d   1       6.043 -11.380  20.410 +0.05 +0.07    +0.166    21.863
ATOM     32  H   UNL d   1       5.573 -12.338  18.657 -0.11 +0.06    +0.166    21.863
ATOM     33  C   UNL d   1       7.602 -17.209  17.728 -0.04 +0.09    +0.141    21.863
ATOM     34  C   UNL d   1       8.893 -16.460  17.916 -0.07 +0.34    +0.306    21.863
ATOM     35  O   UNL d   1       9.714 -16.209  17.050 -0.14 -0.35    -0.251    21.863
ATOM     36  O   UNL d   1       9.081 -16.062  19.187 -0.59 -0.61    -0.481    21.863
ATOM     37  H   UNL d   1       8.447 -15.324  19.311 +0.06 +0.25    +0.295    21.863
ATOM     38  C   UNL d   1       7.676  -9.609  15.677 -0.17 +0.01    +0.017    21.863
ATOM     39  C   UNL d   1       7.911  -8.397  16.203 -0.11 +0.03    +0.092    21.863
ATOM     40  C   UNL d   1       8.434  -7.322  15.355 -0.06 +0.12    +0.330    21.863
ATOM     41  O   UNL d   1       8.847  -7.409  14.214 -0.72 -0.13    -0.246    21.863
ATOM     42  O   UNL d   1       8.396  -6.154  16.015 +0.00 -0.14    -0.477    21.863
ATOM     43  H   UNL d   1       7.762  -6.316  16.743 +0.08 +0.07    +0.295    21.863
ATOM     44  C   UNL d   1       5.495 -15.027  24.894 -0.13 +0.03    +0.141    21.863
ATOM     45  C   UNL d   1       5.738 -15.062  26.380 -0.03 +0.07    +0.306    21.863
ATOM     46  O   UNL d   1       6.598 -15.701  26.961 -0.13 -0.13    -0.251    21.863
ATOM     47  O   UNL d   1       4.860 -14.306  27.063 +0.02 -0.07    -0.481    21.863
ATOM     48  H   UNL d   1       5.069 -13.384  26.800 +0.11 +0.03    +0.295    21.863
ATOM     49  C   UNL d   1       4.263  -7.206  19.401 -0.30 +0.01    +0.048    21.863
ATOM     50  C   UNL d   1       5.384  -6.168  19.347 -0.26 +0.01    +0.125    21.863
ATOM     51  C   UNL d   1       5.859  -5.964  17.936 -0.13 +0.04    +0.305    21.863
ATOM     52  O   UNL d   1       5.650  -6.679  16.971 -0.16 -0.04    -0.251    21.863
ATOM     53  O   UNL d   1       6.604  -4.848  17.811 -0.04 -0.07    -0.481    21.863
ATOM     54  H   UNL d   1       6.924  -4.878  16.885 +0.11 +0.06    +0.295    21.863
TER
ENDMDL
MODEL       24
USER    Run = 24
USER    Cluster Rank = 63
USER    Number of conformations in this cluster = 1
USER  
USER    RMSD from reference structure       = 28.333 A
USER  
USER    Estimated Free Energy of Binding    =   -3.52 kcal/mol  [=(1)+(2)+(3)-(4)]
USER    Estimated Inhibition Constant, Ki   =    2.63 mM (millimolar)  [Temperature = 298.15 K]
USER    
USER    (1) Final Intermolecular Energy     =   -7.40 kcal/mol
USER        vdW + Hbond + desolv Energy     =   -7.09 kcal/mol
USER        Electrostatic Energy            =   -0.31 kcal/mol
USER    (2) Final Total Internal Energy     =   -2.62 kcal/mol
USER    (3) Torsional Free Energy           =   +3.88 kcal/mol
USER    (4) Unbound System's Energy  [=(2)] =   -2.62 kcal/mol
USER    
USER    
USER  
USER    DPF = D:/Protein_go_brrr/autodock/final/1A3N/heme/dock.dpf
USER    NEWDPF move	heme_opt.pdbqt
USER    NEWDPF about	0.153000 0.018000 -0.028000
USER    NEWDPF tran0	-8.835590 24.681897 16.880111
USER    NEWDPF axisangle0	0.512099 -0.498913 -0.699172 151.395232
USER    NEWDPF quaternion0	0.496227 -0.483449 -0.677501 0.247039
USER    NEWDPF dihe0	-97.26 -41.32 -108.93 -85.26 36.83 -13.98 127.81 -46.43 127.14 -48.12 138.88 38.87 -166.87 
USER  
USER                              x       y       z    vdW   Elec        q     RMS 
ATOM      1  O   UNL d   1      -8.329  25.386  22.711 -0.03 +0.00    -0.289    28.333
ATOM      2  O   UNL d   1      -3.180  25.635  17.252 -0.25 -0.07    -0.289    28.333
ATOM      3  N   UNL d   1      -9.083  24.769  19.403 -0.09 +0.01    -0.247    28.333
ATOM      4  N   UNL d   1      -6.540  25.388  17.996 -0.11 -0.01    -0.247    28.333
ATOM      5  N   UNL d   1      -8.008  25.356  15.524 -0.14 -0.00    -0.354    28.333
ATOM      6  N   UNL d   1     -10.645  24.734  16.993 -0.08 +0.01    -0.354    28.333
ATOM      7  C   UNL d   1     -10.394  24.994  21.462 -0.09 -0.00    +0.084    28.333
ATOM      8  C   UNL d   1      -4.471  25.166  19.277 -0.23 +0.00    +0.084    28.333
ATOM      9  C   UNL d   1      -6.003  25.142  19.240 -0.19 +0.00    +0.058    28.333
ATOM     10  C   UNL d   1     -10.355  24.753  19.950 -0.13 -0.01    +0.058    28.333
ATOM     11  C   UNL d   1      -8.916  25.131  21.676 -0.07 -0.00    +0.193    28.333
ATOM     12  C   UNL d   1      -8.229  24.949  20.357 -0.14 -0.00    +0.109    28.333
ATOM     13  C   UNL d   1      -4.240  25.507  17.832 -0.23 +0.02    +0.193    28.333
ATOM     14  C   UNL d   1     -11.070  26.321  21.816 -0.03 +0.00    +0.026    28.333
ATOM     15  C   UNL d   1      -6.753  24.950  20.336 -0.20 -0.00    +0.055    28.333
ATOM     16  C   UNL d   1      -3.888  23.777  19.555 -0.40 +0.00    +0.026    28.333
ATOM     17  C   UNL d   1      -5.573  25.621  17.168 -0.24 +0.01    +0.109    28.333
ATOM     18  C   UNL d   1     -11.472  24.463  19.256 -0.12 -0.01    +0.050    28.333
ATOM     19  C   UNL d   1     -11.522  24.144  17.875 -0.09 -0.00    +0.045    28.333
ATOM     20  C   UNL d   1      -6.812  25.861  15.082 -0.24 +0.00    +0.045    28.333
ATOM     21  C   UNL d   1      -5.661  25.992  15.748 -0.20 +0.01    +0.057    28.333
ATOM     22  C   UNL d   1      -8.328  25.952  13.375 -0.20 -0.00    -0.019    28.333
ATOM     23  C   UNL d   1      -8.984  25.371  14.564 -0.21 +0.00    +0.045    28.333
ATOM     24  C   UNL d   1      -7.043  26.238  13.688 -0.25 -0.00    -0.022    28.333
ATOM     25  C   UNL d   1     -10.929  24.353  15.702 -0.19 -0.00    +0.049    28.333
ATOM     26  C   UNL d   1     -12.373  23.330  17.143 -0.20 +0.00    -0.018    28.333
ATOM     27  C   UNL d   1     -11.981  23.451  15.774 -0.22 -0.00    +0.003    28.333
ATOM     28  C   UNL d   1     -10.259  24.953  14.601 -0.18 -0.00    +0.052    28.333
ATOM     29  C   UNL d   1      -5.980  26.825  12.821 -0.26 +0.01    +0.046    28.333
ATOM     30  C   UNL d   1     -13.481  22.489  17.680 -0.24 +0.01    +0.046    28.333
ATOM     31  H   UNL d   1      -8.097  24.949  16.448 +0.05 +0.01    +0.166    28.333
ATOM     32  H   UNL d   1      -9.924  25.389  17.273 +0.04 +0.00    +0.166    28.333
ATOM     33  C   UNL d   1     -10.953  23.838  22.298 -0.14 +0.01    +0.141    28.333
ATOM     34  C   UNL d   1     -10.848  24.088  23.778 -0.10 +0.02    +0.306    28.333
ATOM     35  O   UNL d   1     -11.692  24.616  24.481 -0.06 -0.01    -0.251    28.333
ATOM     36  O   UNL d   1      -9.683  23.658  24.294 -0.10 -0.02    -0.481    28.333
ATOM     37  H   UNL d   1      -9.039  24.364  24.074 +0.07 +0.00    +0.295    28.333
ATOM     38  C   UNL d   1     -12.611  22.786  14.674 -0.22 +0.00    +0.017    28.333
ATOM     39  C   UNL d   1     -12.112  21.723  14.023 -0.28 -0.01    +0.092    28.333
ATOM     40  C   UNL d   1     -12.867  21.122  12.920 -0.14 -0.12    +0.330    28.333
ATOM     41  O   UNL d   1     -14.042  21.282  12.649 -0.11 +0.06    -0.246    28.333
ATOM     42  O   UNL d   1     -12.066  20.332  12.189 -0.10 +0.31    -0.477    28.333
ATOM     43  H   UNL d   1     -12.621  19.547  11.999 -0.40 -0.52    +0.295    28.333
ATOM     44  C   UNL d   1      -3.850  26.222  20.197 -0.15 +0.01    +0.141    28.333
ATOM     45  C   UNL d   1      -3.426  27.470  19.468 -0.07 +0.03    +0.306    28.333
ATOM     46  O   UNL d   1      -4.136  28.416  19.175 -0.03 -0.03    -0.251    28.333
ATOM     47  O   UNL d   1      -2.127  27.447  19.121 -0.08 -0.08    -0.481    28.333
ATOM     48  H   UNL d   1      -2.071  26.771  18.413 +0.15 +0.06    +0.295    28.333
ATOM     49  C   UNL d   1      -9.017  26.184  12.062 -0.12 +0.00    +0.048    28.333
ATOM     50  C   UNL d   1      -9.228  27.673  11.787 -0.03 +0.00    +0.125    28.333
ATOM     51  C   UNL d   1      -9.638  28.397  13.037 -0.00 +0.01    +0.305    28.333
ATOM     52  O   UNL d   1     -10.553  28.118  13.792 -0.01 -0.01    -0.251    28.333
ATOM     53  O   UNL d   1      -8.861  29.473  13.274 +0.01 -0.03    -0.481    28.333
ATOM     54  H   UNL d   1      -9.354  30.217  12.868 +0.00 +0.01    +0.295    28.333
TER
ENDMDL
MODEL       22
USER    Run = 22
USER    Cluster Rank = 64
USER    Number of conformations in this cluster = 1
USER  
USER    RMSD from reference structure       = 43.253 A
USER  
USER    Estimated Free Energy of Binding    =   -3.47 kcal/mol  [=(1)+(2)+(3)-(4)]
USER    Estimated Inhibition Constant, Ki   =    2.86 mM (millimolar)  [Temperature = 298.15 K]
USER    
USER    (1) Final Intermolecular Energy     =   -7.35 kcal/mol
USER        vdW + Hbond + desolv Energy     =   -7.32 kcal/mol
USER        Electrostatic Energy            =   -0.03 kcal/mol
USER    (2) Final Total Internal Energy     =   -4.83 kcal/mol
USER    (3) Torsional Free Energy           =   +3.88 kcal/mol
USER    (4) Unbound System's Energy  [=(2)] =   -4.83 kcal/mol
USER    
USER    
USER  
USER    DPF = D:/Protein_go_brrr/autodock/final/1A3N/heme/dock.dpf
USER    NEWDPF move	heme_opt.pdbqt
USER    NEWDPF about	0.153000 0.018000 -0.028000
USER    NEWDPF tran0	23.221909 12.468710 37.088672
USER    NEWDPF axisangle0	0.371418 0.783403 -0.498326 171.507039
USER    NEWDPF quaternion0	0.370398 0.781252 -0.496958 0.074047
USER    NEWDPF dihe0	110.45 104.70 -106.61 -49.25 -131.14 95.14 124.95 62.74 30.58 -40.68 -82.84 -78.09 -1.61 
USER  
USER                              x       y       z    vdW   Elec        q     RMS 
ATOM      1  O   UNL d   1      27.771   8.732  36.780 -0.36 +0.11    -0.289    43.253
ATOM      2  O   UNL d   1      23.437  10.752  42.570 -0.01 +0.02    -0.289    43.253
ATOM      3  N   UNL d   1      25.273  11.094  36.508 +0.20 +0.24    -0.247    43.253
ATOM      4  N   UNL d   1      23.947  10.994  39.165 -0.11 +0.13    -0.247    43.253
ATOM      5  N   UNL d   1      21.781  12.514  38.039 -0.05 +0.19    -0.354    43.253
ATOM      6  N   UNL d   1      23.155  12.596  35.280 -0.11 +0.19    -0.354    43.253
ATOM      7  C   UNL d   1      26.782   9.984  34.928 -0.30 -0.03    +0.084    43.253
ATOM      8  C   UNL d   1      25.294  10.240  41.060 -0.10 -0.01    +0.084    43.253
ATOM      9  C   UNL d   1      25.162  10.475  39.551 -0.16 -0.02    +0.058    43.253
ATOM     10  C   UNL d   1      25.647  10.980  35.180 -0.08 -0.04    +0.058    43.253
ATOM     11  C   UNL d   1      26.997   9.568  36.353 -0.26 -0.08    +0.193    43.253
ATOM     12  C   UNL d   1      26.040  10.330  37.216 -0.18 -0.06    +0.109    43.253
ATOM     13  C   UNL d   1      23.915  10.687  41.454 -0.03 -0.03    +0.193    43.253
ATOM     14  C   UNL d   1      26.313   8.769  34.123 -0.36 -0.01    +0.026    43.253
ATOM     15  C   UNL d   1      26.130  10.152  38.679 -0.21 -0.02    +0.055    43.253
ATOM     16  C   UNL d   1      26.318  11.185  41.694 -0.05 -0.00    +0.026    43.253
ATOM     17  C   UNL d   1      23.197  11.113  40.214 -0.08 -0.03    +0.109    43.253
ATOM     18  C   UNL d   1      25.139  11.733  34.186 -0.21 -0.01    +0.050    43.253
ATOM     19  C   UNL d   1      24.149  12.737  34.338 -0.18 -0.01    +0.045    43.253
ATOM     20  C   UNL d   1      21.227  12.172  39.245 -0.07 -0.02    +0.045    43.253
ATOM     21  C   UNL d   1      21.800  11.563  40.288 -0.07 -0.02    +0.057    43.253
ATOM     22  C   UNL d   1      19.634  13.190  37.962 -0.10 +0.00    -0.019    43.253
ATOM     23  C   UNL d   1      20.896  13.133  37.197 -0.13 -0.01    +0.045    43.253
ATOM     24  C   UNL d   1      19.837  12.621  39.173 -0.06 +0.00    -0.022    43.253
ATOM     25  C   UNL d   1      22.257  13.634  35.195 -0.19 -0.01    +0.049    43.253
ATOM     26  C   UNL d   1      23.911  13.915  33.647 -0.16 +0.00    -0.018    43.253
ATOM     27  C   UNL d   1      22.726  14.487  34.205 -0.17 -0.00    +0.003    43.253
ATOM     28  C   UNL d   1      21.059  13.626  35.960 -0.22 -0.01    +0.052    43.253
ATOM     29  C   UNL d   1      18.872  12.451  40.297 -0.03 +0.00    +0.046    43.253
ATOM     30  C   UNL d   1      24.733  14.478  32.538 -0.14 -0.00    +0.046    43.253
ATOM     31  H   UNL d   1      22.770  12.379  37.857 +0.01 -0.11    +0.166    43.253
ATOM     32  H   UNL d   1      23.090  11.806  35.912 -0.44 -0.25    +0.166    43.253
ATOM     33  C   UNL d   1      28.066  10.584  34.344 -0.29 -0.04    +0.141    43.253
ATOM     34  C   UNL d   1      28.901  11.286  35.381 -0.21 -0.07    +0.306    43.253
ATOM     35  O   UNL d   1      28.686  12.389  35.853 -0.09 +0.05    -0.251    43.253
ATOM     36  O   UNL d   1      29.963  10.558  35.770 -0.51 +0.12    -0.481    43.253
ATOM     37  H   UNL d   1      29.581   9.836  36.313 -0.37 -0.17    +0.295    43.253
ATOM     38  C   UNL d   1      22.115  15.707  33.771 -0.20 -0.00    +0.017    43.253
ATOM     39  C   UNL d   1      20.796  15.905  33.630 -0.24 +0.00    +0.092    43.253
ATOM     40  C   UNL d   1      20.296  17.211  33.193 -0.13 +0.02    +0.330    43.253
ATOM     41  O   UNL d   1      20.049  17.571  32.057 -0.21 -0.01    -0.246    43.253
ATOM     42  O   UNL d   1      20.121  18.016  34.252 -0.00 -0.01    -0.477    43.253
ATOM     43  H   UNL d   1      19.301  17.680  34.669 +0.09 +0.02    +0.295    43.253
ATOM     44  C   UNL d   1      25.542   8.788  41.483 -0.10 -0.02    +0.141    43.253
ATOM     45  C   UNL d   1      24.273   8.020  41.741 -0.12 -0.02    +0.306    43.253
ATOM     46  O   UNL d   1      23.554   7.502  40.905 -0.14 +0.01    -0.251    43.253
ATOM     47  O   UNL d   1      23.960   7.968  43.049 -0.01 -0.01    -0.481    43.253
ATOM     48  H   UNL d   1      23.656   8.874  43.267 +0.04 -0.00    +0.295    43.253
ATOM     49  C   UNL d   1      18.357  13.776  37.437 -0.14 +0.01    +0.048    43.253
ATOM     50  C   UNL d   1      18.296  15.289  37.648 -0.09 +0.02    +0.125    43.253
ATOM     51  C   UNL d   1      18.698  16.021  36.399 -0.07 +0.05    +0.305    43.253
ATOM     52  O   UNL d   1      18.207  15.922  35.288 -0.15 -0.06    -0.251    43.253
ATOM     53  O   UNL d   1      19.735  16.856  36.615 +0.00 -0.03    -0.481    43.253
ATOM     54  H   UNL d   1      20.367  16.640  35.899 +0.06 +0.01    +0.295    43.253
TER
ENDMDL
MODEL       61
USER    Run = 61
USER    Cluster Rank = 65
USER    Number of conformations in this cluster = 1
USER  
USER    RMSD from reference structure       = 30.777 A
USER  
USER    Estimated Free Energy of Binding    =   -3.47 kcal/mol  [=(1)+(2)+(3)-(4)]
USER    Estimated Inhibition Constant, Ki   =    2.87 mM (millimolar)  [Temperature = 298.15 K]
USER    
USER    (1) Final Intermolecular Energy     =   -7.35 kcal/mol
USER        vdW + Hbond + desolv Energy     =   -7.30 kcal/mol
USER        Electrostatic Energy            =   -0.05 kcal/mol
USER    (2) Final Total Internal Energy     =   -3.91 kcal/mol
USER    (3) Torsional Free Energy           =   +3.88 kcal/mol
USER    (4) Unbound System's Energy  [=(2)] =   -3.91 kcal/mol
USER    
USER    
USER  
USER    DPF = D:/Protein_go_brrr/autodock/final/1A3N/heme/dock.dpf
USER    NEWDPF move	heme_opt.pdbqt
USER    NEWDPF about	0.153000 0.018000 -0.028000
USER    NEWDPF tran0	30.557325 17.404067 -5.537912
USER    NEWDPF axisangle0	-0.149200 -0.221387 0.963705 113.845008
USER    NEWDPF quaternion0	-0.125019 -0.185507 0.807520 0.545773
USER    NEWDPF dihe0	135.35 160.84 -84.94 33.62 -135.86 139.43 163.60 48.16 18.94 -98.56 -61.85 -126.21 23.10 
USER  
USER                              x       y       z    vdW   Elec        q     RMS 
ATOM      1  O   UNL d   1      34.218  21.240  -2.961 -0.07 +0.02    -0.289    30.777
ATOM      2  O   UNL d   1      27.051  21.937  -5.094 -0.09 +0.02    -0.289    30.777
ATOM      3  N   UNL d   1      32.497  18.727  -4.579 -0.13 +0.00    -0.247    30.777
ATOM      4  N   UNL d   1      29.725  19.786  -4.733 -0.04 +0.02    -0.247    30.777
ATOM      5  N   UNL d   1      28.854  17.141  -5.449 -0.05 -0.03    -0.354    30.777
ATOM      6  N   UNL d   1      31.730  16.047  -5.268 -0.12 +0.01    -0.354    30.777
ATOM      7  C   UNL d   1      34.709  18.917  -3.541 -0.18 -0.00    +0.084    30.777
ATOM      8  C   UNL d   1      29.454  22.214  -4.718 -0.13 -0.01    +0.084    30.777
ATOM      9  C   UNL d   1      30.373  20.994  -4.597 -0.18 -0.01    +0.058    30.777
ATOM     10  C   UNL d   1      33.676  18.063  -4.280 -0.19 -0.00    +0.058    30.777
ATOM     11  C   UNL d   1      33.914  20.187  -3.490 -0.16 -0.01    +0.193    30.777
ATOM     12  C   UNL d   1      32.604  19.951  -4.175 -0.16 -0.01    +0.109    30.777
ATOM     13  C   UNL d   1      28.160  21.475  -4.910 -0.12 -0.01    +0.193    30.777
ATOM     14  C   UNL d   1      34.945  18.424  -2.111 -0.37 +0.00    +0.026    30.777
ATOM     15  C   UNL d   1      31.684  21.096  -4.331 -0.19 -0.01    +0.055    30.777
ATOM     16  C   UNL d   1      29.750  23.025  -5.983 -0.04 -0.00    +0.026    30.777
ATOM     17  C   UNL d   1      28.461  20.011  -4.892 -0.05 -0.01    +0.109    30.777
ATOM     18  C   UNL d   1      33.954  16.806  -4.673 -0.24 -0.00    +0.050    30.777
ATOM     19  C   UNL d   1      33.094  15.972  -5.433 -0.21 -0.00    +0.045    30.777
ATOM     20  C   UNL d   1      27.639  17.743  -5.247 -0.18 +0.00    +0.045    30.777
ATOM     21  C   UNL d   1      27.371  19.032  -5.016 -0.13 -0.00    +0.057    30.777
ATOM     22  C   UNL d   1      27.308  15.508  -5.584 -0.24 -0.00    -0.019    30.777
ATOM     23  C   UNL d   1      28.755  15.792  -5.660 -0.20 +0.00    +0.045    30.777
ATOM     24  C   UNL d   1      26.653  16.668  -5.341 -0.29 -0.00    -0.022    30.777
ATOM     25  C   UNL d   1      31.098  15.093  -6.031 -0.22 -0.00    +0.049    30.777
ATOM     26  C   UNL d   1      33.353  14.970  -6.356 -0.16 +0.00    -0.018    30.777
ATOM     27  C   UNL d   1      32.088  14.432  -6.745 -0.18 -0.00    +0.003    30.777
ATOM     28  C   UNL d   1      29.699  14.871  -5.909 -0.25 +0.00    +0.052    30.777
ATOM     29  C   UNL d   1      25.187  16.897  -5.192 -0.48 +0.01    +0.046    30.777
ATOM     30  C   UNL d   1      34.693  14.539  -6.849 -0.14 -0.02    +0.046    30.777
ATOM     31  H   UNL d   1      29.707  17.686  -5.509 +0.05 +0.00    +0.166    30.777
ATOM     32  H   UNL d   1      31.277  16.694  -4.633 +0.06 +0.01    +0.166    30.777
ATOM     33  C   UNL d   1      36.031  19.139  -4.284 -0.06 -0.00    +0.141    30.777
ATOM     34  C   UNL d   1      35.864  19.971  -5.527 -0.00 -0.01    +0.306    30.777
ATOM     35  O   UNL d   1      35.488  19.571  -6.616 -0.00 +0.00    -0.251    30.777
ATOM     36  O   UNL d   1      36.177  21.264  -5.332 +0.01 +0.01    -0.481    30.777
ATOM     37  H   UNL d   1      35.715  21.507  -4.501 +0.04 -0.01    +0.295    30.777
ATOM     38  C   UNL d   1      31.898  13.360  -7.675 -0.22 -0.00    +0.017    30.777
ATOM     39  C   UNL d   1      31.842  12.058  -7.356 -0.19 -0.04    +0.092    30.777
ATOM     40  C   UNL d   1      31.625  11.058  -8.404 -0.14 -0.05    +0.330    30.777
ATOM     41  O   UNL d   1      32.185   9.986  -8.537 -0.33 +0.05    -0.246    30.777
ATOM     42  O   UNL d   1      30.673  11.477  -9.252 -0.07 -0.07    -0.477    30.777
ATOM     43  H   UNL d   1      30.196  12.167  -8.747 +0.09 +0.03    +0.295    30.777
ATOM     44  C   UNL d   1      29.391  23.118  -3.482 -0.22 -0.02    +0.141    30.777
ATOM     45  C   UNL d   1      28.053  23.782  -3.299 -0.12 -0.03    +0.306    30.777
ATOM     46  O   UNL d   1      27.305  23.660  -2.344 -0.23 +0.03    -0.251    30.777
ATOM     47  O   UNL d   1      27.711  24.549  -4.349 +0.01 +0.03    -0.481    30.777
ATOM     48  H   UNL d   1      27.164  23.964  -4.916 +0.07 -0.02    +0.295    30.777
ATOM     49  C   UNL d   1      26.708  14.142  -5.741 -0.22 +0.01    +0.048    30.777
ATOM     50  C   UNL d   1      27.021  13.536  -7.109 -0.17 +0.02    +0.125    30.777
ATOM     51  C   UNL d   1      27.805  12.263  -6.965 -0.19 +0.06    +0.305    30.777
ATOM     52  O   UNL d   1      27.629  11.369  -6.156 -0.30 -0.04    -0.251    30.777
ATOM     53  O   UNL d   1      28.807  12.183  -7.863 -0.08 -0.09    -0.481    30.777
ATOM     54  H   UNL d   1      28.873  11.226  -8.062 +0.12 +0.10    +0.295    30.777
TER
ENDMDL
MODEL       11
USER    Run = 11
USER    Cluster Rank = 66
USER    Number of conformations in this cluster = 1
USER  
USER    RMSD from reference structure       = 16.085 A
USER  
USER    Estimated Free Energy of Binding    =   -3.47 kcal/mol  [=(1)+(2)+(3)-(4)]
USER    Estimated Inhibition Constant, Ki   =    2.88 mM (millimolar)  [Temperature = 298.15 K]
USER    
USER    (1) Final Intermolecular Energy     =   -7.34 kcal/mol
USER        vdW + Hbond + desolv Energy     =   -6.81 kcal/mol
USER        Electrostatic Energy            =   -0.54 kcal/mol
USER    (2) Final Total Internal Energy     =   -3.09 kcal/mol
USER    (3) Torsional Free Energy           =   +3.88 kcal/mol
USER    (4) Unbound System's Energy  [=(2)] =   -3.09 kcal/mol
USER    
USER    
USER  
USER    DPF = D:/Protein_go_brrr/autodock/final/1A3N/heme/dock.dpf
USER    NEWDPF move	heme_opt.pdbqt
USER    NEWDPF about	0.153000 0.018000 -0.028000
USER    NEWDPF tran0	8.442826 17.396850 -3.324882
USER    NEWDPF axisangle0	0.581352 -0.298399 0.756959 -151.443316
USER    NEWDPF quaternion0	0.563394 -0.289181 0.733576 -0.246633
USER    NEWDPF dihe0	114.32 114.61 -68.28 46.00 179.97 -60.08 -1.17 -59.78 -21.73 -4.50 -127.86 40.05 -12.16 
USER  
USER                              x       y       z    vdW   Elec        q     RMS 
ATOM      1  O   UNL d   1       9.091  15.539  -8.882 -0.09 -0.02    -0.289    16.085
ATOM      2  O   UNL d   1      11.342  21.856  -5.503 -0.01 +0.01    -0.289    16.085
ATOM      3  N   UNL d   1       8.354  16.262  -5.592 -0.10 +0.02    -0.247    16.085
ATOM      4  N   UNL d   1       9.886  18.756  -5.080 +0.01 +0.01    -0.247    16.085
ATOM      5  N   UNL d   1       9.412  18.362  -2.272 -0.07 +0.03    -0.354    16.085
ATOM      6  N   UNL d   1       7.841  15.765  -2.810 -0.08 +0.07    -0.354    16.085
ATOM      7  C   UNL d   1       8.028  14.319  -7.050 -0.15 -0.00    +0.084    16.085
ATOM      8  C   UNL d   1      10.377  20.181  -7.004 -0.06 -0.00    +0.084    16.085
ATOM      9  C   UNL d   1       9.808  18.870  -6.451 -0.11 -0.00    +0.058    16.085
ATOM     10  C   UNL d   1       7.866  14.969  -5.672 -0.15 -0.01    +0.058    16.085
ATOM     11  C   UNL d   1       8.677  15.482  -7.739 -0.12 +0.00    +0.193    16.085
ATOM     12  C   UNL d   1       8.796  16.606  -6.757 -0.12 -0.01    +0.109    16.085
ATOM     13  C   UNL d   1      10.825  20.773  -5.698 -0.05 -0.00    +0.193    16.085
ATOM     14  C   UNL d   1       9.013  13.148  -7.021 -0.29 +0.00    +0.026    16.085
ATOM     15  C   UNL d   1       9.325  17.898  -7.239 -0.14 -0.00    +0.055    16.085
ATOM     16  C   UNL d   1       9.280  21.070  -7.598 -0.02 -0.00    +0.026    16.085
ATOM     17  C   UNL d   1      10.477  19.808  -4.612 -0.10 +0.00    +0.109    16.085
ATOM     18  C   UNL d   1       7.219  14.342  -4.671 -0.18 -0.01    +0.050    16.085
ATOM     19  C   UNL d   1       6.948  14.896  -3.394 -0.16 -0.01    +0.045    16.085
ATOM     20  C   UNL d   1      10.325  19.383  -2.216 -0.17 +0.00    +0.045    16.085
ATOM     21  C   UNL d   1      10.838  20.104  -3.218 -0.15 +0.00    +0.057    16.085
ATOM     22  C   UNL d   1       9.924  18.634  -0.095 -0.27 +0.00    -0.019    16.085
ATOM     23  C   UNL d   1       9.108  17.846  -1.041 -0.25 -0.01    +0.045    16.085
ATOM     24  C   UNL d   1      10.641  19.544  -0.797 -0.20 -0.00    -0.022    16.085
ATOM     25  C   UNL d   1       7.426  16.105  -1.543 -0.25 -0.02    +0.049    16.085
ATOM     26  C   UNL d   1       5.908  14.695  -2.500 -0.18 +0.00    -0.018    16.085
ATOM     27  C   UNL d   1       6.205  15.476  -1.341 -0.24 -0.00    +0.003    16.085
ATOM     28  C   UNL d   1       8.261  16.868  -0.683 -0.33 -0.02    +0.052    16.085
ATOM     29  C   UNL d   1      11.596  20.570  -0.291 -0.19 +0.01    +0.046    16.085
ATOM     30  C   UNL d   1       4.709  13.832  -2.707 -0.18 -0.00    +0.046    16.085
ATOM     31  H   UNL d   1       8.970  18.099  -3.146 +0.05 -0.01    +0.166    16.085
ATOM     32  H   UNL d   1       8.700  16.067  -3.253 +0.06 -0.03    +0.166    16.085
ATOM     33  C   UNL d   1       6.721  13.938  -7.754 -0.06 -0.00    +0.141    16.085
ATOM     34  C   UNL d   1       5.556  14.780  -7.309 -0.01 -0.02    +0.306    16.085
ATOM     35  O   UNL d   1       4.494  14.368  -6.875 -0.07 +0.04    -0.251    16.085
ATOM     36  O   UNL d   1       5.793  16.098  -7.433 +0.01 +0.03    -0.481    16.085
ATOM     37  H   UNL d   1       6.484  16.289  -6.763 +0.04 -0.02    +0.295    16.085
ATOM     38  C   UNL d   1       5.395  15.546  -0.162 -0.26 -0.01    +0.017    16.085
ATOM     39  C   UNL d   1       4.586  16.566   0.162 -0.15 -0.04    +0.092    16.085
ATOM     40  C   UNL d   1       3.793  16.507   1.393 -0.08 -0.16    +0.330    16.085
ATOM     41  O   UNL d   1       2.928  15.702   1.682 -0.14 +0.08    -0.246    16.085
ATOM     42  O   UNL d   1       4.156  17.496   2.224 -0.06 +0.27    -0.477    16.085
ATOM     43  H   UNL d   1       5.080  17.275   2.463 -0.40 -0.39    +0.295    16.085
ATOM     44  C   UNL d   1      11.555  20.032  -7.973 -0.07 -0.01    +0.141    16.085
ATOM     45  C   UNL d   1      12.691  19.223  -7.407 -0.10 -0.04    +0.306    16.085
ATOM     46  O   UNL d   1      13.172  19.326  -6.292 -0.25 +0.07    -0.251    16.085
ATOM     47  O   UNL d   1      13.185  18.339  -8.293 -0.06 +0.02    -0.481    16.085
ATOM     48  H   UNL d   1      14.077  18.680  -8.514 +0.09 -0.05    +0.295    16.085
ATOM     49  C   UNL d   1       9.937  18.418   1.389 -0.33 -0.02    +0.048    16.085
ATOM     50  C   UNL d   1       8.976  19.363   2.110 -0.29 -0.00    +0.125    16.085
ATOM     51  C   UNL d   1       7.597  19.278   1.520 -0.12 -0.06    +0.305    16.085
ATOM     52  O   UNL d   1       7.246  19.610   0.402 -0.08 +0.03    -0.251    16.085
ATOM     53  O   UNL d   1       6.703  18.776   2.396 +0.13 +0.04    -0.481    16.085
ATOM     54  H   UNL d   1       6.199  18.120   1.871 -0.25 -0.31    +0.295    16.085
TER
ENDMDL
MODEL        7
USER    Run = 7
USER    Cluster Rank = 67
USER    Number of conformations in this cluster = 1
USER  
USER    RMSD from reference structure       = 29.806 A
USER  
USER    Estimated Free Energy of Binding    =   -3.39 kcal/mol  [=(1)+(2)+(3)-(4)]
USER    Estimated Inhibition Constant, Ki   =    3.30 mM (millimolar)  [Temperature = 298.15 K]
USER    
USER    (1) Final Intermolecular Energy     =   -7.26 kcal/mol
USER        vdW + Hbond + desolv Energy     =   -7.09 kcal/mol
USER        Electrostatic Energy            =   -0.18 kcal/mol
USER    (2) Final Total Internal Energy     =   -3.65 kcal/mol
USER    (3) Torsional Free Energy           =   +3.88 kcal/mol
USER    (4) Unbound System's Energy  [=(2)] =   -3.65 kcal/mol
USER    
USER    
USER  
USER    DPF = D:/Protein_go_brrr/autodock/final/1A3N/heme/dock.dpf
USER    NEWDPF move	heme_opt.pdbqt
USER    NEWDPF about	0.153000 0.018000 -0.028000
USER    NEWDPF tran0	17.314903 -23.656127 16.895715
USER    NEWDPF axisangle0	-0.357473 0.704413 -0.613201 -77.186836
USER    NEWDPF quaternion0	-0.222988 0.439405 -0.382509 -0.781592
USER    NEWDPF dihe0	-96.48 143.98 -21.95 15.23 32.33 76.81 111.80 -140.09 126.58 7.48 60.84 -103.94 114.93 
USER  
USER                              x       y       z    vdW   Elec        q     RMS 
ATOM      1  O   UNL d   1      16.747 -18.167  18.969 -0.39 -0.20    -0.289    29.806
ATOM      2  O   UNL d   1      13.160 -24.512  20.773 -0.01 -0.03    -0.289    29.806
ATOM      3  N   UNL d   1      17.332 -21.164  17.366 -0.13 -0.03    -0.247    29.806
ATOM      4  N   UNL d   1      15.717 -23.104  18.934 -0.08 -0.02    -0.247    29.806
ATOM      5  N   UNL d   1      17.139 -25.220  17.605 -0.05 +0.07    -0.354    29.806
ATOM      6  N   UNL d   1      18.823 -23.200  15.996 +0.01 +0.15    -0.354    29.806
ATOM      7  C   UNL d   1      18.343 -18.933  17.284 -0.27 +0.02    +0.084    29.806
ATOM      8  C   UNL d   1      13.770 -22.232  20.126 -0.09 +0.03    +0.084    29.806
ATOM      9  C   UNL d   1      15.021 -21.968  19.281 -0.15 +0.02    +0.058    29.806
ATOM     10  C   UNL d   1      18.318 -20.382  16.789 -0.25 +0.00    +0.058    29.806
ATOM     11  C   UNL d   1      17.184 -19.029  18.229 -0.26 +0.09    +0.193    29.806
ATOM     12  C   UNL d   1      16.640 -20.423  18.170 -0.23 +0.04    +0.109    29.806
ATOM     13  C   UNL d   1      13.906 -23.725  20.225 -0.02 +0.03    +0.193    29.806
ATOM     14  C   UNL d   1      19.610 -18.621  18.084 -0.21 +0.01    +0.026    29.806
ATOM     15  C   UNL d   1      15.428 -20.731  18.954 -0.26 +0.03    +0.055    29.806
ATOM     16  C   UNL d   1      12.486 -21.904  19.358 -0.09 +0.01    +0.026    29.806
ATOM     17  C   UNL d   1      15.130 -24.127  19.467 -0.07 +0.01    +0.109    29.806
ATOM     18  C   UNL d   1      19.139 -20.804  15.809 -0.29 -0.01    +0.050    29.806
ATOM     19  C   UNL d   1      19.131 -22.099  15.230 -0.22 -0.02    +0.045    29.806
ATOM     20  C   UNL d   1      16.479 -25.945  18.563 -0.08 -0.00    +0.045    29.806
ATOM     21  C   UNL d   1      15.542 -25.537  19.425 -0.07 -0.00    +0.057    29.806
ATOM     22  C   UNL d   1      17.937 -27.322  17.469 -0.07 +0.00    -0.019    29.806
ATOM     23  C   UNL d   1      18.040 -25.966  16.893 -0.12 -0.01    +0.045    29.806
ATOM     24  C   UNL d   1      17.010 -27.303  18.456 -0.05 +0.00    -0.022    29.806
ATOM     25  C   UNL d   1      18.963 -24.355  15.261 -0.15 -0.03    +0.049    29.806
ATOM     26  C   UNL d   1      19.444 -22.546  13.956 -0.19 +0.01    -0.018    29.806
ATOM     27  C   UNL d   1      19.317 -23.969  13.976 -0.13 -0.00    +0.003    29.806
ATOM     28  C   UNL d   1      18.852 -25.630  15.879 -0.17 -0.02    +0.052    29.806
ATOM     29  C   UNL d   1      16.546 -28.425  19.321 -0.02 -0.00    +0.046    29.806
ATOM     30  C   UNL d   1      19.835 -21.704  12.788 -0.16 -0.01    +0.046    29.806
ATOM     31  H   UNL d   1      16.897 -24.253  17.418 -0.04 -0.03    +0.166    29.806
ATOM     32  H   UNL d   1      18.570 -23.149  16.976 -0.36 -0.09    +0.166    29.806
ATOM     33  C   UNL d   1      18.077 -17.868  16.214 -0.13 +0.04    +0.141    29.806
ATOM     34  C   UNL d   1      17.979 -16.481  16.789 -0.13 +0.11    +0.306    29.806
ATOM     35  O   UNL d   1      18.909 -15.720  16.997 -0.23 -0.08    -0.251    29.806
ATOM     36  O   UNL d   1      16.713 -16.125  17.069 -0.03 -0.26    -0.481    29.806
ATOM     37  H   UNL d   1      16.525 -16.543  17.936 +0.15 +0.20    +0.295    29.806
ATOM     38  C   UNL d   1      19.566 -24.835  12.863 -0.12 -0.01    +0.017    29.806
ATOM     39  C   UNL d   1      20.570 -25.721  12.781 -0.10 -0.05    +0.092    29.806
ATOM     40  C   UNL d   1      20.704 -26.564  11.590 -0.01 -0.09    +0.330    29.806
ATOM     41  O   UNL d   1      21.104 -26.237  10.489 -0.02 +0.04    -0.246    29.806
ATOM     42  O   UNL d   1      20.320 -27.820  11.867 +0.00 +0.09    -0.477    29.806
ATOM     43  H   UNL d   1      20.623 -27.960  12.788 +0.02 -0.08    +0.295    29.806
ATOM     44  C   UNL d   1      13.764 -21.588  21.516 -0.19 +0.05    +0.141    29.806
ATOM     45  C   UNL d   1      15.087 -21.696  22.227 -0.15 +0.06    +0.306    29.806
ATOM     46  O   UNL d   1      16.127 -21.143  21.915 -0.70 -0.09    -0.251    29.806
ATOM     47  O   UNL d   1      15.036 -22.524  23.286 -0.12 -0.02    -0.481    29.806
ATOM     48  H   UNL d   1      15.965 -22.805  23.427 -0.45 -0.10    +0.295    29.806
ATOM     49  C   UNL d   1      18.757 -28.494  17.016 -0.05 -0.01    +0.048    29.806
ATOM     50  C   UNL d   1      20.138 -28.066  16.523 -0.09 -0.04    +0.125    29.806
ATOM     51  C   UNL d   1      20.326 -28.422  15.075 -0.04 -0.10    +0.305    29.806
ATOM     52  O   UNL d   1      21.356 -28.760  14.520 -0.04 +0.09    -0.251    29.806
ATOM     53  O   UNL d   1      19.176 -28.319  14.378 +0.00 +0.10    -0.481    29.806
ATOM     54  H   UNL d   1      19.362 -28.796  13.542 +0.02 -0.05    +0.295    29.806
TER
ENDMDL
MODEL       94
USER    Run = 94
USER    Cluster Rank = 68
USER    Number of conformations in this cluster = 1
USER  
USER    RMSD from reference structure       = 14.832 A
USER  
USER    Estimated Free Energy of Binding    =   -3.38 kcal/mol  [=(1)+(2)+(3)-(4)]
USER    Estimated Inhibition Constant, Ki   =    3.33 mM (millimolar)  [Temperature = 298.15 K]
USER    
USER    (1) Final Intermolecular Energy     =   -7.26 kcal/mol
USER        vdW + Hbond + desolv Energy     =   -7.46 kcal/mol
USER        Electrostatic Energy            =   +0.20 kcal/mol
USER    (2) Final Total Internal Energy     =   -3.86 kcal/mol
USER    (3) Torsional Free Energy           =   +3.88 kcal/mol
USER    (4) Unbound System's Energy  [=(2)] =   -3.86 kcal/mol
USER    
USER    
USER  
USER    DPF = D:/Protein_go_brrr/autodock/final/1A3N/heme/dock.dpf
USER    NEWDPF move	heme_opt.pdbqt
USER    NEWDPF about	0.153000 0.018000 -0.028000
USER    NEWDPF tran0	6.545414 8.721760 -13.251127
USER    NEWDPF axisangle0	0.001448 -0.572084 0.820194 -143.754546
USER    NEWDPF quaternion0	0.001376 -0.543704 0.779506 -0.311053
USER    NEWDPF dihe0	111.22 149.56 -103.38 -27.30 -179.39 130.72 124.31 -91.27 -22.27 -22.54 -109.60 -147.94 -1.22 
USER  
USER                              x       y       z    vdW   Elec        q     RMS 
ATOM      1  O   UNL d   1      10.031   5.096 -16.326 -0.02 +0.02    -0.289    14.832
ATOM      2  O   UNL d   1      11.576   9.820 -10.697 -0.22 -0.12    -0.289    14.832
ATOM      3  N   UNL d   1       7.652   7.149 -14.904 -0.09 +0.16    -0.247    14.832
ATOM      4  N   UNL d   1       9.095   8.387 -12.621 +0.06 +0.25    -0.247    14.832
ATOM      5  N   UNL d   1       6.553   9.277 -11.617 -0.02 +0.30    -0.354    14.832
ATOM      6  N   UNL d   1       5.062   7.974 -13.979 -0.09 +0.25    -0.354    14.832
ATOM      7  C   UNL d   1       7.613   5.355 -16.574 -0.09 -0.01    +0.084    14.832
ATOM      8  C   UNL d   1      11.526   8.569 -12.801 -0.13 +0.00    +0.084    14.832
ATOM      9  C   UNL d   1      10.199   8.061 -13.377 -0.11 -0.02    +0.058    14.832
ATOM     10  C   UNL d   1       6.853   6.399 -15.751 -0.15 -0.02    +0.058    14.832
ATOM     11  C   UNL d   1       8.987   5.660 -16.056 -0.06 -0.03    +0.193    14.832
ATOM     12  C   UNL d   1       8.881   6.782 -15.071 -0.10 -0.04    +0.109    14.832
ATOM     13  C   UNL d   1      10.973   9.210 -11.559 -0.21 +0.02    +0.193    14.832
ATOM     14  C   UNL d   1       7.240   3.925 -16.174 -0.16 -0.00    +0.026    14.832
ATOM     15  C   UNL d   1      10.130   7.320 -14.493 -0.10 -0.02    +0.055    14.832
ATOM     16  C   UNL d   1      12.148   9.656 -13.682 -0.11 +0.01    +0.026    14.832
ATOM     17  C   UNL d   1       9.491   9.023 -11.566 -0.11 -0.05    +0.109    14.832
ATOM     18  C   UNL d   1       5.534   6.607 -15.925 -0.17 -0.02    +0.050    14.832
ATOM     19  C   UNL d   1       4.766   7.605 -15.272 -0.13 -0.02    +0.045    14.832
ATOM     20  C   UNL d   1       7.348   9.577 -10.542 -0.19 -0.02    +0.045    14.832
ATOM     21  C   UNL d   1       8.680   9.515 -10.442 -0.22 -0.01    +0.057    14.832
ATOM     22  C   UNL d   1       5.166   9.928  -9.965 -0.19 +0.01    -0.019    14.832
ATOM     23  C   UNL d   1       5.219   9.458 -11.364 -0.14 -0.02    +0.045    14.832
ATOM     24  C   UNL d   1       6.430   9.998  -9.484 -0.21 +0.00    -0.022    14.832
ATOM     25  C   UNL d   1       4.141   8.883 -13.513 -0.15 -0.02    +0.049    14.832
ATOM     26  C   UNL d   1       3.647   8.320 -15.669 -0.10 +0.00    -0.018    14.832
ATOM     27  C   UNL d   1       3.268   9.140 -14.562 -0.12 -0.00    +0.003    14.832
ATOM     28  C   UNL d   1       4.146   9.294 -12.153 -0.20 -0.02    +0.052    14.832
ATOM     29  C   UNL d   1       6.892  10.427  -8.133 -0.19 +0.01    +0.046    14.832
ATOM     30  C   UNL d   1       2.970   8.249 -16.996 -0.06 -0.00    +0.046    14.832
ATOM     31  H   UNL d   1       6.954   9.029 -12.515 -0.28 -0.19    +0.166    14.832
ATOM     32  H   UNL d   1       5.832   7.585 -13.447 -0.45 -0.25    +0.166    14.832
ATOM     33  C   UNL d   1       7.556   5.547 -18.093 -0.02 -0.00    +0.141    14.832
ATOM     34  C   UNL d   1       7.313   6.979 -18.487 +0.00 -0.01    +0.306    14.832
ATOM     35  O   UNL d   1       6.419   7.385 -19.209 -0.00 +0.00    -0.251    14.832
ATOM     36  O   UNL d   1       8.209   7.824 -17.947 +0.01 +0.02    -0.481    14.832
ATOM     37  H   UNL d   1       7.978   7.852 -16.994 +0.02 -0.03    +0.295    14.832
ATOM     38  C   UNL d   1       2.147  10.030 -14.540 -0.15 -0.00    +0.017    14.832
ATOM     39  C   UNL d   1       0.859   9.654 -14.545 -0.15 -0.01    +0.092    14.832
ATOM     40  C   UNL d   1      -0.197  10.669 -14.503 -0.09 -0.05    +0.330    14.832
ATOM     41  O   UNL d   1      -1.155  10.776 -15.245 -0.16 +0.03    -0.246    14.832
ATOM     42  O   UNL d   1       0.016  11.516 -13.484 -0.16 +0.17    -0.477    14.832
ATOM     43  H   UNL d   1       0.469  10.965 -12.813 +0.09 -0.09    +0.295    14.832
ATOM     44  C   UNL d   1      12.551   7.486 -12.449 -0.14 +0.02    +0.141    14.832
ATOM     45  C   UNL d   1      12.179   6.690 -11.227 -0.14 +0.03    +0.306    14.832
ATOM     46  O   UNL d   1      11.385   5.767 -11.174 -0.13 +0.09    -0.251    14.832
ATOM     47  O   UNL d   1      12.812   7.121 -10.120 -0.47 -0.21    -0.481    14.832
ATOM     48  H   UNL d   1      12.345   7.947  -9.873 -0.10 +0.19    +0.295    14.832
ATOM     49  C   UNL d   1       3.897  10.248  -9.232 -0.31 -0.01    +0.048    14.832
ATOM     50  C   UNL d   1       3.426  11.676  -9.506 -0.26 -0.03    +0.125    14.832
ATOM     51  C   UNL d   1       2.907  11.810 -10.910 -0.15 -0.06    +0.305    14.832
ATOM     52  O   UNL d   1       3.504  12.229 -11.886 -0.04 +0.04    -0.251    14.832
ATOM     53  O   UNL d   1       1.624  11.409 -11.013 -0.68 +0.07    -0.481    14.832
ATOM     54  H   UNL d   1       1.272  11.931 -11.764 +0.11 -0.08    +0.295    14.832
TER
ENDMDL
MODEL       51
USER    Run = 51
USER    Cluster Rank = 69
USER    Number of conformations in this cluster = 1
USER  
USER    RMSD from reference structure       = 40.533 A
USER  
USER    Estimated Free Energy of Binding    =   -3.35 kcal/mol  [=(1)+(2)+(3)-(4)]
USER    Estimated Inhibition Constant, Ki   =    3.53 mM (millimolar)  [Temperature = 298.15 K]
USER    
USER    (1) Final Intermolecular Energy     =   -7.22 kcal/mol
USER        vdW + Hbond + desolv Energy     =   -7.03 kcal/mol
USER        Electrostatic Energy            =   -0.19 kcal/mol
USER    (2) Final Total Internal Energy     =   -3.83 kcal/mol
USER    (3) Torsional Free Energy           =   +3.88 kcal/mol
USER    (4) Unbound System's Energy  [=(2)] =   -3.83 kcal/mol
USER    
USER    
USER  
USER    DPF = D:/Protein_go_brrr/autodock/final/1A3N/heme/dock.dpf
USER    NEWDPF move	heme_opt.pdbqt
USER    NEWDPF about	0.153000 0.018000 -0.028000
USER    NEWDPF tran0	39.499171 21.157930 7.334079
USER    NEWDPF axisangle0	-0.628447 0.757484 -0.176842 -115.131107
USER    NEWDPF quaternion0	-0.530413 0.639321 -0.149255 -0.536334
USER    NEWDPF dihe0	168.77 -78.74 94.85 -53.54 -146.74 -124.26 -65.63 10.63 16.04 -141.76 -56.56 14.75 37.06 
USER  
USER                              x       y       z    vdW   Elec        q     RMS 
ATOM      1  O   UNL d   1      38.397  26.770   8.764 -0.00 -0.07    -0.289    40.533
ATOM      2  O   UNL d   1      40.310  20.885  13.018 +0.09 -0.01    -0.289    40.533
ATOM      3  N   UNL d   1      38.814  23.595   7.482 -0.64 -0.30    -0.247    40.533
ATOM      4  N   UNL d   1      39.839  22.050   9.804 -0.10 -0.13    -0.247    40.533
ATOM      5  N   UNL d   1      40.557  19.953   7.973 -0.07 -0.12    -0.354    40.533
ATOM      6  N   UNL d   1      39.509  21.571   5.568 -0.07 -0.16    -0.354    40.533
ATOM      7  C   UNL d   1      38.398  25.809   6.516 -0.03 +0.03    +0.084    40.533
ATOM      8  C   UNL d   1      39.244  22.856  12.033 -0.15 +0.02    +0.084    40.533
ATOM      9  C   UNL d   1      39.228  23.059  10.514 -0.13 +0.03    +0.058    40.533
ATOM     10  C   UNL d   1      38.629  24.310   6.310 -0.07 +0.04    +0.058    40.533
ATOM     11  C   UNL d   1      38.467  25.814   8.014 -0.02 +0.09    +0.193    40.533
ATOM     12  C   UNL d   1      38.697  24.410   8.480 +0.02 +0.10    +0.109    40.533
ATOM     13  C   UNL d   1      40.009  21.563  12.055 -0.16 +0.03    +0.193    40.533
ATOM     14  C   UNL d   1      39.552  26.650   5.965 -0.00 +0.00    +0.026    40.533
ATOM     15  C   UNL d   1      38.709  24.153   9.934 -0.10 +0.04    +0.055    40.533
ATOM     16  C   UNL d   1      37.838  22.605  12.587 -0.26 +0.01    +0.026    40.533
ATOM     17  C   UNL d   1      40.316  21.187  10.642 -0.18 +0.03    +0.109    40.533
ATOM     18  C   UNL d   1      38.560  23.749   5.088 -0.10 +0.02    +0.050    40.533
ATOM     19  C   UNL d   1      38.676  22.363   4.811 -0.15 +0.02    +0.045    40.533
ATOM     20  C   UNL d   1      41.175  19.497   9.108 -0.16 +0.01    +0.045    40.533
ATOM     21  C   UNL d   1      41.101  19.977  10.354 -0.26 +0.01    +0.057    40.533
ATOM     22  C   UNL d   1      41.777  18.164   7.354 -0.23 -0.00    -0.019    40.533
ATOM     23  C   UNL d   1      40.860  19.212   6.862 -0.19 +0.01    +0.045    40.533
ATOM     24  C   UNL d   1      41.958  18.337   8.684 -0.24 -0.00    -0.022    40.533
ATOM     25  C   UNL d   1      39.538  20.288   5.072 -0.16 +0.01    +0.049    40.533
ATOM     26  C   UNL d   1      38.121  21.567   3.821 -0.21 -0.00    -0.018    40.533
ATOM     27  C   UNL d   1      38.654  20.253   4.002 -0.22 +0.00    +0.003    40.533
ATOM     28  C   UNL d   1      40.447  19.326   5.591 -0.19 +0.01    +0.052    40.533
ATOM     29  C   UNL d   1      42.784  17.528   9.626 -0.24 +0.00    +0.046    40.533
ATOM     30  C   UNL d   1      37.154  21.997   2.771 -0.07 +0.01    +0.046    40.533
ATOM     31  H   UNL d   1      39.887  20.714   8.009 +0.04 +0.09    +0.166    40.533
ATOM     32  H   UNL d   1      40.050  21.915   6.353 +0.03 +0.08    +0.166    40.533
ATOM     33  C   UNL d   1      37.040  26.337   6.039 -0.03 +0.03    +0.141    40.533
ATOM     34  C   UNL d   1      35.887  25.741   6.800 -0.05 +0.13    +0.306    40.533
ATOM     35  O   UNL d   1      35.253  24.748   6.486 -0.44 -0.20    -0.251    40.533
ATOM     36  O   UNL d   1      35.595  26.427   7.920 -0.02 -0.04    -0.481    40.533
ATOM     37  H   UNL d   1      36.368  27.016   8.057 +0.03 +0.03    +0.295    40.533
ATOM     38  C   UNL d   1      38.353  19.120   3.181 -0.28 +0.00    +0.017    40.533
ATOM     39  C   UNL d   1      37.945  17.924   3.631 -0.37 +0.01    +0.092    40.533
ATOM     40  C   UNL d   1      37.653  16.847   2.681 -0.28 +0.01    +0.330    40.533
ATOM     41  O   UNL d   1      36.632  16.192   2.591 -0.49 +0.01    -0.246    40.533
ATOM     42  O   UNL d   1      38.699  16.657   1.862 -0.05 -0.01    -0.477    40.533
ATOM     43  H   UNL d   1      39.144  15.866   2.229 +0.16 -0.00    +0.295    40.533
ATOM     44  C   UNL d   1      39.972  23.938  12.837 -0.06 +0.01    +0.141    40.533
ATOM     45  C   UNL d   1      39.728  23.842  14.320 -0.05 +0.00    +0.306    40.533
ATOM     46  O   UNL d   1      39.074  24.612  15.000 -0.04 -0.01    -0.251    40.533
ATOM     47  O   UNL d   1      40.350  22.786  14.876 -0.05 +0.04    -0.481    40.533
ATOM     48  H   UNL d   1      39.724  22.040  14.759 -0.42 -0.10    +0.295    40.533
ATOM     49  C   UNL d   1      42.396  17.110   6.483 -0.25 -0.00    +0.048    40.533
ATOM     50  C   UNL d   1      41.368  16.465   5.553 -0.05 -0.00    +0.125    40.533
ATOM     51  C   UNL d   1      41.800  16.575   4.118 -0.06 +0.01    +0.305    40.533
ATOM     52  O   UNL d   1      42.848  17.027   3.690 -0.06 -0.01    -0.251    40.533
ATOM     53  O   UNL d   1      40.860  16.110   3.272 -0.03 -0.02    -0.481    40.533
ATOM     54  H   UNL d   1      40.713  16.851   2.648 +0.10 +0.01    +0.295    40.533
TER
ENDMDL
MODEL       82
USER    Run = 82
USER    Cluster Rank = 70
USER    Number of conformations in this cluster = 1
USER  
USER    RMSD from reference structure       = 41.976 A
USER  
USER    Estimated Free Energy of Binding    =   -3.32 kcal/mol  [=(1)+(2)+(3)-(4)]
USER    Estimated Inhibition Constant, Ki   =    3.69 mM (millimolar)  [Temperature = 298.15 K]
USER    
USER    (1) Final Intermolecular Energy     =   -7.20 kcal/mol
USER        vdW + Hbond + desolv Energy     =   -6.66 kcal/mol
USER        Electrostatic Energy            =   -0.54 kcal/mol
USER    (2) Final Total Internal Energy     =   -4.27 kcal/mol
USER    (3) Torsional Free Energy           =   +3.88 kcal/mol
USER    (4) Unbound System's Energy  [=(2)] =   -4.27 kcal/mol
USER    
USER    
USER  
USER    DPF = D:/Protein_go_brrr/autodock/final/1A3N/heme/dock.dpf
USER    NEWDPF move	heme_opt.pdbqt
USER    NEWDPF about	0.153000 0.018000 -0.028000
USER    NEWDPF tran0	18.975253 -11.778803 38.485873
USER    NEWDPF axisangle0	0.910585 0.400777 -0.101060 -50.276901
USER    NEWDPF quaternion0	0.386823 0.170253 -0.042931 -0.905284
USER    NEWDPF dihe0	-88.98 171.03 -178.19 34.33 36.53 8.04 141.39 -179.25 132.35 -36.79 67.94 -73.73 130.86 
USER  
USER                              x       y       z    vdW   Elec        q     RMS 
ATOM      1  O   UNL d   1      14.242 -11.368  41.977 -0.05 -0.20    -0.289    41.976
ATOM      2  O   UNL d   1      15.033 -14.171  35.055 -0.37 +0.17    -0.289    41.976
ATOM      3  N   UNL d   1      17.226 -11.267  40.250 -0.10 -0.05    -0.247    41.976
ATOM      4  N   UNL d   1      16.652 -12.848  37.801 -0.08 -0.01    -0.247    41.976
ATOM      5  N   UNL d   1      19.481 -12.924  37.297 -0.02 -0.02    -0.354    41.976
ATOM      6  N   UNL d   1      20.070 -11.300  39.851 -0.06 -0.04    -0.354    41.976
ATOM      7  C   UNL d   1      16.524 -10.685  42.525 -0.08 +0.03    +0.084    41.976
ATOM      8  C   UNL d   1      14.327 -12.950  37.056 -0.30 -0.02    +0.084    41.976
ATOM      9  C   UNL d   1      15.352 -12.509  38.105 -0.23 +0.00    +0.058    41.976
ATOM     10  C   UNL d   1      17.640 -10.784  41.480 -0.10 +0.01    +0.058    41.976
ATOM     11  C   UNL d   1      15.403 -11.180  41.662 -0.08 +0.09    +0.193    41.976
ATOM     12  C   UNL d   1      15.951 -11.475  40.300 -0.14 +0.03    +0.109    41.976
ATOM     13  C   UNL d   1      15.280 -13.635  36.118 -0.31 -0.06    +0.193    41.976
ATOM     14  C   UNL d   1      16.731 -11.667  43.681 -0.02 +0.00    +0.026    41.976
ATOM     15  C   UNL d   1      15.005 -11.892  39.245 -0.22 +0.01    +0.055    41.976
ATOM     16  C   UNL d   1      13.701 -11.753  36.334 -0.52 -0.01    +0.026    41.976
ATOM     17  C   UNL d   1      16.656 -13.509  36.688 -0.27 -0.01    +0.109    41.976
ATOM     18  C   UNL d   1      18.886 -10.345  41.738 -0.08 +0.01    +0.050    41.976
ATOM     19  C   UNL d   1      19.958 -10.319  40.810 -0.09 +0.01    +0.045    41.976
ATOM     20  C   UNL d   1      19.051 -13.822  36.356 -0.30 +0.00    +0.045    41.976
ATOM     21  C   UNL d   1      17.799 -14.127  36.000 -0.05 -0.00    +0.057    41.976
ATOM     22  C   UNL d   1      21.335 -13.839  36.402 -0.18 -0.00    -0.019    41.976
ATOM     23  C   UNL d   1      20.846 -12.865  37.398 -0.11 +0.00    +0.045    41.976
ATOM     24  C   UNL d   1      20.267 -14.401  35.787 -0.30 -0.00    -0.022    41.976
ATOM     25  C   UNL d   1      21.224 -11.132  39.121 -0.11 +0.01    +0.049    41.976
ATOM     26  C   UNL d   1      21.046  -9.471  40.676 -0.08 -0.00    -0.018    41.976
ATOM     27  C   UNL d   1      21.832  -9.978  39.595 -0.10 +0.00    +0.003    41.976
ATOM     28  C   UNL d   1      21.637 -12.110  38.176 -0.12 +0.01    +0.052    41.976
ATOM     29  C   UNL d   1      20.247 -15.428  34.706 -0.33 +0.00    +0.046    41.976
ATOM     30  C   UNL d   1      21.340  -8.262  41.498 -0.04 +0.01    +0.046    41.976
ATOM     31  H   UNL d   1      18.828 -12.325  37.791 +0.07 +0.01    +0.166    41.976
ATOM     32  H   UNL d   1      19.405 -12.056  39.742 +0.02 +0.02    +0.166    41.976
ATOM     33  C   UNL d   1      16.226  -9.271  43.035 -0.09 +0.06    +0.141    41.976
ATOM     34  C   UNL d   1      15.122  -9.245  44.058 -0.06 +0.15    +0.306    41.976
ATOM     35  O   UNL d   1      15.257  -9.340  45.266 -0.01 -0.08    -0.251    41.976
ATOM     36  O   UNL d   1      13.906  -9.099  43.504 -0.15 -0.54    -0.481    41.976
ATOM     37  H   UNL d   1      13.609 -10.014  43.313 +0.02 +0.33    +0.295    41.976
ATOM     38  C   UNL d   1      23.060  -9.408  39.129 -0.08 +0.00    +0.017    41.976
ATOM     39  C   UNL d   1      24.120 -10.104  38.691 -0.07 +0.04    +0.092    41.976
ATOM     40  C   UNL d   1      25.315  -9.396  38.222 -0.04 +0.31    +0.330    41.976
ATOM     41  O   UNL d   1      25.534  -8.201  38.262 -0.66 -0.34    -0.246    41.976
ATOM     42  O   UNL d   1      26.201 -10.270  37.720 -0.12 -0.50    -0.477    41.976
ATOM     43  H   UNL d   1      25.830 -11.144  37.958 +0.03 +0.17    +0.295    41.976
ATOM     44  C   UNL d   1      13.251 -13.923  37.552 -0.15 -0.05    +0.141    41.976
ATOM     45  C   UNL d   1      13.676 -15.365  37.482 -0.07 -0.12    +0.306    41.976
ATOM     46  O   UNL d   1      14.131 -16.034  38.394 -0.03 +0.05    -0.251    41.976
ATOM     47  O   UNL d   1      13.531 -15.885  36.250 -0.07 +0.44    -0.481    41.976
ATOM     48  H   UNL d   1      13.187 -15.145  35.707 -0.18 -0.44    +0.295    41.976
ATOM     49  C   UNL d   1      22.784 -14.139  36.157 -0.13 +0.00    +0.048    41.976
ATOM     50  C   UNL d   1      23.546 -14.369  37.462 -0.04 +0.01    +0.125    41.976
ATOM     51  C   UNL d   1      24.515 -13.251  37.722 -0.02 +0.05    +0.305    41.976
ATOM     52  O   UNL d   1      25.205 -13.081  38.712 -0.01 -0.05    -0.251    41.976
ATOM     53  O   UNL d   1      24.559 -12.373  36.700 -0.01 -0.10    -0.481    41.976
ATOM     54  H   UNL d   1      25.492 -12.075  36.682 +0.05 +0.09    +0.295    41.976
TER
ENDMDL
MODEL       80
USER    Run = 80
USER    Cluster Rank = 71
USER    Number of conformations in this cluster = 1
USER  
USER    RMSD from reference structure       = 26.431 A
USER  
USER    Estimated Free Energy of Binding    =   -3.30 kcal/mol  [=(1)+(2)+(3)-(4)]
USER    Estimated Inhibition Constant, Ki   =    3.82 mM (millimolar)  [Temperature = 298.15 K]
USER    
USER    (1) Final Intermolecular Energy     =   -7.18 kcal/mol
USER        vdW + Hbond + desolv Energy     =   -7.15 kcal/mol
USER        Electrostatic Energy            =   -0.02 kcal/mol
USER    (2) Final Total Internal Energy     =   -4.71 kcal/mol
USER    (3) Torsional Free Energy           =   +3.88 kcal/mol
USER    (4) Unbound System's Energy  [=(2)] =   -4.71 kcal/mol
USER    
USER    
USER  
USER    DPF = D:/Protein_go_brrr/autodock/final/1A3N/heme/dock.dpf
USER    NEWDPF move	heme_opt.pdbqt
USER    NEWDPF about	0.153000 0.018000 -0.028000
USER    NEWDPF tran0	26.838099 12.746439 -9.593439
USER    NEWDPF axisangle0	0.435577 -0.506359 0.744226 -87.934479
USER    NEWDPF quaternion0	0.302398 -0.351538 0.516677 -0.719737
USER    NEWDPF dihe0	176.08 -152.93 -105.70 -8.95 -150.61 52.73 135.15 -112.43 13.13 -53.58 -85.48 -74.28 -8.52 
USER  
USER                              x       y       z    vdW   Elec        q     RMS 
ATOM      1  O   UNL d   1      23.869   9.727 -13.695 -0.01 -0.15    -0.289    26.431
ATOM      2  O   UNL d   1      31.196  11.224 -13.017 -0.02 -0.06    -0.289    26.431
ATOM      3  N   UNL d   1      25.150  11.680 -11.157 -0.05 -0.13    -0.247    26.431
ATOM      4  N   UNL d   1      28.088  11.452 -11.536 -0.08 -0.15    -0.247    26.431
ATOM      5  N   UNL d   1      28.421  12.600  -8.921 -0.05 -0.09    -0.354    26.431
ATOM      6  N   UNL d   1      25.371  12.815  -8.529 -0.05 -0.10    -0.354    26.431
ATOM      7  C   UNL d   1      22.938  10.768 -11.689 -0.07 +0.04    +0.084    26.431
ATOM      8  C   UNL d   1      28.889  10.957 -13.791 -0.05 +0.03    +0.084    26.431
ATOM      9  C   UNL d   1      27.715  11.130 -12.822 -0.08 +0.03    +0.058    26.431
ATOM     10  C   UNL d   1      23.829  11.589 -10.752 -0.10 +0.03    +0.058    26.431
ATOM     11  C   UNL d   1      23.985  10.427 -12.705 -0.03 +0.11    +0.193    26.431
ATOM     12  C   UNL d   1      25.276  11.058 -12.284 -0.06 +0.07    +0.109    26.431
ATOM     13  C   UNL d   1      29.999  11.203 -12.808 -0.05 +0.07    +0.193    26.431
ATOM     14  C   UNL d   1      22.447   9.477 -11.030 -0.13 +0.01    +0.026    26.431
ATOM     15  C   UNL d   1      26.439  10.934 -13.186 -0.07 +0.03    +0.055    26.431
ATOM     16  C   UNL d   1      28.918  12.061 -14.852 -0.01 +0.01    +0.026    26.431
ATOM     17  C   UNL d   1      29.381  11.483 -11.477 -0.08 +0.05    +0.109    26.431
ATOM     18  C   UNL d   1      23.321  12.231  -9.683 -0.15 +0.02    +0.050    26.431
ATOM     19  C   UNL d   1      24.050  13.079  -8.811 -0.17 +0.01    +0.045    26.431
ATOM     20  C   UNL d   1      29.711  12.210  -9.173 -0.14 +0.01    +0.045    26.431
ATOM     21  C   UNL d   1      30.233  11.721 -10.302 -0.12 +0.01    +0.057    26.431
ATOM     22  C   UNL d   1      29.570  12.944  -7.015 -0.27 -0.00    -0.019    26.431
ATOM     23  C   UNL d   1      28.239  13.057  -7.643 -0.16 +0.01    +0.045    26.431
ATOM     24  C   UNL d   1      30.437  12.443  -7.926 -0.25 -0.00    -0.022    26.431
ATOM     25  C   UNL d   1      25.853  13.704  -7.596 -0.14 +0.01    +0.049    26.431
ATOM     26  C   UNL d   1      23.674  14.190  -8.071 -0.27 -0.00    -0.018    26.431
ATOM     27  C   UNL d   1      24.823  14.592  -7.321 -0.17 +0.00    +0.003    26.431
ATOM     28  C   UNL d   1      27.146  13.537  -7.030 -0.20 +0.01    +0.052    26.431
ATOM     29  C   UNL d   1      31.893  12.160  -7.771 -0.28 -0.02    +0.046    26.431
ATOM     30  C   UNL d   1      22.333  14.841  -8.062 -0.38 +0.01    +0.046    26.431
ATOM     31  H   UNL d   1      27.721  12.610  -9.655 +0.03 +0.05    +0.166    26.431
ATOM     32  H   UNL d   1      25.887  12.042  -8.932 +0.04 +0.07    +0.166    26.431
ATOM     33  C   UNL d   1      21.786  11.539 -12.343 -0.06 +0.05    +0.141    26.431
ATOM     34  C   UNL d   1      22.264  12.678 -13.202 -0.01 +0.09    +0.306    26.431
ATOM     35  O   UNL d   1      22.351  13.847 -12.865 -0.01 -0.06    -0.251    26.431
ATOM     36  O   UNL d   1      22.611  12.284 -14.440 +0.01 -0.12    -0.481    26.431
ATOM     37  H   UNL d   1      22.551  11.305 -14.413 +0.01 +0.08    +0.295    26.431
ATOM     38  C   UNL d   1      24.868  15.696  -6.410 -0.34 +0.00    +0.017    26.431
ATOM     39  C   UNL d   1      25.542  15.714  -5.250 -0.28 +0.02    +0.092    26.431
ATOM     40  C   UNL d   1      25.521  16.917  -4.413 -0.36 +0.05    +0.330    26.431
ATOM     41  O   UNL d   1      24.549  17.548  -4.041 -0.96 -0.08    -0.246    26.431
ATOM     42  O   UNL d   1      26.771  17.264  -4.071 -0.20 -0.04    -0.477    26.431
ATOM     43  H   UNL d   1      27.321  16.910  -4.801 +0.14 +0.04    +0.295    26.431
ATOM     44  C   UNL d   1      29.019   9.570 -14.430 -0.05 +0.06    +0.141    26.431
ATOM     45  C   UNL d   1      30.109   8.733 -13.815 -0.05 +0.15    +0.306    26.431
ATOM     46  O   UNL d   1      29.991   7.957 -12.883 -0.07 -0.19    -0.251    26.431
ATOM     47  O   UNL d   1      31.305   8.938 -14.396 +0.00 -0.13    -0.481    26.431
ATOM     48  H   UNL d   1      31.588   9.821 -14.074 +0.02 +0.07    +0.295    26.431
ATOM     49  C   UNL d   1      29.865  13.319  -5.592 -0.36 -0.00    +0.048    26.431
ATOM     50  C   UNL d   1      30.330  14.769  -5.470 -0.29 +0.00    +0.125    26.431
ATOM     51  C   UNL d   1      29.181  15.676  -5.132 -0.18 +0.03    +0.305    26.431
ATOM     52  O   UNL d   1      28.749  16.605  -5.791 -0.11 -0.02    -0.251    26.431
ATOM     53  O   UNL d   1      28.626  15.365  -3.943 -0.57 -0.12    -0.481    26.431
ATOM     54  H   UNL d   1      28.008  16.104  -3.768 +0.18 +0.11    +0.295    26.431
TER
ENDMDL
MODEL       70
USER    Run = 70
USER    Cluster Rank = 72
USER    Number of conformations in this cluster = 1
USER  
USER    RMSD from reference structure       = 41.526 A
USER  
USER    Estimated Free Energy of Binding    =   -3.27 kcal/mol  [=(1)+(2)+(3)-(4)]
USER    Estimated Inhibition Constant, Ki   =    4.01 mM (millimolar)  [Temperature = 298.15 K]
USER    
USER    (1) Final Intermolecular Energy     =   -7.15 kcal/mol
USER        vdW + Hbond + desolv Energy     =   -7.17 kcal/mol
USER        Electrostatic Energy            =   +0.02 kcal/mol
USER    (2) Final Total Internal Energy     =   -4.11 kcal/mol
USER    (3) Torsional Free Energy           =   +3.88 kcal/mol
USER    (4) Unbound System's Energy  [=(2)] =   -4.11 kcal/mol
USER    
USER    
USER  
USER    DPF = D:/Protein_go_brrr/autodock/final/1A3N/heme/dock.dpf
USER    NEWDPF move	heme_opt.pdbqt
USER    NEWDPF about	0.153000 0.018000 -0.028000
USER    NEWDPF tran0	43.506775 15.980175 5.804715
USER    NEWDPF axisangle0	0.288629 -0.803930 0.519990 -87.300732
USER    NEWDPF quaternion0	0.199228 -0.554917 0.358926 -0.723565
USER    NEWDPF dihe0	-39.34 128.33 -111.86 54.04 15.70 111.22 119.32 70.64 -141.33 -36.81 -81.89 -109.12 3.88 
USER  
USER                              x       y       z    vdW   Elec        q     RMS 
ATOM      1  O   UNL d   1      41.119  14.981   0.508 -0.08 +0.01    -0.289    41.526
ATOM      2  O   UNL d   1      47.801  13.059   3.343 -0.02 +0.00    -0.289    41.526
ATOM      3  N   UNL d   1      42.148  15.918   3.664 -0.06 -0.01    -0.247    41.526
ATOM      4  N   UNL d   1      44.722  14.470   4.000 +0.01 +0.03    -0.247    41.526
ATOM      5  N   UNL d   1      44.598  15.092   6.804 -0.11 +0.01    -0.354    41.526
ATOM      6  N   UNL d   1      41.919  16.575   6.450 -0.10 +0.02    -0.354    41.526
ATOM      7  C   UNL d   1      40.061  16.119   2.395 -0.18 +0.00    +0.084    41.526
ATOM      8  C   UNL d   1      45.958  13.903   1.971 -0.08 -0.00    +0.084    41.526
ATOM      9  C   UNL d   1      44.695  14.473   2.623 -0.10 -0.01    +0.058    41.526
ATOM     10  C   UNL d   1      40.840  16.372   3.689 -0.16 +0.00    +0.058    41.526
ATOM     11  C   UNL d   1      41.166  15.458   1.627 -0.10 -0.00    +0.193    41.526
ATOM     12  C   UNL d   1      42.386  15.418   2.495 -0.12 -0.00    +0.109    41.526
ATOM     13  C   UNL d   1      46.691  13.541   3.232 -0.06 -0.01    +0.193    41.526
ATOM     14  C   UNL d   1      38.926  15.112   2.596 -0.45 -0.00    +0.026    41.526
ATOM     15  C   UNL d   1      43.636  14.890   1.913 -0.15 -0.00    +0.055    41.526
ATOM     16  C   UNL d   1      46.754  14.983   1.232 -0.02 -0.00    +0.026    41.526
ATOM     17  C   UNL d   1      45.831  13.929   4.390 -0.12 -0.01    +0.109    41.526
ATOM     18  C   UNL d   1      40.301  17.061   4.712 -0.31 +0.00    +0.050    41.526
ATOM     19  C   UNL d   1      40.972  17.415   5.910 -0.25 +0.00    +0.045    41.526
ATOM     20  C   UNL d   1      45.644  14.206   6.805 -0.21 -0.00    +0.045    41.526
ATOM     21  C   UNL d   1      46.275  13.654   5.764 -0.21 -0.00    +0.057    41.526
ATOM     22  C   UNL d   1      45.102  14.710   8.966 -0.21 +0.00    -0.019    41.526
ATOM     23  C   UNL d   1      44.200  15.454   8.064 -0.26 -0.00    +0.045    41.526
ATOM     24  C   UNL d   1      45.955  13.974   8.215 -0.19 +0.00    -0.022    41.526
ATOM     25  C   UNL d   1      42.373  17.068   7.651 -0.22 -0.00    +0.049    41.526
ATOM     26  C   UNL d   1      40.833  18.499   6.763 -0.20 -0.00    -0.018    41.526
ATOM     27  C   UNL d   1      41.735  18.284   7.851 -0.24 +0.00    +0.003    41.526
ATOM     28  C   UNL d   1      43.241  16.298   8.473 -0.24 -0.00    +0.052    41.526
ATOM     29  C   UNL d   1      47.052  13.071   8.665 -0.14 -0.00    +0.046    41.526
ATOM     30  C   UNL d   1      39.922  19.665   6.581 -0.17 +0.02    +0.046    41.526
ATOM     31  H   UNL d   1      44.237  15.479   5.939 +0.05 -0.00    +0.166    41.526
ATOM     32  H   UNL d   1      42.198  15.699   6.025 +0.05 +0.01    +0.166    41.526
ATOM     33  C   UNL d   1      39.575  17.375   1.664 -0.12 +0.00    +0.141    41.526
ATOM     34  C   UNL d   1      38.172  17.761   2.046 -0.18 +0.01    +0.306    41.526
ATOM     35  O   UNL d   1      37.815  18.208   3.123 -0.26 -0.02    -0.251    41.526
ATOM     36  O   UNL d   1      37.291  17.567   1.048 -0.11 -0.00    -0.481    41.526
ATOM     37  H   UNL d   1      36.503  17.181   1.486 -0.13 -0.04    +0.295    41.526
ATOM     38  C   UNL d   1      41.901  19.160   8.971 -0.24 +0.00    +0.017    41.526
ATOM     39  C   UNL d   1      41.473  18.913  10.218 -0.29 +0.01    +0.092    41.526
ATOM     40  C   UNL d   1      41.722  19.888  11.283 -0.13 +0.03    +0.330    41.526
ATOM     41  O   UNL d   1      40.912  20.604  11.840 -0.17 -0.03    -0.246    41.526
ATOM     42  O   UNL d   1      43.025  19.900  11.602 -0.01 -0.03    -0.477    41.526
ATOM     43  H   UNL d   1      43.235  18.958  11.767 +0.07 +0.01    +0.295    41.526
ATOM     44  C   UNL d   1      45.746  12.669   1.087 -0.14 +0.00    +0.141    41.526
ATOM     45  C   UNL d   1      45.776  11.375   1.855 -0.17 -0.00    +0.306    41.526
ATOM     46  O   UNL d   1      44.897  10.938   2.578 -0.33 +0.04    -0.251    41.526
ATOM     47  O   UNL d   1      46.932  10.707   1.694 -0.02 -0.01    -0.481    41.526
ATOM     48  H   UNL d   1      47.606  11.268   2.135 +0.07 +0.01    +0.295    41.526
ATOM     49  C   UNL d   1      45.036  14.775  10.464 -0.18 -0.00    +0.048    41.526
ATOM     50  C   UNL d   1      45.708  16.036  11.009 -0.07 -0.00    +0.125    41.526
ATOM     51  C   UNL d   1      44.689  17.094  11.321 -0.05 +0.00    +0.305    41.526
ATOM     52  O   UNL d   1      43.806  17.052  12.160 -0.10 -0.01    -0.251    41.526
ATOM     53  O   UNL d   1      44.829  18.178  10.531 -0.00 -0.01    -0.481    41.526
ATOM     54  H   UNL d   1      44.896  18.925  11.162 +0.03 +0.01    +0.295    41.526
TER
ENDMDL
MODEL       56
USER    Run = 56
USER    Cluster Rank = 73
USER    Number of conformations in this cluster = 1
USER  
USER    RMSD from reference structure       = 40.481 A
USER  
USER    Estimated Free Energy of Binding    =   -3.12 kcal/mol  [=(1)+(2)+(3)-(4)]
USER    Estimated Inhibition Constant, Ki   =    5.17 mM (millimolar)  [Temperature = 298.15 K]
USER    
USER    (1) Final Intermolecular Energy     =   -7.00 kcal/mol
USER        vdW + Hbond + desolv Energy     =   -6.85 kcal/mol
USER        Electrostatic Energy            =   -0.14 kcal/mol
USER    (2) Final Total Internal Energy     =   -3.98 kcal/mol
USER    (3) Torsional Free Energy           =   +3.88 kcal/mol
USER    (4) Unbound System's Energy  [=(2)] =   -3.98 kcal/mol
USER    
USER    
USER  
USER    DPF = D:/Protein_go_brrr/autodock/final/1A3N/heme/dock.dpf
USER    NEWDPF move	heme_opt.pdbqt
USER    NEWDPF about	0.153000 0.018000 -0.028000
USER    NEWDPF tran0	31.610338 -23.769293 22.214729
USER    NEWDPF axisangle0	-0.795939 -0.202998 -0.570327 137.456201
USER    NEWDPF quaternion0	-0.741711 -0.189168 -0.531470 0.362794
USER    NEWDPF dihe0	141.35 -160.46 38.93 49.05 -135.92 -118.85 132.40 47.73 21.48 144.56 -92.27 39.73 6.69 
USER  
USER                              x       y       z    vdW   Elec        q     RMS 
ATOM      1  O   UNL d   1      29.993 -28.850  19.698 -0.00 +0.01    -0.289    40.481
ATOM      2  O   UNL d   1      29.692 -21.784  17.174 -0.25 -0.04    -0.289    40.481
ATOM      3  N   UNL d   1      30.944 -26.141  21.610 -0.06 +0.02    -0.247    40.481
ATOM      4  N   UNL d   1      30.769 -23.866  19.706 -0.15 +0.01    -0.247    40.481
ATOM      5  N   UNL d   1      32.246 -22.287  21.601 -0.10 +0.04    -0.354    40.481
ATOM      6  N   UNL d   1      32.440 -24.657  23.561 -0.03 +0.03    -0.354    40.481
ATOM      7  C   UNL d   1      31.033 -28.574  21.894 -0.01 -0.00    +0.084    40.481
ATOM      8  C   UNL d   1      29.211 -24.091  17.836 -0.23 +0.02    +0.084    40.481
ATOM      9  C   UNL d   1      29.903 -24.714  19.053 -0.17 +0.00    +0.058    40.481
ATOM     10  C   UNL d   1      31.327 -27.176  22.446 -0.04 -0.00    +0.058    40.481
ATOM     11  C   UNL d   1      30.400 -28.145  20.604 -0.01 -0.01    +0.193    40.481
ATOM     12  C   UNL d   1      30.381 -26.648  20.562 -0.06 -0.01    +0.109    40.481
ATOM     13  C   UNL d   1      29.874 -22.743  17.897 -0.25 +0.02    +0.193    40.481
ATOM     14  C   UNL d   1      32.315 -29.350  21.582 -0.00 -0.00    +0.026    40.481
ATOM     15  C   UNL d   1      29.716 -25.993  19.418 -0.11 -0.00    +0.055    40.481
ATOM     16  C   UNL d   1      27.708 -23.911  18.068 -0.45 +0.02    +0.026    40.481
ATOM     17  C   UNL d   1      30.800 -22.739  19.070 -0.22 -0.01    +0.109    40.481
ATOM     18  C   UNL d   1      31.831 -27.000  23.682 -0.03 -0.00    +0.050    40.481
ATOM     19  C   UNL d   1      32.056 -25.748  24.308 -0.05 -0.00    +0.045    40.481
ATOM     20  C   UNL d   1      32.265 -21.440  20.523 -0.30 -0.01    +0.045    40.481
ATOM     21  C   UNL d   1      31.624 -21.556  19.355 -0.32 -0.01    +0.057    40.481
ATOM     22  C   UNL d   1      33.607 -20.581  22.160 -0.23 +0.00    -0.019    40.481
ATOM     23  C   UNL d   1      33.027 -21.852  22.638 -0.16 -0.01    +0.045    40.481
ATOM     24  C   UNL d   1      33.151 -20.342  20.907 -0.33 +0.00    -0.022    40.481
ATOM     25  C   UNL d   1      32.691 -23.578  24.376 -0.07 -0.01    +0.049    40.481
ATOM     26  C   UNL d   1      32.021 -25.358  25.638 -0.05 +0.00    -0.018    40.481
ATOM     27  C   UNL d   1      32.403 -23.981  25.673 -0.06 -0.00    +0.003    40.481
ATOM     28  C   UNL d   1      33.251 -22.382  23.851 -0.12 -0.01    +0.052    40.481
ATOM     29  C   UNL d   1      33.443 -19.185  20.014 -0.53 -0.01    +0.046    40.481
ATOM     30  C   UNL d   1      31.652 -26.208  26.806 -0.02 -0.00    +0.046    40.481
ATOM     31  H   UNL d   1      31.639 -23.099  21.621 +0.05 -0.01    +0.166    40.481
ATOM     32  H   UNL d   1      32.556 -24.680  22.555 +0.03 -0.01    +0.166    40.481
ATOM     33  C   UNL d   1      30.053 -29.414  22.720 -0.01 -0.01    +0.141    40.481
ATOM     34  C   UNL d   1      28.647 -28.881  22.670 -0.01 -0.02    +0.306    40.481
ATOM     35  O   UNL d   1      28.199 -27.967  23.341 -0.05 +0.02    -0.251    40.481
ATOM     36  O   UNL d   1      27.880 -29.528  21.774 +0.01 +0.03    -0.481    40.481
ATOM     37  H   UNL d   1      28.463 -29.655  20.996 +0.01 -0.02    +0.295    40.481
ATOM     38  C   UNL d   1      32.513 -23.185  26.858 -0.08 -0.00    +0.017    40.481
ATOM     39  C   UNL d   1      31.622 -22.265  27.259 -0.17 -0.04    +0.092    40.481
ATOM     40  C   UNL d   1      31.844 -21.528  28.506 -0.01 -0.30    +0.330    40.481
ATOM     41  O   UNL d   1      31.124 -21.488  29.484 -0.12 +0.22    -0.246    40.481
ATOM     42  O   UNL d   1      33.010 -20.866  28.449 +0.01 +0.55    -0.477    40.481
ATOM     43  H   UNL d   1      33.206 -20.817  27.490 +0.01 -0.28    +0.295    40.481
ATOM     44  C   UNL d   1      29.488 -24.778  16.495 -0.15 +0.05    +0.141    40.481
ATOM     45  C   UNL d   1      28.437 -25.788  16.118 -0.07 +0.14    +0.306    40.481
ATOM     46  O   UNL d   1      27.410 -25.571  15.498 -0.62 -0.25    -0.251    40.481
ATOM     47  O   UNL d   1      28.724 -27.023  16.568 +0.01 -0.06    -0.481    40.481
ATOM     48  H   UNL d   1      28.434 -27.623  15.848 +0.03 +0.02    +0.295    40.481
ATOM     49  C   UNL d   1      34.555 -19.735  22.957 -0.23 -0.01    +0.048    40.481
ATOM     50  C   UNL d   1      33.830 -18.936  24.041 -0.33 -0.06    +0.125    40.481
ATOM     51  C   UNL d   1      33.730 -19.727  25.314 -0.17 -0.18    +0.305    40.481
ATOM     52  O   UNL d   1      34.588 -20.426  25.824 -0.06 +0.11    -0.251    40.481
ATOM     53  O   UNL d   1      32.518 -19.605  25.890 -0.13 +0.47    -0.481    40.481
ATOM     54  H   UNL d   1      32.719 -19.399  26.826 -0.40 -0.54    +0.295    40.481
TER
ENDMDL
MODEL       16
USER    Run = 16
USER    Cluster Rank = 74
USER    Number of conformations in this cluster = 1
USER  
USER    RMSD from reference structure       = 43.861 A
USER  
USER    Estimated Free Energy of Binding    =   -3.07 kcal/mol  [=(1)+(2)+(3)-(4)]
USER    Estimated Inhibition Constant, Ki   =    5.60 mM (millimolar)  [Temperature = 298.15 K]
USER    
USER    (1) Final Intermolecular Energy     =   -6.95 kcal/mol
USER        vdW + Hbond + desolv Energy     =   -6.89 kcal/mol
USER        Electrostatic Energy            =   -0.06 kcal/mol
USER    (2) Final Total Internal Energy     =   -4.10 kcal/mol
USER    (3) Torsional Free Energy           =   +3.88 kcal/mol
USER    (4) Unbound System's Energy  [=(2)] =   -4.10 kcal/mol
USER    
USER    
USER  
USER    DPF = D:/Protein_go_brrr/autodock/final/1A3N/heme/dock.dpf
USER    NEWDPF move	heme_opt.pdbqt
USER    NEWDPF about	0.153000 0.018000 -0.028000
USER    NEWDPF tran0	38.971089 -18.211744 22.804187
USER    NEWDPF axisangle0	0.016037 0.480042 -0.877099 -172.087664
USER    NEWDPF quaternion0	0.015999 0.478898 -0.875009 -0.068993
USER    NEWDPF dihe0	105.70 174.24 -82.86 -118.25 -141.96 -21.42 179.87 -48.15 50.97 -108.54 -59.80 -56.57 36.93 
USER  
USER                              x       y       z    vdW   Elec        q     RMS 
ATOM      1  O   UNL d   1      44.780 -19.063  22.271 -0.02 +0.04    -0.289    43.861
ATOM      2  O   UNL d   1      40.882 -14.028  26.251 -0.43 +0.05    -0.289    43.861
ATOM      3  N   UNL d   1      41.339 -18.857  22.165 -0.02 +0.07    -0.247    43.861
ATOM      4  N   UNL d   1      40.711 -16.831  24.245 -0.10 +0.07    -0.247    43.861
ATOM      5  N   UNL d   1      37.963 -17.660  24.092 -0.06 +0.09    -0.354    43.861
ATOM      6  N   UNL d   1      38.626 -19.773  21.948 -0.06 +0.05    -0.354    43.861
ATOM      7  C   UNL d   1      43.009 -20.394  21.238 -0.06 -0.01    +0.084    43.861
ATOM      8  C   UNL d   1      42.440 -15.180  24.755 -0.16 -0.02    +0.084    43.861
ATOM      9  C   UNL d   1      42.011 -16.446  24.005 -0.16 -0.02    +0.058    43.861
ATOM     10  C   UNL d   1      41.539 -20.000  21.409 -0.10 -0.01    +0.058    43.861
ATOM     11  C   UNL d   1      43.606 -19.260  22.016 -0.05 -0.04    +0.193    43.861
ATOM     12  C   UNL d   1      42.494 -18.384  22.504 -0.04 -0.03    +0.109    43.861
ATOM     13  C   UNL d   1      41.154 -14.940  25.495 -0.13 -0.05    +0.193    43.861
ATOM     14  C   UNL d   1      43.338 -21.709  21.948 -0.02 -0.00    +0.026    43.861
ATOM     15  C   UNL d   1      42.849 -17.144  23.223 -0.14 -0.02    +0.055    43.861
ATOM     16  C   UNL d   1      42.685 -14.009  23.800 -0.26 -0.01    +0.026    43.861
ATOM     17  C   UNL d   1      40.191 -16.014  25.104 -0.16 -0.03    +0.109    43.861
ATOM     18  C   UNL d   1      40.553 -20.676  20.788 -0.13 -0.00    +0.050    43.861
ATOM     19  C   UNL d   1      39.177 -20.337  20.819 -0.06 -0.00    +0.045    43.861
ATOM     20  C   UNL d   1      37.904 -16.853  25.198 -0.19 -0.01    +0.045    43.861
ATOM     21  C   UNL d   1      38.852 -16.060  25.708 -0.23 -0.01    +0.057    43.861
ATOM     22  C   UNL d   1      35.893 -17.905  24.945 -0.18 +0.01    -0.019    43.861
ATOM     23  C   UNL d   1      36.795 -18.336  23.858 -0.19 -0.01    +0.045    43.861
ATOM     24  C   UNL d   1      36.554 -17.026  25.734 -0.18 +0.00    -0.022    43.861
ATOM     25  C   UNL d   1      37.269 -19.611  21.794 -0.19 -0.01    +0.049    43.861
ATOM     26  C   UNL d   1      38.159 -20.510  19.895 -0.18 +0.00    -0.018    43.861
ATOM     27  C   UNL d   1      36.960 -20.032  20.508 -0.27 -0.00    +0.003    43.861
ATOM     28  C   UNL d   1      36.456 -19.192  22.882 -0.20 -0.01    +0.052    43.861
ATOM     29  C   UNL d   1      36.065 -16.308  26.945 -0.20 -0.01    +0.046    43.861
ATOM     30  C   UNL d   1      38.290 -21.083  18.524 -0.27 -0.00    +0.046    43.861
ATOM     31  H   UNL d   1      38.777 -17.665  23.487 +0.07 -0.04    +0.166    43.861
ATOM     32  H   UNL d   1      39.158 -19.555  22.782 +0.04 -0.03    +0.166    43.861
ATOM     33  C   UNL d   1      43.527 -20.388  19.796 -0.07 -0.01    +0.141    43.861
ATOM     34  C   UNL d   1      44.279 -19.130  19.455 -0.07 -0.04    +0.306    43.861
ATOM     35  O   UNL d   1      43.796 -18.095  19.029 -0.16 +0.05    -0.251    43.861
ATOM     36  O   UNL d   1      45.601 -19.241  19.673 -0.00 +0.03    -0.481    43.861
ATOM     37  H   UNL d   1      45.699 -19.161  20.646 +0.03 -0.03    +0.295    43.861
ATOM     38  C   UNL d   1      35.663 -20.041  19.901 -0.37 -0.00    +0.017    43.861
ATOM     39  C   UNL d   1      34.498 -19.959  20.563 -0.31 -0.01    +0.092    43.861
ATOM     40  C   UNL d   1      33.235 -19.961  19.820 -0.27 -0.05    +0.330    43.861
ATOM     41  O   UNL d   1      33.054 -19.642  18.660 -0.37 +0.04    -0.246    43.861
ATOM     42  O   UNL d   1      32.237 -20.388  20.608 -0.16 +0.10    -0.477    43.861
ATOM     43  H   UNL d   1      32.689 -20.663  21.432 +0.16 -0.06    +0.295    43.861
ATOM     44  C   UNL d   1      43.609 -15.354  25.730 -0.06 -0.02    +0.141    43.861
ATOM     45  C   UNL d   1      43.661 -14.289  26.792 -0.05 -0.05    +0.306    43.861
ATOM     46  O   UNL d   1      43.864 -14.457  27.982 -0.02 +0.04    -0.251    43.861
ATOM     47  O   UNL d   1      43.427 -13.059  26.299 -0.09 +0.07    -0.481    43.861
ATOM     48  H   UNL d   1      42.472 -12.905  26.462 +0.10 -0.04    +0.295    43.861
ATOM     49  C   UNL d   1      34.486 -18.399  25.117 -0.09 -0.03    +0.048    43.861
ATOM     50  C   UNL d   1      33.710 -18.378  23.801 -0.17 -0.07    +0.125    43.861
ATOM     51  C   UNL d   1      33.220 -19.753  23.445 -0.22 -0.12    +0.305    43.861
ATOM     52  O   UNL d   1      33.878 -20.773  23.342 -0.09 +0.06    -0.251    43.861
ATOM     53  O   UNL d   1      31.891 -19.771  23.218 -0.17 +0.23    -0.481    43.861
ATOM     54  H   UNL d   1      31.771 -19.166  22.457 -0.09 -0.13    +0.295    43.861
TER
ENDMDL
MODEL       81
USER    Run = 81
USER    Cluster Rank = 75
USER    Number of conformations in this cluster = 1
USER  
USER    RMSD from reference structure       = 41.065 A
USER  
USER    Estimated Free Energy of Binding    =   -2.67 kcal/mol  [=(1)+(2)+(3)-(4)]
USER    Estimated Inhibition Constant, Ki   =   11.01 mM (millimolar)  [Temperature = 298.15 K]
USER    
USER    (1) Final Intermolecular Energy     =   -6.55 kcal/mol
USER        vdW + Hbond + desolv Energy     =   -6.25 kcal/mol
USER        Electrostatic Energy            =   -0.30 kcal/mol
USER    (2) Final Total Internal Energy     =   -4.66 kcal/mol
USER    (3) Torsional Free Energy           =   +3.88 kcal/mol
USER    (4) Unbound System's Energy  [=(2)] =   -4.66 kcal/mol
USER    
USER    
USER  
USER    DPF = D:/Protein_go_brrr/autodock/final/1A3N/heme/dock.dpf
USER    NEWDPF move	heme_opt.pdbqt
USER    NEWDPF about	0.153000 0.018000 -0.028000
USER    NEWDPF tran0	18.761288 15.404118 35.633656
USER    NEWDPF axisangle0	0.876912 0.385946 -0.286481 -150.062867
USER    NEWDPF quaternion0	0.847156 0.372850 -0.276760 -0.258289
USER    NEWDPF dihe0	109.25 -174.33 -129.66 -44.17 179.88 86.04 126.29 -83.46 -22.09 -29.06 -92.24 -94.31 -4.42 
USER  
USER                              x       y       z    vdW   Elec        q     RMS 
ATOM      1  O   UNL d   1      16.699  11.250  39.274 -0.05 -0.10    -0.289    41.065
ATOM      2  O   UNL d   1      13.932  17.974  37.397 -0.03 -0.06    -0.289    41.065
ATOM      3  N   UNL d   1      18.351  13.430  37.172 -0.05 -0.06    -0.247    41.065
ATOM      4  N   UNL d   1      16.390  15.629  36.790 -0.11 -0.10    -0.247    41.065
ATOM      5  N   UNL d   1      18.006  16.566  34.605 -0.10 -0.07    -0.354    41.065
ATOM      6  N   UNL d   1      20.025  14.270  34.996 -0.13 -0.02    -0.354    41.065
ATOM      7  C   UNL d   1      18.726  11.124  37.913 -0.14 -0.01    +0.084    41.065
ATOM      8  C   UNL d   1      14.751  15.987  38.568 -0.06 +0.03    +0.084    41.065
ATOM      9  C   UNL d   1      15.893  15.150  37.982 -0.12 +0.02    +0.058    41.065
ATOM     10  C   UNL d   1      19.175  12.321  37.071 -0.19 -0.00    +0.058    41.065
ATOM     11  C   UNL d   1      17.513  11.758  38.524 -0.08 +0.05    +0.193    41.065
ATOM     12  C   UNL d   1      17.409  13.163  38.017 -0.09 +0.04    +0.109    41.065
ATOM     13  C   UNL d   1      14.666  17.008  37.469 -0.06 +0.05    +0.193    41.065
ATOM     14  C   UNL d   1      18.284   9.944  37.045 -0.24 -0.00    +0.026    41.065
ATOM     15  C   UNL d   1      16.334  14.020  38.557 -0.12 +0.02    +0.055    41.065
ATOM     16  C   UNL d   1      15.168  16.690  39.863 -0.02 +0.00    +0.026    41.065
ATOM     17  C   UNL d   1      15.707  16.675  36.450 -0.14 +0.03    +0.109    41.065
ATOM     18  C   UNL d   1      20.326  12.298  36.372 -0.29 -0.02    +0.050    41.065
ATOM     19  C   UNL d   1      20.862  13.384  35.634 -0.26 -0.01    +0.045    41.065
ATOM     20  C   UNL d   1      16.899  17.357  34.435 -0.22 +0.01    +0.045    41.065
ATOM     21  C   UNL d   1      15.831  17.485  35.229 -0.15 +0.01    +0.057    41.065
ATOM     22  C   UNL d   1      18.309  17.671  32.665 -0.41 -0.00    -0.019    41.065
ATOM     23  C   UNL d   1      18.913  16.687  33.586 -0.30 +0.01    +0.045    41.065
ATOM     24  C   UNL d   1      17.117  18.064  33.174 -0.33 -0.00    -0.022    41.065
ATOM     25  C   UNL d   1      20.753  15.185  34.270 -0.16 -0.00    +0.049    41.065
ATOM     26  C   UNL d   1      22.167  13.753  35.347 -0.18 +0.00    -0.018    41.065
ATOM     27  C   UNL d   1      22.093  14.902  34.501 -0.16 -0.00    +0.003    41.065
ATOM     28  C   UNL d   1      20.108  16.105  33.400 -0.23 +0.00    +0.052    41.065
ATOM     29  C   UNL d   1      16.144  19.047  32.617 -0.36 +0.00    +0.046    41.065
ATOM     30  C   UNL d   1      23.409  13.082  35.828 -0.14 -0.02    +0.046    41.065
ATOM     31  H   UNL d   1      18.140  16.023  35.451 +0.05 +0.04    +0.166    41.065
ATOM     32  H   UNL d   1      19.015  14.214  35.034 +0.06 +0.05    +0.166    41.065
ATOM     33  C   UNL d   1      19.709  10.683  39.003 -0.03 -0.07    +0.141    41.065
ATOM     34  C   UNL d   1      20.603  11.801  39.464 -0.04 -0.10    +0.306    41.065
ATOM     35  O   UNL d   1      21.822  11.782  39.496 -0.07 +0.11    -0.251    41.065
ATOM     36  O   UNL d   1      19.915  12.887  39.857 +0.01 +0.03    -0.481    41.065
ATOM     37  H   UNL d   1      19.583  13.285  39.024 +0.05 -0.01    +0.295    41.065
ATOM     38  C   UNL d   1      23.218  15.599  33.954 -0.14 -0.00    +0.017    41.065
ATOM     39  C   UNL d   1      23.442  15.803  32.647 -0.17 -0.00    +0.092    41.065
ATOM     40  C   UNL d   1      24.627  16.550  32.218 -0.06 -0.02    +0.330    41.065
ATOM     41  O   UNL d   1      25.756  16.125  32.055 -0.03 +0.02    -0.246    41.065
ATOM     42  O   UNL d   1      24.309  17.836  32.001 -0.03 +0.02    -0.477    41.065
ATOM     43  H   UNL d   1      23.376  17.898  32.291 +0.06 -0.01    +0.295    41.065
ATOM     44  C   UNL d   1      13.416  15.254  38.739 -0.06 +0.06    +0.141    41.065
ATOM     45  C   UNL d   1      12.643  15.119  37.455 -0.08 +0.19    +0.306    41.065
ATOM     46  O   UNL d   1      12.808  14.273  36.593 -0.09 -0.28    -0.251    41.065
ATOM     47  O   UNL d   1      11.714  16.080  37.310 -0.01 -0.21    -0.481    41.065
ATOM     48  H   UNL d   1      12.193  16.917  37.490 +0.03 +0.10    +0.295    41.065
ATOM     49  C   UNL d   1      18.939  18.119  31.379 -0.36 -0.00    +0.048    41.065
ATOM     50  C   UNL d   1      19.876  19.307  31.589 -0.26 -0.02    +0.125    41.065
ATOM     51  C   UNL d   1      21.268  18.842  31.913 -0.12 -0.02    +0.305    41.065
ATOM     52  O   UNL d   1      21.737  18.613  33.013 -0.07 +0.01    -0.251    41.065
ATOM     53  O   UNL d   1      22.022  18.698  30.805 -0.08 +0.04    -0.481    41.065
ATOM     54  H   UNL d   1      22.878  19.110  31.044 +0.07 -0.03    +0.295    41.065
TER
ENDMDL
MODEL       63
USER    Run = 63
USER    Cluster Rank = 76
USER    Number of conformations in this cluster = 1
USER  
USER    RMSD from reference structure       = 24.287 A
USER  
USER    Estimated Free Energy of Binding    =   -2.66 kcal/mol  [=(1)+(2)+(3)-(4)]
USER    Estimated Inhibition Constant, Ki   =   11.31 mM (millimolar)  [Temperature = 298.15 K]
USER    
USER    (1) Final Intermolecular Energy     =   -6.53 kcal/mol
USER        vdW + Hbond + desolv Energy     =   -6.21 kcal/mol
USER        Electrostatic Energy            =   -0.32 kcal/mol
USER    (2) Final Total Internal Energy     =   -3.87 kcal/mol
USER    (3) Torsional Free Energy           =   +3.88 kcal/mol
USER    (4) Unbound System's Energy  [=(2)] =   -3.87 kcal/mol
USER    
USER    
USER  
USER    DPF = D:/Protein_go_brrr/autodock/final/1A3N/heme/dock.dpf
USER    NEWDPF move	heme_opt.pdbqt
USER    NEWDPF about	0.153000 0.018000 -0.028000
USER    NEWDPF tran0	24.515218 13.236677 -8.989077
USER    NEWDPF axisangle0	-0.441758 -0.754770 0.484945 -41.754950
USER    NEWDPF quaternion0	-0.157430 -0.268978 0.172820 -0.934345
USER    NEWDPF dihe0	174.64 -55.72 -100.19 -57.89 50.20 -82.16 120.13 8.74 147.50 -39.72 -43.98 -12.20 24.22 
USER  
USER                              x       y       z    vdW   Elec        q     RMS 
ATOM      1  O   UNL d   1      19.288  12.584 -11.636 -0.09 -0.19    -0.289    24.287
ATOM      2  O   UNL d   1      24.436   7.520  -9.576 -0.42 -0.43    -0.289    24.287
ATOM      3  N   UNL d   1      22.306  13.460 -10.216 -0.10 -0.07    -0.247    24.287
ATOM      4  N   UNL d   1      23.502  10.840  -9.482 -0.06 -0.11    -0.247    24.287
ATOM      5  N   UNL d   1      25.418  12.267  -7.882 -0.06 -0.11    -0.354    24.287
ATOM      6  N   UNL d   1      24.159  14.979  -8.633 -0.08 -0.07    -0.354    24.287
ATOM      7  C   UNL d   1      20.281  14.679 -10.862 -0.13 +0.03    +0.084    24.287
ATOM      8  C   UNL d   1      22.801   8.890 -10.777 -0.11 +0.05    +0.084    24.287
ATOM      9  C   UNL d   1      22.647  10.381 -10.460 -0.09 +0.03    +0.058    24.287
ATOM     10  C   UNL d   1      21.688  14.698 -10.258 -0.16 +0.01    +0.058    24.287
ATOM     11  C   UNL d   1      20.220  13.214 -11.170 -0.08 +0.08    +0.193    24.287
ATOM     12  C   UNL d   1      21.517  12.590 -10.755 -0.11 +0.04    +0.109    24.287
ATOM     13  C   UNL d   1      23.874   8.580  -9.772 -0.13 +0.19    +0.193    24.287
ATOM     14  C   UNL d   1      19.206  15.013  -9.824 -0.32 +0.01    +0.026    24.287
ATOM     15  C   UNL d   1      21.724  11.157 -11.048 -0.11 +0.02    +0.055    24.287
ATOM     16  C   UNL d   1      23.363   8.663 -12.183 -0.08 +0.02    +0.026    24.287
ATOM     17  C   UNL d   1      24.205   9.844  -9.048 -0.17 +0.07    +0.109    24.287
ATOM     18  C   UNL d   1      22.282  15.851  -9.894 -0.17 +0.01    +0.050    24.287
ATOM     19  C   UNL d   1      23.608  15.975  -9.407 -0.12 +0.01    +0.045    24.287
ATOM     20  C   UNL d   1      25.684  10.984  -7.480 -0.23 +0.02    +0.045    24.287
ATOM     21  C   UNL d   1      25.201   9.836  -7.966 -0.28 +0.03    +0.057    24.287
ATOM     22  C   UNL d   1      26.883  12.429  -6.179 -0.22 -0.00    -0.019    24.287
ATOM     23  C   UNL d   1      26.095  13.209  -7.155 -0.10 +0.01    +0.045    24.287
ATOM     24  C   UNL d   1      26.636  11.113  -6.377 -0.32 -0.01    -0.022    24.287
ATOM     25  C   UNL d   1      25.412  15.345  -8.196 -0.13 +0.01    +0.049    24.287
ATOM     26  C   UNL d   1      24.539  16.997  -9.506 -0.08 -0.00    -0.018    24.287
ATOM     27  C   UNL d   1      25.683  16.585  -8.756 -0.08 +0.00    +0.003    24.287
ATOM     28  C   UNL d   1      26.116  14.547  -7.254 -0.19 +0.01    +0.052    24.287
ATOM     29  C   UNL d   1      27.200   9.939  -5.653 -0.25 +0.01    +0.046    24.287
ATOM     30  C   UNL d   1      24.379  18.278 -10.253 -0.05 +0.00    +0.046    24.287
ATOM     31  H   UNL d   1      24.837  12.455  -8.692 +0.05 +0.05    +0.166    24.287
ATOM     32  H   UNL d   1      23.676  14.121  -8.395 +0.05 +0.04    +0.166    24.287
ATOM     33  C   UNL d   1      20.103  15.505 -12.141 -0.04 +0.04    +0.141    24.287
ATOM     34  C   UNL d   1      18.657  15.746 -12.478 -0.03 +0.14    +0.306    24.287
ATOM     35  O   UNL d   1      18.045  16.789 -12.322 -0.02 -0.09    -0.251    24.287
ATOM     36  O   UNL d   1      18.057  14.660 -12.997 -0.03 -0.41    -0.481    24.287
ATOM     37  H   UNL d   1      18.787  14.018 -13.135 +0.04 +0.20    +0.295    24.287
ATOM     38  C   UNL d   1      26.877  17.356  -8.582 -0.05 +0.00    +0.017    24.287
ATOM     39  C   UNL d   1      28.090  16.854  -8.306 -0.03 +0.01    +0.092    24.287
ATOM     40  C   UNL d   1      29.239  17.753  -8.169 +0.00 +0.01    +0.330    24.287
ATOM     41  O   UNL d   1      29.943  18.200  -9.055 -0.00 -0.01    -0.246    24.287
ATOM     42  O   UNL d   1      29.438  18.055  -6.877 +0.00 -0.01    -0.477    24.287
ATOM     43  H   UNL d   1      30.367  17.792  -6.714 +0.05 +0.00    +0.295    24.287
ATOM     44  C   UNL d   1      21.556   8.031 -10.532 -0.14 +0.06    +0.141    24.287
ATOM     45  C   UNL d   1      21.481   7.477  -9.134 -0.12 +0.12    +0.306    24.287
ATOM     46  O   UNL d   1      21.173   8.088  -8.126 -0.09 -0.08    -0.251    24.287
ATOM     47  O   UNL d   1      21.829   6.179  -9.076 -0.04 -0.18    -0.481    24.287
ATOM     48  H   UNL d   1      22.809   6.183  -9.101 +0.12 +0.14    +0.295    24.287
ATOM     49  C   UNL d   1      27.783  13.038  -5.144 -0.27 +0.01    +0.048    24.287
ATOM     50  C   UNL d   1      28.884  13.888  -5.777 -0.27 +0.01    +0.125    24.287
ATOM     51  C   UNL d   1      29.066  15.176  -5.025 -0.19 +0.03    +0.305    24.287
ATOM     52  O   UNL d   1      28.485  15.537  -4.016 -0.71 -0.06    -0.251    24.287
ATOM     53  O   UNL d   1      29.986  15.973  -5.605 -0.06 -0.03    -0.481    24.287
ATOM     54  H   UNL d   1      29.497  16.799  -5.800 +0.10 +0.02    +0.295    24.287
TER
ENDMDL
MODEL       45
USER    Run = 45
USER    Cluster Rank = 77
USER    Number of conformations in this cluster = 1
USER  
USER    RMSD from reference structure       = 27.731 A
USER  
USER    Estimated Free Energy of Binding    =   -2.35 kcal/mol  [=(1)+(2)+(3)-(4)]
USER    Estimated Inhibition Constant, Ki   =   18.93 mM (millimolar)  [Temperature = 298.15 K]
USER    
USER    (1) Final Intermolecular Energy     =   -6.23 kcal/mol
USER        vdW + Hbond + desolv Energy     =   -6.19 kcal/mol
USER        Electrostatic Energy            =   -0.04 kcal/mol
USER    (2) Final Total Internal Energy     =   -4.62 kcal/mol
USER    (3) Torsional Free Energy           =   +3.88 kcal/mol
USER    (4) Unbound System's Energy  [=(2)] =   -4.62 kcal/mol
USER    
USER    
USER  
USER    DPF = D:/Protein_go_brrr/autodock/final/1A3N/heme/dock.dpf
USER    NEWDPF move	heme_opt.pdbqt
USER    NEWDPF about	0.153000 0.018000 -0.028000
USER    NEWDPF tran0	-8.843012 25.559989 15.832321
USER    NEWDPF axisangle0	-0.221482 -0.796542 0.562554 118.198495
USER    NEWDPF quaternion0	-0.190045 -0.683479 0.482704 0.513553
USER    NEWDPF dihe0	-154.88 -177.64 -147.37 39.03 44.47 76.90 129.28 21.02 161.95 -16.80 -70.80 -121.08 13.25 
USER  
USER                              x       y       z    vdW   Elec        q     RMS 
ATOM      1  O   UNL d   1      -4.985  27.110  20.012 -0.03 -0.01    -0.289    27.731
ATOM      2  O   UNL d   1     -12.260  25.299  20.447 -0.02 +0.00    -0.289    27.731
ATOM      3  N   UNL d   1      -6.900  26.392  17.235 -0.08 -0.02    -0.247    27.731
ATOM      4  N   UNL d   1      -9.490  25.516  18.400 -0.08 +0.00    -0.247    27.731
ATOM      5  N   UNL d   1     -10.209  24.505  15.806 -0.11 +0.00    -0.354    27.731
ATOM      6  N   UNL d   1      -7.512  25.399  14.611 -0.15 +0.01    -0.354    27.731
ATOM      7  C   UNL d   1      -4.522  26.834  17.628 -0.16 +0.01    +0.084    27.731
ATOM      8  C   UNL d   1     -10.066  26.372  20.615 -0.03 -0.00    +0.084    27.731
ATOM      9  C   UNL d   1      -9.047  26.250  19.477 -0.07 +0.00    +0.058    27.731
ATOM     10  C   UNL d   1      -5.651  26.500  16.648 -0.20 +0.01    +0.058    27.731
ATOM     11  C   UNL d   1      -5.357  26.913  18.870 -0.04 +0.01    +0.193    27.731
ATOM     12  C   UNL d   1      -6.784  26.652  18.497 -0.07 +0.01    +0.109    27.731
ATOM     13  C   UNL d   1     -11.156  25.542  19.999 -0.05 -0.01    +0.193    27.731
ATOM     14  C   UNL d   1      -3.527  25.679  17.773 -0.36 +0.00    +0.026    27.731
ATOM     15  C   UNL d   1      -7.811  26.769  19.551 -0.06 +0.00    +0.055    27.731
ATOM     16  C   UNL d   1     -10.571  27.810  20.772 -0.01 +0.00    +0.026    27.731
ATOM     17  C   UNL d   1     -10.679  25.076  18.661 -0.09 -0.01    +0.109    27.731
ATOM     18  C   UNL d   1      -5.430  26.416  15.323 -0.16 +0.01    +0.050    27.731
ATOM     19  C   UNL d   1      -6.424  26.196  14.335 -0.18 +0.00    +0.045    27.731
ATOM     20  C   UNL d   1     -11.228  23.977  16.555 -0.14 -0.00    +0.045    27.731
ATOM     21  C   UNL d   1     -11.527  24.200  17.839 -0.16 -0.01    +0.057    27.731
ATOM     22  C   UNL d   1     -11.355  23.132  14.437 -0.26 +0.00    -0.019    27.731
ATOM     23  C   UNL d   1     -10.203  24.053  14.514 -0.26 -0.00    +0.045    27.731
ATOM     24  C   UNL d   1     -11.958  23.092  15.649 -0.24 +0.00    -0.022    27.731
ATOM     25  C   UNL d   1      -8.297  25.249  13.491 -0.20 +0.00    +0.049    27.731
ATOM     26  C   UNL d   1      -6.524  26.605  13.015 -0.25 -0.00    -0.018    27.731
ATOM     27  C   UNL d   1      -7.719  26.020  12.492 -0.23 +0.00    +0.003    27.731
ATOM     28  C   UNL d   1      -9.393  24.344  13.484 -0.23 -0.00    +0.052    27.731
ATOM     29  C   UNL d   1     -13.163  22.320  16.066 -0.25 +0.01    +0.046    27.731
ATOM     30  C   UNL d   1      -5.571  27.487  12.281 -0.23 +0.01    +0.046    27.731
ATOM     31  H   UNL d   1      -9.592  25.216  16.184 +0.05 +0.00    +0.166    27.731
ATOM     32  H   UNL d   1      -7.671  24.959  15.509 -0.02 -0.01    +0.166    27.731
ATOM     33  C   UNL d   1      -3.805  28.165  17.376 -0.13 +0.04    +0.141    27.731
ATOM     34  C   UNL d   1      -2.368  28.142  17.820 -0.17 +0.10    +0.306    27.731
ATOM     35  O   UNL d   1      -1.396  27.961  17.107 -0.29 -0.14    -0.251    27.731
ATOM     36  O   UNL d   1      -2.231  28.352  19.142 -0.05 -0.08    -0.481    27.731
ATOM     37  H   UNL d   1      -3.099  28.103  19.523 +0.08 +0.04    +0.295    27.731
ATOM     38  C   UNL d   1      -8.195  26.175  11.151 -0.17 +0.00    +0.017    27.731
ATOM     39  C   UNL d   1      -7.972  25.314  10.146 -0.18 +0.00    +0.092    27.731
ATOM     40  C   UNL d   1      -8.532  25.580   8.818 -0.06 +0.00    +0.330    27.731
ATOM     41  O   UNL d   1      -8.150  26.395   8.000 -0.06 -0.00    -0.246    27.731
ATOM     42  O   UNL d   1      -9.574  24.767   8.585 -0.02 +0.01    -0.477    27.731
ATOM     43  H   UNL d   1      -9.663  24.256   9.415 +0.06 -0.00    +0.295    27.731
ATOM     44  C   UNL d   1      -9.626  25.789  21.962 -0.05 -0.00    +0.141    27.731
ATOM     45  C   UNL d   1      -9.469  24.292  21.938 -0.11 +0.00    +0.306    27.731
ATOM     46  O   UNL d   1      -8.481  23.671  21.586 -0.20 +0.00    -0.251    27.731
ATOM     47  O   UNL d   1     -10.582  23.651  22.336 -0.07 -0.03    -0.481    27.731
ATOM     48  H   UNL d   1     -11.319  24.232  22.049 +0.07 +0.00    +0.295    27.731
ATOM     49  C   UNL d   1     -11.746  22.372  13.204 -0.25 -0.01    +0.048    27.731
ATOM     50  C   UNL d   1     -12.312  23.293  12.124 -0.07 -0.01    +0.125    27.731
ATOM     51  C   UNL d   1     -11.362  23.409  10.965 -0.05 -0.02    +0.305    27.731
ATOM     52  O   UNL d   1     -10.405  22.699  10.716 -0.11 +0.01    -0.251    27.731
ATOM     53  O   UNL d   1     -11.667  24.450  10.165 +0.00 +0.02    -0.481    27.731
ATOM     54  H   UNL d   1     -11.498  24.113   9.261 +0.03 -0.01    +0.295    27.731
TER
ENDMDL
MODEL       48
USER    Run = 48
USER    Cluster Rank = 78
USER    Number of conformations in this cluster = 1
USER  
USER    RMSD from reference structure       = 33.854 A
USER  
USER    Estimated Free Energy of Binding    =   -2.31 kcal/mol  [=(1)+(2)+(3)-(4)]
USER    Estimated Inhibition Constant, Ki   =   20.24 mM (millimolar)  [Temperature = 298.15 K]
USER    
USER    (1) Final Intermolecular Energy     =   -6.19 kcal/mol
USER        vdW + Hbond + desolv Energy     =   -5.86 kcal/mol
USER        Electrostatic Energy            =   -0.33 kcal/mol
USER    (2) Final Total Internal Energy     =   -4.41 kcal/mol
USER    (3) Torsional Free Energy           =   +3.88 kcal/mol
USER    (4) Unbound System's Energy  [=(2)] =   -4.41 kcal/mol
USER    
USER    
USER  
USER    DPF = D:/Protein_go_brrr/autodock/final/1A3N/heme/dock.dpf
USER    NEWDPF move	heme_opt.pdbqt
USER    NEWDPF about	0.153000 0.018000 -0.028000
USER    NEWDPF tran0	-9.172041 20.775660 28.711515
USER    NEWDPF axisangle0	0.368612 -0.704054 -0.606987 67.841656
USER    NEWDPF quaternion0	0.205703 -0.392895 -0.338727 0.829809
USER    NEWDPF dihe0	129.76 -134.97 -105.82 -33.39 -134.09 4.12 176.70 -167.17 26.93 13.19 -69.10 -46.85 -16.66 
USER  
USER                              x       y       z    vdW   Elec        q     RMS 
ATOM      1  O   UNL d   1     -12.653  20.081  33.418 -0.00 -0.02    -0.289    33.854
ATOM      2  O   UNL d   1      -7.701  15.428  30.221 -0.26 -0.12    -0.289    33.854
ATOM      3  N   UNL d   1     -10.917  20.886  30.549 -0.04 -0.01    -0.247    33.854
ATOM      4  N   UNL d   1      -9.027  18.614  30.234 -0.08 -0.00    -0.247    33.854
ATOM      5  N   UNL d   1      -7.604  20.188  28.294 -0.11 +0.05    -0.354    33.854
ATOM      6  N   UNL d   1      -9.557  22.547  28.641 -0.04 -0.00    -0.354    33.854
ATOM      7  C   UNL d   1     -12.444  22.089  32.041 -0.01 +0.00    +0.084    33.854
ATOM      8  C   UNL d   1      -9.682  16.472  31.211 -0.09 +0.02    +0.084    33.854
ATOM      9  C   UNL d   1      -9.962  17.965  31.009 -0.08 +0.01    +0.058    33.854
ATOM     10  C   UNL d   1     -11.550  22.092  30.798 -0.04 +0.00    +0.058    33.854
ATOM     11  C   UNL d   1     -12.219  20.662  32.441 -0.00 +0.01    +0.193    33.854
ATOM     12  C   UNL d   1     -11.296  20.032  31.444 -0.03 +0.01    +0.109    33.854
ATOM     13  C   UNL d   1      -8.395  16.403  30.438 -0.19 +0.06    +0.193    33.854
ATOM     14  C   UNL d   1     -11.901  23.004  33.142 -0.00 +0.00    +0.026    33.854
ATOM     15  C   UNL d   1     -11.001  18.592  31.582 -0.04 +0.00    +0.055    33.854
ATOM     16  C   UNL d   1     -10.725  15.598  30.508 -0.14 -0.00    +0.026    33.854
ATOM     17  C   UNL d   1      -8.105  17.768  29.904 -0.20 +0.01    +0.109    33.854
ATOM     18  C   UNL d   1     -11.478  23.163  29.986 -0.05 +0.00    +0.050    33.854
ATOM     19  C   UNL d   1     -10.746  23.228  28.773 -0.05 +0.00    +0.045    33.854
ATOM     20  C   UNL d   1      -6.720  19.151  28.451 -0.31 -0.00    +0.045    33.854
ATOM     21  C   UNL d   1      -6.876  18.015  29.137 -0.35 +0.01    +0.057    33.854
ATOM     22  C   UNL d   1      -5.755  20.752  27.138 -0.30 +0.01    -0.019    33.854
ATOM     23  C   UNL d   1      -7.109  21.202  27.518 -0.23 -0.01    +0.045    33.854
ATOM     24  C   UNL d   1      -5.531  19.537  27.692 -0.36 +0.01    -0.022    33.854
ATOM     25  C   UNL d   1      -8.975  22.821  27.426 -0.01 +0.00    +0.049    33.854
ATOM     26  C   UNL d   1     -10.960  23.934  27.599 -0.05 -0.00    -0.018    33.854
ATOM     27  C   UNL d   1      -9.848  23.658  26.744 -0.10 +0.00    +0.003    33.854
ATOM     28  C   UNL d   1      -7.666  22.357  27.123 -0.18 -0.00    +0.052    33.854
ATOM     29  C   UNL d   1      -4.321  18.673  27.589 -0.36 -0.03    +0.046    33.854
ATOM     30  C   UNL d   1     -12.126  24.810  27.286 -0.05 +0.00    +0.046    33.854
ATOM     31  H   UNL d   1      -8.547  20.136  28.664 -0.14 -0.02    +0.166    33.854
ATOM     32  H   UNL d   1      -9.163  21.962  29.369 +0.02 -0.00    +0.166    33.854
ATOM     33  C   UNL d   1     -13.933  22.346  31.780 -0.01 +0.00    +0.141    33.854
ATOM     34  C   UNL d   1     -14.628  21.158  31.173 -0.01 +0.01    +0.306    33.854
ATOM     35  O   UNL d   1     -14.600  20.830  29.999 -0.02 -0.00    -0.251    33.854
ATOM     36  O   UNL d   1     -15.320  20.443  32.078 -0.00 -0.01    -0.481    33.854
ATOM     37  H   UNL d   1     -14.671  20.252  32.789 +0.00 +0.01    +0.295    33.854
ATOM     38  C   UNL d   1      -9.660  24.200  25.433 -0.15 +0.00    +0.017    33.854
ATOM     39  C   UNL d   1      -8.536  24.101  24.707 -0.16 -0.00    +0.092    33.854
ATOM     40  C   UNL d   1      -8.479  24.687  23.365 -0.06 -0.00    +0.330    33.854
ATOM     41  O   UNL d   1      -9.346  25.319  22.792 -0.05 +0.00    -0.246    33.854
ATOM     42  O   UNL d   1      -7.284  24.443  22.805 -0.02 +0.02    -0.477    33.854
ATOM     43  H   UNL d   1      -7.122  23.497  23.001 +0.12 -0.02    +0.295    33.854
ATOM     44  C   UNL d   1      -9.475  16.029  32.663 -0.07 +0.08    +0.141    33.854
ATOM     45  C   UNL d   1      -8.741  17.046  33.496 -0.04 +0.30    +0.306    33.854
ATOM     46  O   UNL d   1      -9.056  17.441  34.605 -0.15 -0.19    -0.251    33.854
ATOM     47  O   UNL d   1      -7.657  17.538  32.870 -0.40 -0.61    -0.481    33.854
ATOM     48  H   UNL d   1      -8.017  18.132  32.178 +0.06 +0.17    +0.295    33.854
ATOM     49  C   UNL d   1      -4.809  21.550  26.289 -0.32 -0.02    +0.048    33.854
ATOM     50  C   UNL d   1      -4.802  21.069  24.839 -0.19 -0.05    +0.125    33.854
ATOM     51  C   UNL d   1      -5.407  22.099  23.928 -0.23 -0.09    +0.305    33.854
ATOM     52  O   UNL d   1      -5.654  21.988  22.740 -0.37 +0.07    -0.251    33.854
ATOM     53  O   UNL d   1      -5.667  23.253  24.575 -0.04 +0.09    -0.481    33.854
ATOM     54  H   UNL d   1      -5.510  23.945  23.898 +0.11 -0.04    +0.295    33.854
TER
ENDMDL


AVSFLD: # AVS field file
AVSFLD: #
AVSFLD: # Created by AutoDock
AVSFLD: #
AVSFLD: ndim=2           # number of dimensions in the field
AVSFLD: nspace=1         # number of physical coordinates
AVSFLD: veclen=7         # vector size
AVSFLD: dim1=54          # atoms
AVSFLD: dim2=78          # conformations
AVSFLD: data=Real       # data type (byte,integer,Real,double)
AVSFLD: field=uniform    # field coordinate layout
AVSFLD: label= x y z vdW Elec q RMS
AVSFLD: variable 1 file = D:/Protein_go_brrr/autodock/final/1A3N/heme/dock.dlg.pdb filetype = ascii offset = 5 stride = 12
AVSFLD: variable 2 file = D:/Protein_go_brrr/autodock/final/1A3N/heme/dock.dlg.pdb filetype = ascii offset = 6 stride = 12
AVSFLD: variable 3 file = D:/Protein_go_brrr/autodock/final/1A3N/heme/dock.dlg.pdb filetype = ascii offset = 7 stride = 12
AVSFLD: variable 4 file = D:/Protein_go_brrr/autodock/final/1A3N/heme/dock.dlg.pdb filetype = ascii offset = 8 stride = 12
AVSFLD: variable 5 file = D:/Protein_go_brrr/autodock/final/1A3N/heme/dock.dlg.pdb filetype = ascii offset = 9 stride = 12
AVSFLD: variable 6 file = D:/Protein_go_brrr/autodock/final/1A3N/heme/dock.dlg.pdb filetype = ascii offset = 10 stride = 12
AVSFLD: variable 7 file = D:/Protein_go_brrr/autodock/final/1A3N/heme/dock.dlg.pdb filetype = ascii offset = 11 stride = 12
AVSFLD: # end of file

>>> Closing the docking parameter file (DPF)...
This docking finished at:			10:49 15" a.m., 09/26/2025


________________________________________________________________________________

D:/autodockScripts/autodock4.exe: Successful Completion on "ACER"

Real= 9h 29m 49.70s,  CPU= 6m 04.84s,  System= 35.22s
________________________________________________________________________________

