          AutoDock 4.2 Release 4.2.6   
         (C) 1989-2012 The Scripps Research Institute
        AutoDock comes with ABSOLUTELY NO WARRANTY.
        AutoDock is free software, and you are welcome
        to redistribute it under certain conditions;
        for details type 'autodock4 -C'

                     main.cc  $Revision: 1.213 $

                   Compiled on Jul 18 2014 at 15:34:58


This file was created at:			0:39 20" a.m., 09/29/2025
                   on host:		"ACER"
Current Working Directory = "D:\Protein_go_brrr\autodock\final\6BB5\IHP"

      ________________________________________________________________

                   SETTING UP DEFAULT PARAMETER LIBRARY
      ________________________________________________________________


Random number generator was seeded with values 91328, 1759099160.
Docking parameter file (DPF) used for this docking:		D:/Protein_go_brrr/autodock/final/6BB5/IHP/dock.dpf
DPF> autodock_parameter_version 4.2       # used by autodock to validate parameter set

	Autodock parameter version 4.2.
DPF> outlev 1                             # diagnostic output level

Output Level = 1  ADT-COMPATIBLE OUTPUT DURING DOCKING.
DPF> intelec                              # calculate internal electrostatics

Electrostatic energies will be calculated for all non-bonds between moving atoms.
DPF> seed pid time                        # seeds for random generator

Random number generator was seeded with values 91328, 1759099160.
DPF> ligand_types P C HD OA               # atoms types in ligand

DPF> fld opt_6BB5.maps.fld                # grid_data_file

Opening Grid Map Dimensions file:		opt_6BB5.maps.fld
Grid Point Spacing =				0.636 Angstroms

Even Number of User-specified Grid Points =	126 x-points
						126 y-points
						126 z-points

Coordinates of Central Grid Point of Maps =	(23.343, 33.533, 11.432)
Macromolecule file used to create Grid Maps =	opt_6BB5.pdbqt
Grid Parameter file used to create Grid Maps =	D:/Protein_go_brrr/autodock/final/6BB5/IHP/grid.gpf
Minimum coordinates in grid = (-16.725, -6.535, -28.636)
Maximum coordinates in grid = (63.411, 73.601, 51.500)

DPF> map opt_6BB5.P.map                   # atom-specific affinity map

DPF> map opt_6BB5.C.map                   # atom-specific affinity map

DPF> map opt_6BB5.HD.map                  # atom-specific affinity map

DPF> map opt_6BB5.OA.map                  # atom-specific affinity map

DPF> elecmap opt_6BB5.e.map               # electrostatics map

DPF> desolvmap opt_6BB5.d.map             # desolvation map

DPF> move IHP_ideal_opt.pdbqt             # small molecule

1,4-interactions will be _ignored_ in the non-bonded internal energy calculation.

Ligand PDBQT file = "IHP_ideal_opt.pdbqt"

INPUT LIGAND PDBQT FILE:
________________________

INPUT-LIGAND-PDBQT: REMARK  24 active torsions:
INPUT-LIGAND-PDBQT: REMARK  status: ('A' for Active; 'I' for Inactive)
INPUT-LIGAND-PDBQT: REMARK    1  A    between atoms: C_1  and  O_7 
INPUT-LIGAND-PDBQT: REMARK    2  A    between atoms: C_2  and  O_12 
INPUT-LIGAND-PDBQT: REMARK    3  A    between atoms: C_3  and  O_17 
INPUT-LIGAND-PDBQT: REMARK    4  A    between atoms: C_4  and  O_22 
INPUT-LIGAND-PDBQT: REMARK    5  A    between atoms: C_5  and  O_27 
INPUT-LIGAND-PDBQT: REMARK    6  A    between atoms: C_6  and  O_32 
INPUT-LIGAND-PDBQT: REMARK    7  A    between atoms: O_7  and  P_8 
INPUT-LIGAND-PDBQT: REMARK    8  A    between atoms: P_8  and  O_10 
INPUT-LIGAND-PDBQT: REMARK    9  A    between atoms: P_8  and  O_11 
INPUT-LIGAND-PDBQT: REMARK   10  A    between atoms: O_12  and  P_13 
INPUT-LIGAND-PDBQT: REMARK   11  A    between atoms: P_13  and  O_15 
INPUT-LIGAND-PDBQT: REMARK   12  A    between atoms: P_13  and  O_16 
INPUT-LIGAND-PDBQT: REMARK   13  A    between atoms: O_17  and  P_18 
INPUT-LIGAND-PDBQT: REMARK   14  A    between atoms: P_18  and  O_20 
INPUT-LIGAND-PDBQT: REMARK   15  A    between atoms: P_18  and  O_21 
INPUT-LIGAND-PDBQT: REMARK   16  A    between atoms: O_22  and  P_23 
INPUT-LIGAND-PDBQT: REMARK   17  A    between atoms: P_23  and  O_25 
INPUT-LIGAND-PDBQT: REMARK   18  A    between atoms: P_23  and  O_26 
INPUT-LIGAND-PDBQT: REMARK   19  A    between atoms: O_27  and  P_28 
INPUT-LIGAND-PDBQT: REMARK   20  A    between atoms: P_28  and  O_30 
INPUT-LIGAND-PDBQT: REMARK   21  A    between atoms: P_28  and  O_31 
INPUT-LIGAND-PDBQT: REMARK   22  A    between atoms: O_32  and  P_33 
INPUT-LIGAND-PDBQT: REMARK   23  A    between atoms: P_33  and  O_35 
INPUT-LIGAND-PDBQT: REMARK   24  A    between atoms: P_33  and  O_36 
INPUT-LIGAND-PDBQT: ROOT
INPUT-LIGAND-PDBQT: ATOM      1  C   UNL d   1       1.288  -0.806   0.726  0.00  0.00     0.194 C 
INPUT-LIGAND-PDBQT: ATOM      2  C   UNL d   1       0.040  -1.610   0.357  0.00  0.00     0.194 C 
INPUT-LIGAND-PDBQT: ATOM      3  C   UNL d   1      -1.244  -0.840   0.673  0.00  0.00     0.194 C 
INPUT-LIGAND-PDBQT: ATOM      4  C   UNL d   1      -1.265   0.565   0.076  0.00  0.00     0.194 C 
INPUT-LIGAND-PDBQT: ATOM      5  C   UNL d   1       0.009   1.363   0.322  0.00  0.00     0.194 C 
INPUT-LIGAND-PDBQT: ATOM      6  C   UNL d   1       1.294   0.573   0.065  0.00  0.00     0.194 C 
INPUT-LIGAND-PDBQT: ENDROOT
INPUT-LIGAND-PDBQT: BRANCH   1   7
INPUT-LIGAND-PDBQT: ATOM      7  O   UNL d   1       2.433  -1.514   0.245  0.00  0.00    -0.278 OA
INPUT-LIGAND-PDBQT: BRANCH   7   8
INPUT-LIGAND-PDBQT: ATOM      8  P   UNL d   1       3.563  -1.932   1.294  0.00  0.00     0.473 P 
INPUT-LIGAND-PDBQT: ATOM      9  O   UNL d   1       3.071  -2.662   2.494  0.00  0.00    -0.228 OA
INPUT-LIGAND-PDBQT: BRANCH   8  10
INPUT-LIGAND-PDBQT: ATOM     10  O   UNL d   1       4.602  -2.777   0.427  0.00  0.00    -0.303 OA
INPUT-LIGAND-PDBQT: ATOM     11  H   UNL d   1       5.122  -3.357   1.014  0.00  0.00     0.222 HD
INPUT-LIGAND-PDBQT: ENDBRANCH   8  10
INPUT-LIGAND-PDBQT: BRANCH   8  12
INPUT-LIGAND-PDBQT: ATOM     12  O   UNL d   1       4.376  -0.597   1.579  0.00  0.00    -0.303 OA
INPUT-LIGAND-PDBQT: ATOM     13  H   UNL d   1       4.592  -0.095   0.761  0.00  0.00     0.222 HD
INPUT-LIGAND-PDBQT: ENDBRANCH   8  12
INPUT-LIGAND-PDBQT: ENDBRANCH   7   8
INPUT-LIGAND-PDBQT: ENDBRANCH   1   7
INPUT-LIGAND-PDBQT: BRANCH   2  14
INPUT-LIGAND-PDBQT: ATOM     14  O   UNL d   1       0.067  -1.896  -1.047  0.00  0.00    -0.278 OA
INPUT-LIGAND-PDBQT: BRANCH  14  15
INPUT-LIGAND-PDBQT: ATOM     15  P   UNL d   1      -0.217  -3.413  -1.474  0.00  0.00     0.473 P 
INPUT-LIGAND-PDBQT: ATOM     16  O   UNL d   1      -1.497  -4.019  -0.990  0.00  0.00    -0.228 OA
INPUT-LIGAND-PDBQT: BRANCH  15  17
INPUT-LIGAND-PDBQT: ATOM     17  O   UNL d   1      -0.104  -3.396  -3.063  0.00  0.00    -0.303 OA
INPUT-LIGAND-PDBQT: ATOM     18  H   UNL d   1      -0.983  -3.299  -3.477  0.00  0.00     0.222 HD
INPUT-LIGAND-PDBQT: ENDBRANCH  15  17
INPUT-LIGAND-PDBQT: BRANCH  15  19
INPUT-LIGAND-PDBQT: ATOM     19  O   UNL d   1       1.108  -4.194  -1.068  0.00  0.00    -0.303 OA
INPUT-LIGAND-PDBQT: ATOM     20  H   UNL d   1       1.891  -3.839  -1.528  0.00  0.00     0.222 HD
INPUT-LIGAND-PDBQT: ENDBRANCH  15  19
INPUT-LIGAND-PDBQT: ENDBRANCH  14  15
INPUT-LIGAND-PDBQT: ENDBRANCH   2  14
INPUT-LIGAND-PDBQT: BRANCH   6  21
INPUT-LIGAND-PDBQT: ATOM     21  O   UNL d   1       2.359   1.315   0.655  0.00  0.00    -0.278 OA
INPUT-LIGAND-PDBQT: BRANCH  21  22
INPUT-LIGAND-PDBQT: ATOM     22  P   UNL d   1       3.322   2.189  -0.269  0.00  0.00     0.473 P 
INPUT-LIGAND-PDBQT: ATOM     23  O   UNL d   1       2.760   2.769  -1.523  0.00  0.00    -0.228 OA
INPUT-LIGAND-PDBQT: BRANCH  22  24
INPUT-LIGAND-PDBQT: ATOM     24  O   UNL d   1       3.885   3.258   0.767  0.00  0.00    -0.303 OA
INPUT-LIGAND-PDBQT: ATOM     25  H   UNL d   1       3.131   3.831   1.059  0.00  0.00     0.222 HD
INPUT-LIGAND-PDBQT: ENDBRANCH  22  24
INPUT-LIGAND-PDBQT: BRANCH  22  26
INPUT-LIGAND-PDBQT: ATOM     26  O   UNL d   1       4.578   1.209  -0.449  0.00  0.00    -0.303 OA
INPUT-LIGAND-PDBQT: ATOM     27  H   UNL d   1       5.288   1.681  -0.930  0.00  0.00     0.222 HD
INPUT-LIGAND-PDBQT: ENDBRANCH  22  26
INPUT-LIGAND-PDBQT: ENDBRANCH  21  22
INPUT-LIGAND-PDBQT: ENDBRANCH   6  21
INPUT-LIGAND-PDBQT: BRANCH   3  28
INPUT-LIGAND-PDBQT: ATOM     28  O   UNL d   1      -2.321  -1.530   0.052  0.00  0.00    -0.278 OA
INPUT-LIGAND-PDBQT: BRANCH  28  29
INPUT-LIGAND-PDBQT: ATOM     29  P   UNL d   1      -3.402  -2.296   0.936  0.00  0.00     0.473 P 
INPUT-LIGAND-PDBQT: ATOM     30  O   UNL d   1      -2.932  -2.753   2.269  0.00  0.00    -0.228 OA
INPUT-LIGAND-PDBQT: BRANCH  29  31
INPUT-LIGAND-PDBQT: ATOM     31  O   UNL d   1      -4.591  -1.225   0.913  0.00  0.00    -0.303 OA
INPUT-LIGAND-PDBQT: ATOM     32  H   UNL d   1      -4.772  -0.977  -0.023  0.00  0.00     0.222 HD
INPUT-LIGAND-PDBQT: ENDBRANCH  29  31
INPUT-LIGAND-PDBQT: BRANCH  29  33
INPUT-LIGAND-PDBQT: ATOM     33  O   UNL d   1      -3.920  -3.418  -0.068  0.00  0.00    -0.303 OA
INPUT-LIGAND-PDBQT: ATOM     34  H   UNL d   1      -3.155  -3.980  -0.344  0.00  0.00     0.222 HD
INPUT-LIGAND-PDBQT: ENDBRANCH  29  33
INPUT-LIGAND-PDBQT: ENDBRANCH  28  29
INPUT-LIGAND-PDBQT: ENDBRANCH   3  28
INPUT-LIGAND-PDBQT: BRANCH   5  35
INPUT-LIGAND-PDBQT: ATOM     35  O   UNL d   1      -0.019   2.436  -0.617  0.00  0.00    -0.278 OA
INPUT-LIGAND-PDBQT: BRANCH  35  36
INPUT-LIGAND-PDBQT: ATOM     36  P   UNL d   1       0.242   3.934  -0.135  0.00  0.00     0.473 P 
INPUT-LIGAND-PDBQT: ATOM     37  O   UNL d   1       1.386   4.117   0.811  0.00  0.00    -0.228 OA
INPUT-LIGAND-PDBQT: BRANCH  36  38
INPUT-LIGAND-PDBQT: ATOM     38  O   UNL d   1       0.411   4.698  -1.522  0.00  0.00    -0.303 OA
INPUT-LIGAND-PDBQT: ATOM     39  H   UNL d   1       1.257   4.425  -1.938  0.00  0.00     0.222 HD
INPUT-LIGAND-PDBQT: ENDBRANCH  36  38
INPUT-LIGAND-PDBQT: BRANCH  36  40
INPUT-LIGAND-PDBQT: ATOM     40  O   UNL d   1      -1.196   4.382   0.376  0.00  0.00    -0.303 OA
INPUT-LIGAND-PDBQT: ATOM     41  H   UNL d   1      -1.909   4.073  -0.226  0.00  0.00     0.222 HD
INPUT-LIGAND-PDBQT: ENDBRANCH  36  40
INPUT-LIGAND-PDBQT: ENDBRANCH  35  36
INPUT-LIGAND-PDBQT: ENDBRANCH   5  35
INPUT-LIGAND-PDBQT: BRANCH   4  42
INPUT-LIGAND-PDBQT: ATOM     42  O   UNL d   1      -2.334   1.271   0.715  0.00  0.00    -0.278 OA
INPUT-LIGAND-PDBQT: BRANCH  42  43
INPUT-LIGAND-PDBQT: ATOM     43  P   UNL d   1      -3.625   1.654  -0.140  0.00  0.00     0.473 P 
INPUT-LIGAND-PDBQT: ATOM     44  O   UNL d   1      -4.208   0.598  -1.014  0.00  0.00    -0.228 OA
INPUT-LIGAND-PDBQT: BRANCH  43  45
INPUT-LIGAND-PDBQT: ATOM     45  O   UNL d   1      -4.625   2.208   0.967  0.00  0.00    -0.303 OA
INPUT-LIGAND-PDBQT: ATOM     46  H   UNL d   1      -4.983   1.485   1.520  0.00  0.00     0.222 HD
INPUT-LIGAND-PDBQT: ENDBRANCH  43  45
INPUT-LIGAND-PDBQT: BRANCH  43  47
INPUT-LIGAND-PDBQT: ATOM     47  O   UNL d   1      -3.184   3.003  -0.885  0.00  0.00    -0.303 OA
INPUT-LIGAND-PDBQT: ATOM     48  H   UNL d   1      -3.918   3.311  -1.456  0.00  0.00     0.222 HD
INPUT-LIGAND-PDBQT: ENDBRANCH  43  47
INPUT-LIGAND-PDBQT: ENDBRANCH  42  43
INPUT-LIGAND-PDBQT: ENDBRANCH   4  42
INPUT-LIGAND-PDBQT: TORSDOF 24
________________________________________________________________________________

Total charge on ligand                               =	-0.006 e
REMARK  24 active torsions:
REMARK  status: ('A' for Active; 'I' for Inactive)
REMARK    1  A    between atoms: C_1  and  O_7 
REMARK    2  A    between atoms: C_2  and  O_12 
REMARK    3  A    between atoms: C_3  and  O_17 
REMARK    4  A    between atoms: C_4  and  O_22 
REMARK    5  A    between atoms: C_5  and  O_27 
REMARK    6  A    between atoms: C_6  and  O_32 
REMARK    7  A    between atoms: O_7  and  P_8 
REMARK    8  A    between atoms: P_8  and  O_10 
REMARK    9  A    between atoms: P_8  and  O_11 
REMARK   10  A    between atoms: O_12  and  P_13 
REMARK   11  A    between atoms: P_13  and  O_15 
REMARK   12  A    between atoms: P_13  and  O_16 
REMARK   13  A    between atoms: O_17  and  P_18 
REMARK   14  A    between atoms: P_18  and  O_20 
REMARK   15  A    between atoms: P_18  and  O_21 
REMARK   16  A    between atoms: O_22  and  P_23 
REMARK   17  A    between atoms: P_23  and  O_25 
REMARK   18  A    between atoms: P_23  and  O_26 
REMARK   19  A    between atoms: O_27  and  P_28 
REMARK   20  A    between atoms: P_28  and  O_30 
REMARK   21  A    between atoms: P_28  and  O_31 
REMARK   22  A    between atoms: O_32  and  P_33 
REMARK   23  A    between atoms: P_33  and  O_35 
REMARK   24  A    between atoms: P_33  and  O_36 


Number of Rotatable Bonds in Small Molecule =	24 torsions
Number of atoms in ligand:  48

Number of non-hydrogen atoms in ligand:  36

Number of vibrational degrees of freedom of ligand:  138


Number of torsional degrees of freedom = 24
Estimated loss of torsional free energy upon binding = +7.1592 kcal/mol


DPF> about 0.035 0.082 -0.065            # small molecule center

Small molecule center of rotation =	(+0.035, +0.082, -0.065)

DPF> tran0 random                         # initial coordinates/A or random

Initial translation =			(-10.734, 32.181, 42.371) Angstroms
DPF> quaternion0 random                   # initial orientation

Each run will begin with a new, random initial orientation.
Initial quaternion,  (x,y,z,w) =	( -0.527, 0.612, 0.548, -0.217 ),
DPF> dihe0 random                         # initial dihedrals (relative) or random

DPF> torsdof 24                            # torsional degrees of freedom

Number of torsional degrees of freedom = 24
Free energy coefficient for torsional degrees of freedom = 0.2983, the factory default value.

Estimated loss of torsional free energy upon binding = +7.1592 kcal/mol

DPF> rmstol 2.0                           # cluster_tolerance/A

Maximum RMS tolerance for conformational cluster analysis = 2.00 Angstroms
DPF> extnrg 1000.0                        # external grid energy

External grid energy (beyond grid map walls) = 1000.00

DPF> e0max 0.0 10000                      # max initial energy; max number of retries

Using user-specified maximum number of retries for simanneal initialization, 10000 retries.
If the simanneal initial energy is greater than e0max, 0.000,
then a new, random initial state will be created.

DPF> ga_pop_size 150                      # number of individuals in population

A population of 150 individuals will be used
DPF> ga_num_evals 25000000                # maximum number of energy evaluations

There will be at most 25000000 function evaluations used.
DPF> ga_num_generations 27000             # maximum number of generations

The GA will run for at most 27000 generations.
DPF> ga_elitism 1                         # number of top individuals to survive to next generation

The 1 best will be preserved each GA generation.
DPF> ga_mutation_rate 0.02                # rate of gene mutation

The mutation rate is 0.020000.
DPF> ga_crossover_rate 0.8                # rate of crossover

The crossover rate is 0.800000.
DPF> ga_window_size 10                    # 

The GA's selection window is 10 generations.
DPF> ga_cauchy_alpha 0.0                  # Alpha parameter of Cauchy distribution

The alpha parameter (for the Cauchy distribution) is being set to 0.000000.
DPF> ga_cauchy_beta 1.0                   # Beta parameter Cauchy distribution

The beta parameter (for the Cauchy distribution) is being set to 1.000000.
DPF> set_ga                               # set the above parameters for GA or LGA

DPF> sw_max_its 300                       # iterations of Solis & Wets local search

Solis & Wets algorithms will perform at most 300 iterations.
DPF> sw_max_succ 4                        # consecutive successes before changing rho

Solis & Wets algorithms expand rho every 4 in a row successes.
DPF> sw_max_fail 4                        # consecutive failures before changing rho

Solis & Wets algorithms contract rho every 4 in a row failures.
DPF> sw_rho 1.0                           # size of local search space to sample

rho is set to 1.000000.
DPF> sw_lb_rho 0.01                       # lower bound on rho

rho will never get smaller than 0.010000.
DPF> ls_search_freq 0.06                  # probability of performing local search on individual

Local search will be performed with frequency 0.060000.
DPF> set_psw1                             # set the above pseudo-Solis & Wets parameters

Creating a new Local Search object using the pseudo-Solis-Wets algorithm (pSW1) with the current settings.

DPF> unbound_model bound                  # state of unbound ligand

DPF> ga_run 100                           # do this many hybrid GA-LS runs

centering ligand on specified point: 0.035 0.082 -0.065
Furthest true ligand atom from "about" center is 6.234 Angstroms (maxrad).
Number of requested GA dockings = 100 runs
Unbound model to be used is 'same as bound' [AutoDock 4.2 default].

	BEGINNING GENETIC ALGORITHM DOCKING 1 of 100
Run: 1 Seed: 147055043 2063324773 [ Run 1 of 100 GA/GALS ]
Beginning LAMARCKIAN GENETIC ALGORITHM (LGA), with a maximum of 25000000 energy evaluations.

Final-Value: -16.815


	FINAL GENETIC ALGORITHM DOCKED STATE
	_______________________________________________


Detailed state:  trans 50.777 21.284 0.881 quatxyzw 0.569911 0.730130 0.020116 0.376440 center 0.035 0.082 -0.065 ntor 24 174.2999 -11.9581 132.9635 89.8139 119.5505 111.7806 -26.0122 -179.8555 169.1062 0.8992 80.6316 -115.6488 -116.7269 87.0869 -117.7012 130.3950 40.3162 112.3871 42.3171 -10.8833 -9.6224 -26.2731 -16.1048 -1.7612
State:	 50.777  21.284   0.881   0.615  0.788  0.022 135.773    174.30  -11.96  132.96   89.81  119.55  111.78  -26.01 -179.86  169.11    0.90   80.63 -115.65 -116.73   87.09 -117.70  130.40   40.32  112.39   42.32  -10.88   -9.62  -26.27  -16.10   -1.76

DOCKED: MODEL        1
DOCKED: USER    Run = 1
DOCKED: USER    DPF = D:/Protein_go_brrr/autodock/final/6BB5/IHP/dock.dpf
DOCKED: USER  
DOCKED: USER    Estimated Free Energy of Binding    =   +5.33 kcal/mol  [=(1)+(2)+(3)-(4)]
DOCKED: USER    
DOCKED: USER    (1) Final Intermolecular Energy     =   -1.83 kcal/mol
DOCKED: USER        vdW + Hbond + desolv Energy     =   -1.77 kcal/mol
DOCKED: USER        Electrostatic Energy            =   -0.06 kcal/mol
DOCKED: USER    (2) Final Total Internal Energy     =  -14.99 kcal/mol
DOCKED: USER    (3) Torsional Free Energy           =   +7.16 kcal/mol
DOCKED: USER    (4) Unbound System's Energy  [=(2)] =  -14.99 kcal/mol
DOCKED: USER    
DOCKED: USER    
DOCKED: USER    NEWDPF move IHP_ideal_opt.pdbqt
DOCKED: USER    NEWDPF about 0.035000 0.082000 -0.065000
DOCKED: USER    NEWDPF tran0 50.777048 21.283785 0.880905
DOCKED: USER    NEWDPF quaternion0 0.569911 0.730130 0.020116 0.376440
DOCKED: USER    NEWDPF axisangle0 0.615162 0.788102 0.021714 135.773367
DOCKED: USER    NEWDPF quat0 0.615162 0.788102 0.021714 135.773367
DOCKED: USER    NEWDPF dihe0 174.30 -11.96 132.96 89.81 119.55 111.78 -26.01 -179.86 169.11 0.90 80.63 -115.65 -116.73 87.09 -117.70 130.40 40.32 112.39 42.32 -10.88 -9.62 -26.27 -16.10 -1.76 
DOCKED: USER  keepresnum = 1 
DOCKED: USER  
DOCKED: REMARK  24 active torsions:
DOCKED: REMARK  status: ('A' for Active; 'I' for Inactive)
DOCKED: REMARK    1  A    between atoms: C_1  and  O_7 
DOCKED: REMARK    2  A    between atoms: C_2  and  O_12 
DOCKED: REMARK    3  A    between atoms: C_3  and  O_17 
DOCKED: REMARK    4  A    between atoms: C_4  and  O_22 
DOCKED: REMARK    5  A    between atoms: C_5  and  O_27 
DOCKED: REMARK    6  A    between atoms: C_6  and  O_32 
DOCKED: REMARK    7  A    between atoms: O_7  and  P_8 
DOCKED: REMARK    8  A    between atoms: P_8  and  O_10 
DOCKED: REMARK    9  A    between atoms: P_8  and  O_11 
DOCKED: REMARK   10  A    between atoms: O_12  and  P_13 
DOCKED: REMARK   11  A    between atoms: P_13  and  O_15 
DOCKED: REMARK   12  A    between atoms: P_13  and  O_16 
DOCKED: REMARK   13  A    between atoms: O_17  and  P_18 
DOCKED: REMARK   14  A    between atoms: P_18  and  O_20 
DOCKED: REMARK   15  A    between atoms: P_18  and  O_21 
DOCKED: REMARK   16  A    between atoms: O_22  and  P_23 
DOCKED: REMARK   17  A    between atoms: P_23  and  O_25 
DOCKED: REMARK   18  A    between atoms: P_23  and  O_26 
DOCKED: REMARK   19  A    between atoms: O_27  and  P_28 
DOCKED: REMARK   20  A    between atoms: P_28  and  O_30 
DOCKED: REMARK   21  A    between atoms: P_28  and  O_31 
DOCKED: REMARK   22  A    between atoms: O_32  and  P_33 
DOCKED: REMARK   23  A    between atoms: P_33  and  O_35 
DOCKED: REMARK   24  A    between atoms: P_33  and  O_36 
DOCKED: USER                              x       y       z     vdW  Elec       q    Type
DOCKED: USER                           _______ _______ _______ _____ _____    ______ ____
DOCKED: ROOT
DOCKED: ATOM      1  C   UNL d   1      49.524  22.360   1.387 -0.03 +0.03    +0.194 C 
DOCKED: ATOM      2  C   UNL d   1      49.121  20.890   1.258 -0.01 +0.03    +0.194 C 
DOCKED: ATOM      3  C   UNL d   1      49.693  20.255  -0.011 +0.00 +0.02    +0.194 C 
DOCKED: ATOM      4  C   UNL d   1      51.199  20.455  -0.157 +0.00 +0.02    +0.194 C 
DOCKED: ATOM      5  C   UNL d   1      51.660  21.888   0.077 -0.00 +0.02    +0.194 C 
DOCKED: ATOM      6  C   UNL d   1      51.040  22.544   1.313 -0.02 +0.02    +0.194 C 
DOCKED: ENDROOT
DOCKED: BRANCH   1   7
DOCKED: ATOM      7  O   UNL d   1      49.101  22.827   2.670 -0.09 -0.05    -0.278 OA
DOCKED: BRANCH   7   8
DOCKED: ATOM      8  P   UNL d   1      47.570  23.241   2.860 -0.19 +0.08    +0.473 P 
DOCKED: ATOM      9  O   UNL d   1      47.131  24.420   2.063 -0.28 -0.03    -0.228 OA
DOCKED: BRANCH   8  10
DOCKED: ATOM     10  O   UNL d   1      46.763  21.910   2.509 -0.11 -0.08    -0.303 OA
DOCKED: ATOM     11  H   UNL d   1      47.368  21.146   2.530 +0.07 +0.07    +0.222 HD
DOCKED: ENDBRANCH   8  10
DOCKED: BRANCH   8  12
DOCKED: ATOM     12  O   UNL d   1      47.363  23.351   4.432 -0.23 -0.03    -0.303 OA
DOCKED: ATOM     13  H   UNL d   1      47.588  22.520   4.909 -0.35 +0.03    +0.222 HD
DOCKED: ENDBRANCH   8  12
DOCKED: ENDBRANCH   7   8
DOCKED: ENDBRANCH   1   7
DOCKED: BRANCH   2  14
DOCKED: ATOM     14  O   UNL d   1      49.616  20.168   2.393 -0.02 -0.07    -0.278 OA
DOCKED: BRANCH  14  15
DOCKED: ATOM     15  P   UNL d   1      48.526  19.425   3.300 -0.05 +0.23    +0.473 P 
DOCKED: ATOM     16  O   UNL d   1      48.914  18.094   3.863 -0.12 -0.13    -0.228 OA
DOCKED: BRANCH  15  17
DOCKED: ATOM     17  O   UNL d   1      48.169  20.492   4.428 -0.12 -0.20    -0.303 OA
DOCKED: ATOM     18  H   UNL d   1      48.156  21.398   4.064 +0.06 +0.09    +0.222 HD
DOCKED: ENDBRANCH  15  17
DOCKED: BRANCH  15  19
DOCKED: ATOM     19  O   UNL d   1      47.202  19.437   2.419 -0.09 -0.12    -0.303 OA
DOCKED: ATOM     20  H   UNL d   1      47.403  19.418   1.465 +0.02 +0.06    +0.222 HD
DOCKED: ENDBRANCH  15  19
DOCKED: ENDBRANCH  14  15
DOCKED: ENDBRANCH   2  14
DOCKED: BRANCH   6  21
DOCKED: ATOM     21  O   UNL d   1      51.287  23.944   1.204 -0.02 -0.02    -0.278 OA
DOCKED: BRANCH  21  22
DOCKED: ATOM     22  P   UNL d   1      52.285  24.654   2.226 -0.04 +0.02    +0.473 P 
DOCKED: ATOM     23  O   UNL d   1      51.732  25.158   3.516 -0.18 -0.01    -0.228 OA
DOCKED: BRANCH  22  24
DOCKED: ATOM     24  O   UNL d   1      53.432  23.560   2.373 -0.01 -0.02    -0.303 OA
DOCKED: ATOM     25  H   UNL d   1      53.752  23.325   1.465 +0.01 +0.01    +0.222 HD
DOCKED: ENDBRANCH  22  24
DOCKED: BRANCH  22  26
DOCKED: ATOM     26  O   UNL d   1      52.988  25.747   1.287 -0.02 -0.01    -0.303 OA
DOCKED: ATOM     27  H   UNL d   1      53.477  25.291   0.572 +0.02 +0.01    +0.222 HD
DOCKED: ENDBRANCH  22  26
DOCKED: ENDBRANCH  21  22
DOCKED: ENDBRANCH   6  21
DOCKED: BRANCH   3  28
DOCKED: ATOM     28  O   UNL d   1      49.507  18.849   0.092 +0.00 -0.04    -0.278 OA
DOCKED: BRANCH  28  29
DOCKED: ATOM     29  P   UNL d   1      48.124  18.186  -0.336 +0.01 +0.06    +0.473 P 
DOCKED: ATOM     30  O   UNL d   1      48.133  17.470  -1.638 +0.00 -0.02    -0.228 OA
DOCKED: BRANCH  29  31
DOCKED: ATOM     31  O   UNL d   1      47.815  17.315   0.970 +0.00 -0.06    -0.303 OA
DOCKED: ATOM     32  H   UNL d   1      48.269  17.730   1.739 +0.02 +0.06    +0.222 HD
DOCKED: ENDBRANCH  29  31
DOCKED: BRANCH  29  33
DOCKED: ATOM     33  O   UNL d   1      47.111  19.406  -0.193 -0.00 -0.04    -0.303 OA
DOCKED: ATOM     34  H   UNL d   1      46.408  19.165   0.460 +0.02 +0.04    +0.222 HD
DOCKED: ENDBRANCH  29  33
DOCKED: ENDBRANCH  28  29
DOCKED: ENDBRANCH   3  28
DOCKED: BRANCH   5  35
DOCKED: ATOM     35  O   UNL d   1      53.066  21.810   0.304 -0.00 -0.02    -0.278 OA
DOCKED: BRANCH  35  36
DOCKED: ATOM     36  P   UNL d   1      54.086  22.467  -0.731 +0.00 +0.03    +0.473 P 
DOCKED: ATOM     37  O   UNL d   1      54.356  23.925  -0.533 -0.00 -0.01    -0.228 OA
DOCKED: BRANCH  36  38
DOCKED: ATOM     38  O   UNL d   1      55.367  21.535  -0.563 +0.00 -0.02    -0.303 OA
DOCKED: ATOM     39  H   UNL d   1      55.382  20.875  -1.289 +0.00 +0.01    +0.222 HD
DOCKED: ENDBRANCH  36  38
DOCKED: BRANCH  36  40
DOCKED: ATOM     40  O   UNL d   1      53.477  22.029  -2.133 +0.00 -0.02    -0.303 OA
DOCKED: ATOM     41  H   UNL d   1      53.157  21.100  -2.117 +0.00 +0.01    +0.222 HD
DOCKED: ENDBRANCH  36  40
DOCKED: ENDBRANCH  35  36
DOCKED: ENDBRANCH   5  35
DOCKED: BRANCH   4  42
DOCKED: ATOM     42  O   UNL d   1      51.532  20.121  -1.509 +0.00 -0.02    -0.278 OA
DOCKED: BRANCH  42  43
DOCKED: ATOM     43  P   UNL d   1      52.430  18.832  -1.787 +0.00 +0.03    +0.473 P 
DOCKED: ATOM     44  O   UNL d   1      52.354  18.222  -3.143 +0.00 -0.01    -0.228 OA
DOCKED: BRANCH  43  45
DOCKED: ATOM     45  O   UNL d   1      53.885  19.325  -1.374 +0.00 -0.02    -0.303 OA
DOCKED: ATOM     46  H   UNL d   1      53.859  20.208  -0.956 +0.00 +0.01    +0.222 HD
DOCKED: ENDBRANCH  43  45
DOCKED: BRANCH  43  47
DOCKED: ATOM     47  O   UNL d   1      52.058  17.858  -0.569 +0.00 -0.03    -0.303 OA
DOCKED: ATOM     48  H   UNL d   1      51.110  17.619  -0.624 +0.00 +0.02    +0.222 HD
DOCKED: ENDBRANCH  43  47
DOCKED: ENDBRANCH  42  43
DOCKED: ENDBRANCH   4  42
DOCKED: TORSDOF 24
DOCKED: TER
DOCKED: ENDMDL
________________________________________________________________________________


	BEGINNING GENETIC ALGORITHM DOCKING 2 of 100
Run: 2 Seed: 160551777 1037513559 [ Run 2 of 100 GA/GALS ]
Beginning LAMARCKIAN GENETIC ALGORITHM (LGA), with a maximum of 25000000 energy evaluations.

Final-Value: -18.339


	FINAL GENETIC ALGORITHM DOCKED STATE
	_______________________________________________


Detailed state:  trans 23.437 24.527 3.367 quatxyzw 0.724085 0.506178 -0.120145 -0.452824 center 0.035 0.082 -0.065 ntor 24 113.2914 38.3947 113.6746 150.8715 145.4571 130.3201 -10.2561 -121.2869 23.3422 99.0752 52.9821 -123.0005 -90.3066 67.4520 -159.6207 -110.1439 -15.9390 -51.1599 55.7386 20.9618 18.0517 18.5558 -28.0361 172.1838
State:	 23.437  24.527   3.367   0.812  0.568 -0.135 -126.150    113.29   38.39  113.67  150.87  145.46  130.32  -10.26 -121.29   23.34   99.08   52.98 -123.00  -90.31   67.45 -159.62 -110.14  -15.94  -51.16   55.74   20.96   18.05   18.56  -28.04  172.18

DOCKED: MODEL        2
DOCKED: USER    Run = 2
DOCKED: USER    DPF = D:/Protein_go_brrr/autodock/final/6BB5/IHP/dock.dpf
DOCKED: USER  
DOCKED: USER    Estimated Free Energy of Binding    =   +3.36 kcal/mol  [=(1)+(2)+(3)-(4)]
DOCKED: USER    
DOCKED: USER    (1) Final Intermolecular Energy     =   -3.79 kcal/mol
DOCKED: USER        vdW + Hbond + desolv Energy     =   -3.58 kcal/mol
DOCKED: USER        Electrostatic Energy            =   -0.21 kcal/mol
DOCKED: USER    (2) Final Total Internal Energy     =  -14.54 kcal/mol
DOCKED: USER    (3) Torsional Free Energy           =   +7.16 kcal/mol
DOCKED: USER    (4) Unbound System's Energy  [=(2)] =  -14.54 kcal/mol
DOCKED: USER    
DOCKED: USER    
DOCKED: USER    NEWDPF move IHP_ideal_opt.pdbqt
DOCKED: USER    NEWDPF about 0.035000 0.082000 -0.065000
DOCKED: USER    NEWDPF tran0 23.436824 24.526874 3.366645
DOCKED: USER    NEWDPF quaternion0 0.724085 0.506178 -0.120145 -0.452824
DOCKED: USER    NEWDPF axisangle0 0.812119 0.567719 -0.134752 -126.149964
DOCKED: USER    NEWDPF quat0 0.812119 0.567719 -0.134752 -126.149964
DOCKED: USER    NEWDPF dihe0 113.29 38.39 113.67 150.87 145.46 130.32 -10.26 -121.29 23.34 99.08 52.98 -123.00 -90.31 67.45 -159.62 -110.14 -15.94 -51.16 55.74 20.96 18.05 18.56 -28.04 172.18 
DOCKED: USER  keepresnum = 1 
DOCKED: USER  
DOCKED: REMARK  24 active torsions:
DOCKED: REMARK  status: ('A' for Active; 'I' for Inactive)
DOCKED: REMARK    1  A    between atoms: C_1  and  O_7 
DOCKED: REMARK    2  A    between atoms: C_2  and  O_12 
DOCKED: REMARK    3  A    between atoms: C_3  and  O_17 
DOCKED: REMARK    4  A    between atoms: C_4  and  O_22 
DOCKED: REMARK    5  A    between atoms: C_5  and  O_27 
DOCKED: REMARK    6  A    between atoms: C_6  and  O_32 
DOCKED: REMARK    7  A    between atoms: O_7  and  P_8 
DOCKED: REMARK    8  A    between atoms: P_8  and  O_10 
DOCKED: REMARK    9  A    between atoms: P_8  and  O_11 
DOCKED: REMARK   10  A    between atoms: O_12  and  P_13 
DOCKED: REMARK   11  A    between atoms: P_13  and  O_15 
DOCKED: REMARK   12  A    between atoms: P_13  and  O_16 
DOCKED: REMARK   13  A    between atoms: O_17  and  P_18 
DOCKED: REMARK   14  A    between atoms: P_18  and  O_20 
DOCKED: REMARK   15  A    between atoms: P_18  and  O_21 
DOCKED: REMARK   16  A    between atoms: O_22  and  P_23 
DOCKED: REMARK   17  A    between atoms: P_23  and  O_25 
DOCKED: REMARK   18  A    between atoms: P_23  and  O_26 
DOCKED: REMARK   19  A    between atoms: O_27  and  P_28 
DOCKED: REMARK   20  A    between atoms: P_28  and  O_30 
DOCKED: REMARK   21  A    between atoms: P_28  and  O_31 
DOCKED: REMARK   22  A    between atoms: O_32  and  P_33 
DOCKED: REMARK   23  A    between atoms: P_33  and  O_35 
DOCKED: REMARK   24  A    between atoms: P_33  and  O_36 
DOCKED: USER                              x       y       z     vdW  Elec       q    Type
DOCKED: USER                           _______ _______ _______ _____ _____    ______ ____
DOCKED: ROOT
DOCKED: ATOM      1  C   UNL d   1      23.489  24.763   1.656 -0.09 -0.05    +0.194 C 
DOCKED: ATOM      2  C   UNL d   1      22.135  24.333   2.223 -0.10 -0.02    +0.194 C 
DOCKED: ATOM      3  C   UNL d   1      22.284  23.226   3.269 -0.05 +0.00    +0.194 C 
DOCKED: ATOM      4  C   UNL d   1      23.287  23.568   4.368 -0.06 +0.02    +0.194 C 
DOCKED: ATOM      5  C   UNL d   1      24.613  24.111   3.850 -0.07 +0.01    +0.194 C 
DOCKED: ATOM      6  C   UNL d   1      24.465  25.174   2.760 -0.11 -0.01    +0.194 C 
DOCKED: ENDROOT
DOCKED: BRANCH   1   7
DOCKED: ATOM      7  O   UNL d   1      23.281  25.906   0.824 -0.15 +0.21    -0.278 OA
DOCKED: BRANCH   7   8
DOCKED: ATOM      8  P   UNL d   1      22.448  25.721  -0.527 -0.14 -0.26    +0.473 P 
DOCKED: ATOM      9  O   UNL d   1      22.709  24.452  -1.260 -0.06 +0.07    -0.228 OA
DOCKED: BRANCH   8  10
DOCKED: ATOM     10  O   UNL d   1      20.929  25.882  -0.069 -0.27 +0.12    -0.303 OA
DOCKED: ATOM     11  H   UNL d   1      20.779  25.374   0.751 +0.14 -0.06    +0.222 HD
DOCKED: ENDBRANCH   8  10
DOCKED: BRANCH   8  12
DOCKED: ATOM     12  O   UNL d   1      22.691  27.059  -1.348 -0.23 +0.28    -0.303 OA
DOCKED: ATOM     13  H   UNL d   1      23.187  27.740  -0.839 -0.38 -0.40    +0.222 HD
DOCKED: ENDBRANCH   8  12
DOCKED: ENDBRANCH   7   8
DOCKED: ENDBRANCH   1   7
DOCKED: BRANCH   2  14
DOCKED: ATOM     14  O   UNL d   1      21.507  25.463   2.841 -0.16 +0.01    -0.278 OA
DOCKED: BRANCH  14  15
DOCKED: ATOM     15  P   UNL d   1      19.906  25.458   2.885 -0.09 +0.00    +0.473 P 
DOCKED: ATOM     16  O   UNL d   1      19.271  25.573   4.235 -0.15 -0.03    -0.228 OA
DOCKED: BRANCH  15  17
DOCKED: ATOM     17  O   UNL d   1      19.488  26.640   1.903 -0.48 +0.04    -0.303 OA
DOCKED: ATOM     18  H   UNL d   1      20.226  26.886   1.313 +0.04 -0.08    +0.222 HD
DOCKED: ENDBRANCH  15  17
DOCKED: BRANCH  15  19
DOCKED: ATOM     19  O   UNL d   1      19.491  24.177   2.038 -0.19 +0.02    -0.303 OA
DOCKED: ATOM     20  H   UNL d   1      19.401  23.386   2.601 +0.13 -0.00    +0.222 HD
DOCKED: ENDBRANCH  15  19
DOCKED: ENDBRANCH  14  15
DOCKED: ENDBRANCH   2  14
DOCKED: BRANCH   6  21
DOCKED: ATOM     21  O   UNL d   1      25.746  25.322   2.152 -0.08 +0.03    -0.278 OA
DOCKED: BRANCH  21  22
DOCKED: ATOM     22  P   UNL d   1      26.828  26.291   2.812 -0.14 +0.07    +0.473 P 
DOCKED: ATOM     23  O   UNL d   1      27.493  27.302   1.940 -0.19 -0.06    -0.228 OA
DOCKED: BRANCH  22  24
DOCKED: ATOM     24  O   UNL d   1      26.016  26.898   4.038 -0.03 -0.17    -0.303 OA
DOCKED: ATOM     25  H   UNL d   1      26.013  26.227   4.768 +0.08 +0.11    +0.222 HD
DOCKED: ENDBRANCH  22  24
DOCKED: BRANCH  22  26
DOCKED: ATOM     26  O   UNL d   1      27.799  25.245   3.542 -0.08 -0.04    -0.303 OA
DOCKED: ATOM     27  H   UNL d   1      27.258  24.569   3.999 +0.06 +0.02    +0.222 HD
DOCKED: ENDBRANCH  22  26
DOCKED: ENDBRANCH  21  22
DOCKED: ENDBRANCH   6  21
DOCKED: BRANCH   3  28
DOCKED: ATOM     28  O   UNL d   1      21.032  23.090   3.930 -0.07 -0.01    -0.278 OA
DOCKED: BRANCH  28  29
DOCKED: ATOM     29  P   UNL d   1      20.352  21.658   4.077 -0.10 +0.02    +0.473 P 
DOCKED: ATOM     30  O   UNL d   1      18.894  21.609   3.796 -0.23 -0.02    -0.228 OA
DOCKED: BRANCH  29  31
DOCKED: ATOM     31  O   UNL d   1      21.305  20.796   3.123 -0.03 +0.00    -0.303 OA
DOCKED: ATOM     32  H   UNL d   1      22.237  21.076   3.275 +0.03 +0.00    +0.222 HD
DOCKED: ENDBRANCH  29  31
DOCKED: BRANCH  29  33
DOCKED: ATOM     33  O   UNL d   1      20.819  21.214   5.533 -0.07 -0.02    -0.303 OA
DOCKED: ATOM     34  H   UNL d   1      21.805  21.146   5.547 +0.04 +0.02    +0.222 HD
DOCKED: ENDBRANCH  29  33
DOCKED: ENDBRANCH  28  29
DOCKED: ENDBRANCH   3  28
DOCKED: BRANCH   5  35
DOCKED: ATOM     35  O   UNL d   1      25.237  24.740   4.968 -0.10 -0.06    -0.278 OA
DOCKED: BRANCH  35  36
DOCKED: ATOM     36  P   UNL d   1      26.421  24.008   5.746 -0.07 +0.07    +0.473 P 
DOCKED: ATOM     37  O   UNL d   1      27.242  23.062   4.928 -0.08 -0.01    -0.228 OA
DOCKED: BRANCH  36  38
DOCKED: ATOM     38  O   UNL d   1      27.237  25.243   6.334 -0.16 -0.08    -0.303 OA
DOCKED: ATOM     39  H   UNL d   1      27.365  25.910   5.625 +0.11 +0.08    +0.222 HD
DOCKED: ENDBRANCH  36  38
DOCKED: BRANCH  36  40
DOCKED: ATOM     40  O   UNL d   1      25.674  23.405   7.014 -0.09 -0.04    -0.303 OA
DOCKED: ATOM     41  H   UNL d   1      24.936  22.810   6.753 +0.06 +0.03    +0.222 HD
DOCKED: ENDBRANCH  36  40
DOCKED: ENDBRANCH  35  36
DOCKED: ENDBRANCH   5  35
DOCKED: BRANCH   4  42
DOCKED: ATOM     42  O   UNL d   1      23.573  22.350   5.062 -0.02 -0.02    -0.278 OA
DOCKED: BRANCH  42  43
DOCKED: ATOM     43  P   UNL d   1      24.225  21.137   4.257 +0.00 +0.01    +0.473 P 
DOCKED: ATOM     44  O   UNL d   1      24.389  21.300   2.785 -0.00 +0.00    -0.228 OA
DOCKED: BRANCH  43  45
DOCKED: ATOM     45  O   UNL d   1      25.588  20.891   5.040 -0.01 -0.01    -0.303 OA
DOCKED: ATOM     46  H   UNL d   1      25.846  21.674   5.565 +0.03 +0.01    +0.222 HD
DOCKED: ENDBRANCH  43  45
DOCKED: BRANCH  43  47
DOCKED: ATOM     47  O   UNL d   1      23.350  19.877   4.720 -0.00 -0.01    -0.303 OA
DOCKED: ATOM     48  H   UNL d   1      22.405  20.055   4.537 +0.02 +0.01    +0.222 HD
DOCKED: ENDBRANCH  43  47
DOCKED: ENDBRANCH  42  43
DOCKED: ENDBRANCH   4  42
DOCKED: TORSDOF 24
DOCKED: TER
DOCKED: ENDMDL
________________________________________________________________________________


	BEGINNING GENETIC ALGORITHM DOCKING 3 of 100
Run: 3 Seed: 1902835291 1904544328 [ Run 3 of 100 GA/GALS ]
Beginning LAMARCKIAN GENETIC ALGORITHM (LGA), with a maximum of 25000000 energy evaluations.

Final-Value: -17.136


	FINAL GENETIC ALGORITHM DOCKED STATE
	_______________________________________________


Detailed state:  trans 48.694 43.687 22.892 quatxyzw -0.288078 -0.606460 -0.657431 -0.342056 center 0.035 0.082 -0.065 ntor 24 159.8427 -149.3000 165.4770 11.1928 6.2753 -170.8776 -73.1991 5.0689 171.5476 -26.3003 95.4989 168.8159 98.0343 177.4520 168.5442 -0.4089 40.9319 28.5571 -0.9837 11.4644 -19.9025 -8.5960 -21.9898 -5.7464
State:	 48.694  43.687  22.892  -0.307 -0.645 -0.700 -139.996    159.84 -149.30  165.48   11.19    6.28 -170.88  -73.20    5.07  171.55  -26.30   95.50  168.82   98.03  177.45  168.54   -0.41   40.93   28.56   -0.98   11.46  -19.90   -8.60  -21.99   -5.75

DOCKED: MODEL        3
DOCKED: USER    Run = 3
DOCKED: USER    DPF = D:/Protein_go_brrr/autodock/final/6BB5/IHP/dock.dpf
DOCKED: USER  
DOCKED: USER    Estimated Free Energy of Binding    =   +5.25 kcal/mol  [=(1)+(2)+(3)-(4)]
DOCKED: USER    
DOCKED: USER    (1) Final Intermolecular Energy     =   -1.91 kcal/mol
DOCKED: USER        vdW + Hbond + desolv Energy     =   -1.85 kcal/mol
DOCKED: USER        Electrostatic Energy            =   -0.06 kcal/mol
DOCKED: USER    (2) Final Total Internal Energy     =  -15.23 kcal/mol
DOCKED: USER    (3) Torsional Free Energy           =   +7.16 kcal/mol
DOCKED: USER    (4) Unbound System's Energy  [=(2)] =  -15.23 kcal/mol
DOCKED: USER    
DOCKED: USER    
DOCKED: USER    NEWDPF move IHP_ideal_opt.pdbqt
DOCKED: USER    NEWDPF about 0.035000 0.082000 -0.065000
DOCKED: USER    NEWDPF tran0 48.694077 43.686759 22.891743
DOCKED: USER    NEWDPF quaternion0 -0.288078 -0.606460 -0.657431 -0.342056
DOCKED: USER    NEWDPF axisangle0 -0.306570 -0.645390 -0.699633 -139.995653
DOCKED: USER    NEWDPF quat0 -0.306570 -0.645390 -0.699633 -139.995653
DOCKED: USER    NEWDPF dihe0 159.84 -149.30 165.48 11.19 6.28 -170.88 -73.20 5.07 171.55 -26.30 95.50 168.82 98.03 177.45 168.54 -0.41 40.93 28.56 -0.98 11.46 -19.90 -8.60 -21.99 -5.75 
DOCKED: USER  keepresnum = 1 
DOCKED: USER  
DOCKED: REMARK  24 active torsions:
DOCKED: REMARK  status: ('A' for Active; 'I' for Inactive)
DOCKED: REMARK    1  A    between atoms: C_1  and  O_7 
DOCKED: REMARK    2  A    between atoms: C_2  and  O_12 
DOCKED: REMARK    3  A    between atoms: C_3  and  O_17 
DOCKED: REMARK    4  A    between atoms: C_4  and  O_22 
DOCKED: REMARK    5  A    between atoms: C_5  and  O_27 
DOCKED: REMARK    6  A    between atoms: C_6  and  O_32 
DOCKED: REMARK    7  A    between atoms: O_7  and  P_8 
DOCKED: REMARK    8  A    between atoms: P_8  and  O_10 
DOCKED: REMARK    9  A    between atoms: P_8  and  O_11 
DOCKED: REMARK   10  A    between atoms: O_12  and  P_13 
DOCKED: REMARK   11  A    between atoms: P_13  and  O_15 
DOCKED: REMARK   12  A    between atoms: P_13  and  O_16 
DOCKED: REMARK   13  A    between atoms: O_17  and  P_18 
DOCKED: REMARK   14  A    between atoms: P_18  and  O_20 
DOCKED: REMARK   15  A    between atoms: P_18  and  O_21 
DOCKED: REMARK   16  A    between atoms: O_22  and  P_23 
DOCKED: REMARK   17  A    between atoms: P_23  and  O_25 
DOCKED: REMARK   18  A    between atoms: P_23  and  O_26 
DOCKED: REMARK   19  A    between atoms: O_27  and  P_28 
DOCKED: REMARK   20  A    between atoms: P_28  and  O_30 
DOCKED: REMARK   21  A    between atoms: P_28  and  O_31 
DOCKED: REMARK   22  A    between atoms: O_32  and  P_33 
DOCKED: REMARK   23  A    between atoms: P_33  and  O_35 
DOCKED: REMARK   24  A    between atoms: P_33  and  O_36 
DOCKED: USER                              x       y       z     vdW  Elec       q    Type
DOCKED: USER                           _______ _______ _______ _____ _____    ______ ____
DOCKED: ROOT
DOCKED: ATOM      1  C   UNL d   1      47.204  44.375  23.431 -0.01 +0.00    +0.194 C 
DOCKED: ATOM      2  C   UNL d   1      47.324  44.157  21.921 -0.02 +0.00    +0.194 C 
DOCKED: ATOM      3  C   UNL d   1      48.698  44.577  21.396 -0.01 +0.00    +0.194 C 
DOCKED: ATOM      4  C   UNL d   1      49.855  43.943  22.164 -0.00 +0.00    +0.194 C 
DOCKED: ATOM      5  C   UNL d   1      49.719  44.035  23.678 +0.00 +0.00    +0.194 C 
DOCKED: ATOM      6  C   UNL d   1      48.326  43.675  24.199 +0.00 +0.00    +0.194 C 
DOCKED: ENDROOT
DOCKED: BRANCH   1   7
DOCKED: ATOM      7  O   UNL d   1      45.969  43.803  23.867 -0.01 -0.00    -0.278 OA
DOCKED: BRANCH   7   8
DOCKED: ATOM      8  P   UNL d   1      44.929  44.740  24.638 +0.01 +0.01    +0.473 P 
DOCKED: ATOM      9  O   UNL d   1      43.497  44.381  24.449 -0.03 +0.00    -0.228 OA
DOCKED: BRANCH   8  10
DOCKED: ATOM     10  O   UNL d   1      45.399  44.669  26.161 -0.00 -0.01    -0.303 OA
DOCKED: ATOM     11  H   UNL d   1      46.198  44.114  26.230 +0.00 +0.01    +0.222 HD
DOCKED: ENDBRANCH   8  10
DOCKED: BRANCH   8  12
DOCKED: ATOM     12  O   UNL d   1      45.332  46.223  24.234 -0.00 -0.01    -0.303 OA
DOCKED: ATOM     13  H   UNL d   1      44.638  46.885  24.456 +0.01 +0.01    +0.222 HD
DOCKED: ENDBRANCH   8  12
DOCKED: ENDBRANCH   7   8
DOCKED: ENDBRANCH   1   7
DOCKED: BRANCH   2  14
DOCKED: ATOM     14  O   UNL d   1      47.130  42.767  21.633 -0.02 +0.00    -0.278 OA
DOCKED: BRANCH  14  15
DOCKED: ATOM     15  P   UNL d   1      46.335  42.420  20.287 -0.07 -0.01    +0.473 P 
DOCKED: ATOM     16  O   UNL d   1      45.158  41.504  20.419 -0.22 -0.01    -0.228 OA
DOCKED: BRANCH  15  17
DOCKED: ATOM     17  O   UNL d   1      45.945  43.844  19.689 -0.18 +0.02    -0.303 OA
DOCKED: ATOM     18  H   UNL d   1      46.735  44.316  19.363 +0.03 -0.02    +0.222 HD
DOCKED: ENDBRANCH  15  17
DOCKED: BRANCH  15  19
DOCKED: ATOM     19  O   UNL d   1      47.463  41.945  19.271 -0.12 +0.03    -0.303 OA
DOCKED: ATOM     20  H   UNL d   1      48.215  42.565  19.252 +0.04 -0.02    +0.222 HD
DOCKED: ENDBRANCH  15  19
DOCKED: ENDBRANCH  14  15
DOCKED: ENDBRANCH   2  14
DOCKED: BRANCH   6  21
DOCKED: ATOM     21  O   UNL d   1      48.259  44.132  25.547 +0.00 -0.01    -0.278 OA
DOCKED: BRANCH  21  22
DOCKED: ATOM     22  P   UNL d   1      47.935  43.099  26.719 +0.00 +0.02    +0.473 P 
DOCKED: ATOM     23  O   UNL d   1      47.457  43.640  28.024 +0.00 -0.01    -0.228 OA
DOCKED: BRANCH  22  24
DOCKED: ATOM     24  O   UNL d   1      46.926  42.099  26.001 +0.00 -0.01    -0.303 OA
DOCKED: ATOM     25  H   UNL d   1      46.140  42.619  25.697 +0.01 +0.00    +0.222 HD
DOCKED: ENDBRANCH  22  24
DOCKED: BRANCH  22  26
DOCKED: ATOM     26  O   UNL d   1      49.282  42.231  26.769 +0.00 -0.01    -0.303 OA
DOCKED: ATOM     27  H   UNL d   1      49.986  42.700  26.275 +0.00 +0.01    +0.222 HD
DOCKED: ENDBRANCH  22  26
DOCKED: ENDBRANCH  21  22
DOCKED: ENDBRANCH   6  21
DOCKED: BRANCH   3  28
DOCKED: ATOM     28  O   UNL d   1      48.815  44.089  20.066 -0.03 +0.01    -0.278 OA
DOCKED: BRANCH  28  29
DOCKED: ATOM     29  P   UNL d   1      48.616  45.070  18.828 -0.00 -0.01    +0.473 P 
DOCKED: ATOM     30  O   UNL d   1      47.751  46.252  19.079 -0.55 -0.01    -0.228 OA
DOCKED: BRANCH  29  31
DOCKED: ATOM     31  O   UNL d   1      50.144  45.357  18.449 -0.06 +0.01    -0.303 OA
DOCKED: ATOM     32  H   UNL d   1      50.704  45.166  19.237 +0.02 -0.00    +0.222 HD
DOCKED: ENDBRANCH  29  31
DOCKED: BRANCH  29  33
DOCKED: ATOM     33  O   UNL d   1      48.151  44.070  17.679 -0.31 +0.06    -0.303 OA
DOCKED: ATOM     34  H   UNL d   1      47.281  43.674  17.931 -0.32 -0.10    +0.222 HD
DOCKED: ENDBRANCH  29  33
DOCKED: ENDBRANCH  28  29
DOCKED: ENDBRANCH   3  28
DOCKED: BRANCH   5  35
DOCKED: ATOM     35  O   UNL d   1      50.628  43.072  24.208 +0.00 -0.01    -0.278 OA
DOCKED: BRANCH  35  36
DOCKED: ATOM     36  P   UNL d   1      51.962  43.543  24.943 +0.00 +0.02    +0.473 P 
DOCKED: ATOM     37  O   UNL d   1      51.818  43.865  26.397 +0.00 -0.01    -0.228 OA
DOCKED: BRANCH  36  38
DOCKED: ATOM     38  O   UNL d   1      52.949  42.331  24.637 +0.00 -0.01    -0.303 OA
DOCKED: ATOM     39  H   UNL d   1      53.555  42.587  23.908 +0.00 +0.01    +0.222 HD
DOCKED: ENDBRANCH  36  38
DOCKED: BRANCH  36  40
DOCKED: ATOM     40  O   UNL d   1      52.480  44.709  23.993 +0.00 -0.01    -0.303 OA
DOCKED: ATOM     41  H   UNL d   1      52.776  44.364  23.121 +0.00 +0.01    +0.222 HD
DOCKED: ENDBRANCH  36  40
DOCKED: ENDBRANCH  35  36
DOCKED: ENDBRANCH   5  35
DOCKED: BRANCH   4  42
DOCKED: ATOM     42  O   UNL d   1      51.038  44.664  21.802 +0.00 -0.00    -0.278 OA
DOCKED: BRANCH  42  43
DOCKED: ATOM     43  P   UNL d   1      52.210  43.893  21.043 +0.00 +0.01    +0.473 P 
DOCKED: ATOM     44  O   UNL d   1      51.996  43.560  19.607 -0.00 +0.00    -0.228 OA
DOCKED: BRANCH  43  45
DOCKED: ATOM     45  O   UNL d   1      53.472  44.822  21.315 +0.00 -0.00    -0.303 OA
DOCKED: ATOM     46  H   UNL d   1      53.342  45.379  22.109 +0.00 +0.00    +0.222 HD
DOCKED: ENDBRANCH  43  45
DOCKED: BRANCH  43  47
DOCKED: ATOM     47  O   UNL d   1      52.510  42.646  22.005 +0.00 -0.01    -0.303 OA
DOCKED: ATOM     48  H   UNL d   1      52.060  42.785  22.864 +0.00 +0.01    +0.222 HD
DOCKED: ENDBRANCH  43  47
DOCKED: ENDBRANCH  42  43
DOCKED: ENDBRANCH   4  42
DOCKED: TORSDOF 24
DOCKED: TER
DOCKED: ENDMDL
________________________________________________________________________________


	BEGINNING GENETIC ALGORITHM DOCKING 4 of 100
Run: 4 Seed: 745548380 665976811 [ Run 4 of 100 GA/GALS ]
Beginning LAMARCKIAN GENETIC ALGORITHM (LGA), with a maximum of 25000000 energy evaluations.

Final-Value: -17.480


	FINAL GENETIC ALGORITHM DOCKED STATE
	_______________________________________________


Detailed state:  trans 14.762 13.399 -2.998 quatxyzw 0.535602 0.598770 -0.023130 -0.595037 center 0.035 0.082 -0.065 ntor 24 -171.9320 11.7282 156.7862 10.6888 15.4544 93.2649 -77.9223 0.7565 -8.4055 13.3644 -48.0225 157.8847 45.6977 174.8987 -53.1403 3.8042 -129.7677 57.1647 36.2563 13.5973 -171.5755 -8.3960 153.6669 -6.8991
State:	 14.762  13.399  -2.998   0.666  0.745 -0.029 -106.969   -171.93   11.73  156.79   10.69   15.45   93.26  -77.92    0.76   -8.41   13.36  -48.02  157.88   45.70  174.90  -53.14    3.80 -129.77   57.16   36.26   13.60 -171.58   -8.40  153.67   -6.90

DOCKED: MODEL        4
DOCKED: USER    Run = 4
DOCKED: USER    DPF = D:/Protein_go_brrr/autodock/final/6BB5/IHP/dock.dpf
DOCKED: USER  
DOCKED: USER    Estimated Free Energy of Binding    =   +3.10 kcal/mol  [=(1)+(2)+(3)-(4)]
DOCKED: USER    
DOCKED: USER    (1) Final Intermolecular Energy     =   -4.06 kcal/mol
DOCKED: USER        vdW + Hbond + desolv Energy     =   -3.38 kcal/mol
DOCKED: USER        Electrostatic Energy            =   -0.69 kcal/mol
DOCKED: USER    (2) Final Total Internal Energy     =  -13.42 kcal/mol
DOCKED: USER    (3) Torsional Free Energy           =   +7.16 kcal/mol
DOCKED: USER    (4) Unbound System's Energy  [=(2)] =  -13.42 kcal/mol
DOCKED: USER    
DOCKED: USER    
DOCKED: USER    NEWDPF move IHP_ideal_opt.pdbqt
DOCKED: USER    NEWDPF about 0.035000 0.082000 -0.065000
DOCKED: USER    NEWDPF tran0 14.762137 13.398558 -2.998154
DOCKED: USER    NEWDPF quaternion0 0.535602 0.598770 -0.023130 -0.595037
DOCKED: USER    NEWDPF axisangle0 0.666422 0.745019 -0.028779 -106.969427
DOCKED: USER    NEWDPF quat0 0.666422 0.745019 -0.028779 -106.969427
DOCKED: USER    NEWDPF dihe0 -171.93 11.73 156.79 10.69 15.45 93.26 -77.92 0.76 -8.41 13.36 -48.02 157.88 45.70 174.90 -53.14 3.80 -129.77 57.16 36.26 13.60 -171.58 -8.40 153.67 -6.90 
DOCKED: USER  keepresnum = 1 
DOCKED: USER  
DOCKED: REMARK  24 active torsions:
DOCKED: REMARK  status: ('A' for Active; 'I' for Inactive)
DOCKED: REMARK    1  A    between atoms: C_1  and  O_7 
DOCKED: REMARK    2  A    between atoms: C_2  and  O_12 
DOCKED: REMARK    3  A    between atoms: C_3  and  O_17 
DOCKED: REMARK    4  A    between atoms: C_4  and  O_22 
DOCKED: REMARK    5  A    between atoms: C_5  and  O_27 
DOCKED: REMARK    6  A    between atoms: C_6  and  O_32 
DOCKED: REMARK    7  A    between atoms: O_7  and  P_8 
DOCKED: REMARK    8  A    between atoms: P_8  and  O_10 
DOCKED: REMARK    9  A    between atoms: P_8  and  O_11 
DOCKED: REMARK   10  A    between atoms: O_12  and  P_13 
DOCKED: REMARK   11  A    between atoms: P_13  and  O_15 
DOCKED: REMARK   12  A    between atoms: P_13  and  O_16 
DOCKED: REMARK   13  A    between atoms: O_17  and  P_18 
DOCKED: REMARK   14  A    between atoms: P_18  and  O_20 
DOCKED: REMARK   15  A    between atoms: P_18  and  O_21 
DOCKED: REMARK   16  A    between atoms: O_22  and  P_23 
DOCKED: REMARK   17  A    between atoms: P_23  and  O_25 
DOCKED: REMARK   18  A    between atoms: P_23  and  O_26 
DOCKED: REMARK   19  A    between atoms: O_27  and  P_28 
DOCKED: REMARK   20  A    between atoms: P_28  and  O_30 
DOCKED: REMARK   21  A    between atoms: P_28  and  O_31 
DOCKED: REMARK   22  A    between atoms: O_32  and  P_33 
DOCKED: REMARK   23  A    between atoms: P_33  and  O_35 
DOCKED: REMARK   24  A    between atoms: P_33  and  O_36 
DOCKED: USER                              x       y       z     vdW  Elec       q    Type
DOCKED: USER                           _______ _______ _______ _____ _____    ______ ____
DOCKED: ROOT
DOCKED: ATOM      1  C   UNL d   1      15.065  13.264  -4.693 -0.06 -0.05    +0.194 C 
DOCKED: ATOM      2  C   UNL d   1      13.922  12.402  -4.156 -0.03 +0.01    +0.194 C 
DOCKED: ATOM      3  C   UNL d   1      14.292  11.731  -2.832 -0.01 +0.02    +0.194 C 
DOCKED: ATOM      4  C   UNL d   1      14.816  12.712  -1.786 -0.02 +0.02    +0.194 C 
DOCKED: ATOM      5  C   UNL d   1      15.878  13.670  -2.310 -0.03 -0.01    +0.194 C 
DOCKED: ATOM      6  C   UNL d   1      15.535  14.294  -3.665 -0.12 -0.04    +0.194 C 
DOCKED: ENDROOT
DOCKED: BRANCH   1   7
DOCKED: ATOM      7  O   UNL d   1      14.584  13.986  -5.830 -0.10 +0.16    -0.278 OA
DOCKED: BRANCH   7   8
DOCKED: ATOM      8  P   UNL d   1      14.646  13.279  -7.261 -0.02 -0.25    +0.473 P 
DOCKED: ATOM      9  O   UNL d   1      13.379  12.633  -7.701 -0.01 +0.04    -0.228 OA
DOCKED: BRANCH   8  10
DOCKED: ATOM     10  O   UNL d   1      15.136  14.436  -8.243 -0.04 +0.39    -0.303 OA
DOCKED: ATOM     11  H   UNL d   1      15.705  15.060  -7.755 -0.44 -0.67    +0.222 HD
DOCKED: ENDBRANCH   8  10
DOCKED: BRANCH   8  12
DOCKED: ATOM     12  O   UNL d   1      15.921  12.333  -7.199 -0.02 +0.11    -0.303 OA
DOCKED: ATOM     13  H   UNL d   1      16.648  12.701  -6.647 +0.02 -0.10    +0.222 HD
DOCKED: ENDBRANCH   8  12
DOCKED: ENDBRANCH   7   8
DOCKED: ENDBRANCH   1   7
DOCKED: BRANCH   2  14
DOCKED: ATOM     14  O   UNL d   1      12.773  13.230  -3.942 -0.10 -0.10    -0.278 OA
DOCKED: BRANCH  14  15
DOCKED: ATOM     15  P   UNL d   1      11.345  12.561  -4.224 -0.06 +0.35    +0.473 P 
DOCKED: ATOM     16  O   UNL d   1      10.407  13.326  -5.105 -0.52 -0.28    -0.228 OA
DOCKED: BRANCH  15  17
DOCKED: ATOM     17  O   UNL d   1      11.700  11.121  -4.804 -0.01 -0.08    -0.303 OA
DOCKED: ATOM     18  H   UNL d   1      12.203  10.594  -4.153 +0.02 +0.04    +0.222 HD
DOCKED: ENDBRANCH  15  17
DOCKED: BRANCH  15  19
DOCKED: ATOM     19  O   UNL d   1      10.786  12.196  -2.781 -0.06 -0.30    -0.303 OA
DOCKED: ATOM     20  H   UNL d   1      11.449  11.719  -2.247 +0.02 +0.12    +0.222 HD
DOCKED: ENDBRANCH  15  19
DOCKED: ENDBRANCH  14  15
DOCKED: ENDBRANCH   2  14
DOCKED: BRANCH   6  21
DOCKED: ATOM     21  O   UNL d   1      16.737  14.871  -4.169 -0.14 +0.14    -0.278 OA
DOCKED: BRANCH  21  22
DOCKED: ATOM     22  P   UNL d   1      17.760  13.970  -4.999 -0.04 -0.23    +0.473 P 
DOCKED: ATOM     23  O   UNL d   1      17.722  12.493  -4.797 -0.01 +0.05    -0.228 OA
DOCKED: BRANCH  22  24
DOCKED: ATOM     24  O   UNL d   1      17.478  14.448  -6.491 +0.04 +0.36    -0.303 OA
DOCKED: ATOM     25  H   UNL d   1      16.501  14.406  -6.648 -0.47 -0.36    +0.222 HD
DOCKED: ENDBRANCH  22  24
DOCKED: BRANCH  22  26
DOCKED: ATOM     26  O   UNL d   1      19.158  14.688  -4.680 -0.05 +0.10    -0.303 OA
DOCKED: ATOM     27  H   UNL d   1      19.256  15.472  -5.258 +0.03 -0.11    +0.222 HD
DOCKED: ENDBRANCH  22  26
DOCKED: ENDBRANCH  21  22
DOCKED: ENDBRANCH   6  21
DOCKED: BRANCH   3  28
DOCKED: ATOM     28  O   UNL d   1      13.100  11.189  -2.278 -0.01 -0.05    -0.278 OA
DOCKED: BRANCH  28  29
DOCKED: ATOM     29  P   UNL d   1      12.800   9.628  -2.384 +0.01 +0.06    +0.473 P 
DOCKED: ATOM     30  O   UNL d   1      13.511   8.912  -3.474 +0.00 -0.02    -0.228 OA
DOCKED: BRANCH  29  31
DOCKED: ATOM     31  O   UNL d   1      13.130   9.178  -0.884 +0.00 -0.03    -0.303 OA
DOCKED: ATOM     32  H   UNL d   1      13.779   9.813  -0.501 +0.01 +0.02    +0.222 HD
DOCKED: ENDBRANCH  29  31
DOCKED: BRANCH  29  33
DOCKED: ATOM     33  O   UNL d   1      11.209   9.596  -2.418 -0.00 -0.06    -0.303 OA
DOCKED: ATOM     34  H   UNL d   1      10.894  10.109  -3.202 +0.01 +0.06    +0.222 HD
DOCKED: ENDBRANCH  29  33
DOCKED: ENDBRANCH  28  29
DOCKED: ENDBRANCH   3  28
DOCKED: BRANCH   5  35
DOCKED: ATOM     35  O   UNL d   1      15.942  14.733  -1.363 -0.05 +0.00    -0.278 OA
DOCKED: BRANCH  35  36
DOCKED: ATOM     36  P   UNL d   1      14.801  15.847  -1.325 -0.13 +0.04    +0.473 P 
DOCKED: ATOM     37  O   UNL d   1      14.984  16.991  -2.272 -0.66 -0.01    -0.228 OA
DOCKED: BRANCH  36  38
DOCKED: ATOM     38  O   UNL d   1      13.491  14.982  -1.591 -0.15 -0.09    -0.303 OA
DOCKED: ATOM     39  H   UNL d   1      13.427  14.783  -2.550 +0.07 +0.07    +0.222 HD
DOCKED: ENDBRANCH  36  38
DOCKED: BRANCH  36  40
DOCKED: ATOM     40  O   UNL d   1      14.720  16.199   0.224 -0.33 -0.04    -0.303 OA
DOCKED: ATOM     41  H   UNL d   1      14.982  15.435   0.785 +0.07 +0.03    +0.222 HD
DOCKED: ENDBRANCH  36  40
DOCKED: ENDBRANCH  35  36
DOCKED: ENDBRANCH   5  35
DOCKED: BRANCH   4  42
DOCKED: ATOM     42  O   UNL d   1      15.426  11.931  -0.753 +0.00 -0.02    -0.278 OA
DOCKED: BRANCH  42  43
DOCKED: ATOM     43  P   UNL d   1      14.827  12.001   0.723 +0.01 +0.05    +0.473 P 
DOCKED: ATOM     44  O   UNL d   1      13.983  10.860   1.177 -0.00 -0.02    -0.228 OA
DOCKED: BRANCH  43  45
DOCKED: ATOM     45  O   UNL d   1      16.122  12.248   1.614 +0.00 -0.02    -0.303 OA
DOCKED: ATOM     46  H   UNL d   1      16.241  11.539   2.277 +0.00 +0.01    +0.222 HD
DOCKED: ENDBRANCH  43  45
DOCKED: BRANCH  43  47
DOCKED: ATOM     47  O   UNL d   1      14.123  13.441   0.765 -0.01 -0.05    -0.303 OA
DOCKED: ATOM     48  H   UNL d   1      14.532  14.020   0.089 +0.05 +0.03    +0.222 HD
DOCKED: ENDBRANCH  43  47
DOCKED: ENDBRANCH  42  43
DOCKED: ENDBRANCH   4  42
DOCKED: TORSDOF 24
DOCKED: TER
DOCKED: ENDMDL
________________________________________________________________________________


	BEGINNING GENETIC ALGORITHM DOCKING 5 of 100
Run: 5 Seed: 400153818 995567515 [ Run 5 of 100 GA/GALS ]
Beginning LAMARCKIAN GENETIC ALGORITHM (LGA), with a maximum of 25000000 energy evaluations.

Final-Value: -17.410


	FINAL GENETIC ALGORITHM DOCKED STATE
	_______________________________________________


Detailed state:  trans -3.918 18.773 14.565 quatxyzw 0.720483 -0.299439 0.202744 -0.591723 center 0.035 0.082 -0.065 ntor 24 93.0313 106.9289 149.8869 -4.8920 121.4872 177.8742 -47.4183 16.5174 54.2434 11.1191 166.7682 142.6645 -27.6091 74.6612 25.0032 169.5156 154.0756 -127.5942 33.2213 -29.8920 174.1609 -31.0865 -8.3132 162.0729
State:	 -3.918  18.773  14.565   0.894 -0.371  0.251 -107.441     93.03  106.93  149.89   -4.89  121.49  177.87  -47.42   16.52   54.24   11.12  166.77  142.66  -27.61   74.66   25.00  169.52  154.08 -127.59   33.22  -29.89  174.16  -31.09   -8.31  162.07

DOCKED: MODEL        5
DOCKED: USER    Run = 5
DOCKED: USER    DPF = D:/Protein_go_brrr/autodock/final/6BB5/IHP/dock.dpf
DOCKED: USER  
DOCKED: USER    Estimated Free Energy of Binding    =   +5.34 kcal/mol  [=(1)+(2)+(3)-(4)]
DOCKED: USER    
DOCKED: USER    (1) Final Intermolecular Energy     =   -1.82 kcal/mol
DOCKED: USER        vdW + Hbond + desolv Energy     =   -1.80 kcal/mol
DOCKED: USER        Electrostatic Energy            =   -0.03 kcal/mol
DOCKED: USER    (2) Final Total Internal Energy     =  -15.59 kcal/mol
DOCKED: USER    (3) Torsional Free Energy           =   +7.16 kcal/mol
DOCKED: USER    (4) Unbound System's Energy  [=(2)] =  -15.59 kcal/mol
DOCKED: USER    
DOCKED: USER    
DOCKED: USER    NEWDPF move IHP_ideal_opt.pdbqt
DOCKED: USER    NEWDPF about 0.035000 0.082000 -0.065000
DOCKED: USER    NEWDPF tran0 -3.918470 18.772984 14.564788
DOCKED: USER    NEWDPF quaternion0 0.720483 -0.299439 0.202744 -0.591723
DOCKED: USER    NEWDPF axisangle0 0.893742 -0.371447 0.251500 -107.441272
DOCKED: USER    NEWDPF quat0 0.893742 -0.371447 0.251500 -107.441272
DOCKED: USER    NEWDPF dihe0 93.03 106.93 149.89 -4.89 121.49 177.87 -47.42 16.52 54.24 11.12 166.77 142.66 -27.61 74.66 25.00 169.52 154.08 -127.59 33.22 -29.89 174.16 -31.09 -8.31 162.07 
DOCKED: USER  keepresnum = 1 
DOCKED: USER  
DOCKED: REMARK  24 active torsions:
DOCKED: REMARK  status: ('A' for Active; 'I' for Inactive)
DOCKED: REMARK    1  A    between atoms: C_1  and  O_7 
DOCKED: REMARK    2  A    between atoms: C_2  and  O_12 
DOCKED: REMARK    3  A    between atoms: C_3  and  O_17 
DOCKED: REMARK    4  A    between atoms: C_4  and  O_22 
DOCKED: REMARK    5  A    between atoms: C_5  and  O_27 
DOCKED: REMARK    6  A    between atoms: C_6  and  O_32 
DOCKED: REMARK    7  A    between atoms: O_7  and  P_8 
DOCKED: REMARK    8  A    between atoms: P_8  and  O_10 
DOCKED: REMARK    9  A    between atoms: P_8  and  O_11 
DOCKED: REMARK   10  A    between atoms: O_12  and  P_13 
DOCKED: REMARK   11  A    between atoms: P_13  and  O_15 
DOCKED: REMARK   12  A    between atoms: P_13  and  O_16 
DOCKED: REMARK   13  A    between atoms: O_17  and  P_18 
DOCKED: REMARK   14  A    between atoms: P_18  and  O_20 
DOCKED: REMARK   15  A    between atoms: P_18  and  O_21 
DOCKED: REMARK   16  A    between atoms: O_22  and  P_23 
DOCKED: REMARK   17  A    between atoms: P_23  and  O_25 
DOCKED: REMARK   18  A    between atoms: P_23  and  O_26 
DOCKED: REMARK   19  A    between atoms: O_27  and  P_28 
DOCKED: REMARK   20  A    between atoms: P_28  and  O_30 
DOCKED: REMARK   21  A    between atoms: P_28  and  O_31 
DOCKED: REMARK   22  A    between atoms: O_32  and  P_33 
DOCKED: REMARK   23  A    between atoms: P_33  and  O_35 
DOCKED: REMARK   24  A    between atoms: P_33  and  O_36 
DOCKED: USER                              x       y       z     vdW  Elec       q    Type
DOCKED: USER                           _______ _______ _______ _____ _____    ______ ____
DOCKED: ROOT
DOCKED: ATOM      1  C   UNL d   1      -2.446  17.869  14.553 -0.01 -0.01    +0.194 C 
DOCKED: ATOM      2  C   UNL d   1      -2.805  18.565  13.239 -0.03 -0.02    +0.194 C 
DOCKED: ATOM      3  C   UNL d   1      -4.290  18.410  12.903 -0.00 -0.01    +0.194 C 
DOCKED: ATOM      4  C   UNL d   1      -5.212  18.826  14.047 +0.00 -0.01    +0.194 C 
DOCKED: ATOM      5  C   UNL d   1      -4.822  18.247  15.401 +0.00 -0.01    +0.194 C 
DOCKED: ATOM      6  C   UNL d   1      -3.327  18.346  15.710 -0.00 -0.01    +0.194 C 
DOCKED: ENDROOT
DOCKED: BRANCH   1   7
DOCKED: ATOM      7  O   UNL d   1      -1.095  18.204  14.881 -0.02 +0.03    -0.278 OA
DOCKED: BRANCH   7   8
DOCKED: ATOM      8  P   UNL d   1       0.074  17.269  14.324 -0.03 -0.07    +0.473 P 
DOCKED: ATOM      9  O   UNL d   1      -0.266  16.493  13.101 -0.04 +0.03    -0.228 OA
DOCKED: BRANCH   8  10
DOCKED: ATOM     10  O   UNL d   1       1.300  18.268  14.113 -0.09 +0.10    -0.303 OA
DOCKED: ATOM     11  H   UNL d   1       1.079  18.916  13.419 -0.49 -0.12    +0.222 HD
DOCKED: ENDBRANCH   8  10
DOCKED: BRANCH   8  12
DOCKED: ATOM     12  O   UNL d   1       0.552  16.416  15.576 -0.01 +0.02    -0.303 OA
DOCKED: ATOM     13  H   UNL d   1      -0.158  15.843  15.946 +0.01 -0.01    +0.222 HD
DOCKED: ENDBRANCH   8  12
DOCKED: ENDBRANCH   7   8
DOCKED: ENDBRANCH   1   7
DOCKED: BRANCH   2  14
DOCKED: ATOM     14  O   UNL d   1      -2.506  19.962  13.353 -0.03 +0.03    -0.278 OA
DOCKED: BRANCH  14  15
DOCKED: ATOM     15  P   UNL d   1      -1.153  20.463  12.658 -0.12 -0.11    +0.473 P 
DOCKED: ATOM     16  O   UNL d   1      -1.259  21.658  11.763 -0.12 +0.07    -0.228 OA
DOCKED: BRANCH  15  17
DOCKED: ATOM     17  O   UNL d   1      -0.152  20.691  13.876 -0.14 +0.06    -0.303 OA
DOCKED: ATOM     18  H   UNL d   1      -0.083  19.889  14.429 +0.03 -0.04    +0.222 HD
DOCKED: ENDBRANCH  15  17
DOCKED: BRANCH  15  19
DOCKED: ATOM     19  O   UNL d   1      -0.544  19.155  11.986 -0.13 +0.10    -0.303 OA
DOCKED: ATOM     20  H   UNL d   1      -0.294  18.490  12.653 +0.02 -0.06    +0.222 HD
DOCKED: ENDBRANCH  15  19
DOCKED: ENDBRANCH  14  15
DOCKED: ENDBRANCH   2  14
DOCKED: BRANCH   6  21
DOCKED: ATOM     21  O   UNL d   1      -3.075  17.478  16.812 -0.00 +0.01    -0.278 OA
DOCKED: BRANCH  21  22
DOCKED: ATOM     22  P   UNL d   1      -3.116  15.897  16.601 +0.00 -0.01    +0.473 P 
DOCKED: ATOM     23  O   UNL d   1      -2.245  15.305  15.545 -0.00 +0.01    -0.228 OA
DOCKED: BRANCH  22  24
DOCKED: ATOM     24  O   UNL d   1      -2.835  15.365  18.074 +0.00 +0.00    -0.303 OA
DOCKED: ATOM     25  H   UNL d   1      -3.509  15.766  18.681 +0.00 -0.00    +0.222 HD
DOCKED: ENDBRANCH  22  24
DOCKED: BRANCH  22  26
DOCKED: ATOM     26  O   UNL d   1      -4.689  15.630  16.446 +0.00 +0.01    -0.303 OA
DOCKED: ATOM     27  H   UNL d   1      -5.164  16.486  16.461 +0.00 -0.00    +0.222 HD
DOCKED: ENDBRANCH  22  26
DOCKED: ENDBRANCH  21  22
DOCKED: ENDBRANCH   6  21
DOCKED: BRANCH   3  28
DOCKED: ATOM     28  O   UNL d   1      -4.583  19.304  11.837 -0.01 +0.02    -0.278 OA
DOCKED: BRANCH  28  29
DOCKED: ATOM     29  P   UNL d   1      -4.209  18.919  10.338 -0.02 -0.03    +0.473 P 
DOCKED: ATOM     30  O   UNL d   1      -5.177  19.361   9.302 -0.01 +0.02    -0.228 OA
DOCKED: BRANCH  29  31
DOCKED: ATOM     31  O   UNL d   1      -2.730  19.526  10.255 -0.61 +0.01    -0.303 OA
DOCKED: ATOM     32  H   UNL d   1      -2.484  19.876  11.142 +0.03 -0.02    +0.222 HD
DOCKED: ENDBRANCH  29  31
DOCKED: BRANCH  29  33
DOCKED: ATOM     33  O   UNL d   1      -3.941  17.354  10.452 -0.01 +0.02    -0.303 OA
DOCKED: ATOM     34  H   UNL d   1      -4.807  16.884  10.526 +0.01 -0.01    +0.222 HD
DOCKED: ENDBRANCH  29  33
DOCKED: ENDBRANCH  28  29
DOCKED: ENDBRANCH   3  28
DOCKED: BRANCH   5  35
DOCKED: ATOM     35  O   UNL d   1      -5.505  19.038  16.371 +0.00 +0.01    -0.278 OA
DOCKED: BRANCH  35  36
DOCKED: ATOM     36  P   UNL d   1      -6.505  18.353  17.408 +0.00 -0.01    +0.473 P 
DOCKED: ATOM     37  O   UNL d   1      -7.473  19.276  18.077 +0.00 +0.00    -0.228 OA
DOCKED: BRANCH  36  38
DOCKED: ATOM     38  O   UNL d   1      -7.186  17.229  16.509 +0.00 +0.00    -0.303 OA
DOCKED: ATOM     39  H   UNL d   1      -7.014  17.425  15.563 +0.00 -0.00    +0.222 HD
DOCKED: ENDBRANCH  36  38
DOCKED: BRANCH  36  40
DOCKED: ATOM     40  O   UNL d   1      -5.513  17.540  18.350 +0.00 +0.00    -0.303 OA
DOCKED: ATOM     41  H   UNL d   1      -4.711  17.244  17.866 +0.00 -0.00    +0.222 HD
DOCKED: ENDBRANCH  36  40
DOCKED: ENDBRANCH  35  36
DOCKED: ENDBRANCH   5  35
DOCKED: BRANCH   4  42
DOCKED: ATOM     42  O   UNL d   1      -6.515  18.324  13.733 +0.00 +0.01    -0.278 OA
DOCKED: BRANCH  42  43
DOCKED: ATOM     43  P   UNL d   1      -6.674  16.786  13.339 +0.00 -0.01    +0.473 P 
DOCKED: ATOM     44  O   UNL d   1      -6.372  16.403  11.931 +0.00 +0.01    -0.228 OA
DOCKED: BRANCH  43  45
DOCKED: ATOM     45  O   UNL d   1      -5.768  16.053  14.422 +0.00 +0.01    -0.303 OA
DOCKED: ATOM     46  H   UNL d   1      -6.294  15.768  15.195 +0.00 -0.00    +0.222 HD
DOCKED: ENDBRANCH  43  45
DOCKED: BRANCH  43  47
DOCKED: ATOM     47  O   UNL d   1      -8.150  16.428  13.852 +0.00 +0.01    -0.303 OA
DOCKED: ATOM     48  H   UNL d   1      -8.314  16.882  14.704 +0.00 -0.00    +0.222 HD
DOCKED: ENDBRANCH  43  47
DOCKED: ENDBRANCH  42  43
DOCKED: ENDBRANCH   4  42
DOCKED: TORSDOF 24
DOCKED: TER
DOCKED: ENDMDL
________________________________________________________________________________


	BEGINNING GENETIC ALGORITHM DOCKING 6 of 100
Run: 6 Seed: 1186015041 37979923 [ Run 6 of 100 GA/GALS ]
Beginning LAMARCKIAN GENETIC ALGORITHM (LGA), with a maximum of 25000000 energy evaluations.

Final-Value: -17.192


	FINAL GENETIC ALGORITHM DOCKED STATE
	_______________________________________________


Detailed state:  trans 35.865 31.510 -0.205 quatxyzw 0.424524 0.842010 0.220152 0.249662 center 0.035 0.082 -0.065 ntor 24 88.5329 33.7658 163.7909 -56.7989 95.7636 172.1726 -110.3881 -19.3176 54.4761 -16.1958 158.8565 153.3339 175.4183 -147.0941 28.4516 35.7223 160.8997 -137.0880 28.0761 -31.9016 167.4575 -52.7150 -5.0715 162.0413
State:	 35.865  31.510  -0.205   0.438  0.870  0.227 151.085     88.53   33.77  163.79  -56.80   95.76  172.17 -110.39  -19.32   54.48  -16.20  158.86  153.33  175.42 -147.09   28.45   35.72  160.90 -137.09   28.08  -31.90  167.46  -52.71   -5.07  162.04

DOCKED: MODEL        6
DOCKED: USER    Run = 6
DOCKED: USER    DPF = D:/Protein_go_brrr/autodock/final/6BB5/IHP/dock.dpf
DOCKED: USER  
DOCKED: USER    Estimated Free Energy of Binding    =   +4.14 kcal/mol  [=(1)+(2)+(3)-(4)]
DOCKED: USER    
DOCKED: USER    (1) Final Intermolecular Energy     =   -3.02 kcal/mol
DOCKED: USER        vdW + Hbond + desolv Energy     =   -2.70 kcal/mol
DOCKED: USER        Electrostatic Energy            =   -0.32 kcal/mol
DOCKED: USER    (2) Final Total Internal Energy     =  -14.17 kcal/mol
DOCKED: USER    (3) Torsional Free Energy           =   +7.16 kcal/mol
DOCKED: USER    (4) Unbound System's Energy  [=(2)] =  -14.17 kcal/mol
DOCKED: USER    
DOCKED: USER    
DOCKED: USER    NEWDPF move IHP_ideal_opt.pdbqt
DOCKED: USER    NEWDPF about 0.035000 0.082000 -0.065000
DOCKED: USER    NEWDPF tran0 35.864513 31.510218 -0.204801
DOCKED: USER    NEWDPF quaternion0 0.424524 0.842010 0.220152 0.249662
DOCKED: USER    NEWDPF axisangle0 0.438407 0.869546 0.227351 151.084992
DOCKED: USER    NEWDPF quat0 0.438407 0.869546 0.227351 151.084992
DOCKED: USER    NEWDPF dihe0 88.53 33.77 163.79 -56.80 95.76 172.17 -110.39 -19.32 54.48 -16.20 158.86 153.33 175.42 -147.09 28.45 35.72 160.90 -137.09 28.08 -31.90 167.46 -52.71 -5.07 162.04 
DOCKED: USER  keepresnum = 1 
DOCKED: USER  
DOCKED: REMARK  24 active torsions:
DOCKED: REMARK  status: ('A' for Active; 'I' for Inactive)
DOCKED: REMARK    1  A    between atoms: C_1  and  O_7 
DOCKED: REMARK    2  A    between atoms: C_2  and  O_12 
DOCKED: REMARK    3  A    between atoms: C_3  and  O_17 
DOCKED: REMARK    4  A    between atoms: C_4  and  O_22 
DOCKED: REMARK    5  A    between atoms: C_5  and  O_27 
DOCKED: REMARK    6  A    between atoms: C_6  and  O_32 
DOCKED: REMARK    7  A    between atoms: O_7  and  P_8 
DOCKED: REMARK    8  A    between atoms: P_8  and  O_10 
DOCKED: REMARK    9  A    between atoms: P_8  and  O_11 
DOCKED: REMARK   10  A    between atoms: O_12  and  P_13 
DOCKED: REMARK   11  A    between atoms: P_13  and  O_15 
DOCKED: REMARK   12  A    between atoms: P_13  and  O_16 
DOCKED: REMARK   13  A    between atoms: O_17  and  P_18 
DOCKED: REMARK   14  A    between atoms: P_18  and  O_20 
DOCKED: REMARK   15  A    between atoms: P_18  and  O_21 
DOCKED: REMARK   16  A    between atoms: O_22  and  P_23 
DOCKED: REMARK   17  A    between atoms: P_23  and  O_25 
DOCKED: REMARK   18  A    between atoms: P_23  and  O_26 
DOCKED: REMARK   19  A    between atoms: O_27  and  P_28 
DOCKED: REMARK   20  A    between atoms: P_28  and  O_30 
DOCKED: REMARK   21  A    between atoms: P_28  and  O_31 
DOCKED: REMARK   22  A    between atoms: O_32  and  P_33 
DOCKED: REMARK   23  A    between atoms: P_33  and  O_35 
DOCKED: REMARK   24  A    between atoms: P_33  and  O_36 
DOCKED: USER                              x       y       z     vdW  Elec       q    Type
DOCKED: USER                           _______ _______ _______ _____ _____    ______ ____
DOCKED: ROOT
DOCKED: ATOM      1  C   UNL d   1      34.302  32.247  -0.200 -0.03 +0.03    +0.194 C 
DOCKED: ATOM      2  C   UNL d   1      34.368  30.841  -0.799 -0.03 +0.03    +0.194 C 
DOCKED: ATOM      3  C   UNL d   1      35.590  30.666  -1.702 -0.02 +0.01    +0.194 C 
DOCKED: ATOM      4  C   UNL d   1      36.899  31.068  -1.027 -0.06 +0.00    +0.194 C 
DOCKED: ATOM      5  C   UNL d   1      36.844  32.415  -0.318 -0.08 -0.00    +0.194 C 
DOCKED: ATOM      6  C   UNL d   1      35.591  32.614   0.537 -0.09 +0.01    +0.194 C 
DOCKED: ENDROOT
DOCKED: BRANCH   1   7
DOCKED: ATOM      7  O   UNL d   1      33.241  32.276   0.757 -0.05 -0.10    -0.278 OA
DOCKED: BRANCH   7   8
DOCKED: ATOM      8  P   UNL d   1      31.802  32.782   0.281 -0.01 +0.31    +0.473 P 
DOCKED: ATOM      9  O   UNL d   1      31.151  33.769   1.184 -0.09 -0.17    -0.228 OA
DOCKED: BRANCH   8  10
DOCKED: ATOM     10  O   UNL d   1      32.058  33.347  -1.189 -0.01 -0.09    -0.303 OA
DOCKED: ATOM     11  H   UNL d   1      32.590  34.163  -1.137 +0.01 +0.04    +0.222 HD
DOCKED: ENDBRANCH   8  10
DOCKED: BRANCH   8  12
DOCKED: ATOM     12  O   UNL d   1      30.975  31.457  -0.012 -0.27 -0.38    -0.303 OA
DOCKED: ATOM     13  H   UNL d   1      31.534  30.648  -0.023 +0.03 +0.19    +0.222 HD
DOCKED: ENDBRANCH   8  12
DOCKED: ENDBRANCH   7   8
DOCKED: ENDBRANCH   1   7
DOCKED: BRANCH   2  14
DOCKED: ATOM     14  O   UNL d   1      34.446  29.884   0.265 -0.08 -0.04    -0.278 OA
DOCKED: BRANCH  14  15
DOCKED: ATOM     15  P   UNL d   1      33.082  29.148   0.667 -0.12 +0.14    +0.473 P 
DOCKED: ATOM     16  O   UNL d   1      32.268  29.785   1.750 -0.21 -0.16    -0.228 OA
DOCKED: BRANCH  15  17
DOCKED: ATOM     17  O   UNL d   1      32.289  29.023  -0.709 -0.03 -0.09    -0.303 OA
DOCKED: ATOM     18  H   UNL d   1      32.733  28.401  -1.316 +0.03 +0.03    +0.222 HD
DOCKED: ENDBRANCH  15  17
DOCKED: BRANCH  15  19
DOCKED: ATOM     19  O   UNL d   1      33.508  27.638   0.928 -0.19 -0.02    -0.303 OA
DOCKED: ATOM     20  H   UNL d   1      33.084  27.029   0.295 +0.06 +0.01    +0.222 HD
DOCKED: ENDBRANCH  15  19
DOCKED: ENDBRANCH  14  15
DOCKED: ENDBRANCH   2  14
DOCKED: BRANCH   6  21
DOCKED: ATOM     21  O   UNL d   1      35.517  34.005   0.842 -0.10 -0.00    -0.278 OA
DOCKED: BRANCH  21  22
DOCKED: ATOM     22  P   UNL d   1      35.287  35.062  -0.331 -0.04 +0.00    +0.473 P 
DOCKED: ATOM     23  O   UNL d   1      34.059  34.930  -1.168 -0.01 -0.02    -0.228 OA
DOCKED: BRANCH  22  24
DOCKED: ATOM     24  O   UNL d   1      35.418  36.444   0.447 -0.05 +0.05    -0.303 OA
DOCKED: ATOM     25  H   UNL d   1      36.037  36.311   1.210 -0.49 -0.12    +0.222 HD
DOCKED: ENDBRANCH  22  24
DOCKED: BRANCH  22  26
DOCKED: ATOM     26  O   UNL d   1      36.683  34.988  -1.114 -0.04 +0.00    -0.303 OA
DOCKED: ATOM     27  H   UNL d   1      37.278  34.362  -0.653 +0.05 -0.00    +0.222 HD
DOCKED: ENDBRANCH  22  26
DOCKED: ENDBRANCH  21  22
DOCKED: ENDBRANCH   6  21
DOCKED: BRANCH   3  28
DOCKED: ATOM     28  O   UNL d   1      35.721  29.278  -1.983 -0.02 -0.01    -0.278 OA
DOCKED: BRANCH  28  29
DOCKED: ATOM     29  P   UNL d   1      34.527  28.482  -2.674 +0.00 +0.02    +0.473 P 
DOCKED: ATOM     30  O   UNL d   1      33.414  29.318  -3.191 -0.00 -0.02    -0.228 OA
DOCKED: BRANCH  29  31
DOCKED: ATOM     31  O   UNL d   1      35.349  27.623  -3.746 -0.00 -0.00    -0.303 OA
DOCKED: ATOM     32  H   UNL d   1      35.840  28.243  -4.334 +0.00 +0.00    +0.222 HD
DOCKED: ENDBRANCH  29  31
DOCKED: BRANCH  29  33
DOCKED: ATOM     33  O   UNL d   1      34.161  27.400  -1.565 -0.02 -0.01    -0.303 OA
DOCKED: ATOM     34  H   UNL d   1      34.208  27.826  -0.674 +0.05 +0.01    +0.222 HD
DOCKED: ENDBRANCH  29  33
DOCKED: ENDBRANCH  28  29
DOCKED: ENDBRANCH   3  28
DOCKED: BRANCH   5  35
DOCKED: ATOM     35  O   UNL d   1      37.963  32.433   0.566 -0.17 +0.04    -0.278 OA
DOCKED: BRANCH  35  36
DOCKED: ATOM     36  P   UNL d   1      39.019  33.627   0.503 -0.21 -0.07    +0.473 P 
DOCKED: ATOM     37  O   UNL d   1      40.392  33.300   0.996 -0.27 +0.05    -0.228 OA
DOCKED: BRANCH  36  38
DOCKED: ATOM     38  O   UNL d   1      38.955  34.038  -1.034 -0.06 +0.01    -0.303 OA
DOCKED: ATOM     39  H   UNL d   1      38.513  33.323  -1.540 +0.05 -0.00    +0.222 HD
DOCKED: ENDBRANCH  36  38
DOCKED: BRANCH  36  40
DOCKED: ATOM     40  O   UNL d   1      38.247  34.803   1.246 -0.18 +0.02    -0.303 OA
DOCKED: ATOM     41  H   UNL d   1      37.389  35.008   0.810 +0.01 -0.02    +0.222 HD
DOCKED: ENDBRANCH  36  40
DOCKED: ENDBRANCH  35  36
DOCKED: ENDBRANCH   5  35
DOCKED: BRANCH   4  42
DOCKED: ATOM     42  O   UNL d   1      37.883  31.177  -2.062 -0.02 +0.00    -0.278 OA
DOCKED: BRANCH  42  43
DOCKED: ATOM     43  P   UNL d   1      37.554  32.059  -3.349 +0.00 +0.01    +0.473 P 
DOCKED: ATOM     44  O   UNL d   1      36.929  31.371  -4.513 -0.00 -0.00    -0.228 OA
DOCKED: BRANCH  43  45
DOCKED: ATOM     45  O   UNL d   1      36.678  33.243  -2.746 -0.00 -0.01    -0.303 OA
DOCKED: ATOM     46  H   UNL d   1      37.240  33.969  -2.409 +0.02 +0.00    +0.222 HD
DOCKED: ENDBRANCH  43  45
DOCKED: BRANCH  43  47
DOCKED: ATOM     47  O   UNL d   1      38.942  32.802  -3.649 -0.00 -0.00    -0.303 OA
DOCKED: ATOM     48  H   UNL d   1      39.443  32.901  -2.812 +0.03 -0.00    +0.222 HD
DOCKED: ENDBRANCH  43  47
DOCKED: ENDBRANCH  42  43
DOCKED: ENDBRANCH   4  42
DOCKED: TORSDOF 24
DOCKED: TER
DOCKED: ENDMDL
________________________________________________________________________________


	BEGINNING GENETIC ALGORITHM DOCKING 7 of 100
Run: 7 Seed: 176052577 468344684 [ Run 7 of 100 GA/GALS ]
Beginning LAMARCKIAN GENETIC ALGORITHM (LGA), with a maximum of 25000000 energy evaluations.

Final-Value: -18.495


	FINAL GENETIC ALGORITHM DOCKED STATE
	_______________________________________________


Detailed state:  trans 44.877 17.329 16.056 quatxyzw -0.443810 -0.345970 0.306655 -0.767659 center 0.035 0.082 -0.065 ntor 24 113.7000 113.9942 154.9070 16.8481 105.8272 92.0886 179.4709 -102.9382 87.4837 107.5349 64.8535 -77.8815 -76.3803 -143.1918 178.2247 -47.8849 50.4561 -93.6773 -148.3131 4.2860 13.0079 143.8081 -178.4605 -125.8486
State:	 44.877  17.329  16.056  -0.693 -0.540  0.479 -79.712    113.70  113.99  154.91   16.85  105.83   92.09  179.47 -102.94   87.48  107.53   64.85  -77.88  -76.38 -143.19  178.22  -47.88   50.46  -93.68 -148.31    4.29   13.01  143.81 -178.46 -125.85

DOCKED: MODEL        7
DOCKED: USER    Run = 7
DOCKED: USER    DPF = D:/Protein_go_brrr/autodock/final/6BB5/IHP/dock.dpf
DOCKED: USER  
DOCKED: USER    Estimated Free Energy of Binding    =   +3.60 kcal/mol  [=(1)+(2)+(3)-(4)]
DOCKED: USER    
DOCKED: USER    (1) Final Intermolecular Energy     =   -3.56 kcal/mol
DOCKED: USER        vdW + Hbond + desolv Energy     =   -3.22 kcal/mol
DOCKED: USER        Electrostatic Energy            =   -0.34 kcal/mol
DOCKED: USER    (2) Final Total Internal Energy     =  -14.94 kcal/mol
DOCKED: USER    (3) Torsional Free Energy           =   +7.16 kcal/mol
DOCKED: USER    (4) Unbound System's Energy  [=(2)] =  -14.94 kcal/mol
DOCKED: USER    
DOCKED: USER    
DOCKED: USER    NEWDPF move IHP_ideal_opt.pdbqt
DOCKED: USER    NEWDPF about 0.035000 0.082000 -0.065000
DOCKED: USER    NEWDPF tran0 44.877475 17.329185 16.056454
DOCKED: USER    NEWDPF quaternion0 -0.443810 -0.345970 0.306655 -0.767659
DOCKED: USER    NEWDPF axisangle0 -0.692524 -0.539853 0.478507 -79.711780
DOCKED: USER    NEWDPF quat0 -0.692524 -0.539853 0.478507 -79.711780
DOCKED: USER    NEWDPF dihe0 113.70 113.99 154.91 16.85 105.83 92.09 179.47 -102.94 87.48 107.53 64.85 -77.88 -76.38 -143.19 178.22 -47.88 50.46 -93.68 -148.31 4.29 13.01 143.81 -178.46 -125.85 
DOCKED: USER  keepresnum = 1 
DOCKED: USER  
DOCKED: REMARK  24 active torsions:
DOCKED: REMARK  status: ('A' for Active; 'I' for Inactive)
DOCKED: REMARK    1  A    between atoms: C_1  and  O_7 
DOCKED: REMARK    2  A    between atoms: C_2  and  O_12 
DOCKED: REMARK    3  A    between atoms: C_3  and  O_17 
DOCKED: REMARK    4  A    between atoms: C_4  and  O_22 
DOCKED: REMARK    5  A    between atoms: C_5  and  O_27 
DOCKED: REMARK    6  A    between atoms: C_6  and  O_32 
DOCKED: REMARK    7  A    between atoms: O_7  and  P_8 
DOCKED: REMARK    8  A    between atoms: P_8  and  O_10 
DOCKED: REMARK    9  A    between atoms: P_8  and  O_11 
DOCKED: REMARK   10  A    between atoms: O_12  and  P_13 
DOCKED: REMARK   11  A    between atoms: P_13  and  O_15 
DOCKED: REMARK   12  A    between atoms: P_13  and  O_16 
DOCKED: REMARK   13  A    between atoms: O_17  and  P_18 
DOCKED: REMARK   14  A    between atoms: P_18  and  O_20 
DOCKED: REMARK   15  A    between atoms: P_18  and  O_21 
DOCKED: REMARK   16  A    between atoms: O_22  and  P_23 
DOCKED: REMARK   17  A    between atoms: P_23  and  O_25 
DOCKED: REMARK   18  A    between atoms: P_23  and  O_26 
DOCKED: REMARK   19  A    between atoms: O_27  and  P_28 
DOCKED: REMARK   20  A    between atoms: P_28  and  O_30 
DOCKED: REMARK   21  A    between atoms: P_28  and  O_31 
DOCKED: REMARK   22  A    between atoms: O_32  and  P_33 
DOCKED: REMARK   23  A    between atoms: P_33  and  O_35 
DOCKED: REMARK   24  A    between atoms: P_33  and  O_36 
DOCKED: USER                              x       y       z     vdW  Elec       q    Type
DOCKED: USER                           _______ _______ _______ _____ _____    ______ ____
DOCKED: ROOT
DOCKED: ATOM      1  C   UNL d   1      45.105  18.304  17.464 -0.12 +0.05    +0.194 C 
DOCKED: ATOM      2  C   UNL d   1      44.818  16.824  17.724 -0.18 +0.05    +0.194 C 
DOCKED: ATOM      3  C   UNL d   1      43.703  16.295  16.820 -0.16 +0.05    +0.194 C 
DOCKED: ATOM      4  C   UNL d   1      43.941  16.586  15.340 -0.10 +0.05    +0.194 C 
DOCKED: ATOM      5  C   UNL d   1      44.342  18.026  15.047 -0.10 +0.06    +0.194 C 
DOCKED: ATOM      6  C   UNL d   1      45.413  18.575  15.991 -0.09 +0.08    +0.194 C 
DOCKED: ENDROOT
DOCKED: BRANCH   1   7
DOCKED: ATOM      7  O   UNL d   1      46.263  18.673  18.217 -0.11 -0.10    -0.278 OA
DOCKED: BRANCH   7   8
DOCKED: ATOM      8  P   UNL d   1      47.698  18.500  17.537 -0.02 +0.27    +0.473 P 
DOCKED: ATOM      9  O   UNL d   1      47.765  17.476  16.459 -0.02 -0.11    -0.228 OA
DOCKED: BRANCH   8  10
DOCKED: ATOM     10  O   UNL d   1      48.066  19.968  17.033 -0.03 -0.38    -0.303 OA
DOCKED: ATOM     11  H   UNL d   1      47.288  20.372  16.605 +0.04 +0.27    +0.222 HD
DOCKED: ENDBRANCH   8  10
DOCKED: BRANCH   8  12
DOCKED: ATOM     12  O   UNL d   1      48.707  18.300  18.747 -0.01 -0.13    -0.303 OA
DOCKED: ATOM     13  H   UNL d   1      48.585  17.443  19.214 +0.02 +0.07    +0.222 HD
DOCKED: ENDBRANCH   8  12
DOCKED: ENDBRANCH   7   8
DOCKED: ENDBRANCH   1   7
DOCKED: BRANCH   2  14
DOCKED: ATOM     14  O   UNL d   1      46.009  16.067  17.472 -0.04 -0.07    -0.278 OA
DOCKED: BRANCH  14  15
DOCKED: ATOM     15  P   UNL d   1      46.379  14.938  18.546 -0.01 +0.09    +0.473 P 
DOCKED: ATOM     16  O   UNL d   1      47.206  15.369  19.716 -0.03 -0.04    -0.228 OA
DOCKED: BRANCH  15  17
DOCKED: ATOM     17  O   UNL d   1      44.970  14.333  18.975 -0.07 -0.05    -0.303 OA
DOCKED: ATOM     18  H   UNL d   1      44.495  13.966  18.204 +0.05 +0.04    +0.222 HD
DOCKED: ENDBRANCH  15  17
DOCKED: BRANCH  15  19
DOCKED: ATOM     19  O   UNL d   1      46.986  13.750  17.678 -0.00 -0.05    -0.303 OA
DOCKED: ATOM     20  H   UNL d   1      46.467  13.593  16.868 +0.01 +0.04    +0.222 HD
DOCKED: ENDBRANCH  15  19
DOCKED: ENDBRANCH  14  15
DOCKED: ENDBRANCH   2  14
DOCKED: BRANCH   6  21
DOCKED: ATOM     21  O   UNL d   1      45.428  19.990  15.821 -0.10 -0.15    -0.278 OA
DOCKED: BRANCH  21  22
DOCKED: ATOM     22  P   UNL d   1      46.373  20.645  14.714 +0.01 +0.50    +0.473 P 
DOCKED: ATOM     23  O   UNL d   1      46.872  22.031  14.945 -0.31 -0.35    -0.228 OA
DOCKED: BRANCH  22  24
DOCKED: ATOM     24  O   UNL d   1      47.511  19.542  14.565 -0.51 -0.42    -0.303 OA
DOCKED: ATOM     25  H   UNL d   1      47.081  18.649  14.602 +0.05 +0.17    +0.222 HD
DOCKED: ENDBRANCH  22  24
DOCKED: BRANCH  22  26
DOCKED: ATOM     26  O   UNL d   1      45.515  20.419  13.379 -0.15 -0.18    -0.303 OA
DOCKED: ATOM     27  H   UNL d   1      45.662  19.508  13.052 +0.09 +0.12    +0.222 HD
DOCKED: ENDBRANCH  22  26
DOCKED: ENDBRANCH  21  22
DOCKED: ENDBRANCH   6  21
DOCKED: BRANCH   3  28
DOCKED: ATOM     28  O   UNL d   1      43.699  14.878  16.930 -0.11 -0.06    -0.278 OA
DOCKED: BRANCH  28  29
DOCKED: ATOM     29  P   UNL d   1      44.270  13.977  15.747 -0.03 +0.08    +0.473 P 
DOCKED: ATOM     30  O   UNL d   1      43.410  13.884  14.539 -0.04 -0.04    -0.228 OA
DOCKED: BRANCH  29  31
DOCKED: ATOM     31  O   UNL d   1      45.714  14.643  15.562 -0.01 -0.06    -0.303 OA
DOCKED: ATOM     32  H   UNL d   1      45.840  14.857  14.608 +0.01 +0.05    +0.222 HD
DOCKED: ENDBRANCH  29  31
DOCKED: BRANCH  29  33
DOCKED: ATOM     33  O   UNL d   1      44.606  12.614  16.497 -0.01 -0.04    -0.303 OA
DOCKED: ATOM     34  H   UNL d   1      45.054  12.820  17.354 +0.02 +0.03    +0.222 HD
DOCKED: ENDBRANCH  29  33
DOCKED: ENDBRANCH  28  29
DOCKED: ENDBRANCH   3  28
DOCKED: BRANCH   5  35
DOCKED: ATOM     35  O   UNL d   1      44.905  18.012  13.737 -0.04 -0.10    -0.278 OA
DOCKED: BRANCH  35  36
DOCKED: ATOM     36  P   UNL d   1      45.996  16.918  13.341 +0.02 +0.18    +0.473 P 
DOCKED: ATOM     37  O   UNL d   1      45.466  15.693  12.666 -0.00 -0.07    -0.228 OA
DOCKED: BRANCH  36  38
DOCKED: ATOM     38  O   UNL d   1      47.005  17.771  12.452 -0.05 -0.17    -0.303 OA
DOCKED: ATOM     39  H   UNL d   1      46.854  18.726  12.621 +0.06 +0.15    +0.222 HD
DOCKED: ENDBRANCH  36  38
DOCKED: BRANCH  36  40
DOCKED: ATOM     40  O   UNL d   1      46.777  16.706  14.710 +0.00 -0.12    -0.303 OA
DOCKED: ATOM     41  H   UNL d   1      46.203  16.303  15.398 +0.03 +0.07    +0.222 HD
DOCKED: ENDBRANCH  36  40
DOCKED: ENDBRANCH  35  36
DOCKED: ENDBRANCH   5  35
DOCKED: BRANCH   4  42
DOCKED: ATOM     42  O   UNL d   1      42.700  16.349  14.666 -0.12 -0.05    -0.278 OA
DOCKED: BRANCH  42  43
DOCKED: ATOM     43  P   UNL d   1      42.049  17.528  13.811 -0.16 +0.06    +0.473 P 
DOCKED: ATOM     44  O   UNL d   1      41.957  18.871  14.451 -0.31 -0.02    -0.228 OA
DOCKED: BRANCH  43  45
DOCKED: ATOM     45  O   UNL d   1      42.908  17.503  12.472 -0.05 -0.06    -0.303 OA
DOCKED: ATOM     46  H   UNL d   1      43.671  16.896  12.547 +0.06 +0.05    +0.222 HD
DOCKED: ENDBRANCH  43  45
DOCKED: BRANCH  43  47
DOCKED: ATOM     47  O   UNL d   1      40.659  16.900  13.319 -0.15 +0.03    -0.303 OA
DOCKED: ATOM     48  H   UNL d   1      39.934  17.241  13.882 -0.46 -0.11    +0.222 HD
DOCKED: ENDBRANCH  43  47
DOCKED: ENDBRANCH  42  43
DOCKED: ENDBRANCH   4  42
DOCKED: TORSDOF 24
DOCKED: TER
DOCKED: ENDMDL
________________________________________________________________________________


	BEGINNING GENETIC ALGORITHM DOCKING 8 of 100
Run: 8 Seed: 455230964 1355352585 [ Run 8 of 100 GA/GALS ]
Beginning LAMARCKIAN GENETIC ALGORITHM (LGA), with a maximum of 25000000 energy evaluations.

Final-Value: -16.438


	FINAL GENETIC ALGORITHM DOCKED STATE
	_______________________________________________


Detailed state:  trans 17.792 47.807 -6.157 quatxyzw -0.798039 0.590948 -0.023668 -0.115560 center 0.035 0.082 -0.065 ntor 24 130.5359 141.4445 75.3370 95.9271 -75.2555 -94.2250 -123.9091 -113.3685 -129.3184 39.6741 -179.9651 132.9883 -86.4684 -58.7385 -97.4563 -38.4428 162.4300 177.3625 -147.9146 -9.7153 141.6253 143.3378 180.0000 -177.2036
State:	 17.792  47.807  -6.157  -0.803  0.595 -0.024 -166.728    130.54  141.44   75.34   95.93  -75.26  -94.23 -123.91 -113.37 -129.32   39.67 -179.97  132.99  -86.47  -58.74  -97.46  -38.44  162.43  177.36 -147.91   -9.72  141.63  143.34  180.00 -177.20

DOCKED: MODEL        8
DOCKED: USER    Run = 8
DOCKED: USER    DPF = D:/Protein_go_brrr/autodock/final/6BB5/IHP/dock.dpf
DOCKED: USER  
DOCKED: USER    Estimated Free Energy of Binding    =   +3.11 kcal/mol  [=(1)+(2)+(3)-(4)]
DOCKED: USER    
DOCKED: USER    (1) Final Intermolecular Energy     =   -4.05 kcal/mol
DOCKED: USER        vdW + Hbond + desolv Energy     =   -4.00 kcal/mol
DOCKED: USER        Electrostatic Energy            =   -0.04 kcal/mol
DOCKED: USER    (2) Final Total Internal Energy     =  -12.39 kcal/mol
DOCKED: USER    (3) Torsional Free Energy           =   +7.16 kcal/mol
DOCKED: USER    (4) Unbound System's Energy  [=(2)] =  -12.39 kcal/mol
DOCKED: USER    
DOCKED: USER    
DOCKED: USER    NEWDPF move IHP_ideal_opt.pdbqt
DOCKED: USER    NEWDPF about 0.035000 0.082000 -0.065000
DOCKED: USER    NEWDPF tran0 17.791685 47.806969 -6.157304
DOCKED: USER    NEWDPF quaternion0 -0.798039 0.590948 -0.023668 -0.115560
DOCKED: USER    NEWDPF axisangle0 -0.803421 0.594934 -0.023827 -166.728169
DOCKED: USER    NEWDPF quat0 -0.803421 0.594934 -0.023827 -166.728169
DOCKED: USER    NEWDPF dihe0 130.54 141.44 75.34 95.93 -75.26 -94.23 -123.91 -113.37 -129.32 39.67 -179.97 132.99 -86.47 -58.74 -97.46 -38.44 162.43 177.36 -147.91 -9.72 141.63 143.34 180.00 -177.20 
DOCKED: USER  keepresnum = 1 
DOCKED: USER  
DOCKED: REMARK  24 active torsions:
DOCKED: REMARK  status: ('A' for Active; 'I' for Inactive)
DOCKED: REMARK    1  A    between atoms: C_1  and  O_7 
DOCKED: REMARK    2  A    between atoms: C_2  and  O_12 
DOCKED: REMARK    3  A    between atoms: C_3  and  O_17 
DOCKED: REMARK    4  A    between atoms: C_4  and  O_22 
DOCKED: REMARK    5  A    between atoms: C_5  and  O_27 
DOCKED: REMARK    6  A    between atoms: C_6  and  O_32 
DOCKED: REMARK    7  A    between atoms: O_7  and  P_8 
DOCKED: REMARK    8  A    between atoms: P_8  and  O_10 
DOCKED: REMARK    9  A    between atoms: P_8  and  O_11 
DOCKED: REMARK   10  A    between atoms: O_12  and  P_13 
DOCKED: REMARK   11  A    between atoms: P_13  and  O_15 
DOCKED: REMARK   12  A    between atoms: P_13  and  O_16 
DOCKED: REMARK   13  A    between atoms: O_17  and  P_18 
DOCKED: REMARK   14  A    between atoms: P_18  and  O_20 
DOCKED: REMARK   15  A    between atoms: P_18  and  O_21 
DOCKED: REMARK   16  A    between atoms: O_22  and  P_23 
DOCKED: REMARK   17  A    between atoms: P_23  and  O_25 
DOCKED: REMARK   18  A    between atoms: P_23  and  O_26 
DOCKED: REMARK   19  A    between atoms: O_27  and  P_28 
DOCKED: REMARK   20  A    between atoms: P_28  and  O_30 
DOCKED: REMARK   21  A    between atoms: P_28  and  O_31 
DOCKED: REMARK   22  A    between atoms: O_32  and  P_33 
DOCKED: REMARK   23  A    between atoms: P_33  and  O_35 
DOCKED: REMARK   24  A    between atoms: P_33  and  O_36 
DOCKED: USER                              x       y       z     vdW  Elec       q    Type
DOCKED: USER                           _______ _______ _______ _____ _____    ______ ____
DOCKED: ROOT
DOCKED: ATOM      1  C   UNL d   1      19.139  46.986  -6.861 -0.06 -0.01    +0.194 C 
DOCKED: ATOM      2  C   UNL d   1      19.453  48.333  -6.209 -0.03 -0.01    +0.194 C 
DOCKED: ATOM      3  C   UNL d   1      18.401  49.389  -6.553 -0.02 -0.01    +0.194 C 
DOCKED: ATOM      4  C   UNL d   1      16.973  48.930  -6.269 -0.05 -0.02    +0.194 C 
DOCKED: ATOM      5  C   UNL d   1      16.650  47.540  -6.803 -0.13 -0.02    +0.194 C 
DOCKED: ATOM      6  C   UNL d   1      17.732  46.498  -6.512 -0.18 -0.01    +0.194 C 
DOCKED: ENDROOT
DOCKED: BRANCH   1   7
DOCKED: ATOM      7  O   UNL d   1      20.063  46.019  -6.357 -0.07 +0.00    -0.278 OA
DOCKED: BRANCH   7   8
DOCKED: ATOM      8  P   UNL d   1      19.671  45.213  -5.034 -0.25 -0.03    +0.473 P 
DOCKED: ATOM      9  O   UNL d   1      18.891  45.988  -4.031 -0.30 +0.04    -0.228 OA
DOCKED: BRANCH   8  10
DOCKED: ATOM     10  O   UNL d   1      18.895  43.930  -5.579 -0.28 -0.02    -0.303 OA
DOCKED: ATOM     11  H   UNL d   1      18.479  44.140  -6.436 +0.12 +0.03    +0.222 HD
DOCKED: ENDBRANCH   8  10
DOCKED: BRANCH   8  12
DOCKED: ATOM     12  O   UNL d   1      21.034  44.582  -4.516 -0.25 +0.02    -0.303 OA
DOCKED: ATOM     13  H   UNL d   1      21.470  45.124  -3.821 +0.03 -0.02    +0.222 HD
DOCKED: ENDBRANCH   8  12
DOCKED: ENDBRANCH   7   8
DOCKED: ENDBRANCH   1   7
DOCKED: BRANCH   2  14
DOCKED: ATOM     14  O   UNL d   1      19.485  48.167  -4.786 -0.07 +0.04    -0.278 OA
DOCKED: BRANCH  14  15
DOCKED: ATOM     15  P   UNL d   1      20.849  48.567  -4.048 -0.04 -0.05    +0.473 P 
DOCKED: ATOM     16  O   UNL d   1      21.982  49.005  -4.922 -0.01 +0.01    -0.228 OA
DOCKED: BRANCH  15  17
DOCKED: ATOM     17  O   UNL d   1      20.409  49.685  -3.001 -0.06 +0.04    -0.303 OA
DOCKED: ATOM     18  H   UNL d   1      19.556  50.086  -3.253 +0.05 -0.04    +0.222 HD
DOCKED: ENDBRANCH  15  17
DOCKED: BRANCH  15  19
DOCKED: ATOM     19  O   UNL d   1      21.158  47.336  -3.090 -0.16 +0.03    -0.303 OA
DOCKED: ATOM     20  H   UNL d   1      20.902  46.488  -3.498 +0.07 -0.03    +0.222 HD
DOCKED: ENDBRANCH  15  19
DOCKED: ENDBRANCH  14  15
DOCKED: ENDBRANCH   2  14
DOCKED: BRANCH   6  21
DOCKED: ATOM     21  O   UNL d   1      17.459  45.376  -7.349 -0.20 +0.00    -0.278 OA
DOCKED: BRANCH  21  22
DOCKED: ATOM     22  P   UNL d   1      16.956  45.608  -8.845 -0.12 -0.03    +0.473 P 
DOCKED: ATOM     23  O   UNL d   1      15.605  46.204  -9.050 -0.14 +0.04    -0.228 OA
DOCKED: BRANCH  22  24
DOCKED: ATOM     24  O   UNL d   1      18.158  46.447  -9.466 -0.03 +0.00    -0.303 OA
DOCKED: ATOM     25  H   UNL d   1      17.774  47.136 -10.065 +0.03 -0.01    +0.222 HD
DOCKED: ENDBRANCH  22  24
DOCKED: BRANCH  22  26
DOCKED: ATOM     26  O   UNL d   1      17.192  44.161  -9.495 -0.14 -0.02    -0.303 OA
DOCKED: ATOM     27  H   UNL d   1      16.376  43.629  -9.401 +0.05 -0.01    +0.222 HD
DOCKED: ENDBRANCH  22  26
DOCKED: ENDBRANCH  21  22
DOCKED: ENDBRANCH   6  21
DOCKED: BRANCH   3  28
DOCKED: ATOM     28  O   UNL d   1      18.616  50.503  -5.696 -0.01 +0.02    -0.278 OA
DOCKED: BRANCH  28  29
DOCKED: ATOM     29  P   UNL d   1      17.626  50.787  -4.481 -0.02 -0.06    +0.473 P 
DOCKED: ATOM     30  O   UNL d   1      16.228  51.123  -4.859 -0.06 +0.03    -0.228 OA
DOCKED: BRANCH  29  31
DOCKED: ATOM     31  O   UNL d   1      17.846  49.454  -3.624 -0.12 +0.08    -0.303 OA
DOCKED: ATOM     32  H   UNL d   1      17.416  48.703  -4.094 +0.05 -0.06    +0.222 HD
DOCKED: ENDBRANCH  29  31
DOCKED: BRANCH  29  33
DOCKED: ATOM     33  O   UNL d   1      18.427  51.880  -3.645 -0.06 +0.03    -0.303 OA
DOCKED: ATOM     34  H   UNL d   1      19.328  51.530  -3.440 +0.05 -0.03    +0.222 HD
DOCKED: ENDBRANCH  29  33
DOCKED: ENDBRANCH  28  29
DOCKED: ENDBRANCH   3  28
DOCKED: BRANCH   5  35
DOCKED: ATOM     35  O   UNL d   1      15.472  47.125  -6.115 -0.23 +0.05    -0.278 OA
DOCKED: BRANCH  35  36
DOCKED: ATOM     36  P   UNL d   1      15.385  47.240  -4.527 -0.25 -0.11    +0.473 P 
DOCKED: ATOM     37  O   UNL d   1      14.464  46.268  -3.859 -0.40 +0.08    -0.228 OA
DOCKED: BRANCH  36  38
DOCKED: ATOM     38  O   UNL d   1      16.913  47.090  -4.105 -0.16 +0.07    -0.303 OA
DOCKED: ATOM     39  H   UNL d   1      17.032  47.447  -3.198 -0.47 -0.12    +0.222 HD
DOCKED: ENDBRANCH  36  38
DOCKED: BRANCH  36  40
DOCKED: ATOM     40  O   UNL d   1      15.079  48.786  -4.315 -0.18 +0.07    -0.303 OA
DOCKED: ATOM     41  H   UNL d   1      15.052  49.273  -5.168 +0.11 -0.04    +0.222 HD
DOCKED: ENDBRANCH  36  40
DOCKED: ENDBRANCH  35  36
DOCKED: ENDBRANCH   5  35
DOCKED: BRANCH   4  42
DOCKED: ATOM     42  O   UNL d   1      16.101  49.850  -6.934 -0.02 +0.03    -0.278 OA
DOCKED: BRANCH  42  43
DOCKED: ATOM     43  P   UNL d   1      16.007  49.809  -8.526 -0.00 -0.03    +0.473 P 
DOCKED: ATOM     44  O   UNL d   1      16.001  51.113  -9.247 -0.01 +0.01    -0.228 OA
DOCKED: BRANCH  43  45
DOCKED: ATOM     45  O   UNL d   1      17.216  48.853  -8.923 -0.01 +0.02    -0.303 OA
DOCKED: ATOM     46  H   UNL d   1      16.896  47.977  -9.220 +0.04 -0.01    +0.222 HD
DOCKED: ENDBRANCH  43  45
DOCKED: BRANCH  43  47
DOCKED: ATOM     47  O   UNL d   1      14.741  48.864  -8.795 -0.06 +0.03    -0.303 OA
DOCKED: ATOM     48  H   UNL d   1      14.822  48.054  -8.250 +0.06 -0.02    +0.222 HD
DOCKED: ENDBRANCH  43  47
DOCKED: ENDBRANCH  42  43
DOCKED: ENDBRANCH   4  42
DOCKED: TORSDOF 24
DOCKED: TER
DOCKED: ENDMDL
________________________________________________________________________________


	BEGINNING GENETIC ALGORITHM DOCKING 9 of 100
Run: 9 Seed: 1857733395 955975053 [ Run 9 of 100 GA/GALS ]
Beginning LAMARCKIAN GENETIC ALGORITHM (LGA), with a maximum of 25000000 energy evaluations.

Final-Value: -15.686


	FINAL GENETIC ALGORITHM DOCKED STATE
	_______________________________________________


Detailed state:  trans 1.712 51.618 10.696 quatxyzw -0.525186 0.169587 -0.833571 0.024061 center 0.035 0.082 -0.065 ntor 24 147.1633 128.9976 55.3823 31.8998 149.5372 102.3461 -110.7781 -32.3209 24.5650 -0.5631 102.0130 91.1516 126.0274 146.1262 102.8716 179.1717 -176.1945 44.9808 22.1061 -14.4375 -41.5380 7.6540 16.3397 -174.3948
State:	  1.712  51.618  10.696  -0.525  0.170 -0.834 177.243    147.16  129.00   55.38   31.90  149.54  102.35 -110.78  -32.32   24.57   -0.56  102.01   91.15  126.03  146.13  102.87  179.17 -176.19   44.98   22.11  -14.44  -41.54    7.65   16.34 -174.39

DOCKED: MODEL        9
DOCKED: USER    Run = 9
DOCKED: USER    DPF = D:/Protein_go_brrr/autodock/final/6BB5/IHP/dock.dpf
DOCKED: USER  
DOCKED: USER    Estimated Free Energy of Binding    =   +4.97 kcal/mol  [=(1)+(2)+(3)-(4)]
DOCKED: USER    
DOCKED: USER    (1) Final Intermolecular Energy     =   -2.19 kcal/mol
DOCKED: USER        vdW + Hbond + desolv Energy     =   -2.03 kcal/mol
DOCKED: USER        Electrostatic Energy            =   -0.15 kcal/mol
DOCKED: USER    (2) Final Total Internal Energy     =  -13.50 kcal/mol
DOCKED: USER    (3) Torsional Free Energy           =   +7.16 kcal/mol
DOCKED: USER    (4) Unbound System's Energy  [=(2)] =  -13.50 kcal/mol
DOCKED: USER    
DOCKED: USER    
DOCKED: USER    NEWDPF move IHP_ideal_opt.pdbqt
DOCKED: USER    NEWDPF about 0.035000 0.082000 -0.065000
DOCKED: USER    NEWDPF tran0 1.711778 51.618130 10.695528
DOCKED: USER    NEWDPF quaternion0 -0.525186 0.169587 -0.833571 0.024061
DOCKED: USER    NEWDPF axisangle0 -0.525338 0.169636 -0.833813 177.242526
DOCKED: USER    NEWDPF quat0 -0.525338 0.169636 -0.833813 177.242526
DOCKED: USER    NEWDPF dihe0 147.16 129.00 55.38 31.90 149.54 102.35 -110.78 -32.32 24.57 -0.56 102.01 91.15 126.03 146.13 102.87 179.17 -176.19 44.98 22.11 -14.44 -41.54 7.65 16.34 -174.39 
DOCKED: USER  keepresnum = 1 
DOCKED: USER  
DOCKED: REMARK  24 active torsions:
DOCKED: REMARK  status: ('A' for Active; 'I' for Inactive)
DOCKED: REMARK    1  A    between atoms: C_1  and  O_7 
DOCKED: REMARK    2  A    between atoms: C_2  and  O_12 
DOCKED: REMARK    3  A    between atoms: C_3  and  O_17 
DOCKED: REMARK    4  A    between atoms: C_4  and  O_22 
DOCKED: REMARK    5  A    between atoms: C_5  and  O_27 
DOCKED: REMARK    6  A    between atoms: C_6  and  O_32 
DOCKED: REMARK    7  A    between atoms: O_7  and  P_8 
DOCKED: REMARK    8  A    between atoms: P_8  and  O_10 
DOCKED: REMARK    9  A    between atoms: P_8  and  O_11 
DOCKED: REMARK   10  A    between atoms: O_12  and  P_13 
DOCKED: REMARK   11  A    between atoms: P_13  and  O_15 
DOCKED: REMARK   12  A    between atoms: P_13  and  O_16 
DOCKED: REMARK   13  A    between atoms: O_17  and  P_18 
DOCKED: REMARK   14  A    between atoms: P_18  and  O_20 
DOCKED: REMARK   15  A    between atoms: P_18  and  O_21 
DOCKED: REMARK   16  A    between atoms: O_22  and  P_23 
DOCKED: REMARK   17  A    between atoms: P_23  and  O_25 
DOCKED: REMARK   18  A    between atoms: P_23  and  O_26 
DOCKED: REMARK   19  A    between atoms: O_27  and  P_28 
DOCKED: REMARK   20  A    between atoms: P_28  and  O_30 
DOCKED: REMARK   21  A    between atoms: P_28  and  O_31 
DOCKED: REMARK   22  A    between atoms: O_32  and  P_33 
DOCKED: REMARK   23  A    between atoms: P_33  and  O_35 
DOCKED: REMARK   24  A    between atoms: P_33  and  O_36 
DOCKED: USER                              x       y       z     vdW  Elec       q    Type
DOCKED: USER                           _______ _______ _______ _____ _____    ______ ____
DOCKED: ROOT
DOCKED: ATOM      1  C   UNL d   1       2.031  52.037  12.341 +0.00 +0.01    +0.194 C 
DOCKED: ATOM      2  C   UNL d   1       2.445  53.080  11.300 -0.01 +0.01    +0.194 C 
DOCKED: ATOM      3  C   UNL d   1       3.125  52.435  10.091 -0.04 +0.01    +0.194 C 
DOCKED: ATOM      4  C   UNL d   1       2.310  51.299   9.477 -0.07 +0.02    +0.194 C 
DOCKED: ATOM      5  C   UNL d   1       1.780  50.297  10.494 -0.05 +0.04    +0.194 C 
DOCKED: ATOM      6  C   UNL d   1       1.154  50.942  11.733 -0.01 +0.03    +0.194 C 
DOCKED: ENDROOT
DOCKED: BRANCH   1   7
DOCKED: ATOM      7  O   UNL d   1       1.257  52.694  13.347 +0.00 -0.01    -0.278 OA
DOCKED: BRANCH   7   8
DOCKED: ATOM      8  P   UNL d   1       1.970  53.081  14.723 +0.01 +0.01    +0.473 P 
DOCKED: ATOM      9  O   UNL d   1       1.112  53.809  15.696 +0.00 +0.00    -0.228 OA
DOCKED: BRANCH   8  10
DOCKED: ATOM     10  O   UNL d   1       2.512  51.689  15.282 +0.00 -0.01    -0.303 OA
DOCKED: ATOM     11  H   UNL d   1       2.137  50.957  14.757 +0.01 +0.02    +0.222 HD
DOCKED: ENDBRANCH   8  10
DOCKED: BRANCH   8  12
DOCKED: ATOM     12  O   UNL d   1       3.315  53.814  14.298 +0.00 +0.00    -0.303 OA
DOCKED: ATOM     13  H   UNL d   1       3.187  54.770  14.103 +0.00 -0.00    +0.222 HD
DOCKED: ENDBRANCH   8  12
DOCKED: ENDBRANCH   7   8
DOCKED: ENDBRANCH   1   7
DOCKED: BRANCH   2  14
DOCKED: ATOM     14  O   UNL d   1       1.277  53.778  10.849 -0.00 -0.01    -0.278 OA
DOCKED: BRANCH  14  15
DOCKED: ATOM     15  P   UNL d   1       1.222  55.350  11.151 -0.00 +0.00    +0.473 P 
DOCKED: ATOM     16  O   UNL d   1      -0.133  55.986  11.154 +0.00 -0.00    -0.228 OA
DOCKED: BRANCH  15  17
DOCKED: ATOM     17  O   UNL d   1       1.979  55.504  12.544 -0.00 +0.00    -0.303 OA
DOCKED: ATOM     18  H   UNL d   1       1.743  54.780  13.155 +0.00 +0.00    +0.222 HD
DOCKED: ENDBRANCH  15  17
DOCKED: BRANCH  15  19
DOCKED: ATOM     19  O   UNL d   1       2.275  55.985  10.143 -0.00 +0.00    -0.303 OA
DOCKED: ATOM     20  H   UNL d   1       2.984  55.354   9.917 +0.01 -0.00    +0.222 HD
DOCKED: ENDBRANCH  15  19
DOCKED: ENDBRANCH  14  15
DOCKED: ENDBRANCH   2  14
DOCKED: BRANCH   6  21
DOCKED: ATOM     21  O   UNL d   1       1.028  49.915  12.713 -0.02 -0.07    -0.278 OA
DOCKED: BRANCH  21  22
DOCKED: ATOM     22  P   UNL d   1      -0.234  49.903  13.689 +0.01 +0.07    +0.473 P 
DOCKED: ATOM     23  O   UNL d   1      -0.960  48.614  13.887 -0.00 -0.04    -0.228 OA
DOCKED: BRANCH  22  24
DOCKED: ATOM     24  O   UNL d   1       0.374  50.537  15.016 +0.00 -0.02    -0.303 OA
DOCKED: ATOM     25  H   UNL d   1       0.348  51.524  14.925 +0.00 +0.01    +0.222 HD
DOCKED: ENDBRANCH  22  24
DOCKED: BRANCH  22  26
DOCKED: ATOM     26  O   UNL d   1      -1.105  51.118  13.110 +0.00 -0.02    -0.303 OA
DOCKED: ATOM     27  H   UNL d   1      -0.665  51.964  13.332 +0.00 +0.01    +0.222 HD
DOCKED: ENDBRANCH  22  26
DOCKED: ENDBRANCH  21  22
DOCKED: ENDBRANCH   6  21
DOCKED: BRANCH   3  28
DOCKED: ATOM     28  O   UNL d   1       3.219  53.425   9.074 -0.04 -0.00    -0.278 OA
DOCKED: BRANCH  28  29
DOCKED: ATOM     29  P   UNL d   1       4.643  53.891   8.534 -0.07 -0.03    +0.473 P 
DOCKED: ATOM     30  O   UNL d   1       4.662  54.406   7.141 -0.09 +0.01    -0.228 OA
DOCKED: BRANCH  29  31
DOCKED: ATOM     31  O   UNL d   1       5.060  54.913   9.693 -0.01 +0.02    -0.303 OA
DOCKED: ATOM     32  H   UNL d   1       4.380  55.624   9.743 +0.01 -0.01    +0.222 HD
DOCKED: ENDBRANCH  29  31
DOCKED: BRANCH  29  33
DOCKED: ATOM     33  O   UNL d   1       5.550  52.620   8.844 -0.14 +0.06    -0.303 OA
DOCKED: ATOM     34  H   UNL d   1       4.980  51.812   8.851 +0.01 -0.03    +0.222 HD
DOCKED: ENDBRANCH  29  33
DOCKED: ENDBRANCH  28  29
DOCKED: ENDBRANCH   3  28
DOCKED: BRANCH   5  35
DOCKED: ATOM     35  O   UNL d   1       0.743  49.580   9.826 -0.03 -0.06    -0.278 OA
DOCKED: BRANCH  35  36
DOCKED: ATOM     36  P   UNL d   1       0.480  48.043  10.165 -0.04 +0.19    +0.473 P 
DOCKED: ATOM     37  O   UNL d   1       0.354  47.135   8.984 -0.07 -0.08    -0.228 OA
DOCKED: BRANCH  36  38
DOCKED: ATOM     38  O   UNL d   1       1.708  47.706  11.122 -0.30 -0.33    -0.303 OA
DOCKED: ATOM     39  H   UNL d   1       2.530  48.071  10.729 +0.05 +0.21    +0.222 HD
DOCKED: ENDBRANCH  36  38
DOCKED: BRANCH  36  40
DOCKED: ATOM     40  O   UNL d   1      -0.764  48.122  11.153 -0.01 -0.08    -0.303 OA
DOCKED: ATOM     41  H   UNL d   1      -0.668  48.854  11.802 +0.01 +0.05    +0.222 HD
DOCKED: ENDBRANCH  36  40
DOCKED: ENDBRANCH  35  36
DOCKED: ENDBRANCH   5  35
DOCKED: BRANCH   4  42
DOCKED: ATOM     42  O   UNL d   1       3.188  50.586   8.601 -0.14 -0.04    -0.278 OA
DOCKED: BRANCH  42  43
DOCKED: ATOM     43  P   UNL d   1       4.297  49.629   9.232 -0.19 +0.07    +0.473 P 
DOCKED: ATOM     44  O   UNL d   1       3.928  48.203   9.456 -0.24 -0.09    -0.228 OA
DOCKED: BRANCH  43  45
DOCKED: ATOM     45  O   UNL d   1       5.534  49.834   8.251 -0.31 +0.04    -0.303 OA
DOCKED: ATOM     46  H   UNL d   1       5.528  50.725   7.849 -0.27 -0.06    +0.222 HD
DOCKED: ENDBRANCH  43  45
DOCKED: BRANCH  43  47
DOCKED: ATOM     47  O   UNL d   1       4.777  50.432  10.533 -0.08 -0.02    -0.303 OA
DOCKED: ATOM     48  H   UNL d   1       5.523  51.019  10.293 +0.06 -0.01    +0.222 HD
DOCKED: ENDBRANCH  43  47
DOCKED: ENDBRANCH  42  43
DOCKED: ENDBRANCH   4  42
DOCKED: TORSDOF 24
DOCKED: TER
DOCKED: ENDMDL
________________________________________________________________________________


	BEGINNING GENETIC ALGORITHM DOCKING 10 of 100
Run: 10 Seed: 1519448281 2014791790 [ Run 10 of 100 GA/GALS ]
Beginning LAMARCKIAN GENETIC ALGORITHM (LGA), with a maximum of 25000000 energy evaluations.

Final-Value: -17.325


	FINAL GENETIC ALGORITHM DOCKED STATE
	_______________________________________________


Detailed state:  trans 14.812 35.483 29.410 quatxyzw -0.120381 -0.259034 -0.914050 -0.287964 center 0.035 0.082 -0.065 ntor 24 87.4293 91.5759 20.7426 -152.5289 11.2300 -119.0060 -48.6922 -8.2400 53.2366 30.7674 -34.8655 -174.3110 -65.5138 154.6736 -27.4895 113.8958 151.5779 -46.3056 7.7284 -25.5476 -52.1878 43.0298 1.0757 166.3179
State:	 14.812  35.483  29.410  -0.126 -0.270 -0.954 -146.528     87.43   91.58   20.74 -152.53   11.23 -119.01  -48.69   -8.24   53.24   30.77  -34.87 -174.31  -65.51  154.67  -27.49  113.90  151.58  -46.31    7.73  -25.55  -52.19   43.03    1.08  166.32

DOCKED: MODEL       10
DOCKED: USER    Run = 10
DOCKED: USER    DPF = D:/Protein_go_brrr/autodock/final/6BB5/IHP/dock.dpf
DOCKED: USER  
DOCKED: USER    Estimated Free Energy of Binding    =   +2.17 kcal/mol  [=(1)+(2)+(3)-(4)]
DOCKED: USER    
DOCKED: USER    (1) Final Intermolecular Energy     =   -4.99 kcal/mol
DOCKED: USER        vdW + Hbond + desolv Energy     =   -4.92 kcal/mol
DOCKED: USER        Electrostatic Energy            =   -0.07 kcal/mol
DOCKED: USER    (2) Final Total Internal Energy     =  -12.34 kcal/mol
DOCKED: USER    (3) Torsional Free Energy           =   +7.16 kcal/mol
DOCKED: USER    (4) Unbound System's Energy  [=(2)] =  -12.34 kcal/mol
DOCKED: USER    
DOCKED: USER    
DOCKED: USER    NEWDPF move IHP_ideal_opt.pdbqt
DOCKED: USER    NEWDPF about 0.035000 0.082000 -0.065000
DOCKED: USER    NEWDPF tran0 14.812048 35.482736 29.410277
DOCKED: USER    NEWDPF quaternion0 -0.120381 -0.259034 -0.914050 -0.287964
DOCKED: USER    NEWDPF axisangle0 -0.125705 -0.270492 -0.954480 -146.527789
DOCKED: USER    NEWDPF quat0 -0.125705 -0.270492 -0.954480 -146.527789
DOCKED: USER    NEWDPF dihe0 87.43 91.58 20.74 -152.53 11.23 -119.01 -48.69 -8.24 53.24 30.77 -34.87 -174.31 -65.51 154.67 -27.49 113.90 151.58 -46.31 7.73 -25.55 -52.19 43.03 1.08 166.32 
DOCKED: USER  keepresnum = 1 
DOCKED: USER  
DOCKED: REMARK  24 active torsions:
DOCKED: REMARK  status: ('A' for Active; 'I' for Inactive)
DOCKED: REMARK    1  A    between atoms: C_1  and  O_7 
DOCKED: REMARK    2  A    between atoms: C_2  and  O_12 
DOCKED: REMARK    3  A    between atoms: C_3  and  O_17 
DOCKED: REMARK    4  A    between atoms: C_4  and  O_22 
DOCKED: REMARK    5  A    between atoms: C_5  and  O_27 
DOCKED: REMARK    6  A    between atoms: C_6  and  O_32 
DOCKED: REMARK    7  A    between atoms: O_7  and  P_8 
DOCKED: REMARK    8  A    between atoms: P_8  and  O_10 
DOCKED: REMARK    9  A    between atoms: P_8  and  O_11 
DOCKED: REMARK   10  A    between atoms: O_12  and  P_13 
DOCKED: REMARK   11  A    between atoms: P_13  and  O_15 
DOCKED: REMARK   12  A    between atoms: P_13  and  O_16 
DOCKED: REMARK   13  A    between atoms: O_17  and  P_18 
DOCKED: REMARK   14  A    between atoms: P_18  and  O_20 
DOCKED: REMARK   15  A    between atoms: P_18  and  O_21 
DOCKED: REMARK   16  A    between atoms: O_22  and  P_23 
DOCKED: REMARK   17  A    between atoms: P_23  and  O_25 
DOCKED: REMARK   18  A    between atoms: P_23  and  O_26 
DOCKED: REMARK   19  A    between atoms: O_27  and  P_28 
DOCKED: REMARK   20  A    between atoms: P_28  and  O_30 
DOCKED: REMARK   21  A    between atoms: P_28  and  O_31 
DOCKED: REMARK   22  A    between atoms: O_32  and  P_33 
DOCKED: REMARK   23  A    between atoms: P_33  and  O_35 
DOCKED: REMARK   24  A    between atoms: P_33  and  O_36 
DOCKED: USER                              x       y       z     vdW  Elec       q    Type
DOCKED: USER                           _______ _______ _______ _____ _____    ______ ____
DOCKED: ROOT
DOCKED: ATOM      1  C   UNL d   1      13.336  35.952  30.176 -0.08 -0.05    +0.194 C 
DOCKED: ATOM      2  C   UNL d   1      13.842  36.894  29.081 -0.13 -0.05    +0.194 C 
DOCKED: ATOM      3  C   UNL d   1      15.351  37.122  29.183 -0.17 -0.03    +0.194 C 
DOCKED: ATOM      4  C   UNL d   1      16.153  35.824  29.243 -0.30 -0.01    +0.194 C 
DOCKED: ATOM      5  C   UNL d   1      15.615  34.808  30.242 -0.23 -0.01    +0.194 C 
DOCKED: ATOM      6  C   UNL d   1      14.097  34.625  30.182 -0.16 -0.05    +0.194 C 
DOCKED: ENDROOT
DOCKED: BRANCH   1   7
DOCKED: ATOM      7  O   UNL d   1      11.964  35.655  29.910 -0.08 +0.08    -0.278 OA
DOCKED: BRANCH   7   8
DOCKED: ATOM      8  P   UNL d   1      10.862  36.161  30.951 +0.00 -0.02    +0.473 P 
DOCKED: ATOM      9  O   UNL d   1      11.396  36.616  32.263 +0.00 +0.00    -0.228 OA
DOCKED: BRANCH   8  10
DOCKED: ATOM     10  O   UNL d   1      10.079  37.305  30.160 -0.00 +0.01    -0.303 OA
DOCKED: ATOM     11  H   UNL d   1      10.657  38.084  30.056 +0.02 -0.02    +0.222 HD
DOCKED: ENDBRANCH   8  10
DOCKED: BRANCH   8  12
DOCKED: ATOM     12  O   UNL d   1       9.782  34.997  31.007 -0.04 -0.04    -0.303 OA
DOCKED: ATOM     13  H   UNL d   1      10.183  34.103  31.094 +0.03 +0.05    +0.222 HD
DOCKED: ENDBRANCH   8  12
DOCKED: ENDBRANCH   7   8
DOCKED: ENDBRANCH   1   7
DOCKED: BRANCH   2  14
DOCKED: ATOM     14  O   UNL d   1      13.552  36.319  27.801 -0.24 +0.18    -0.278 OA
DOCKED: BRANCH  14  15
DOCKED: ATOM     15  P   UNL d   1      12.354  36.985  26.972 -0.19 -0.25    +0.473 P 
DOCKED: ATOM     16  O   UNL d   1      11.588  36.083  26.057 -0.29 +0.17    -0.228 OA
DOCKED: BRANCH  15  17
DOCKED: ATOM     17  O   UNL d   1      11.437  37.656  28.088 -0.04 +0.07    -0.303 OA
DOCKED: ATOM     18  H   UNL d   1      10.920  36.983  28.570 +0.05 -0.05    +0.222 HD
DOCKED: ENDBRANCH  15  17
DOCKED: BRANCH  15  19
DOCKED: ATOM     19  O   UNL d   1      13.009  38.262  26.286 -0.19 +0.12    -0.303 OA
DOCKED: ATOM     20  H   UNL d   1      12.602  38.455  25.421 -0.48 -0.13    +0.222 HD
DOCKED: ENDBRANCH  15  19
DOCKED: ENDBRANCH  14  15
DOCKED: ENDBRANCH   2  14
DOCKED: BRANCH   6  21
DOCKED: ATOM     21  O   UNL d   1      13.718  33.932  31.369 -0.06 +0.03    -0.278 OA
DOCKED: BRANCH  21  22
DOCKED: ATOM     22  P   UNL d   1      12.386  33.055  31.383 -0.06 -0.03    +0.473 P 
DOCKED: ATOM     23  O   UNL d   1      11.604  32.941  30.118 -0.15 +0.03    -0.228 OA
DOCKED: BRANCH  22  24
DOCKED: ATOM     24  O   UNL d   1      12.912  31.672  31.969 -0.03 +0.00    -0.303 OA
DOCKED: ATOM     25  H   UNL d   1      13.668  31.366  31.405 +0.04 -0.01    +0.222 HD
DOCKED: ENDBRANCH  22  24
DOCKED: BRANCH  22  26
DOCKED: ATOM     26  O   UNL d   1      11.603  33.670  32.639 -0.00 -0.01    -0.303 OA
DOCKED: ATOM     27  H   UNL d   1      11.341  34.591  32.436 +0.02 +0.00    +0.222 HD
DOCKED: ENDBRANCH  22  26
DOCKED: ENDBRANCH  21  22
DOCKED: ENDBRANCH   6  21
DOCKED: BRANCH   3  28
DOCKED: ATOM     28  O   UNL d   1      15.768  37.768  27.987 -0.21 +0.05    -0.278 OA
DOCKED: BRANCH  28  29
DOCKED: ATOM     29  P   UNL d   1      17.065  38.693  27.981 -0.15 -0.02    +0.473 P 
DOCKED: ATOM     30  O   UNL d   1      18.349  37.994  27.717 -0.62 -0.04    -0.228 OA
DOCKED: BRANCH  29  31
DOCKED: ATOM     31  O   UNL d   1      16.611  39.804  26.923 -0.14 +0.03    -0.303 OA
DOCKED: ATOM     32  H   UNL d   1      15.686  39.613  26.645 +0.09 -0.04    +0.222 HD
DOCKED: ENDBRANCH  29  31
DOCKED: BRANCH  29  33
DOCKED: ATOM     33  O   UNL d   1      16.935  39.458  29.372 -0.03 +0.01    -0.303 OA
DOCKED: ATOM     34  H   UNL d   1      16.784  38.795  30.090 +0.05 -0.00    +0.222 HD
DOCKED: ENDBRANCH  29  33
DOCKED: ENDBRANCH  28  29
DOCKED: ENDBRANCH   3  28
DOCKED: BRANCH   5  35
DOCKED: ATOM     35  O   UNL d   1      16.202  33.560  29.880 -0.29 -0.01    -0.278 OA
DOCKED: BRANCH  35  36
DOCKED: ATOM     36  P   UNL d   1      16.886  32.641  30.989 -0.18 +0.07    +0.473 P 
DOCKED: ATOM     37  O   UNL d   1      17.781  31.561  30.470 -0.29 -0.06    -0.228 OA
DOCKED: BRANCH  36  38
DOCKED: ATOM     38  O   UNL d   1      17.622  33.720  31.899 -0.13 -0.08    -0.303 OA
DOCKED: ATOM     39  H   UNL d   1      17.688  34.566  31.405 +0.05 +0.06    +0.222 HD
DOCKED: ENDBRANCH  36  38
DOCKED: BRANCH  36  40
DOCKED: ATOM     40  O   UNL d   1      15.640  32.185  31.868 -0.05 -0.02    -0.303 OA
DOCKED: ATOM     41  H   UNL d   1      14.830  32.692  31.640 +0.05 -0.00    +0.222 HD
DOCKED: ENDBRANCH  36  40
DOCKED: ENDBRANCH  35  36
DOCKED: ENDBRANCH   5  35
DOCKED: BRANCH   4  42
DOCKED: ATOM     42  O   UNL d   1      17.475  36.173  29.669 -0.16 -0.04    -0.278 OA
DOCKED: BRANCH  42  43
DOCKED: ATOM     43  P   UNL d   1      17.658  36.984  31.030 -0.08 +0.05    +0.473 P 
DOCKED: ATOM     44  O   UNL d   1      16.426  37.348  31.784 -0.03 -0.01    -0.228 OA
DOCKED: BRANCH  43  45
DOCKED: ATOM     45  O   UNL d   1      18.675  36.072  31.846 -0.08 -0.08    -0.303 OA
DOCKED: ATOM     46  H   UNL d   1      18.230  35.617  32.589 +0.03 +0.05    +0.222 HD
DOCKED: ENDBRANCH  43  45
DOCKED: BRANCH  43  47
DOCKED: ATOM     47  O   UNL d   1      18.595  38.212  30.602 -0.07 -0.02    -0.303 OA
DOCKED: ATOM     48  H   UNL d   1      18.740  38.185  29.633 +0.07 +0.02    +0.222 HD
DOCKED: ENDBRANCH  43  47
DOCKED: ENDBRANCH  42  43
DOCKED: ENDBRANCH   4  42
DOCKED: TORSDOF 24
DOCKED: TER
DOCKED: ENDMDL
________________________________________________________________________________


	BEGINNING GENETIC ALGORITHM DOCKING 11 of 100
Run: 11 Seed: 88145262 162095609 [ Run 11 of 100 GA/GALS ]
Beginning LAMARCKIAN GENETIC ALGORITHM (LGA), with a maximum of 25000000 energy evaluations.

Final-Value: -16.246


	FINAL GENETIC ALGORITHM DOCKED STATE
	_______________________________________________


Detailed state:  trans 26.737 13.562 13.451 quatxyzw -0.175015 0.667182 -0.395654 0.606379 center 0.035 0.082 -0.065 ntor 24 114.7801 92.5838 124.9331 32.2720 102.2443 139.0789 -119.5856 0.0072 -9.4750 122.3861 145.6247 -115.6684 -82.2834 -133.5353 37.0994 42.7053 -97.0425 89.2404 -146.7128 -11.8671 167.7316 165.8544 4.7725 -28.0039
State:	 26.737  13.562  13.451  -0.220  0.839 -0.498 105.344    114.78   92.58  124.93   32.27  102.24  139.08 -119.59    0.01   -9.48  122.39  145.62 -115.67  -82.28 -133.54   37.10   42.71  -97.04   89.24 -146.71  -11.87  167.73  165.85    4.77  -28.00

DOCKED: MODEL       11
DOCKED: USER    Run = 11
DOCKED: USER    DPF = D:/Protein_go_brrr/autodock/final/6BB5/IHP/dock.dpf
DOCKED: USER  
DOCKED: USER    Estimated Free Energy of Binding    =   +5.36 kcal/mol  [=(1)+(2)+(3)-(4)]
DOCKED: USER    
DOCKED: USER    (1) Final Intermolecular Energy     =   -1.80 kcal/mol
DOCKED: USER        vdW + Hbond + desolv Energy     =   -1.54 kcal/mol
DOCKED: USER        Electrostatic Energy            =   -0.25 kcal/mol
DOCKED: USER    (2) Final Total Internal Energy     =  -14.45 kcal/mol
DOCKED: USER    (3) Torsional Free Energy           =   +7.16 kcal/mol
DOCKED: USER    (4) Unbound System's Energy  [=(2)] =  -14.45 kcal/mol
DOCKED: USER    
DOCKED: USER    
DOCKED: USER    NEWDPF move IHP_ideal_opt.pdbqt
DOCKED: USER    NEWDPF about 0.035000 0.082000 -0.065000
DOCKED: USER    NEWDPF tran0 26.736628 13.561716 13.450531
DOCKED: USER    NEWDPF quaternion0 -0.175015 0.667182 -0.395654 0.606379
DOCKED: USER    NEWDPF axisangle0 -0.220097 0.839037 -0.497568 105.343653
DOCKED: USER    NEWDPF quat0 -0.220097 0.839037 -0.497568 105.343653
DOCKED: USER    NEWDPF dihe0 114.78 92.58 124.93 32.27 102.24 139.08 -119.59 0.01 -9.48 122.39 145.62 -115.67 -82.28 -133.54 37.10 42.71 -97.04 89.24 -146.71 -11.87 167.73 165.85 4.77 -28.00 
DOCKED: USER  keepresnum = 1 
DOCKED: USER  
DOCKED: REMARK  24 active torsions:
DOCKED: REMARK  status: ('A' for Active; 'I' for Inactive)
DOCKED: REMARK    1  A    between atoms: C_1  and  O_7 
DOCKED: REMARK    2  A    between atoms: C_2  and  O_12 
DOCKED: REMARK    3  A    between atoms: C_3  and  O_17 
DOCKED: REMARK    4  A    between atoms: C_4  and  O_22 
DOCKED: REMARK    5  A    between atoms: C_5  and  O_27 
DOCKED: REMARK    6  A    between atoms: C_6  and  O_32 
DOCKED: REMARK    7  A    between atoms: O_7  and  P_8 
DOCKED: REMARK    8  A    between atoms: P_8  and  O_10 
DOCKED: REMARK    9  A    between atoms: P_8  and  O_11 
DOCKED: REMARK   10  A    between atoms: O_12  and  P_13 
DOCKED: REMARK   11  A    between atoms: P_13  and  O_15 
DOCKED: REMARK   12  A    between atoms: P_13  and  O_16 
DOCKED: REMARK   13  A    between atoms: O_17  and  P_18 
DOCKED: REMARK   14  A    between atoms: P_18  and  O_20 
DOCKED: REMARK   15  A    between atoms: P_18  and  O_21 
DOCKED: REMARK   16  A    between atoms: O_22  and  P_23 
DOCKED: REMARK   17  A    between atoms: P_23  and  O_25 
DOCKED: REMARK   18  A    between atoms: P_23  and  O_26 
DOCKED: REMARK   19  A    between atoms: O_27  and  P_28 
DOCKED: REMARK   20  A    between atoms: P_28  and  O_30 
DOCKED: REMARK   21  A    between atoms: P_28  and  O_31 
DOCKED: REMARK   22  A    between atoms: O_32  and  P_33 
DOCKED: REMARK   23  A    between atoms: P_33  and  O_35 
DOCKED: REMARK   24  A    between atoms: P_33  and  O_36 
DOCKED: USER                              x       y       z     vdW  Elec       q    Type
DOCKED: USER                           _______ _______ _______ _____ _____    ______ ____
DOCKED: ROOT
DOCKED: ATOM      1  C   UNL d   1      26.585  12.729  14.957 -0.03 +0.05    +0.194 C 
DOCKED: ATOM      2  C   UNL d   1      27.660  12.192  14.010 -0.02 +0.04    +0.194 C 
DOCKED: ATOM      3  C   UNL d   1      27.160  12.124  12.565 -0.02 +0.03    +0.194 C 
DOCKED: ATOM      4  C   UNL d   1      26.562  13.439  12.073 -0.04 +0.04    +0.194 C 
DOCKED: ATOM      5  C   UNL d   1      25.569  14.070  13.040 -0.07 +0.05    +0.194 C 
DOCKED: ATOM      6  C   UNL d   1      26.043  14.083  14.495 -0.08 +0.06    +0.194 C 
DOCKED: ENDROOT
DOCKED: BRANCH   1   7
DOCKED: ATOM      7  O   UNL d   1      27.180  12.924  16.242 -0.03 -0.12    -0.278 OA
DOCKED: BRANCH   7   8
DOCKED: ATOM      8  P   UNL d   1      27.822  14.349  16.573 -0.09 +0.41    +0.473 P 
DOCKED: ATOM      9  O   UNL d   1      28.383  15.076  15.401 -0.18 -0.15    -0.228 OA
DOCKED: BRANCH   8  10
DOCKED: ATOM     10  O   UNL d   1      26.645  15.144  17.300 -0.34 -0.33    -0.303 OA
DOCKED: ATOM     11  H   UNL d   1      25.806  14.991  16.827 +0.05 +0.14    +0.222 HD
DOCKED: ENDBRANCH   8  10
DOCKED: BRANCH   8  12
DOCKED: ATOM     12  O   UNL d   1      28.831  14.079  17.770 -0.36 -0.42    -0.303 OA
DOCKED: ATOM     13  H   UNL d   1      29.413  13.302  17.616 +0.04 +0.17    +0.222 HD
DOCKED: ENDBRANCH   8  12
DOCKED: ENDBRANCH   7   8
DOCKED: ENDBRANCH   1   7
DOCKED: BRANCH   2  14
DOCKED: ATOM     14  O   UNL d   1      28.800  13.059  14.058 -0.04 -0.07    -0.278 OA
DOCKED: BRANCH  14  15
DOCKED: ATOM     15  P   UNL d   1      30.179  12.401  14.536 -0.00 +0.11    +0.473 P 
DOCKED: ATOM     16  O   UNL d   1      30.347  12.186  16.007 -0.02 -0.07    -0.228 OA
DOCKED: BRANCH  15  17
DOCKED: ATOM     17  O   UNL d   1      30.274  11.049  13.699 -0.00 -0.05    -0.303 OA
DOCKED: ATOM     18  H   UNL d   1      29.815  11.133  12.842 +0.01 +0.03    +0.222 HD
DOCKED: ENDBRANCH  15  17
DOCKED: BRANCH  15  19
DOCKED: ATOM     19  O   UNL d   1      31.303  13.287  13.840 -0.06 -0.07    -0.303 OA
DOCKED: ATOM     20  H   UNL d   1      30.983  13.690  13.012 +0.07 +0.05    +0.222 HD
DOCKED: ENDBRANCH  15  19
DOCKED: ENDBRANCH  14  15
DOCKED: ENDBRANCH   2  14
DOCKED: BRANCH   6  21
DOCKED: ATOM     21  O   UNL d   1      24.902  14.373  15.298 -0.06 -0.10    -0.278 OA
DOCKED: BRANCH  21  22
DOCKED: ATOM     22  P   UNL d   1      23.693  13.333  15.361 +0.00 +0.13    +0.473 P 
DOCKED: ATOM     23  O   UNL d   1      23.932  12.014  16.014 -0.00 -0.05    -0.228 OA
DOCKED: BRANCH  22  24
DOCKED: ATOM     24  O   UNL d   1      22.544  14.210  16.028 -0.02 -0.12    -0.303 OA
DOCKED: ATOM     25  H   UNL d   1      22.628  15.137  15.690 +0.04 +0.11    +0.222 HD
DOCKED: ENDBRANCH  22  24
DOCKED: BRANCH  22  26
DOCKED: ATOM     26  O   UNL d   1      23.225  13.285  13.829 -0.01 -0.08    -0.303 OA
DOCKED: ATOM     27  H   UNL d   1      23.333  14.173  13.431 +0.02 +0.06    +0.222 HD
DOCKED: ENDBRANCH  22  26
DOCKED: ENDBRANCH  21  22
DOCKED: ENDBRANCH   6  21
DOCKED: BRANCH   3  28
DOCKED: ATOM     28  O   UNL d   1      28.287  11.886  11.733 -0.01 -0.04    -0.278 OA
DOCKED: BRANCH  28  29
DOCKED: ATOM     29  P   UNL d   1      29.206  13.098  11.257 -0.02 +0.07    +0.473 P 
DOCKED: ATOM     30  O   UNL d   1      29.050  14.359  12.026 -0.13 -0.05    -0.228 OA
DOCKED: BRANCH  29  31
DOCKED: ATOM     31  O   UNL d   1      30.642  12.393  11.301 -0.02 -0.04    -0.303 OA
DOCKED: ATOM     32  H   UNL d   1      30.871  12.206  12.240 +0.03 +0.03    +0.222 HD
DOCKED: ENDBRANCH  29  31
DOCKED: BRANCH  29  33
DOCKED: ATOM     33  O   UNL d   1      28.892  13.162   9.698 -0.02 -0.04    -0.303 OA
DOCKED: ATOM     34  H   UNL d   1      27.924  13.318   9.570 +0.02 +0.03    +0.222 HD
DOCKED: ENDBRANCH  29  33
DOCKED: ENDBRANCH  28  29
DOCKED: ENDBRANCH   3  28
DOCKED: BRANCH   5  35
DOCKED: ATOM     35  O   UNL d   1      25.439  15.430  12.629 -0.09 -0.08    -0.278 OA
DOCKED: BRANCH  35  36
DOCKED: ATOM     36  P   UNL d   1      23.998  16.108  12.537 +0.00 +0.13    +0.473 P 
DOCKED: ATOM     37  O   UNL d   1      22.986  15.365  11.723 -0.03 -0.06    -0.228 OA
DOCKED: BRANCH  36  38
DOCKED: ATOM     38  O   UNL d   1      23.612  16.266  14.074 -0.04 -0.12    -0.303 OA
DOCKED: ATOM     39  H   UNL d   1      23.294  15.403  14.415 +0.04 +0.09    +0.222 HD
DOCKED: ENDBRANCH  36  38
DOCKED: BRANCH  36  40
DOCKED: ATOM     40  O   UNL d   1      24.348  17.589  12.076 -0.08 -0.08    -0.303 OA
DOCKED: ATOM     41  H   UNL d   1      24.508  17.641  11.107 +0.06 +0.05    +0.222 HD
DOCKED: ENDBRANCH  36  40
DOCKED: ENDBRANCH  35  36
DOCKED: ENDBRANCH   5  35
DOCKED: BRANCH   4  42
DOCKED: ATOM     42  O   UNL d   1      25.847  13.145  10.868 -0.01 -0.04    -0.278 OA
DOCKED: BRANCH  42  43
DOCKED: ATOM     43  P   UNL d   1      25.946  14.163   9.644 -0.01 +0.06    +0.473 P 
DOCKED: ATOM     44  O   UNL d   1      26.166  13.588   8.288 -0.01 -0.02    -0.228 OA
DOCKED: BRANCH  43  45
DOCKED: ATOM     45  O   UNL d   1      24.604  15.007   9.783 -0.01 -0.04    -0.303 OA
DOCKED: ATOM     46  H   UNL d   1      24.645  15.622  10.543 +0.03 +0.04    +0.222 HD
DOCKED: ENDBRANCH  43  45
DOCKED: BRANCH  43  47
DOCKED: ATOM     47  O   UNL d   1      27.047  15.220  10.135 -0.07 -0.05    -0.303 OA
DOCKED: ATOM     48  H   UNL d   1      27.904  14.760  10.253 +0.04 +0.04    +0.222 HD
DOCKED: ENDBRANCH  43  47
DOCKED: ENDBRANCH  42  43
DOCKED: ENDBRANCH   4  42
DOCKED: TORSDOF 24
DOCKED: TER
DOCKED: ENDMDL
________________________________________________________________________________


	BEGINNING GENETIC ALGORITHM DOCKING 12 of 100
Run: 12 Seed: 1481937139 1755057299 [ Run 12 of 100 GA/GALS ]
Beginning LAMARCKIAN GENETIC ALGORITHM (LGA), with a maximum of 25000000 energy evaluations.

Final-Value: -17.928


	FINAL GENETIC ALGORITHM DOCKED STATE
	_______________________________________________


Detailed state:  trans -1.938 43.959 6.575 quatxyzw -0.395388 0.398161 0.171746 0.809715 center 0.035 0.082 -0.065 ntor 24 180.0000 11.9885 94.2098 113.4790 30.3608 -153.0132 -129.6485 39.2168 62.7872 108.5850 -166.0437 104.7184 -120.9816 103.9224 157.8820 38.2810 117.8622 52.9693 41.0713 -7.9618 -17.5486 168.7971 -0.7864 -21.4301
State:	 -1.938  43.959   6.575  -0.674  0.679  0.293 71.864    180.00   11.99   94.21  113.48   30.36 -153.01 -129.65   39.22   62.79  108.58 -166.04  104.72 -120.98  103.92  157.88   38.28  117.86   52.97   41.07   -7.96  -17.55  168.80   -0.79  -21.43

DOCKED: MODEL       12
DOCKED: USER    Run = 12
DOCKED: USER    DPF = D:/Protein_go_brrr/autodock/final/6BB5/IHP/dock.dpf
DOCKED: USER  
DOCKED: USER    Estimated Free Energy of Binding    =   +4.22 kcal/mol  [=(1)+(2)+(3)-(4)]
DOCKED: USER    
DOCKED: USER    (1) Final Intermolecular Energy     =   -2.94 kcal/mol
DOCKED: USER        vdW + Hbond + desolv Energy     =   -2.75 kcal/mol
DOCKED: USER        Electrostatic Energy            =   -0.20 kcal/mol
DOCKED: USER    (2) Final Total Internal Energy     =  -14.98 kcal/mol
DOCKED: USER    (3) Torsional Free Energy           =   +7.16 kcal/mol
DOCKED: USER    (4) Unbound System's Energy  [=(2)] =  -14.98 kcal/mol
DOCKED: USER    
DOCKED: USER    
DOCKED: USER    NEWDPF move IHP_ideal_opt.pdbqt
DOCKED: USER    NEWDPF about 0.035000 0.082000 -0.065000
DOCKED: USER    NEWDPF tran0 -1.937764 43.958907 6.574822
DOCKED: USER    NEWDPF quaternion0 -0.395388 0.398161 0.171746 0.809715
DOCKED: USER    NEWDPF axisangle0 -0.673778 0.678503 0.292671 71.863726
DOCKED: USER    NEWDPF quat0 -0.673778 0.678503 0.292671 71.863726
DOCKED: USER    NEWDPF dihe0 180.00 11.99 94.21 113.48 30.36 -153.01 -129.65 39.22 62.79 108.58 -166.04 104.72 -120.98 103.92 157.88 38.28 117.86 52.97 41.07 -7.96 -17.55 168.80 -0.79 -21.43 
DOCKED: USER  keepresnum = 1 
DOCKED: USER  
DOCKED: REMARK  24 active torsions:
DOCKED: REMARK  status: ('A' for Active; 'I' for Inactive)
DOCKED: REMARK    1  A    between atoms: C_1  and  O_7 
DOCKED: REMARK    2  A    between atoms: C_2  and  O_12 
DOCKED: REMARK    3  A    between atoms: C_3  and  O_17 
DOCKED: REMARK    4  A    between atoms: C_4  and  O_22 
DOCKED: REMARK    5  A    between atoms: C_5  and  O_27 
DOCKED: REMARK    6  A    between atoms: C_6  and  O_32 
DOCKED: REMARK    7  A    between atoms: O_7  and  P_8 
DOCKED: REMARK    8  A    between atoms: P_8  and  O_10 
DOCKED: REMARK    9  A    between atoms: P_8  and  O_11 
DOCKED: REMARK   10  A    between atoms: O_12  and  P_13 
DOCKED: REMARK   11  A    between atoms: P_13  and  O_15 
DOCKED: REMARK   12  A    between atoms: P_13  and  O_16 
DOCKED: REMARK   13  A    between atoms: O_17  and  P_18 
DOCKED: REMARK   14  A    between atoms: P_18  and  O_20 
DOCKED: REMARK   15  A    between atoms: P_18  and  O_21 
DOCKED: REMARK   16  A    between atoms: O_22  and  P_23 
DOCKED: REMARK   17  A    between atoms: P_23  and  O_25 
DOCKED: REMARK   18  A    between atoms: P_23  and  O_26 
DOCKED: REMARK   19  A    between atoms: O_27  and  P_28 
DOCKED: REMARK   20  A    between atoms: P_28  and  O_30 
DOCKED: REMARK   21  A    between atoms: P_28  and  O_31 
DOCKED: REMARK   22  A    between atoms: O_32  and  P_33 
DOCKED: REMARK   23  A    between atoms: P_33  and  O_35 
DOCKED: REMARK   24  A    between atoms: P_33  and  O_36 
DOCKED: USER                              x       y       z     vdW  Elec       q    Type
DOCKED: USER                           _______ _______ _______ _____ _____    ______ ____
DOCKED: ROOT
DOCKED: ATOM      1  C   UNL d   1      -1.741  42.260   6.815 -0.11 +0.11    +0.194 C 
DOCKED: ATOM      2  C   UNL d   1      -2.202  42.680   5.419 -0.05 +0.08    +0.194 C 
DOCKED: ATOM      3  C   UNL d   1      -3.278  43.766   5.481 -0.01 +0.05    +0.194 C 
DOCKED: ATOM      4  C   UNL d   1      -2.877  44.962   6.341 -0.01 +0.05    +0.194 C 
DOCKED: ATOM      5  C   UNL d   1      -2.303  44.584   7.700 -0.02 +0.06    +0.194 C 
DOCKED: ATOM      6  C   UNL d   1      -1.272  43.455   7.645 -0.10 +0.10    +0.194 C 
DOCKED: ENDROOT
DOCKED: BRANCH   1   7
DOCKED: ATOM      7  O   UNL d   1      -0.625  41.378   6.670 -0.20 -0.18    -0.278 OA
DOCKED: BRANCH   7   8
DOCKED: ATOM      8  P   UNL d   1      -0.910  39.840   6.343 -0.18 +0.31    +0.473 P 
DOCKED: ATOM      9  O   UNL d   1      -1.530  39.064   7.451 +0.00 -0.21    -0.228 OA
DOCKED: BRANCH   8  10
DOCKED: ATOM     10  O   UNL d   1      -1.810  39.885   5.027 -0.09 -0.18    -0.303 OA
DOCKED: ATOM     11  H   UNL d   1      -1.673  40.733   4.566 +0.06 +0.14    +0.222 HD
DOCKED: ENDBRANCH   8  10
DOCKED: BRANCH   8  12
DOCKED: ATOM     12  O   UNL d   1       0.466  39.275   5.786 -0.36 -0.17    -0.303 OA
DOCKED: ATOM     13  H   UNL d   1       0.981  39.943   5.279 -0.30 +0.11    +0.222 HD
DOCKED: ENDBRANCH   8  12
DOCKED: ENDBRANCH   7   8
DOCKED: ENDBRANCH   1   7
DOCKED: BRANCH   2  14
DOCKED: ATOM     14  O   UNL d   1      -1.079  43.192   4.690 -0.07 -0.13    -0.278 OA
DOCKED: BRANCH  14  15
DOCKED: ATOM     15  P   UNL d   1      -0.750  42.484   3.292 -0.04 +0.35    +0.473 P 
DOCKED: ATOM     16  O   UNL d   1       0.075  43.267   2.320 -0.12 -0.18    -0.228 OA
DOCKED: BRANCH  15  17
DOCKED: ATOM     17  O   UNL d   1      -0.071  41.104   3.706 -0.16 -0.36    -0.303 OA
DOCKED: ATOM     18  H   UNL d   1       0.007  41.027   4.677 +0.06 +0.18    +0.222 HD
DOCKED: ENDBRANCH  15  17
DOCKED: BRANCH  15  19
DOCKED: ATOM     19  O   UNL d   1      -2.164  41.994   2.753 -0.05 -0.18    -0.303 OA
DOCKED: ATOM     20  H   UNL d   1      -2.811  42.724   2.723 +0.02 +0.09    +0.222 HD
DOCKED: ENDBRANCH  15  19
DOCKED: ENDBRANCH  14  15
DOCKED: ENDBRANCH   2  14
DOCKED: BRANCH   6  21
DOCKED: ATOM     21  O   UNL d   1      -1.095  42.993   8.982 -0.21 -0.23    -0.278 OA
DOCKED: BRANCH  21  22
DOCKED: ATOM     22  P   UNL d   1       0.346  43.070   9.663 -0.17 +0.32    +0.473 P 
DOCKED: ATOM     23  O   UNL d   1       0.535  42.414  10.989 -0.41 -0.15    -0.228 OA
DOCKED: BRANCH  22  24
DOCKED: ATOM     24  O   UNL d   1       1.284  42.514   8.503 -0.31 -0.16    -0.303 OA
DOCKED: ATOM     25  H   UNL d   1       0.790  41.802   8.022 +0.10 +0.15    +0.222 HD
DOCKED: ENDBRANCH  22  24
DOCKED: BRANCH  22  26
DOCKED: ATOM     26  O   UNL d   1       0.648  44.643   9.608 -0.13 -0.16    -0.303 OA
DOCKED: ATOM     27  H   UNL d   1      -0.192  45.136   9.703 +0.07 +0.10    +0.222 HD
DOCKED: ENDBRANCH  22  26
DOCKED: ENDBRANCH  21  22
DOCKED: ENDBRANCH   6  21
DOCKED: BRANCH   3  28
DOCKED: ATOM     28  O   UNL d   1      -3.440  44.284   4.166 -0.00 -0.07    -0.278 OA
DOCKED: BRANCH  28  29
DOCKED: ATOM     29  P   UNL d   1      -2.420  45.366   3.597 +0.00 +0.12    +0.473 P 
DOCKED: ATOM     30  O   UNL d   1      -1.181  45.560   4.393 -0.05 -0.06    -0.228 OA
DOCKED: BRANCH  29  31
DOCKED: ATOM     31  O   UNL d   1      -2.244  44.825   2.101 -0.01 -0.09    -0.303 OA
DOCKED: ATOM     32  H   UNL d   1      -1.631  44.054   2.116 +0.03 +0.09    +0.222 HD
DOCKED: ENDBRANCH  29  31
DOCKED: BRANCH  29  33
DOCKED: ATOM     33  O   UNL d   1      -3.357  46.639   3.402 -0.00 -0.05    -0.303 OA
DOCKED: ATOM     34  H   UNL d   1      -3.248  47.240   4.180 +0.01 +0.03    +0.222 HD
DOCKED: ENDBRANCH  29  33
DOCKED: ENDBRANCH  28  29
DOCKED: ENDBRANCH   3  28
DOCKED: BRANCH   5  35
DOCKED: ATOM     35  O   UNL d   1      -1.627  45.748   8.172 -0.01 -0.08    -0.278 OA
DOCKED: BRANCH  35  36
DOCKED: ATOM     36  P   UNL d   1      -1.909  46.303   9.641 +0.02 +0.12    +0.473 P 
DOCKED: ATOM     37  O   UNL d   1      -0.882  47.244  10.183 -0.02 -0.07    -0.228 OA
DOCKED: BRANCH  36  38
DOCKED: ATOM     38  O   UNL d   1      -3.359  46.941   9.475 +0.00 -0.05    -0.303 OA
DOCKED: ATOM     39  H   UNL d   1      -3.611  46.923   8.527 +0.00 +0.03    +0.222 HD
DOCKED: ENDBRANCH  36  38
DOCKED: BRANCH  36  40
DOCKED: ATOM     40  O   UNL d   1      -2.171  44.967  10.464 -0.01 -0.10    -0.303 OA
DOCKED: ATOM     41  H   UNL d   1      -1.359  44.417  10.533 +0.05 +0.10    +0.222 HD
DOCKED: ENDBRANCH  36  40
DOCKED: ENDBRANCH  35  36
DOCKED: ENDBRANCH   5  35
DOCKED: BRANCH   4  42
DOCKED: ATOM     42  O   UNL d   1      -4.068  45.718   6.582 +0.00 -0.05    -0.278 OA
DOCKED: BRANCH  42  43
DOCKED: ATOM     43  P   UNL d   1      -4.036  47.299   6.369 -0.00 +0.06    +0.473 P 
DOCKED: ATOM     44  O   UNL d   1      -4.568  47.830   5.083 -0.00 -0.03    -0.228 OA
DOCKED: BRANCH  43  45
DOCKED: ATOM     45  O   UNL d   1      -4.792  47.840   7.660 +0.00 -0.03    -0.303 OA
DOCKED: ATOM     46  H   UNL d   1      -4.222  48.438   8.184 +0.00 +0.02    +0.222 HD
DOCKED: ENDBRANCH  43  45
DOCKED: BRANCH  43  47
DOCKED: ATOM     47  O   UNL d   1      -2.514  47.681   6.698 -0.00 -0.05    -0.303 OA
DOCKED: ATOM     48  H   UNL d   1      -2.381  47.668   7.669 +0.01 +0.03    +0.222 HD
DOCKED: ENDBRANCH  43  47
DOCKED: ENDBRANCH  42  43
DOCKED: ENDBRANCH   4  42
DOCKED: TORSDOF 24
DOCKED: TER
DOCKED: ENDMDL
________________________________________________________________________________


	BEGINNING GENETIC ALGORITHM DOCKING 13 of 100
Run: 13 Seed: 1722351867 1471340475 [ Run 13 of 100 GA/GALS ]
Beginning LAMARCKIAN GENETIC ALGORITHM (LGA), with a maximum of 25000000 energy evaluations.

Final-Value: -17.171


	FINAL GENETIC ALGORITHM DOCKED STATE
	_______________________________________________


Detailed state:  trans 48.990 36.705 17.935 quatxyzw -0.072767 -0.481962 -0.847463 0.210294 center 0.035 0.082 -0.065 ntor 24 -140.7563 -25.5039 39.3818 72.4071 88.3948 162.3119 6.6894 -86.3386 98.6334 -28.6620 150.9629 148.3024 38.1122 157.6245 64.7994 -41.7753 105.2257 -121.9253 -140.7483 -14.4242 26.1393 146.3223 -49.5770 152.4937
State:	 48.990  36.705  17.935  -0.074 -0.493 -0.867 155.721   -140.76  -25.50   39.38   72.41   88.39  162.31    6.69  -86.34   98.63  -28.66  150.96  148.30   38.11  157.62   64.80  -41.78  105.23 -121.93 -140.75  -14.42   26.14  146.32  -49.58  152.49

DOCKED: MODEL       13
DOCKED: USER    Run = 13
DOCKED: USER    DPF = D:/Protein_go_brrr/autodock/final/6BB5/IHP/dock.dpf
DOCKED: USER  
DOCKED: USER    Estimated Free Energy of Binding    =   +3.13 kcal/mol  [=(1)+(2)+(3)-(4)]
DOCKED: USER    
DOCKED: USER    (1) Final Intermolecular Energy     =   -4.03 kcal/mol
DOCKED: USER        vdW + Hbond + desolv Energy     =   -3.91 kcal/mol
DOCKED: USER        Electrostatic Energy            =   -0.11 kcal/mol
DOCKED: USER    (2) Final Total Internal Energy     =  -13.15 kcal/mol
DOCKED: USER    (3) Torsional Free Energy           =   +7.16 kcal/mol
DOCKED: USER    (4) Unbound System's Energy  [=(2)] =  -13.15 kcal/mol
DOCKED: USER    
DOCKED: USER    
DOCKED: USER    NEWDPF move IHP_ideal_opt.pdbqt
DOCKED: USER    NEWDPF about 0.035000 0.082000 -0.065000
DOCKED: USER    NEWDPF tran0 48.990313 36.705074 17.934820
DOCKED: USER    NEWDPF quaternion0 -0.072767 -0.481962 -0.847463 0.210294
DOCKED: USER    NEWDPF axisangle0 -0.074431 -0.492986 -0.866848 155.720893
DOCKED: USER    NEWDPF quat0 -0.074431 -0.492986 -0.866848 155.720893
DOCKED: USER    NEWDPF dihe0 -140.76 -25.50 39.38 72.41 88.39 162.31 6.69 -86.34 98.63 -28.66 150.96 148.30 38.11 157.62 64.80 -41.78 105.23 -121.93 -140.75 -14.42 26.14 146.32 -49.58 152.49 
DOCKED: USER  keepresnum = 1 
DOCKED: USER  
DOCKED: REMARK  24 active torsions:
DOCKED: REMARK  status: ('A' for Active; 'I' for Inactive)
DOCKED: REMARK    1  A    between atoms: C_1  and  O_7 
DOCKED: REMARK    2  A    between atoms: C_2  and  O_12 
DOCKED: REMARK    3  A    between atoms: C_3  and  O_17 
DOCKED: REMARK    4  A    between atoms: C_4  and  O_22 
DOCKED: REMARK    5  A    between atoms: C_5  and  O_27 
DOCKED: REMARK    6  A    between atoms: C_6  and  O_32 
DOCKED: REMARK    7  A    between atoms: O_7  and  P_8 
DOCKED: REMARK    8  A    between atoms: P_8  and  O_10 
DOCKED: REMARK    9  A    between atoms: P_8  and  O_11 
DOCKED: REMARK   10  A    between atoms: O_12  and  P_13 
DOCKED: REMARK   11  A    between atoms: P_13  and  O_15 
DOCKED: REMARK   12  A    between atoms: P_13  and  O_16 
DOCKED: REMARK   13  A    between atoms: O_17  and  P_18 
DOCKED: REMARK   14  A    between atoms: P_18  and  O_20 
DOCKED: REMARK   15  A    between atoms: P_18  and  O_21 
DOCKED: REMARK   16  A    between atoms: O_22  and  P_23 
DOCKED: REMARK   17  A    between atoms: P_23  and  O_25 
DOCKED: REMARK   18  A    between atoms: P_23  and  O_26 
DOCKED: REMARK   19  A    between atoms: O_27  and  P_28 
DOCKED: REMARK   20  A    between atoms: P_28  and  O_30 
DOCKED: REMARK   21  A    between atoms: P_28  and  O_31 
DOCKED: REMARK   22  A    between atoms: O_32  and  P_33 
DOCKED: REMARK   23  A    between atoms: P_33  and  O_35 
DOCKED: REMARK   24  A    between atoms: P_33  and  O_36 
DOCKED: USER                              x       y       z     vdW  Elec       q    Type
DOCKED: USER                           _______ _______ _______ _____ _____    ______ ____
DOCKED: ROOT
DOCKED: ATOM      1  C   UNL d   1      48.374  38.258  17.498 -0.09 +0.00    +0.194 C 
DOCKED: ATOM      2  C   UNL d   1      49.608  37.795  16.722 -0.06 +0.00    +0.194 C 
DOCKED: ATOM      3  C   UNL d   1      50.647  37.152  17.642 -0.01 +0.01    +0.194 C 
DOCKED: ATOM      4  C   UNL d   1      50.069  36.046  18.521 -0.01 +0.01    +0.194 C 
DOCKED: ATOM      5  C   UNL d   1      48.773  36.426  19.226 -0.02 +0.01    +0.194 C 
DOCKED: ATOM      6  C   UNL d   1      47.758  37.125  18.319 -0.07 +0.01    +0.194 C 
DOCKED: ENDROOT
DOCKED: BRANCH   1   7
DOCKED: ATOM      7  O   UNL d   1      47.388  38.685  16.555 -0.12 +0.00    -0.278 OA
DOCKED: BRANCH   7   8
DOCKED: ATOM      8  P   UNL d   1      46.246  37.652  16.130 -0.14 +0.04    +0.473 P 
DOCKED: ATOM      9  O   UNL d   1      45.022  37.681  16.976 -0.45 -0.04    -0.228 OA
DOCKED: BRANCH   8  10
DOCKED: ATOM     10  O   UNL d   1      45.960  37.999  14.599 -0.39 +0.01    -0.303 OA
DOCKED: ATOM     11  H   UNL d   1      46.770  37.857  14.075 -0.37 -0.07    +0.222 HD
DOCKED: ENDBRANCH   8  10
DOCKED: BRANCH   8  12
DOCKED: ATOM     12  O   UNL d   1      46.980  36.247  16.021 -0.17 -0.03    -0.303 OA
DOCKED: ATOM     13  H   UNL d   1      47.586  36.188  15.247 +0.10 +0.02    +0.222 HD
DOCKED: ENDBRANCH   8  12
DOCKED: ENDBRANCH   7   8
DOCKED: ENDBRANCH   1   7
DOCKED: BRANCH   2  14
DOCKED: ATOM     14  O   UNL d   1      49.208  36.831  15.741 -0.10 -0.01    -0.278 OA
DOCKED: BRANCH  14  15
DOCKED: ATOM     15  P   UNL d   1      49.448  37.227  14.208 -0.14 -0.00    +0.473 P 
DOCKED: ATOM     16  O   UNL d   1      48.450  36.714  13.217 -0.70 -0.03    -0.228 OA
DOCKED: BRANCH  15  17
DOCKED: ATOM     17  O   UNL d   1      49.536  38.818  14.228 -0.07 +0.07    -0.303 OA
DOCKED: ATOM     18  H   UNL d   1      48.735  39.209  14.625 -0.45 -0.08    +0.222 HD
DOCKED: ENDBRANCH  15  17
DOCKED: BRANCH  15  19
DOCKED: ATOM     19  O   UNL d   1      50.961  36.827  13.927 -0.05 -0.03    -0.303 OA
DOCKED: ATOM     20  H   UNL d   1      51.326  36.271  14.641 +0.06 +0.02    +0.222 HD
DOCKED: ENDBRANCH  15  19
DOCKED: ENDBRANCH  14  15
DOCKED: ENDBRANCH   2  14
DOCKED: BRANCH   6  21
DOCKED: ATOM     21  O   UNL d   1      46.778  37.711  19.173 -0.07 -0.01    -0.278 OA
DOCKED: BRANCH  21  22
DOCKED: ATOM     22  P   UNL d   1      45.668  36.790  19.854 -0.12 +0.01    +0.473 P 
DOCKED: ATOM     23  O   UNL d   1      45.918  36.288  21.235 -0.12 +0.00    -0.228 OA
DOCKED: BRANCH  22  24
DOCKED: ATOM     24  O   UNL d   1      44.361  37.686  19.696 -0.26 +0.01    -0.303 OA
DOCKED: ATOM     25  H   UNL d   1      44.512  38.323  18.952 +0.09 +0.01    +0.222 HD
DOCKED: ENDBRANCH  22  24
DOCKED: BRANCH  22  26
DOCKED: ATOM     26  O   UNL d   1      45.439  35.671  18.729 -0.15 -0.02    -0.303 OA
DOCKED: ATOM     27  H   UNL d   1      45.875  35.954  17.900 +0.09 +0.02    +0.222 HD
DOCKED: ENDBRANCH  22  26
DOCKED: ENDBRANCH  21  22
DOCKED: ENDBRANCH   6  21
DOCKED: BRANCH   3  28
DOCKED: ATOM     28  O   UNL d   1      51.613  36.513  16.817 -0.02 -0.01    -0.278 OA
DOCKED: BRANCH  28  29
DOCKED: ATOM     29  P   UNL d   1      51.591  34.931  16.631 -0.02 +0.04    +0.473 P 
DOCKED: ATOM     30  O   UNL d   1      51.931  34.139  17.840 -0.01 -0.02    -0.228 OA
DOCKED: BRANCH  29  31
DOCKED: ATOM     31  O   UNL d   1      50.120  34.741  16.028 -0.08 -0.03    -0.303 OA
DOCKED: ATOM     32  H   UNL d   1      50.050  35.271  15.201 +0.07 +0.03    +0.222 HD
DOCKED: ENDBRANCH  29  31
DOCKED: BRANCH  29  33
DOCKED: ATOM     33  O   UNL d   1      52.522  34.732  15.355 -0.04 -0.02    -0.303 OA
DOCKED: ATOM     34  H   UNL d   1      52.484  35.549  14.799 +0.03 +0.02    +0.222 HD
DOCKED: ENDBRANCH  29  33
DOCKED: ENDBRANCH  28  29
DOCKED: ENDBRANCH   3  28
DOCKED: BRANCH   5  35
DOCKED: ATOM     35  O   UNL d   1      48.185  35.196  19.644 -0.02 -0.03    -0.278 OA
DOCKED: BRANCH  35  36
DOCKED: ATOM     36  P   UNL d   1      48.686  34.477  20.978 +0.00 +0.06    +0.473 P 
DOCKED: ATOM     37  O   UNL d   1      47.653  33.676  21.705 -0.04 -0.04    -0.228 OA
DOCKED: BRANCH  36  38
DOCKED: ATOM     38  O   UNL d   1      49.920  33.624  20.445 -0.00 -0.04    -0.303 OA
DOCKED: ATOM     39  H   UNL d   1      50.311  34.077  19.667 +0.01 +0.03    +0.222 HD
DOCKED: ENDBRANCH  36  38
DOCKED: BRANCH  36  40
DOCKED: ATOM     40  O   UNL d   1      49.364  35.675  21.775 -0.00 -0.03    -0.303 OA
DOCKED: ATOM     41  H   UNL d   1      50.201  35.967  21.351 +0.00 +0.02    +0.222 HD
DOCKED: ENDBRANCH  36  40
DOCKED: ENDBRANCH  35  36
DOCKED: ENDBRANCH   5  35
DOCKED: BRANCH   4  42
DOCKED: ATOM     42  O   UNL d   1      51.039  35.776  19.540 -0.00 -0.02    -0.278 OA
DOCKED: BRANCH  42  43
DOCKED: ATOM     43  P   UNL d   1      51.797  37.001  20.226 +0.00 +0.03    +0.473 P 
DOCKED: ATOM     44  O   UNL d   1      52.881  37.660  19.446 -0.00 -0.01    -0.228 OA
DOCKED: BRANCH  43  45
DOCKED: ATOM     45  O   UNL d   1      50.601  37.971  20.627 +0.00 -0.01    -0.303 OA
DOCKED: ATOM     46  H   UNL d   1      50.144  37.661  21.435 +0.00 +0.01    +0.222 HD
DOCKED: ENDBRANCH  43  45
DOCKED: BRANCH  43  47
DOCKED: ATOM     47  O   UNL d   1      52.230  36.411  21.652 +0.00 -0.02    -0.303 OA
DOCKED: ATOM     48  H   UNL d   1      51.555  35.769  21.954 +0.00 +0.02    +0.222 HD
DOCKED: ENDBRANCH  43  47
DOCKED: ENDBRANCH  42  43
DOCKED: ENDBRANCH   4  42
DOCKED: TORSDOF 24
DOCKED: TER
DOCKED: ENDMDL
________________________________________________________________________________


	BEGINNING GENETIC ALGORITHM DOCKING 14 of 100
Run: 14 Seed: 2129417964 946516071 [ Run 14 of 100 GA/GALS ]
Beginning LAMARCKIAN GENETIC ALGORITHM (LGA), with a maximum of 25000000 energy evaluations.

Final-Value: -15.601


	FINAL GENETIC ALGORITHM DOCKED STATE
	_______________________________________________


Detailed state:  trans 45.985 46.837 20.151 quatxyzw -0.337086 -0.829861 0.378064 -0.234034 center 0.035 0.082 -0.065 ntor 24 23.3423 96.3475 19.1889 140.7508 125.8956 89.4036 3.2801 -176.1528 91.4336 124.2154 22.2948 84.0584 103.3483 -30.7564 -180.0000 144.4089 52.8375 170.3206 46.1390 -33.7300 10.1322 -47.4463 179.4077 32.4570
State:	 45.985  46.837  20.151  -0.347 -0.854  0.389 -152.931     23.34   96.35   19.19  140.75  125.90   89.40    3.28 -176.15   91.43  124.22   22.29   84.06  103.35  -30.76 -180.00  144.41   52.84  170.32   46.14  -33.73   10.13  -47.45  179.41   32.46

DOCKED: MODEL       14
DOCKED: USER    Run = 14
DOCKED: USER    DPF = D:/Protein_go_brrr/autodock/final/6BB5/IHP/dock.dpf
DOCKED: USER  
DOCKED: USER    Estimated Free Energy of Binding    =   +4.98 kcal/mol  [=(1)+(2)+(3)-(4)]
DOCKED: USER    
DOCKED: USER    (1) Final Intermolecular Energy     =   -2.18 kcal/mol
DOCKED: USER        vdW + Hbond + desolv Energy     =   -2.16 kcal/mol
DOCKED: USER        Electrostatic Energy            =   -0.02 kcal/mol
DOCKED: USER    (2) Final Total Internal Energy     =  -13.42 kcal/mol
DOCKED: USER    (3) Torsional Free Energy           =   +7.16 kcal/mol
DOCKED: USER    (4) Unbound System's Energy  [=(2)] =  -13.42 kcal/mol
DOCKED: USER    
DOCKED: USER    
DOCKED: USER    NEWDPF move IHP_ideal_opt.pdbqt
DOCKED: USER    NEWDPF about 0.035000 0.082000 -0.065000
DOCKED: USER    NEWDPF tran0 45.985030 46.836786 20.151071
DOCKED: USER    NEWDPF quaternion0 -0.337086 -0.829861 0.378064 -0.234034
DOCKED: USER    NEWDPF axisangle0 -0.346715 -0.853566 0.388863 -152.930657
DOCKED: USER    NEWDPF quat0 -0.346715 -0.853566 0.388863 -152.930657
DOCKED: USER    NEWDPF dihe0 23.34 96.35 19.19 140.75 125.90 89.40 3.28 -176.15 91.43 124.22 22.29 84.06 103.35 -30.76 -180.00 144.41 52.84 170.32 46.14 -33.73 10.13 -47.45 179.41 32.46 
DOCKED: USER  keepresnum = 1 
DOCKED: USER  
DOCKED: REMARK  24 active torsions:
DOCKED: REMARK  status: ('A' for Active; 'I' for Inactive)
DOCKED: REMARK    1  A    between atoms: C_1  and  O_7 
DOCKED: REMARK    2  A    between atoms: C_2  and  O_12 
DOCKED: REMARK    3  A    between atoms: C_3  and  O_17 
DOCKED: REMARK    4  A    between atoms: C_4  and  O_22 
DOCKED: REMARK    5  A    between atoms: C_5  and  O_27 
DOCKED: REMARK    6  A    between atoms: C_6  and  O_32 
DOCKED: REMARK    7  A    between atoms: O_7  and  P_8 
DOCKED: REMARK    8  A    between atoms: P_8  and  O_10 
DOCKED: REMARK    9  A    between atoms: P_8  and  O_11 
DOCKED: REMARK   10  A    between atoms: O_12  and  P_13 
DOCKED: REMARK   11  A    between atoms: P_13  and  O_15 
DOCKED: REMARK   12  A    between atoms: P_13  and  O_16 
DOCKED: REMARK   13  A    between atoms: O_17  and  P_18 
DOCKED: REMARK   14  A    between atoms: P_18  and  O_20 
DOCKED: REMARK   15  A    between atoms: P_18  and  O_21 
DOCKED: REMARK   16  A    between atoms: O_22  and  P_23 
DOCKED: REMARK   17  A    between atoms: P_23  and  O_25 
DOCKED: REMARK   18  A    between atoms: P_23  and  O_26 
DOCKED: REMARK   19  A    between atoms: O_27  and  P_28 
DOCKED: REMARK   20  A    between atoms: P_28  and  O_30 
DOCKED: REMARK   21  A    between atoms: P_28  and  O_31 
DOCKED: REMARK   22  A    between atoms: O_32  and  P_33 
DOCKED: REMARK   23  A    between atoms: P_33  and  O_35 
DOCKED: REMARK   24  A    between atoms: P_33  and  O_36 
DOCKED: USER                              x       y       z     vdW  Elec       q    Type
DOCKED: USER                           _______ _______ _______ _____ _____    ______ ____
DOCKED: ROOT
DOCKED: ATOM      1  C   UNL d   1      44.306  46.956  20.537 -0.02 +0.01    +0.194 C 
DOCKED: ATOM      2  C   UNL d   1      45.063  45.818  21.225 -0.09 +0.00    +0.194 C 
DOCKED: ATOM      3  C   UNL d   1      46.006  45.099  20.258 -0.15 -0.00    +0.194 C 
DOCKED: ATOM      4  C   UNL d   1      46.941  46.048  19.513 -0.13 -0.00    +0.194 C 
DOCKED: ATOM      5  C   UNL d   1      46.243  47.260  18.908 -0.09 -0.01    +0.194 C 
DOCKED: ATOM      6  C   UNL d   1      45.254  47.942  19.855 -0.09 +0.01    +0.194 C 
DOCKED: ENDROOT
DOCKED: BRANCH   1   7
DOCKED: ATOM      7  O   UNL d   1      43.585  47.680  21.537 -0.05 -0.03    -0.278 OA
DOCKED: BRANCH   7   8
DOCKED: ATOM      8  P   UNL d   1      42.244  47.037  22.122 -0.04 +0.05    +0.473 P 
DOCKED: ATOM      9  O   UNL d   1      41.871  47.492  23.489 -0.03 -0.02    -0.228 OA
DOCKED: BRANCH   8  10
DOCKED: ATOM     10  O   UNL d   1      41.140  47.379  21.023 -0.12 -0.05    -0.303 OA
DOCKED: ATOM     11  H   UNL d   1      40.333  47.709  21.462 +0.08 +0.05    +0.222 HD
DOCKED: ENDBRANCH   8  10
DOCKED: BRANCH   8  12
DOCKED: ATOM     12  O   UNL d   1      42.423  45.469  21.937 -0.10 -0.02    -0.303 OA
DOCKED: ATOM     13  H   UNL d   1      43.275  45.133  22.296 +0.06 +0.01    +0.222 HD
DOCKED: ENDBRANCH   8  12
DOCKED: ENDBRANCH   7   8
DOCKED: ENDBRANCH   1   7
DOCKED: BRANCH   2  14
DOCKED: ATOM     14  O   UNL d   1      45.839  46.359  22.302 -0.01 -0.01    -0.278 OA
DOCKED: BRANCH  14  15
DOCKED: ATOM     15  P   UNL d   1      45.199  46.256  23.767 +0.00 +0.02    +0.473 P 
DOCKED: ATOM     16  O   UNL d   1      44.199  45.165  23.988 -0.02 -0.00    -0.228 OA
DOCKED: BRANCH  15  17
DOCKED: ATOM     17  O   UNL d   1      46.461  46.143  24.733 -0.00 -0.01    -0.303 OA
DOCKED: ATOM     18  H   UNL d   1      46.845  45.245  24.707 +0.00 +0.01    +0.222 HD
DOCKED: ENDBRANCH  15  17
DOCKED: BRANCH  15  19
DOCKED: ATOM     19  O   UNL d   1      44.688  47.729  24.080 -0.00 -0.02    -0.303 OA
DOCKED: ATOM     20  H   UNL d   1      43.824  47.907  23.664 +0.01 +0.02    +0.222 HD
DOCKED: ENDBRANCH  15  19
DOCKED: ENDBRANCH  14  15
DOCKED: ENDBRANCH   2  14
DOCKED: BRANCH   6  21
DOCKED: ATOM     21  O   UNL d   1      44.452  48.810  19.058 -0.09 -0.02    -0.278 OA
DOCKED: BRANCH  21  22
DOCKED: ATOM     22  P   UNL d   1      44.885  50.334  18.866 -0.06 +0.02    +0.473 P 
DOCKED: ATOM     23  O   UNL d   1      43.813  51.351  18.661 -0.06 -0.03    -0.228 OA
DOCKED: BRANCH  22  24
DOCKED: ATOM     24  O   UNL d   1      45.800  50.576  20.145 -0.01 -0.02    -0.303 OA
DOCKED: ATOM     25  H   UNL d   1      46.556  49.937  20.109 +0.02 +0.01    +0.222 HD
DOCKED: ENDBRANCH  22  24
DOCKED: BRANCH  22  26
DOCKED: ATOM     26  O   UNL d   1      45.976  50.217  17.696 -0.11 +0.02    -0.303 OA
DOCKED: ATOM     27  H   UNL d   1      46.846  50.000  18.088 +0.04 -0.01    +0.222 HD
DOCKED: ENDBRANCH  22  26
DOCKED: ENDBRANCH  21  22
DOCKED: ENDBRANCH   6  21
DOCKED: BRANCH   3  28
DOCKED: ATOM     28  O   UNL d   1      46.856  44.262  21.032 -0.04 +0.00    -0.278 OA
DOCKED: BRANCH  28  29
DOCKED: ATOM     29  P   UNL d   1      46.245  43.061  21.881 -0.01 -0.00    +0.473 P 
DOCKED: ATOM     30  O   UNL d   1      46.716  41.704  21.503 -0.05 +0.00    -0.228 OA
DOCKED: BRANCH  29  31
DOCKED: ATOM     31  O   UNL d   1      46.590  43.563  23.361 -0.00 -0.00    -0.303 OA
DOCKED: ATOM     32  H   UNL d   1      46.216  44.466  23.482 +0.02 +0.00    +0.222 HD
DOCKED: ENDBRANCH  29  31
DOCKED: BRANCH  29  33
DOCKED: ATOM     33  O   UNL d   1      44.681  43.337  21.772 -0.09 +0.00    -0.303 OA
DOCKED: ATOM     34  H   UNL d   1      44.323  43.517  22.676 +0.06 -0.00    +0.222 HD
DOCKED: ENDBRANCH  29  33
DOCKED: ENDBRANCH  28  29
DOCKED: ENDBRANCH   3  28
DOCKED: BRANCH   5  35
DOCKED: ATOM     35  O   UNL d   1      47.276  48.202  18.629 -0.14 +0.01    -0.278 OA
DOCKED: BRANCH  35  36
DOCKED: ATOM     36  P   UNL d   1      48.344  48.582  19.752 -0.03 +0.00    +0.473 P 
DOCKED: ATOM     37  O   UNL d   1      49.645  47.848  19.679 -0.03 -0.00    -0.228 OA
DOCKED: BRANCH  36  38
DOCKED: ATOM     38  O   UNL d   1      48.470  50.158  19.563 -0.01 -0.00    -0.303 OA
DOCKED: ATOM     39  H   UNL d   1      47.669  50.491  19.104 +0.02 +0.00    +0.222 HD
DOCKED: ENDBRANCH  36  38
DOCKED: BRANCH  36  40
DOCKED: ATOM     40  O   UNL d   1      47.500  48.423  21.091 -0.01 -0.01    -0.303 OA
DOCKED: ATOM     41  H   UNL d   1      47.462  47.487  21.389 +0.02 +0.00    +0.222 HD
DOCKED: ENDBRANCH  36  40
DOCKED: ENDBRANCH  35  36
DOCKED: ENDBRANCH   5  35
DOCKED: BRANCH   4  42
DOCKED: ATOM     42  O   UNL d   1      47.509  45.305  18.429 -0.57 -0.01    -0.278 OA
DOCKED: BRANCH  42  43
DOCKED: ATOM     43  P   UNL d   1      48.708  44.296  18.731 -0.09 -0.03    +0.473 P 
DOCKED: ATOM     44  O   UNL d   1      49.777  44.173  17.701 -0.11 +0.02    -0.228 OA
DOCKED: BRANCH  43  45
DOCKED: ATOM     45  O   UNL d   1      49.227  44.786  20.153 -0.02 +0.00    -0.303 OA
DOCKED: ATOM     46  H   UNL d   1      49.393  45.750  20.161 +0.02 -0.00    +0.222 HD
DOCKED: ENDBRANCH  43  45
DOCKED: BRANCH  43  47
DOCKED: ATOM     47  O   UNL d   1      47.953  42.934  19.111 -0.11 +0.03    -0.303 OA
DOCKED: ATOM     48  H   UNL d   1      47.890  42.861  20.086 +0.04 -0.01    +0.222 HD
DOCKED: ENDBRANCH  43  47
DOCKED: ENDBRANCH  42  43
DOCKED: ENDBRANCH   4  42
DOCKED: TORSDOF 24
DOCKED: TER
DOCKED: ENDMDL
________________________________________________________________________________


	BEGINNING GENETIC ALGORITHM DOCKING 15 of 100
Run: 15 Seed: 1056467812 1538970636 [ Run 15 of 100 GA/GALS ]
Beginning LAMARCKIAN GENETIC ALGORITHM (LGA), with a maximum of 25000000 energy evaluations.

Final-Value: -18.159


	FINAL GENETIC ALGORITHM DOCKED STATE
	_______________________________________________


Detailed state:  trans 30.481 37.553 1.156 quatxyzw 0.525336 -0.322259 0.407770 0.673718 center 0.035 0.082 -0.065 ntor 24 -95.1835 10.7564 -173.3162 -15.4405 28.6545 -96.5042 -11.5837 -137.8696 175.0985 -31.7756 -134.3734 132.3141 54.1377 -179.7727 -53.5927 102.3018 172.1742 168.9162 28.6193 14.1699 -175.8824 6.7755 29.0532 -180.0000
State:	 30.481  37.553   1.156   0.711 -0.436  0.552 95.291    -95.18   10.76 -173.32  -15.44   28.65  -96.50  -11.58 -137.87  175.10  -31.78 -134.37  132.31   54.14 -179.77  -53.59  102.30  172.17  168.92   28.62   14.17 -175.88    6.78   29.05 -180.00

DOCKED: MODEL       15
DOCKED: USER    Run = 15
DOCKED: USER    DPF = D:/Protein_go_brrr/autodock/final/6BB5/IHP/dock.dpf
DOCKED: USER  
DOCKED: USER    Estimated Free Energy of Binding    =   +3.05 kcal/mol  [=(1)+(2)+(3)-(4)]
DOCKED: USER    
DOCKED: USER    (1) Final Intermolecular Energy     =   -4.11 kcal/mol
DOCKED: USER        vdW + Hbond + desolv Energy     =   -3.57 kcal/mol
DOCKED: USER        Electrostatic Energy            =   -0.54 kcal/mol
DOCKED: USER    (2) Final Total Internal Energy     =  -14.05 kcal/mol
DOCKED: USER    (3) Torsional Free Energy           =   +7.16 kcal/mol
DOCKED: USER    (4) Unbound System's Energy  [=(2)] =  -14.05 kcal/mol
DOCKED: USER    
DOCKED: USER    
DOCKED: USER    NEWDPF move IHP_ideal_opt.pdbqt
DOCKED: USER    NEWDPF about 0.035000 0.082000 -0.065000
DOCKED: USER    NEWDPF tran0 30.480913 37.553265 1.155589
DOCKED: USER    NEWDPF quaternion0 0.525336 -0.322259 0.407770 0.673718
DOCKED: USER    NEWDPF axisangle0 0.710885 -0.436081 0.551794 95.290701
DOCKED: USER    NEWDPF quat0 0.710885 -0.436081 0.551794 95.290701
DOCKED: USER    NEWDPF dihe0 -95.18 10.76 -173.32 -15.44 28.65 -96.50 -11.58 -137.87 175.10 -31.78 -134.37 132.31 54.14 -179.77 -53.59 102.30 172.17 168.92 28.62 14.17 -175.88 6.78 29.05 -180.00 
DOCKED: USER  keepresnum = 1 
DOCKED: USER  
DOCKED: REMARK  24 active torsions:
DOCKED: REMARK  status: ('A' for Active; 'I' for Inactive)
DOCKED: REMARK    1  A    between atoms: C_1  and  O_7 
DOCKED: REMARK    2  A    between atoms: C_2  and  O_12 
DOCKED: REMARK    3  A    between atoms: C_3  and  O_17 
DOCKED: REMARK    4  A    between atoms: C_4  and  O_22 
DOCKED: REMARK    5  A    between atoms: C_5  and  O_27 
DOCKED: REMARK    6  A    between atoms: C_6  and  O_32 
DOCKED: REMARK    7  A    between atoms: O_7  and  P_8 
DOCKED: REMARK    8  A    between atoms: P_8  and  O_10 
DOCKED: REMARK    9  A    between atoms: P_8  and  O_11 
DOCKED: REMARK   10  A    between atoms: O_12  and  P_13 
DOCKED: REMARK   11  A    between atoms: P_13  and  O_15 
DOCKED: REMARK   12  A    between atoms: P_13  and  O_16 
DOCKED: REMARK   13  A    between atoms: O_17  and  P_18 
DOCKED: REMARK   14  A    between atoms: P_18  and  O_20 
DOCKED: REMARK   15  A    between atoms: P_18  and  O_21 
DOCKED: REMARK   16  A    between atoms: O_22  and  P_23 
DOCKED: REMARK   17  A    between atoms: P_23  and  O_25 
DOCKED: REMARK   18  A    between atoms: P_23  and  O_26 
DOCKED: REMARK   19  A    between atoms: O_27  and  P_28 
DOCKED: REMARK   20  A    between atoms: P_28  and  O_30 
DOCKED: REMARK   21  A    between atoms: P_28  and  O_31 
DOCKED: REMARK   22  A    between atoms: O_32  and  P_33 
DOCKED: REMARK   23  A    between atoms: P_33  and  O_35 
DOCKED: REMARK   24  A    between atoms: P_33  and  O_36 
DOCKED: USER                              x       y       z     vdW  Elec       q    Type
DOCKED: USER                           _______ _______ _______ _____ _____    ______ ____
DOCKED: ROOT
DOCKED: ATOM      1  C   UNL d   1      31.552  36.690   2.200 -0.08 +0.02    +0.194 C 
DOCKED: ATOM      2  C   UNL d   1      30.490  37.541   2.899 +0.01 +0.00    +0.194 C 
DOCKED: ATOM      3  C   UNL d   1      30.335  38.911   2.235 -0.08 -0.00    +0.194 C 
DOCKED: ATOM      4  C   UNL d   1      30.107  38.826   0.728 -0.05 +0.01    +0.194 C 
DOCKED: ATOM      5  C   UNL d   1      31.073  37.897   0.005 -0.02 +0.02    +0.194 C 
DOCKED: ATOM      6  C   UNL d   1      31.275  36.550   0.703 -0.03 +0.03    +0.194 C 
DOCKED: ENDROOT
DOCKED: BRANCH   1   7
DOCKED: ATOM      7  O   UNL d   1      31.514  35.377   2.765 -0.09 -0.07    -0.278 OA
DOCKED: BRANCH   7   8
DOCKED: ATOM      8  P   UNL d   1      32.509  35.040   3.969 -0.12 +0.10    +0.473 P 
DOCKED: ATOM      9  O   UNL d   1      31.871  34.958   5.311 -0.26 -0.04    -0.228 OA
DOCKED: BRANCH   8  10
DOCKED: ATOM     10  O   UNL d   1      33.209  33.678   3.522 -0.14 -0.09    -0.303 OA
DOCKED: ATOM     11  H   UNL d   1      34.131  33.854   3.260 +0.13 +0.04    +0.222 HD
DOCKED: ENDBRANCH   8  10
DOCKED: BRANCH   8  12
DOCKED: ATOM     12  O   UNL d   1      33.697  36.085   3.828 -0.33 -0.04    -0.303 OA
DOCKED: ATOM     13  H   UNL d   1      33.907  36.307   2.893 +0.04 +0.02    +0.222 HD
DOCKED: ENDBRANCH   8  12
DOCKED: ENDBRANCH   7   8
DOCKED: ENDBRANCH   1   7
DOCKED: BRANCH   2  14
DOCKED: ATOM     14  O   UNL d   1      29.231  36.859   2.839 -0.08 +0.00    -0.278 OA
DOCKED: BRANCH  14  15
DOCKED: ATOM     15  P   UNL d   1      28.258  37.043   4.097 -0.13 -0.20    +0.473 P 
DOCKED: ATOM     16  O   UNL d   1      27.794  35.792   4.776 -0.21 +0.05    -0.228 OA
DOCKED: BRANCH  15  17
DOCKED: ATOM     17  O   UNL d   1      29.062  38.012   5.072 -0.20 +0.31    -0.303 OA
DOCKED: ATOM     18  H   UNL d   1      28.846  38.948   4.895 -0.24 -0.31    +0.222 HD
DOCKED: ENDBRANCH  15  17
DOCKED: BRANCH  15  19
DOCKED: ATOM     19  O   UNL d   1      27.105  38.005   3.570 -0.21 +0.15    -0.303 OA
DOCKED: ATOM     20  H   UNL d   1      27.411  38.928   3.500 +0.08 -0.13    +0.222 HD
DOCKED: ENDBRANCH  15  19
DOCKED: ENDBRANCH  14  15
DOCKED: ENDBRANCH   2  14
DOCKED: BRANCH   6  21
DOCKED: ATOM     21  O   UNL d   1      32.430  35.952   0.118 -0.01 -0.04    -0.278 OA
DOCKED: BRANCH  21  22
DOCKED: ATOM     22  P   UNL d   1      33.883  36.384   0.616 -0.04 +0.01    +0.473 P 
DOCKED: ATOM     23  O   UNL d   1      34.039  37.721   1.259 -0.12 +0.01    -0.228 OA
DOCKED: BRANCH  22  24
DOCKED: ATOM     24  O   UNL d   1      34.293  35.151   1.534 -0.09 -0.01    -0.303 OA
DOCKED: ATOM     25  H   UNL d   1      33.484  34.844   2.017 +0.08 +0.03    +0.222 HD
DOCKED: ENDBRANCH  22  24
DOCKED: BRANCH  22  26
DOCKED: ATOM     26  O   UNL d   1      34.767  36.128  -0.697 -0.03 -0.00    -0.303 OA
DOCKED: ATOM     27  H   UNL d   1      34.774  36.940  -1.243 +0.02 +0.00    +0.222 HD
DOCKED: ENDBRANCH  22  26
DOCKED: ENDBRANCH  21  22
DOCKED: ENDBRANCH   6  21
DOCKED: BRANCH   3  28
DOCKED: ATOM     28  O   UNL d   1      29.159  39.511   2.762 -0.11 +0.04    -0.278 OA
DOCKED: BRANCH  28  29
DOCKED: ATOM     29  P   UNL d   1      29.250  40.868   3.591 -0.17 -0.05    +0.473 P 
DOCKED: ATOM     30  O   UNL d   1      29.456  42.099   2.785 -0.18 -0.06    -0.228 OA
DOCKED: BRANCH  29  31
DOCKED: ATOM     31  O   UNL d   1      27.894  40.772   4.435 -0.27 +0.21    -0.303 OA
DOCKED: ATOM     32  H   UNL d   1      27.772  39.839   4.728 -0.36 -0.42    +0.222 HD
DOCKED: ENDBRANCH  29  31
DOCKED: BRANCH  29  33
DOCKED: ATOM     33  O   UNL d   1      30.364  40.523   4.675 -0.22 +0.06    -0.303 OA
DOCKED: ATOM     34  H   UNL d   1      29.956  39.981   5.394 -0.09 -0.17    +0.222 HD
DOCKED: ENDBRANCH  29  33
DOCKED: ENDBRANCH  28  29
DOCKED: ENDBRANCH   3  28
DOCKED: BRANCH   5  35
DOCKED: ATOM     35  O   UNL d   1      30.476  37.627  -1.262 -0.01 -0.02    -0.278 OA
DOCKED: BRANCH  35  36
DOCKED: ATOM     36  P   UNL d   1      31.368  37.105  -2.476 +0.00 +0.04    +0.473 P 
DOCKED: ATOM     37  O   UNL d   1      30.987  37.623  -3.827 -0.00 -0.01    -0.228 OA
DOCKED: BRANCH  36  38
DOCKED: ATOM     38  O   UNL d   1      32.833  37.518  -2.007 -0.00 -0.02    -0.303 OA
DOCKED: ATOM     39  H   UNL d   1      33.312  36.716  -1.705 +0.01 +0.01    +0.222 HD
DOCKED: ENDBRANCH  36  38
DOCKED: BRANCH  36  40
DOCKED: ATOM     40  O   UNL d   1      31.331  35.528  -2.272 +0.00 -0.04    -0.303 OA
DOCKED: ATOM     41  H   UNL d   1      31.886  35.246  -1.511 +0.01 +0.03    +0.222 HD
DOCKED: ENDBRANCH  36  40
DOCKED: ENDBRANCH  35  36
DOCKED: ENDBRANCH   5  35
DOCKED: BRANCH   4  42
DOCKED: ATOM     42  O   UNL d   1      30.315  40.141   0.203 -0.02 -0.02    -0.278 OA
DOCKED: BRANCH  42  43
DOCKED: ATOM     43  P   UNL d   1      31.790  40.748   0.206 +0.01 +0.05    +0.473 P 
DOCKED: ATOM     44  O   UNL d   1      31.929  42.214   0.432 -0.02 -0.04    -0.228 OA
DOCKED: BRANCH  43  45
DOCKED: ATOM     45  O   UNL d   1      32.535  39.850   1.288 -0.04 -0.02    -0.303 OA
DOCKED: ATOM     46  H   UNL d   1      33.495  39.795   1.108 +0.05 +0.01    +0.222 HD
DOCKED: ENDBRANCH  43  45
DOCKED: BRANCH  43  47
DOCKED: ATOM     47  O   UNL d   1      32.417  40.197  -1.162 -0.00 -0.02    -0.303 OA
DOCKED: ATOM     48  H   UNL d   1      32.250  39.234  -1.228 +0.01 +0.01    +0.222 HD
DOCKED: ENDBRANCH  43  47
DOCKED: ENDBRANCH  42  43
DOCKED: ENDBRANCH   4  42
DOCKED: TORSDOF 24
DOCKED: TER
DOCKED: ENDMDL
________________________________________________________________________________


	BEGINNING GENETIC ALGORITHM DOCKING 16 of 100
Run: 16 Seed: 567128313 231213832 [ Run 16 of 100 GA/GALS ]
Beginning LAMARCKIAN GENETIC ALGORITHM (LGA), with a maximum of 25000000 energy evaluations.

Final-Value: -16.668


	FINAL GENETIC ALGORITHM DOCKED STATE
	_______________________________________________


Detailed state:  trans 38.552 51.749 23.466 quatxyzw -0.934118 -0.258474 -0.036100 0.243539 center 0.035 0.082 -0.065 ntor 24 103.0658 112.9071 121.9650 166.5179 7.1485 -142.2703 -7.7952 -174.8897 129.1659 -54.0649 31.5598 -121.7514 -53.4313 80.3409 -55.5608 -84.1620 167.3470 -17.5987 30.1832 -16.4450 176.4909 -23.4541 22.2533 142.4632
State:	 38.552  51.749  23.466  -0.963 -0.266 -0.037 151.809    103.07  112.91  121.97  166.52    7.15 -142.27   -7.80 -174.89  129.17  -54.06   31.56 -121.75  -53.43   80.34  -55.56  -84.16  167.35  -17.60   30.18  -16.45  176.49  -23.45   22.25  142.46

DOCKED: MODEL       16
DOCKED: USER    Run = 16
DOCKED: USER    DPF = D:/Protein_go_brrr/autodock/final/6BB5/IHP/dock.dpf
DOCKED: USER  
DOCKED: USER    Estimated Free Energy of Binding    =   +4.69 kcal/mol  [=(1)+(2)+(3)-(4)]
DOCKED: USER    
DOCKED: USER    (1) Final Intermolecular Energy     =   -2.47 kcal/mol
DOCKED: USER        vdW + Hbond + desolv Energy     =   -2.37 kcal/mol
DOCKED: USER        Electrostatic Energy            =   -0.10 kcal/mol
DOCKED: USER    (2) Final Total Internal Energy     =  -14.20 kcal/mol
DOCKED: USER    (3) Torsional Free Energy           =   +7.16 kcal/mol
DOCKED: USER    (4) Unbound System's Energy  [=(2)] =  -14.20 kcal/mol
DOCKED: USER    
DOCKED: USER    
DOCKED: USER    NEWDPF move IHP_ideal_opt.pdbqt
DOCKED: USER    NEWDPF about 0.035000 0.082000 -0.065000
DOCKED: USER    NEWDPF tran0 38.552465 51.748590 23.466087
DOCKED: USER    NEWDPF quaternion0 -0.934118 -0.258474 -0.036100 0.243539
DOCKED: USER    NEWDPF axisangle0 -0.963116 -0.266498 -0.037221 151.808990
DOCKED: USER    NEWDPF quat0 -0.963116 -0.266498 -0.037221 151.808990
DOCKED: USER    NEWDPF dihe0 103.07 112.91 121.97 166.52 7.15 -142.27 -7.80 -174.89 129.17 -54.06 31.56 -121.75 -53.43 80.34 -55.56 -84.16 167.35 -17.60 30.18 -16.45 176.49 -23.45 22.25 142.46 
DOCKED: USER  keepresnum = 1 
DOCKED: USER  
DOCKED: REMARK  24 active torsions:
DOCKED: REMARK  status: ('A' for Active; 'I' for Inactive)
DOCKED: REMARK    1  A    between atoms: C_1  and  O_7 
DOCKED: REMARK    2  A    between atoms: C_2  and  O_12 
DOCKED: REMARK    3  A    between atoms: C_3  and  O_17 
DOCKED: REMARK    4  A    between atoms: C_4  and  O_22 
DOCKED: REMARK    5  A    between atoms: C_5  and  O_27 
DOCKED: REMARK    6  A    between atoms: C_6  and  O_32 
DOCKED: REMARK    7  A    between atoms: O_7  and  P_8 
DOCKED: REMARK    8  A    between atoms: P_8  and  O_10 
DOCKED: REMARK    9  A    between atoms: P_8  and  O_11 
DOCKED: REMARK   10  A    between atoms: O_12  and  P_13 
DOCKED: REMARK   11  A    between atoms: P_13  and  O_15 
DOCKED: REMARK   12  A    between atoms: P_13  and  O_16 
DOCKED: REMARK   13  A    between atoms: O_17  and  P_18 
DOCKED: REMARK   14  A    between atoms: P_18  and  O_20 
DOCKED: REMARK   15  A    between atoms: P_18  and  O_21 
DOCKED: REMARK   16  A    between atoms: O_22  and  P_23 
DOCKED: REMARK   17  A    between atoms: P_23  and  O_25 
DOCKED: REMARK   18  A    between atoms: P_23  and  O_26 
DOCKED: REMARK   19  A    between atoms: O_27  and  P_28 
DOCKED: REMARK   20  A    between atoms: P_28  and  O_30 
DOCKED: REMARK   21  A    between atoms: P_28  and  O_31 
DOCKED: REMARK   22  A    between atoms: O_32  and  P_33 
DOCKED: REMARK   23  A    between atoms: P_33  and  O_35 
DOCKED: REMARK   24  A    between atoms: P_33  and  O_36 
DOCKED: USER                              x       y       z     vdW  Elec       q    Type
DOCKED: USER                           _______ _______ _______ _____ _____    ______ ____
DOCKED: ROOT
DOCKED: ATOM      1  C   UNL d   1      39.375  52.695  22.277 -0.05 +0.14    +0.194 C 
DOCKED: ATOM      2  C   UNL d   1      37.851  52.832  22.294 -0.06 +0.17    +0.194 C 
DOCKED: ATOM      3  C   UNL d   1      37.161  51.476  22.456 -0.09 +0.14    +0.194 C 
DOCKED: ATOM      4  C   UNL d   1      37.682  50.675  23.647 -0.03 +0.07    +0.194 C 
DOCKED: ATOM      5  C   UNL d   1      39.201  50.609  23.734 -0.01 +0.06    +0.194 C 
DOCKED: ATOM      6  C   UNL d   1      39.894  51.955  23.511 -0.01 +0.07    +0.194 C 
DOCKED: ENDROOT
DOCKED: BRANCH   1   7
DOCKED: ATOM      7  O   UNL d   1      39.941  54.007  22.298 -0.01 -0.14    -0.278 OA
DOCKED: BRANCH   7   8
DOCKED: ATOM      8  P   UNL d   1      40.282  54.708  20.903 -0.03 +0.31    +0.473 P 
DOCKED: ATOM      9  O   UNL d   1      40.005  53.882  19.697 -0.51 -0.36    -0.228 OA
DOCKED: BRANCH   8  10
DOCKED: ATOM     10  O   UNL d   1      39.448  56.067  20.940 -0.01 -0.14    -0.303 OA
DOCKED: ATOM     11  H   UNL d   1      38.508  55.869  21.108 +0.01 +0.12    +0.222 HD
DOCKED: ENDBRANCH   8  10
DOCKED: BRANCH   8  12
DOCKED: ATOM     12  O   UNL d   1      41.775  55.230  21.058 +0.00 -0.09    -0.303 OA
DOCKED: ATOM     13  H   UNL d   1      42.434  54.502  21.118 +0.01 +0.06    +0.222 HD
DOCKED: ENDBRANCH   8  12
DOCKED: ENDBRANCH   7   8
DOCKED: ENDBRANCH   1   7
DOCKED: BRANCH   2  14
DOCKED: ATOM     14  O   UNL d   1      37.470  53.672  23.390 -0.01 -0.12    -0.278 OA
DOCKED: BRANCH  14  15
DOCKED: ATOM     15  P   UNL d   1      36.780  55.068  23.017 +0.00 +0.17    +0.473 P 
DOCKED: ATOM     16  O   UNL d   1      35.574  55.457  23.814 +0.00 -0.05    -0.228 OA
DOCKED: BRANCH  15  17
DOCKED: ATOM     17  O   UNL d   1      37.964  56.128  23.131 +0.00 -0.08    -0.303 OA
DOCKED: ATOM     18  H   UNL d   1      38.831  55.705  22.980 +0.01 +0.07    +0.222 HD
DOCKED: ENDBRANCH  15  17
DOCKED: BRANCH  15  19
DOCKED: ATOM     19  O   UNL d   1      36.567  54.996  21.442 -0.03 -0.20    -0.303 OA
DOCKED: ATOM     20  H   UNL d   1      35.629  54.865  21.211 +0.03 +0.13    +0.222 HD
DOCKED: ENDBRANCH  15  19
DOCKED: ENDBRANCH  14  15
DOCKED: ENDBRANCH   2  14
DOCKED: BRANCH   6  21
DOCKED: ATOM     21  O   UNL d   1      41.273  51.676  23.282 -0.00 -0.07    -0.278 OA
DOCKED: BRANCH  21  22
DOCKED: ATOM     22  P   UNL d   1      41.734  51.055  21.886 -0.01 +0.15    +0.473 P 
DOCKED: ATOM     23  O   UNL d   1      40.740  50.265  21.103 -0.07 -0.12    -0.228 OA
DOCKED: BRANCH  22  24
DOCKED: ATOM     24  O   UNL d   1      42.310  52.334  21.135 -0.01 -0.10    -0.303 OA
DOCKED: ATOM     25  H   UNL d   1      41.584  53.005  21.068 +0.02 +0.11    +0.222 HD
DOCKED: ENDBRANCH  22  24
DOCKED: BRANCH  22  26
DOCKED: ATOM     26  O   UNL d   1      43.076  50.282  22.301 -0.00 -0.05    -0.303 OA
DOCKED: ATOM     27  H   UNL d   1      42.924  49.800  23.139 +0.01 +0.03    +0.222 HD
DOCKED: ENDBRANCH  22  26
DOCKED: ENDBRANCH  21  22
DOCKED: ENDBRANCH   6  21
DOCKED: BRANCH   3  28
DOCKED: ATOM     28  O   UNL d   1      35.790  51.724  22.737 -0.07 -0.14    -0.278 OA
DOCKED: BRANCH  28  29
DOCKED: ATOM     29  P   UNL d   1      34.746  51.912  21.550 -0.16 +0.27    +0.473 P 
DOCKED: ATOM     30  O   UNL d   1      34.211  53.288  21.379 -0.09 -0.11    -0.228 OA
DOCKED: BRANCH  29  31
DOCKED: ATOM     31  O   UNL d   1      35.593  51.306  20.335 -0.34 -0.38    -0.303 OA
DOCKED: ATOM     32  H   UNL d   1      36.026  50.475  20.638 +0.06 +0.22    +0.222 HD
DOCKED: ENDBRANCH  29  31
DOCKED: BRANCH  29  33
DOCKED: ATOM     33  O   UNL d   1      33.688  50.761  21.849 -0.16 -0.08    -0.303 OA
DOCKED: ATOM     34  H   UNL d   1      33.705  50.108  21.107 -0.25 -0.03    +0.222 HD
DOCKED: ENDBRANCH  29  33
DOCKED: ENDBRANCH  28  29
DOCKED: ENDBRANCH   3  28
DOCKED: BRANCH   5  35
DOCKED: ATOM     35  O   UNL d   1      39.494  50.202  25.069 +0.00 -0.05    -0.278 OA
DOCKED: BRANCH  35  36
DOCKED: ATOM     36  P   UNL d   1      40.843  49.414  25.392 +0.00 +0.05    +0.473 P 
DOCKED: ATOM     37  O   UNL d   1      40.762  48.431  26.517 -0.00 -0.02    -0.228 OA
DOCKED: BRANCH  36  38
DOCKED: ATOM     38  O   UNL d   1      41.187  48.764  23.979 -0.00 -0.04    -0.303 OA
DOCKED: ATOM     39  H   UNL d   1      41.290  49.478  23.314 +0.02 +0.04    +0.222 HD
DOCKED: ENDBRANCH  36  38
DOCKED: BRANCH  36  40
DOCKED: ATOM     40  O   UNL d   1      41.900  50.593  25.539 +0.00 -0.03    -0.303 OA
DOCKED: ATOM     41  H   UNL d   1      42.389  50.750  24.701 +0.00 +0.03    +0.222 HD
DOCKED: ENDBRANCH  36  40
DOCKED: ENDBRANCH  35  36
DOCKED: ENDBRANCH   5  35
DOCKED: BRANCH   4  42
DOCKED: ATOM     42  O   UNL d   1      37.210  49.334  23.482 -0.05 -0.07    -0.278 OA
DOCKED: BRANCH  42  43
DOCKED: ATOM     43  P   UNL d   1      37.014  48.761  22.007 -0.13 +0.17    +0.473 P 
DOCKED: ATOM     44  O   UNL d   1      37.877  49.324  20.931 -0.17 -0.16    -0.228 OA
DOCKED: BRANCH  43  45
DOCKED: ATOM     45  O   UNL d   1      37.177  47.192  22.217 -0.18 -0.04    -0.303 OA
DOCKED: ATOM     46  H   UNL d   1      37.908  46.987  22.833 +0.10 +0.03    +0.222 HD
DOCKED: ENDBRANCH  43  45
DOCKED: BRANCH  43  47
DOCKED: ATOM     47  O   UNL d   1      35.435  48.895  21.768 -0.16 -0.09    -0.303 OA
DOCKED: ATOM     48  H   UNL d   1      35.169  49.831  21.888 +0.06 +0.09    +0.222 HD
DOCKED: ENDBRANCH  43  47
DOCKED: ENDBRANCH  42  43
DOCKED: ENDBRANCH   4  42
DOCKED: TORSDOF 24
DOCKED: TER
DOCKED: ENDMDL
________________________________________________________________________________


	BEGINNING GENETIC ALGORITHM DOCKING 17 of 100
Run: 17 Seed: 1649799331 927447764 [ Run 17 of 100 GA/GALS ]
Beginning LAMARCKIAN GENETIC ALGORITHM (LGA), with a maximum of 25000000 energy evaluations.

Final-Value: -16.371


	FINAL GENETIC ALGORITHM DOCKED STATE
	_______________________________________________


Detailed state:  trans 21.338 14.382 -4.940 quatxyzw 0.498526 -0.105566 -0.445216 0.736282 center 0.035 0.082 -0.065 ntor 24 102.6741 112.9938 155.7291 23.2150 136.7872 177.1975 -173.8489 -100.4454 153.5794 133.8465 -132.1773 178.6490 -35.4561 74.0579 34.6986 91.4347 74.2553 162.2941 33.0848 -33.7750 -176.6751 -37.4417 22.0969 -173.6083
State:	 21.338  14.382  -4.940   0.737 -0.156 -0.658 85.169    102.67  112.99  155.73   23.22  136.79  177.20 -173.85 -100.45  153.58  133.85 -132.18  178.65  -35.46   74.06   34.70   91.43   74.26  162.29   33.08  -33.77 -176.68  -37.44   22.10 -173.61

DOCKED: MODEL       17
DOCKED: USER    Run = 17
DOCKED: USER    DPF = D:/Protein_go_brrr/autodock/final/6BB5/IHP/dock.dpf
DOCKED: USER  
DOCKED: USER    Estimated Free Energy of Binding    =   +5.45 kcal/mol  [=(1)+(2)+(3)-(4)]
DOCKED: USER    
DOCKED: USER    (1) Final Intermolecular Energy     =   -1.71 kcal/mol
DOCKED: USER        vdW + Hbond + desolv Energy     =   -1.38 kcal/mol
DOCKED: USER        Electrostatic Energy            =   -0.33 kcal/mol
DOCKED: USER    (2) Final Total Internal Energy     =  -14.66 kcal/mol
DOCKED: USER    (3) Torsional Free Energy           =   +7.16 kcal/mol
DOCKED: USER    (4) Unbound System's Energy  [=(2)] =  -14.66 kcal/mol
DOCKED: USER    
DOCKED: USER    
DOCKED: USER    NEWDPF move IHP_ideal_opt.pdbqt
DOCKED: USER    NEWDPF about 0.035000 0.082000 -0.065000
DOCKED: USER    NEWDPF tran0 21.337750 14.382250 -4.939524
DOCKED: USER    NEWDPF quaternion0 0.498526 -0.105566 -0.445216 0.736282
DOCKED: USER    NEWDPF axisangle0 0.736729 -0.156007 -0.657946 85.168715
DOCKED: USER    NEWDPF quat0 0.736729 -0.156007 -0.657946 85.168715
DOCKED: USER    NEWDPF dihe0 102.67 112.99 155.73 23.22 136.79 177.20 -173.85 -100.45 153.58 133.85 -132.18 178.65 -35.46 74.06 34.70 91.43 74.26 162.29 33.08 -33.77 -176.68 -37.44 22.10 -173.61 
DOCKED: USER  keepresnum = 1 
DOCKED: USER  
DOCKED: REMARK  24 active torsions:
DOCKED: REMARK  status: ('A' for Active; 'I' for Inactive)
DOCKED: REMARK    1  A    between atoms: C_1  and  O_7 
DOCKED: REMARK    2  A    between atoms: C_2  and  O_12 
DOCKED: REMARK    3  A    between atoms: C_3  and  O_17 
DOCKED: REMARK    4  A    between atoms: C_4  and  O_22 
DOCKED: REMARK    5  A    between atoms: C_5  and  O_27 
DOCKED: REMARK    6  A    between atoms: C_6  and  O_32 
DOCKED: REMARK    7  A    between atoms: O_7  and  P_8 
DOCKED: REMARK    8  A    between atoms: P_8  and  O_10 
DOCKED: REMARK    9  A    between atoms: P_8  and  O_11 
DOCKED: REMARK   10  A    between atoms: O_12  and  P_13 
DOCKED: REMARK   11  A    between atoms: P_13  and  O_15 
DOCKED: REMARK   12  A    between atoms: P_13  and  O_16 
DOCKED: REMARK   13  A    between atoms: O_17  and  P_18 
DOCKED: REMARK   14  A    between atoms: P_18  and  O_20 
DOCKED: REMARK   15  A    between atoms: P_18  and  O_21 
DOCKED: REMARK   16  A    between atoms: O_22  and  P_23 
DOCKED: REMARK   17  A    between atoms: P_23  and  O_25 
DOCKED: REMARK   18  A    between atoms: P_23  and  O_26 
DOCKED: REMARK   19  A    between atoms: O_27  and  P_28 
DOCKED: REMARK   20  A    between atoms: P_28  and  O_30 
DOCKED: REMARK   21  A    between atoms: P_28  and  O_31 
DOCKED: REMARK   22  A    between atoms: O_32  and  P_33 
DOCKED: REMARK   23  A    between atoms: P_33  and  O_35 
DOCKED: REMARK   24  A    between atoms: P_33  and  O_36 
DOCKED: USER                              x       y       z     vdW  Elec       q    Type
DOCKED: USER                           _______ _______ _______ _____ _____    ______ ____
DOCKED: ROOT
DOCKED: ATOM      1  C   UNL d   1      22.514  15.632  -4.742 -0.00 -0.02    +0.194 C 
DOCKED: ATOM      2  C   UNL d   1      22.506  14.554  -3.657 -0.00 -0.02    +0.194 C 
DOCKED: ATOM      3  C   UNL d   1      21.083  14.191  -3.228 -0.01 -0.02    +0.194 C 
DOCKED: ATOM      4  C   UNL d   1      20.174  13.835  -4.402 -0.01 -0.03    +0.194 C 
DOCKED: ATOM      5  C   UNL d   1      20.236  14.825  -5.558 -0.04 -0.06    +0.194 C 
DOCKED: ATOM      6  C   UNL d   1      21.658  15.235  -5.946 -0.01 -0.04    +0.194 C 
DOCKED: ENDROOT
DOCKED: BRANCH   1   7
DOCKED: ATOM      7  O   UNL d   1      23.857  15.789  -5.206 +0.00 +0.03    -0.278 OA
DOCKED: BRANCH   7   8
DOCKED: ATOM      8  P   UNL d   1      24.797  16.846  -4.466 +0.00 -0.03    +0.473 P 
DOCKED: ATOM      9  O   UNL d   1      24.312  17.298  -3.133 -0.00 +0.02    -0.228 OA
DOCKED: BRANCH   8  10
DOCKED: ATOM     10  O   UNL d   1      26.218  16.123  -4.404 +0.00 +0.01    -0.303 OA
DOCKED: ATOM     11  H   UNL d   1      26.125  15.254  -3.972 +0.00 -0.01    +0.222 HD
DOCKED: ENDBRANCH   8  10
DOCKED: BRANCH   8  12
DOCKED: ATOM     12  O   UNL d   1      25.053  17.992  -5.536 +0.00 +0.02    -0.303 OA
DOCKED: ATOM     13  H   UNL d   1      24.245  18.511  -5.746 +0.01 -0.02    +0.222 HD
DOCKED: ENDBRANCH   8  12
DOCKED: ENDBRANCH   7   8
DOCKED: ENDBRANCH   1   7
DOCKED: BRANCH   2  14
DOCKED: ATOM     14  O   UNL d   1      23.145  13.376  -4.165 +0.00 +0.02    -0.278 OA
DOCKED: BRANCH  14  15
DOCKED: ATOM     15  P   UNL d   1      24.683  13.169  -3.771 +0.00 -0.02    +0.473 P 
DOCKED: ATOM     16  O   UNL d   1      25.059  11.836  -3.204 +0.00 +0.00    -0.228 OA
DOCKED: BRANCH  15  17
DOCKED: ATOM     17  O   UNL d   1      25.475  13.516  -5.110 +0.00 +0.01    -0.303 OA
DOCKED: ATOM     18  H   UNL d   1      25.299  14.433  -5.395 +0.00 -0.01    +0.222 HD
DOCKED: ENDBRANCH  15  17
DOCKED: BRANCH  15  19
DOCKED: ATOM     19  O   UNL d   1      25.032  14.426  -2.860 +0.00 +0.01    -0.303 OA
DOCKED: ATOM     20  H   UNL d   1      24.578  15.232  -3.168 +0.00 -0.01    +0.222 HD
DOCKED: ENDBRANCH  15  19
DOCKED: ENDBRANCH  14  15
DOCKED: ENDBRANCH   2  14
DOCKED: BRANCH   6  21
DOCKED: ATOM     21  O   UNL d   1      21.543  16.389  -6.776 -0.01 +0.07    -0.278 OA
DOCKED: BRANCH  21  22
DOCKED: ATOM     22  P   UNL d   1      21.332  17.824  -6.111 -0.04 -0.12    +0.473 P 
DOCKED: ATOM     23  O   UNL d   1      22.429  18.376  -5.264 -0.02 +0.04    -0.228 OA
DOCKED: BRANCH  22  24
DOCKED: ATOM     24  O   UNL d   1      20.952  18.714  -7.374 -0.07 +0.10    -0.303 OA
DOCKED: ATOM     25  H   UNL d   1      20.044  18.451  -7.675 +0.04 -0.12    +0.222 HD
DOCKED: ENDBRANCH  22  24
DOCKED: BRANCH  22  26
DOCKED: ATOM     26  O   UNL d   1      19.911  17.644  -5.392 -0.17 +0.12    -0.303 OA
DOCKED: ATOM     27  H   UNL d   1      19.603  16.723  -5.513 +0.04 -0.11    +0.222 HD
DOCKED: ENDBRANCH  22  26
DOCKED: ENDBRANCH  21  22
DOCKED: ENDBRANCH   6  21
DOCKED: BRANCH   3  28
DOCKED: ATOM     28  O   UNL d   1      21.161  13.011  -2.439 -0.00 +0.02    -0.278 OA
DOCKED: BRANCH  28  29
DOCKED: ATOM     29  P   UNL d   1      21.739  13.071  -0.956 +0.00 -0.01    +0.473 P 
DOCKED: ATOM     30  O   UNL d   1      20.933  13.855   0.014 -0.00 +0.01    -0.228 OA
DOCKED: BRANCH  29  31
DOCKED: ATOM     31  O   UNL d   1      21.913  11.508  -0.661 +0.00 +0.00    -0.303 OA
DOCKED: ATOM     32  H   UNL d   1      21.386  11.279   0.139 +0.00 +0.00    +0.222 HD
DOCKED: ENDBRANCH  29  31
DOCKED: BRANCH  29  33
DOCKED: ATOM     33  O   UNL d   1      23.237  13.551  -1.201 +0.00 +0.01    -0.303 OA
DOCKED: ATOM     34  H   UNL d   1      23.602  13.078  -1.989 +0.00 -0.01    +0.222 HD
DOCKED: ENDBRANCH  29  33
DOCKED: ENDBRANCH  28  29
DOCKED: ENDBRANCH   3  28
DOCKED: BRANCH   5  35
DOCKED: ATOM     35  O   UNL d   1      19.675  14.146  -6.679 -0.03 +0.11    -0.278 OA
DOCKED: BRANCH  35  36
DOCKED: ATOM     36  P   UNL d   1      18.973  14.971  -7.850 -0.04 -0.34    +0.473 P 
DOCKED: ATOM     37  O   UNL d   1      19.598  14.831  -9.202 -0.03 +0.10    -0.228 OA
DOCKED: BRANCH  36  38
DOCKED: ATOM     38  O   UNL d   1      17.472  14.446  -7.765 +0.04 +0.38    -0.303 OA
DOCKED: ATOM     39  H   UNL d   1      16.994  14.951  -7.073 -0.42 -0.59    +0.222 HD
DOCKED: ENDBRANCH  36  38
DOCKED: BRANCH  36  40
DOCKED: ATOM     40  O   UNL d   1      18.901  16.437  -7.237 -0.13 +0.31    -0.303 OA
DOCKED: ATOM     41  H   UNL d   1      19.687  16.974  -7.483 +0.04 -0.14    +0.222 HD
DOCKED: ENDBRANCH  36  40
DOCKED: ENDBRANCH  35  36
DOCKED: ENDBRANCH   5  35
DOCKED: BRANCH   4  42
DOCKED: ATOM     42  O   UNL d   1      18.831  13.851  -3.906 -0.02 +0.06    -0.278 OA
DOCKED: BRANCH  42  43
DOCKED: ATOM     43  P   UNL d   1      18.126  15.256  -3.635 -0.07 -0.15    +0.473 P 
DOCKED: ATOM     44  O   UNL d   1      17.072  15.304  -2.583 -0.12 +0.04    -0.228 OA
DOCKED: BRANCH  43  45
DOCKED: ATOM     45  O   UNL d   1      19.362  16.220  -3.362 -0.11 +0.08    -0.303 OA
DOCKED: ATOM     46  H   UNL d   1      19.142  17.151  -3.568 +0.05 -0.07    +0.222 HD
DOCKED: ENDBRANCH  43  45
DOCKED: BRANCH  43  47
DOCKED: ATOM     47  O   UNL d   1      17.665  15.723  -5.098 -0.06 +0.30    -0.303 OA
DOCKED: ATOM     48  H   UNL d   1      17.964  15.062  -5.756 -0.18 -0.23    +0.222 HD
DOCKED: ENDBRANCH  43  47
DOCKED: ENDBRANCH  42  43
DOCKED: ENDBRANCH   4  42
DOCKED: TORSDOF 24
DOCKED: TER
DOCKED: ENDMDL
________________________________________________________________________________


	BEGINNING GENETIC ALGORITHM DOCKING 18 of 100
Run: 18 Seed: 1860802131 2116160746 [ Run 18 of 100 GA/GALS ]
Beginning LAMARCKIAN GENETIC ALGORITHM (LGA), with a maximum of 25000000 energy evaluations.

Final-Value: -18.498


	FINAL GENETIC ALGORITHM DOCKED STATE
	_______________________________________________


Detailed state:  trans 29.967 16.059 25.545 quatxyzw 0.516514 -0.019482 0.497737 0.696485 center 0.035 0.082 -0.065 ntor 24 123.9466 50.1681 -172.7670 -31.2472 47.8649 -157.4351 -33.6329 -166.6083 -21.3946 81.1879 38.0848 -106.8836 -14.2180 70.6617 -64.5570 -54.8032 -11.8034 -78.7741 -8.7754 -46.2876 -10.1267 6.1059 -17.2265 -6.8422
State:	 29.967  16.059  25.545   0.720 -0.027  0.694 91.709    123.95   50.17 -172.77  -31.25   47.86 -157.44  -33.63 -166.61  -21.39   81.19   38.08 -106.88  -14.22   70.66  -64.56  -54.80  -11.80  -78.77   -8.78  -46.29  -10.13    6.11  -17.23   -6.84

DOCKED: MODEL       18
DOCKED: USER    Run = 18
DOCKED: USER    DPF = D:/Protein_go_brrr/autodock/final/6BB5/IHP/dock.dpf
DOCKED: USER  
DOCKED: USER    Estimated Free Energy of Binding    =   +2.83 kcal/mol  [=(1)+(2)+(3)-(4)]
DOCKED: USER    
DOCKED: USER    (1) Final Intermolecular Energy     =   -4.33 kcal/mol
DOCKED: USER        vdW + Hbond + desolv Energy     =   -4.12 kcal/mol
DOCKED: USER        Electrostatic Energy            =   -0.21 kcal/mol
DOCKED: USER    (2) Final Total Internal Energy     =  -14.17 kcal/mol
DOCKED: USER    (3) Torsional Free Energy           =   +7.16 kcal/mol
DOCKED: USER    (4) Unbound System's Energy  [=(2)] =  -14.17 kcal/mol
DOCKED: USER    
DOCKED: USER    
DOCKED: USER    NEWDPF move IHP_ideal_opt.pdbqt
DOCKED: USER    NEWDPF about 0.035000 0.082000 -0.065000
DOCKED: USER    NEWDPF tran0 29.967131 16.058725 25.544930
DOCKED: USER    NEWDPF quaternion0 0.516514 -0.019482 0.497737 0.696485
DOCKED: USER    NEWDPF axisangle0 0.719809 -0.027149 0.693641 91.708674
DOCKED: USER    NEWDPF quat0 0.719809 -0.027149 0.693641 91.708674
DOCKED: USER    NEWDPF dihe0 123.95 50.17 -172.77 -31.25 47.86 -157.44 -33.63 -166.61 -21.39 81.19 38.08 -106.88 -14.22 70.66 -64.56 -54.80 -11.80 -78.77 -8.78 -46.29 -10.13 6.11 -17.23 -6.84 
DOCKED: USER  keepresnum = 1 
DOCKED: USER  
DOCKED: REMARK  24 active torsions:
DOCKED: REMARK  status: ('A' for Active; 'I' for Inactive)
DOCKED: REMARK    1  A    between atoms: C_1  and  O_7 
DOCKED: REMARK    2  A    between atoms: C_2  and  O_12 
DOCKED: REMARK    3  A    between atoms: C_3  and  O_17 
DOCKED: REMARK    4  A    between atoms: C_4  and  O_22 
DOCKED: REMARK    5  A    between atoms: C_5  and  O_27 
DOCKED: REMARK    6  A    between atoms: C_6  and  O_32 
DOCKED: REMARK    7  A    between atoms: O_7  and  P_8 
DOCKED: REMARK    8  A    between atoms: P_8  and  O_10 
DOCKED: REMARK    9  A    between atoms: P_8  and  O_11 
DOCKED: REMARK   10  A    between atoms: O_12  and  P_13 
DOCKED: REMARK   11  A    between atoms: P_13  and  O_15 
DOCKED: REMARK   12  A    between atoms: P_13  and  O_16 
DOCKED: REMARK   13  A    between atoms: O_17  and  P_18 
DOCKED: REMARK   14  A    between atoms: P_18  and  O_20 
DOCKED: REMARK   15  A    between atoms: P_18  and  O_21 
DOCKED: REMARK   16  A    between atoms: O_22  and  P_23 
DOCKED: REMARK   17  A    between atoms: P_23  and  O_25 
DOCKED: REMARK   18  A    between atoms: P_23  and  O_26 
DOCKED: REMARK   19  A    between atoms: O_27  and  P_28 
DOCKED: REMARK   20  A    between atoms: P_28  and  O_30 
DOCKED: REMARK   21  A    between atoms: P_28  and  O_31 
DOCKED: REMARK   22  A    between atoms: O_32  and  P_33 
DOCKED: REMARK   23  A    between atoms: P_33  and  O_35 
DOCKED: REMARK   24  A    between atoms: P_33  and  O_36 
DOCKED: USER                              x       y       z     vdW  Elec       q    Type
DOCKED: USER                           _______ _______ _______ _____ _____    ______ ____
DOCKED: ROOT
DOCKED: ATOM      1  C   UNL d   1      30.429  15.744  27.180 -0.08 -0.03    +0.194 C 
DOCKED: ATOM      2  C   UNL d   1      29.059  16.400  26.994 -0.09 -0.00    +0.194 C 
DOCKED: ATOM      3  C   UNL d   1      29.102  17.515  25.947 -0.07 +0.01    +0.194 C 
DOCKED: ATOM      4  C   UNL d   1      29.714  17.071  24.621 -0.19 +0.02    +0.194 C 
DOCKED: ATOM      5  C   UNL d   1      31.026  16.311  24.766 -0.22 -0.00    +0.194 C 
DOCKED: ATOM      6  C   UNL d   1      31.002  15.237  25.856 -0.11 -0.03    +0.194 C 
DOCKED: ENDROOT
DOCKED: BRANCH   1   7
DOCKED: ATOM      7  O   UNL d   1      30.269  14.611  28.036 -0.04 +0.04    -0.278 OA
DOCKED: BRANCH   7   8
DOCKED: ATOM      8  P   UNL d   1      31.271  14.444  29.269 -0.04 -0.14    +0.473 P 
DOCKED: ATOM      9  O   UNL d   1      31.655  15.712  29.947 -0.15 +0.10    -0.228 OA
DOCKED: BRANCH   8  10
DOCKED: ATOM     10  O   UNL d   1      30.527  13.416  30.236 -0.00 +0.04    -0.303 OA
DOCKED: ATOM     11  H   UNL d   1      29.563  13.556  30.182 +0.01 -0.02    +0.222 HD
DOCKED: ENDBRANCH   8  10
DOCKED: BRANCH   8  12
DOCKED: ATOM     12  O   UNL d   1      32.470  13.565  28.710 -0.03 +0.11    -0.303 OA
DOCKED: ATOM     13  H   UNL d   1      32.397  13.381  27.746 +0.03 -0.07    +0.222 HD
DOCKED: ENDBRANCH   8  12
DOCKED: ENDBRANCH   7   8
DOCKED: ENDBRANCH   1   7
DOCKED: BRANCH   2  14
DOCKED: ATOM     14  O   UNL d   1      28.120  15.406  26.565 -0.02 -0.00    -0.278 OA
DOCKED: BRANCH  14  15
DOCKED: ATOM     15  P   UNL d   1      27.415  14.543  27.715 +0.01 -0.00    +0.473 P 
DOCKED: ATOM     16  O   UNL d   1      25.919  14.509  27.708 -0.00 +0.00    -0.228 OA
DOCKED: BRANCH  15  17
DOCKED: ATOM     17  O   UNL d   1      28.066  13.097  27.569 +0.00 +0.00    -0.303 OA
DOCKED: ATOM     18  H   UNL d   1      28.856  13.007  28.136 +0.01 -0.01    +0.222 HD
DOCKED: ENDBRANCH  15  17
DOCKED: BRANCH  15  19
DOCKED: ATOM     19  O   UNL d   1      28.083  15.059  29.063 -0.01 +0.01    -0.303 OA
DOCKED: ATOM     20  H   UNL d   1      28.871  14.535  29.299 +0.02 -0.02    +0.222 HD
DOCKED: ENDBRANCH  15  19
DOCKED: ENDBRANCH  14  15
DOCKED: ENDBRANCH   2  14
DOCKED: BRANCH   6  21
DOCKED: ATOM     21  O   UNL d   1      32.358  14.869  26.101 -0.11 +0.11    -0.278 OA
DOCKED: BRANCH  21  22
DOCKED: ATOM     22  P   UNL d   1      32.865  13.409  25.707 +0.00 -0.09    +0.473 P 
DOCKED: ATOM     23  O   UNL d   1      31.910  12.271  25.838 -0.00 +0.01    -0.228 OA
DOCKED: BRANCH  22  24
DOCKED: ATOM     24  O   UNL d   1      33.423  13.645  24.235 -0.02 +0.03    -0.303 OA
DOCKED: ATOM     25  H   UNL d   1      33.040  14.492  23.892 +0.07 -0.01    +0.222 HD
DOCKED: ENDBRANCH  22  24
DOCKED: BRANCH  22  26
DOCKED: ATOM     26  O   UNL d   1      34.218  13.293  26.559 -0.03 +0.10    -0.303 OA
DOCKED: ATOM     27  H   UNL d   1      34.140  13.847  27.363 +0.02 -0.13    +0.222 HD
DOCKED: ENDBRANCH  22  26
DOCKED: ENDBRANCH  21  22
DOCKED: ENDBRANCH   6  21
DOCKED: BRANCH   3  28
DOCKED: ATOM     28  O   UNL d   1      27.758  17.868  25.643 -0.10 -0.01    -0.278 OA
DOCKED: BRANCH  28  29
DOCKED: ATOM     29  P   UNL d   1      27.220  19.332  25.964 -0.16 -0.04    +0.473 P 
DOCKED: ATOM     30  O   UNL d   1      26.818  19.572  27.374 -0.31 +0.01    -0.228 OA
DOCKED: BRANCH  29  31
DOCKED: ATOM     31  O   UNL d   1      28.433  20.207  25.396 -0.28 +0.09    -0.303 OA
DOCKED: ATOM     32  H   UNL d   1      28.968  19.645  24.788 -0.23 -0.06    +0.222 HD
DOCKED: ENDBRANCH  29  31
DOCKED: BRANCH  29  33
DOCKED: ATOM     33  O   UNL d   1      26.096  19.526  24.853 -0.10 +0.02    -0.303 OA
DOCKED: ATOM     34  H   UNL d   1      26.422  20.167  24.175 +0.12 -0.02    +0.222 HD
DOCKED: ENDBRANCH  29  33
DOCKED: ENDBRANCH  28  29
DOCKED: ENDBRANCH   3  28
DOCKED: BRANCH   5  35
DOCKED: ATOM     35  O   UNL d   1      31.226  15.642  23.522 -0.09 -0.05    -0.278 OA
DOCKED: BRANCH  35  36
DOCKED: ATOM     36  P   UNL d   1      32.436  16.059  22.570 -0.15 +0.11    +0.473 P 
DOCKED: ATOM     37  O   UNL d   1      33.672  16.532  23.268 -0.70 -0.01    -0.228 OA
DOCKED: BRANCH  36  38
DOCKED: ATOM     38  O   UNL d   1      32.639  14.738  21.704 -0.06 -0.08    -0.303 OA
DOCKED: ATOM     39  H   UNL d   1      33.300  14.163  22.145 +0.07 +0.03    +0.222 HD
DOCKED: ENDBRANCH  36  38
DOCKED: BRANCH  36  40
DOCKED: ATOM     40  O   UNL d   1      31.742  17.075  21.563 -0.27 -0.19    -0.303 OA
DOCKED: ATOM     41  H   UNL d   1      31.098  17.659  22.021 +0.10 +0.13    +0.222 HD
DOCKED: ENDBRANCH  36  40
DOCKED: ENDBRANCH  35  36
DOCKED: ENDBRANCH   5  35
DOCKED: BRANCH   4  42
DOCKED: ATOM     42  O   UNL d   1      29.996  18.260  23.876 -0.19 -0.01    -0.278 OA
DOCKED: BRANCH  42  43
DOCKED: ATOM     43  P   UNL d   1      29.259  18.490  22.480 -0.22 +0.22    +0.473 P 
DOCKED: ATOM     44  O   UNL d   1      28.945  17.285  21.663 -0.22 -0.33    -0.228 OA
DOCKED: BRANCH  43  45
DOCKED: ATOM     45  O   UNL d   1      27.982  19.345  22.897 -0.15 -0.05    -0.303 OA
DOCKED: ATOM     46  H   UNL d   1      27.643  19.077  23.774 +0.10 +0.02    +0.222 HD
DOCKED: ENDBRANCH  43  45
DOCKED: BRANCH  43  47
DOCKED: ATOM     47  O   UNL d   1      30.170  19.596  21.762 -0.38 -0.11    -0.303 OA
DOCKED: ATOM     48  H   UNL d   1      31.014  19.185  21.480 +0.14 +0.11    +0.222 HD
DOCKED: ENDBRANCH  43  47
DOCKED: ENDBRANCH  42  43
DOCKED: ENDBRANCH   4  42
DOCKED: TORSDOF 24
DOCKED: TER
DOCKED: ENDMDL
________________________________________________________________________________


	BEGINNING GENETIC ALGORITHM DOCKING 19 of 100
Run: 19 Seed: 30924587 1243573701 [ Run 19 of 100 GA/GALS ]
Beginning LAMARCKIAN GENETIC ALGORITHM (LGA), with a maximum of 25000000 energy evaluations.

Final-Value: -17.988


	FINAL GENETIC ALGORITHM DOCKED STATE
	_______________________________________________


Detailed state:  trans 34.682 51.830 25.297 quatxyzw 0.529062 -0.293905 0.384873 -0.696840 center 0.035 0.082 -0.065 ntor 24 -165.6625 17.0731 120.4633 -38.5095 115.2345 139.2576 21.4469 -150.0427 59.3962 88.5276 2.5294 -144.2236 47.8689 84.0613 70.3478 163.8344 135.7124 -2.8752 -4.6245 -49.9587 -30.9397 -51.5963 -4.2565 -8.3406
State:	 34.682  51.830  25.297   0.738 -0.410  0.537 -91.652   -165.66   17.07  120.46  -38.51  115.23  139.26   21.45 -150.04   59.40   88.53    2.53 -144.22   47.87   84.06   70.35  163.83  135.71   -2.88   -4.62  -49.96  -30.94  -51.60   -4.26   -8.34

DOCKED: MODEL       19
DOCKED: USER    Run = 19
DOCKED: USER    DPF = D:/Protein_go_brrr/autodock/final/6BB5/IHP/dock.dpf
DOCKED: USER  
DOCKED: USER    Estimated Free Energy of Binding    =   +3.62 kcal/mol  [=(1)+(2)+(3)-(4)]
DOCKED: USER    
DOCKED: USER    (1) Final Intermolecular Energy     =   -3.54 kcal/mol
DOCKED: USER        vdW + Hbond + desolv Energy     =   -3.21 kcal/mol
DOCKED: USER        Electrostatic Energy            =   -0.34 kcal/mol
DOCKED: USER    (2) Final Total Internal Energy     =  -14.44 kcal/mol
DOCKED: USER    (3) Torsional Free Energy           =   +7.16 kcal/mol
DOCKED: USER    (4) Unbound System's Energy  [=(2)] =  -14.44 kcal/mol
DOCKED: USER    
DOCKED: USER    
DOCKED: USER    NEWDPF move IHP_ideal_opt.pdbqt
DOCKED: USER    NEWDPF about 0.035000 0.082000 -0.065000
DOCKED: USER    NEWDPF tran0 34.681893 51.829608 25.296520
DOCKED: USER    NEWDPF quaternion0 0.529062 -0.293905 0.384873 -0.696840
DOCKED: USER    NEWDPF axisangle0 0.737649 -0.409780 0.536613 -91.652002
DOCKED: USER    NEWDPF quat0 0.737649 -0.409780 0.536613 -91.652002
DOCKED: USER    NEWDPF dihe0 -165.66 17.07 120.46 -38.51 115.23 139.26 21.45 -150.04 59.40 88.53 2.53 -144.22 47.87 84.06 70.35 163.83 135.71 -2.88 -4.62 -49.96 -30.94 -51.60 -4.26 -8.34 
DOCKED: USER  keepresnum = 1 
DOCKED: USER  
DOCKED: REMARK  24 active torsions:
DOCKED: REMARK  status: ('A' for Active; 'I' for Inactive)
DOCKED: REMARK    1  A    between atoms: C_1  and  O_7 
DOCKED: REMARK    2  A    between atoms: C_2  and  O_12 
DOCKED: REMARK    3  A    between atoms: C_3  and  O_17 
DOCKED: REMARK    4  A    between atoms: C_4  and  O_22 
DOCKED: REMARK    5  A    between atoms: C_5  and  O_27 
DOCKED: REMARK    6  A    between atoms: C_6  and  O_32 
DOCKED: REMARK    7  A    between atoms: O_7  and  P_8 
DOCKED: REMARK    8  A    between atoms: P_8  and  O_10 
DOCKED: REMARK    9  A    between atoms: P_8  and  O_11 
DOCKED: REMARK   10  A    between atoms: O_12  and  P_13 
DOCKED: REMARK   11  A    between atoms: P_13  and  O_15 
DOCKED: REMARK   12  A    between atoms: P_13  and  O_16 
DOCKED: REMARK   13  A    between atoms: O_17  and  P_18 
DOCKED: REMARK   14  A    between atoms: P_18  and  O_20 
DOCKED: REMARK   15  A    between atoms: P_18  and  O_21 
DOCKED: REMARK   16  A    between atoms: O_22  and  P_23 
DOCKED: REMARK   17  A    between atoms: P_23  and  O_25 
DOCKED: REMARK   18  A    between atoms: P_23  and  O_26 
DOCKED: REMARK   19  A    between atoms: O_27  and  P_28 
DOCKED: REMARK   20  A    between atoms: P_28  and  O_30 
DOCKED: REMARK   21  A    between atoms: P_28  and  O_31 
DOCKED: REMARK   22  A    between atoms: O_32  and  P_33 
DOCKED: REMARK   23  A    between atoms: P_33  and  O_35 
DOCKED: REMARK   24  A    between atoms: P_33  and  O_36 
DOCKED: USER                              x       y       z     vdW  Elec       q    Type
DOCKED: USER                           _______ _______ _______ _____ _____    ______ ____
DOCKED: ROOT
DOCKED: ATOM      1  C   UNL d   1      36.098  51.222  26.078 -0.01 +0.03    +0.194 C 
DOCKED: ATOM      2  C   UNL d   1      36.117  51.181  24.549 -0.04 +0.05    +0.194 C 
DOCKED: ATOM      3  C   UNL d   1      34.782  50.697  23.978 -0.09 +0.05    +0.194 C 
DOCKED: ATOM      4  C   UNL d   1      33.582  51.470  24.519 -0.11 +0.05    +0.194 C 
DOCKED: ATOM      5  C   UNL d   1      33.582  51.635  26.034 -0.07 +0.03    +0.194 C 
DOCKED: ATOM      6  C   UNL d   1      34.934  52.059  26.611 -0.01 +0.02    +0.194 C 
DOCKED: ENDROOT
DOCKED: BRANCH   1   7
DOCKED: ATOM      7  O   UNL d   1      37.307  51.842  26.523 -0.00 -0.04    -0.278 OA
DOCKED: BRANCH   7   8
DOCKED: ATOM      8  P   UNL d   1      38.203  51.073  27.599 +0.00 +0.04    +0.473 P 
DOCKED: ATOM      9  O   UNL d   1      39.370  50.339  27.040 -0.00 -0.02    -0.228 OA
DOCKED: BRANCH   8  10
DOCKED: ATOM     10  O   UNL d   1      38.615  52.208  28.641 +0.00 -0.02    -0.303 OA
DOCKED: ATOM     11  H   UNL d   1      37.873  52.831  28.757 +0.00 +0.02    +0.222 HD
DOCKED: ENDBRANCH   8  10
DOCKED: BRANCH   8  12
DOCKED: ATOM     12  O   UNL d   1      37.176  50.203  28.444 -0.00 -0.02    -0.303 OA
DOCKED: ATOM     13  H   UNL d   1      36.275  50.595  28.479 +0.01 +0.02    +0.222 HD
DOCKED: ENDBRANCH   8  12
DOCKED: ENDBRANCH   7   8
DOCKED: ENDBRANCH   1   7
DOCKED: BRANCH   2  14
DOCKED: ATOM     14  O   UNL d   1      36.377  52.498  24.049 -0.01 -0.09    -0.278 OA
DOCKED: BRANCH  14  15
DOCKED: ATOM     15  P   UNL d   1      37.909  52.963  24.020 +0.00 +0.16    +0.473 P 
DOCKED: ATOM     16  O   UNL d   1      38.354  53.737  22.819 -0.02 -0.12    -0.228 OA
DOCKED: BRANCH  15  17
DOCKED: ATOM     17  O   UNL d   1      38.094  53.774  25.379 +0.00 -0.06    -0.303 OA
DOCKED: ATOM     18  H   UNL d   1      37.443  53.490  26.049 +0.00 +0.03    +0.222 HD
DOCKED: ENDBRANCH  15  17
DOCKED: BRANCH  15  19
DOCKED: ATOM     19  O   UNL d   1      38.732  51.637  24.325 -0.00 -0.08    -0.303 OA
DOCKED: ATOM     20  H   UNL d   1      38.992  51.581  25.263 +0.01 +0.04    +0.222 HD
DOCKED: ENDBRANCH  15  19
DOCKED: ENDBRANCH  14  15
DOCKED: ENDBRANCH   2  14
DOCKED: BRANCH   6  21
DOCKED: ATOM     21  O   UNL d   1      34.869  51.837  28.018 -0.01 -0.02    -0.278 OA
DOCKED: BRANCH  21  22
DOCKED: ATOM     22  P   UNL d   1      35.374  52.970  29.022 +0.00 +0.03    +0.473 P 
DOCKED: ATOM     23  O   UNL d   1      34.353  53.837  29.677 -0.00 -0.01    -0.228 OA
DOCKED: BRANCH  22  24
DOCKED: ATOM     24  O   UNL d   1      36.282  52.133  30.026 -0.00 -0.02    -0.303 OA
DOCKED: ATOM     25  H   UNL d   1      36.899  51.573  29.489 +0.00 +0.01    +0.222 HD
DOCKED: ENDBRANCH  22  24
DOCKED: BRANCH  22  26
DOCKED: ATOM     26  O   UNL d   1      36.473  53.726  28.133 -0.00 -0.03    -0.303 OA
DOCKED: ATOM     27  H   UNL d   1      36.929  53.075  27.561 +0.00 +0.02    +0.222 HD
DOCKED: ENDBRANCH  22  26
DOCKED: ENDBRANCH  21  22
DOCKED: ENDBRANCH   6  21
DOCKED: BRANCH   3  28
DOCKED: ATOM     28  O   UNL d   1      34.797  50.954  22.579 -0.14 -0.11    -0.278 OA
DOCKED: BRANCH  28  29
DOCKED: ATOM     29  P   UNL d   1      35.921  50.308  21.655 -0.17 +0.28    +0.473 P 
DOCKED: ATOM     30  O   UNL d   1      35.450  49.774  20.351 -0.32 -0.13    -0.228 OA
DOCKED: BRANCH  29  31
DOCKED: ATOM     31  O   UNL d   1      36.972  51.514  21.609 -0.64 -0.37    -0.303 OA
DOCKED: ATOM     32  H   UNL d   1      37.422  51.572  22.483 +0.03 +0.17    +0.222 HD
DOCKED: ENDBRANCH  29  31
DOCKED: BRANCH  29  33
DOCKED: ATOM     33  O   UNL d   1      36.616  49.274  22.646 -0.10 -0.10    -0.303 OA
DOCKED: ATOM     34  H   UNL d   1      37.368  49.724  23.104 +0.06 +0.08    +0.222 HD
DOCKED: ENDBRANCH  29  33
DOCKED: ENDBRANCH  28  29
DOCKED: ENDBRANCH   3  28
DOCKED: BRANCH   5  35
DOCKED: ATOM     35  O   UNL d   1      32.660  52.688  26.308 -0.02 -0.05    -0.278 OA
DOCKED: BRANCH  35  36
DOCKED: ATOM     36  P   UNL d   1      31.466  52.463  27.342 -0.02 +0.08    +0.473 P 
DOCKED: ATOM     37  O   UNL d   1      30.562  53.637  27.548 -0.02 -0.04    -0.228 OA
DOCKED: BRANCH  36  38
DOCKED: ATOM     38  O   UNL d   1      30.745  51.180  26.733 -0.12 -0.08    -0.303 OA
DOCKED: ATOM     39  H   UNL d   1      31.109  51.001  25.840 +0.06 +0.07    +0.222 HD
DOCKED: ENDBRANCH  36  38
DOCKED: BRANCH  36  40
DOCKED: ATOM     40  O   UNL d   1      32.226  51.904  28.622 -0.01 -0.03    -0.303 OA
DOCKED: ATOM     41  H   UNL d   1      33.022  52.440  28.837 +0.01 +0.02    +0.222 HD
DOCKED: ENDBRANCH  36  40
DOCKED: ENDBRANCH  35  36
DOCKED: ENDBRANCH   5  35
DOCKED: BRANCH   4  42
DOCKED: ATOM     42  O   UNL d   1      32.415  50.715  24.178 -0.19 -0.09    -0.278 OA
DOCKED: BRANCH  42  43
DOCKED: ATOM     43  P   UNL d   1      31.307  51.386  23.246 -0.24 +0.19    +0.473 P 
DOCKED: ATOM     44  O   UNL d   1      31.781  52.166  22.069 -0.22 -0.07    -0.228 OA
DOCKED: BRANCH  43  45
DOCKED: ATOM     45  O   UNL d   1      30.368  50.155  22.878 -0.27 -0.14    -0.303 OA
DOCKED: ATOM     46  H   UNL d   1      30.816  49.533  22.270 -0.47 +0.00    +0.222 HD
DOCKED: ENDBRANCH  43  45
DOCKED: BRANCH  43  47
DOCKED: ATOM     47  O   UNL d   1      30.393  52.193  24.287 -0.13 -0.17    -0.303 OA
DOCKED: ATOM     48  H   UNL d   1      30.956  52.541  25.009 +0.05 +0.08    +0.222 HD
DOCKED: ENDBRANCH  43  47
DOCKED: ENDBRANCH  42  43
DOCKED: ENDBRANCH   4  42
DOCKED: TORSDOF 24
DOCKED: TER
DOCKED: ENDMDL
________________________________________________________________________________


	BEGINNING GENETIC ALGORITHM DOCKING 20 of 100
Run: 20 Seed: 690198168 671130253 [ Run 20 of 100 GA/GALS ]
Beginning LAMARCKIAN GENETIC ALGORITHM (LGA), with a maximum of 25000000 energy evaluations.

Final-Value: -18.721


	FINAL GENETIC ALGORITHM DOCKED STATE
	_______________________________________________


Detailed state:  trans 19.937 48.669 -3.808 quatxyzw 0.254368 -0.238169 0.368754 -0.861738 center 0.035 0.082 -0.065 ntor 24 -169.0715 -40.8751 140.4384 66.4843 82.1663 81.5446 -82.8781 -75.1467 119.7141 -0.6628 152.8347 129.8110 -120.0196 87.3198 106.9531 49.1875 90.2309 -172.1199 41.5392 -13.7619 -50.7461 -14.1307 -33.7843 24.3785
State:	 19.937  48.669  -3.808   0.501 -0.469  0.727 -60.975   -169.07  -40.88  140.44   66.48   82.17   81.54  -82.88  -75.15  119.71   -0.66  152.83  129.81 -120.02   87.32  106.95   49.19   90.23 -172.12   41.54  -13.76  -50.75  -14.13  -33.78   24.38

DOCKED: MODEL       20
DOCKED: USER    Run = 20
DOCKED: USER    DPF = D:/Protein_go_brrr/autodock/final/6BB5/IHP/dock.dpf
DOCKED: USER  
DOCKED: USER    Estimated Free Energy of Binding    =   +3.23 kcal/mol  [=(1)+(2)+(3)-(4)]
DOCKED: USER    
DOCKED: USER    (1) Final Intermolecular Energy     =   -3.93 kcal/mol
DOCKED: USER        vdW + Hbond + desolv Energy     =   -3.85 kcal/mol
DOCKED: USER        Electrostatic Energy            =   -0.08 kcal/mol
DOCKED: USER    (2) Final Total Internal Energy     =  -14.79 kcal/mol
DOCKED: USER    (3) Torsional Free Energy           =   +7.16 kcal/mol
DOCKED: USER    (4) Unbound System's Energy  [=(2)] =  -14.79 kcal/mol
DOCKED: USER    
DOCKED: USER    
DOCKED: USER    NEWDPF move IHP_ideal_opt.pdbqt
DOCKED: USER    NEWDPF about 0.035000 0.082000 -0.065000
DOCKED: USER    NEWDPF tran0 19.936601 48.669385 -3.808077
DOCKED: USER    NEWDPF quaternion0 0.254368 -0.238169 0.368754 -0.861738
DOCKED: USER    NEWDPF axisangle0 0.501363 -0.469435 0.726819 -60.975362
DOCKED: USER    NEWDPF quat0 0.501363 -0.469435 0.726819 -60.975362
DOCKED: USER    NEWDPF dihe0 -169.07 -40.88 140.44 66.48 82.17 81.54 -82.88 -75.15 119.71 -0.66 152.83 129.81 -120.02 87.32 106.95 49.19 90.23 -172.12 41.54 -13.76 -50.75 -14.13 -33.78 24.38 
DOCKED: USER  keepresnum = 1 
DOCKED: USER  
DOCKED: REMARK  24 active torsions:
DOCKED: REMARK  status: ('A' for Active; 'I' for Inactive)
DOCKED: REMARK    1  A    between atoms: C_1  and  O_7 
DOCKED: REMARK    2  A    between atoms: C_2  and  O_12 
DOCKED: REMARK    3  A    between atoms: C_3  and  O_17 
DOCKED: REMARK    4  A    between atoms: C_4  and  O_22 
DOCKED: REMARK    5  A    between atoms: C_5  and  O_27 
DOCKED: REMARK    6  A    between atoms: C_6  and  O_32 
DOCKED: REMARK    7  A    between atoms: O_7  and  P_8 
DOCKED: REMARK    8  A    between atoms: P_8  and  O_10 
DOCKED: REMARK    9  A    between atoms: P_8  and  O_11 
DOCKED: REMARK   10  A    between atoms: O_12  and  P_13 
DOCKED: REMARK   11  A    between atoms: P_13  and  O_15 
DOCKED: REMARK   12  A    between atoms: P_13  and  O_16 
DOCKED: REMARK   13  A    between atoms: O_17  and  P_18 
DOCKED: REMARK   14  A    between atoms: P_18  and  O_20 
DOCKED: REMARK   15  A    between atoms: P_18  and  O_21 
DOCKED: REMARK   16  A    between atoms: O_22  and  P_23 
DOCKED: REMARK   17  A    between atoms: P_23  and  O_25 
DOCKED: REMARK   18  A    between atoms: P_23  and  O_26 
DOCKED: REMARK   19  A    between atoms: O_27  and  P_28 
DOCKED: REMARK   20  A    between atoms: P_28  and  O_30 
DOCKED: REMARK   21  A    between atoms: P_28  and  O_31 
DOCKED: REMARK   22  A    between atoms: O_32  and  P_33 
DOCKED: REMARK   23  A    between atoms: P_33  and  O_35 
DOCKED: REMARK   24  A    between atoms: P_33  and  O_36 
DOCKED: USER                              x       y       z     vdW  Elec       q    Type
DOCKED: USER                           _______ _______ _______ _____ _____    ______ ____
DOCKED: ROOT
DOCKED: ATOM      1  C   UNL d   1      21.202  48.297  -2.693 -0.15 -0.02    +0.194 C 
DOCKED: ATOM      2  C   UNL d   1      21.126  47.400  -3.930 -0.14 -0.02    +0.194 C 
DOCKED: ATOM      3  C   UNL d   1      19.684  47.006  -4.256 -0.20 -0.03    +0.194 C 
DOCKED: ATOM      4  C   UNL d   1      18.741  48.203  -4.352 -0.12 -0.04    +0.194 C 
DOCKED: ATOM      5  C   UNL d   1      18.865  49.185  -3.194 -0.04 -0.06    +0.194 C 
DOCKED: ATOM      6  C   UNL d   1      20.310  49.531  -2.828 -0.11 -0.03    +0.194 C 
DOCKED: ENDROOT
DOCKED: BRANCH   1   7
DOCKED: ATOM      7  O   UNL d   1      22.549  48.757  -2.559 -0.04 +0.01    -0.278 OA
DOCKED: BRANCH   7   8
DOCKED: ATOM      8  P   UNL d   1      23.621  47.783  -1.884 -0.05 +0.03    +0.473 P 
DOCKED: ATOM      9  O   UNL d   1      23.417  47.530  -0.432 -0.11 -0.03    -0.228 OA
DOCKED: BRANCH   8  10
DOCKED: ATOM     10  O   UNL d   1      23.549  46.457  -2.769 -0.12 -0.02    -0.303 OA
DOCKED: ATOM     11  H   UNL d   1      23.350  46.693  -3.694 +0.05 +0.01    +0.222 HD
DOCKED: ENDBRANCH   8  10
DOCKED: BRANCH   8  12
DOCKED: ATOM     12  O   UNL d   1      25.035  48.380  -2.292 -0.02 -0.02    -0.303 OA
DOCKED: ATOM     13  H   UNL d   1      25.352  48.057  -3.166 +0.02 +0.01    +0.222 HD
DOCKED: ENDBRANCH   8  12
DOCKED: ENDBRANCH   7   8
DOCKED: ENDBRANCH   1   7
DOCKED: BRANCH   2  14
DOCKED: ATOM     14  O   UNL d   1      21.672  48.105  -5.052 -0.02 +0.01    -0.278 OA
DOCKED: BRANCH  14  15
DOCKED: ATOM     15  P   UNL d   1      22.969  47.464  -5.738 +0.00 +0.01    +0.473 P 
DOCKED: ATOM     16  O   UNL d   1      23.063  47.568  -7.228 -0.00 -0.00    -0.228 OA
DOCKED: BRANCH  15  17
DOCKED: ATOM     17  O   UNL d   1      24.189  48.167  -4.992 -0.00 -0.01    -0.303 OA
DOCKED: ATOM     18  H   UNL d   1      24.042  48.195  -4.027 +0.02 +0.01    +0.222 HD
DOCKED: ENDBRANCH  15  17
DOCKED: BRANCH  15  19
DOCKED: ATOM     19  O   UNL d   1      23.042  45.988  -5.147 -0.04 -0.01    -0.303 OA
DOCKED: ATOM     20  H   UNL d   1      22.256  45.776  -4.611 +0.08 +0.00    +0.222 HD
DOCKED: ENDBRANCH  15  19
DOCKED: ENDBRANCH  14  15
DOCKED: ENDBRANCH   2  14
DOCKED: BRANCH   6  21
DOCKED: ATOM     21  O   UNL d   1      20.271  50.161  -1.549 -0.13 +0.05    -0.278 OA
DOCKED: BRANCH  21  22
DOCKED: ATOM     22  P   UNL d   1      21.415  51.196  -1.141 -0.05 -0.05    +0.473 P 
DOCKED: ATOM     23  O   UNL d   1      21.012  52.455  -0.451 -0.13 +0.05    -0.228 OA
DOCKED: BRANCH  22  24
DOCKED: ATOM     24  O   UNL d   1      22.411  50.271  -0.314 -0.03 +0.02    -0.303 OA
DOCKED: ATOM     25  H   UNL d   1      22.189  49.325  -0.511 +0.06 -0.01    +0.222 HD
DOCKED: ENDBRANCH  22  24
DOCKED: BRANCH  22  26
DOCKED: ATOM     26  O   UNL d   1      22.202  51.374  -2.527 -0.01 +0.02    -0.303 OA
DOCKED: ATOM     27  H   UNL d   1      22.941  50.733  -2.562 +0.02 -0.01    +0.222 HD
DOCKED: ENDBRANCH  22  26
DOCKED: ENDBRANCH  21  22
DOCKED: ENDBRANCH   6  21
DOCKED: BRANCH   3  28
DOCKED: ATOM     28  O   UNL d   1      19.682  46.421  -5.552 -0.10 +0.02    -0.278 OA
DOCKED: BRANCH  28  29
DOCKED: ATOM     29  P   UNL d   1      19.738  44.838  -5.719 -0.24 +0.00    +0.473 P 
DOCKED: ATOM     30  O   UNL d   1      19.258  44.053  -4.553 -0.46 +0.02    -0.228 OA
DOCKED: BRANCH  29  31
DOCKED: ATOM     31  O   UNL d   1      18.926  44.673  -7.089 -0.18 -0.03    -0.303 OA
DOCKED: ATOM     32  H   UNL d   1      18.253  45.391  -7.143 +0.09 +0.00    +0.222 HD
DOCKED: ENDBRANCH  29  31
DOCKED: BRANCH  29  33
DOCKED: ATOM     33  O   UNL d   1      21.245  44.602  -6.174 -0.11 -0.02    -0.303 OA
DOCKED: ATOM     34  H   UNL d   1      21.629  45.463  -6.472 +0.06 +0.01    +0.222 HD
DOCKED: ENDBRANCH  29  33
DOCKED: ENDBRANCH  28  29
DOCKED: ENDBRANCH   3  28
DOCKED: BRANCH   5  35
DOCKED: ATOM     35  O   UNL d   1      18.245  50.390  -3.640 -0.09 +0.05    -0.278 OA
DOCKED: BRANCH  35  36
DOCKED: ATOM     36  P   UNL d   1      16.731  50.707  -3.252 -0.19 -0.09    +0.473 P 
DOCKED: ATOM     37  O   UNL d   1      16.465  52.099  -2.777 -0.26 +0.04    -0.228 OA
DOCKED: BRANCH  36  38
DOCKED: ATOM     38  O   UNL d   1      15.962  50.314  -4.590 -0.07 +0.05    -0.303 OA
DOCKED: ATOM     39  H   UNL d   1      16.252  49.421  -4.877 +0.09 -0.04    +0.222 HD
DOCKED: ENDBRANCH  36  38
DOCKED: BRANCH  36  40
DOCKED: ATOM     40  O   UNL d   1      16.382  49.522  -2.249 -0.22 +0.10    -0.303 OA
DOCKED: ATOM     41  H   UNL d   1      16.733  48.661  -2.566 -0.32 -0.12    +0.222 HD
DOCKED: ENDBRANCH  36  40
DOCKED: ENDBRANCH  35  36
DOCKED: ENDBRANCH   5  35
DOCKED: BRANCH   4  42
DOCKED: ATOM     42  O   UNL d   1      17.407  47.684  -4.322 -0.18 +0.07    -0.278 OA
DOCKED: BRANCH  42  43
DOCKED: ATOM     43  P   UNL d   1      16.727  47.226  -5.690 -0.15 -0.07    +0.473 P 
DOCKED: ATOM     44  O   UNL d   1      15.398  47.810  -6.026 -0.18 +0.04    -0.228 OA
DOCKED: BRANCH  43  45
DOCKED: ATOM     45  O   UNL d   1      17.862  47.531  -6.763 -0.04 +0.02    -0.303 OA
DOCKED: ATOM     46  H   UNL d   1      18.542  46.828  -6.774 +0.07 -0.01    +0.222 HD
DOCKED: ENDBRANCH  43  45
DOCKED: BRANCH  43  47
DOCKED: ATOM     47  O   UNL d   1      16.778  45.626  -5.608 -0.24 +0.05    -0.303 OA
DOCKED: ATOM     48  H   UNL d   1      17.691  45.343  -5.395 +0.12 -0.02    +0.222 HD
DOCKED: ENDBRANCH  43  47
DOCKED: ENDBRANCH  42  43
DOCKED: ENDBRANCH   4  42
DOCKED: TORSDOF 24
DOCKED: TER
DOCKED: ENDMDL
________________________________________________________________________________


	BEGINNING GENETIC ALGORITHM DOCKING 21 of 100
Run: 21 Seed: 1152639856 554460023 [ Run 21 of 100 GA/GALS ]
Beginning LAMARCKIAN GENETIC ALGORITHM (LGA), with a maximum of 25000000 energy evaluations.

Final-Value: -16.530


	FINAL GENETIC ALGORITHM DOCKED STATE
	_______________________________________________


Detailed state:  trans 41.258 43.498 24.209 quatxyzw 0.201118 -0.166875 0.725280 0.636925 center 0.035 0.082 -0.065 ntor 24 88.8796 92.4204 175.5481 105.6463 14.8224 -147.3642 -13.3262 -65.2686 121.2374 -62.6102 154.6737 116.4261 1.5654 99.5538 -24.6646 -68.1126 91.5923 -171.0986 32.8269 -24.8939 -180.0000 -17.6408 -53.5292 24.2227
State:	 41.258  43.498  24.209   0.261 -0.216  0.941 100.874     88.88   92.42  175.55  105.65   14.82 -147.36  -13.33  -65.27  121.24  -62.61  154.67  116.43    1.57   99.55  -24.66  -68.11   91.59 -171.10   32.83  -24.89 -180.00  -17.64  -53.53   24.22

DOCKED: MODEL       21
DOCKED: USER    Run = 21
DOCKED: USER    DPF = D:/Protein_go_brrr/autodock/final/6BB5/IHP/dock.dpf
DOCKED: USER  
DOCKED: USER    Estimated Free Energy of Binding    =   +3.99 kcal/mol  [=(1)+(2)+(3)-(4)]
DOCKED: USER    
DOCKED: USER    (1) Final Intermolecular Energy     =   -3.17 kcal/mol
DOCKED: USER        vdW + Hbond + desolv Energy     =   -3.10 kcal/mol
DOCKED: USER        Electrostatic Energy            =   -0.07 kcal/mol
DOCKED: USER    (2) Final Total Internal Energy     =  -13.36 kcal/mol
DOCKED: USER    (3) Torsional Free Energy           =   +7.16 kcal/mol
DOCKED: USER    (4) Unbound System's Energy  [=(2)] =  -13.36 kcal/mol
DOCKED: USER    
DOCKED: USER    
DOCKED: USER    NEWDPF move IHP_ideal_opt.pdbqt
DOCKED: USER    NEWDPF about 0.035000 0.082000 -0.065000
DOCKED: USER    NEWDPF tran0 41.258315 43.497851 24.208616
DOCKED: USER    NEWDPF quaternion0 0.201118 -0.166875 0.725280 0.636925
DOCKED: USER    NEWDPF axisangle0 0.260878 -0.216461 0.940791 100.874241
DOCKED: USER    NEWDPF quat0 0.260878 -0.216461 0.940791 100.874241
DOCKED: USER    NEWDPF dihe0 88.88 92.42 175.55 105.65 14.82 -147.36 -13.33 -65.27 121.24 -62.61 154.67 116.43 1.57 99.55 -24.66 -68.11 91.59 -171.10 32.83 -24.89 -180.00 -17.64 -53.53 24.22 
DOCKED: USER  keepresnum = 1 
DOCKED: USER  
DOCKED: REMARK  24 active torsions:
DOCKED: REMARK  status: ('A' for Active; 'I' for Inactive)
DOCKED: REMARK    1  A    between atoms: C_1  and  O_7 
DOCKED: REMARK    2  A    between atoms: C_2  and  O_12 
DOCKED: REMARK    3  A    between atoms: C_3  and  O_17 
DOCKED: REMARK    4  A    between atoms: C_4  and  O_22 
DOCKED: REMARK    5  A    between atoms: C_5  and  O_27 
DOCKED: REMARK    6  A    between atoms: C_6  and  O_32 
DOCKED: REMARK    7  A    between atoms: O_7  and  P_8 
DOCKED: REMARK    8  A    between atoms: P_8  and  O_10 
DOCKED: REMARK    9  A    between atoms: P_8  and  O_11 
DOCKED: REMARK   10  A    between atoms: O_12  and  P_13 
DOCKED: REMARK   11  A    between atoms: P_13  and  O_15 
DOCKED: REMARK   12  A    between atoms: P_13  and  O_16 
DOCKED: REMARK   13  A    between atoms: O_17  and  P_18 
DOCKED: REMARK   14  A    between atoms: P_18  and  O_20 
DOCKED: REMARK   15  A    between atoms: P_18  and  O_21 
DOCKED: REMARK   16  A    between atoms: O_22  and  P_23 
DOCKED: REMARK   17  A    between atoms: P_23  and  O_25 
DOCKED: REMARK   18  A    between atoms: P_23  and  O_26 
DOCKED: REMARK   19  A    between atoms: O_27  and  P_28 
DOCKED: REMARK   20  A    between atoms: P_28  and  O_30 
DOCKED: REMARK   21  A    between atoms: P_28  and  O_31 
DOCKED: REMARK   22  A    between atoms: O_32  and  P_33 
DOCKED: REMARK   23  A    between atoms: P_33  and  O_35 
DOCKED: REMARK   24  A    between atoms: P_33  and  O_36 
DOCKED: USER                              x       y       z     vdW  Elec       q    Type
DOCKED: USER                           _______ _______ _______ _____ _____    ______ ____
DOCKED: ROOT
DOCKED: ATOM      1  C   UNL d   1      40.761  42.385  25.433 -0.12 -0.04    +0.194 C 
DOCKED: ATOM      2  C   UNL d   1      40.021  43.724  25.416 -0.08 -0.01    +0.194 C 
DOCKED: ATOM      3  C   UNL d   1      40.978  44.898  25.204 -0.04 +0.00    +0.194 C 
DOCKED: ATOM      4  C   UNL d   1      41.883  44.724  23.987 -0.01 +0.00    +0.194 C 
DOCKED: ATOM      5  C   UNL d   1      42.554  43.359  23.902 -0.08 -0.01    +0.194 C 
DOCKED: ATOM      6  C   UNL d   1      41.609  42.187  24.176 -0.16 -0.06    +0.194 C 
DOCKED: ENDROOT
DOCKED: BRANCH   1   7
DOCKED: ATOM      7  O   UNL d   1      39.789  41.338  25.461 -0.16 +0.12    -0.278 OA
DOCKED: BRANCH   7   8
DOCKED: ATOM      8  P   UNL d   1      39.281  40.812  26.882 -0.13 -0.07    +0.473 P 
DOCKED: ATOM      9  O   UNL d   1      38.775  41.867  27.801 -0.17 +0.00    -0.228 OA
DOCKED: BRANCH   8  10
DOCKED: ATOM     10  O   UNL d   1      38.180  39.716  26.517 -0.30 +0.04    -0.303 OA
DOCKED: ATOM     11  H   UNL d   1      37.400  40.153  26.129 +0.14 -0.02    +0.222 HD
DOCKED: ENDBRANCH   8  10
DOCKED: BRANCH   8  12
DOCKED: ATOM     12  O   UNL d   1      40.469  39.917  27.439 -0.10 -0.02    -0.303 OA
DOCKED: ATOM     13  H   UNL d   1      41.349  40.350  27.360 +0.06 +0.00    +0.222 HD
DOCKED: ENDBRANCH   8  12
DOCKED: ENDBRANCH   7   8
DOCKED: ENDBRANCH   1   7
DOCKED: BRANCH   2  14
DOCKED: ATOM     14  O   UNL d   1      39.065  43.715  24.349 -0.08 +0.03    -0.278 OA
DOCKED: BRANCH  14  15
DOCKED: ATOM     15  P   UNL d   1      37.525  43.580  24.768 -0.17 -0.07    +0.473 P 
DOCKED: ATOM     16  O   UNL d   1      36.517  44.128  23.807 -0.38 +0.03    -0.228 OA
DOCKED: BRANCH  15  17
DOCKED: ATOM     17  O   UNL d   1      37.334  42.022  25.042 -0.15 +0.08    -0.303 OA
DOCKED: ATOM     18  H   UNL d   1      37.670  41.777  25.925 +0.02 -0.05    +0.222 HD
DOCKED: ENDBRANCH  15  17
DOCKED: BRANCH  15  19
DOCKED: ATOM     19  O   UNL d   1      37.462  44.174  26.242 -0.16 +0.02    -0.303 OA
DOCKED: ATOM     20  H   UNL d   1      37.948  45.016  26.313 +0.07 +0.00    +0.222 HD
DOCKED: ENDBRANCH  15  19
DOCKED: ENDBRANCH  14  15
DOCKED: ENDBRANCH   2  14
DOCKED: BRANCH   6  21
DOCKED: ATOM     21  O   UNL d   1      42.427  41.041  24.400 -0.18 +0.16    -0.278 OA
DOCKED: BRANCH  21  22
DOCKED: ATOM     22  P   UNL d   1      43.157  40.852  25.806 -0.07 -0.14    +0.473 P 
DOCKED: ATOM     23  O   UNL d   1      42.857  41.828  26.893 -0.03 +0.01    -0.228 OA
DOCKED: BRANCH  22  24
DOCKED: ATOM     24  O   UNL d   1      42.809  39.338  26.153 -0.02 +0.20    -0.303 OA
DOCKED: ATOM     25  H   UNL d   1      41.829  39.219  26.063 -0.32 -0.29    +0.222 HD
DOCKED: ENDBRANCH  22  24
DOCKED: BRANCH  22  26
DOCKED: ATOM     26  O   UNL d   1      44.694  40.744  25.363 -0.05 +0.05    -0.303 OA
DOCKED: ATOM     27  H   UNL d   1      44.863  41.372  24.630 +0.04 -0.03    +0.222 HD
DOCKED: ENDBRANCH  22  26
DOCKED: ENDBRANCH  21  22
DOCKED: ENDBRANCH   6  21
DOCKED: BRANCH   3  28
DOCKED: ATOM     28  O   UNL d   1      40.190  46.049  24.926 -0.03 -0.01    -0.278 OA
DOCKED: BRANCH  28  29
DOCKED: ATOM     29  P   UNL d   1      39.750  47.026  26.105 +0.01 +0.03    +0.473 P 
DOCKED: ATOM     30  O   UNL d   1      38.414  46.755  26.696 -0.04 -0.01    -0.228 OA
DOCKED: BRANCH  29  31
DOCKED: ATOM     31  O   UNL d   1      41.016  46.883  27.073 -0.00 -0.02    -0.303 OA
DOCKED: ATOM     32  H   UNL d   1      41.829  46.829  26.521 +0.00 +0.01    +0.222 HD
DOCKED: ENDBRANCH  29  31
DOCKED: BRANCH  29  33
DOCKED: ATOM     33  O   UNL d   1      39.969  48.460  25.449 -0.00 -0.03    -0.303 OA
DOCKED: ATOM     34  H   UNL d   1      40.398  48.347  24.565 +0.02 +0.03    +0.222 HD
DOCKED: ENDBRANCH  29  33
DOCKED: ENDBRANCH  28  29
DOCKED: ENDBRANCH   3  28
DOCKED: BRANCH   5  35
DOCKED: ATOM     35  O   UNL d   1      43.003  43.231  22.555 -0.13 +0.01    -0.278 OA
DOCKED: BRANCH  35  36
DOCKED: ATOM     36  P   UNL d   1      44.316  43.993  22.068 -0.07 +0.00    +0.473 P 
DOCKED: ATOM     37  O   UNL d   1      45.255  43.189  21.227 -0.13 +0.00    -0.228 OA
DOCKED: BRANCH  36  38
DOCKED: ATOM     38  O   UNL d   1      43.701  45.264  21.331 -0.12 -0.01    -0.303 OA
DOCKED: ATOM     39  H   UNL d   1      43.057  45.701  21.928 +0.07 +0.01    +0.222 HD
DOCKED: ENDBRANCH  36  38
DOCKED: BRANCH  36  40
DOCKED: ATOM     40  O   UNL d   1      44.891  44.582  23.429 -0.01 -0.00    -0.303 OA
DOCKED: ATOM     41  H   UNL d   1      44.722  45.547  23.509 +0.02 +0.01    +0.222 HD
DOCKED: ENDBRANCH  36  40
DOCKED: ENDBRANCH  35  36
DOCKED: ENDBRANCH   5  35
DOCKED: BRANCH   4  42
DOCKED: ATOM     42  O   UNL d   1      42.926  45.699  24.102 -0.03 -0.01    -0.278 OA
DOCKED: BRANCH  42  43
DOCKED: ATOM     43  P   UNL d   1      42.680  47.163  23.520 -0.01 +0.04    +0.473 P 
DOCKED: ATOM     44  O   UNL d   1      43.672  47.689  22.542 -0.03 -0.02    -0.228 OA
DOCKED: BRANCH  43  45
DOCKED: ATOM     45  O   UNL d   1      41.195  47.070  22.955 -0.04 -0.03    -0.303 OA
DOCKED: ATOM     46  H   UNL d   1      40.533  47.185  23.666 +0.03 +0.02    +0.222 HD
DOCKED: ENDBRANCH  43  45
DOCKED: BRANCH  43  47
DOCKED: ATOM     47  O   UNL d   1      42.471  48.051  24.839 -0.00 -0.02    -0.303 OA
DOCKED: ATOM     48  H   UNL d   1      41.658  47.757  25.300 +0.01 +0.02    +0.222 HD
DOCKED: ENDBRANCH  43  47
DOCKED: ENDBRANCH  42  43
DOCKED: ENDBRANCH   4  42
DOCKED: TORSDOF 24
DOCKED: TER
DOCKED: ENDMDL
________________________________________________________________________________


	BEGINNING GENETIC ALGORITHM DOCKING 22 of 100
Run: 22 Seed: 557991942 1378998457 [ Run 22 of 100 GA/GALS ]
Beginning LAMARCKIAN GENETIC ALGORITHM (LGA), with a maximum of 25000000 energy evaluations.

Final-Value: -17.601


	FINAL GENETIC ALGORITHM DOCKED STATE
	_______________________________________________


Detailed state:  trans 4.624 52.216 10.754 quatxyzw -0.331055 0.200796 0.904344 -0.179572 center 0.035 0.082 -0.065 ntor 24 108.5786 124.6617 87.4229 25.6926 123.3569 87.9817 -112.2063 -21.7982 111.2526 120.1296 -95.0381 -140.8587 -72.4850 27.4259 -176.0615 61.7638 41.1255 -7.7867 -153.7547 -15.3311 12.4145 154.8960 -172.7013 133.5076
State:	  4.624  52.216  10.754  -0.337  0.204  0.919 -159.310    108.58  124.66   87.42   25.69  123.36   87.98 -112.21  -21.80  111.25  120.13  -95.04 -140.86  -72.48   27.43 -176.06   61.76   41.13   -7.79 -153.75  -15.33   12.41  154.90 -172.70  133.51

DOCKED: MODEL       22
DOCKED: USER    Run = 22
DOCKED: USER    DPF = D:/Protein_go_brrr/autodock/final/6BB5/IHP/dock.dpf
DOCKED: USER  
DOCKED: USER    Estimated Free Energy of Binding    =   +4.87 kcal/mol  [=(1)+(2)+(3)-(4)]
DOCKED: USER    
DOCKED: USER    (1) Final Intermolecular Energy     =   -2.29 kcal/mol
DOCKED: USER        vdW + Hbond + desolv Energy     =   -2.27 kcal/mol
DOCKED: USER        Electrostatic Energy            =   -0.02 kcal/mol
DOCKED: USER    (2) Final Total Internal Energy     =  -15.31 kcal/mol
DOCKED: USER    (3) Torsional Free Energy           =   +7.16 kcal/mol
DOCKED: USER    (4) Unbound System's Energy  [=(2)] =  -15.31 kcal/mol
DOCKED: USER    
DOCKED: USER    
DOCKED: USER    NEWDPF move IHP_ideal_opt.pdbqt
DOCKED: USER    NEWDPF about 0.035000 0.082000 -0.065000
DOCKED: USER    NEWDPF tran0 4.624014 52.215661 10.753644
DOCKED: USER    NEWDPF quaternion0 -0.331055 0.200796 0.904344 -0.179572
DOCKED: USER    NEWDPF axisangle0 -0.336525 0.204114 0.919287 -159.310341
DOCKED: USER    NEWDPF quat0 -0.336525 0.204114 0.919287 -159.310341
DOCKED: USER    NEWDPF dihe0 108.58 124.66 87.42 25.69 123.36 87.98 -112.21 -21.80 111.25 120.13 -95.04 -140.86 -72.48 27.43 -176.06 61.76 41.13 -7.79 -153.75 -15.33 12.41 154.90 -172.70 133.51 
DOCKED: USER  keepresnum = 1 
DOCKED: USER  
DOCKED: REMARK  24 active torsions:
DOCKED: REMARK  status: ('A' for Active; 'I' for Inactive)
DOCKED: REMARK    1  A    between atoms: C_1  and  O_7 
DOCKED: REMARK    2  A    between atoms: C_2  and  O_12 
DOCKED: REMARK    3  A    between atoms: C_3  and  O_17 
DOCKED: REMARK    4  A    between atoms: C_4  and  O_22 
DOCKED: REMARK    5  A    between atoms: C_5  and  O_27 
DOCKED: REMARK    6  A    between atoms: C_6  and  O_32 
DOCKED: REMARK    7  A    between atoms: O_7  and  P_8 
DOCKED: REMARK    8  A    between atoms: P_8  and  O_10 
DOCKED: REMARK    9  A    between atoms: P_8  and  O_11 
DOCKED: REMARK   10  A    between atoms: O_12  and  P_13 
DOCKED: REMARK   11  A    between atoms: P_13  and  O_15 
DOCKED: REMARK   12  A    between atoms: P_13  and  O_16 
DOCKED: REMARK   13  A    between atoms: O_17  and  P_18 
DOCKED: REMARK   14  A    between atoms: P_18  and  O_20 
DOCKED: REMARK   15  A    between atoms: P_18  and  O_21 
DOCKED: REMARK   16  A    between atoms: O_22  and  P_23 
DOCKED: REMARK   17  A    between atoms: P_23  and  O_25 
DOCKED: REMARK   18  A    between atoms: P_23  and  O_26 
DOCKED: REMARK   19  A    between atoms: O_27  and  P_28 
DOCKED: REMARK   20  A    between atoms: P_28  and  O_30 
DOCKED: REMARK   21  A    between atoms: P_28  and  O_31 
DOCKED: REMARK   22  A    between atoms: O_32  and  P_33 
DOCKED: REMARK   23  A    between atoms: P_33  and  O_35 
DOCKED: REMARK   24  A    between atoms: P_33  and  O_36 
DOCKED: USER                              x       y       z     vdW  Elec       q    Type
DOCKED: USER                           _______ _______ _______ _____ _____    ______ ____
DOCKED: ROOT
DOCKED: ATOM      1  C   UNL d   1       3.716  53.596  10.250 -0.03 -0.00    +0.194 C 
DOCKED: ATOM      2  C   UNL d   1       5.173  53.866  10.632 -0.03 -0.01    +0.194 C 
DOCKED: ATOM      3  C   UNL d   1       5.574  53.114  11.903 -0.02 -0.01    +0.194 C 
DOCKED: ATOM      4  C   UNL d   1       5.260  51.621  11.843 -0.04 -0.00    +0.194 C 
DOCKED: ATOM      5  C   UNL d   1       3.852  51.302  11.355 -0.03 +0.02    +0.194 C 
DOCKED: ATOM      6  C   UNL d   1       3.429  52.100  10.120 -0.06 +0.01    +0.194 C 
DOCKED: ENDROOT
DOCKED: BRANCH   1   7
DOCKED: ATOM      7  O   UNL d   1       3.474  54.190   8.972 -0.03 +0.00    -0.278 OA
DOCKED: BRANCH   7   8
DOCKED: ATOM      8  P   UNL d   1       3.875  53.365   7.664 -0.06 -0.00    +0.473 P 
DOCKED: ATOM      9  O   UNL d   1       4.885  52.293   7.879 -0.14 +0.02    -0.228 OA
DOCKED: BRANCH   8  10
DOCKED: ATOM     10  O   UNL d   1       2.483  52.816   7.111 -0.06 -0.02    -0.303 OA
DOCKED: ATOM     11  H   UNL d   1       1.986  52.395   7.837 +0.03 +0.02    +0.222 HD
DOCKED: ENDBRANCH   8  10
DOCKED: BRANCH   8  12
DOCKED: ATOM     12  O   UNL d   1       4.252  54.466   6.582 -0.07 +0.00    -0.303 OA
DOCKED: ATOM     13  H   UNL d   1       5.157  54.831   6.702 +0.04 -0.01    +0.222 HD
DOCKED: ENDBRANCH   8  12
DOCKED: ENDBRANCH   7   8
DOCKED: ENDBRANCH   1   7
DOCKED: BRANCH   2  14
DOCKED: ATOM     14  O   UNL d   1       6.024  53.439   9.561 -0.09 +0.04    -0.278 OA
DOCKED: BRANCH  14  15
DOCKED: ATOM     15  P   UNL d   1       6.879  54.578   8.829 -0.06 -0.07    +0.473 P 
DOCKED: ATOM     16  O   UNL d   1       8.163  54.980   9.485 -0.06 +0.04    -0.228 OA
DOCKED: BRANCH  15  17
DOCKED: ATOM     17  O   UNL d   1       7.089  54.016   7.353 -0.13 +0.08    -0.303 OA
DOCKED: ATOM     18  H   UNL d   1       6.780  53.093   7.281 -0.37 -0.11    +0.222 HD
DOCKED: ENDBRANCH  15  17
DOCKED: BRANCH  15  19
DOCKED: ATOM     19  O   UNL d   1       5.839  55.755   8.578 -0.01 +0.03    -0.303 OA
DOCKED: ATOM     20  H   UNL d   1       4.945  55.413   8.395 +0.02 -0.01    +0.222 HD
DOCKED: ENDBRANCH  15  19
DOCKED: ENDBRANCH  14  15
DOCKED: ENDBRANCH   2  14
DOCKED: BRANCH   6  21
DOCKED: ATOM     21  O   UNL d   1       2.016  51.955  10.000 -0.02 -0.02    -0.278 OA
DOCKED: BRANCH  21  22
DOCKED: ATOM     22  P   UNL d   1       1.414  50.749   9.145 -0.04 +0.07    +0.473 P 
DOCKED: ATOM     23  O   UNL d   1       0.147  50.983   8.393 -0.03 -0.03    -0.228 OA
DOCKED: BRANCH  22  24
DOCKED: ATOM     24  O   UNL d   1       2.659  50.335   8.245 -0.11 -0.05    -0.303 OA
DOCKED: ATOM     25  H   UNL d   1       3.413  50.108   8.847 +0.07 +0.04    +0.222 HD
DOCKED: ENDBRANCH  22  24
DOCKED: BRANCH  22  26
DOCKED: ATOM     26  O   UNL d   1       1.380  49.568  10.228 -0.04 -0.09    -0.303 OA
DOCKED: ATOM     27  H   UNL d   1       2.250  49.119  10.242 +0.06 +0.09    +0.222 HD
DOCKED: ENDBRANCH  22  26
DOCKED: ENDBRANCH  21  22
DOCKED: ENDBRANCH   6  21
DOCKED: BRANCH   3  28
DOCKED: ATOM     28  O   UNL d   1       6.988  53.198  12.022 -0.02 +0.03    -0.278 OA
DOCKED: BRANCH  28  29
DOCKED: ATOM     29  P   UNL d   1       7.914  52.033  11.455 -0.04 -0.05    +0.473 P 
DOCKED: ATOM     30  O   UNL d   1       7.439  51.390  10.203 +0.02 +0.03    -0.228 OA
DOCKED: BRANCH  29  31
DOCKED: ATOM     31  O   UNL d   1       9.318  52.797  11.393 -0.08 +0.05    -0.303 OA
DOCKED: ATOM     32  H   UNL d   1       9.230  53.566  10.784 +0.05 -0.03    +0.222 HD
DOCKED: ENDBRANCH  29  31
DOCKED: BRANCH  29  33
DOCKED: ATOM     33  O   UNL d   1       8.082  51.091  12.728 -0.04 +0.04    -0.303 OA
DOCKED: ATOM     34  H   UNL d   1       7.230  51.072  13.229 +0.03 -0.02    +0.222 HD
DOCKED: ENDBRANCH  29  33
DOCKED: ENDBRANCH  28  29
DOCKED: ENDBRANCH   3  28
DOCKED: BRANCH   5  35
DOCKED: ATOM     35  O   UNL d   1       3.876  49.927  10.978 -0.08 -0.07    -0.278 OA
DOCKED: BRANCH  35  36
DOCKED: ATOM     36  P   UNL d   1       5.118  49.335  10.171 -0.18 +0.06    +0.473 P 
DOCKED: ATOM     37  O   UNL d   1       6.274  48.883  11.006 -0.19 -0.00    -0.228 OA
DOCKED: BRANCH  36  38
DOCKED: ATOM     38  O   UNL d   1       4.432  48.175   9.322 -0.23 -0.10    -0.303 OA
DOCKED: ATOM     39  H   UNL d   1       3.569  48.495   8.980 +0.09 +0.07    +0.222 HD
DOCKED: ENDBRANCH  36  38
DOCKED: BRANCH  36  40
DOCKED: ATOM     40  O   UNL d   1       5.403  50.476   9.101 -0.25 +0.03    -0.303 OA
DOCKED: ATOM     41  H   UNL d   1       5.891  51.232   9.496 -0.08 -0.04    +0.222 HD
DOCKED: ENDBRANCH  36  40
DOCKED: ENDBRANCH  35  36
DOCKED: ENDBRANCH   5  35
DOCKED: BRANCH   4  42
DOCKED: ATOM     42  O   UNL d   1       5.366  51.121  13.180 -0.01 +0.00    -0.278 OA
DOCKED: BRANCH  42  43
DOCKED: ATOM     43  P   UNL d   1       5.214  52.138  14.398 +0.01 -0.02    +0.473 P 
DOCKED: ATOM     44  O   UNL d   1       4.203  53.225  14.264 +0.00 +0.00    -0.228 OA
DOCKED: BRANCH  43  45
DOCKED: ATOM     45  O   UNL d   1       4.965  51.168  15.635 +0.00 +0.01    -0.303 OA
DOCKED: ATOM     46  H   UNL d   1       4.668  51.663  16.424 +0.00 -0.01    +0.222 HD
DOCKED: ENDBRANCH  43  45
DOCKED: BRANCH  43  47
DOCKED: ATOM     47  O   UNL d   1       6.719  52.622  14.662 +0.00 +0.02    -0.303 OA
DOCKED: ATOM     48  H   UNL d   1       7.180  52.724  13.804 +0.01 -0.02    +0.222 HD
DOCKED: ENDBRANCH  43  47
DOCKED: ENDBRANCH  42  43
DOCKED: ENDBRANCH   4  42
DOCKED: TORSDOF 24
DOCKED: TER
DOCKED: ENDMDL
________________________________________________________________________________


	BEGINNING GENETIC ALGORITHM DOCKING 23 of 100
Run: 23 Seed: 1602105605 69379557 [ Run 23 of 100 GA/GALS ]
Beginning LAMARCKIAN GENETIC ALGORITHM (LGA), with a maximum of 25000000 energy evaluations.

Final-Value: -17.039


	FINAL GENETIC ALGORITHM DOCKED STATE
	_______________________________________________


Detailed state:  trans 0.426 14.231 10.523 quatxyzw -0.725364 0.415525 -0.153846 0.526799 center 0.035 0.082 -0.065 ntor 24 171.2603 5.8560 -173.7655 -27.3495 61.8712 -175.2474 -74.7283 168.6708 166.2085 127.6407 107.6282 -109.2835 25.5015 78.3320 133.9556 12.5364 47.0287 97.4629 1.8864 -46.5096 -21.0259 -5.4796 -180.0000 10.1033
State:	  0.426  14.231  10.523  -0.853  0.489 -0.181 116.421    171.26    5.86 -173.77  -27.35   61.87 -175.25  -74.73  168.67  166.21  127.64  107.63 -109.28   25.50   78.33  133.96   12.54   47.03   97.46    1.89  -46.51  -21.03   -5.48 -180.00   10.10

DOCKED: MODEL       23
DOCKED: USER    Run = 23
DOCKED: USER    DPF = D:/Protein_go_brrr/autodock/final/6BB5/IHP/dock.dpf
DOCKED: USER  
DOCKED: USER    Estimated Free Energy of Binding    =   +4.07 kcal/mol  [=(1)+(2)+(3)-(4)]
DOCKED: USER    
DOCKED: USER    (1) Final Intermolecular Energy     =   -3.09 kcal/mol
DOCKED: USER        vdW + Hbond + desolv Energy     =   -2.86 kcal/mol
DOCKED: USER        Electrostatic Energy            =   -0.23 kcal/mol
DOCKED: USER    (2) Final Total Internal Energy     =  -13.95 kcal/mol
DOCKED: USER    (3) Torsional Free Energy           =   +7.16 kcal/mol
DOCKED: USER    (4) Unbound System's Energy  [=(2)] =  -13.95 kcal/mol
DOCKED: USER    
DOCKED: USER    
DOCKED: USER    NEWDPF move IHP_ideal_opt.pdbqt
DOCKED: USER    NEWDPF about 0.035000 0.082000 -0.065000
DOCKED: USER    NEWDPF tran0 0.426066 14.230544 10.523104
DOCKED: USER    NEWDPF quaternion0 -0.725364 0.415525 -0.153846 0.526799
DOCKED: USER    NEWDPF axisangle0 -0.853380 0.488859 -0.180997 116.421141
DOCKED: USER    NEWDPF quat0 -0.853380 0.488859 -0.180997 116.421141
DOCKED: USER    NEWDPF dihe0 171.26 5.86 -173.77 -27.35 61.87 -175.25 -74.73 168.67 166.21 127.64 107.63 -109.28 25.50 78.33 133.96 12.54 47.03 97.46 1.89 -46.51 -21.03 -5.48 -180.00 10.10 
DOCKED: USER  keepresnum = 1 
DOCKED: USER  
DOCKED: REMARK  24 active torsions:
DOCKED: REMARK  status: ('A' for Active; 'I' for Inactive)
DOCKED: REMARK    1  A    between atoms: C_1  and  O_7 
DOCKED: REMARK    2  A    between atoms: C_2  and  O_12 
DOCKED: REMARK    3  A    between atoms: C_3  and  O_17 
DOCKED: REMARK    4  A    between atoms: C_4  and  O_22 
DOCKED: REMARK    5  A    between atoms: C_5  and  O_27 
DOCKED: REMARK    6  A    between atoms: C_6  and  O_32 
DOCKED: REMARK    7  A    between atoms: O_7  and  P_8 
DOCKED: REMARK    8  A    between atoms: P_8  and  O_10 
DOCKED: REMARK    9  A    between atoms: P_8  and  O_11 
DOCKED: REMARK   10  A    between atoms: O_12  and  P_13 
DOCKED: REMARK   11  A    between atoms: P_13  and  O_15 
DOCKED: REMARK   12  A    between atoms: P_13  and  O_16 
DOCKED: REMARK   13  A    between atoms: O_17  and  P_18 
DOCKED: REMARK   14  A    between atoms: P_18  and  O_20 
DOCKED: REMARK   15  A    between atoms: P_18  and  O_21 
DOCKED: REMARK   16  A    between atoms: O_22  and  P_23 
DOCKED: REMARK   17  A    between atoms: P_23  and  O_25 
DOCKED: REMARK   18  A    between atoms: P_23  and  O_26 
DOCKED: REMARK   19  A    between atoms: O_27  and  P_28 
DOCKED: REMARK   20  A    between atoms: P_28  and  O_30 
DOCKED: REMARK   21  A    between atoms: P_28  and  O_31 
DOCKED: REMARK   22  A    between atoms: O_32  and  P_33 
DOCKED: REMARK   23  A    between atoms: P_33  and  O_35 
DOCKED: REMARK   24  A    between atoms: P_33  and  O_36 
DOCKED: USER                              x       y       z     vdW  Elec       q    Type
DOCKED: USER                           _______ _______ _______ _____ _____    ______ ____
DOCKED: ROOT
DOCKED: ATOM      1  C   UNL d   1       1.697  13.061  10.472 -0.02 -0.02    +0.194 C 
DOCKED: ATOM      2  C   UNL d   1       1.633  14.020   9.282 -0.06 -0.01    +0.194 C 
DOCKED: ATOM      3  C   UNL d   1       0.196  14.228   8.798 -0.03 -0.01    +0.194 C 
DOCKED: ATOM      4  C   UNL d   1      -0.763  14.630   9.915 -0.02 -0.01    +0.194 C 
DOCKED: ATOM      5  C   UNL d   1      -0.653  13.769  11.167 -0.00 -0.01    +0.194 C 
DOCKED: ATOM      6  C   UNL d   1       0.787  13.511  11.616 -0.01 -0.02    +0.194 C 
DOCKED: ENDROOT
DOCKED: BRANCH   1   7
DOCKED: ATOM      7  O   UNL d   1       3.037  13.056  10.969 -0.07 +0.06    -0.278 OA
DOCKED: BRANCH   7   8
DOCKED: ATOM      8  P   UNL d   1       3.834  11.672  10.990 -0.05 -0.12    +0.473 P 
DOCKED: ATOM      9  O   UNL d   1       4.360  11.226   9.671 -0.08 +0.03    -0.228 OA
DOCKED: BRANCH   8  10
DOCKED: ATOM     10  O   UNL d   1       4.978  11.901  12.078 -0.04 +0.25    -0.303 OA
DOCKED: ATOM     11  H   UNL d   1       4.783  12.705  12.593 -0.46 -0.30    +0.222 HD
DOCKED: ENDBRANCH   8  10
DOCKED: BRANCH   8  12
DOCKED: ATOM     12  O   UNL d   1       2.868  10.651  11.733 -0.01 +0.04    -0.303 OA
DOCKED: ATOM     13  H   UNL d   1       2.394  11.054  12.494 +0.01 -0.03    +0.222 HD
DOCKED: ENDBRANCH   8  12
DOCKED: ENDBRANCH   7   8
DOCKED: ENDBRANCH   1   7
DOCKED: BRANCH   2  14
DOCKED: ATOM     14  O   UNL d   1       2.169  15.290   9.676 -0.13 +0.02    -0.278 OA
DOCKED: BRANCH  14  15
DOCKED: ATOM     15  P   UNL d   1       3.759  15.457   9.576 -0.23 -0.01    +0.473 P 
DOCKED: ATOM     16  O   UNL d   1       4.263  16.715   8.941 -0.41 -0.04    -0.228 OA
DOCKED: BRANCH  15  17
DOCKED: ATOM     17  O   UNL d   1       4.263  15.277  11.076 -0.31 +0.09    -0.303 OA
DOCKED: ATOM     18  H   UNL d   1       4.467  14.342  11.268 -0.03 -0.13    +0.222 HD
DOCKED: ENDBRANCH  15  17
DOCKED: BRANCH  15  19
DOCKED: ATOM     19  O   UNL d   1       4.259  14.104   8.906 -0.25 +0.00    -0.303 OA
DOCKED: ATOM     20  H   UNL d   1       4.419  13.410   9.572 +0.07 -0.03    +0.222 HD
DOCKED: ENDBRANCH  15  19
DOCKED: ENDBRANCH  14  15
DOCKED: ENDBRANCH   2  14
DOCKED: BRANCH   6  21
DOCKED: ATOM     21  O   UNL d   1       0.740  12.441  12.558 -0.00 +0.02    -0.278 OA
DOCKED: BRANCH  21  22
DOCKED: ATOM     22  P   UNL d   1       1.339  12.648  14.022 +0.01 -0.05    +0.473 P 
DOCKED: ATOM     23  O   UNL d   1       0.963  11.668  15.082 -0.00 +0.01    -0.228 OA
DOCKED: BRANCH  22  24
DOCKED: ATOM     24  O   UNL d   1       2.900  12.743  13.724 -0.03 +0.09    -0.303 OA
DOCKED: ATOM     25  H   UNL d   1       3.040  12.580  12.756 +0.02 -0.07    +0.222 HD
DOCKED: ENDBRANCH  22  24
DOCKED: BRANCH  22  26
DOCKED: ATOM     26  O   UNL d   1       0.964  14.179  14.314 -0.00 +0.03    -0.303 OA
DOCKED: ATOM     27  H   UNL d   1       0.347  14.496  13.623 +0.02 -0.02    +0.222 HD
DOCKED: ENDBRANCH  22  26
DOCKED: ENDBRANCH  21  22
DOCKED: ENDBRANCH   6  21
DOCKED: BRANCH   3  28
DOCKED: ATOM     28  O   UNL d   1       0.203  15.325   7.893 -0.06 +0.01    -0.278 OA
DOCKED: BRANCH  28  29
DOCKED: ATOM     29  P   UNL d   1       0.073  15.077   6.326 -0.03 +0.02    +0.473 P 
DOCKED: ATOM     30  O   UNL d   1       0.260  13.671   5.882 -0.06 -0.01    -0.228 OA
DOCKED: BRANCH  29  31
DOCKED: ATOM     31  O   UNL d   1      -1.359  15.739   6.056 -0.01 +0.01    -0.303 OA
DOCKED: ATOM     32  H   UNL d   1      -1.866  15.745   6.901 +0.02 -0.01    +0.222 HD
DOCKED: ENDBRANCH  29  31
DOCKED: BRANCH  29  33
DOCKED: ATOM     33  O   UNL d   1       1.078  16.159   5.731 -0.60 -0.05    -0.303 OA
DOCKED: ATOM     34  H   UNL d   1       0.628  16.647   4.999 +0.06 +0.01    +0.222 HD
DOCKED: ENDBRANCH  29  33
DOCKED: ENDBRANCH  28  29
DOCKED: ENDBRANCH   3  28
DOCKED: BRANCH   5  35
DOCKED: ATOM     35  O   UNL d   1      -1.289  14.512  12.205 -0.00 +0.02    -0.278 OA
DOCKED: BRANCH  35  36
DOCKED: ATOM     36  P   UNL d   1      -0.916  16.045  12.442 -0.01 -0.05    +0.473 P 
DOCKED: ATOM     37  O   UNL d   1      -1.758  17.035  11.702 -0.05 +0.02    -0.228 OA
DOCKED: BRANCH  36  38
DOCKED: ATOM     38  O   UNL d   1      -1.008  16.162  14.027 -0.01 +0.03    -0.303 OA
DOCKED: ATOM     39  H   UNL d   1      -0.111  16.054  14.410 +0.02 -0.02    +0.222 HD
DOCKED: ENDBRANCH  36  38
DOCKED: BRANCH  36  40
DOCKED: ATOM     40  O   UNL d   1       0.647  16.064  12.147 -0.06 +0.05    -0.303 OA
DOCKED: ATOM     41  H   UNL d   1       0.835  16.182  11.189 +0.06 -0.03    +0.222 HD
DOCKED: ENDBRANCH  36  40
DOCKED: ENDBRANCH  35  36
DOCKED: ENDBRANCH   5  35
DOCKED: BRANCH   4  42
DOCKED: ATOM     42  O   UNL d   1      -2.090  14.460   9.404 -0.00 +0.01    -0.278 OA
DOCKED: BRANCH  42  43
DOCKED: ATOM     43  P   UNL d   1      -2.894  15.745   8.905 -0.00 -0.02    +0.473 P 
DOCKED: ATOM     44  O   UNL d   1      -3.772  15.585   7.713 -0.00 +0.01    -0.228 OA
DOCKED: BRANCH  43  45
DOCKED: ATOM     45  O   UNL d   1      -3.660  16.209  10.220 -0.00 +0.01    -0.303 OA
DOCKED: ATOM     46  H   UNL d   1      -3.126  16.044  11.023 +0.01 -0.01    +0.222 HD
DOCKED: ENDBRANCH  43  45
DOCKED: BRANCH  43  47
DOCKED: ATOM     47  O   UNL d   1      -1.754  16.865   8.780 -0.07 +0.02    -0.303 OA
DOCKED: ATOM     48  H   UNL d   1      -1.166  16.644   8.028 +0.03 -0.02    +0.222 HD
DOCKED: ENDBRANCH  43  47
DOCKED: ENDBRANCH  42  43
DOCKED: ENDBRANCH   4  42
DOCKED: TORSDOF 24
DOCKED: TER
DOCKED: ENDMDL
________________________________________________________________________________


	BEGINNING GENETIC ALGORITHM DOCKING 24 of 100
Run: 24 Seed: 290149103 1670929878 [ Run 24 of 100 GA/GALS ]
Beginning LAMARCKIAN GENETIC ALGORITHM (LGA), with a maximum of 25000000 energy evaluations.

Final-Value: -16.915


	FINAL GENETIC ALGORITHM DOCKED STATE
	_______________________________________________


Detailed state:  trans 24.502 47.855 28.760 quatxyzw 0.642280 -0.092234 -0.482714 0.588180 center 0.035 0.082 -0.065 ntor 24 -121.3660 1.3942 50.1010 59.6818 15.3104 159.0400 -95.0169 45.4357 99.0390 87.3686 1.3651 173.7374 -114.2778 -133.4194 -52.4193 15.0267 102.5210 160.0323 36.6032 -36.2129 -179.9926 -179.9464 -7.1689 -17.6578
State:	 24.502  47.855  28.760   0.794 -0.114 -0.597 107.944   -121.37    1.39   50.10   59.68   15.31  159.04  -95.02   45.44   99.04   87.37    1.37  173.74 -114.28 -133.42  -52.42   15.03  102.52  160.03   36.60  -36.21 -179.99 -179.95   -7.17  -17.66

DOCKED: MODEL       24
DOCKED: USER    Run = 24
DOCKED: USER    DPF = D:/Protein_go_brrr/autodock/final/6BB5/IHP/dock.dpf
DOCKED: USER  
DOCKED: USER    Estimated Free Energy of Binding    =   +3.92 kcal/mol  [=(1)+(2)+(3)-(4)]
DOCKED: USER    
DOCKED: USER    (1) Final Intermolecular Energy     =   -3.23 kcal/mol
DOCKED: USER        vdW + Hbond + desolv Energy     =   -2.99 kcal/mol
DOCKED: USER        Electrostatic Energy            =   -0.24 kcal/mol
DOCKED: USER    (2) Final Total Internal Energy     =  -13.68 kcal/mol
DOCKED: USER    (3) Torsional Free Energy           =   +7.16 kcal/mol
DOCKED: USER    (4) Unbound System's Energy  [=(2)] =  -13.68 kcal/mol
DOCKED: USER    
DOCKED: USER    
DOCKED: USER    NEWDPF move IHP_ideal_opt.pdbqt
DOCKED: USER    NEWDPF about 0.035000 0.082000 -0.065000
DOCKED: USER    NEWDPF tran0 24.501790 47.855337 28.759876
DOCKED: USER    NEWDPF quaternion0 0.642280 -0.092234 -0.482714 0.588180
DOCKED: USER    NEWDPF axisangle0 0.794184 -0.114048 -0.596879 107.944022
DOCKED: USER    NEWDPF quat0 0.794184 -0.114048 -0.596879 107.944022
DOCKED: USER    NEWDPF dihe0 -121.37 1.39 50.10 59.68 15.31 159.04 -95.02 45.44 99.04 87.37 1.37 173.74 -114.28 -133.42 -52.42 15.03 102.52 160.03 36.60 -36.21 -179.99 -179.95 -7.17 -17.66 
DOCKED: USER  keepresnum = 1 
DOCKED: USER  
DOCKED: REMARK  24 active torsions:
DOCKED: REMARK  status: ('A' for Active; 'I' for Inactive)
DOCKED: REMARK    1  A    between atoms: C_1  and  O_7 
DOCKED: REMARK    2  A    between atoms: C_2  and  O_12 
DOCKED: REMARK    3  A    between atoms: C_3  and  O_17 
DOCKED: REMARK    4  A    between atoms: C_4  and  O_22 
DOCKED: REMARK    5  A    between atoms: C_5  and  O_27 
DOCKED: REMARK    6  A    between atoms: C_6  and  O_32 
DOCKED: REMARK    7  A    between atoms: O_7  and  P_8 
DOCKED: REMARK    8  A    between atoms: P_8  and  O_10 
DOCKED: REMARK    9  A    between atoms: P_8  and  O_11 
DOCKED: REMARK   10  A    between atoms: O_12  and  P_13 
DOCKED: REMARK   11  A    between atoms: P_13  and  O_15 
DOCKED: REMARK   12  A    between atoms: P_13  and  O_16 
DOCKED: REMARK   13  A    between atoms: O_17  and  P_18 
DOCKED: REMARK   14  A    between atoms: P_18  and  O_20 
DOCKED: REMARK   15  A    between atoms: P_18  and  O_21 
DOCKED: REMARK   16  A    between atoms: O_22  and  P_23 
DOCKED: REMARK   17  A    between atoms: P_23  and  O_25 
DOCKED: REMARK   18  A    between atoms: P_23  and  O_26 
DOCKED: REMARK   19  A    between atoms: O_27  and  P_28 
DOCKED: REMARK   20  A    between atoms: P_28  and  O_30 
DOCKED: REMARK   21  A    between atoms: P_28  and  O_31 
DOCKED: REMARK   22  A    between atoms: O_32  and  P_33 
DOCKED: REMARK   23  A    between atoms: P_33  and  O_35 
DOCKED: REMARK   24  A    between atoms: P_33  and  O_36 
DOCKED: USER                              x       y       z     vdW  Elec       q    Type
DOCKED: USER                           _______ _______ _______ _____ _____    ______ ____
DOCKED: ROOT
DOCKED: ATOM      1  C   UNL d   1      25.354  49.345  28.564 -0.06 -0.00    +0.194 C 
DOCKED: ATOM      2  C   UNL d   1      25.450  48.707  29.951 -0.01 -0.01    +0.194 C 
DOCKED: ATOM      3  C   UNL d   1      24.096  48.172  30.423 -0.00 -0.01    +0.194 C 
DOCKED: ATOM      4  C   UNL d   1      23.426  47.250  29.407 -0.02 -0.02    +0.194 C 
DOCKED: ATOM      5  C   UNL d   1      23.411  47.798  27.986 -0.06 -0.04    +0.194 C 
DOCKED: ATOM      6  C   UNL d   1      24.749  48.388  27.536 -0.14 -0.04    +0.194 C 
DOCKED: ENDROOT
DOCKED: BRANCH   1   7
DOCKED: ATOM      7  O   UNL d   1      26.678  49.659  28.125 -0.09 -0.04    -0.278 OA
DOCKED: BRANCH   7   8
DOCKED: ATOM      8  P   UNL d   1      27.313  51.057  28.568 -0.03 +0.10    +0.473 P 
DOCKED: ATOM      9  O   UNL d   1      26.596  52.262  28.068 -0.06 -0.06    -0.228 OA
DOCKED: BRANCH   8  10
DOCKED: ATOM     10  O   UNL d   1      27.363  50.972  30.161 -0.01 -0.02    -0.303 OA
DOCKED: ATOM     11  H   UNL d   1      28.144  50.457  30.436 +0.02 +0.01    +0.222 HD
DOCKED: ENDBRANCH   8  10
DOCKED: BRANCH   8  12
DOCKED: ATOM     12  O   UNL d   1      28.850  50.954  28.181 -0.07 -0.08    -0.303 OA
DOCKED: ATOM     13  H   UNL d   1      29.251  50.088  28.423 +0.04 +0.04    +0.222 HD
DOCKED: ENDBRANCH   8  12
DOCKED: ENDBRANCH   7   8
DOCKED: ENDBRANCH   1   7
DOCKED: BRANCH   2  14
DOCKED: ATOM     14  O   UNL d   1      26.378  47.616  29.900 -0.02 +0.02    -0.278 OA
DOCKED: BRANCH  14  15
DOCKED: ATOM     15  P   UNL d   1      27.884  47.937  30.341 -0.00 -0.01    +0.473 P 
DOCKED: ATOM     16  O   UNL d   1      28.741  48.647  29.340 -0.07 -0.00    -0.228 OA
DOCKED: BRANCH  15  17
DOCKED: ATOM     17  O   UNL d   1      27.724  48.748  31.703 -0.00 +0.00    -0.303 OA
DOCKED: ATOM     18  H   UNL d   1      27.035  49.435  31.624 +0.01 +0.00    +0.222 HD
DOCKED: ENDBRANCH  15  17
DOCKED: BRANCH  15  19
DOCKED: ATOM     19  O   UNL d   1      28.450  46.545  30.863 -0.02 +0.02    -0.303 OA
DOCKED: ATOM     20  H   UNL d   1      27.781  45.838  30.800 +0.05 -0.02    +0.222 HD
DOCKED: ENDBRANCH  15  19
DOCKED: ENDBRANCH  14  15
DOCKED: ENDBRANCH   2  14
DOCKED: BRANCH   6  21
DOCKED: ATOM     21  O   UNL d   1      24.489  49.149  26.359 -0.19 +0.12    -0.278 OA
DOCKED: BRANCH  21  22
DOCKED: ATOM     22  P   UNL d   1      23.829  50.596  26.481 -0.09 -0.03    +0.473 P 
DOCKED: ATOM     23  O   UNL d   1      23.052  50.915  27.714 -0.02 +0.01    -0.228 OA
DOCKED: BRANCH  22  24
DOCKED: ATOM     24  O   UNL d   1      25.077  51.547  26.214 -0.02 -0.15    -0.303 OA
DOCKED: ATOM     25  H   UNL d   1      25.816  51.260  26.809 +0.03 +0.12    +0.222 HD
DOCKED: ENDBRANCH  22  24
DOCKED: BRANCH  22  26
DOCKED: ATOM     26  O   UNL d   1      23.027  50.706  25.097 -0.14 +0.10    -0.303 OA
DOCKED: ATOM     27  H   UNL d   1      23.343  50.011  24.486 -0.44 -0.29    +0.222 HD
DOCKED: ENDBRANCH  22  26
DOCKED: ENDBRANCH  21  22
DOCKED: ENDBRANCH   6  21
DOCKED: BRANCH   3  28
DOCKED: ATOM     28  O   UNL d   1      24.330  47.365  31.569 +0.00 +0.01    -0.278 OA
DOCKED: BRANCH  28  29
DOCKED: ATOM     29  P   UNL d   1      25.082  45.968  31.429 +0.01 -0.03    +0.473 P 
DOCKED: ATOM     30  O   UNL d   1      25.274  45.480  30.039 -0.02 +0.03    -0.228 OA
DOCKED: BRANCH  29  31
DOCKED: ATOM     31  O   UNL d   1      26.403  46.275  32.279 -0.00 +0.01    -0.303 OA
DOCKED: ATOM     32  H   UNL d   1      26.728  47.173  32.040 +0.01 -0.01    +0.222 HD
DOCKED: ENDBRANCH  29  31
DOCKED: BRANCH  29  33
DOCKED: ATOM     33  O   UNL d   1      24.241  45.036  32.409 +0.00 +0.02    -0.303 OA
DOCKED: ATOM     34  H   UNL d   1      23.664  44.441  31.871 +0.01 -0.02    +0.222 HD
DOCKED: ENDBRANCH  29  33
DOCKED: ENDBRANCH  28  29
DOCKED: ENDBRANCH   3  28
DOCKED: BRANCH   5  35
DOCKED: ATOM     35  O   UNL d   1      23.141  46.680  27.143 -0.12 +0.11    -0.278 OA
DOCKED: BRANCH  35  36
DOCKED: ATOM     36  P   UNL d   1      21.893  46.705  26.149 -0.25 -0.17    +0.473 P 
DOCKED: ATOM     37  O   UNL d   1      22.082  45.972  24.859 -0.99 +0.11    -0.228 OA
DOCKED: BRANCH  36  38
DOCKED: ATOM     38  O   UNL d   1      20.732  46.122  27.069 -0.18 +0.04    -0.303 OA
DOCKED: ATOM     39  H   UNL d   1      20.921  46.345  28.006 +0.05 -0.03    +0.222 HD
DOCKED: ENDBRANCH  36  38
DOCKED: BRANCH  36  40
DOCKED: ATOM     40  O   UNL d   1      21.564  48.258  26.056 -0.13 +0.09    -0.303 OA
DOCKED: ATOM     41  H   UNL d   1      22.377  48.795  25.924 +0.05 -0.11    +0.222 HD
DOCKED: ENDBRANCH  36  40
DOCKED: ENDBRANCH  35  36
DOCKED: ENDBRANCH   5  35
DOCKED: BRANCH   4  42
DOCKED: ATOM     42  O   UNL d   1      22.062  47.103  29.817 -0.00 +0.02    -0.278 OA
DOCKED: BRANCH  42  43
DOCKED: ATOM     43  P   UNL d   1      21.452  45.636  29.958 -0.00 -0.04    +0.473 P 
DOCKED: ATOM     44  O   UNL d   1      19.979  45.487  29.800 -0.03 +0.01    -0.228 OA
DOCKED: BRANCH  43  45
DOCKED: ATOM     45  O   UNL d   1      22.308  44.800  28.909 -0.05 +0.05    -0.303 OA
DOCKED: ATOM     46  H   UNL d   1      22.068  45.029  27.988 +0.07 -0.04    +0.222 HD
DOCKED: ENDBRANCH  43  45
DOCKED: BRANCH  43  47
DOCKED: ATOM     47  O   UNL d   1      22.054  45.122  31.352 -0.00 +0.02    -0.303 OA
DOCKED: ATOM     48  H   UNL d   1      22.709  45.773  31.680 +0.00 -0.01    +0.222 HD
DOCKED: ENDBRANCH  43  47
DOCKED: ENDBRANCH  42  43
DOCKED: ENDBRANCH   4  42
DOCKED: TORSDOF 24
DOCKED: TER
DOCKED: ENDMDL
________________________________________________________________________________


	BEGINNING GENETIC ALGORITHM DOCKING 25 of 100
Run: 25 Seed: 350807150 196313983 [ Run 25 of 100 GA/GALS ]
Beginning LAMARCKIAN GENETIC ALGORITHM (LGA), with a maximum of 25000000 energy evaluations.

Final-Value: -16.121


	FINAL GENETIC ALGORITHM DOCKED STATE
	_______________________________________________


Detailed state:  trans -1.464 23.403 15.554 quatxyzw 0.005933 0.459933 0.877017 0.138806 center 0.035 0.082 -0.065 ntor 24 -175.9787 7.7084 160.4646 149.1845 -5.4294 -134.8126 -19.2947 171.3607 -4.3000 -64.3732 133.5578 -179.9200 -113.1824 90.9655 5.0615 135.4803 -166.0007 44.3247 34.4664 -19.2141 147.3240 -35.9782 -43.9187 -1.0580
State:	 -1.464  23.403  15.554   0.006  0.464  0.886 164.042   -175.98    7.71  160.46  149.18   -5.43 -134.81  -19.29  171.36   -4.30  -64.37  133.56 -179.92 -113.18   90.97    5.06  135.48 -166.00   44.32   34.47  -19.21  147.32  -35.98  -43.92   -1.06

DOCKED: MODEL       25
DOCKED: USER    Run = 25
DOCKED: USER    DPF = D:/Protein_go_brrr/autodock/final/6BB5/IHP/dock.dpf
DOCKED: USER  
DOCKED: USER    Estimated Free Energy of Binding    =   +5.78 kcal/mol  [=(1)+(2)+(3)-(4)]
DOCKED: USER    
DOCKED: USER    (1) Final Intermolecular Energy     =   -1.38 kcal/mol
DOCKED: USER        vdW + Hbond + desolv Energy     =   -1.40 kcal/mol
DOCKED: USER        Electrostatic Energy            =   +0.02 kcal/mol
DOCKED: USER    (2) Final Total Internal Energy     =  -14.74 kcal/mol
DOCKED: USER    (3) Torsional Free Energy           =   +7.16 kcal/mol
DOCKED: USER    (4) Unbound System's Energy  [=(2)] =  -14.74 kcal/mol
DOCKED: USER    
DOCKED: USER    
DOCKED: USER    NEWDPF move IHP_ideal_opt.pdbqt
DOCKED: USER    NEWDPF about 0.035000 0.082000 -0.065000
DOCKED: USER    NEWDPF tran0 -1.464486 23.403149 15.553639
DOCKED: USER    NEWDPF quaternion0 0.005933 0.459933 0.877017 0.138806
DOCKED: USER    NEWDPF axisangle0 0.005991 0.464429 0.885590 164.042424
DOCKED: USER    NEWDPF quat0 0.005991 0.464429 0.885590 164.042424
DOCKED: USER    NEWDPF dihe0 -175.98 7.71 160.46 149.18 -5.43 -134.81 -19.29 171.36 -4.30 -64.37 133.56 -179.92 -113.18 90.97 5.06 135.48 -166.00 44.32 34.47 -19.21 147.32 -35.98 -43.92 -1.06 
DOCKED: USER  keepresnum = 1 
DOCKED: USER  
DOCKED: REMARK  24 active torsions:
DOCKED: REMARK  status: ('A' for Active; 'I' for Inactive)
DOCKED: REMARK    1  A    between atoms: C_1  and  O_7 
DOCKED: REMARK    2  A    between atoms: C_2  and  O_12 
DOCKED: REMARK    3  A    between atoms: C_3  and  O_17 
DOCKED: REMARK    4  A    between atoms: C_4  and  O_22 
DOCKED: REMARK    5  A    between atoms: C_5  and  O_27 
DOCKED: REMARK    6  A    between atoms: C_6  and  O_32 
DOCKED: REMARK    7  A    between atoms: O_7  and  P_8 
DOCKED: REMARK    8  A    between atoms: P_8  and  O_10 
DOCKED: REMARK    9  A    between atoms: P_8  and  O_11 
DOCKED: REMARK   10  A    between atoms: O_12  and  P_13 
DOCKED: REMARK   11  A    between atoms: P_13  and  O_15 
DOCKED: REMARK   12  A    between atoms: P_13  and  O_16 
DOCKED: REMARK   13  A    between atoms: O_17  and  P_18 
DOCKED: REMARK   14  A    between atoms: P_18  and  O_20 
DOCKED: REMARK   15  A    between atoms: P_18  and  O_21 
DOCKED: REMARK   16  A    between atoms: O_22  and  P_23 
DOCKED: REMARK   17  A    between atoms: P_23  and  O_25 
DOCKED: REMARK   18  A    between atoms: P_23  and  O_26 
DOCKED: REMARK   19  A    between atoms: O_27  and  P_28 
DOCKED: REMARK   20  A    between atoms: P_28  and  O_30 
DOCKED: REMARK   21  A    between atoms: P_28  and  O_31 
DOCKED: REMARK   22  A    between atoms: O_32  and  P_33 
DOCKED: REMARK   23  A    between atoms: P_33  and  O_35 
DOCKED: REMARK   24  A    between atoms: P_33  and  O_36 
DOCKED: USER                              x       y       z     vdW  Elec       q    Type
DOCKED: USER                           _______ _______ _______ _____ _____    ______ ____
DOCKED: ROOT
DOCKED: ATOM      1  C   UNL d   1      -2.983  24.222  15.468 -0.01 -0.01    +0.194 C 
DOCKED: ATOM      2  C   UNL d   1      -1.940  24.654  14.436 -0.02 -0.02    +0.194 C 
DOCKED: ATOM      3  C   UNL d   1      -0.551  24.801  15.060 -0.05 -0.02    +0.194 C 
DOCKED: ATOM      4  C   UNL d   1      -0.111  23.567  15.844 -0.06 -0.01    +0.194 C 
DOCKED: ATOM      5  C   UNL d   1      -1.166  23.033  16.805 -0.02 -0.01    +0.194 C 
DOCKED: ATOM      6  C   UNL d   1      -2.568  22.944  16.198 -0.01 -0.01    +0.194 C 
DOCKED: ENDROOT
DOCKED: BRANCH   1   7
DOCKED: ATOM      7  O   UNL d   1      -4.204  23.942  14.779 -0.00 +0.02    -0.278 OA
DOCKED: BRANCH   7   8
DOCKED: ATOM      8  P   UNL d   1      -5.228  25.143  14.530 +0.00 -0.03    +0.473 P 
DOCKED: ATOM      9  O   UNL d   1      -5.761  25.783  15.764 +0.00 +0.01    -0.228 OA
DOCKED: BRANCH   8  10
DOCKED: ATOM     10  O   UNL d   1      -4.420  26.153  13.597 -0.00 +0.02    -0.303 OA
DOCKED: ATOM     11  H   UNL d   1      -3.748  25.663  13.089 +0.01 -0.02    +0.222 HD
DOCKED: ENDBRANCH   8  10
DOCKED: BRANCH   8  12
DOCKED: ATOM     12  O   UNL d   1      -6.313  24.559  13.527 +0.00 +0.02    -0.303 OA
DOCKED: ATOM     13  H   UNL d   1      -5.928  23.957  12.850 +0.00 -0.01    +0.222 HD
DOCKED: ENDBRANCH   8  12
DOCKED: ENDBRANCH   7   8
DOCKED: ENDBRANCH   1   7
DOCKED: BRANCH   2  14
DOCKED: ATOM     14  O   UNL d   1      -1.872  23.667  13.399 -0.04 +0.04    -0.278 OA
DOCKED: BRANCH  14  15
DOCKED: ATOM     15  P   UNL d   1      -2.392  24.112  11.951 -0.02 -0.11    +0.473 P 
DOCKED: ATOM     16  O   UNL d   1      -1.690  23.515  10.772 -0.14 +0.10    -0.228 OA
DOCKED: BRANCH  15  17
DOCKED: ATOM     17  O   UNL d   1      -3.949  23.776  11.978 -0.00 +0.04    -0.303 OA
DOCKED: ATOM     18  H   UNL d   1      -4.416  24.325  12.638 +0.01 -0.02    +0.222 HD
DOCKED: ENDBRANCH  15  17
DOCKED: BRANCH  15  19
DOCKED: ATOM     19  O   UNL d   1      -2.407  25.702  12.007 -0.01 +0.06    -0.303 OA
DOCKED: ATOM     20  H   UNL d   1      -1.554  26.080  11.727 +0.05 -0.05    +0.222 HD
DOCKED: ENDBRANCH  15  19
DOCKED: ENDBRANCH  14  15
DOCKED: ENDBRANCH   2  14
DOCKED: BRANCH   6  21
DOCKED: ATOM     21  O   UNL d   1      -3.476  22.768  17.283 -0.00 +0.01    -0.278 OA
DOCKED: BRANCH  21  22
DOCKED: ATOM     22  P   UNL d   1      -3.326  23.664  18.594 -0.00 -0.01    +0.473 P 
DOCKED: ATOM     23  O   UNL d   1      -2.876  25.077  18.435 -0.00 +0.01    -0.228 OA
DOCKED: BRANCH  22  24
DOCKED: ATOM     24  O   UNL d   1      -4.756  23.491  19.271 +0.00 +0.01    -0.303 OA
DOCKED: ATOM     25  H   UNL d   1      -5.417  23.991  18.727 +0.00 -0.00    +0.222 HD
DOCKED: ENDBRANCH  22  24
DOCKED: BRANCH  22  26
DOCKED: ATOM     26  O   UNL d   1      -2.407  22.733  19.521 -0.00 +0.01    -0.303 OA
DOCKED: ATOM     27  H   UNL d   1      -1.620  22.450  19.012 +0.00 -0.01    +0.222 HD
DOCKED: ENDBRANCH  22  26
DOCKED: ENDBRANCH  21  22
DOCKED: ENDBRANCH   6  21
DOCKED: BRANCH   3  28
DOCKED: ATOM     28  O   UNL d   1       0.386  24.926  13.998 -0.08 +0.04    -0.278 OA
DOCKED: BRANCH  28  29
DOCKED: ATOM     29  P   UNL d   1       0.495  26.288  13.179 -0.11 -0.09    +0.473 P 
DOCKED: ATOM     30  O   UNL d   1       1.731  27.078  13.412 -0.23 +0.03    -0.228 OA
DOCKED: BRANCH  29  31
DOCKED: ATOM     31  O   UNL d   1       0.251  25.742  11.695 -0.22 +0.11    -0.303 OA
DOCKED: ATOM     32  H   UNL d   1      -0.364  24.974  11.740 +0.09 -0.08    +0.222 HD
DOCKED: ENDBRANCH  29  31
DOCKED: BRANCH  29  33
DOCKED: ATOM     33  O   UNL d   1      -0.888  26.997  13.524 -0.02 +0.03    -0.303 OA
DOCKED: ATOM     34  H   UNL d   1      -1.320  27.286  12.683 +0.05 -0.03    +0.222 HD
DOCKED: ENDBRANCH  29  33
DOCKED: ENDBRANCH  28  29
DOCKED: ENDBRANCH   3  28
DOCKED: BRANCH   5  35
DOCKED: ATOM     35  O   UNL d   1      -0.762  21.702  17.123 -0.01 +0.01    -0.278 OA
DOCKED: BRANCH  35  36
DOCKED: ATOM     36  P   UNL d   1       0.258  21.436  18.320 -0.00 -0.01    +0.473 P 
DOCKED: ATOM     37  O   UNL d   1       1.520  20.726  17.946 -0.03 +0.01    -0.228 OA
DOCKED: BRANCH  36  38
DOCKED: ATOM     38  O   UNL d   1       0.479  22.905  18.893 -0.01 +0.01    -0.303 OA
DOCKED: ATOM     39  H   UNL d   1       1.054  23.408  18.276 +0.03 -0.01    +0.222 HD
DOCKED: ENDBRANCH  36  38
DOCKED: BRANCH  36  40
DOCKED: ATOM     40  O   UNL d   1      -0.668  20.737  19.407 -0.00 +0.00    -0.303 OA
DOCKED: ATOM     41  H   UNL d   1      -0.878  21.343  20.152 +0.00 -0.00    +0.222 HD
DOCKED: ENDBRANCH  36  40
DOCKED: ENDBRANCH  35  36
DOCKED: ENDBRANCH   5  35
DOCKED: BRANCH   4  42
DOCKED: ATOM     42  O   UNL d   1       1.018  23.957  16.634 -0.05 +0.02    -0.278 OA
DOCKED: BRANCH  42  43
DOCKED: ATOM     43  P   UNL d   1       2.450  23.348  16.287 -0.08 -0.03    +0.473 P 
DOCKED: ATOM     44  O   UNL d   1       3.296  24.092  15.313 -0.29 +0.02    -0.228 OA
DOCKED: BRANCH  43  45
DOCKED: ATOM     45  O   UNL d   1       3.112  23.172  17.723 -0.09 +0.00    -0.303 OA
DOCKED: ATOM     46  H   UNL d   1       2.591  22.565  18.286 +0.05 +0.00    +0.222 HD
DOCKED: ENDBRANCH  43  45
DOCKED: BRANCH  43  47
DOCKED: ATOM     47  O   UNL d   1       2.117  21.830  15.894 -0.14 +0.02    -0.303 OA
DOCKED: ATOM     48  H   UNL d   1       1.153  21.678  15.983 +0.05 -0.02    +0.222 HD
DOCKED: ENDBRANCH  43  47
DOCKED: ENDBRANCH  42  43
DOCKED: ENDBRANCH   4  42
DOCKED: TORSDOF 24
DOCKED: TER
DOCKED: ENDMDL
________________________________________________________________________________


	BEGINNING GENETIC ALGORITHM DOCKING 26 of 100
Run: 26 Seed: 999612058 453843954 [ Run 26 of 100 GA/GALS ]
Beginning LAMARCKIAN GENETIC ALGORITHM (LGA), with a maximum of 25000000 energy evaluations.

Final-Value: -17.046


	FINAL GENETIC ALGORITHM DOCKED STATE
	_______________________________________________


Detailed state:  trans 18.907 47.424 -5.695 quatxyzw -0.838107 0.171883 0.487775 -0.173517 center 0.035 0.082 -0.065 ntor 24 149.0107 150.1240 36.7300 -25.8767 94.3060 151.7309 75.9209 -79.5487 0.6236 139.6064 6.8975 -133.2865 63.5932 163.5351 -119.7526 -117.8711 -4.8962 -18.9370 66.4181 4.6144 -64.5426 5.8360 123.4943 173.2613
State:	 18.907  47.424  -5.695  -0.851  0.175  0.495 -160.015    149.01  150.12   36.73  -25.88   94.31  151.73   75.92  -79.55    0.62  139.61    6.90 -133.29   63.59  163.54 -119.75 -117.87   -4.90  -18.94   66.42    4.61  -64.54    5.84  123.49  173.26

DOCKED: MODEL       26
DOCKED: USER    Run = 26
DOCKED: USER    DPF = D:/Protein_go_brrr/autodock/final/6BB5/IHP/dock.dpf
DOCKED: USER  
DOCKED: USER    Estimated Free Energy of Binding    =   +2.62 kcal/mol  [=(1)+(2)+(3)-(4)]
DOCKED: USER    
DOCKED: USER    (1) Final Intermolecular Energy     =   -4.54 kcal/mol
DOCKED: USER        vdW + Hbond + desolv Energy     =   -4.41 kcal/mol
DOCKED: USER        Electrostatic Energy            =   -0.13 kcal/mol
DOCKED: USER    (2) Final Total Internal Energy     =  -12.50 kcal/mol
DOCKED: USER    (3) Torsional Free Energy           =   +7.16 kcal/mol
DOCKED: USER    (4) Unbound System's Energy  [=(2)] =  -12.50 kcal/mol
DOCKED: USER    
DOCKED: USER    
DOCKED: USER    NEWDPF move IHP_ideal_opt.pdbqt
DOCKED: USER    NEWDPF about 0.035000 0.082000 -0.065000
DOCKED: USER    NEWDPF tran0 18.907098 47.424188 -5.694571
DOCKED: USER    NEWDPF quaternion0 -0.838107 0.171883 0.487775 -0.173517
DOCKED: USER    NEWDPF axisangle0 -0.851016 0.174530 0.495288 -160.015306
DOCKED: USER    NEWDPF quat0 -0.851016 0.174530 0.495288 -160.015306
DOCKED: USER    NEWDPF dihe0 149.01 150.12 36.73 -25.88 94.31 151.73 75.92 -79.55 0.62 139.61 6.90 -133.29 63.59 163.54 -119.75 -117.87 -4.90 -18.94 66.42 4.61 -64.54 5.84 123.49 173.26 
DOCKED: USER  keepresnum = 1 
DOCKED: USER  
DOCKED: REMARK  24 active torsions:
DOCKED: REMARK  status: ('A' for Active; 'I' for Inactive)
DOCKED: REMARK    1  A    between atoms: C_1  and  O_7 
DOCKED: REMARK    2  A    between atoms: C_2  and  O_12 
DOCKED: REMARK    3  A    between atoms: C_3  and  O_17 
DOCKED: REMARK    4  A    between atoms: C_4  and  O_22 
DOCKED: REMARK    5  A    between atoms: C_5  and  O_27 
DOCKED: REMARK    6  A    between atoms: C_6  and  O_32 
DOCKED: REMARK    7  A    between atoms: O_7  and  P_8 
DOCKED: REMARK    8  A    between atoms: P_8  and  O_10 
DOCKED: REMARK    9  A    between atoms: P_8  and  O_11 
DOCKED: REMARK   10  A    between atoms: O_12  and  P_13 
DOCKED: REMARK   11  A    between atoms: P_13  and  O_15 
DOCKED: REMARK   12  A    between atoms: P_13  and  O_16 
DOCKED: REMARK   13  A    between atoms: O_17  and  P_18 
DOCKED: REMARK   14  A    between atoms: P_18  and  O_20 
DOCKED: REMARK   15  A    between atoms: P_18  and  O_21 
DOCKED: REMARK   16  A    between atoms: O_22  and  P_23 
DOCKED: REMARK   17  A    between atoms: P_23  and  O_25 
DOCKED: REMARK   18  A    between atoms: P_23  and  O_26 
DOCKED: REMARK   19  A    between atoms: O_27  and  P_28 
DOCKED: REMARK   20  A    between atoms: P_28  and  O_30 
DOCKED: REMARK   21  A    between atoms: P_28  and  O_31 
DOCKED: REMARK   22  A    between atoms: O_32  and  P_33 
DOCKED: REMARK   23  A    between atoms: P_33  and  O_35 
DOCKED: REMARK   24  A    between atoms: P_33  and  O_36 
DOCKED: USER                              x       y       z     vdW  Elec       q    Type
DOCKED: USER                           _______ _______ _______ _____ _____    ______ ____
DOCKED: ROOT
DOCKED: ATOM      1  C   UNL d   1      19.296  48.420  -7.051 -0.02 -0.01    +0.194 C 
DOCKED: ATOM      2  C   UNL d   1      19.363  49.107  -5.686 -0.03 -0.02    +0.194 C 
DOCKED: ATOM      3  C   UNL d   1      18.175  48.727  -4.801 -0.11 -0.03    +0.194 C 
DOCKED: ATOM      4  C   UNL d   1      17.975  47.218  -4.679 -0.21 -0.04    +0.194 C 
DOCKED: ATOM      5  C   UNL d   1      18.016  46.477  -6.009 -0.20 -0.02    +0.194 C 
DOCKED: ATOM      6  C   UNL d   1      19.170  46.902  -6.920 -0.06 -0.01    +0.194 C 
DOCKED: ENDROOT
DOCKED: BRANCH   1   7
DOCKED: ATOM      7  O   UNL d   1      20.517  48.687  -7.745 -0.00 +0.00    -0.278 OA
DOCKED: BRANCH   7   8
DOCKED: ATOM      8  P   UNL d   1      20.949  50.209  -7.964 +0.00 -0.01    +0.473 P 
DOCKED: ATOM      9  O   UNL d   1      22.199  50.617  -7.267 -0.00 +0.00    -0.228 OA
DOCKED: BRANCH   8  10
DOCKED: ATOM     10  O   UNL d   1      21.035  50.363  -9.550 +0.00 +0.00    -0.303 OA
DOCKED: ATOM     11  H   UNL d   1      20.948  49.486  -9.968 +0.00 -0.00    +0.222 HD
DOCKED: ENDBRANCH   8  10
DOCKED: BRANCH   8  12
DOCKED: ATOM     12  O   UNL d   1      19.652  51.060  -7.618 -0.00 +0.01    -0.303 OA
DOCKED: ATOM     13  H   UNL d   1      19.709  51.511  -6.746 +0.00 -0.01    +0.222 HD
DOCKED: ENDBRANCH   8  12
DOCKED: ENDBRANCH   7   8
DOCKED: ENDBRANCH   1   7
DOCKED: BRANCH   2  14
DOCKED: ATOM     14  O   UNL d   1      20.571  48.712  -5.023 -0.02 +0.02    -0.278 OA
DOCKED: BRANCH  14  15
DOCKED: ATOM     15  P   UNL d   1      21.398  49.872  -4.291 +0.00 -0.03    +0.473 P 
DOCKED: ATOM     16  O   UNL d   1      22.889  49.800  -4.392 -0.01 +0.00    -0.228 OA
DOCKED: BRANCH  15  17
DOCKED: ATOM     17  O   UNL d   1      20.801  51.217  -4.901 -0.00 +0.02    -0.303 OA
DOCKED: ATOM     18  H   UNL d   1      20.911  51.242  -5.871 +0.01 -0.01    +0.222 HD
DOCKED: ENDBRANCH  15  17
DOCKED: BRANCH  15  19
DOCKED: ATOM     19  O   UNL d   1      20.812  49.904  -2.813 -0.04 +0.04    -0.303 OA
DOCKED: ATOM     20  H   UNL d   1      20.016  50.464  -2.752 +0.05 -0.03    +0.222 HD
DOCKED: ENDBRANCH  15  19
DOCKED: ENDBRANCH  14  15
DOCKED: ENDBRANCH   2  14
DOCKED: BRANCH   6  21
DOCKED: ATOM     21  O   UNL d   1      18.878  46.392  -8.219 -0.04 -0.00    -0.278 OA
DOCKED: BRANCH  21  22
DOCKED: ATOM     22  P   UNL d   1      20.015  46.381  -9.339 -0.00 +0.02    +0.473 P 
DOCKED: ATOM     23  O   UNL d   1      20.153  47.580 -10.215 -0.00 -0.00    -0.228 OA
DOCKED: BRANCH  22  24
DOCKED: ATOM     24  O   UNL d   1      21.310  46.026  -8.484 -0.01 -0.01    -0.303 OA
DOCKED: ATOM     25  H   UNL d   1      21.025  45.491  -7.700 +0.05 +0.01    +0.222 HD
DOCKED: ENDBRANCH  22  24
DOCKED: BRANCH  22  26
DOCKED: ATOM     26  O   UNL d   1      19.722  44.994 -10.087 -0.04 -0.03    -0.303 OA
DOCKED: ATOM     27  H   UNL d   1      19.225  44.403  -9.485 +0.05 +0.04    +0.222 HD
DOCKED: ENDBRANCH  22  26
DOCKED: ENDBRANCH  21  22
DOCKED: ENDBRANCH   6  21
DOCKED: BRANCH   3  28
DOCKED: ATOM     28  O   UNL d   1      18.460  49.178  -3.483 -0.11 +0.08    -0.278 OA
DOCKED: BRANCH  28  29
DOCKED: ATOM     29  P   UNL d   1      17.549  50.291  -2.799 -0.18 -0.13    +0.473 P 
DOCKED: ATOM     30  O   UNL d   1      18.265  51.258  -1.929 -0.26 +0.05    -0.228 OA
DOCKED: BRANCH  29  31
DOCKED: ATOM     31  O   UNL d   1      16.813  50.882  -4.091 -0.07 +0.05    -0.303 OA
DOCKED: ATOM     32  H   UNL d   1      15.841  50.870  -3.932 +0.09 -0.04    +0.222 HD
DOCKED: ENDBRANCH  29  31
DOCKED: BRANCH  29  33
DOCKED: ATOM     33  O   UNL d   1      16.409  49.415  -2.115 -0.16 +0.11    -0.303 OA
DOCKED: ATOM     34  H   UNL d   1      16.377  48.529  -2.554 -0.24 -0.10    +0.222 HD
DOCKED: ENDBRANCH  29  33
DOCKED: ENDBRANCH  28  29
DOCKED: ENDBRANCH   3  28
DOCKED: BRANCH   5  35
DOCKED: ATOM     35  O   UNL d   1      18.224  45.104  -5.681 -0.29 +0.01    -0.278 OA
DOCKED: BRANCH  35  36
DOCKED: ATOM     36  P   UNL d   1      19.646  44.425  -5.925 -0.25 +0.02    +0.473 P 
DOCKED: ATOM     37  O   UNL d   1      20.832  45.279  -5.603 -0.15 -0.00    -0.228 OA
DOCKED: BRANCH  36  38
DOCKED: ATOM     38  O   UNL d   1      19.532  43.104  -5.044 -0.40 -0.02    -0.303 OA
DOCKED: ATOM     39  H   UNL d   1      19.530  43.351  -4.094 -0.32 -0.03    +0.222 HD
DOCKED: ENDBRANCH  36  38
DOCKED: BRANCH  36  40
DOCKED: ATOM     40  O   UNL d   1      19.520  43.900  -7.421 -0.17 -0.05    -0.303 OA
DOCKED: ATOM     41  H   UNL d   1      19.932  44.521  -8.061 +0.06 +0.03    +0.222 HD
DOCKED: ENDBRANCH  36  40
DOCKED: ENDBRANCH  35  36
DOCKED: ENDBRANCH   5  35
DOCKED: BRANCH   4  42
DOCKED: ATOM     42  O   UNL d   1      16.670  47.016  -4.125 -0.20 +0.06    -0.278 OA
DOCKED: BRANCH  42  43
DOCKED: ATOM     43  P   UNL d   1      15.398  47.524  -4.942 -0.24 -0.10    +0.473 P 
DOCKED: ATOM     44  O   UNL d   1      15.524  47.612  -6.423 -0.17 +0.03    -0.228 OA
DOCKED: BRANCH  43  45
DOCKED: ATOM     45  O   UNL d   1      14.249  46.543  -4.443 -0.37 +0.11    -0.303 OA
DOCKED: ATOM     46  H   UNL d   1      14.415  45.622  -4.728 -0.25 -0.15    +0.222 HD
DOCKED: ENDBRANCH  43  45
DOCKED: BRANCH  43  47
DOCKED: ATOM     47  O   UNL d   1      15.006  48.889  -4.198 -0.19 +0.07    -0.303 OA
DOCKED: ATOM     48  H   UNL d   1      15.817  49.418  -4.047 +0.11 -0.05    +0.222 HD
DOCKED: ENDBRANCH  43  47
DOCKED: ENDBRANCH  42  43
DOCKED: ENDBRANCH   4  42
DOCKED: TORSDOF 24
DOCKED: TER
DOCKED: ENDMDL
________________________________________________________________________________


	BEGINNING GENETIC ALGORITHM DOCKING 27 of 100
Run: 27 Seed: 1200708625 988128276 [ Run 27 of 100 GA/GALS ]
Beginning LAMARCKIAN GENETIC ALGORITHM (LGA), with a maximum of 25000000 energy evaluations.

Final-Value: -18.520


	FINAL GENETIC ALGORITHM DOCKED STATE
	_______________________________________________


Detailed state:  trans 23.020 51.112 4.446 quatxyzw -0.454954 -0.698512 -0.415544 0.363899 center 0.035 0.082 -0.065 ntor 24 26.4738 40.6290 -170.7076 120.5005 7.7257 159.2005 -86.0238 138.3700 93.0471 -49.9861 26.3258 -148.1670 159.1489 60.3383 180.0000 149.8686 -124.2228 141.3599 49.5012 11.2838 -21.6166 -2.8528 -8.5392 -8.6156
State:	 23.020  51.112   4.446  -0.488 -0.750 -0.446 137.320     26.47   40.63 -170.71  120.50    7.73  159.20  -86.02  138.37   93.05  -49.99   26.33 -148.17  159.15   60.34  180.00  149.87 -124.22  141.36   49.50   11.28  -21.62   -2.85   -8.54   -8.62

DOCKED: MODEL       27
DOCKED: USER    Run = 27
DOCKED: USER    DPF = D:/Protein_go_brrr/autodock/final/6BB5/IHP/dock.dpf
DOCKED: USER  
DOCKED: USER    Estimated Free Energy of Binding    =   +1.97 kcal/mol  [=(1)+(2)+(3)-(4)]
DOCKED: USER    
DOCKED: USER    (1) Final Intermolecular Energy     =   -5.19 kcal/mol
DOCKED: USER        vdW + Hbond + desolv Energy     =   -5.12 kcal/mol
DOCKED: USER        Electrostatic Energy            =   -0.07 kcal/mol
DOCKED: USER    (2) Final Total Internal Energy     =  -13.33 kcal/mol
DOCKED: USER    (3) Torsional Free Energy           =   +7.16 kcal/mol
DOCKED: USER    (4) Unbound System's Energy  [=(2)] =  -13.33 kcal/mol
DOCKED: USER    
DOCKED: USER    
DOCKED: USER    NEWDPF move IHP_ideal_opt.pdbqt
DOCKED: USER    NEWDPF about 0.035000 0.082000 -0.065000
DOCKED: USER    NEWDPF tran0 23.019847 51.112066 4.446491
DOCKED: USER    NEWDPF quaternion0 -0.454954 -0.698512 -0.415544 0.363899
DOCKED: USER    NEWDPF axisangle0 -0.488442 -0.749928 -0.446131 137.320378
DOCKED: USER    NEWDPF quat0 -0.488442 -0.749928 -0.446131 137.320378
DOCKED: USER    NEWDPF dihe0 26.47 40.63 -170.71 120.50 7.73 159.20 -86.02 138.37 93.05 -49.99 26.33 -148.17 159.15 60.34 180.00 149.87 -124.22 141.36 49.50 11.28 -21.62 -2.85 -8.54 -8.62 
DOCKED: USER  keepresnum = 1 
DOCKED: USER  
DOCKED: REMARK  24 active torsions:
DOCKED: REMARK  status: ('A' for Active; 'I' for Inactive)
DOCKED: REMARK    1  A    between atoms: C_1  and  O_7 
DOCKED: REMARK    2  A    between atoms: C_2  and  O_12 
DOCKED: REMARK    3  A    between atoms: C_3  and  O_17 
DOCKED: REMARK    4  A    between atoms: C_4  and  O_22 
DOCKED: REMARK    5  A    between atoms: C_5  and  O_27 
DOCKED: REMARK    6  A    between atoms: C_6  and  O_32 
DOCKED: REMARK    7  A    between atoms: O_7  and  P_8 
DOCKED: REMARK    8  A    between atoms: P_8  and  O_10 
DOCKED: REMARK    9  A    between atoms: P_8  and  O_11 
DOCKED: REMARK   10  A    between atoms: O_12  and  P_13 
DOCKED: REMARK   11  A    between atoms: P_13  and  O_15 
DOCKED: REMARK   12  A    between atoms: P_13  and  O_16 
DOCKED: REMARK   13  A    between atoms: O_17  and  P_18 
DOCKED: REMARK   14  A    between atoms: P_18  and  O_20 
DOCKED: REMARK   15  A    between atoms: P_18  and  O_21 
DOCKED: REMARK   16  A    between atoms: O_22  and  P_23 
DOCKED: REMARK   17  A    between atoms: P_23  and  O_25 
DOCKED: REMARK   18  A    between atoms: P_23  and  O_26 
DOCKED: REMARK   19  A    between atoms: O_27  and  P_28 
DOCKED: REMARK   20  A    between atoms: P_28  and  O_30 
DOCKED: REMARK   21  A    between atoms: P_28  and  O_31 
DOCKED: REMARK   22  A    between atoms: O_32  and  P_33 
DOCKED: REMARK   23  A    between atoms: P_33  and  O_35 
DOCKED: REMARK   24  A    between atoms: P_33  and  O_36 
DOCKED: USER                              x       y       z     vdW  Elec       q    Type
DOCKED: USER                           _______ _______ _______ _____ _____    ______ ____
DOCKED: ROOT
DOCKED: ATOM      1  C   UNL d   1      23.023  52.271   3.165 -0.10 -0.01    +0.194 C 
DOCKED: ATOM      2  C   UNL d   1      22.829  50.815   2.739 -0.09 -0.00    +0.194 C 
DOCKED: ATOM      3  C   UNL d   1      23.778  49.875   3.485 -0.07 +0.01    +0.194 C 
DOCKED: ATOM      4  C   UNL d   1      23.723  50.044   5.001 -0.11 +0.01    +0.194 C 
DOCKED: ATOM      5  C   UNL d   1      23.798  51.493   5.467 -0.09 +0.00    +0.194 C 
DOCKED: ATOM      6  C   UNL d   1      22.894  52.444   4.679 -0.13 +0.00    +0.194 C 
DOCKED: ENDROOT
DOCKED: BRANCH   1   7
DOCKED: ATOM      7  O   UNL d   1      21.993  53.055   2.558 -0.12 +0.06    -0.278 OA
DOCKED: BRANCH   7   8
DOCKED: ATOM      8  P   UNL d   1      22.082  53.342   0.989 -0.01 -0.10    +0.473 P 
DOCKED: ATOM      9  O   UNL d   1      21.497  54.638   0.551 -0.11 +0.05    -0.228 OA
DOCKED: BRANCH   8  10
DOCKED: ATOM     10  O   UNL d   1      23.638  53.213   0.661 -0.02 +0.02    -0.303 OA
DOCKED: ATOM     11  H   UNL d   1      23.927  53.983   0.138 +0.01 -0.01    +0.222 HD
DOCKED: ENDBRANCH   8  10
DOCKED: BRANCH   8  12
DOCKED: ATOM     12  O   UNL d   1      21.487  52.042   0.297 -0.10 +0.06    -0.303 OA
DOCKED: ATOM     13  H   UNL d   1      21.265  51.330   0.939 +0.05 -0.05    +0.222 HD
DOCKED: ENDBRANCH   8  12
DOCKED: ENDBRANCH   7   8
DOCKED: ENDBRANCH   1   7
DOCKED: BRANCH   2  14
DOCKED: ATOM     14  O   UNL d   1      21.480  50.421   3.022 -0.18 +0.02    -0.278 OA
DOCKED: BRANCH  14  15
DOCKED: ATOM     15  P   UNL d   1      20.782  49.446   1.961 -0.22 -0.05    +0.473 P 
DOCKED: ATOM     16  O   UNL d   1      20.409  48.080   2.447 -0.55 +0.01    -0.228 OA
DOCKED: BRANCH  15  17
DOCKED: ATOM     17  O   UNL d   1      19.528  50.277   1.437 -0.30 +0.11    -0.303 OA
DOCKED: ATOM     18  H   UNL d   1      19.749  50.772   0.625 -0.02 -0.08    +0.222 HD
DOCKED: ENDBRANCH  15  17
DOCKED: BRANCH  15  19
DOCKED: ATOM     19  O   UNL d   1      21.743  49.484   0.694 -0.09 +0.02    -0.303 OA
DOCKED: ATOM     20  H   UNL d   1      22.638  49.163   0.911 +0.08 +0.00    +0.222 HD
DOCKED: ENDBRANCH  15  19
DOCKED: ENDBRANCH  14  15
DOCKED: ENDBRANCH   2  14
DOCKED: BRANCH   6  21
DOCKED: ATOM     21  O   UNL d   1      23.322  53.768   4.987 -0.06 +0.00    -0.278 OA
DOCKED: BRANCH  21  22
DOCKED: ATOM     22  P   UNL d   1      22.278  54.822   5.574 -0.09 -0.01    +0.473 P 
DOCKED: ATOM     23  O   UNL d   1      22.484  56.266   5.263 -0.05 +0.01    -0.228 OA
DOCKED: BRANCH  22  24
DOCKED: ATOM     24  O   UNL d   1      20.893  54.221   5.071 -0.15 -0.02    -0.303 OA
DOCKED: ATOM     25  H   UNL d   1      20.922  54.165   4.082 -0.02 -0.02    +0.222 HD
DOCKED: ENDBRANCH  22  24
DOCKED: BRANCH  22  26
DOCKED: ATOM     26  O   UNL d   1      22.262  54.433   7.129 -0.09 +0.00    -0.303 OA
DOCKED: ATOM     27  H   UNL d   1      22.677  53.554   7.245 +0.06 +0.00    +0.222 HD
DOCKED: ENDBRANCH  22  26
DOCKED: ENDBRANCH  21  22
DOCKED: ENDBRANCH   6  21
DOCKED: BRANCH   3  28
DOCKED: ATOM     28  O   UNL d   1      23.343  48.543   3.238 -0.10 -0.04    -0.278 OA
DOCKED: BRANCH  28  29
DOCKED: ATOM     29  P   UNL d   1      24.184  47.587   2.281 -0.11 +0.15    +0.473 P 
DOCKED: ATOM     30  O   UNL d   1      24.617  46.299   2.882 -0.67 -0.21    -0.228 OA
DOCKED: BRANCH  29  31
DOCKED: ATOM     31  O   UNL d   1      23.193  47.506   1.027 -0.10 -0.05    -0.303 OA
DOCKED: ATOM     32  H   UNL d   1      22.266  47.533   1.358 +0.10 +0.02    +0.222 HD
DOCKED: ENDBRANCH  29  31
DOCKED: BRANCH  29  33
DOCKED: ATOM     33  O   UNL d   1      25.332  48.560   1.761 -0.04 -0.07    -0.303 OA
DOCKED: ATOM     34  H   UNL d   1      25.745  48.167   0.954 +0.04 +0.05    +0.222 HD
DOCKED: ENDBRANCH  29  33
DOCKED: ENDBRANCH  28  29
DOCKED: ENDBRANCH   3  28
DOCKED: BRANCH   5  35
DOCKED: ATOM     35  O   UNL d   1      23.332  51.490   6.815 -0.12 -0.01    -0.278 OA
DOCKED: BRANCH  35  36
DOCKED: ATOM     36  P   UNL d   1      24.264  52.034   7.989 -0.08 +0.00    +0.473 P 
DOCKED: ATOM     37  O   UNL d   1      25.310  51.082   8.476 -0.29 +0.02    -0.228 OA
DOCKED: BRANCH  36  38
DOCKED: ATOM     38  O   UNL d   1      24.845  53.373   7.352 -0.05 +0.00    -0.303 OA
DOCKED: ATOM     39  H   UNL d   1      24.237  53.682   6.645 +0.06 -0.00    +0.222 HD
DOCKED: ENDBRANCH  36  38
DOCKED: BRANCH  36  40
DOCKED: ATOM     40  O   UNL d   1      23.202  52.547   9.056 -0.11 -0.01    -0.303 OA
DOCKED: ATOM     41  H   UNL d   1      22.987  53.498   8.927 +0.07 -0.00    +0.222 HD
DOCKED: ENDBRANCH  36  40
DOCKED: ENDBRANCH  35  36
DOCKED: ENDBRANCH   5  35
DOCKED: BRANCH   4  42
DOCKED: ATOM     42  O   UNL d   1      24.868  49.371   5.535 -0.09 -0.02    -0.278 OA
DOCKED: BRANCH  42  43
DOCKED: ATOM     43  P   UNL d   1      24.648  48.163   6.554 -0.16 +0.09    +0.473 P 
DOCKED: ATOM     44  O   UNL d   1      25.855  47.592   7.214 -0.57 -0.02    -0.228 OA
DOCKED: BRANCH  43  45
DOCKED: ATOM     45  O   UNL d   1      23.571  48.754   7.566 -0.29 -0.03    -0.303 OA
DOCKED: ATOM     46  H   UNL d   1      23.810  49.656   7.857 +0.13 +0.01    +0.222 HD
DOCKED: ENDBRANCH  43  45
DOCKED: BRANCH  43  47
DOCKED: ATOM     47  O   UNL d   1      23.765  47.127   5.708 -0.23 -0.13    -0.303 OA
DOCKED: ATOM     48  H   UNL d   1      23.994  47.208   4.759 +0.09 +0.11    +0.222 HD
DOCKED: ENDBRANCH  43  47
DOCKED: ENDBRANCH  42  43
DOCKED: ENDBRANCH   4  42
DOCKED: TORSDOF 24
DOCKED: TER
DOCKED: ENDMDL
________________________________________________________________________________


	BEGINNING GENETIC ALGORITHM DOCKING 28 of 100
Run: 28 Seed: 1599034225 1743761493 [ Run 28 of 100 GA/GALS ]
Beginning LAMARCKIAN GENETIC ALGORITHM (LGA), with a maximum of 25000000 energy evaluations.

Final-Value: -18.321


	FINAL GENETIC ALGORITHM DOCKED STATE
	_______________________________________________


Detailed state:  trans 41.720 48.094 3.236 quatxyzw -0.705953 -0.298102 0.534616 0.356302 center 0.035 0.082 -0.065 ntor 24 144.4416 107.5272 81.4546 96.9710 51.3212 -144.7845 -104.3613 -2.6656 90.2472 -18.2485 -145.5803 -179.9176 -84.5392 104.7100 -59.6334 167.8309 172.6820 160.3864 -142.7638 -8.6712 -174.9112 16.2635 25.1637 179.5612
State:	 41.720  48.094   3.236  -0.756 -0.319  0.572 138.253    144.44  107.53   81.45   96.97   51.32 -144.78 -104.36   -2.67   90.25  -18.25 -145.58 -179.92  -84.54  104.71  -59.63  167.83  172.68  160.39 -142.76   -8.67 -174.91   16.26   25.16  179.56

DOCKED: MODEL       28
DOCKED: USER    Run = 28
DOCKED: USER    DPF = D:/Protein_go_brrr/autodock/final/6BB5/IHP/dock.dpf
DOCKED: USER  
DOCKED: USER    Estimated Free Energy of Binding    =   +2.91 kcal/mol  [=(1)+(2)+(3)-(4)]
DOCKED: USER    
DOCKED: USER    (1) Final Intermolecular Energy     =   -4.25 kcal/mol
DOCKED: USER        vdW + Hbond + desolv Energy     =   -4.24 kcal/mol
DOCKED: USER        Electrostatic Energy            =   -0.01 kcal/mol
DOCKED: USER    (2) Final Total Internal Energy     =  -14.07 kcal/mol
DOCKED: USER    (3) Torsional Free Energy           =   +7.16 kcal/mol
DOCKED: USER    (4) Unbound System's Energy  [=(2)] =  -14.07 kcal/mol
DOCKED: USER    
DOCKED: USER    
DOCKED: USER    NEWDPF move IHP_ideal_opt.pdbqt
DOCKED: USER    NEWDPF about 0.035000 0.082000 -0.065000
DOCKED: USER    NEWDPF tran0 41.719597 48.094197 3.235799
DOCKED: USER    NEWDPF quaternion0 -0.705953 -0.298102 0.534616 0.356302
DOCKED: USER    NEWDPF axisangle0 -0.755538 -0.319040 0.572167 138.253457
DOCKED: USER    NEWDPF quat0 -0.755538 -0.319040 0.572167 138.253457
DOCKED: USER    NEWDPF dihe0 144.44 107.53 81.45 96.97 51.32 -144.78 -104.36 -2.67 90.25 -18.25 -145.58 -179.92 -84.54 104.71 -59.63 167.83 172.68 160.39 -142.76 -8.67 -174.91 16.26 25.16 179.56 
DOCKED: USER  keepresnum = 1 
DOCKED: USER  
DOCKED: REMARK  24 active torsions:
DOCKED: REMARK  status: ('A' for Active; 'I' for Inactive)
DOCKED: REMARK    1  A    between atoms: C_1  and  O_7 
DOCKED: REMARK    2  A    between atoms: C_2  and  O_12 
DOCKED: REMARK    3  A    between atoms: C_3  and  O_17 
DOCKED: REMARK    4  A    between atoms: C_4  and  O_22 
DOCKED: REMARK    5  A    between atoms: C_5  and  O_27 
DOCKED: REMARK    6  A    between atoms: C_6  and  O_32 
DOCKED: REMARK    7  A    between atoms: O_7  and  P_8 
DOCKED: REMARK    8  A    between atoms: P_8  and  O_10 
DOCKED: REMARK    9  A    between atoms: P_8  and  O_11 
DOCKED: REMARK   10  A    between atoms: O_12  and  P_13 
DOCKED: REMARK   11  A    between atoms: P_13  and  O_15 
DOCKED: REMARK   12  A    between atoms: P_13  and  O_16 
DOCKED: REMARK   13  A    between atoms: O_17  and  P_18 
DOCKED: REMARK   14  A    between atoms: P_18  and  O_20 
DOCKED: REMARK   15  A    between atoms: P_18  and  O_21 
DOCKED: REMARK   16  A    between atoms: O_22  and  P_23 
DOCKED: REMARK   17  A    between atoms: P_23  and  O_25 
DOCKED: REMARK   18  A    between atoms: P_23  and  O_26 
DOCKED: REMARK   19  A    between atoms: O_27  and  P_28 
DOCKED: REMARK   20  A    between atoms: P_28  and  O_30 
DOCKED: REMARK   21  A    between atoms: P_28  and  O_31 
DOCKED: REMARK   22  A    between atoms: O_32  and  P_33 
DOCKED: REMARK   23  A    between atoms: P_33  and  O_35 
DOCKED: REMARK   24  A    between atoms: P_33  and  O_36 
DOCKED: USER                              x       y       z     vdW  Elec       q    Type
DOCKED: USER                           _______ _______ _______ _____ _____    ______ ____
DOCKED: ROOT
DOCKED: ATOM      1  C   UNL d   1      40.893  47.999   1.722 -0.00 +0.03    +0.194 C 
DOCKED: ATOM      2  C   UNL d   1      40.135  48.709   2.845 -0.03 +0.04    +0.194 C 
DOCKED: ATOM      3  C   UNL d   1      40.259  47.961   4.174 -0.14 +0.03    +0.194 C 
DOCKED: ATOM      4  C   UNL d   1      41.705  47.652   4.558 -0.14 -0.02    +0.194 C 
DOCKED: ATOM      5  C   UNL d   1      42.530  47.047   3.430 -0.11 -0.02    +0.194 C 
DOCKED: ATOM      6  C   UNL d   1      42.358  47.759   2.086 -0.02 +0.00    +0.194 C 
DOCKED: ENDROOT
DOCKED: BRANCH   1   7
DOCKED: ATOM      7  O   UNL d   1      40.873  48.842   0.568 +0.00 -0.03    -0.278 OA
DOCKED: BRANCH   7   8
DOCKED: ATOM      8  P   UNL d   1      42.114  49.816   0.318 +0.01 +0.02    +0.473 P 
DOCKED: ATOM      9  O   UNL d   1      42.765  50.338   1.550 -0.01 -0.00    -0.228 OA
DOCKED: BRANCH   8  10
DOCKED: ATOM     10  O   UNL d   1      43.100  48.958  -0.597 -0.00 -0.01    -0.303 OA
DOCKED: ATOM     11  H   UNL d   1      42.819  48.024  -0.594 +0.00 +0.01    +0.222 HD
DOCKED: ENDBRANCH   8  10
DOCKED: BRANCH   8  12
DOCKED: ATOM     12  O   UNL d   1      41.581  50.911  -0.702 +0.00 -0.02    -0.303 OA
DOCKED: ATOM     13  H   UNL d   1      40.840  51.447  -0.340 +0.00 +0.02    +0.222 HD
DOCKED: ENDBRANCH   8  12
DOCKED: ENDBRANCH   7   8
DOCKED: ENDBRANCH   1   7
DOCKED: BRANCH   2  14
DOCKED: ATOM     14  O   UNL d   1      40.674  50.027   3.012 -0.02 -0.03    -0.278 OA
DOCKED: BRANCH  14  15
DOCKED: ATOM     15  P   UNL d   1      39.645  51.245   2.867 +0.00 +0.11    +0.473 P 
DOCKED: ATOM     16  O   UNL d   1      40.059  52.550   3.470 -0.04 -0.05    -0.228 OA
DOCKED: BRANCH  15  17
DOCKED: ATOM     17  O   UNL d   1      39.381  51.345   1.299 +0.00 -0.06    -0.303 OA
DOCKED: ATOM     18  H   UNL d   1      40.044  50.833   0.797 +0.01 +0.03    +0.222 HD
DOCKED: ENDBRANCH  15  17
DOCKED: BRANCH  15  19
DOCKED: ATOM     19  O   UNL d   1      38.260  50.658   3.386 -0.10 -0.15    -0.303 OA
DOCKED: ATOM     20  H   UNL d   1      38.386  50.053   4.141 +0.06 +0.13    +0.222 HD
DOCKED: ENDBRANCH  15  19
DOCKED: ENDBRANCH  14  15
DOCKED: ENDBRANCH   2  14
DOCKED: BRANCH   6  21
DOCKED: ATOM     21  O   UNL d   1      42.900  46.894   1.090 -0.01 -0.00    -0.278 OA
DOCKED: BRANCH  21  22
DOCKED: ATOM     22  P   UNL d   1      42.012  45.706   0.504 +0.00 +0.03    +0.473 P 
DOCKED: ATOM     23  O   UNL d   1      40.976  45.098   1.389 -0.01 -0.03    -0.228 OA
DOCKED: BRANCH  22  24
DOCKED: ATOM     24  O   UNL d   1      41.449  46.351  -0.837 +0.00 -0.02    -0.303 OA
DOCKED: ATOM     25  H   UNL d   1      41.599  47.329  -0.796 +0.00 +0.02    +0.222 HD
DOCKED: ENDBRANCH  22  24
DOCKED: BRANCH  22  26
DOCKED: ATOM     26  O   UNL d   1      43.134  44.706  -0.055 -0.01 -0.01    -0.303 OA
DOCKED: ATOM     27  H   UNL d   1      43.875  44.665   0.583 +0.02 +0.00    +0.222 HD
DOCKED: ENDBRANCH  22  26
DOCKED: ENDBRANCH  21  22
DOCKED: ENDBRANCH   6  21
DOCKED: BRANCH   3  28
DOCKED: ATOM     28  O   UNL d   1      39.773  48.820   5.197 -0.21 -0.03    -0.278 OA
DOCKED: BRANCH  28  29
DOCKED: ATOM     29  P   UNL d   1      38.646  48.316   6.203 -0.35 +0.17    +0.473 P 
DOCKED: ATOM     30  O   UNL d   1      38.796  48.766   7.611 -0.53 +0.01    -0.228 OA
DOCKED: BRANCH  29  31
DOCKED: ATOM     31  O   UNL d   1      37.337  48.800   5.422 -0.50 -0.40    -0.303 OA
DOCKED: ATOM     32  H   UNL d   1      37.431  49.758   5.214 -0.39 +0.20    +0.222 HD
DOCKED: ENDBRANCH  29  31
DOCKED: BRANCH  29  33
DOCKED: ATOM     33  O   UNL d   1      38.648  46.744   5.946 -0.26 -0.12    -0.303 OA
DOCKED: ATOM     34  H   UNL d   1      39.560  46.395   6.099 -0.06 +0.01    +0.222 HD
DOCKED: ENDBRANCH  29  33
DOCKED: ENDBRANCH  28  29
DOCKED: ENDBRANCH   3  28
DOCKED: BRANCH   5  35
DOCKED: ATOM     35  O   UNL d   1      43.893  47.208   3.818 -0.12 +0.08    -0.278 OA
DOCKED: BRANCH  35  36
DOCKED: ATOM     36  P   UNL d   1      45.016  46.238   3.234 -0.11 -0.12    +0.473 P 
DOCKED: ATOM     37  O   UNL d   1      46.102  45.858   4.190 -0.25 +0.14    -0.228 OA
DOCKED: BRANCH  36  38
DOCKED: ATOM     38  O   UNL d   1      44.147  45.011   2.710 -0.09 +0.02    -0.303 OA
DOCKED: ATOM     39  H   UNL d   1      43.219  45.305   2.584 +0.06 -0.00    +0.222 HD
DOCKED: ENDBRANCH  36  38
DOCKED: BRANCH  36  40
DOCKED: ATOM     40  O   UNL d   1      45.456  46.990   1.903 -0.02 +0.04    -0.303 OA
DOCKED: ATOM     41  H   UNL d   1      44.703  47.101   1.281 +0.02 -0.02    +0.222 HD
DOCKED: ENDBRANCH  36  40
DOCKED: ENDBRANCH  35  36
DOCKED: ENDBRANCH   5  35
DOCKED: BRANCH   4  42
DOCKED: ATOM     42  O   UNL d   1      41.656  46.683   5.610 -0.26 +0.04    -0.278 OA
DOCKED: BRANCH  42  43
DOCKED: ATOM     43  P   UNL d   1      41.147  45.208   5.278 -0.25 +0.02    +0.473 P 
DOCKED: ATOM     44  O   UNL d   1      40.545  44.422   6.392 -0.36 -0.02    -0.228 OA
DOCKED: BRANCH  43  45
DOCKED: ATOM     45  O   UNL d   1      40.168  45.446   4.047 -0.06 -0.06    -0.303 OA
DOCKED: ATOM     46  H   UNL d   1      40.248  44.733   3.382 +0.08 +0.04    +0.222 HD
DOCKED: ENDBRANCH  43  45
DOCKED: BRANCH  43  47
DOCKED: ATOM     47  O   UNL d   1      42.413  44.536   4.562 -0.17 -0.02    -0.303 OA
DOCKED: ATOM     48  H   UNL d   1      43.138  45.192   4.505 +0.09 -0.01    +0.222 HD
DOCKED: ENDBRANCH  43  47
DOCKED: ENDBRANCH  42  43
DOCKED: ENDBRANCH   4  42
DOCKED: TORSDOF 24
DOCKED: TER
DOCKED: ENDMDL
________________________________________________________________________________


	BEGINNING GENETIC ALGORITHM DOCKING 29 of 100
Run: 29 Seed: 1585482489 1724473045 [ Run 29 of 100 GA/GALS ]
Beginning LAMARCKIAN GENETIC ALGORITHM (LGA), with a maximum of 25000000 energy evaluations.

Final-Value: -16.260


	FINAL GENETIC ALGORITHM DOCKED STATE
	_______________________________________________


Detailed state:  trans 21.177 55.112 25.352 quatxyzw -0.497030 -0.614949 0.554398 -0.259696 center 0.035 0.082 -0.065 ntor 24 38.4742 92.6928 163.1582 11.9498 91.3429 180.0000 -33.5979 1.6084 19.7611 10.7204 -43.1243 153.1871 -34.2902 172.6486 113.4310 3.7485 179.3841 84.6338 -164.0272 15.4190 -7.6736 -8.7686 -178.1301 16.9431
State:	 21.177  55.112  25.352  -0.515 -0.637  0.574 -149.896     38.47   92.69  163.16   11.95   91.34  180.00  -33.60    1.61   19.76   10.72  -43.12  153.19  -34.29  172.65  113.43    3.75  179.38   84.63 -164.03   15.42   -7.67   -8.77 -178.13   16.94

DOCKED: MODEL       29
DOCKED: USER    Run = 29
DOCKED: USER    DPF = D:/Protein_go_brrr/autodock/final/6BB5/IHP/dock.dpf
DOCKED: USER  
DOCKED: USER    Estimated Free Energy of Binding    =   +5.96 kcal/mol  [=(1)+(2)+(3)-(4)]
DOCKED: USER    
DOCKED: USER    (1) Final Intermolecular Energy     =   -1.20 kcal/mol
DOCKED: USER        vdW + Hbond + desolv Energy     =   -0.99 kcal/mol
DOCKED: USER        Electrostatic Energy            =   -0.20 kcal/mol
DOCKED: USER    (2) Final Total Internal Energy     =  -15.06 kcal/mol
DOCKED: USER    (3) Torsional Free Energy           =   +7.16 kcal/mol
DOCKED: USER    (4) Unbound System's Energy  [=(2)] =  -15.06 kcal/mol
DOCKED: USER    
DOCKED: USER    
DOCKED: USER    NEWDPF move IHP_ideal_opt.pdbqt
DOCKED: USER    NEWDPF about 0.035000 0.082000 -0.065000
DOCKED: USER    NEWDPF tran0 21.177031 55.111928 25.352461
DOCKED: USER    NEWDPF quaternion0 -0.497030 -0.614949 0.554398 -0.259696
DOCKED: USER    NEWDPF axisangle0 -0.514689 -0.636797 0.574095 -149.895897
DOCKED: USER    NEWDPF quat0 -0.514689 -0.636797 0.574095 -149.895897
DOCKED: USER    NEWDPF dihe0 38.47 92.69 163.16 11.95 91.34 180.00 -33.60 1.61 19.76 10.72 -43.12 153.19 -34.29 172.65 113.43 3.75 179.38 84.63 -164.03 15.42 -7.67 -8.77 -178.13 16.94 
DOCKED: USER  keepresnum = 1 
DOCKED: USER  
DOCKED: REMARK  24 active torsions:
DOCKED: REMARK  status: ('A' for Active; 'I' for Inactive)
DOCKED: REMARK    1  A    between atoms: C_1  and  O_7 
DOCKED: REMARK    2  A    between atoms: C_2  and  O_12 
DOCKED: REMARK    3  A    between atoms: C_3  and  O_17 
DOCKED: REMARK    4  A    between atoms: C_4  and  O_22 
DOCKED: REMARK    5  A    between atoms: C_5  and  O_27 
DOCKED: REMARK    6  A    between atoms: C_6  and  O_32 
DOCKED: REMARK    7  A    between atoms: O_7  and  P_8 
DOCKED: REMARK    8  A    between atoms: P_8  and  O_10 
DOCKED: REMARK    9  A    between atoms: P_8  and  O_11 
DOCKED: REMARK   10  A    between atoms: O_12  and  P_13 
DOCKED: REMARK   11  A    between atoms: P_13  and  O_15 
DOCKED: REMARK   12  A    between atoms: P_13  and  O_16 
DOCKED: REMARK   13  A    between atoms: O_17  and  P_18 
DOCKED: REMARK   14  A    between atoms: P_18  and  O_20 
DOCKED: REMARK   15  A    between atoms: P_18  and  O_21 
DOCKED: REMARK   16  A    between atoms: O_22  and  P_23 
DOCKED: REMARK   17  A    between atoms: P_23  and  O_25 
DOCKED: REMARK   18  A    between atoms: P_23  and  O_26 
DOCKED: REMARK   19  A    between atoms: O_27  and  P_28 
DOCKED: REMARK   20  A    between atoms: P_28  and  O_30 
DOCKED: REMARK   21  A    between atoms: P_28  and  O_31 
DOCKED: REMARK   22  A    between atoms: O_32  and  P_33 
DOCKED: REMARK   23  A    between atoms: P_33  and  O_35 
DOCKED: REMARK   24  A    between atoms: P_33  and  O_36 
DOCKED: USER                              x       y       z     vdW  Elec       q    Type
DOCKED: USER                           _______ _______ _______ _____ _____    ______ ____
DOCKED: ROOT
DOCKED: ATOM      1  C   UNL d   1      19.736  56.000  25.699 -0.00 +0.00    +0.194 C 
DOCKED: ATOM      2  C   UNL d   1      20.261  55.122  26.836 +0.00 +0.00    +0.194 C 
DOCKED: ATOM      3  C   UNL d   1      20.711  53.749  26.331 -0.00 +0.00    +0.194 C 
DOCKED: ATOM      4  C   UNL d   1      21.693  53.831  25.164 -0.00 +0.01    +0.194 C 
DOCKED: ATOM      5  C   UNL d   1      21.264  54.785  24.057 +0.00 +0.01    +0.194 C 
DOCKED: ATOM      6  C   UNL d   1      20.755  56.136  24.567 +0.00 +0.00    +0.194 C 
DOCKED: ENDROOT
DOCKED: BRANCH   1   7
DOCKED: ATOM      7  O   UNL d   1      19.501  57.311  26.219 +0.00 -0.00    -0.278 OA
DOCKED: BRANCH   7   8
DOCKED: ATOM      8  P   UNL d   1      20.763  58.235  26.546 +0.00 +0.01    +0.473 P 
DOCKED: ATOM      9  O   UNL d   1      22.039  57.809  25.910 +0.00 -0.01    -0.228 OA
DOCKED: BRANCH   8  10
DOCKED: ATOM     10  O   UNL d   1      20.297  59.695  26.102 +0.00 -0.00    -0.303 OA
DOCKED: ATOM     11  H   UNL d   1      20.889  60.028  25.402 +0.00 +0.00    +0.222 HD
DOCKED: ENDBRANCH   8  10
DOCKED: BRANCH   8  12
DOCKED: ATOM     12  O   UNL d   1      20.784  58.360  28.130 +0.00 -0.00    -0.303 OA
DOCKED: ATOM     13  H   UNL d   1      20.679  57.495  28.586 +0.00 +0.00    +0.222 HD
DOCKED: ENDBRANCH   8  12
DOCKED: ENDBRANCH   7   8
DOCKED: ENDBRANCH   1   7
DOCKED: BRANCH   2  14
DOCKED: ATOM     14  O   UNL d   1      21.380  55.772  27.450 +0.00 -0.01    -0.278 OA
DOCKED: BRANCH  14  15
DOCKED: ATOM     15  P   UNL d   1      21.570  55.537  29.023 +0.00 +0.01    +0.473 P 
DOCKED: ATOM     16  O   UNL d   1      21.810  56.755  29.860 +0.00 -0.00    -0.228 OA
DOCKED: BRANCH  15  17
DOCKED: ATOM     17  O   UNL d   1      20.262  54.738  29.456 +0.00 -0.00    -0.303 OA
DOCKED: ATOM     18  H   UNL d   1      20.250  53.844  29.065 +0.00 -0.00    +0.222 HD
DOCKED: ENDBRANCH  15  17
DOCKED: BRANCH  15  19
DOCKED: ATOM     19  O   UNL d   1      22.683  54.405  29.124 +0.00 -0.01    -0.303 OA
DOCKED: ATOM     20  H   UNL d   1      22.493  53.659  28.526 +0.01 +0.01    +0.222 HD
DOCKED: ENDBRANCH  15  19
DOCKED: ENDBRANCH  14  15
DOCKED: ENDBRANCH   2  14
DOCKED: BRANCH   6  21
DOCKED: ATOM     21  O   UNL d   1      20.087  56.763  23.475 +0.00 -0.00    -0.278 OA
DOCKED: BRANCH  21  22
DOCKED: ATOM     22  P   UNL d   1      20.735  58.043  22.779 +0.00 +0.00    +0.473 P 
DOCKED: ATOM     23  O   UNL d   1      20.584  58.196  21.303 +0.00 +0.00    -0.228 OA
DOCKED: BRANCH  22  24
DOCKED: ATOM     24  O   UNL d   1      20.115  59.230  23.639 +0.00 +0.00    -0.303 OA
DOCKED: ATOM     25  H   UNL d   1      19.884  58.873  24.534 +0.00 +0.00    +0.222 HD
DOCKED: ENDBRANCH  22  24
DOCKED: BRANCH  22  26
DOCKED: ATOM     26  O   UNL d   1      22.240  57.986  23.330 +0.00 -0.01    -0.303 OA
DOCKED: ATOM     27  H   UNL d   1      22.364  57.160  23.840 +0.00 +0.01    +0.222 HD
DOCKED: ENDBRANCH  22  26
DOCKED: ENDBRANCH  21  22
DOCKED: ENDBRANCH   6  21
DOCKED: BRANCH   3  28
DOCKED: ATOM     28  O   UNL d   1      21.428  53.119  27.384 -0.00 -0.00    -0.278 OA
DOCKED: BRANCH  28  29
DOCKED: ATOM     29  P   UNL d   1      20.732  51.994  28.270 +0.01 -0.01    +0.473 P 
DOCKED: ATOM     30  O   UNL d   1      19.247  52.020  28.289 -0.00 +0.01    -0.228 OA
DOCKED: BRANCH  29  31
DOCKED: ATOM     31  O   UNL d   1      21.428  50.688  27.661 -0.01 +0.02    -0.303 OA
DOCKED: ATOM     32  H   UNL d   1      22.239  50.963  27.174 +0.03 -0.01    +0.222 HD
DOCKED: ENDBRANCH  29  31
DOCKED: BRANCH  29  33
DOCKED: ATOM     33  O   UNL d   1      21.472  52.165  29.670 +0.00 +0.00    -0.303 OA
DOCKED: ATOM     34  H   UNL d   1      21.303  53.077  30.013 +0.00 +0.00    +0.222 HD
DOCKED: ENDBRANCH  29  33
DOCKED: ENDBRANCH  28  29
DOCKED: ENDBRANCH   3  28
DOCKED: BRANCH   5  35
DOCKED: ATOM     35  O   UNL d   1      22.439  55.041  23.290 +0.00 -0.02    -0.278 OA
DOCKED: BRANCH  35  36
DOCKED: ATOM     36  P   UNL d   1      23.808  55.419  24.017 +0.01 +0.08    +0.473 P 
DOCKED: ATOM     37  O   UNL d   1      24.576  56.544  23.400 +0.00 -0.03    -0.228 OA
DOCKED: BRANCH  36  38
DOCKED: ATOM     38  O   UNL d   1      23.319  55.700  25.507 +0.00 -0.03    -0.303 OA
DOCKED: ATOM     39  H   UNL d   1      22.561  56.322  25.484 +0.00 +0.01    +0.222 HD
DOCKED: ENDBRANCH  36  38
DOCKED: BRANCH  36  40
DOCKED: ATOM     40  O   UNL d   1      24.541  54.011  24.113 -0.12 -0.15    -0.303 OA
DOCKED: ATOM     41  H   UNL d   1      23.899  53.271  24.198 +0.03 +0.09    +0.222 HD
DOCKED: ENDBRANCH  36  40
DOCKED: ENDBRANCH  35  36
DOCKED: ENDBRANCH   5  35
DOCKED: BRANCH   4  42
DOCKED: ATOM     42  O   UNL d   1      21.761  52.522  24.588 -0.04 +0.00    -0.278 OA
DOCKED: BRANCH  42  43
DOCKED: ATOM     43  P   UNL d   1      22.912  51.527  25.069 -0.09 -0.02    +0.473 P 
DOCKED: ATOM     44  O   UNL d   1      22.508  50.149  25.464 -0.15 +0.09    -0.228 OA
DOCKED: BRANCH  43  45
DOCKED: ATOM     45  O   UNL d   1      23.947  51.581  23.860 -0.17 -0.08    -0.303 OA
DOCKED: ATOM     46  H   UNL d   1      24.030  50.711  23.421 -0.48 -0.14    +0.222 HD
DOCKED: ENDBRANCH  43  45
DOCKED: BRANCH  43  47
DOCKED: ATOM     47  O   UNL d   1      23.681  52.372  26.193 -0.05 -0.05    -0.303 OA
DOCKED: ATOM     48  H   UNL d   1      23.586  53.328  26.000 +0.02 +0.04    +0.222 HD
DOCKED: ENDBRANCH  43  47
DOCKED: ENDBRANCH  42  43
DOCKED: ENDBRANCH   4  42
DOCKED: TORSDOF 24
DOCKED: TER
DOCKED: ENDMDL
________________________________________________________________________________


	BEGINNING GENETIC ALGORITHM DOCKING 30 of 100
Run: 30 Seed: 204408616 387468159 [ Run 30 of 100 GA/GALS ]
Beginning LAMARCKIAN GENETIC ALGORITHM (LGA), with a maximum of 25000000 energy evaluations.

Final-Value: -18.209


	FINAL GENETIC ALGORITHM DOCKED STATE
	_______________________________________________


Detailed state:  trans 37.153 19.852 2.541 quatxyzw -0.613494 -0.015534 -0.652615 0.444384 center 0.035 0.082 -0.065 ntor 24 -97.5887 20.8997 35.8814 -26.3200 12.2386 -156.0276 -28.1583 -85.0004 86.6837 7.8003 -134.3489 -171.9307 -173.0786 163.8311 172.3411 77.3149 179.2097 157.6798 55.1484 3.1461 -179.3736 -7.5755 20.8005 -177.2762
State:	 37.153  19.852   2.541  -0.685 -0.017 -0.728 127.232    -97.59   20.90   35.88  -26.32   12.24 -156.03  -28.16  -85.00   86.68    7.80 -134.35 -171.93 -173.08  163.83  172.34   77.31  179.21  157.68   55.15    3.15 -179.37   -7.58   20.80 -177.28

DOCKED: MODEL       30
DOCKED: USER    Run = 30
DOCKED: USER    DPF = D:/Protein_go_brrr/autodock/final/6BB5/IHP/dock.dpf
DOCKED: USER  
DOCKED: USER    Estimated Free Energy of Binding    =   +3.73 kcal/mol  [=(1)+(2)+(3)-(4)]
DOCKED: USER    
DOCKED: USER    (1) Final Intermolecular Energy     =   -3.43 kcal/mol
DOCKED: USER        vdW + Hbond + desolv Energy     =   -3.25 kcal/mol
DOCKED: USER        Electrostatic Energy            =   -0.18 kcal/mol
DOCKED: USER    (2) Final Total Internal Energy     =  -14.78 kcal/mol
DOCKED: USER    (3) Torsional Free Energy           =   +7.16 kcal/mol
DOCKED: USER    (4) Unbound System's Energy  [=(2)] =  -14.78 kcal/mol
DOCKED: USER    
DOCKED: USER    
DOCKED: USER    NEWDPF move IHP_ideal_opt.pdbqt
DOCKED: USER    NEWDPF about 0.035000 0.082000 -0.065000
DOCKED: USER    NEWDPF tran0 37.152813 19.851636 2.540863
DOCKED: USER    NEWDPF quaternion0 -0.613494 -0.015534 -0.652615 0.444384
DOCKED: USER    NEWDPF axisangle0 -0.684828 -0.017341 -0.728499 127.232102
DOCKED: USER    NEWDPF quat0 -0.684828 -0.017341 -0.728499 127.232102
DOCKED: USER    NEWDPF dihe0 -97.59 20.90 35.88 -26.32 12.24 -156.03 -28.16 -85.00 86.68 7.80 -134.35 -171.93 -173.08 163.83 172.34 77.31 179.21 157.68 55.15 3.15 -179.37 -7.58 20.80 -177.28 
DOCKED: USER  keepresnum = 1 
DOCKED: USER  
DOCKED: REMARK  24 active torsions:
DOCKED: REMARK  status: ('A' for Active; 'I' for Inactive)
DOCKED: REMARK    1  A    between atoms: C_1  and  O_7 
DOCKED: REMARK    2  A    between atoms: C_2  and  O_12 
DOCKED: REMARK    3  A    between atoms: C_3  and  O_17 
DOCKED: REMARK    4  A    between atoms: C_4  and  O_22 
DOCKED: REMARK    5  A    between atoms: C_5  and  O_27 
DOCKED: REMARK    6  A    between atoms: C_6  and  O_32 
DOCKED: REMARK    7  A    between atoms: O_7  and  P_8 
DOCKED: REMARK    8  A    between atoms: P_8  and  O_10 
DOCKED: REMARK    9  A    between atoms: P_8  and  O_11 
DOCKED: REMARK   10  A    between atoms: O_12  and  P_13 
DOCKED: REMARK   11  A    between atoms: P_13  and  O_15 
DOCKED: REMARK   12  A    between atoms: P_13  and  O_16 
DOCKED: REMARK   13  A    between atoms: O_17  and  P_18 
DOCKED: REMARK   14  A    between atoms: P_18  and  O_20 
DOCKED: REMARK   15  A    between atoms: P_18  and  O_21 
DOCKED: REMARK   16  A    between atoms: O_22  and  P_23 
DOCKED: REMARK   17  A    between atoms: P_23  and  O_25 
DOCKED: REMARK   18  A    between atoms: P_23  and  O_26 
DOCKED: REMARK   19  A    between atoms: O_27  and  P_28 
DOCKED: REMARK   20  A    between atoms: P_28  and  O_30 
DOCKED: REMARK   21  A    between atoms: P_28  and  O_31 
DOCKED: REMARK   22  A    between atoms: O_32  and  P_33 
DOCKED: REMARK   23  A    between atoms: P_33  and  O_35 
DOCKED: REMARK   24  A    between atoms: P_33  and  O_36 
DOCKED: USER                              x       y       z     vdW  Elec       q    Type
DOCKED: USER                           _______ _______ _______ _____ _____    ______ ____
DOCKED: ROOT
DOCKED: ATOM      1  C   UNL d   1      38.480  20.724   3.220 -0.16 -0.06    +0.194 C 
DOCKED: ATOM      2  C   UNL d   1      38.446  20.656   1.692 -0.06 -0.04    +0.194 C 
DOCKED: ATOM      3  C   UNL d   1      38.082  19.255   1.195 -0.01 -0.03    +0.194 C 
DOCKED: ATOM      4  C   UNL d   1      36.805  18.707   1.826 -0.02 -0.05    +0.194 C 
DOCKED: ATOM      5  C   UNL d   1      36.746  18.858   3.340 -0.06 -0.08    +0.194 C 
DOCKED: ATOM      6  C   UNL d   1      37.169  20.241   3.841 -0.05 -0.14    +0.194 C 
DOCKED: ENDROOT
DOCKED: BRANCH   1   7
DOCKED: ATOM      7  O   UNL d   1      38.655  22.090   3.602 -0.29 +0.10    -0.278 OA
DOCKED: BRANCH   7   8
DOCKED: ATOM      8  P   UNL d   1      40.044  22.802   3.263 -0.31 -0.07    +0.473 P 
DOCKED: ATOM      9  O   UNL d   1      40.781  23.340   4.438 -0.51 +0.03    -0.228 OA
DOCKED: BRANCH   8  10
DOCKED: ATOM     10  O   UNL d   1      40.863  21.690   2.463 -0.10 +0.01    -0.303 OA
DOCKED: ATOM     11  H   UNL d   1      40.868  21.908   1.513 +0.08 -0.00    +0.222 HD
DOCKED: ENDBRANCH   8  10
DOCKED: BRANCH   8  12
DOCKED: ATOM     12  O   UNL d   1      39.703  23.850   2.119 -0.28 +0.04    -0.303 OA
DOCKED: ATOM     13  H   UNL d   1      38.899  23.612   1.604 +0.09 -0.04    +0.222 HD
DOCKED: ENDBRANCH   8  12
DOCKED: ENDBRANCH   7   8
DOCKED: ENDBRANCH   1   7
DOCKED: BRANCH   2  14
DOCKED: ATOM     14  O   UNL d   1      37.467  21.582   1.205 -0.08 +0.10    -0.278 OA
DOCKED: BRANCH  14  15
DOCKED: ATOM     15  P   UNL d   1      37.903  22.499  -0.033 -0.03 -0.09    +0.473 P 
DOCKED: ATOM     16  O   UNL d   1      37.444  23.924  -0.009 -0.11 +0.04    -0.228 OA
DOCKED: BRANCH  15  17
DOCKED: ATOM     17  O   UNL d   1      39.490  22.363  -0.077 -0.03 +0.02    -0.303 OA
DOCKED: ATOM     18  H   UNL d   1      39.893  22.672   0.757 +0.07 -0.01    +0.222 HD
DOCKED: ENDBRANCH  15  17
DOCKED: BRANCH  15  19
DOCKED: ATOM     19  O   UNL d   1      37.475  21.663  -1.316 -0.00 +0.03    -0.303 OA
DOCKED: ATOM     20  H   UNL d   1      38.167  21.029  -1.581 +0.01 -0.02    +0.222 HD
DOCKED: ENDBRANCH  15  19
DOCKED: ENDBRANCH  14  15
DOCKED: ENDBRANCH   2  14
DOCKED: BRANCH   6  21
DOCKED: ATOM     21  O   UNL d   1      37.391  20.120   5.245 -0.22 +0.14    -0.278 OA
DOCKED: BRANCH  21  22
DOCKED: ATOM     22  P   UNL d   1      38.744  19.467   5.779 -0.16 -0.12    +0.473 P 
DOCKED: ATOM     23  O   UNL d   1      38.753  18.891   7.155 -0.20 +0.05    -0.228 OA
DOCKED: BRANCH  22  24
DOCKED: ATOM     24  O   UNL d   1      39.086  18.431   4.620 -0.03 +0.03    -0.303 OA
DOCKED: ATOM     25  H   UNL d   1      38.294  17.852   4.481 +0.04 -0.03    +0.222 HD
DOCKED: ENDBRANCH  22  24
DOCKED: BRANCH  22  26
DOCKED: ATOM     26  O   UNL d   1      39.804  20.638   5.500 -0.16 +0.11    -0.303 OA
DOCKED: ATOM     27  H   UNL d   1      39.350  21.503   5.560 -0.09 -0.11    +0.222 HD
DOCKED: ENDBRANCH  22  26
DOCKED: ENDBRANCH  21  22
DOCKED: ENDBRANCH   6  21
DOCKED: BRANCH   3  28
DOCKED: ATOM     28  O   UNL d   1      37.804  19.353  -0.196 -0.00 +0.03    -0.278 OA
DOCKED: BRANCH  28  29
DOCKED: ATOM     29  P   UNL d   1      38.878  18.866  -1.267 +0.00 -0.01    +0.473 P 
DOCKED: ATOM     30  O   UNL d   1      39.410  17.494  -1.062 +0.00 +0.00    -0.228 OA
DOCKED: BRANCH  29  31
DOCKED: ATOM     31  O   UNL d   1      38.065  19.135  -2.619 +0.00 +0.01    -0.303 OA
DOCKED: ATOM     32  H   UNL d   1      37.383  19.824  -2.443 +0.00 -0.01    +0.222 HD
DOCKED: ENDBRANCH  29  31
DOCKED: BRANCH  29  33
DOCKED: ATOM     33  O   UNL d   1      39.933  20.058  -1.248 +0.00 +0.00    -0.303 OA
DOCKED: ATOM     34  H   UNL d   1      39.478  20.886  -0.959 +0.01 -0.01    +0.222 HD
DOCKED: ENDBRANCH  29  33
DOCKED: ENDBRANCH  28  29
DOCKED: ENDBRANCH   3  28
DOCKED: BRANCH   5  35
DOCKED: ATOM     35  O   UNL d   1      35.375  18.686   3.693 -0.06 +0.17    -0.278 OA
DOCKED: BRANCH  35  36
DOCKED: ATOM     36  P   UNL d   1      34.980  18.107   5.126 -0.02 -0.18    +0.473 P 
DOCKED: ATOM     37  O   UNL d   1      33.893  17.079   5.129 -0.01 +0.04    -0.228 OA
DOCKED: BRANCH  36  38
DOCKED: ATOM     38  O   UNL d   1      36.383  17.577   5.662 -0.02 +0.05    -0.303 OA
DOCKED: ATOM     39  H   UNL d   1      37.102  17.976   5.126 +0.05 -0.05    +0.222 HD
DOCKED: ENDBRANCH  36  38
DOCKED: BRANCH  36  40
DOCKED: ATOM     40  O   UNL d   1      34.723  19.431   5.969 -0.10 +0.23    -0.303 OA
DOCKED: ATOM     41  H   UNL d   1      35.319  20.161   5.691 -0.46 -0.28    +0.222 HD
DOCKED: ENDBRANCH  36  40
DOCKED: ENDBRANCH  35  36
DOCKED: ENDBRANCH   5  35
DOCKED: BRANCH   4  42
DOCKED: ATOM     42  O   UNL d   1      36.771  17.304   1.541 -0.00 +0.03    -0.278 OA
DOCKED: BRANCH  42  43
DOCKED: ATOM     43  P   UNL d   1      37.794  16.340   2.295 +0.01 -0.02    +0.473 P 
DOCKED: ATOM     44  O   UNL d   1      38.122  15.042   1.642 +0.00 +0.00    -0.228 OA
DOCKED: BRANCH  43  45
DOCKED: ATOM     45  O   UNL d   1      39.052  17.284   2.535 +0.00 +0.01    -0.303 OA
DOCKED: ATOM     46  H   UNL d   1      39.563  17.007   3.321 +0.02 +0.00    +0.222 HD
DOCKED: ENDBRANCH  43  45
DOCKED: BRANCH  43  47
DOCKED: ATOM     47  O   UNL d   1      37.179  16.236   3.772 +0.00 +0.02    -0.303 OA
DOCKED: ATOM     48  H   UNL d   1      36.307  16.681   3.790 +0.01 -0.03    +0.222 HD
DOCKED: ENDBRANCH  43  47
DOCKED: ENDBRANCH  42  43
DOCKED: ENDBRANCH   4  42
DOCKED: TORSDOF 24
DOCKED: TER
DOCKED: ENDMDL
________________________________________________________________________________


	BEGINNING GENETIC ALGORITHM DOCKING 31 of 100
Run: 31 Seed: 42056652 1356937807 [ Run 31 of 100 GA/GALS ]
Beginning LAMARCKIAN GENETIC ALGORITHM (LGA), with a maximum of 25000000 energy evaluations.

Final-Value: -18.154


	FINAL GENETIC ALGORITHM DOCKED STATE
	_______________________________________________


Detailed state:  trans 11.111 15.131 4.175 quatxyzw 0.229189 0.720321 -0.174109 -0.631107 center 0.035 0.082 -0.065 ntor 24 145.9596 78.5236 120.4606 111.3303 -104.2448 180.0000 -142.5281 -45.3282 -113.8276 121.0979 102.5808 155.9152 128.7237 94.8563 15.9403 -120.8378 -37.7580 55.4332 41.4258 -9.3107 162.1767 -17.9741 -35.2087 -2.0747
State:	 11.111  15.131   4.175   0.295  0.929 -0.224 -101.736    145.96   78.52  120.46  111.33 -104.24  180.00 -142.53  -45.33 -113.83  121.10  102.58  155.92  128.72   94.86   15.94 -120.84  -37.76   55.43   41.43   -9.31  162.18  -17.97  -35.21   -2.07

DOCKED: MODEL       31
DOCKED: USER    Run = 31
DOCKED: USER    DPF = D:/Protein_go_brrr/autodock/final/6BB5/IHP/dock.dpf
DOCKED: USER  
DOCKED: USER    Estimated Free Energy of Binding    =   +2.19 kcal/mol  [=(1)+(2)+(3)-(4)]
DOCKED: USER    
DOCKED: USER    (1) Final Intermolecular Energy     =   -4.97 kcal/mol
DOCKED: USER        vdW + Hbond + desolv Energy     =   -4.84 kcal/mol
DOCKED: USER        Electrostatic Energy            =   -0.13 kcal/mol
DOCKED: USER    (2) Final Total Internal Energy     =  -13.18 kcal/mol
DOCKED: USER    (3) Torsional Free Energy           =   +7.16 kcal/mol
DOCKED: USER    (4) Unbound System's Energy  [=(2)] =  -13.18 kcal/mol
DOCKED: USER    
DOCKED: USER    
DOCKED: USER    NEWDPF move IHP_ideal_opt.pdbqt
DOCKED: USER    NEWDPF about 0.035000 0.082000 -0.065000
DOCKED: USER    NEWDPF tran0 11.110894 15.131178 4.175179
DOCKED: USER    NEWDPF quaternion0 0.229189 0.720321 -0.174109 -0.631107
DOCKED: USER    NEWDPF axisangle0 0.295463 0.928613 -0.224455 -101.736284
DOCKED: USER    NEWDPF quat0 0.295463 0.928613 -0.224455 -101.736284
DOCKED: USER    NEWDPF dihe0 145.96 78.52 120.46 111.33 -104.24 180.00 -142.53 -45.33 -113.83 121.10 102.58 155.92 128.72 94.86 15.94 -120.84 -37.76 55.43 41.43 -9.31 162.18 -17.97 -35.21 -2.07 
DOCKED: USER  keepresnum = 1 
DOCKED: USER  
DOCKED: REMARK  24 active torsions:
DOCKED: REMARK  status: ('A' for Active; 'I' for Inactive)
DOCKED: REMARK    1  A    between atoms: C_1  and  O_7 
DOCKED: REMARK    2  A    between atoms: C_2  and  O_12 
DOCKED: REMARK    3  A    between atoms: C_3  and  O_17 
DOCKED: REMARK    4  A    between atoms: C_4  and  O_22 
DOCKED: REMARK    5  A    between atoms: C_5  and  O_27 
DOCKED: REMARK    6  A    between atoms: C_6  and  O_32 
DOCKED: REMARK    7  A    between atoms: O_7  and  P_8 
DOCKED: REMARK    8  A    between atoms: P_8  and  O_10 
DOCKED: REMARK    9  A    between atoms: P_8  and  O_11 
DOCKED: REMARK   10  A    between atoms: O_12  and  P_13 
DOCKED: REMARK   11  A    between atoms: P_13  and  O_15 
DOCKED: REMARK   12  A    between atoms: P_13  and  O_16 
DOCKED: REMARK   13  A    between atoms: O_17  and  P_18 
DOCKED: REMARK   14  A    between atoms: P_18  and  O_20 
DOCKED: REMARK   15  A    between atoms: P_18  and  O_21 
DOCKED: REMARK   16  A    between atoms: O_22  and  P_23 
DOCKED: REMARK   17  A    between atoms: P_23  and  O_25 
DOCKED: REMARK   18  A    between atoms: P_23  and  O_26 
DOCKED: REMARK   19  A    between atoms: O_27  and  P_28 
DOCKED: REMARK   20  A    between atoms: P_28  and  O_30 
DOCKED: REMARK   21  A    between atoms: P_28  and  O_31 
DOCKED: REMARK   22  A    between atoms: O_32  and  P_33 
DOCKED: REMARK   23  A    between atoms: P_33  and  O_35 
DOCKED: REMARK   24  A    between atoms: P_33  and  O_36 
DOCKED: USER                              x       y       z     vdW  Elec       q    Type
DOCKED: USER                           _______ _______ _______ _____ _____    ______ ____
DOCKED: ROOT
DOCKED: ATOM      1  C   UNL d   1      11.155  14.101   2.789 -0.11 +0.05    +0.194 C 
DOCKED: ATOM      2  C   UNL d   1      10.530  13.492   4.045 -0.09 +0.03    +0.194 C 
DOCKED: ATOM      3  C   UNL d   1      11.342  13.822   5.299 -0.06 +0.03    +0.194 C 
DOCKED: ATOM      4  C   UNL d   1      11.621  15.314   5.459 -0.13 +0.04    +0.194 C 
DOCKED: ATOM      5  C   UNL d   1      12.139  15.988   4.195 -0.15 +0.04    +0.194 C 
DOCKED: ATOM      6  C   UNL d   1      11.365  15.610   2.930 -0.17 +0.06    +0.194 C 
DOCKED: ENDROOT
DOCKED: BRANCH   1   7
DOCKED: ATOM      7  O   UNL d   1      10.254  13.897   1.698 -0.07 -0.12    -0.278 OA
DOCKED: BRANCH   7   8
DOCKED: ATOM      8  P   UNL d   1      10.254  12.475   0.970 -0.03 +0.19    +0.473 P 
DOCKED: ATOM      9  O   UNL d   1       9.294  12.345  -0.160 -0.08 -0.16    -0.228 OA
DOCKED: BRANCH   8  10
DOCKED: ATOM     10  O   UNL d   1      11.773  12.264   0.532 -0.04 -0.10    -0.303 OA
DOCKED: ATOM     11  H   UNL d   1      12.263  13.101   0.637 +0.04 +0.07    +0.222 HD
DOCKED: ENDBRANCH   8  10
DOCKED: BRANCH   8  12
DOCKED: ATOM     12  O   UNL d   1      10.095  11.412   2.141 -0.02 -0.06    -0.303 OA
DOCKED: ATOM     13  H   UNL d   1       9.542  11.739   2.886 +0.04 +0.03    +0.222 HD
DOCKED: ENDBRANCH   8  12
DOCKED: ENDBRANCH   7   8
DOCKED: ENDBRANCH   1   7
DOCKED: BRANCH   2  14
DOCKED: ATOM     14  O   UNL d   1       9.205  14.015   4.208 -0.19 -0.03    -0.278 OA
DOCKED: BRANCH  14  15
DOCKED: ATOM     15  P   UNL d   1       8.015  12.945   4.261 -0.14 +0.00    +0.473 P 
DOCKED: ATOM     16  O   UNL d   1       6.812  13.318   5.068 -0.19 +0.03    -0.228 OA
DOCKED: BRANCH  15  17
DOCKED: ATOM     17  O   UNL d   1       7.671  12.672   2.729 -0.10 -0.04    -0.303 OA
DOCKED: ATOM     18  H   UNL d   1       8.438  12.864   2.157 +0.06 +0.06    +0.222 HD
DOCKED: ENDBRANCH  15  17
DOCKED: BRANCH  15  19
DOCKED: ATOM     19  O   UNL d   1       8.725  11.583   4.676 -0.04 -0.01    -0.303 OA
DOCKED: ATOM     20  H   UNL d   1       9.275  11.691   5.473 +0.04 -0.00    +0.222 HD
DOCKED: ENDBRANCH  15  19
DOCKED: ENDBRANCH  14  15
DOCKED: ENDBRANCH   2  14
DOCKED: BRANCH   6  21
DOCKED: ATOM     21  O   UNL d   1      12.158  16.028   1.821 -0.16 -0.09    -0.278 OA
DOCKED: BRANCH  21  22
DOCKED: ATOM     22  P   UNL d   1      13.626  15.435   1.630 -0.05 +0.10    +0.473 P 
DOCKED: ATOM     23  O   UNL d   1      13.817  13.963   1.779 -0.03 -0.04    -0.228 OA
DOCKED: BRANCH  22  24
DOCKED: ATOM     24  O   UNL d   1      14.029  16.019   0.205 -0.19 -0.06    -0.303 OA
DOCKED: ATOM     25  H   UNL d   1      14.871  15.580  -0.081 +0.08 +0.02    +0.222 HD
DOCKED: ENDBRANCH  22  24
DOCKED: BRANCH  22  26
DOCKED: ATOM     26  O   UNL d   1      14.482  16.359   2.621 -0.19 -0.08    -0.303 OA
DOCKED: ATOM     27  H   UNL d   1      13.876  16.942   3.122 +0.09 +0.07    +0.222 HD
DOCKED: ENDBRANCH  22  26
DOCKED: ENDBRANCH  21  22
DOCKED: ENDBRANCH   6  21
DOCKED: BRANCH   3  28
DOCKED: ATOM     28  O   UNL d   1      10.553  13.463   6.427 -0.10 -0.01    -0.278 OA
DOCKED: BRANCH  28  29
DOCKED: ATOM     29  P   UNL d   1      10.698  12.019   7.082 -0.03 +0.02    +0.473 P 
DOCKED: ATOM     30  O   UNL d   1       9.453  11.449   7.659 -0.09 +0.02    -0.228 OA
DOCKED: BRANCH  29  31
DOCKED: ATOM     31  O   UNL d   1      11.364  11.224   5.863 -0.00 -0.02    -0.303 OA
DOCKED: ATOM     32  H   UNL d   1      10.646  10.828   5.317 +0.02 +0.01    +0.222 HD
DOCKED: ENDBRANCH  29  31
DOCKED: BRANCH  29  33
DOCKED: ATOM     33  O   UNL d   1      11.923  12.226   8.078 -0.02 -0.06    -0.303 OA
DOCKED: ATOM     34  H   UNL d   1      12.095  13.194   8.180 +0.05 +0.07    +0.222 HD
DOCKED: ENDBRANCH  29  33
DOCKED: ENDBRANCH  28  29
DOCKED: ENDBRANCH   3  28
DOCKED: BRANCH   5  35
DOCKED: ATOM     35  O   UNL d   1      11.953  17.387   4.398 -0.24 -0.07    -0.278 OA
DOCKED: BRANCH  35  36
DOCKED: ATOM     36  P   UNL d   1      13.148  18.286   4.953 -0.21 +0.12    +0.473 P 
DOCKED: ATOM     37  O   UNL d   1      14.468  17.594   5.083 -0.32 -0.06    -0.228 OA
DOCKED: BRANCH  36  38
DOCKED: ATOM     38  O   UNL d   1      13.146  19.503   3.926 -0.81 -0.07    -0.303 OA
DOCKED: ATOM     39  H   UNL d   1      13.814  20.164   4.210 -0.45 +0.02    +0.222 HD
DOCKED: ENDBRANCH  36  38
DOCKED: BRANCH  36  40
DOCKED: ATOM     40  O   UNL d   1      12.523  18.903   6.279 -0.10 -0.07    -0.303 OA
DOCKED: ATOM     41  H   UNL d   1      12.544  18.262   7.024 +0.13 +0.06    +0.222 HD
DOCKED: ENDBRANCH  36  40
DOCKED: ENDBRANCH  35  36
DOCKED: ENDBRANCH   5  35
DOCKED: BRANCH   4  42
DOCKED: ATOM     42  O   UNL d   1      12.645  15.440   6.452 -0.04 -0.07    -0.278 OA
DOCKED: BRANCH  42  43
DOCKED: ATOM     43  P   UNL d   1      12.285  16.125   7.848 -0.11 +0.18    +0.473 P 
DOCKED: ATOM     44  O   UNL d   1      12.045  15.226   9.011 -0.41 -0.17    -0.228 OA
DOCKED: BRANCH  43  45
DOCKED: ATOM     45  O   UNL d   1      13.486  17.149   8.054 -0.10 -0.14    -0.303 OA
DOCKED: ATOM     46  H   UNL d   1      13.840  17.462   7.197 +0.10 +0.08    +0.222 HD
DOCKED: ENDBRANCH  43  45
DOCKED: BRANCH  43  47
DOCKED: ATOM     47  O   UNL d   1      11.078  17.109   7.473 -0.32 -0.04    -0.303 OA
DOCKED: ATOM     48  H   UNL d   1      11.137  17.346   6.524 +0.12 +0.05    +0.222 HD
DOCKED: ENDBRANCH  43  47
DOCKED: ENDBRANCH  42  43
DOCKED: ENDBRANCH   4  42
DOCKED: TORSDOF 24
DOCKED: TER
DOCKED: ENDMDL
________________________________________________________________________________


	BEGINNING GENETIC ALGORITHM DOCKING 32 of 100
Run: 32 Seed: 1838713926 1751660665 [ Run 32 of 100 GA/GALS ]
Beginning LAMARCKIAN GENETIC ALGORITHM (LGA), with a maximum of 25000000 energy evaluations.

Final-Value: -16.729


	FINAL GENETIC ALGORITHM DOCKED STATE
	_______________________________________________


Detailed state:  trans 22.056 36.338 -9.065 quatxyzw 0.475231 -0.141005 0.822954 -0.277525 center 0.035 0.082 -0.065 ntor 24 -165.4159 13.9170 129.5184 1.1184 -6.7631 -161.4895 165.7540 -1.2640 121.9929 170.2001 56.5573 -129.8425 32.7470 39.0114 173.0798 107.8121 180.0000 -80.9879 -131.8001 -29.3119 178.2522 67.6006 12.1459 -174.8523
State:	 22.056  36.338  -9.065   0.495 -0.147  0.857 -147.775   -165.42   13.92  129.52    1.12   -6.76 -161.49  165.75   -1.26  121.99  170.20   56.56 -129.84   32.75   39.01  173.08  107.81  180.00  -80.99 -131.80  -29.31  178.25   67.60   12.15 -174.85

DOCKED: MODEL       32
DOCKED: USER    Run = 32
DOCKED: USER    DPF = D:/Protein_go_brrr/autodock/final/6BB5/IHP/dock.dpf
DOCKED: USER  
DOCKED: USER    Estimated Free Energy of Binding    =   +3.77 kcal/mol  [=(1)+(2)+(3)-(4)]
DOCKED: USER    
DOCKED: USER    (1) Final Intermolecular Energy     =   -3.39 kcal/mol
DOCKED: USER        vdW + Hbond + desolv Energy     =   -3.41 kcal/mol
DOCKED: USER        Electrostatic Energy            =   +0.02 kcal/mol
DOCKED: USER    (2) Final Total Internal Energy     =  -13.34 kcal/mol
DOCKED: USER    (3) Torsional Free Energy           =   +7.16 kcal/mol
DOCKED: USER    (4) Unbound System's Energy  [=(2)] =  -13.34 kcal/mol
DOCKED: USER    
DOCKED: USER    
DOCKED: USER    NEWDPF move IHP_ideal_opt.pdbqt
DOCKED: USER    NEWDPF about 0.035000 0.082000 -0.065000
DOCKED: USER    NEWDPF tran0 22.055828 36.338063 -9.064727
DOCKED: USER    NEWDPF quaternion0 0.475231 -0.141005 0.822954 -0.277525
DOCKED: USER    NEWDPF axisangle0 0.494662 -0.146770 0.856603 -147.774916
DOCKED: USER    NEWDPF quat0 0.494662 -0.146770 0.856603 -147.774916
DOCKED: USER    NEWDPF dihe0 -165.42 13.92 129.52 1.12 -6.76 -161.49 165.75 -1.26 121.99 170.20 56.56 -129.84 32.75 39.01 173.08 107.81 180.00 -80.99 -131.80 -29.31 178.25 67.60 12.15 -174.85 
DOCKED: USER  keepresnum = 1 
DOCKED: USER  
DOCKED: REMARK  24 active torsions:
DOCKED: REMARK  status: ('A' for Active; 'I' for Inactive)
DOCKED: REMARK    1  A    between atoms: C_1  and  O_7 
DOCKED: REMARK    2  A    between atoms: C_2  and  O_12 
DOCKED: REMARK    3  A    between atoms: C_3  and  O_17 
DOCKED: REMARK    4  A    between atoms: C_4  and  O_22 
DOCKED: REMARK    5  A    between atoms: C_5  and  O_27 
DOCKED: REMARK    6  A    between atoms: C_6  and  O_32 
DOCKED: REMARK    7  A    between atoms: O_7  and  P_8 
DOCKED: REMARK    8  A    between atoms: P_8  and  O_10 
DOCKED: REMARK    9  A    between atoms: P_8  and  O_11 
DOCKED: REMARK   10  A    between atoms: O_12  and  P_13 
DOCKED: REMARK   11  A    between atoms: P_13  and  O_15 
DOCKED: REMARK   12  A    between atoms: P_13  and  O_16 
DOCKED: REMARK   13  A    between atoms: O_17  and  P_18 
DOCKED: REMARK   14  A    between atoms: P_18  and  O_20 
DOCKED: REMARK   15  A    between atoms: P_18  and  O_21 
DOCKED: REMARK   16  A    between atoms: O_22  and  P_23 
DOCKED: REMARK   17  A    between atoms: P_23  and  O_25 
DOCKED: REMARK   18  A    between atoms: P_23  and  O_26 
DOCKED: REMARK   19  A    between atoms: O_27  and  P_28 
DOCKED: REMARK   20  A    between atoms: P_28  and  O_30 
DOCKED: REMARK   21  A    between atoms: P_28  and  O_31 
DOCKED: REMARK   22  A    between atoms: O_32  and  P_33 
DOCKED: REMARK   23  A    between atoms: P_33  and  O_35 
DOCKED: REMARK   24  A    between atoms: P_33  and  O_36 
DOCKED: USER                              x       y       z     vdW  Elec       q    Type
DOCKED: USER                           _______ _______ _______ _____ _____    ______ ____
DOCKED: ROOT
DOCKED: ATOM      1  C   UNL d   1      22.643  37.066  -7.612 -0.06 +0.02    +0.194 C 
DOCKED: ATOM      2  C   UNL d   1      23.351  37.495  -8.899 -0.02 +0.03    +0.194 C 
DOCKED: ATOM      3  C   UNL d   1      23.624  36.303  -9.819 +0.00 +0.01    +0.194 C 
DOCKED: ATOM      4  C   UNL d   1      22.382  35.459 -10.096 -0.01 +0.02    +0.194 C 
DOCKED: ATOM      5  C   UNL d   1      21.582  35.105  -8.850 -0.04 +0.02    +0.194 C 
DOCKED: ATOM      6  C   UNL d   1      21.361  36.284  -7.900 -0.10 +0.04    +0.194 C 
DOCKED: ENDROOT
DOCKED: BRANCH   1   7
DOCKED: ATOM      7  O   UNL d   1      22.271  38.245  -6.894 -0.14 -0.05    -0.278 OA
DOCKED: BRANCH   7   8
DOCKED: ATOM      8  P   UNL d   1      20.733  38.676  -6.887 -0.21 +0.17    +0.473 P 
DOCKED: ATOM      9  O   UNL d   1      19.896  38.006  -5.855 -0.41 -0.06    -0.228 OA
DOCKED: BRANCH   8  10
DOCKED: ATOM     10  O   UNL d   1      20.777  40.263  -6.727 -0.26 -0.10    -0.303 OA
DOCKED: ATOM     11  H   UNL d   1      21.534  40.621  -7.226 +0.08 +0.07    +0.222 HD
DOCKED: ENDBRANCH   8  10
DOCKED: BRANCH   8  12
DOCKED: ATOM     12  O   UNL d   1      20.249  38.506  -8.390 -0.01 -0.25    -0.303 OA
DOCKED: ATOM     13  H   UNL d   1      20.964  38.671  -9.046 +0.05 +0.14    +0.222 HD
DOCKED: ENDBRANCH   8  12
DOCKED: ENDBRANCH   7   8
DOCKED: ENDBRANCH   1   7
DOCKED: BRANCH   2  14
DOCKED: ATOM     14  O   UNL d   1      22.521  38.430  -9.599 -0.05 -0.08    -0.278 OA
DOCKED: BRANCH  14  15
DOCKED: ATOM     15  P   UNL d   1      22.926  39.975  -9.481 -0.03 +0.11    +0.473 P 
DOCKED: ATOM     16  O   UNL d   1      23.789  40.528 -10.572 -0.01 -0.03    -0.228 OA
DOCKED: BRANCH  15  17
DOCKED: ATOM     17  O   UNL d   1      21.531  40.733  -9.353 -0.09 -0.13    -0.303 OA
DOCKED: ATOM     18  H   UNL d   1      20.881  40.193  -8.863 +0.07 +0.14    +0.222 HD
DOCKED: ENDBRANCH  15  17
DOCKED: BRANCH  15  19
DOCKED: ATOM     19  O   UNL d   1      23.506  40.121  -8.008 -0.04 -0.05    -0.303 OA
DOCKED: ATOM     20  H   UNL d   1      22.850  39.861  -7.334 +0.07 +0.05    +0.222 HD
DOCKED: ENDBRANCH  15  19
DOCKED: ENDBRANCH  14  15
DOCKED: ENDBRANCH   2  14
DOCKED: BRANCH   6  21
DOCKED: ATOM     21  O   UNL d   1      20.918  35.737  -6.660 -0.13 -0.03    -0.278 OA
DOCKED: BRANCH  21  22
DOCKED: ATOM     22  P   UNL d   1      21.966  35.028  -5.688 -0.13 -0.03    +0.473 P 
DOCKED: ATOM     23  O   UNL d   1      21.451  34.034  -4.702 -0.58 +0.02    -0.228 OA
DOCKED: BRANCH  22  24
DOCKED: ATOM     24  O   UNL d   1      23.031  34.454  -6.721 -0.05 +0.05    -0.303 OA
DOCKED: ATOM     25  H   UNL d   1      22.623  33.681  -7.187 +0.06 -0.06    +0.222 HD
DOCKED: ENDBRANCH  22  24
DOCKED: BRANCH  22  26
DOCKED: ATOM     26  O   UNL d   1      22.745  36.288  -5.074 -0.15 +0.01    -0.303 OA
DOCKED: ATOM     27  H   UNL d   1      22.168  37.077  -5.122 +0.11 +0.01    +0.222 HD
DOCKED: ENDBRANCH  22  26
DOCKED: ENDBRANCH  21  22
DOCKED: ENDBRANCH   6  21
DOCKED: BRANCH   3  28
DOCKED: ATOM     28  O   UNL d   1      24.019  36.819 -11.084 +0.00 -0.02    -0.278 OA
DOCKED: BRANCH  28  29
DOCKED: ATOM     29  P   UNL d   1      24.421  35.831 -12.267 +0.01 +0.02    +0.473 P 
DOCKED: ATOM     30  O   UNL d   1      23.286  35.258 -13.035 +0.00 -0.01    -0.228 OA
DOCKED: BRANCH  29  31
DOCKED: ATOM     31  O   UNL d   1      25.447  36.760 -13.070 +0.00 -0.01    -0.303 OA
DOCKED: ATOM     32  H   UNL d   1      25.326  36.600 -14.035 +0.00 +0.01    +0.222 HD
DOCKED: ENDBRANCH  29  31
DOCKED: BRANCH  29  33
DOCKED: ATOM     33  O   UNL d   1      25.384  34.800 -11.528 +0.00 +0.00    -0.303 OA
DOCKED: ATOM     34  H   UNL d   1      24.893  34.381 -10.780 +0.00 -0.01    +0.222 HD
DOCKED: ENDBRANCH  29  33
DOCKED: ENDBRANCH  28  29
DOCKED: ENDBRANCH   3  28
DOCKED: BRANCH   5  35
DOCKED: ATOM     35  O   UNL d   1      20.298  34.697  -9.317 -0.07 -0.04    -0.278 OA
DOCKED: BRANCH  35  36
DOCKED: ATOM     36  P   UNL d   1      19.522  33.502  -8.599 -0.16 -0.04    +0.473 P 
DOCKED: ATOM     37  O   UNL d   1      18.886  32.504  -9.513 -0.21 +0.06    -0.228 OA
DOCKED: BRANCH  36  38
DOCKED: ATOM     38  O   UNL d   1      20.655  32.898  -7.656 -0.08 +0.08    -0.303 OA
DOCKED: ATOM     39  H   UNL d   1      21.050  33.622  -7.124 +0.09 -0.04    +0.222 HD
DOCKED: ENDBRANCH  36  38
DOCKED: BRANCH  36  40
DOCKED: ATOM     40  O   UNL d   1      18.562  34.276  -7.595 -0.47 -0.03    -0.303 OA
DOCKED: ATOM     41  H   UNL d   1      17.628  33.982  -7.684 -0.43 -0.04    +0.222 HD
DOCKED: ENDBRANCH  36  40
DOCKED: ENDBRANCH  35  36
DOCKED: ENDBRANCH   5  35
DOCKED: BRANCH   4  42
DOCKED: ATOM     42  O   UNL d   1      22.836  34.228 -10.669 +0.00 +0.00    -0.278 OA
DOCKED: BRANCH  42  43
DOCKED: ATOM     43  P   UNL d   1      23.535  33.150  -9.724 +0.01 -0.08    +0.473 P 
DOCKED: ATOM     44  O   UNL d   1      24.386  33.659  -8.612 -0.01 +0.04    -0.228 OA
DOCKED: BRANCH  43  45
DOCKED: ATOM     45  O   UNL d   1      22.308  32.256  -9.248 -0.05 +0.11    -0.303 OA
DOCKED: ATOM     46  H   UNL d   1      21.454  32.705  -9.408 +0.05 -0.05    +0.222 HD
DOCKED: ENDBRANCH  43  45
DOCKED: BRANCH  43  47
DOCKED: ATOM     47  O   UNL d   1      24.267  32.172 -10.762 -0.00 +0.04    -0.303 OA
DOCKED: ATOM     48  H   UNL d   1      24.781  32.707 -11.402 +0.00 -0.02    +0.222 HD
DOCKED: ENDBRANCH  43  47
DOCKED: ENDBRANCH  42  43
DOCKED: ENDBRANCH   4  42
DOCKED: TORSDOF 24
DOCKED: TER
DOCKED: ENDMDL
________________________________________________________________________________


	BEGINNING GENETIC ALGORITHM DOCKING 33 of 100
Run: 33 Seed: 939886326 2123193996 [ Run 33 of 100 GA/GALS ]
Beginning LAMARCKIAN GENETIC ALGORITHM (LGA), with a maximum of 25000000 energy evaluations.

Final-Value: -15.434


	FINAL GENETIC ALGORITHM DOCKED STATE
	_______________________________________________


Detailed state:  trans 22.361 42.554 -8.590 quatxyzw -0.366793 -0.279402 0.872762 -0.160264 center 0.035 0.082 -0.065 ntor 24 -171.6663 123.9724 107.5625 -51.8179 1.0388 -136.3650 85.3231 -30.8323 -7.6101 89.0224 -4.3755 118.3386 -38.7710 -146.6301 -54.3292 41.8074 -8.2645 -59.7033 -39.6585 -34.7867 0.0004 -49.0261 -19.3623 -177.7100
State:	 22.361  42.554  -8.590  -0.372 -0.283  0.884 -161.556   -171.67  123.97  107.56  -51.82    1.04 -136.36   85.32  -30.83   -7.61   89.02   -4.38  118.34  -38.77 -146.63  -54.33   41.81   -8.26  -59.70  -39.66  -34.79    0.00  -49.03  -19.36 -177.71

DOCKED: MODEL       33
DOCKED: USER    Run = 33
DOCKED: USER    DPF = D:/Protein_go_brrr/autodock/final/6BB5/IHP/dock.dpf
DOCKED: USER  
DOCKED: USER    Estimated Free Energy of Binding    =   +4.39 kcal/mol  [=(1)+(2)+(3)-(4)]
DOCKED: USER    
DOCKED: USER    (1) Final Intermolecular Energy     =   -2.77 kcal/mol
DOCKED: USER        vdW + Hbond + desolv Energy     =   -2.64 kcal/mol
DOCKED: USER        Electrostatic Energy            =   -0.12 kcal/mol
DOCKED: USER    (2) Final Total Internal Energy     =  -12.67 kcal/mol
DOCKED: USER    (3) Torsional Free Energy           =   +7.16 kcal/mol
DOCKED: USER    (4) Unbound System's Energy  [=(2)] =  -12.67 kcal/mol
DOCKED: USER    
DOCKED: USER    
DOCKED: USER    NEWDPF move IHP_ideal_opt.pdbqt
DOCKED: USER    NEWDPF about 0.035000 0.082000 -0.065000
DOCKED: USER    NEWDPF tran0 22.360630 42.554242 -8.590331
DOCKED: USER    NEWDPF quaternion0 -0.366793 -0.279402 0.872762 -0.160264
DOCKED: USER    NEWDPF axisangle0 -0.371596 -0.283061 0.884190 -161.555614
DOCKED: USER    NEWDPF quat0 -0.371596 -0.283061 0.884190 -161.555614
DOCKED: USER    NEWDPF dihe0 -171.67 123.97 107.56 -51.82 1.04 -136.36 85.32 -30.83 -7.61 89.02 -4.38 118.34 -38.77 -146.63 -54.33 41.81 -8.26 -59.70 -39.66 -34.79 0.00 -49.03 -19.36 -177.71 
DOCKED: USER  keepresnum = 1 
DOCKED: USER  
DOCKED: REMARK  24 active torsions:
DOCKED: REMARK  status: ('A' for Active; 'I' for Inactive)
DOCKED: REMARK    1  A    between atoms: C_1  and  O_7 
DOCKED: REMARK    2  A    between atoms: C_2  and  O_12 
DOCKED: REMARK    3  A    between atoms: C_3  and  O_17 
DOCKED: REMARK    4  A    between atoms: C_4  and  O_22 
DOCKED: REMARK    5  A    between atoms: C_5  and  O_27 
DOCKED: REMARK    6  A    between atoms: C_6  and  O_32 
DOCKED: REMARK    7  A    between atoms: O_7  and  P_8 
DOCKED: REMARK    8  A    between atoms: P_8  and  O_10 
DOCKED: REMARK    9  A    between atoms: P_8  and  O_11 
DOCKED: REMARK   10  A    between atoms: O_12  and  P_13 
DOCKED: REMARK   11  A    between atoms: P_13  and  O_15 
DOCKED: REMARK   12  A    between atoms: P_13  and  O_16 
DOCKED: REMARK   13  A    between atoms: O_17  and  P_18 
DOCKED: REMARK   14  A    between atoms: P_18  and  O_20 
DOCKED: REMARK   15  A    between atoms: P_18  and  O_21 
DOCKED: REMARK   16  A    between atoms: O_22  and  P_23 
DOCKED: REMARK   17  A    between atoms: P_23  and  O_25 
DOCKED: REMARK   18  A    between atoms: P_23  and  O_26 
DOCKED: REMARK   19  A    between atoms: O_27  and  P_28 
DOCKED: REMARK   20  A    between atoms: P_28  and  O_30 
DOCKED: REMARK   21  A    between atoms: P_28  and  O_31 
DOCKED: REMARK   22  A    between atoms: O_32  and  P_33 
DOCKED: REMARK   23  A    between atoms: P_33  and  O_35 
DOCKED: REMARK   24  A    between atoms: P_33  and  O_36 
DOCKED: USER                              x       y       z     vdW  Elec       q    Type
DOCKED: USER                           _______ _______ _______ _____ _____    ______ ____
DOCKED: ROOT
DOCKED: ATOM      1  C   UNL d   1      20.998  43.573  -8.288 -0.11 +0.04    +0.194 C 
DOCKED: ATOM      2  C   UNL d   1      22.176  43.741  -7.326 -0.10 +0.02    +0.194 C 
DOCKED: ATOM      3  C   UNL d   1      22.760  42.392  -6.904 -0.13 +0.03    +0.194 C 
DOCKED: ATOM      4  C   UNL d   1      23.105  41.489  -8.086 -0.08 +0.03    +0.194 C 
DOCKED: ATOM      5  C   UNL d   1      22.000  41.383  -9.129 -0.09 +0.06    +0.194 C 
DOCKED: ATOM      6  C   UNL d   1      21.373  42.727  -9.506 -0.08 +0.05    +0.194 C 
DOCKED: ENDROOT
DOCKED: BRANCH   1   7
DOCKED: ATOM      7  O   UNL d   1      20.624  44.867  -8.767 -0.04 -0.03    -0.278 OA
DOCKED: BRANCH   7   8
DOCKED: ATOM      8  P   UNL d   1      19.182  45.043  -9.431 -0.06 +0.05    +0.473 P 
DOCKED: ATOM      9  O   UNL d   1      18.247  43.904  -9.220 -0.11 -0.05    -0.228 OA
DOCKED: BRANCH   8  10
DOCKED: ATOM     10  O   UNL d   1      18.644  46.418  -8.828 -0.03 -0.00    -0.303 OA
DOCKED: ATOM     11  H   UNL d   1      19.396  47.012  -8.646 +0.03 +0.00    +0.222 HD
DOCKED: ENDBRANCH   8  10
DOCKED: BRANCH   8  12
DOCKED: ATOM     12  O   UNL d   1      19.470  45.433 -10.944 -0.01 -0.02    -0.303 OA
DOCKED: ATOM     13  H   UNL d   1      19.710  44.660 -11.503 +0.02 +0.03    +0.222 HD
DOCKED: ENDBRANCH   8  12
DOCKED: ENDBRANCH   7   8
DOCKED: ENDBRANCH   1   7
DOCKED: BRANCH   2  14
DOCKED: ATOM     14  O   UNL d   1      23.203  44.501  -7.975 -0.01 -0.02    -0.278 OA
DOCKED: BRANCH  14  15
DOCKED: ATOM     15  P   UNL d   1      23.236  46.072  -7.665 +0.00 +0.02    +0.473 P 
DOCKED: ATOM     16  O   UNL d   1      22.454  46.955  -8.587 -0.00 -0.01    -0.228 OA
DOCKED: BRANCH  15  17
DOCKED: ATOM     17  O   UNL d   1      22.754  46.178  -6.151 -0.02 -0.01    -0.303 OA
DOCKED: ATOM     18  H   UNL d   1      22.738  45.300  -5.724 +0.06 +0.01    +0.222 HD
DOCKED: ENDBRANCH  15  17
DOCKED: BRANCH  15  19
DOCKED: ATOM     19  O   UNL d   1      24.783  46.417  -7.533 -0.00 -0.01    -0.303 OA
DOCKED: ATOM     20  H   UNL d   1      25.023  46.652  -6.618 +0.01 +0.01    +0.222 HD
DOCKED: ENDBRANCH  15  19
DOCKED: ENDBRANCH  14  15
DOCKED: ENDBRANCH   2  14
DOCKED: BRANCH   6  21
DOCKED: ATOM     21  O   UNL d   1      20.164  42.437 -10.203 -0.04 -0.13    -0.278 OA
DOCKED: BRANCH  21  22
DOCKED: ATOM     22  P   UNL d   1      20.118  42.553 -11.793 -0.06 +0.18    +0.473 P 
DOCKED: ATOM     23  O   UNL d   1      21.103  43.451 -12.463 -0.02 -0.04    -0.228 OA
DOCKED: BRANCH  22  24
DOCKED: ATOM     24  O   UNL d   1      20.201  41.026 -12.233 -0.30 -0.20    -0.303 OA
DOCKED: ATOM     25  H   UNL d   1      21.085  40.673 -11.958 +0.02 +0.11    +0.222 HD
DOCKED: ENDBRANCH  22  24
DOCKED: BRANCH  22  26
DOCKED: ATOM     26  O   UNL d   1      18.572  42.889 -12.051 -0.22 -0.12    -0.303 OA
DOCKED: ATOM     27  H   UNL d   1      18.301  43.625 -11.466 +0.04 +0.06    +0.222 HD
DOCKED: ENDBRANCH  22  26
DOCKED: ENDBRANCH  21  22
DOCKED: ENDBRANCH   6  21
DOCKED: BRANCH   3  28
DOCKED: ATOM     28  O   UNL d   1      23.997  42.646  -6.250 -0.09 -0.04    -0.278 OA
DOCKED: BRANCH  28  29
DOCKED: ATOM     29  P   UNL d   1      24.037  43.514  -4.915 -0.11 +0.06    +0.473 P 
DOCKED: ATOM     30  O   UNL d   1      22.731  43.702  -4.233 -0.25 -0.03    -0.228 OA
DOCKED: BRANCH  29  31
DOCKED: ATOM     31  O   UNL d   1      25.172  42.728  -4.105 -0.15 -0.04    -0.303 OA
DOCKED: ATOM     32  H   UNL d   1      25.771  43.387  -3.685 +0.06 +0.03    +0.222 HD
DOCKED: ENDBRANCH  29  31
DOCKED: BRANCH  29  33
DOCKED: ATOM     33  O   UNL d   1      24.795  44.830  -5.395 -0.03 -0.02    -0.303 OA
DOCKED: ATOM     34  H   UNL d   1      24.623  44.966  -6.358 +0.03 +0.01    +0.222 HD
DOCKED: ENDBRANCH  29  33
DOCKED: ENDBRANCH  28  29
DOCKED: ENDBRANCH   3  28
DOCKED: BRANCH   5  35
DOCKED: ATOM     35  O   UNL d   1      22.624  40.867 -10.303 -0.04 -0.07    -0.278 OA
DOCKED: BRANCH  35  36
DOCKED: ATOM     36  P   UNL d   1      22.284  39.394 -10.813 -0.05 +0.16    +0.473 P 
DOCKED: ATOM     37  O   UNL d   1      20.866  38.958 -10.627 -0.10 -0.18    -0.228 OA
DOCKED: BRANCH  36  38
DOCKED: ATOM     38  O   UNL d   1      22.755  39.459 -12.333 -0.01 -0.07    -0.303 OA
DOCKED: ATOM     39  H   UNL d   1      22.078  39.936 -12.859 +0.02 +0.06    +0.222 HD
DOCKED: ENDBRANCH  36  38
DOCKED: BRANCH  36  40
DOCKED: ATOM     40  O   UNL d   1      23.407  38.521 -10.102 -0.01 -0.05    -0.303 OA
DOCKED: ATOM     41  H   UNL d   1      23.490  38.741  -9.147 +0.03 +0.04    +0.222 HD
DOCKED: ENDBRANCH  36  40
DOCKED: ENDBRANCH  35  36
DOCKED: ENDBRANCH   5  35
DOCKED: BRANCH   4  42
DOCKED: ATOM     42  O   UNL d   1      23.312  40.175  -7.557 -0.08 -0.05    -0.278 OA
DOCKED: BRANCH  42  43
DOCKED: ATOM     43  P   UNL d   1      22.055  39.350  -7.026 -0.13 +0.12    +0.473 P 
DOCKED: ATOM     44  O   UNL d   1      20.784  40.097  -6.811 -0.31 -0.08    -0.228 OA
DOCKED: BRANCH  43  45
DOCKED: ATOM     45  O   UNL d   1      21.942  38.166  -8.083 -0.08 -0.09    -0.303 OA
DOCKED: ATOM     46  H   UNL d   1      21.536  38.469  -8.919 +0.05 +0.10    +0.222 HD
DOCKED: ENDBRANCH  43  45
DOCKED: BRANCH  43  47
DOCKED: ATOM     47  O   UNL d   1      22.634  38.586  -5.741 -0.12 -0.05    -0.303 OA
DOCKED: ATOM     48  H   UNL d   1      23.346  37.976  -6.022 +0.07 +0.02    +0.222 HD
DOCKED: ENDBRANCH  43  47
DOCKED: ENDBRANCH  42  43
DOCKED: ENDBRANCH   4  42
DOCKED: TORSDOF 24
DOCKED: TER
DOCKED: ENDMDL
________________________________________________________________________________


	BEGINNING GENETIC ALGORITHM DOCKING 34 of 100
Run: 34 Seed: 1801607875 924187940 [ Run 34 of 100 GA/GALS ]
Beginning LAMARCKIAN GENETIC ALGORITHM (LGA), with a maximum of 25000000 energy evaluations.

Final-Value: -17.602


	FINAL GENETIC ALGORITHM DOCKED STATE
	_______________________________________________


Detailed state:  trans 9.381 51.155 -8.073 quatxyzw -0.720932 -0.090168 0.054749 0.684930 center 0.035 0.082 -0.065 ntor 24 -179.2623 175.0846 171.0107 8.1341 129.6079 123.6748 -7.2819 -110.6153 18.5389 106.5995 109.7078 134.6154 -106.9154 -176.8331 177.5028 -73.8075 -57.8852 -144.3752 51.6018 9.8485 4.8276 16.2068 168.9583 -4.2196
State:	  9.381  51.155  -8.073  -0.989 -0.124  0.075 93.540   -179.26  175.08  171.01    8.13  129.61  123.67   -7.28 -110.62   18.54  106.60  109.71  134.62 -106.92 -176.83  177.50  -73.81  -57.89 -144.38   51.60    9.85    4.83   16.21  168.96   -4.22

DOCKED: MODEL       34
DOCKED: USER    Run = 34
DOCKED: USER    DPF = D:/Protein_go_brrr/autodock/final/6BB5/IHP/dock.dpf
DOCKED: USER  
DOCKED: USER    Estimated Free Energy of Binding    =   +5.20 kcal/mol  [=(1)+(2)+(3)-(4)]
DOCKED: USER    
DOCKED: USER    (1) Final Intermolecular Energy     =   -1.96 kcal/mol
DOCKED: USER        vdW + Hbond + desolv Energy     =   -1.89 kcal/mol
DOCKED: USER        Electrostatic Energy            =   -0.07 kcal/mol
DOCKED: USER    (2) Final Total Internal Energy     =  -15.64 kcal/mol
DOCKED: USER    (3) Torsional Free Energy           =   +7.16 kcal/mol
DOCKED: USER    (4) Unbound System's Energy  [=(2)] =  -15.64 kcal/mol
DOCKED: USER    
DOCKED: USER    
DOCKED: USER    NEWDPF move IHP_ideal_opt.pdbqt
DOCKED: USER    NEWDPF about 0.035000 0.082000 -0.065000
DOCKED: USER    NEWDPF tran0 9.381228 51.154974 -8.072807
DOCKED: USER    NEWDPF quaternion0 -0.720932 -0.090168 0.054749 0.684930
DOCKED: USER    NEWDPF axisangle0 -0.989464 -0.123754 0.075141 93.539811
DOCKED: USER    NEWDPF quat0 -0.989464 -0.123754 0.075141 93.539811
DOCKED: USER    NEWDPF dihe0 -179.26 175.08 171.01 8.13 129.61 123.67 -7.28 -110.62 18.54 106.60 109.71 134.62 -106.92 -176.83 177.50 -73.81 -57.89 -144.38 51.60 9.85 4.83 16.21 168.96 -4.22 
DOCKED: USER  keepresnum = 1 
DOCKED: USER  
DOCKED: REMARK  24 active torsions:
DOCKED: REMARK  status: ('A' for Active; 'I' for Inactive)
DOCKED: REMARK    1  A    between atoms: C_1  and  O_7 
DOCKED: REMARK    2  A    between atoms: C_2  and  O_12 
DOCKED: REMARK    3  A    between atoms: C_3  and  O_17 
DOCKED: REMARK    4  A    between atoms: C_4  and  O_22 
DOCKED: REMARK    5  A    between atoms: C_5  and  O_27 
DOCKED: REMARK    6  A    between atoms: C_6  and  O_32 
DOCKED: REMARK    7  A    between atoms: O_7  and  P_8 
DOCKED: REMARK    8  A    between atoms: P_8  and  O_10 
DOCKED: REMARK    9  A    between atoms: P_8  and  O_11 
DOCKED: REMARK   10  A    between atoms: O_12  and  P_13 
DOCKED: REMARK   11  A    between atoms: P_13  and  O_15 
DOCKED: REMARK   12  A    between atoms: P_13  and  O_16 
DOCKED: REMARK   13  A    between atoms: O_17  and  P_18 
DOCKED: REMARK   14  A    between atoms: P_18  and  O_20 
DOCKED: REMARK   15  A    between atoms: P_18  and  O_21 
DOCKED: REMARK   16  A    between atoms: O_22  and  P_23 
DOCKED: REMARK   17  A    between atoms: P_23  and  O_25 
DOCKED: REMARK   18  A    between atoms: P_23  and  O_26 
DOCKED: REMARK   19  A    between atoms: O_27  and  P_28 
DOCKED: REMARK   20  A    between atoms: P_28  and  O_30 
DOCKED: REMARK   21  A    between atoms: P_28  and  O_31 
DOCKED: REMARK   22  A    between atoms: O_32  and  P_33 
DOCKED: REMARK   23  A    between atoms: P_33  and  O_35 
DOCKED: REMARK   24  A    between atoms: P_33  and  O_36 
DOCKED: USER                              x       y       z     vdW  Elec       q    Type
DOCKED: USER                           _______ _______ _______ _____ _____    ______ ____
DOCKED: ROOT
DOCKED: ATOM      1  C   UNL d   1      10.460  50.475  -9.239 -0.08 -0.01    +0.194 C 
DOCKED: ATOM      2  C   UNL d   1       9.058  50.811  -9.752 -0.04 -0.00    +0.194 C 
DOCKED: ATOM      3  C   UNL d   1       7.975  50.390  -8.756 -0.09 +0.00    +0.194 C 
DOCKED: ATOM      4  C   UNL d   1       8.215  50.921  -7.345 -0.15 +0.00    +0.194 C 
DOCKED: ATOM      5  C   UNL d   1       9.636  50.709  -6.837 -0.14 -0.03    +0.194 C 
DOCKED: ATOM      6  C   UNL d   1      10.719  51.072  -7.855 -0.10 -0.02    +0.194 C 
DOCKED: ENDROOT
DOCKED: BRANCH   1   7
DOCKED: ATOM      7  O   UNL d   1      11.412  51.050 -10.136 -0.02 +0.02    -0.278 OA
DOCKED: BRANCH   7   8
DOCKED: ATOM      8  P   UNL d   1      11.572  50.406 -11.589 +0.00 -0.03    +0.473 P 
DOCKED: ATOM      9  O   UNL d   1      11.875  48.949 -11.603 -0.03 +0.02    -0.228 OA
DOCKED: BRANCH   8  10
DOCKED: ATOM     10  O   UNL d   1      10.205  50.771 -12.326 -0.00 +0.01    -0.303 OA
DOCKED: ATOM     11  H   UNL d   1       9.802  51.550 -11.900 +0.01 -0.00    +0.222 HD
DOCKED: ENDBRANCH   8  10
DOCKED: BRANCH   8  12
DOCKED: ATOM     12  O   UNL d   1      12.615  51.338 -12.342 -0.00 +0.01    -0.303 OA
DOCKED: ATOM     13  H   UNL d   1      13.347  50.835 -12.765 +0.00 -0.01    +0.222 HD
DOCKED: ENDBRANCH   8  12
DOCKED: ENDBRANCH   7   8
DOCKED: ENDBRANCH   1   7
DOCKED: BRANCH   2  14
DOCKED: ATOM     14  O   UNL d   1       8.963  52.226  -9.958 -0.01 +0.00    -0.278 OA
DOCKED: BRANCH  14  15
DOCKED: ATOM     15  P   UNL d   1       8.139  52.708 -11.244 +0.00 +0.00    +0.473 P 
DOCKED: ATOM     16  O   UNL d   1       8.877  53.546 -12.240 +0.00 +0.00    -0.228 OA
DOCKED: BRANCH  15  17
DOCKED: ATOM     17  O   UNL d   1       7.575  51.357 -11.871 -0.00 -0.00    -0.303 OA
DOCKED: ATOM     18  H   UNL d   1       6.827  51.011 -11.347 +0.01 +0.00    +0.222 HD
DOCKED: ENDBRANCH  15  17
DOCKED: BRANCH  15  19
DOCKED: ATOM     19  O   UNL d   1       6.816  53.359 -10.646 -0.00 -0.01    -0.303 OA
DOCKED: ATOM     20  H   UNL d   1       6.372  52.760 -10.018 +0.01 +0.01    +0.222 HD
DOCKED: ENDBRANCH  15  19
DOCKED: ENDBRANCH  14  15
DOCKED: ENDBRANCH   2  14
DOCKED: BRANCH   6  21
DOCKED: ATOM     21  O   UNL d   1      11.938  50.509  -7.378 -0.12 +0.04    -0.278 OA
DOCKED: BRANCH  21  22
DOCKED: ATOM     22  P   UNL d   1      12.967  51.418  -6.565 -0.05 -0.06    +0.473 P 
DOCKED: ATOM     23  O   UNL d   1      14.415  51.065  -6.619 -0.04 +0.03    -0.228 OA
DOCKED: BRANCH  22  24
DOCKED: ATOM     24  O   UNL d   1      12.614  52.872  -7.107 -0.01 +0.03    -0.303 OA
DOCKED: ATOM     25  H   UNL d   1      11.681  53.081  -6.845 +0.04 -0.02    +0.222 HD
DOCKED: ENDBRANCH  22  24
DOCKED: BRANCH  22  26
DOCKED: ATOM     26  O   UNL d   1      12.301  51.438  -5.107 -0.16 +0.07    -0.303 OA
DOCKED: ATOM     27  H   UNL d   1      11.356  51.681  -5.187 +0.05 -0.03    +0.222 HD
DOCKED: ENDBRANCH  22  26
DOCKED: ENDBRANCH  21  22
DOCKED: ENDBRANCH   6  21
DOCKED: BRANCH   3  28
DOCKED: ATOM     28  O   UNL d   1       6.752  50.982  -9.178 -0.01 -0.02    -0.278 OA
DOCKED: BRANCH  28  29
DOCKED: ATOM     29  P   UNL d   1       5.455  50.083  -9.390 +0.00 +0.05    +0.473 P 
DOCKED: ATOM     30  O   UNL d   1       5.156  49.711 -10.797 -0.00 -0.01    -0.228 OA
DOCKED: BRANCH  29  31
DOCKED: ATOM     31  O   UNL d   1       5.774  48.888  -8.375 -0.09 -0.07    -0.303 OA
DOCKED: ATOM     32  H   UNL d   1       6.110  49.273  -7.533 +0.03 +0.06    +0.222 HD
DOCKED: ENDBRANCH  29  31
DOCKED: BRANCH  29  33
DOCKED: ATOM     33  O   UNL d   1       4.341  50.916  -8.614 -0.00 -0.05    -0.303 OA
DOCKED: ATOM     34  H   UNL d   1       4.668  51.117  -7.703 +0.03 +0.05    +0.222 HD
DOCKED: ENDBRANCH  29  33
DOCKED: ENDBRANCH  28  29
DOCKED: ENDBRANCH   3  28
DOCKED: BRANCH   5  35
DOCKED: ATOM     35  O   UNL d   1       9.786  51.596  -5.730 -0.18 +0.01    -0.278 OA
DOCKED: BRANCH  35  36
DOCKED: ATOM     36  P   UNL d   1       9.626  53.170  -5.932 -0.04 +0.00    +0.473 P 
DOCKED: ATOM     37  O   UNL d   1       9.632  53.642  -7.351 -0.02 +0.00    -0.228 OA
DOCKED: BRANCH  36  38
DOCKED: ATOM     38  O   UNL d   1       8.270  53.462  -5.150 -0.06 -0.02    -0.303 OA
DOCKED: ATOM     39  H   UNL d   1       7.576  52.845  -5.469 +0.05 +0.03    +0.222 HD
DOCKED: ENDBRANCH  36  38
DOCKED: BRANCH  36  40
DOCKED: ATOM     40  O   UNL d   1      10.754  53.752  -4.972 -0.09 +0.02    -0.303 OA
DOCKED: ATOM     41  H   UNL d   1      11.654  53.501  -5.275 +0.06 -0.02    +0.222 HD
DOCKED: ENDBRANCH  36  40
DOCKED: ENDBRANCH  35  36
DOCKED: ENDBRANCH   5  35
DOCKED: BRANCH   4  42
DOCKED: ATOM     42  O   UNL d   1       7.343  50.193  -6.474 -0.22 -0.03    -0.278 OA
DOCKED: BRANCH  42  43
DOCKED: ATOM     43  P   UNL d   1       6.183  50.978  -5.711 -0.07 +0.15    +0.473 P 
DOCKED: ATOM     44  O   UNL d   1       6.436  51.372  -4.297 -0.26 -0.10    -0.228 OA
DOCKED: BRANCH  43  45
DOCKED: ATOM     45  O   UNL d   1       5.891  52.201  -6.686 -0.02 -0.06    -0.303 OA
DOCKED: ATOM     46  H   UNL d   1       5.967  51.937  -7.625 +0.03 +0.03    +0.222 HD
DOCKED: ENDBRANCH  43  45
DOCKED: BRANCH  43  47
DOCKED: ATOM     47  O   UNL d   1       4.896  50.054  -5.952 -0.13 -0.21    -0.303 OA
DOCKED: ATOM     48  H   UNL d   1       4.854  49.799  -6.897 +0.04 +0.10    +0.222 HD
DOCKED: ENDBRANCH  43  47
DOCKED: ENDBRANCH  42  43
DOCKED: ENDBRANCH   4  42
DOCKED: TORSDOF 24
DOCKED: TER
DOCKED: ENDMDL
________________________________________________________________________________


	BEGINNING GENETIC ALGORITHM DOCKING 35 of 100
Run: 35 Seed: 1943183550 888552519 [ Run 35 of 100 GA/GALS ]
Beginning LAMARCKIAN GENETIC ALGORITHM (LGA), with a maximum of 25000000 energy evaluations.

Final-Value: -19.975


	FINAL GENETIC ALGORITHM DOCKED STATE
	_______________________________________________


Detailed state:  trans 52.326 23.642 7.760 quatxyzw -0.500855 -0.566852 0.334652 -0.561989 center 0.035 0.082 -0.065 ntor 24 154.3994 72.6085 104.4680 106.1462 -2.1887 160.1342 -10.2152 -74.1868 95.5146 -38.7164 131.5878 115.1257 -40.6811 111.5456 -179.8672 -72.7756 -125.1838 -155.4749 2.7916 -10.0787 -27.5274 5.9812 -2.5163 4.9415
State:	 52.326  23.642   7.760  -0.606 -0.685  0.405 -111.613    154.40   72.61  104.47  106.15   -2.19  160.13  -10.22  -74.19   95.51  -38.72  131.59  115.13  -40.68  111.55 -179.87  -72.78 -125.18 -155.47    2.79  -10.08  -27.53    5.98   -2.52    4.94

DOCKED: MODEL       35
DOCKED: USER    Run = 35
DOCKED: USER    DPF = D:/Protein_go_brrr/autodock/final/6BB5/IHP/dock.dpf
DOCKED: USER  
DOCKED: USER    Estimated Free Energy of Binding    =   +2.74 kcal/mol  [=(1)+(2)+(3)-(4)]
DOCKED: USER    
DOCKED: USER    (1) Final Intermolecular Energy     =   -4.42 kcal/mol
DOCKED: USER        vdW + Hbond + desolv Energy     =   -4.39 kcal/mol
DOCKED: USER        Electrostatic Energy            =   -0.03 kcal/mol
DOCKED: USER    (2) Final Total Internal Energy     =  -15.55 kcal/mol
DOCKED: USER    (3) Torsional Free Energy           =   +7.16 kcal/mol
DOCKED: USER    (4) Unbound System's Energy  [=(2)] =  -15.55 kcal/mol
DOCKED: USER    
DOCKED: USER    
DOCKED: USER    NEWDPF move IHP_ideal_opt.pdbqt
DOCKED: USER    NEWDPF about 0.035000 0.082000 -0.065000
DOCKED: USER    NEWDPF tran0 52.325897 23.642172 7.759966
DOCKED: USER    NEWDPF quaternion0 -0.500855 -0.566852 0.334652 -0.561989
DOCKED: USER    NEWDPF axisangle0 -0.605523 -0.685312 0.404587 -111.613049
DOCKED: USER    NEWDPF quat0 -0.605523 -0.685312 0.404587 -111.613049
DOCKED: USER    NEWDPF dihe0 154.40 72.61 104.47 106.15 -2.19 160.13 -10.22 -74.19 95.51 -38.72 131.59 115.13 -40.68 111.55 -179.87 -72.78 -125.18 -155.47 2.79 -10.08 -27.53 5.98 -2.52 4.94 
DOCKED: USER  keepresnum = 1 
DOCKED: USER  
DOCKED: REMARK  24 active torsions:
DOCKED: REMARK  status: ('A' for Active; 'I' for Inactive)
DOCKED: REMARK    1  A    between atoms: C_1  and  O_7 
DOCKED: REMARK    2  A    between atoms: C_2  and  O_12 
DOCKED: REMARK    3  A    between atoms: C_3  and  O_17 
DOCKED: REMARK    4  A    between atoms: C_4  and  O_22 
DOCKED: REMARK    5  A    between atoms: C_5  and  O_27 
DOCKED: REMARK    6  A    between atoms: C_6  and  O_32 
DOCKED: REMARK    7  A    between atoms: O_7  and  P_8 
DOCKED: REMARK    8  A    between atoms: P_8  and  O_10 
DOCKED: REMARK    9  A    between atoms: P_8  and  O_11 
DOCKED: REMARK   10  A    between atoms: O_12  and  P_13 
DOCKED: REMARK   11  A    between atoms: P_13  and  O_15 
DOCKED: REMARK   12  A    between atoms: P_13  and  O_16 
DOCKED: REMARK   13  A    between atoms: O_17  and  P_18 
DOCKED: REMARK   14  A    between atoms: P_18  and  O_20 
DOCKED: REMARK   15  A    between atoms: P_18  and  O_21 
DOCKED: REMARK   16  A    between atoms: O_22  and  P_23 
DOCKED: REMARK   17  A    between atoms: P_23  and  O_25 
DOCKED: REMARK   18  A    between atoms: P_23  and  O_26 
DOCKED: REMARK   19  A    between atoms: O_27  and  P_28 
DOCKED: REMARK   20  A    between atoms: P_28  and  O_30 
DOCKED: REMARK   21  A    between atoms: P_28  and  O_31 
DOCKED: REMARK   22  A    between atoms: O_32  and  P_33 
DOCKED: REMARK   23  A    between atoms: P_33  and  O_35 
DOCKED: REMARK   24  A    between atoms: P_33  and  O_36 
DOCKED: USER                              x       y       z     vdW  Elec       q    Type
DOCKED: USER                           _______ _______ _______ _____ _____    ______ ____
DOCKED: ROOT
DOCKED: ATOM      1  C   UNL d   1      51.554  24.727   8.861 -0.24 +0.06    +0.194 C 
DOCKED: ATOM      2  C   UNL d   1      51.592  23.260   9.295 -0.17 +0.08    +0.194 C 
DOCKED: ATOM      3  C   UNL d   1      51.261  22.317   8.136 -0.20 +0.06    +0.194 C 
DOCKED: ATOM      4  C   UNL d   1      52.108  22.573   6.892 -0.12 +0.04    +0.194 C 
DOCKED: ATOM      5  C   UNL d   1      52.192  24.040   6.489 -0.13 +0.04    +0.194 C 
DOCKED: ATOM      6  C   UNL d   1      52.462  24.989   7.659 -0.14 +0.04    +0.194 C 
DOCKED: ENDROOT
DOCKED: BRANCH   1   7
DOCKED: ATOM      7  O   UNL d   1      52.038  25.525   9.943 -0.17 -0.08    -0.278 OA
DOCKED: BRANCH   7   8
DOCKED: ATOM      8  P   UNL d   1      51.064  26.624  10.572 -0.27 +0.12    +0.473 P 
DOCKED: ATOM      9  O   UNL d   1      49.646  26.537  10.129 -0.63 -0.06    -0.228 OA
DOCKED: BRANCH   8  10
DOCKED: ATOM     10  O   UNL d   1      51.243  26.444  12.147 -0.21 -0.11    -0.303 OA
DOCKED: ATOM     11  H   UNL d   1      51.841  25.694  12.324 +0.07 +0.10    +0.222 HD
DOCKED: ENDBRANCH   8  10
DOCKED: BRANCH   8  12
DOCKED: ATOM     12  O   UNL d   1      51.788  28.014  10.311 -0.20 -0.03    -0.303 OA
DOCKED: ATOM     13  H   UNL d   1      52.372  28.003   9.520 +0.10 +0.01    +0.222 HD
DOCKED: ENDBRANCH   8  12
DOCKED: ENDBRANCH   7   8
DOCKED: ENDBRANCH   1   7
DOCKED: BRANCH   2  14
DOCKED: ATOM     14  O   UNL d   1      52.906  22.950   9.775 -0.08 -0.09    -0.278 OA
DOCKED: BRANCH  14  15
DOCKED: ATOM     15  P   UNL d   1      53.010  22.417  11.282 -0.07 +0.23    +0.473 P 
DOCKED: ATOM     16  O   UNL d   1      54.316  21.812  11.692 -0.03 -0.08    -0.228 OA
DOCKED: BRANCH  15  17
DOCKED: ATOM     17  O   UNL d   1      52.608  23.678  12.168 -0.11 -0.19    -0.303 OA
DOCKED: ATOM     18  H   UNL d   1      52.270  24.406  11.611 +0.06 +0.11    +0.222 HD
DOCKED: ENDBRANCH  15  17
DOCKED: BRANCH  15  19
DOCKED: ATOM     19  O   UNL d   1      51.735  21.482  11.461 -0.11 -0.23    -0.303 OA
DOCKED: ATOM     20  H   UNL d   1      51.625  20.875  10.706 +0.05 +0.13    +0.222 HD
DOCKED: ENDBRANCH  15  19
DOCKED: ENDBRANCH  14  15
DOCKED: ENDBRANCH   2  14
DOCKED: BRANCH   6  21
DOCKED: ATOM     21  O   UNL d   1      52.172  26.306   7.196 -0.13 -0.05    -0.278 OA
DOCKED: BRANCH  21  22
DOCKED: ATOM     22  P   UNL d   1      53.237  27.474   7.414 -0.07 +0.03    +0.473 P 
DOCKED: ATOM     23  O   UNL d   1      52.731  28.867   7.582 -0.68 +0.02    -0.228 OA
DOCKED: BRANCH  22  24
DOCKED: ATOM     24  O   UNL d   1      54.082  26.919   8.643 -0.03 -0.02    -0.303 OA
DOCKED: ATOM     25  H   UNL d   1      53.498  26.921   9.444 +0.07 +0.02    +0.222 HD
DOCKED: ENDBRANCH  22  24
DOCKED: BRANCH  22  26
DOCKED: ATOM     26  O   UNL d   1      54.240  27.234   6.187 -0.07 -0.00    -0.303 OA
DOCKED: ATOM     27  H   UNL d   1      54.069  26.351   5.800 +0.04 +0.01    +0.222 HD
DOCKED: ENDBRANCH  22  26
DOCKED: ENDBRANCH  21  22
DOCKED: ENDBRANCH   6  21
DOCKED: BRANCH   3  28
DOCKED: ATOM     28  O   UNL d   1      51.589  20.997   8.551 -0.09 -0.11    -0.278 OA
DOCKED: BRANCH  28  29
DOCKED: ATOM     29  P   UNL d   1      50.452  19.890   8.682 -0.15 +0.27    +0.473 P 
DOCKED: ATOM     30  O   UNL d   1      49.940  19.656  10.056 -0.21 -0.16    -0.228 OA
DOCKED: BRANCH  29  31
DOCKED: ATOM     31  O   UNL d   1      49.406  20.434   7.599 -0.25 -0.21    -0.303 OA
DOCKED: ATOM     32  H   UNL d   1      49.905  20.741   6.807 +0.02 +0.10    +0.222 HD
DOCKED: ENDBRANCH  29  31
DOCKED: BRANCH  29  33
DOCKED: ATOM     33  O   UNL d   1      51.112  18.645   7.939 -0.04 -0.15    -0.303 OA
DOCKED: ATOM     34  H   UNL d   1      51.887  18.960   7.412 +0.03 +0.08    +0.222 HD
DOCKED: ENDBRANCH  29  33
DOCKED: ENDBRANCH  28  29
DOCKED: ENDBRANCH   3  28
DOCKED: BRANCH   5  35
DOCKED: ATOM     35  O   UNL d   1      53.307  24.136   5.605 -0.06 -0.03    -0.278 OA
DOCKED: BRANCH  35  36
DOCKED: ATOM     36  P   UNL d   1      53.144  24.829   4.177 -0.07 +0.03    +0.473 P 
DOCKED: ATOM     37  O   UNL d   1      52.548  23.970   3.108 -0.05 -0.02    -0.228 OA
DOCKED: BRANCH  36  38
DOCKED: ATOM     38  O   UNL d   1      52.283  26.119   4.537 -0.05 +0.01    -0.303 OA
DOCKED: ATOM     39  H   UNL d   1      52.437  26.356   5.477 +0.05 -0.00    +0.222 HD
DOCKED: ENDBRANCH  36  38
DOCKED: BRANCH  36  40
DOCKED: ATOM     40  O   UNL d   1      54.603  25.404   3.911 -0.01 -0.01    -0.303 OA
DOCKED: ATOM     41  H   UNL d   1      54.752  26.252   4.386 +0.03 +0.00    +0.222 HD
DOCKED: ENDBRANCH  36  40
DOCKED: ENDBRANCH  35  36
DOCKED: ENDBRANCH   5  35
DOCKED: BRANCH   4  42
DOCKED: ATOM     42  O   UNL d   1      51.479  21.875   5.812 -0.09 -0.06    -0.278 OA
DOCKED: BRANCH  42  43
DOCKED: ATOM     43  P   UNL d   1      52.152  20.537   5.263 +0.01 +0.11    +0.473 P 
DOCKED: ATOM     44  O   UNL d   1      52.775  20.585   3.911 -0.01 -0.04    -0.228 OA
DOCKED: BRANCH  43  45
DOCKED: ATOM     45  O   UNL d   1      53.160  20.149   6.432 -0.00 -0.06    -0.303 OA
DOCKED: ATOM     46  H   UNL d   1      52.693  20.025   7.282 +0.03 +0.06    +0.222 HD
DOCKED: ENDBRANCH  43  45
DOCKED: BRANCH  43  47
DOCKED: ATOM     47  O   UNL d   1      50.997  19.442   5.454 -0.04 -0.11    -0.303 OA
DOCKED: ATOM     48  H   UNL d   1      50.827  19.315   6.410 +0.04 +0.10    +0.222 HD
DOCKED: ENDBRANCH  43  47
DOCKED: ENDBRANCH  42  43
DOCKED: ENDBRANCH   4  42
DOCKED: TORSDOF 24
DOCKED: TER
DOCKED: ENDMDL
________________________________________________________________________________


	BEGINNING GENETIC ALGORITHM DOCKING 36 of 100
Run: 36 Seed: 1581841404 931344134 [ Run 36 of 100 GA/GALS ]
Beginning LAMARCKIAN GENETIC ALGORITHM (LGA), with a maximum of 25000000 energy evaluations.

Final-Value: -16.959


	FINAL GENETIC ALGORITHM DOCKED STATE
	_______________________________________________


Detailed state:  trans 31.191 40.972 1.809 quatxyzw 0.111744 -0.045529 -0.968929 -0.215911 center 0.035 0.082 -0.065 ntor 24 68.7018 49.8852 180.0000 -29.4475 110.6386 -1.4746 -118.5896 -32.0622 -2.5066 5.7793 -14.9464 -151.8682 148.8151 -179.8870 52.5529 -143.9971 -15.8438 -179.8480 50.8829 14.9002 -166.0446 6.4389 3.3677 -30.9913
State:	 31.191  40.972   1.809   0.114 -0.047 -0.992 -155.062     68.70   49.89  180.00  -29.45  110.64   -1.47 -118.59  -32.06   -2.51    5.78  -14.95 -151.87  148.82 -179.89   52.55 -144.00  -15.84 -179.85   50.88   14.90 -166.04    6.44    3.37  -30.99

DOCKED: MODEL       36
DOCKED: USER    Run = 36
DOCKED: USER    DPF = D:/Protein_go_brrr/autodock/final/6BB5/IHP/dock.dpf
DOCKED: USER  
DOCKED: USER    Estimated Free Energy of Binding    =   +2.02 kcal/mol  [=(1)+(2)+(3)-(4)]
DOCKED: USER    
DOCKED: USER    (1) Final Intermolecular Energy     =   -5.14 kcal/mol
DOCKED: USER        vdW + Hbond + desolv Energy     =   -4.66 kcal/mol
DOCKED: USER        Electrostatic Energy            =   -0.48 kcal/mol
DOCKED: USER    (2) Final Total Internal Energy     =  -11.82 kcal/mol
DOCKED: USER    (3) Torsional Free Energy           =   +7.16 kcal/mol
DOCKED: USER    (4) Unbound System's Energy  [=(2)] =  -11.82 kcal/mol
DOCKED: USER    
DOCKED: USER    
DOCKED: USER    NEWDPF move IHP_ideal_opt.pdbqt
DOCKED: USER    NEWDPF about 0.035000 0.082000 -0.065000
DOCKED: USER    NEWDPF tran0 31.191150 40.972237 1.809413
DOCKED: USER    NEWDPF quaternion0 0.111744 -0.045529 -0.968929 -0.215911
DOCKED: USER    NEWDPF axisangle0 0.114443 -0.046629 -0.992335 -155.061988
DOCKED: USER    NEWDPF quat0 0.114443 -0.046629 -0.992335 -155.061988
DOCKED: USER    NEWDPF dihe0 68.70 49.89 180.00 -29.45 110.64 -1.47 -118.59 -32.06 -2.51 5.78 -14.95 -151.87 148.82 -179.89 52.55 -144.00 -15.84 -179.85 50.88 14.90 -166.04 6.44 3.37 -30.99 
DOCKED: USER  keepresnum = 1 
DOCKED: USER  
DOCKED: REMARK  24 active torsions:
DOCKED: REMARK  status: ('A' for Active; 'I' for Inactive)
DOCKED: REMARK    1  A    between atoms: C_1  and  O_7 
DOCKED: REMARK    2  A    between atoms: C_2  and  O_12 
DOCKED: REMARK    3  A    between atoms: C_3  and  O_17 
DOCKED: REMARK    4  A    between atoms: C_4  and  O_22 
DOCKED: REMARK    5  A    between atoms: C_5  and  O_27 
DOCKED: REMARK    6  A    between atoms: C_6  and  O_32 
DOCKED: REMARK    7  A    between atoms: O_7  and  P_8 
DOCKED: REMARK    8  A    between atoms: P_8  and  O_10 
DOCKED: REMARK    9  A    between atoms: P_8  and  O_11 
DOCKED: REMARK   10  A    between atoms: O_12  and  P_13 
DOCKED: REMARK   11  A    between atoms: P_13  and  O_15 
DOCKED: REMARK   12  A    between atoms: P_13  and  O_16 
DOCKED: REMARK   13  A    between atoms: O_17  and  P_18 
DOCKED: REMARK   14  A    between atoms: P_18  and  O_20 
DOCKED: REMARK   15  A    between atoms: P_18  and  O_21 
DOCKED: REMARK   16  A    between atoms: O_22  and  P_23 
DOCKED: REMARK   17  A    between atoms: P_23  and  O_25 
DOCKED: REMARK   18  A    between atoms: P_23  and  O_26 
DOCKED: REMARK   19  A    between atoms: O_27  and  P_28 
DOCKED: REMARK   20  A    between atoms: P_28  and  O_30 
DOCKED: REMARK   21  A    between atoms: P_28  and  O_31 
DOCKED: REMARK   22  A    between atoms: O_32  and  P_33 
DOCKED: REMARK   23  A    between atoms: P_33  and  O_35 
DOCKED: REMARK   24  A    between atoms: P_33  and  O_36 
DOCKED: USER                              x       y       z     vdW  Elec       q    Type
DOCKED: USER                           _______ _______ _______ _____ _____    ______ ____
DOCKED: ROOT
DOCKED: ATOM      1  C   UNL d   1      29.537  41.268   2.209 -0.14 +0.02    +0.194 C 
DOCKED: ATOM      2  C   UNL d   1      30.396  42.514   1.987 -0.12 +0.05    +0.194 C 
DOCKED: ATOM      3  C   UNL d   1      31.768  42.382   2.652 -0.17 +0.04    +0.194 C 
DOCKED: ATOM      4  C   UNL d   1      32.501  41.099   2.268 -0.13 +0.02    +0.194 C 
DOCKED: ATOM      5  C   UNL d   1      31.646  39.843   2.365 -0.10 +0.01    +0.194 C 
DOCKED: ATOM      6  C   UNL d   1      30.251  39.995   1.755 -0.07 +0.01    +0.194 C 
DOCKED: ENDROOT
DOCKED: BRANCH   1   7
DOCKED: ATOM      7  O   UNL d   1      28.352  41.397   1.420 -0.11 -0.04    -0.278 OA
DOCKED: BRANCH   7   8
DOCKED: ATOM      8  P   UNL d   1      27.251  42.463   1.873 -0.21 +0.18    +0.473 P 
DOCKED: ATOM      9  O   UNL d   1      25.886  42.229   1.329 -0.30 -0.06    -0.228 OA
DOCKED: BRANCH   8  10
DOCKED: ATOM     10  O   UNL d   1      27.307  42.424   3.467 -0.40 -0.20    -0.303 OA
DOCKED: ATOM     11  H   UNL d   1      26.691  41.745   3.799 -0.03 +0.02    +0.222 HD
DOCKED: ENDBRANCH   8  10
DOCKED: BRANCH   8  12
DOCKED: ATOM     12  O   UNL d   1      27.892  43.881   1.552 -0.09 -0.19    -0.303 OA
DOCKED: ATOM     13  H   UNL d   1      28.760  43.817   1.093 +0.06 +0.09    +0.222 HD
DOCKED: ENDBRANCH   8  12
DOCKED: ENDBRANCH   7   8
DOCKED: ENDBRANCH   1   7
DOCKED: BRANCH   2  14
DOCKED: ATOM     14  O   UNL d   1      30.587  42.705   0.580 -0.02 -0.06    -0.278 OA
DOCKED: BRANCH  14  15
DOCKED: ATOM     15  P   UNL d   1      30.685  44.219   0.069 -0.00 +0.12    +0.473 P 
DOCKED: ATOM     16  O   UNL d   1      29.721  44.631  -1.000 -0.02 -0.04    -0.228 OA
DOCKED: BRANCH  15  17
DOCKED: ATOM     17  O   UNL d   1      30.540  45.086   1.398 -0.07 -0.12    -0.303 OA
DOCKED: ATOM     18  H   UNL d   1      31.400  45.181   1.851 +0.06 +0.10    +0.222 HD
DOCKED: ENDBRANCH  15  17
DOCKED: BRANCH  15  19
DOCKED: ATOM     19  O   UNL d   1      32.223  44.423  -0.279 -0.00 -0.07    -0.303 OA
DOCKED: ATOM     20  H   UNL d   1      32.730  44.732   0.494 +0.04 +0.08    +0.222 HD
DOCKED: ENDBRANCH  15  19
DOCKED: ENDBRANCH  14  15
DOCKED: ENDBRANCH   2  14
DOCKED: BRANCH   6  21
DOCKED: ATOM     21  O   UNL d   1      29.475  38.892   2.219 -0.07 +0.01    -0.278 OA
DOCKED: BRANCH  21  22
DOCKED: ATOM     22  P   UNL d   1      28.615  39.036   3.555 -0.12 -0.22    +0.473 P 
DOCKED: ATOM     23  O   UNL d   1      27.271  39.677   3.462 -0.31 +0.12    -0.228 OA
DOCKED: BRANCH  22  24
DOCKED: ATOM     24  O   UNL d   1      28.605  37.540   4.098 -0.16 +0.15    -0.303 OA
DOCKED: ATOM     25  H   UNL d   1      29.524  37.177   4.019 +0.10 -0.05    +0.222 HD
DOCKED: ENDBRANCH  22  24
DOCKED: BRANCH  22  26
DOCKED: ATOM     26  O   UNL d   1      29.663  39.740   4.543 -0.26 +0.17    -0.303 OA
DOCKED: ATOM     27  H   UNL d   1      29.263  39.818   5.433 -0.23 -0.32    +0.222 HD
DOCKED: ENDBRANCH  22  26
DOCKED: ENDBRANCH  21  22
DOCKED: ENDBRANCH   6  21
DOCKED: BRANCH   3  28
DOCKED: ATOM     28  O   UNL d   1      32.583  43.442   2.167 -0.08 -0.10    -0.278 OA
DOCKED: BRANCH  28  29
DOCKED: ATOM     29  P   UNL d   1      33.141  44.549   3.166 -0.17 +0.35    +0.473 P 
DOCKED: ATOM     30  O   UNL d   1      33.780  45.727   2.525 -0.19 -0.34    -0.228 OA
DOCKED: BRANCH  29  31
DOCKED: ATOM     31  O   UNL d   1      31.830  44.822   4.042 -0.04 -0.17    -0.303 OA
DOCKED: ATOM     32  H   UNL d   1      31.150  45.244   3.466 +0.09 +0.12    +0.222 HD
DOCKED: ENDBRANCH  29  31
DOCKED: BRANCH  29  33
DOCKED: ATOM     33  O   UNL d   1      34.047  43.686   4.150 -0.18 -0.14    -0.303 OA
DOCKED: ATOM     34  H   UNL d   1      34.368  42.883   3.670 -0.10 +0.05    +0.222 HD
DOCKED: ENDBRANCH  29  33
DOCKED: ENDBRANCH  28  29
DOCKED: ENDBRANCH   3  28
DOCKED: BRANCH   5  35
DOCKED: ATOM     35  O   UNL d   1      32.330  38.849   1.605 -0.06 -0.02    -0.278 OA
DOCKED: BRANCH  35  36
DOCKED: ATOM     36  P   UNL d   1      32.527  37.379   2.195 -0.03 +0.04    +0.473 P 
DOCKED: ATOM     37  O   UNL d   1      31.475  36.923   3.155 -0.04 -0.02    -0.228 OA
DOCKED: BRANCH  36  38
DOCKED: ATOM     38  O   UNL d   1      32.625  36.506   0.867 -0.03 -0.03    -0.303 OA
DOCKED: ATOM     39  H   UNL d   1      31.736  36.445   0.456 +0.03 +0.03    +0.222 HD
DOCKED: ENDBRANCH  36  38
DOCKED: BRANCH  36  40
DOCKED: ATOM     40  O   UNL d   1      34.023  37.427   2.733 -0.04 -0.00    -0.303 OA
DOCKED: ATOM     41  H   UNL d   1      34.601  37.973   2.154 -0.25 -0.04    +0.222 HD
DOCKED: ENDBRANCH  36  40
DOCKED: ENDBRANCH  35  36
DOCKED: ENDBRANCH   5  35
DOCKED: BRANCH   4  42
DOCKED: ATOM     42  O   UNL d   1      33.581  40.946   3.195 -0.23 -0.03    -0.278 OA
DOCKED: BRANCH  42  43
DOCKED: ATOM     43  P   UNL d   1      34.976  40.380   2.668 -0.18 +0.02    +0.473 P 
DOCKED: ATOM     44  O   UNL d   1      35.638  39.319   3.478 +0.03 +0.01    -0.228 OA
DOCKED: BRANCH  43  45
DOCKED: ATOM     45  O   UNL d   1      34.634  39.942   1.177 -0.07 -0.01    -0.303 OA
DOCKED: ATOM     46  H   UNL d   1      34.302  39.022   1.141 +0.04 -0.00    +0.222 HD
DOCKED: ENDBRANCH  43  45
DOCKED: BRANCH  43  47
DOCKED: ATOM     47  O   UNL d   1      35.842  41.707   2.426 -0.12 -0.03    -0.303 OA
DOCKED: ATOM     48  H   UNL d   1      35.523  42.414   3.025 -0.14 +0.02    +0.222 HD
DOCKED: ENDBRANCH  43  47
DOCKED: ENDBRANCH  42  43
DOCKED: ENDBRANCH   4  42
DOCKED: TORSDOF 24
DOCKED: TER
DOCKED: ENDMDL
________________________________________________________________________________


	BEGINNING GENETIC ALGORITHM DOCKING 37 of 100
Run: 37 Seed: 1867043903 987938308 [ Run 37 of 100 GA/GALS ]
Beginning LAMARCKIAN GENETIC ALGORITHM (LGA), with a maximum of 25000000 energy evaluations.

Final-Value: -18.464


	FINAL GENETIC ALGORITHM DOCKED STATE
	_______________________________________________


Detailed state:  trans 26.392 54.056 18.074 quatxyzw 0.053257 -0.755389 0.577562 0.304913 center 0.035 0.082 -0.065 ntor 24 -156.1392 77.7494 103.1197 102.8395 108.2841 107.7961 -27.1882 -91.5825 155.1315 41.0650 127.4700 117.2295 -67.0726 114.3089 81.8679 -68.2757 165.5656 -156.4782 7.3923 -11.5242 -39.4102 3.3501 175.6478 10.6213
State:	 26.392  54.056  18.074   0.056 -0.793  0.606 144.494   -156.14   77.75  103.12  102.84  108.28  107.80  -27.19  -91.58  155.13   41.07  127.47  117.23  -67.07  114.31   81.87  -68.28  165.57 -156.48    7.39  -11.52  -39.41    3.35  175.65   10.62

DOCKED: MODEL       37
DOCKED: USER    Run = 37
DOCKED: USER    DPF = D:/Protein_go_brrr/autodock/final/6BB5/IHP/dock.dpf
DOCKED: USER  
DOCKED: USER    Estimated Free Energy of Binding    =   +4.23 kcal/mol  [=(1)+(2)+(3)-(4)]
DOCKED: USER    
DOCKED: USER    (1) Final Intermolecular Energy     =   -2.93 kcal/mol
DOCKED: USER        vdW + Hbond + desolv Energy     =   -2.81 kcal/mol
DOCKED: USER        Electrostatic Energy            =   -0.11 kcal/mol
DOCKED: USER    (2) Final Total Internal Energy     =  -15.54 kcal/mol
DOCKED: USER    (3) Torsional Free Energy           =   +7.16 kcal/mol
DOCKED: USER    (4) Unbound System's Energy  [=(2)] =  -15.54 kcal/mol
DOCKED: USER    
DOCKED: USER    
DOCKED: USER    NEWDPF move IHP_ideal_opt.pdbqt
DOCKED: USER    NEWDPF about 0.035000 0.082000 -0.065000
DOCKED: USER    NEWDPF tran0 26.392450 54.055772 18.073722
DOCKED: USER    NEWDPF quaternion0 0.053257 -0.755389 0.577562 0.304913
DOCKED: USER    NEWDPF axisangle0 0.055920 -0.793160 0.606441 144.494101
DOCKED: USER    NEWDPF quat0 0.055920 -0.793160 0.606441 144.494101
DOCKED: USER    NEWDPF dihe0 -156.14 77.75 103.12 102.84 108.28 107.80 -27.19 -91.58 155.13 41.07 127.47 117.23 -67.07 114.31 81.87 -68.28 165.57 -156.48 7.39 -11.52 -39.41 3.35 175.65 10.62 
DOCKED: USER  keepresnum = 1 
DOCKED: USER  
DOCKED: REMARK  24 active torsions:
DOCKED: REMARK  status: ('A' for Active; 'I' for Inactive)
DOCKED: REMARK    1  A    between atoms: C_1  and  O_7 
DOCKED: REMARK    2  A    between atoms: C_2  and  O_12 
DOCKED: REMARK    3  A    between atoms: C_3  and  O_17 
DOCKED: REMARK    4  A    between atoms: C_4  and  O_22 
DOCKED: REMARK    5  A    between atoms: C_5  and  O_27 
DOCKED: REMARK    6  A    between atoms: C_6  and  O_32 
DOCKED: REMARK    7  A    between atoms: O_7  and  P_8 
DOCKED: REMARK    8  A    between atoms: P_8  and  O_10 
DOCKED: REMARK    9  A    between atoms: P_8  and  O_11 
DOCKED: REMARK   10  A    between atoms: O_12  and  P_13 
DOCKED: REMARK   11  A    between atoms: P_13  and  O_15 
DOCKED: REMARK   12  A    between atoms: P_13  and  O_16 
DOCKED: REMARK   13  A    between atoms: O_17  and  P_18 
DOCKED: REMARK   14  A    between atoms: P_18  and  O_20 
DOCKED: REMARK   15  A    between atoms: P_18  and  O_21 
DOCKED: REMARK   16  A    between atoms: O_22  and  P_23 
DOCKED: REMARK   17  A    between atoms: P_23  and  O_25 
DOCKED: REMARK   18  A    between atoms: P_23  and  O_26 
DOCKED: REMARK   19  A    between atoms: O_27  and  P_28 
DOCKED: REMARK   20  A    between atoms: P_28  and  O_30 
DOCKED: REMARK   21  A    between atoms: P_28  and  O_31 
DOCKED: REMARK   22  A    between atoms: O_32  and  P_33 
DOCKED: REMARK   23  A    between atoms: P_33  and  O_35 
DOCKED: REMARK   24  A    between atoms: P_33  and  O_36 
DOCKED: USER                              x       y       z     vdW  Elec       q    Type
DOCKED: USER                           _______ _______ _______ _____ _____    ______ ____
DOCKED: ROOT
DOCKED: ATOM      1  C   UNL d   1      25.551  52.559  18.261 -0.11 +0.02    +0.194 C 
DOCKED: ATOM      2  C   UNL d   1      26.149  53.146  19.541 -0.09 +0.06    +0.194 C 
DOCKED: ATOM      3  C   UNL d   1      27.561  53.688  19.310 -0.00 +0.06    +0.194 C 
DOCKED: ATOM      4  C   UNL d   1      27.648  54.658  18.135 -0.08 +0.03    +0.194 C 
DOCKED: ATOM      5  C   UNL d   1      26.964  54.161  16.868 -0.13 +0.01    +0.194 C 
DOCKED: ATOM      6  C   UNL d   1      25.576  53.562  17.108 -0.09 +0.01    +0.194 C 
DOCKED: ENDROOT
DOCKED: BRANCH   1   7
DOCKED: ATOM      7  O   UNL d   1      24.182  52.236  18.516 -0.07 -0.02    -0.278 OA
DOCKED: BRANCH   7   8
DOCKED: ATOM      8  P   UNL d   1      23.742  50.701  18.463 -0.22 -0.02    +0.473 P 
DOCKED: ATOM      9  O   UNL d   1      24.716  49.787  17.807 -0.32 +0.01    -0.228 OA
DOCKED: BRANCH   8  10
DOCKED: ATOM     10  O   UNL d   1      23.459  50.328  19.989 -0.23 +0.03    -0.303 OA
DOCKED: ATOM     11  H   UNL d   1      22.923  51.029  20.403 +0.08 -0.03    +0.222 HD
DOCKED: ENDBRANCH   8  10
DOCKED: BRANCH   8  12
DOCKED: ATOM     12  O   UNL d   1      22.277  50.712  17.847 -0.21 +0.03    -0.303 OA
DOCKED: ATOM     13  H   UNL d   1      22.139  51.436  17.196 +0.09 -0.01    +0.222 HD
DOCKED: ENDBRANCH   8  12
DOCKED: ENDBRANCH   7   8
DOCKED: ENDBRANCH   1   7
DOCKED: BRANCH   2  14
DOCKED: ATOM     14  O   UNL d   1      25.316  54.220  19.995 -0.02 -0.06    -0.278 OA
DOCKED: BRANCH  14  15
DOCKED: ATOM     15  P   UNL d   1      24.678  54.062  21.455 -0.02 +0.16    +0.473 P 
DOCKED: ATOM     16  O   UNL d   1      24.006  55.270  22.029 -0.01 -0.04    -0.228 OA
DOCKED: BRANCH  15  17
DOCKED: ATOM     17  O   UNL d   1      23.694  52.817  21.315 -0.06 -0.06    -0.303 OA
DOCKED: ATOM     18  H   UNL d   1      23.795  52.385  20.446 +0.07 +0.03    +0.222 HD
DOCKED: ENDBRANCH  15  17
DOCKED: BRANCH  15  19
DOCKED: ATOM     19  O   UNL d   1      25.850  53.445  22.337 -0.39 -0.34    -0.303 OA
DOCKED: ATOM     20  H   UNL d   1      26.704  53.878  22.153 +0.03 +0.19    +0.222 HD
DOCKED: ENDBRANCH  15  19
DOCKED: ENDBRANCH  14  15
DOCKED: ENDBRANCH   2  14
DOCKED: BRANCH   6  21
DOCKED: ATOM     21  O   UNL d   1      25.225  52.849  15.924 -0.12 +0.02    -0.278 OA
DOCKED: BRANCH  21  22
DOCKED: ATOM     22  P   UNL d   1      23.719  52.881  15.398 -0.08 -0.02    +0.473 P 
DOCKED: ATOM     23  O   UNL d   1      23.435  53.590  14.117 -0.07 +0.02    -0.228 OA
DOCKED: BRANCH  22  24
DOCKED: ATOM     24  O   UNL d   1      23.340  51.335  15.403 -0.46 -0.02    -0.303 OA
DOCKED: ATOM     25  H   UNL d   1      23.697  50.933  16.235 +0.12 +0.00    +0.222 HD
DOCKED: ENDBRANCH  22  24
DOCKED: BRANCH  22  26
DOCKED: ATOM     26  O   UNL d   1      22.934  53.419  16.688 -0.03 +0.01    -0.303 OA
DOCKED: ATOM     27  H   UNL d   1      22.988  52.749  17.400 +0.07 -0.00    +0.222 HD
DOCKED: ENDBRANCH  22  26
DOCKED: ENDBRANCH  21  22
DOCKED: ENDBRANCH   6  21
DOCKED: BRANCH   3  28
DOCKED: ATOM     28  O   UNL d   1      27.920  54.449  20.456 -0.05 -0.09    -0.278 OA
DOCKED: BRANCH  28  29
DOCKED: ATOM     29  P   UNL d   1      29.102  53.964  21.407 -0.06 +0.21    +0.473 P 
DOCKED: ATOM     30  O   UNL d   1      28.687  53.156  22.582 -0.13 -0.22    -0.228 OA
DOCKED: BRANCH  29  31
DOCKED: ATOM     31  O   UNL d   1      30.050  53.251  20.333 -0.12 -0.11    -0.303 OA
DOCKED: ATOM     32  H   UNL d   1      29.869  53.641  19.447 +0.08 +0.07    +0.222 HD
DOCKED: ENDBRANCH  29  31
DOCKED: BRANCH  29  33
DOCKED: ATOM     33  O   UNL d   1      29.871  55.326  21.706 -0.01 -0.08    -0.303 OA
DOCKED: ATOM     34  H   UNL d   1      29.801  55.914  20.914 +0.02 +0.04    +0.222 HD
DOCKED: ENDBRANCH  29  33
DOCKED: ENDBRANCH  28  29
DOCKED: ENDBRANCH   3  28
DOCKED: BRANCH   5  35
DOCKED: ATOM     35  O   UNL d   1      26.788  55.313  16.046 -0.06 -0.00    -0.278 OA
DOCKED: BRANCH  35  36
DOCKED: ATOM     36  P   UNL d   1      26.048  56.605  16.619 -0.01 +0.01    +0.473 P 
DOCKED: ATOM     37  O   UNL d   1      25.308  57.425  15.610 -0.01 +0.00    -0.228 OA
DOCKED: BRANCH  36  38
DOCKED: ATOM     38  O   UNL d   1      25.125  55.975  17.754 -0.00 -0.01    -0.303 OA
DOCKED: ATOM     39  H   UNL d   1      25.647  55.892  18.582 +0.01 +0.02    +0.222 HD
DOCKED: ENDBRANCH  36  38
DOCKED: BRANCH  36  40
DOCKED: ATOM     40  O   UNL d   1      27.209  57.331  17.428 -0.01 -0.01    -0.303 OA
DOCKED: ATOM     41  H   UNL d   1      28.052  56.827  17.386 +0.03 +0.02    +0.222 HD
DOCKED: ENDBRANCH  36  40
DOCKED: ENDBRANCH  35  36
DOCKED: ENDBRANCH   5  35
DOCKED: BRANCH   4  42
DOCKED: ATOM     42  O   UNL d   1      29.038  54.815  17.829 -0.11 -0.04    -0.278 OA
DOCKED: BRANCH  42  43
DOCKED: ATOM     43  P   UNL d   1      29.801  56.114  18.352 -0.03 +0.06    +0.473 P 
DOCKED: ATOM     44  O   UNL d   1      30.229  57.115  17.335 -0.05 -0.02    -0.228 OA
DOCKED: BRANCH  43  45
DOCKED: ATOM     45  O   UNL d   1      28.802  56.687  19.450 -0.01 -0.04    -0.303 OA
DOCKED: ATOM     46  H   UNL d   1      28.580  56.010  20.120 +0.02 +0.04    +0.222 HD
DOCKED: ENDBRANCH  43  45
DOCKED: BRANCH  43  47
DOCKED: ATOM     47  O   UNL d   1      30.974  55.508  19.262 -0.04 -0.06    -0.303 OA
DOCKED: ATOM     48  H   UNL d   1      30.579  55.036  20.024 +0.05 +0.05    +0.222 HD
DOCKED: ENDBRANCH  43  47
DOCKED: ENDBRANCH  42  43
DOCKED: ENDBRANCH   4  42
DOCKED: TORSDOF 24
DOCKED: TER
DOCKED: ENDMDL
________________________________________________________________________________


	BEGINNING GENETIC ALGORITHM DOCKING 38 of 100
Run: 38 Seed: 1894920664 1794736225 [ Run 38 of 100 GA/GALS ]
Beginning LAMARCKIAN GENETIC ALGORITHM (LGA), with a maximum of 25000000 energy evaluations.

Final-Value: -17.383


	FINAL GENETIC ALGORITHM DOCKED STATE
	_______________________________________________


Detailed state:  trans 18.687 20.406 27.392 quatxyzw 0.648083 0.250383 0.328194 0.639989 center 0.035 0.082 -0.065 ntor 24 -163.6538 24.8910 53.1466 -20.2630 61.3176 -101.4137 -125.3360 -63.7341 9.1761 -92.0879 168.2645 77.2157 41.4913 -85.8453 -28.9665 71.9060 -74.0332 179.5091 7.2488 0.1895 -47.6032 -13.1307 45.1304 26.5622
State:	 18.687  20.406  27.392   0.843  0.326  0.427 100.418   -163.65   24.89   53.15  -20.26   61.32 -101.41 -125.34  -63.73    9.18  -92.09  168.26   77.22   41.49  -85.85  -28.97   71.91  -74.03  179.51    7.25    0.19  -47.60  -13.13   45.13   26.56

DOCKED: MODEL       38
DOCKED: USER    Run = 38
DOCKED: USER    DPF = D:/Protein_go_brrr/autodock/final/6BB5/IHP/dock.dpf
DOCKED: USER  
DOCKED: USER    Estimated Free Energy of Binding    =   +3.29 kcal/mol  [=(1)+(2)+(3)-(4)]
DOCKED: USER    
DOCKED: USER    (1) Final Intermolecular Energy     =   -3.87 kcal/mol
DOCKED: USER        vdW + Hbond + desolv Energy     =   -3.47 kcal/mol
DOCKED: USER        Electrostatic Energy            =   -0.40 kcal/mol
DOCKED: USER    (2) Final Total Internal Energy     =  -13.52 kcal/mol
DOCKED: USER    (3) Torsional Free Energy           =   +7.16 kcal/mol
DOCKED: USER    (4) Unbound System's Energy  [=(2)] =  -13.52 kcal/mol
DOCKED: USER    
DOCKED: USER    
DOCKED: USER    NEWDPF move IHP_ideal_opt.pdbqt
DOCKED: USER    NEWDPF about 0.035000 0.082000 -0.065000
DOCKED: USER    NEWDPF tran0 18.687128 20.406322 27.391881
DOCKED: USER    NEWDPF quaternion0 0.648083 0.250383 0.328194 0.639989
DOCKED: USER    NEWDPF axisangle0 0.843436 0.325856 0.427122 100.417996
DOCKED: USER    NEWDPF quat0 0.843436 0.325856 0.427122 100.417996
DOCKED: USER    NEWDPF dihe0 -163.65 24.89 53.15 -20.26 61.32 -101.41 -125.34 -63.73 9.18 -92.09 168.26 77.22 41.49 -85.85 -28.97 71.91 -74.03 179.51 7.25 0.19 -47.60 -13.13 45.13 26.56 
DOCKED: USER  keepresnum = 1 
DOCKED: USER  
DOCKED: REMARK  24 active torsions:
DOCKED: REMARK  status: ('A' for Active; 'I' for Inactive)
DOCKED: REMARK    1  A    between atoms: C_1  and  O_7 
DOCKED: REMARK    2  A    between atoms: C_2  and  O_12 
DOCKED: REMARK    3  A    between atoms: C_3  and  O_17 
DOCKED: REMARK    4  A    between atoms: C_4  and  O_22 
DOCKED: REMARK    5  A    between atoms: C_5  and  O_27 
DOCKED: REMARK    6  A    between atoms: C_6  and  O_32 
DOCKED: REMARK    7  A    between atoms: O_7  and  P_8 
DOCKED: REMARK    8  A    between atoms: P_8  and  O_10 
DOCKED: REMARK    9  A    between atoms: P_8  and  O_11 
DOCKED: REMARK   10  A    between atoms: O_12  and  P_13 
DOCKED: REMARK   11  A    between atoms: P_13  and  O_15 
DOCKED: REMARK   12  A    between atoms: P_13  and  O_16 
DOCKED: REMARK   13  A    between atoms: O_17  and  P_18 
DOCKED: REMARK   14  A    between atoms: P_18  and  O_20 
DOCKED: REMARK   15  A    between atoms: P_18  and  O_21 
DOCKED: REMARK   16  A    between atoms: O_22  and  P_23 
DOCKED: REMARK   17  A    between atoms: P_23  and  O_25 
DOCKED: REMARK   18  A    between atoms: P_23  and  O_26 
DOCKED: REMARK   19  A    between atoms: O_27  and  P_28 
DOCKED: REMARK   20  A    between atoms: P_28  and  O_30 
DOCKED: REMARK   21  A    between atoms: P_28  and  O_31 
DOCKED: REMARK   22  A    between atoms: O_32  and  P_33 
DOCKED: REMARK   23  A    between atoms: P_33  and  O_35 
DOCKED: REMARK   24  A    between atoms: P_33  and  O_36 
DOCKED: USER                              x       y       z     vdW  Elec       q    Type
DOCKED: USER                           _______ _______ _______ _____ _____    ______ ____
DOCKED: ROOT
DOCKED: ATOM      1  C   UNL d   1      18.935  21.122  28.945 -0.04 -0.04    +0.194 C 
DOCKED: ATOM      2  C   UNL d   1      17.475  20.919  28.536 -0.05 -0.07    +0.194 C 
DOCKED: ATOM      3  C   UNL d   1      17.235  21.313  27.077 -0.11 -0.06    +0.194 C 
DOCKED: ATOM      4  C   UNL d   1      18.205  20.644  26.106 -0.15 -0.07    +0.194 C 
DOCKED: ATOM      5  C   UNL d   1      19.664  20.722  26.534 -0.09 -0.04    +0.194 C 
DOCKED: ATOM      6  C   UNL d   1      19.896  20.388  28.009 -0.06 -0.05    +0.194 C 
DOCKED: ENDROOT
DOCKED: BRANCH   1   7
DOCKED: ATOM      7  O   UNL d   1      19.112  20.574  30.253 -0.01 +0.06    -0.278 OA
DOCKED: BRANCH   7   8
DOCKED: ATOM      8  P   UNL d   1      19.485  21.566  31.448 +0.01 -0.04    +0.473 P 
DOCKED: ATOM      9  O   UNL d   1      18.326  22.087  32.221 +0.00 +0.02    -0.228 OA
DOCKED: BRANCH   8  10
DOCKED: ATOM     10  O   UNL d   1      20.510  20.730  32.339 +0.00 +0.02    -0.303 OA
DOCKED: ATOM     11  H   UNL d   1      21.098  20.210  31.760 +0.01 -0.02    +0.222 HD
DOCKED: ENDBRANCH   8  10
DOCKED: BRANCH   8  12
DOCKED: ATOM     12  O   UNL d   1      20.432  22.662  30.793 -0.01 +0.02    -0.303 OA
DOCKED: ATOM     13  H   UNL d   1      20.843  22.364  29.951 +0.03 -0.02    +0.222 HD
DOCKED: ENDBRANCH   8  12
DOCKED: ENDBRANCH   7   8
DOCKED: ENDBRANCH   1   7
DOCKED: BRANCH   2  14
DOCKED: ATOM     14  O   UNL d   1      17.132  19.537  28.698 -0.09 +0.24    -0.278 OA
DOCKED: BRANCH  14  15
DOCKED: ATOM     15  P   UNL d   1      15.768  19.224  29.476 -0.02 -0.43    +0.473 P 
DOCKED: ATOM     16  O   UNL d   1      15.351  20.209  30.522 -0.02 +0.09    -0.228 OA
DOCKED: BRANCH  15  17
DOCKED: ATOM     17  O   UNL d   1      14.689  19.061  28.316 -0.04 +0.39    -0.303 OA
DOCKED: ATOM     18  H   UNL d   1      14.803  19.746  27.630 +0.06 -0.19    +0.222 HD
DOCKED: ENDBRANCH  15  17
DOCKED: BRANCH  15  19
DOCKED: ATOM     19  O   UNL d   1      15.932  17.722  29.974 -0.05 +0.41    -0.303 OA
DOCKED: ATOM     20  H   UNL d   1      15.745  17.083  29.261 -0.52 -0.64    +0.222 HD
DOCKED: ENDBRANCH  15  19
DOCKED: ENDBRANCH  14  15
DOCKED: ENDBRANCH   2  14
DOCKED: BRANCH   6  21
DOCKED: ATOM     21  O   UNL d   1      21.213  20.832  28.330 -0.04 +0.04    -0.278 OA
DOCKED: BRANCH  21  22
DOCKED: ATOM     22  P   UNL d   1      22.052  20.072  29.454 +0.00 -0.06    +0.473 P 
DOCKED: ATOM     23  O   UNL d   1      21.431  18.890  30.120 -0.00 +0.03    -0.228 OA
DOCKED: BRANCH  22  24
DOCKED: ATOM     24  O   UNL d   1      23.416  19.768  28.692 -0.02 +0.03    -0.303 OA
DOCKED: ATOM     25  H   UNL d   1      23.314  20.059  27.750 +0.05 -0.03    +0.222 HD
DOCKED: ENDBRANCH  22  24
DOCKED: BRANCH  22  26
DOCKED: ATOM     26  O   UNL d   1      22.474  21.281  30.418 -0.02 +0.02    -0.303 OA
DOCKED: ATOM     27  H   UNL d   1      21.747  21.457  31.050 +0.02 -0.02    +0.222 HD
DOCKED: ENDBRANCH  22  26
DOCKED: ENDBRANCH  21  22
DOCKED: ENDBRANCH   6  21
DOCKED: BRANCH   3  28
DOCKED: ATOM     28  O   UNL d   1      15.946  20.837  26.711 -0.14 +0.13    -0.278 OA
DOCKED: BRANCH  28  29
DOCKED: ATOM     29  P   UNL d   1      14.688  21.813  26.748 -0.13 -0.13    +0.473 P 
DOCKED: ATOM     30  O   UNL d   1      14.897  23.151  26.138 -0.19 +0.03    -0.228 OA
DOCKED: BRANCH  29  31
DOCKED: ATOM     31  O   UNL d   1      13.584  20.871  26.072 -0.31 +0.12    -0.303 OA
DOCKED: ATOM     32  H   UNL d   1      13.769  20.814  25.106 -0.41 -0.15    +0.222 HD
DOCKED: ENDBRANCH  29  31
DOCKED: BRANCH  29  33
DOCKED: ATOM     33  O   UNL d   1      14.284  21.779  28.287 -0.04 +0.08    -0.303 OA
DOCKED: ATOM     34  H   UNL d   1      14.858  21.125  28.756 +0.05 -0.08    +0.222 HD
DOCKED: ENDBRANCH  29  33
DOCKED: ENDBRANCH  28  29
DOCKED: ENDBRANCH   3  28
DOCKED: BRANCH   5  35
DOCKED: ATOM     35  O   UNL d   1      20.346  19.732  25.767 -0.09 +0.06    -0.278 OA
DOCKED: BRANCH  35  36
DOCKED: ATOM     36  P   UNL d   1      21.931  19.586  25.869 -0.07 -0.06    +0.473 P 
DOCKED: ATOM     37  O   UNL d   1      22.676  20.843  26.186 -0.14 +0.02    -0.228 OA
DOCKED: BRANCH  36  38
DOCKED: ATOM     38  O   UNL d   1      22.083  18.441  26.967 -0.02 +0.05    -0.303 OA
DOCKED: ATOM     39  H   UNL d   1      21.678  18.747  27.807 +0.02 -0.04    +0.222 HD
DOCKED: ENDBRANCH  36  38
DOCKED: BRANCH  36  40
DOCKED: ATOM     40  O   UNL d   1      22.295  18.856  24.503 -0.06 +0.03    -0.303 OA
DOCKED: ATOM     41  H   UNL d   1      22.915  18.107  24.645 +0.04 -0.01    +0.222 HD
DOCKED: ENDBRANCH  36  40
DOCKED: ENDBRANCH  35  36
DOCKED: ENDBRANCH   5  35
DOCKED: BRANCH   4  42
DOCKED: ATOM     42  O   UNL d   1      18.093  21.342  24.861 -0.14 +0.04    -0.278 OA
DOCKED: BRANCH  42  43
DOCKED: ATOM     43  P   UNL d   1      16.937  20.924  23.844 -0.25 -0.11    +0.473 P 
DOCKED: ATOM     44  O   UNL d   1      17.307  20.776  22.408 -0.42 +0.04    -0.228 OA
DOCKED: BRANCH  43  45
DOCKED: ATOM     45  O   UNL d   1      16.351  19.601  24.505 -0.10 +0.14    -0.303 OA
DOCKED: ATOM     46  H   UNL d   1      15.571  19.795  25.063 +0.06 -0.12    +0.222 HD
DOCKED: ENDBRANCH  43  45
DOCKED: BRANCH  43  47
DOCKED: ATOM     47  O   UNL d   1      15.776  21.985  24.153 +0.06 +0.06    -0.303 OA
DOCKED: ATOM     48  H   UNL d   1      15.073  21.549  24.678 -0.02 -0.07    +0.222 HD
DOCKED: ENDBRANCH  43  47
DOCKED: ENDBRANCH  42  43
DOCKED: ENDBRANCH   4  42
DOCKED: TORSDOF 24
DOCKED: TER
DOCKED: ENDMDL
________________________________________________________________________________


	BEGINNING GENETIC ALGORITHM DOCKING 39 of 100
Run: 39 Seed: 1785124721 1517442253 [ Run 39 of 100 GA/GALS ]
Beginning LAMARCKIAN GENETIC ALGORITHM (LGA), with a maximum of 25000000 energy evaluations.

Final-Value: -17.668


	FINAL GENETIC ALGORITHM DOCKED STATE
	_______________________________________________


Detailed state:  trans 22.525 14.441 14.053 quatxyzw 0.637785 0.373512 0.371793 0.561684 center 0.035 0.082 -0.065 ntor 24 64.8298 128.3967 90.5308 108.4857 -27.2386 -121.5266 -157.4013 -64.0386 124.0236 61.5445 48.9123 -81.8187 -78.3339 108.8227 -50.5140 -157.0480 113.5378 -63.7384 -143.6609 -9.9752 18.6101 -5.4670 -30.2478 166.7703
State:	 22.525  14.441  14.053   0.771  0.451  0.449 111.655     64.83  128.40   90.53  108.49  -27.24 -121.53 -157.40  -64.04  124.02   61.54   48.91  -81.82  -78.33  108.82  -50.51 -157.05  113.54  -63.74 -143.66   -9.98   18.61   -5.47  -30.25  166.77

DOCKED: MODEL       39
DOCKED: USER    Run = 39
DOCKED: USER    DPF = D:/Protein_go_brrr/autodock/final/6BB5/IHP/dock.dpf
DOCKED: USER  
DOCKED: USER    Estimated Free Energy of Binding    =   +4.23 kcal/mol  [=(1)+(2)+(3)-(4)]
DOCKED: USER    
DOCKED: USER    (1) Final Intermolecular Energy     =   -2.93 kcal/mol
DOCKED: USER        vdW + Hbond + desolv Energy     =   -2.88 kcal/mol
DOCKED: USER        Electrostatic Energy            =   -0.05 kcal/mol
DOCKED: USER    (2) Final Total Internal Energy     =  -14.74 kcal/mol
DOCKED: USER    (3) Torsional Free Energy           =   +7.16 kcal/mol
DOCKED: USER    (4) Unbound System's Energy  [=(2)] =  -14.74 kcal/mol
DOCKED: USER    
DOCKED: USER    
DOCKED: USER    NEWDPF move IHP_ideal_opt.pdbqt
DOCKED: USER    NEWDPF about 0.035000 0.082000 -0.065000
DOCKED: USER    NEWDPF tran0 22.524846 14.440518 14.053455
DOCKED: USER    NEWDPF quaternion0 0.637785 0.373512 0.371793 0.561684
DOCKED: USER    NEWDPF axisangle0 0.770875 0.451455 0.449377 111.655292
DOCKED: USER    NEWDPF quat0 0.770875 0.451455 0.449377 111.655292
DOCKED: USER    NEWDPF dihe0 64.83 128.40 90.53 108.49 -27.24 -121.53 -157.40 -64.04 124.02 61.54 48.91 -81.82 -78.33 108.82 -50.51 -157.05 113.54 -63.74 -143.66 -9.98 18.61 -5.47 -30.25 166.77 
DOCKED: USER  keepresnum = 1 
DOCKED: USER  
DOCKED: REMARK  24 active torsions:
DOCKED: REMARK  status: ('A' for Active; 'I' for Inactive)
DOCKED: REMARK    1  A    between atoms: C_1  and  O_7 
DOCKED: REMARK    2  A    between atoms: C_2  and  O_12 
DOCKED: REMARK    3  A    between atoms: C_3  and  O_17 
DOCKED: REMARK    4  A    between atoms: C_4  and  O_22 
DOCKED: REMARK    5  A    between atoms: C_5  and  O_27 
DOCKED: REMARK    6  A    between atoms: C_6  and  O_32 
DOCKED: REMARK    7  A    between atoms: O_7  and  P_8 
DOCKED: REMARK    8  A    between atoms: P_8  and  O_10 
DOCKED: REMARK    9  A    between atoms: P_8  and  O_11 
DOCKED: REMARK   10  A    between atoms: O_12  and  P_13 
DOCKED: REMARK   11  A    between atoms: P_13  and  O_15 
DOCKED: REMARK   12  A    between atoms: P_13  and  O_16 
DOCKED: REMARK   13  A    between atoms: O_17  and  P_18 
DOCKED: REMARK   14  A    between atoms: P_18  and  O_20 
DOCKED: REMARK   15  A    between atoms: P_18  and  O_21 
DOCKED: REMARK   16  A    between atoms: O_22  and  P_23 
DOCKED: REMARK   17  A    between atoms: P_23  and  O_25 
DOCKED: REMARK   18  A    between atoms: P_23  and  O_26 
DOCKED: REMARK   19  A    between atoms: O_27  and  P_28 
DOCKED: REMARK   20  A    between atoms: P_28  and  O_30 
DOCKED: REMARK   21  A    between atoms: P_28  and  O_31 
DOCKED: REMARK   22  A    between atoms: O_32  and  P_33 
DOCKED: REMARK   23  A    between atoms: P_33  and  O_35 
DOCKED: REMARK   24  A    between atoms: P_33  and  O_36 
DOCKED: USER                              x       y       z     vdW  Elec       q    Type
DOCKED: USER                           _______ _______ _______ _____ _____    ______ ____
DOCKED: ROOT
DOCKED: ATOM      1  C   UNL d   1      22.331  15.381  15.490 -0.09 +0.11    +0.194 C 
DOCKED: ATOM      2  C   UNL d   1      21.037  15.013  14.761 -0.08 +0.15    +0.194 C 
DOCKED: ATOM      3  C   UNL d   1      21.172  15.182  13.246 -0.07 +0.10    +0.194 C 
DOCKED: ATOM      4  C   UNL d   1      22.387  14.461  12.667 -0.02 +0.06    +0.194 C 
DOCKED: ATOM      5  C   UNL d   1      23.680  14.708  13.432 -0.05 +0.06    +0.194 C 
DOCKED: ATOM      6  C   UNL d   1      23.531  14.600  14.951 -0.05 +0.07    +0.194 C 
DOCKED: ENDROOT
DOCKED: BRANCH   1   7
DOCKED: ATOM      7  O   UNL d   1      22.181  15.033  16.868 -0.07 -0.14    -0.278 OA
DOCKED: BRANCH   7   8
DOCKED: ATOM      8  P   UNL d   1      22.700  13.602  17.352 +0.01 +0.15    +0.473 P 
DOCKED: ATOM      9  O   UNL d   1      22.716  12.549  16.300 -0.00 -0.06    -0.228 OA
DOCKED: BRANCH   8  10
DOCKED: ATOM     10  O   UNL d   1      24.143  13.901  17.964 -0.00 -0.11    -0.303 OA
DOCKED: ATOM     11  H   UNL d   1      24.822  13.774  17.276 +0.03 +0.09    +0.222 HD
DOCKED: ENDBRANCH   8  10
DOCKED: BRANCH   8  12
DOCKED: ATOM     12  O   UNL d   1      21.849  13.271  18.652 -0.00 -0.07    -0.303 OA
DOCKED: ATOM     13  H   UNL d   1      20.967  12.886  18.448 +0.02 +0.05    +0.222 HD
DOCKED: ENDBRANCH   8  12
DOCKED: ENDBRANCH   7   8
DOCKED: ENDBRANCH   1   7
DOCKED: BRANCH   2  14
DOCKED: ATOM     14  O   UNL d   1      20.717  13.644  15.041 -0.03 -0.14    -0.278 OA
DOCKED: BRANCH  14  15
DOCKED: ATOM     15  P   UNL d   1      19.296  13.367  15.725 -0.06 +0.28    +0.473 P 
DOCKED: ATOM     16  O   UNL d   1      18.797  11.956  15.691 -0.03 -0.07    -0.228 OA
DOCKED: BRANCH  15  17
DOCKED: ATOM     17  O   UNL d   1      19.463  13.927  17.206 -0.12 -0.20    -0.303 OA
DOCKED: ATOM     18  H   UNL d   1      20.380  14.218  17.371 +0.04 +0.14    +0.222 HD
DOCKED: ENDBRANCH  15  17
DOCKED: BRANCH  15  19
DOCKED: ATOM     19  O   UNL d   1      18.327  14.452  15.080 -0.56 -0.32    -0.303 OA
DOCKED: ATOM     20  H   UNL d   1      18.406  14.474  14.109 -0.06 +0.18    +0.222 HD
DOCKED: ENDBRANCH  15  19
DOCKED: ENDBRANCH  14  15
DOCKED: ENDBRANCH   2  14
DOCKED: BRANCH   6  21
DOCKED: ATOM     21  O   UNL d   1      24.700  15.182  15.523 -0.07 -0.11    -0.278 OA
DOCKED: BRANCH  21  22
DOCKED: ATOM     22  P   UNL d   1      26.026  14.308  15.676 -0.05 +0.21    +0.473 P 
DOCKED: ATOM     23  O   UNL d   1      25.897  12.823  15.657 -0.02 -0.07    -0.228 OA
DOCKED: BRANCH  22  24
DOCKED: ATOM     24  O   UNL d   1      26.948  14.913  14.528 -0.04 -0.13    -0.303 OA
DOCKED: ATOM     25  H   UNL d   1      26.822  14.366  13.712 +0.05 +0.07    +0.222 HD
DOCKED: ENDBRANCH  22  24
DOCKED: BRANCH  22  26
DOCKED: ATOM     26  O   UNL d   1      26.682  14.940  16.995 -0.27 -0.28    -0.303 OA
DOCKED: ATOM     27  H   UNL d   1      26.092  14.774  17.759 +0.04 +0.19    +0.222 HD
DOCKED: ENDBRANCH  22  26
DOCKED: ENDBRANCH  21  22
DOCKED: ENDBRANCH   6  21
DOCKED: BRANCH   3  28
DOCKED: ATOM     28  O   UNL d   1      20.043  14.563  12.644 -0.04 -0.13    -0.278 OA
DOCKED: BRANCH  28  29
DOCKED: ATOM     29  P   UNL d   1      18.863  15.451  12.047 -0.10 +0.26    +0.473 P 
DOCKED: ATOM     30  O   UNL d   1      17.769  14.698  11.381 -0.10 -0.14    -0.228 OA
DOCKED: BRANCH  29  31
DOCKED: ATOM     31  O   UNL d   1      18.472  16.305  13.343 -0.38 -0.32    -0.303 OA
DOCKED: ATOM     32  H   UNL d   1      17.621  15.961  13.701 -0.46 +0.21    +0.222 HD
DOCKED: ENDBRANCH  29  31
DOCKED: BRANCH  29  33
DOCKED: ATOM     33  O   UNL d   1      19.656  16.506  11.157 -0.05 -0.12    -0.303 OA
DOCKED: ATOM     34  H   UNL d   1      20.626  16.370  11.286 +0.04 +0.08    +0.222 HD
DOCKED: ENDBRANCH  29  33
DOCKED: ENDBRANCH  28  29
DOCKED: ENDBRANCH   3  28
DOCKED: BRANCH   5  35
DOCKED: ATOM     35  O   UNL d   1      24.575  13.677  13.024 -0.02 -0.06    -0.278 OA
DOCKED: BRANCH  35  36
DOCKED: ATOM     36  P   UNL d   1      25.701  13.974  11.934 -0.03 +0.09    +0.473 P 
DOCKED: ATOM     37  O   UNL d   1      26.872  13.043  11.946 -0.03 -0.04    -0.228 OA
DOCKED: BRANCH  36  38
DOCKED: ATOM     38  O   UNL d   1      24.861  13.950  10.581 -0.01 -0.05    -0.303 OA
DOCKED: ATOM     39  H   UNL d   1      24.108  14.575  10.660 +0.02 +0.04    +0.222 HD
DOCKED: ENDBRANCH  36  38
DOCKED: BRANCH  36  40
DOCKED: ATOM     40  O   UNL d   1      26.004  15.518  12.169 -0.11 -0.08    -0.303 OA
DOCKED: ATOM     41  H   UNL d   1      25.708  15.815  13.058 +0.08 +0.08    +0.222 HD
DOCKED: ENDBRANCH  36  40
DOCKED: ENDBRANCH  35  36
DOCKED: ENDBRANCH   5  35
DOCKED: BRANCH   4  42
DOCKED: ATOM     42  O   UNL d   1      22.578  14.970  11.342 -0.01 -0.06    -0.278 OA
DOCKED: BRANCH  42  43
DOCKED: ATOM     43  P   UNL d   1      22.747  16.543  11.137 -0.02 +0.11    +0.473 P 
DOCKED: ATOM     44  O   UNL d   1      22.298  17.432  12.245 -0.10 -0.07    -0.228 OA
DOCKED: BRANCH  43  45
DOCKED: ATOM     45  O   UNL d   1      24.290  16.683  10.775 -0.06 -0.06    -0.303 OA
DOCKED: ATOM     46  H   UNL d   1      24.809  15.930  11.122 +0.04 +0.05    +0.222 HD
DOCKED: ENDBRANCH  43  45
DOCKED: BRANCH  43  47
DOCKED: ATOM     47  O   UNL d   1      22.054  16.804   9.716 -0.01 -0.06    -0.303 OA
DOCKED: ATOM     48  H   UNL d   1      21.134  17.109   9.857 +0.03 +0.05    +0.222 HD
DOCKED: ENDBRANCH  43  47
DOCKED: ENDBRANCH  42  43
DOCKED: ENDBRANCH   4  42
DOCKED: TORSDOF 24
DOCKED: TER
DOCKED: ENDMDL
________________________________________________________________________________


	BEGINNING GENETIC ALGORITHM DOCKING 40 of 100
Run: 40 Seed: 651041927 1960161847 [ Run 40 of 100 GA/GALS ]
Beginning LAMARCKIAN GENETIC ALGORITHM (LGA), with a maximum of 25000000 energy evaluations.

Final-Value: -17.333


	FINAL GENETIC ALGORITHM DOCKED STATE
	_______________________________________________


Detailed state:  trans 1.985 52.523 -0.687 quatxyzw 0.296834 0.382064 0.826339 -0.288238 center 0.035 0.082 -0.065 ntor 24 133.2223 81.5974 72.7970 68.1305 19.5662 180.0000 -152.3380 38.7217 -19.1335 55.1545 -2.5422 -121.9448 -24.9272 126.0538 169.5256 13.1189 -162.1138 -11.4864 -7.1557 -22.4378 -14.9138 -13.7670 -42.3831 159.3694
State:	  1.985  52.523  -0.687   0.310  0.399  0.863 -146.495    133.22   81.60   72.80   68.13   19.57  180.00 -152.34   38.72  -19.13   55.15   -2.54 -121.94  -24.93  126.05  169.53   13.12 -162.11  -11.49   -7.16  -22.44  -14.91  -13.77  -42.38  159.37

DOCKED: MODEL       40
DOCKED: USER    Run = 40
DOCKED: USER    DPF = D:/Protein_go_brrr/autodock/final/6BB5/IHP/dock.dpf
DOCKED: USER  
DOCKED: USER    Estimated Free Energy of Binding    =   +3.76 kcal/mol  [=(1)+(2)+(3)-(4)]
DOCKED: USER    
DOCKED: USER    (1) Final Intermolecular Energy     =   -3.40 kcal/mol
DOCKED: USER        vdW + Hbond + desolv Energy     =   -3.28 kcal/mol
DOCKED: USER        Electrostatic Energy            =   -0.12 kcal/mol
DOCKED: USER    (2) Final Total Internal Energy     =  -13.93 kcal/mol
DOCKED: USER    (3) Torsional Free Energy           =   +7.16 kcal/mol
DOCKED: USER    (4) Unbound System's Energy  [=(2)] =  -13.93 kcal/mol
DOCKED: USER    
DOCKED: USER    
DOCKED: USER    NEWDPF move IHP_ideal_opt.pdbqt
DOCKED: USER    NEWDPF about 0.035000 0.082000 -0.065000
DOCKED: USER    NEWDPF tran0 1.985183 52.522787 -0.686958
DOCKED: USER    NEWDPF quaternion0 0.296834 0.382064 0.826339 -0.288238
DOCKED: USER    NEWDPF axisangle0 0.309990 0.398998 0.862964 -146.495037
DOCKED: USER    NEWDPF quat0 0.309990 0.398998 0.862964 -146.495037
DOCKED: USER    NEWDPF dihe0 133.22 81.60 72.80 68.13 19.57 180.00 -152.34 38.72 -19.13 55.15 -2.54 -121.94 -24.93 126.05 169.53 13.12 -162.11 -11.49 -7.16 -22.44 -14.91 -13.77 -42.38 159.37 
DOCKED: USER  keepresnum = 1 
DOCKED: USER  
DOCKED: REMARK  24 active torsions:
DOCKED: REMARK  status: ('A' for Active; 'I' for Inactive)
DOCKED: REMARK    1  A    between atoms: C_1  and  O_7 
DOCKED: REMARK    2  A    between atoms: C_2  and  O_12 
DOCKED: REMARK    3  A    between atoms: C_3  and  O_17 
DOCKED: REMARK    4  A    between atoms: C_4  and  O_22 
DOCKED: REMARK    5  A    between atoms: C_5  and  O_27 
DOCKED: REMARK    6  A    between atoms: C_6  and  O_32 
DOCKED: REMARK    7  A    between atoms: O_7  and  P_8 
DOCKED: REMARK    8  A    between atoms: P_8  and  O_10 
DOCKED: REMARK    9  A    between atoms: P_8  and  O_11 
DOCKED: REMARK   10  A    between atoms: O_12  and  P_13 
DOCKED: REMARK   11  A    between atoms: P_13  and  O_15 
DOCKED: REMARK   12  A    between atoms: P_13  and  O_16 
DOCKED: REMARK   13  A    between atoms: O_17  and  P_18 
DOCKED: REMARK   14  A    between atoms: P_18  and  O_20 
DOCKED: REMARK   15  A    between atoms: P_18  and  O_21 
DOCKED: REMARK   16  A    between atoms: O_22  and  P_23 
DOCKED: REMARK   17  A    between atoms: P_23  and  O_25 
DOCKED: REMARK   18  A    between atoms: P_23  and  O_26 
DOCKED: REMARK   19  A    between atoms: O_27  and  P_28 
DOCKED: REMARK   20  A    between atoms: P_28  and  O_30 
DOCKED: REMARK   21  A    between atoms: P_28  and  O_31 
DOCKED: REMARK   22  A    between atoms: O_32  and  P_33 
DOCKED: REMARK   23  A    between atoms: P_33  and  O_35 
DOCKED: REMARK   24  A    between atoms: P_33  and  O_36 
DOCKED: USER                              x       y       z     vdW  Elec       q    Type
DOCKED: USER                           _______ _______ _______ _____ _____    ______ ____
DOCKED: ROOT
DOCKED: ATOM      1  C   UNL d   1       1.945  54.249  -0.640 -0.00 +0.03    +0.194 C 
DOCKED: ATOM      2  C   UNL d   1       2.704  53.637  -1.819 -0.01 +0.05    +0.194 C 
DOCKED: ATOM      3  C   UNL d   1       3.581  52.463  -1.380 -0.08 +0.09    +0.194 C 
DOCKED: ATOM      4  C   UNL d   1       2.820  51.412  -0.576 -0.09 +0.12    +0.194 C 
DOCKED: ATOM      5  C   UNL d   1       1.958  51.988   0.540 -0.07 +0.06    +0.194 C 
DOCKED: ATOM      6  C   UNL d   1       1.127  53.202   0.117 -0.01 +0.04    +0.194 C 
DOCKED: ENDROOT
DOCKED: BRANCH   1   7
DOCKED: ATOM      7  O   UNL d   1       1.027  55.217  -1.155 +0.00 -0.03    -0.278 OA
DOCKED: BRANCH   7   8
DOCKED: ATOM      8  P   UNL d   1       1.017  56.675  -0.504 +0.00 +0.02    +0.473 P 
DOCKED: ATOM      9  O   UNL d   1       2.304  57.101   0.110 +0.00 -0.01    -0.228 OA
DOCKED: BRANCH   8  10
DOCKED: ATOM     10  O   UNL d   1       0.544  57.627  -1.694 +0.00 -0.01    -0.303 OA
DOCKED: ATOM     11  H   UNL d   1       0.755  57.209  -2.550 +0.00 +0.01    +0.222 HD
DOCKED: ENDBRANCH   8  10
DOCKED: BRANCH   8  12
DOCKED: ATOM     12  O   UNL d   1      -0.248  56.690   0.457 +0.00 -0.01    -0.303 OA
DOCKED: ATOM     13  H   UNL d   1      -0.401  55.828   0.906 +0.00 +0.01    +0.222 HD
DOCKED: ENDBRANCH   8  12
DOCKED: ENDBRANCH   7   8
DOCKED: ENDBRANCH   1   7
DOCKED: BRANCH   2  14
DOCKED: ATOM     14  O   UNL d   1       1.760  53.165  -2.788 -0.01 -0.08    -0.278 OA
DOCKED: BRANCH  14  15
DOCKED: ATOM     15  P   UNL d   1       1.665  53.991  -4.157 +0.01 +0.09    +0.473 P 
DOCKED: ATOM     16  O   UNL d   1       0.654  53.522  -5.156 +0.00 -0.04    -0.228 OA
DOCKED: BRANCH  15  17
DOCKED: ATOM     17  O   UNL d   1       1.417  55.493  -3.687 +0.00 -0.03    -0.303 OA
DOCKED: ATOM     18  H   UNL d   1       1.029  55.522  -2.791 +0.00 +0.02    +0.222 HD
DOCKED: ENDBRANCH  15  17
DOCKED: BRANCH  15  19
DOCKED: ATOM     19  O   UNL d   1       3.165  54.064  -4.681 +0.00 -0.06    -0.303 OA
DOCKED: ATOM     20  H   UNL d   1       3.759  53.501  -4.152 +0.02 +0.06    +0.222 HD
DOCKED: ENDBRANCH  15  19
DOCKED: ENDBRANCH  14  15
DOCKED: ENDBRANCH   2  14
DOCKED: BRANCH   6  21
DOCKED: ATOM     21  O   UNL d   1       0.661  53.820   1.314 -0.01 -0.03    -0.278 OA
DOCKED: BRANCH  21  22
DOCKED: ATOM     22  P   UNL d   1      -0.906  53.904   1.604 -0.00 +0.04    +0.473 P 
DOCKED: ATOM     23  O   UNL d   1      -1.387  54.912   2.592 -0.00 -0.01    -0.228 OA
DOCKED: BRANCH  22  24
DOCKED: ATOM     24  O   UNL d   1      -1.500  54.071   0.137 +0.00 -0.03    -0.303 OA
DOCKED: ATOM     25  H   UNL d   1      -0.968  54.762  -0.334 +0.00 +0.02    +0.222 HD
DOCKED: ENDBRANCH  22  24
DOCKED: BRANCH  22  26
DOCKED: ATOM     26  O   UNL d   1      -1.258  52.375   1.932 -0.00 -0.04    -0.303 OA
DOCKED: ATOM     27  H   UNL d   1      -0.430  51.852   1.958 +0.02 +0.03    +0.222 HD
DOCKED: ENDBRANCH  22  26
DOCKED: ENDBRANCH  21  22
DOCKED: ENDBRANCH   6  21
DOCKED: BRANCH   3  28
DOCKED: ATOM     28  O   UNL d   1       4.020  51.793  -2.555 -0.12 -0.25    -0.278 OA
DOCKED: BRANCH  28  29
DOCKED: ATOM     29  P   UNL d   1       5.452  52.112  -3.175 -0.13 +0.27    +0.473 P 
DOCKED: ATOM     30  O   UNL d   1       6.129  53.320  -2.637 -0.08 -0.05    -0.228 OA
DOCKED: BRANCH  29  31
DOCKED: ATOM     31  O   UNL d   1       6.179  50.706  -2.935 -0.85 -0.27    -0.303 OA
DOCKED: ATOM     32  H   UNL d   1       6.756  50.782  -2.140 -0.07 +0.10    +0.222 HD
DOCKED: ENDBRANCH  29  31
DOCKED: BRANCH  29  33
DOCKED: ATOM     33  O   UNL d   1       5.152  52.090  -4.738 -0.07 -0.14    -0.303 OA
DOCKED: ATOM     34  H   UNL d   1       5.023  53.018  -5.053 +0.03 +0.06    +0.222 HD
DOCKED: ENDBRANCH  29  33
DOCKED: ENDBRANCH  28  29
DOCKED: ENDBRANCH   3  28
DOCKED: BRANCH   5  35
DOCKED: ATOM     35  O   UNL d   1       1.041  50.955   0.894 -0.05 -0.09    -0.278 OA
DOCKED: BRANCH  35  36
DOCKED: ATOM     36  P   UNL d   1       1.435  49.874   1.999 -0.14 +0.15    +0.473 P 
DOCKED: ATOM     37  O   UNL d   1       1.497  48.458   1.522 -0.19 -0.10    -0.228 OA
DOCKED: BRANCH  36  38
DOCKED: ATOM     38  O   UNL d   1       2.821  50.446   2.535 -0.22 -0.10    -0.303 OA
DOCKED: ATOM     39  H   UNL d   1       3.551  50.078   1.992 +0.08 +0.09    +0.222 HD
DOCKED: ENDBRANCH  36  38
DOCKED: BRANCH  36  40
DOCKED: ATOM     40  O   UNL d   1       0.409  50.196   3.171 -0.07 -0.06    -0.303 OA
DOCKED: ATOM     41  H   UNL d   1      -0.315  50.788   2.868 +0.03 +0.04    +0.222 HD
DOCKED: ENDBRANCH  36  40
DOCKED: ENDBRANCH  35  36
DOCKED: ENDBRANCH   5  35
DOCKED: BRANCH   4  42
DOCKED: ATOM     42  O   UNL d   1       3.801  50.572   0.042 +0.01 -0.20    -0.278 OA
DOCKED: BRANCH  42  43
DOCKED: ATOM     43  P   UNL d   1       5.020  51.250   0.816 -0.24 +0.14    +0.473 P 
DOCKED: ATOM     44  O   UNL d   1       4.752  52.528   1.532 -0.14 -0.04    -0.228 OA
DOCKED: BRANCH  43  45
DOCKED: ATOM     45  O   UNL d   1       5.535  50.073   1.755 -0.65 -0.05    -0.303 OA
DOCKED: ATOM     46  H   UNL d   1       4.939  49.937   2.519 +0.01 +0.07    +0.222 HD
DOCKED: ENDBRANCH  43  45
DOCKED: BRANCH  43  47
DOCKED: ATOM     47  O   UNL d   1       6.173  51.308  -0.296 -0.28 -0.07    -0.303 OA
DOCKED: ATOM     48  H   UNL d   1       5.846  51.805  -1.074 +0.07 +0.08    +0.222 HD
DOCKED: ENDBRANCH  43  47
DOCKED: ENDBRANCH  42  43
DOCKED: ENDBRANCH   4  42
DOCKED: TORSDOF 24
DOCKED: TER
DOCKED: ENDMDL
________________________________________________________________________________


	BEGINNING GENETIC ALGORITHM DOCKING 41 of 100
Run: 41 Seed: 67393781 544281897 [ Run 41 of 100 GA/GALS ]
Beginning LAMARCKIAN GENETIC ALGORITHM (LGA), with a maximum of 25000000 energy evaluations.

Final-Value: -15.805


	FINAL GENETIC ALGORITHM DOCKED STATE
	_______________________________________________


Detailed state:  trans 15.660 50.692 -6.484 quatxyzw -0.781908 -0.224587 0.516085 0.268025 center 0.035 0.082 -0.065 ntor 24 100.8155 111.8819 127.2875 111.8580 -72.3092 -113.5846 -77.0482 -73.1179 -112.2442 111.5967 62.0767 -113.2845 -48.0392 -94.6305 -98.7964 76.5819 2.1555 107.9632 -161.1026 -1.2480 141.9974 136.0796 -81.7044 157.9997
State:	 15.660  50.692  -6.484  -0.812 -0.233  0.536 148.906    100.82  111.88  127.29  111.86  -72.31 -113.58  -77.05  -73.12 -112.24  111.60   62.08 -113.28  -48.04  -94.63  -98.80   76.58    2.16  107.96 -161.10   -1.25  142.00  136.08  -81.70  158.00

DOCKED: MODEL       41
DOCKED: USER    Run = 41
DOCKED: USER    DPF = D:/Protein_go_brrr/autodock/final/6BB5/IHP/dock.dpf
DOCKED: USER  
DOCKED: USER    Estimated Free Energy of Binding    =   +2.46 kcal/mol  [=(1)+(2)+(3)-(4)]
DOCKED: USER    
DOCKED: USER    (1) Final Intermolecular Energy     =   -4.70 kcal/mol
DOCKED: USER        vdW + Hbond + desolv Energy     =   -4.62 kcal/mol
DOCKED: USER        Electrostatic Energy            =   -0.08 kcal/mol
DOCKED: USER    (2) Final Total Internal Energy     =  -11.11 kcal/mol
DOCKED: USER    (3) Torsional Free Energy           =   +7.16 kcal/mol
DOCKED: USER    (4) Unbound System's Energy  [=(2)] =  -11.11 kcal/mol
DOCKED: USER    
DOCKED: USER    
DOCKED: USER    NEWDPF move IHP_ideal_opt.pdbqt
DOCKED: USER    NEWDPF about 0.035000 0.082000 -0.065000
DOCKED: USER    NEWDPF tran0 15.659985 50.692097 -6.483769
DOCKED: USER    NEWDPF quaternion0 -0.781908 -0.224587 0.516085 0.268025
DOCKED: USER    NEWDPF axisangle0 -0.811603 -0.233116 0.535684 148.906422
DOCKED: USER    NEWDPF quat0 -0.811603 -0.233116 0.535684 148.906422
DOCKED: USER    NEWDPF dihe0 100.82 111.88 127.29 111.86 -72.31 -113.58 -77.05 -73.12 -112.24 111.60 62.08 -113.28 -48.04 -94.63 -98.80 76.58 2.16 107.96 -161.10 -1.25 142.00 136.08 -81.70 158.00 
DOCKED: USER  keepresnum = 1 
DOCKED: USER  
DOCKED: REMARK  24 active torsions:
DOCKED: REMARK  status: ('A' for Active; 'I' for Inactive)
DOCKED: REMARK    1  A    between atoms: C_1  and  O_7 
DOCKED: REMARK    2  A    between atoms: C_2  and  O_12 
DOCKED: REMARK    3  A    between atoms: C_3  and  O_17 
DOCKED: REMARK    4  A    between atoms: C_4  and  O_22 
DOCKED: REMARK    5  A    between atoms: C_5  and  O_27 
DOCKED: REMARK    6  A    between atoms: C_6  and  O_32 
DOCKED: REMARK    7  A    between atoms: O_7  and  P_8 
DOCKED: REMARK    8  A    between atoms: P_8  and  O_10 
DOCKED: REMARK    9  A    between atoms: P_8  and  O_11 
DOCKED: REMARK   10  A    between atoms: O_12  and  P_13 
DOCKED: REMARK   11  A    between atoms: P_13  and  O_15 
DOCKED: REMARK   12  A    between atoms: P_13  and  O_16 
DOCKED: REMARK   13  A    between atoms: O_17  and  P_18 
DOCKED: REMARK   14  A    between atoms: P_18  and  O_20 
DOCKED: REMARK   15  A    between atoms: P_18  and  O_21 
DOCKED: REMARK   16  A    between atoms: O_22  and  P_23 
DOCKED: REMARK   17  A    between atoms: P_23  and  O_25 
DOCKED: REMARK   18  A    between atoms: P_23  and  O_26 
DOCKED: REMARK   19  A    between atoms: O_27  and  P_28 
DOCKED: REMARK   20  A    between atoms: P_28  and  O_30 
DOCKED: REMARK   21  A    between atoms: P_28  and  O_31 
DOCKED: REMARK   22  A    between atoms: O_32  and  P_33 
DOCKED: REMARK   23  A    between atoms: P_33  and  O_35 
DOCKED: REMARK   24  A    between atoms: P_33  and  O_36 
DOCKED: USER                              x       y       z     vdW  Elec       q    Type
DOCKED: USER                           _______ _______ _______ _____ _____    ______ ____
DOCKED: ROOT
DOCKED: ATOM      1  C   UNL d   1      15.018  50.941  -8.068 -0.02 -0.01    +0.194 C 
DOCKED: ATOM      2  C   UNL d   1      14.310  51.696  -6.942 -0.03 -0.02    +0.194 C 
DOCKED: ATOM      3  C   UNL d   1      14.106  50.813  -5.709 -0.11 -0.03    +0.194 C 
DOCKED: ATOM      4  C   UNL d   1      15.390  50.138  -5.233 -0.10 -0.03    +0.194 C 
DOCKED: ATOM      5  C   UNL d   1      16.189  49.471  -6.345 -0.05 -0.02    +0.194 C 
DOCKED: ATOM      6  C   UNL d   1      16.340  50.330  -7.602 -0.02 -0.01    +0.194 C 
DOCKED: ENDROOT
DOCKED: BRANCH   1   7
DOCKED: ATOM      7  O   UNL d   1      15.324  51.875  -9.107 -0.00 +0.01    -0.278 OA
DOCKED: BRANCH   7   8
DOCKED: ATOM      8  P   UNL d   1      16.554  52.872  -8.895 -0.00 -0.02    +0.473 P 
DOCKED: ATOM      9  O   UNL d   1      17.324  52.664  -7.638 -0.00 +0.01    -0.228 OA
DOCKED: BRANCH   8  10
DOCKED: ATOM     10  O   UNL d   1      17.436  52.684 -10.211 +0.00 +0.01    -0.303 OA
DOCKED: ATOM     11  H   UNL d   1      17.685  51.746 -10.306 +0.00 -0.01    +0.222 HD
DOCKED: ENDBRANCH   8  10
DOCKED: BRANCH   8  12
DOCKED: ATOM     12  O   UNL d   1      15.948  54.325  -9.105 +0.00 +0.01    -0.303 OA
DOCKED: ATOM     13  H   UNL d   1      15.303  54.579  -8.407 +0.00 -0.01    +0.222 HD
DOCKED: ENDBRANCH   8  12
DOCKED: ENDBRANCH   7   8
DOCKED: ENDBRANCH   1   7
DOCKED: BRANCH   2  14
DOCKED: ATOM     14  O   UNL d   1      15.104  52.828  -6.566 -0.01 +0.03    -0.278 OA
DOCKED: BRANCH  14  15
DOCKED: ATOM     15  P   UNL d   1      14.347  54.236  -6.479 +0.02 -0.04    +0.473 P 
DOCKED: ATOM     16  O   UNL d   1      13.319  54.513  -7.530 -0.00 +0.01    -0.228 OA
DOCKED: BRANCH  15  17
DOCKED: ATOM     17  O   UNL d   1      13.745  54.262  -5.004 -0.02 +0.05    -0.303 OA
DOCKED: ATOM     18  H   UNL d   1      14.316  53.771  -4.383 +0.06 -0.04    +0.222 HD
DOCKED: ENDBRANCH  15  17
DOCKED: BRANCH  15  19
DOCKED: ATOM     19  O   UNL d   1      15.516  55.309  -6.365 +0.00 +0.03    -0.303 OA
DOCKED: ATOM     20  H   UNL d   1      16.178  55.198  -7.073 +0.00 -0.01    +0.222 HD
DOCKED: ENDBRANCH  15  19
DOCKED: ENDBRANCH  14  15
DOCKED: ENDBRANCH   2  14
DOCKED: BRANCH   6  21
DOCKED: ATOM     21  O   UNL d   1      16.791  49.465  -8.641 -0.01 +0.02    -0.278 OA
DOCKED: BRANCH  21  22
DOCKED: ATOM     22  P   UNL d   1      16.195  47.990  -8.758 -0.03 -0.04    +0.473 P 
DOCKED: ATOM     23  O   UNL d   1      16.543  47.003  -7.695 -0.11 +0.02    -0.228 OA
DOCKED: BRANCH  22  24
DOCKED: ATOM     24  O   UNL d   1      14.638  48.280  -8.916 -0.08 +0.03    -0.303 OA
DOCKED: ATOM     25  H   UNL d   1      14.145  47.621  -8.363 +0.07 -0.02    +0.222 HD
DOCKED: ENDBRANCH  22  24
DOCKED: BRANCH  22  26
DOCKED: ATOM     26  O   UNL d   1      16.611  47.589 -10.254 -0.02 +0.02    -0.303 OA
DOCKED: ATOM     27  H   UNL d   1      17.576  47.428 -10.287 +0.03 -0.01    +0.222 HD
DOCKED: ENDBRANCH  22  26
DOCKED: ENDBRANCH  21  22
DOCKED: ENDBRANCH   6  21
DOCKED: BRANCH   3  28
DOCKED: ATOM     28  O   UNL d   1      13.704  51.658  -4.639 -0.14 +0.07    -0.278 OA
DOCKED: BRANCH  28  29
DOCKED: ATOM     29  P   UNL d   1      14.659  51.874  -3.382 -0.20 -0.11    +0.473 P 
DOCKED: ATOM     30  O   UNL d   1      16.060  52.251  -3.700 -0.14 +0.04    -0.228 OA
DOCKED: BRANCH  29  31
DOCKED: ATOM     31  O   UNL d   1      13.792  52.931  -2.551 -0.60 +0.11    -0.303 OA
DOCKED: ATOM     32  H   UNL d   1      13.212  53.422  -3.177 +0.06 -0.08    +0.222 HD
DOCKED: ENDBRANCH  29  31
DOCKED: BRANCH  29  33
DOCKED: ATOM     33  O   UNL d   1      14.445  50.524  -2.565 -0.68 +0.07    -0.303 OA
DOCKED: ATOM     34  H   UNL d   1      13.649  50.057  -2.918 -0.37 -0.12    +0.222 HD
DOCKED: ENDBRANCH  29  33
DOCKED: ENDBRANCH  28  29
DOCKED: ENDBRANCH   3  28
DOCKED: BRANCH   5  35
DOCKED: ATOM     35  O   UNL d   1      17.497  49.269  -5.814 -0.03 +0.03    -0.278 OA
DOCKED: BRANCH  35  36
DOCKED: ATOM     36  P   UNL d   1      17.689  48.600  -4.379 -0.06 -0.11    +0.473 P 
DOCKED: ATOM     37  O   UNL d   1      16.878  47.368  -4.128 -0.24 +0.06    -0.228 OA
DOCKED: BRANCH  36  38
DOCKED: ATOM     38  O   UNL d   1      19.264  48.367  -4.335 -0.08 +0.05    -0.303 OA
DOCKED: ATOM     39  H   UNL d   1      19.508  47.985  -3.465 -0.01 -0.06    +0.222 HD
DOCKED: ENDBRANCH  36  38
DOCKED: BRANCH  36  40
DOCKED: ATOM     40  O   UNL d   1      17.456  49.829  -3.397 -0.15 +0.08    -0.303 OA
DOCKED: ATOM     41  H   UNL d   1      16.517  50.117  -3.390 +0.09 -0.05    +0.222 HD
DOCKED: ENDBRANCH  36  40
DOCKED: ENDBRANCH  35  36
DOCKED: ENDBRANCH   5  35
DOCKED: BRANCH   4  42
DOCKED: ATOM     42  O   UNL d   1      15.003  49.109  -4.316 -0.19 +0.06    -0.278 OA
DOCKED: BRANCH  42  43
DOCKED: ATOM     43  P   UNL d   1      13.815  48.124  -4.719 -0.22 -0.12    +0.473 P 
DOCKED: ATOM     44  O   UNL d   1      13.811  46.766  -4.107 -0.36 +0.09    -0.228 OA
DOCKED: BRANCH  43  45
DOCKED: ATOM     45  O   UNL d   1      12.519  48.989  -4.394 -0.36 +0.13    -0.303 OA
DOCKED: ATOM     46  H   UNL d   1      12.744  49.794  -3.887 -0.39 -0.13    +0.222 HD
DOCKED: ENDBRANCH  43  45
DOCKED: BRANCH  43  47
DOCKED: ATOM     47  O   UNL d   1      13.837  48.160  -6.322 -0.19 +0.04    -0.303 OA
DOCKED: ATOM     48  H   UNL d   1      14.673  47.764  -6.642 +0.10 -0.03    +0.222 HD
DOCKED: ENDBRANCH  43  47
DOCKED: ENDBRANCH  42  43
DOCKED: ENDBRANCH   4  42
DOCKED: TORSDOF 24
DOCKED: TER
DOCKED: ENDMDL
________________________________________________________________________________


	BEGINNING GENETIC ALGORITHM DOCKING 42 of 100
Run: 42 Seed: 25425316 689610591 [ Run 42 of 100 GA/GALS ]
Beginning LAMARCKIAN GENETIC ALGORITHM (LGA), with a maximum of 25000000 energy evaluations.

Final-Value: -17.887


	FINAL GENETIC ALGORITHM DOCKED STATE
	_______________________________________________


Detailed state:  trans 52.727 22.169 19.790 quatxyzw -0.095782 -0.305496 0.591398 -0.740099 center 0.035 0.082 -0.065 ntor 24 -174.9914 92.8064 124.2812 101.4509 22.9481 -119.2935 -16.8060 -118.8067 60.8063 72.2222 113.0250 116.3293 118.3176 96.9357 -50.5122 -66.5551 121.7840 -145.1596 44.4846 -6.1192 -170.7332 6.7878 -9.0261 3.2940
State:	 52.727  22.169  19.790  -0.142 -0.454  0.879 -84.520   -174.99   92.81  124.28  101.45   22.95 -119.29  -16.81 -118.81   60.81   72.22  113.03  116.33  118.32   96.94  -50.51  -66.56  121.78 -145.16   44.48   -6.12 -170.73    6.79   -9.03    3.29

DOCKED: MODEL       42
DOCKED: USER    Run = 42
DOCKED: USER    DPF = D:/Protein_go_brrr/autodock/final/6BB5/IHP/dock.dpf
DOCKED: USER  
DOCKED: USER    Estimated Free Energy of Binding    =   +5.54 kcal/mol  [=(1)+(2)+(3)-(4)]
DOCKED: USER    
DOCKED: USER    (1) Final Intermolecular Energy     =   -1.62 kcal/mol
DOCKED: USER        vdW + Hbond + desolv Energy     =   -1.31 kcal/mol
DOCKED: USER        Electrostatic Energy            =   -0.31 kcal/mol
DOCKED: USER    (2) Final Total Internal Energy     =  -16.27 kcal/mol
DOCKED: USER    (3) Torsional Free Energy           =   +7.16 kcal/mol
DOCKED: USER    (4) Unbound System's Energy  [=(2)] =  -16.27 kcal/mol
DOCKED: USER    
DOCKED: USER    
DOCKED: USER    NEWDPF move IHP_ideal_opt.pdbqt
DOCKED: USER    NEWDPF about 0.035000 0.082000 -0.065000
DOCKED: USER    NEWDPF tran0 52.727280 22.168834 19.789845
DOCKED: USER    NEWDPF quaternion0 -0.095782 -0.305496 0.591398 -0.740099
DOCKED: USER    NEWDPF axisangle0 -0.142427 -0.454270 0.879405 -84.520244
DOCKED: USER    NEWDPF quat0 -0.142427 -0.454270 0.879405 -84.520244
DOCKED: USER    NEWDPF dihe0 -174.99 92.81 124.28 101.45 22.95 -119.29 -16.81 -118.81 60.81 72.22 113.03 116.33 118.32 96.94 -50.51 -66.56 121.78 -145.16 44.48 -6.12 -170.73 6.79 -9.03 3.29 
DOCKED: USER  keepresnum = 1 
DOCKED: USER  
DOCKED: REMARK  24 active torsions:
DOCKED: REMARK  status: ('A' for Active; 'I' for Inactive)
DOCKED: REMARK    1  A    between atoms: C_1  and  O_7 
DOCKED: REMARK    2  A    between atoms: C_2  and  O_12 
DOCKED: REMARK    3  A    between atoms: C_3  and  O_17 
DOCKED: REMARK    4  A    between atoms: C_4  and  O_22 
DOCKED: REMARK    5  A    between atoms: C_5  and  O_27 
DOCKED: REMARK    6  A    between atoms: C_6  and  O_32 
DOCKED: REMARK    7  A    between atoms: O_7  and  P_8 
DOCKED: REMARK    8  A    between atoms: P_8  and  O_10 
DOCKED: REMARK    9  A    between atoms: P_8  and  O_11 
DOCKED: REMARK   10  A    between atoms: O_12  and  P_13 
DOCKED: REMARK   11  A    between atoms: P_13  and  O_15 
DOCKED: REMARK   12  A    between atoms: P_13  and  O_16 
DOCKED: REMARK   13  A    between atoms: O_17  and  P_18 
DOCKED: REMARK   14  A    between atoms: P_18  and  O_20 
DOCKED: REMARK   15  A    between atoms: P_18  and  O_21 
DOCKED: REMARK   16  A    between atoms: O_22  and  P_23 
DOCKED: REMARK   17  A    between atoms: P_23  and  O_25 
DOCKED: REMARK   18  A    between atoms: P_23  and  O_26 
DOCKED: REMARK   19  A    between atoms: O_27  and  P_28 
DOCKED: REMARK   20  A    between atoms: P_28  and  O_30 
DOCKED: REMARK   21  A    between atoms: P_28  and  O_31 
DOCKED: REMARK   22  A    between atoms: O_32  and  P_33 
DOCKED: REMARK   23  A    between atoms: P_33  and  O_35 
DOCKED: REMARK   24  A    between atoms: P_33  and  O_36 
DOCKED: USER                              x       y       z     vdW  Elec       q    Type
DOCKED: USER                           _______ _______ _______ _____ _____    ______ ____
DOCKED: ROOT
DOCKED: ATOM      1  C   UNL d   1      53.148  22.915  21.290 +0.00 +0.04    +0.194 C 
DOCKED: ATOM      2  C   UNL d   1      53.871  21.603  20.978 +0.00 +0.04    +0.194 C 
DOCKED: ATOM      3  C   UNL d   1      52.917  20.552  20.407 +0.01 +0.05    +0.194 C 
DOCKED: ATOM      4  C   UNL d   1      52.105  21.060  19.218 -0.01 +0.09    +0.194 C 
DOCKED: ATOM      5  C   UNL d   1      51.459  22.421  19.444 -0.01 +0.09    +0.194 C 
DOCKED: ATOM      6  C   UNL d   1      52.396  23.455  20.073 +0.00 +0.06    +0.194 C 
DOCKED: ENDROOT
DOCKED: BRANCH   1   7
DOCKED: ATOM      7  O   UNL d   1      54.129  23.890  21.652 +0.00 -0.05    -0.278 OA
DOCKED: BRANCH   7   8
DOCKED: ATOM      8  P   UNL d   1      54.747  23.835  23.124 +0.00 +0.07    +0.473 P 
DOCKED: ATOM      9  O   UNL d   1      55.919  24.724  23.350 +0.00 -0.03    -0.228 OA
DOCKED: BRANCH   8  10
DOCKED: ATOM     10  O   UNL d   1      53.511  24.171  24.075 +0.00 -0.05    -0.303 OA
DOCKED: ATOM     11  H   UNL d   1      52.681  23.903  23.639 +0.00 +0.04    +0.222 HD
DOCKED: ENDBRANCH   8  10
DOCKED: BRANCH   8  12
DOCKED: ATOM     12  O   UNL d   1      54.981  22.291  23.416 +0.00 -0.04    -0.303 OA
DOCKED: ATOM     13  H   UNL d   1      55.433  21.823  22.678 +0.00 +0.03    +0.222 HD
DOCKED: ENDBRANCH   8  12
DOCKED: ENDBRANCH   7   8
DOCKED: ENDBRANCH   1   7
DOCKED: BRANCH   2  14
DOCKED: ATOM     14  O   UNL d   1      54.902  21.856  20.015 +0.00 -0.06    -0.278 OA
DOCKED: BRANCH  14  15
DOCKED: ATOM     15  P   UNL d   1      56.382  21.390  20.411 +0.00 +0.07    +0.473 P 
DOCKED: ATOM     16  O   UNL d   1      57.303  21.047  19.283 +0.00 -0.03    -0.228 OA
DOCKED: BRANCH  15  17
DOCKED: ATOM     17  O   UNL d   1      56.932  22.577  21.319 +0.00 -0.04    -0.303 OA
DOCKED: ATOM     18  H   UNL d   1      56.204  23.032  21.784 +0.00 +0.03    +0.222 HD
DOCKED: ENDBRANCH  15  17
DOCKED: BRANCH  15  19
DOCKED: ATOM     19  O   UNL d   1      56.160  20.240  21.488 +0.00 -0.04    -0.303 OA
DOCKED: ATOM     20  H   UNL d   1      55.429  19.646  21.237 +0.00 +0.03    +0.222 HD
DOCKED: ENDBRANCH  15  19
DOCKED: ENDBRANCH  14  15
DOCKED: ENDBRANCH   2  14
DOCKED: BRANCH   6  21
DOCKED: ATOM     21  O   UNL d   1      51.578  24.529  20.530 +0.00 -0.09    -0.278 OA
DOCKED: BRANCH  21  22
DOCKED: ATOM     22  P   UNL d   1      50.928  24.466  21.985 +0.01 +0.14    +0.473 P 
DOCKED: ATOM     23  O   UNL d   1      50.800  23.133  22.643 +0.00 -0.06    -0.228 OA
DOCKED: BRANCH  22  24
DOCKED: ATOM     24  O   UNL d   1      51.812  25.522  22.783 +0.00 -0.07    -0.303 OA
DOCKED: ATOM     25  H   UNL d   1      52.761  25.381  22.532 +0.00 +0.05    +0.222 HD
DOCKED: ENDBRANCH  22  24
DOCKED: BRANCH  22  26
DOCKED: ATOM     26  O   UNL d   1      49.561  25.276  21.767 +0.01 -0.12    -0.303 OA
DOCKED: ATOM     27  H   UNL d   1      48.980  24.770  21.163 +0.01 +0.10    +0.222 HD
DOCKED: ENDBRANCH  22  26
DOCKED: ENDBRANCH  21  22
DOCKED: ENDBRANCH   6  21
DOCKED: BRANCH   3  28
DOCKED: ATOM     28  O   UNL d   1      53.710  19.488  19.895 +0.00 -0.07    -0.278 OA
DOCKED: BRANCH  28  29
DOCKED: ATOM     29  P   UNL d   1      53.591  18.026  20.517 +0.00 +0.09    +0.473 P 
DOCKED: ATOM     30  O   UNL d   1      54.550  17.715  21.608 +0.00 -0.03    -0.228 OA
DOCKED: BRANCH  29  31
DOCKED: ATOM     31  O   UNL d   1      52.035  18.006  20.889 +0.00 -0.06    -0.303 OA
DOCKED: ATOM     32  H   UNL d   1      51.543  18.519  20.207 +0.00 +0.06    +0.222 HD
DOCKED: ENDBRANCH  29  31
DOCKED: BRANCH  29  33
DOCKED: ATOM     33  O   UNL d   1      53.654  17.106  19.219 +0.00 -0.06    -0.303 OA
DOCKED: ATOM     34  H   UNL d   1      52.903  17.341  18.622 +0.00 +0.06    +0.222 HD
DOCKED: ENDBRANCH  29  33
DOCKED: ENDBRANCH  28  29
DOCKED: ENDBRANCH   3  28
DOCKED: BRANCH   5  35
DOCKED: ATOM     35  O   UNL d   1      51.110  22.904  18.148 -0.06 -0.23    -0.278 OA
DOCKED: BRANCH  35  36
DOCKED: ATOM     36  P   UNL d   1      49.595  23.263  17.804 -0.01 +0.55    +0.473 P 
DOCKED: ATOM     37  O   UNL d   1      49.387  24.052  16.551 -0.51 -0.34    -0.228 OA
DOCKED: BRANCH  36  38
DOCKED: ATOM     38  O   UNL d   1      48.914  21.823  17.791 -0.29 -0.44    -0.303 OA
DOCKED: ATOM     39  H   UNL d   1      49.613  21.136  17.843 +0.01 +0.31    +0.222 HD
DOCKED: ENDBRANCH  36  38
DOCKED: BRANCH  36  40
DOCKED: ATOM     40  O   UNL d   1      49.083  23.915  19.162 -0.02 -0.18    -0.303 OA
DOCKED: ATOM     41  H   UNL d   1      49.809  24.373  19.642 +0.02 +0.10    +0.222 HD
DOCKED: ENDBRANCH  36  40
DOCKED: ENDBRANCH  35  36
DOCKED: ENDBRANCH   5  35
DOCKED: BRANCH   4  42
DOCKED: ATOM     42  O   UNL d   1      51.045  20.121  19.009 -0.01 -0.15    -0.278 OA
DOCKED: BRANCH  42  43
DOCKED: ATOM     43  P   UNL d   1      51.110  19.155  17.741 -0.03 +0.34    +0.473 P 
DOCKED: ATOM     44  O   UNL d   1      50.304  19.536  16.547 -0.46 -0.39    -0.228 OA
DOCKED: BRANCH  43  45
DOCKED: ATOM     45  O   UNL d   1      52.673  19.047  17.463 -0.01 -0.15    -0.303 OA
DOCKED: ATOM     46  H   UNL d   1      53.181  18.981  18.297 +0.01 +0.08    +0.222 HD
DOCKED: ENDBRANCH  43  45
DOCKED: BRANCH  43  47
DOCKED: ATOM     47  O   UNL d   1      50.788  17.713  18.361 +0.00 -0.12    -0.303 OA
DOCKED: ATOM     48  H   UNL d   1      51.504  17.461  18.980 +0.00 +0.07    +0.222 HD
DOCKED: ENDBRANCH  43  47
DOCKED: ENDBRANCH  42  43
DOCKED: ENDBRANCH   4  42
DOCKED: TORSDOF 24
DOCKED: TER
DOCKED: ENDMDL
________________________________________________________________________________


	BEGINNING GENETIC ALGORITHM DOCKING 43 of 100
Run: 43 Seed: 2082875926 471191335 [ Run 43 of 100 GA/GALS ]
Beginning LAMARCKIAN GENETIC ALGORITHM (LGA), with a maximum of 25000000 energy evaluations.

Final-Value: -17.162


	FINAL GENETIC ALGORITHM DOCKED STATE
	_______________________________________________


Detailed state:  trans 1.358 23.333 22.697 quatxyzw 0.796172 -0.541096 0.242857 -0.119772 center 0.035 0.082 -0.065 ntor 24 -158.6912 -2.9002 93.5758 141.5848 21.9617 179.9244 -80.4702 -17.7945 20.1570 130.0355 27.6734 170.2522 21.5519 -108.0940 157.8389 36.7323 -52.0914 -163.5816 -4.6209 -9.0904 -23.5299 11.6069 -178.7350 1.1885
State:	  1.358  23.333  22.697   0.802 -0.545  0.245 -166.242   -158.69   -2.90   93.58  141.58   21.96  179.92  -80.47  -17.79   20.16  130.04   27.67  170.25   21.55 -108.09  157.84   36.73  -52.09 -163.58   -4.62   -9.09  -23.53   11.61 -178.74    1.19

DOCKED: MODEL       43
DOCKED: USER    Run = 43
DOCKED: USER    DPF = D:/Protein_go_brrr/autodock/final/6BB5/IHP/dock.dpf
DOCKED: USER  
DOCKED: USER    Estimated Free Energy of Binding    =   +4.79 kcal/mol  [=(1)+(2)+(3)-(4)]
DOCKED: USER    
DOCKED: USER    (1) Final Intermolecular Energy     =   -2.37 kcal/mol
DOCKED: USER        vdW + Hbond + desolv Energy     =   -2.36 kcal/mol
DOCKED: USER        Electrostatic Energy            =   -0.01 kcal/mol
DOCKED: USER    (2) Final Total Internal Energy     =  -14.79 kcal/mol
DOCKED: USER    (3) Torsional Free Energy           =   +7.16 kcal/mol
DOCKED: USER    (4) Unbound System's Energy  [=(2)] =  -14.79 kcal/mol
DOCKED: USER    
DOCKED: USER    
DOCKED: USER    NEWDPF move IHP_ideal_opt.pdbqt
DOCKED: USER    NEWDPF about 0.035000 0.082000 -0.065000
DOCKED: USER    NEWDPF tran0 1.357512 23.333408 22.696925
DOCKED: USER    NEWDPF quaternion0 0.796172 -0.541096 0.242857 -0.119772
DOCKED: USER    NEWDPF axisangle0 0.801945 -0.545020 0.244618 -166.242117
DOCKED: USER    NEWDPF quat0 0.801945 -0.545020 0.244618 -166.242117
DOCKED: USER    NEWDPF dihe0 -158.69 -2.90 93.58 141.58 21.96 179.92 -80.47 -17.79 20.16 130.04 27.67 170.25 21.55 -108.09 157.84 36.73 -52.09 -163.58 -4.62 -9.09 -23.53 11.61 -178.74 1.19 
DOCKED: USER  keepresnum = 1 
DOCKED: USER  
DOCKED: REMARK  24 active torsions:
DOCKED: REMARK  status: ('A' for Active; 'I' for Inactive)
DOCKED: REMARK    1  A    between atoms: C_1  and  O_7 
DOCKED: REMARK    2  A    between atoms: C_2  and  O_12 
DOCKED: REMARK    3  A    between atoms: C_3  and  O_17 
DOCKED: REMARK    4  A    between atoms: C_4  and  O_22 
DOCKED: REMARK    5  A    between atoms: C_5  and  O_27 
DOCKED: REMARK    6  A    between atoms: C_6  and  O_32 
DOCKED: REMARK    7  A    between atoms: O_7  and  P_8 
DOCKED: REMARK    8  A    between atoms: P_8  and  O_10 
DOCKED: REMARK    9  A    between atoms: P_8  and  O_11 
DOCKED: REMARK   10  A    between atoms: O_12  and  P_13 
DOCKED: REMARK   11  A    between atoms: P_13  and  O_15 
DOCKED: REMARK   12  A    between atoms: P_13  and  O_16 
DOCKED: REMARK   13  A    between atoms: O_17  and  P_18 
DOCKED: REMARK   14  A    between atoms: P_18  and  O_20 
DOCKED: REMARK   15  A    between atoms: P_18  and  O_21 
DOCKED: REMARK   16  A    between atoms: O_22  and  P_23 
DOCKED: REMARK   17  A    between atoms: P_23  and  O_25 
DOCKED: REMARK   18  A    between atoms: P_23  and  O_26 
DOCKED: REMARK   19  A    between atoms: O_27  and  P_28 
DOCKED: REMARK   20  A    between atoms: P_28  and  O_30 
DOCKED: REMARK   21  A    between atoms: P_28  and  O_31 
DOCKED: REMARK   22  A    between atoms: O_32  and  P_33 
DOCKED: REMARK   23  A    between atoms: P_33  and  O_35 
DOCKED: REMARK   24  A    between atoms: P_33  and  O_36 
DOCKED: USER                              x       y       z     vdW  Elec       q    Type
DOCKED: USER                           _______ _______ _______ _____ _____    ______ ____
DOCKED: ROOT
DOCKED: ATOM      1  C   UNL d   1       2.749  22.310  22.733 -0.07 +0.01    +0.194 C 
DOCKED: ATOM      2  C   UNL d   1       3.024  23.791  22.461 -0.12 +0.00    +0.194 C 
DOCKED: ATOM      3  C   UNL d   1       2.016  24.382  21.473 -0.06 +0.00    +0.194 C 
DOCKED: ATOM      4  C   UNL d   1       0.564  24.128  21.871 -0.01 -0.00    +0.194 C 
DOCKED: ATOM      5  C   UNL d   1       0.271  22.685  22.261 -0.00 -0.00    +0.194 C 
DOCKED: ATOM      6  C   UNL d   1       1.313  22.074  23.201 -0.01 +0.00    +0.194 C 
DOCKED: ENDROOT
DOCKED: BRANCH   1   7
DOCKED: ATOM      7  O   UNL d   1       3.616  21.882  23.786 -0.07 -0.01    -0.278 OA
DOCKED: BRANCH   7   8
DOCKED: ATOM      8  P   UNL d   1       4.524  20.590  23.543 -0.06 +0.03    +0.473 P 
DOCKED: ATOM      9  O   UNL d   1       5.674  20.792  22.619 -0.57 -0.05    -0.228 OA
DOCKED: BRANCH   8  10
DOCKED: ATOM     10  O   UNL d   1       4.967  20.147  25.010 -0.03 -0.00    -0.303 OA
DOCKED: ATOM     11  H   UNL d   1       4.202  20.198  25.612 +0.03 +0.00    +0.222 HD
DOCKED: ENDBRANCH   8  10
DOCKED: BRANCH   8  12
DOCKED: ATOM     12  O   UNL d   1       3.506  19.439  23.141 -0.01 -0.01    -0.303 OA
DOCKED: ATOM     13  H   UNL d   1       2.733  19.379  23.747 +0.01 +0.01    +0.222 HD
DOCKED: ENDBRANCH   8  12
DOCKED: ENDBRANCH   7   8
DOCKED: ENDBRANCH   1   7
DOCKED: BRANCH   2  14
DOCKED: ATOM     14  O   UNL d   1       2.934  24.516  23.694 -0.06 +0.01    -0.278 OA
DOCKED: BRANCH  14  15
DOCKED: ATOM     15  P   UNL d   1       4.230  25.348  24.131 -0.16 -0.03    +0.473 P 
DOCKED: ATOM     16  O   UNL d   1       5.527  24.602  24.169 -0.27 +0.04    -0.228 OA
DOCKED: BRANCH  15  17
DOCKED: ATOM     17  O   UNL d   1       4.257  26.581  23.122 -0.23 +0.05    -0.303 OA
DOCKED: ATOM     18  H   UNL d   1       3.527  26.524  22.477 +0.06 -0.02    +0.222 HD
DOCKED: ENDBRANCH  15  17
DOCKED: BRANCH  15  19
DOCKED: ATOM     19  O   UNL d   1       3.807  26.058  25.490 -0.07 +0.00    -0.303 OA
DOCKED: ATOM     20  H   UNL d   1       3.894  25.456  26.253 +0.04 -0.00    +0.222 HD
DOCKED: ENDBRANCH  15  19
DOCKED: ENDBRANCH  14  15
DOCKED: ENDBRANCH   2  14
DOCKED: BRANCH   6  21
DOCKED: ATOM     21  O   UNL d   1       1.098  20.664  23.194 -0.00 -0.00    -0.278 OA
DOCKED: BRANCH  21  22
DOCKED: ATOM     22  P   UNL d   1       0.878  19.890  24.571 +0.00 +0.00    +0.473 P 
DOCKED: ATOM     23  O   UNL d   1       0.838  18.399  24.543 +0.00 -0.00    -0.228 OA
DOCKED: BRANCH  22  24
DOCKED: ATOM     24  O   UNL d   1       2.029  20.509  25.479 +0.00 -0.00    -0.303 OA
DOCKED: ATOM     25  H   UNL d   1       2.860  20.548  24.940 +0.02 +0.00    +0.222 HD
DOCKED: ENDBRANCH  22  24
DOCKED: BRANCH  22  26
DOCKED: ATOM     26  O   UNL d   1      -0.428  20.617  25.149 +0.00 -0.00    -0.303 OA
DOCKED: ATOM     27  H   UNL d   1      -0.771  21.243  24.479 +0.00 -0.00    +0.222 HD
DOCKED: ENDBRANCH  22  26
DOCKED: ENDBRANCH  21  22
DOCKED: ENDBRANCH   6  21
DOCKED: BRANCH   3  28
DOCKED: ATOM     28  O   UNL d   1       2.172  25.795  21.497 -0.06 +0.00    -0.278 OA
DOCKED: BRANCH  28  29
DOCKED: ATOM     29  P   UNL d   1       2.518  26.589  20.160 -0.10 -0.01    +0.473 P 
DOCKED: ATOM     30  O   UNL d   1       2.414  25.803  18.904 -0.08 +0.00    -0.228 OA
DOCKED: BRANCH  29  31
DOCKED: ATOM     31  O   UNL d   1       1.536  27.842  20.317 -0.06 +0.01    -0.303 OA
DOCKED: ATOM     32  H   UNL d   1       0.751  27.562  20.841 +0.04 -0.01    +0.222 HD
DOCKED: ENDBRANCH  29  31
DOCKED: BRANCH  29  33
DOCKED: ATOM     33  O   UNL d   1       3.943  27.213  20.502 -0.23 +0.03    -0.303 OA
DOCKED: ATOM     34  H   UNL d   1       4.484  26.537  20.979 -0.26 -0.05    +0.222 HD
DOCKED: ENDBRANCH  29  33
DOCKED: ENDBRANCH  28  29
DOCKED: ENDBRANCH   3  28
DOCKED: BRANCH   5  35
DOCKED: ATOM     35  O   UNL d   1      -0.966  22.719  22.970 +0.00 +0.00    -0.278 OA
DOCKED: BRANCH  35  36
DOCKED: ATOM     36  P   UNL d   1      -1.195  23.784  24.135 +0.00 -0.00    +0.473 P 
DOCKED: ATOM     37  O   UNL d   1       0.008  24.581  24.527 -0.00 +0.00    -0.228 OA
DOCKED: BRANCH  36  38
DOCKED: ATOM     38  O   UNL d   1      -2.394  24.654  23.550 +0.00 +0.00    -0.303 OA
DOCKED: ATOM     39  H   UNL d   1      -2.175  24.927  22.633 +0.00 -0.00    +0.222 HD
DOCKED: ENDBRANCH  36  38
DOCKED: BRANCH  36  40
DOCKED: ATOM     40  O   UNL d   1      -1.879  22.904  25.270 +0.00 +0.00    -0.303 OA
DOCKED: ATOM     41  H   UNL d   1      -1.212  22.485  25.858 +0.00 -0.00    +0.222 HD
DOCKED: ENDBRANCH  36  40
DOCKED: ENDBRANCH  35  36
DOCKED: ENDBRANCH   5  35
DOCKED: BRANCH   4  42
DOCKED: ATOM     42  O   UNL d   1      -0.238  24.424  20.722 -0.00 +0.00    -0.278 OA
DOCKED: BRANCH  42  43
DOCKED: ATOM     43  P   UNL d   1      -1.171  25.718  20.747 +0.00 -0.01    +0.473 P 
DOCKED: ATOM     44  O   UNL d   1      -2.641  25.506  20.631 -0.00 +0.00    -0.228 OA
DOCKED: BRANCH  43  45
DOCKED: ATOM     45  O   UNL d   1      -0.722  26.447  22.088 -0.00 +0.01    -0.303 OA
DOCKED: ATOM     46  H   UNL d   1      -0.647  25.815  22.831 +0.01 -0.00    +0.222 HD
DOCKED: ENDBRANCH  43  45
DOCKED: BRANCH  43  47
DOCKED: ATOM     47  O   UNL d   1      -0.518  26.662  19.629 -0.00 +0.01    -0.303 OA
DOCKED: ATOM     48  H   UNL d   1       0.349  26.293  19.360 +0.03 -0.01    +0.222 HD
DOCKED: ENDBRANCH  43  47
DOCKED: ENDBRANCH  42  43
DOCKED: ENDBRANCH   4  42
DOCKED: TORSDOF 24
DOCKED: TER
DOCKED: ENDMDL
________________________________________________________________________________


	BEGINNING GENETIC ALGORITHM DOCKING 44 of 100
Run: 44 Seed: 555828585 859680722 [ Run 44 of 100 GA/GALS ]
Beginning LAMARCKIAN GENETIC ALGORITHM (LGA), with a maximum of 25000000 energy evaluations.

Final-Value: -18.415


	FINAL GENETIC ALGORITHM DOCKED STATE
	_______________________________________________


Detailed state:  trans 20.965 49.704 26.918 quatxyzw -0.368761 -0.914554 0.163345 -0.030394 center 0.035 0.082 -0.065 ntor 24 -138.4580 17.1039 -172.3281 -12.7628 123.9882 154.8093 7.3130 -112.0611 38.5636 93.1085 58.9056 -145.1492 46.9728 -180.0000 61.2681 -96.6548 -76.4010 111.6841 -10.3149 15.9190 -25.0208 19.4608 -9.2195 -11.1661
State:	 20.965  49.704  26.918  -0.369 -0.915  0.163 -176.517   -138.46   17.10 -172.33  -12.76  123.99  154.81    7.31 -112.06   38.56   93.11   58.91 -145.15   46.97 -180.00   61.27  -96.65  -76.40  111.68  -10.31   15.92  -25.02   19.46   -9.22  -11.17

DOCKED: MODEL       44
DOCKED: USER    Run = 44
DOCKED: USER    DPF = D:/Protein_go_brrr/autodock/final/6BB5/IHP/dock.dpf
DOCKED: USER  
DOCKED: USER    Estimated Free Energy of Binding    =   +4.06 kcal/mol  [=(1)+(2)+(3)-(4)]
DOCKED: USER    
DOCKED: USER    (1) Final Intermolecular Energy     =   -3.10 kcal/mol
DOCKED: USER        vdW + Hbond + desolv Energy     =   -2.97 kcal/mol
DOCKED: USER        Electrostatic Energy            =   -0.12 kcal/mol
DOCKED: USER    (2) Final Total Internal Energy     =  -15.32 kcal/mol
DOCKED: USER    (3) Torsional Free Energy           =   +7.16 kcal/mol
DOCKED: USER    (4) Unbound System's Energy  [=(2)] =  -15.32 kcal/mol
DOCKED: USER    
DOCKED: USER    
DOCKED: USER    NEWDPF move IHP_ideal_opt.pdbqt
DOCKED: USER    NEWDPF about 0.035000 0.082000 -0.065000
DOCKED: USER    NEWDPF tran0 20.965340 49.704486 26.917833
DOCKED: USER    NEWDPF quaternion0 -0.368761 -0.914554 0.163345 -0.030394
DOCKED: USER    NEWDPF axisangle0 -0.368932 -0.914977 0.163420 -176.516537
DOCKED: USER    NEWDPF quat0 -0.368932 -0.914977 0.163420 -176.516537
DOCKED: USER    NEWDPF dihe0 -138.46 17.10 -172.33 -12.76 123.99 154.81 7.31 -112.06 38.56 93.11 58.91 -145.15 46.97 -180.00 61.27 -96.65 -76.40 111.68 -10.31 15.92 -25.02 19.46 -9.22 -11.17 
DOCKED: USER  keepresnum = 1 
DOCKED: USER  
DOCKED: REMARK  24 active torsions:
DOCKED: REMARK  status: ('A' for Active; 'I' for Inactive)
DOCKED: REMARK    1  A    between atoms: C_1  and  O_7 
DOCKED: REMARK    2  A    between atoms: C_2  and  O_12 
DOCKED: REMARK    3  A    between atoms: C_3  and  O_17 
DOCKED: REMARK    4  A    between atoms: C_4  and  O_22 
DOCKED: REMARK    5  A    between atoms: C_5  and  O_27 
DOCKED: REMARK    6  A    between atoms: C_6  and  O_32 
DOCKED: REMARK    7  A    between atoms: O_7  and  P_8 
DOCKED: REMARK    8  A    between atoms: P_8  and  O_10 
DOCKED: REMARK    9  A    between atoms: P_8  and  O_11 
DOCKED: REMARK   10  A    between atoms: O_12  and  P_13 
DOCKED: REMARK   11  A    between atoms: P_13  and  O_15 
DOCKED: REMARK   12  A    between atoms: P_13  and  O_16 
DOCKED: REMARK   13  A    between atoms: O_17  and  P_18 
DOCKED: REMARK   14  A    between atoms: P_18  and  O_20 
DOCKED: REMARK   15  A    between atoms: P_18  and  O_21 
DOCKED: REMARK   16  A    between atoms: O_22  and  P_23 
DOCKED: REMARK   17  A    between atoms: P_23  and  O_25 
DOCKED: REMARK   18  A    between atoms: P_23  and  O_26 
DOCKED: REMARK   19  A    between atoms: O_27  and  P_28 
DOCKED: REMARK   20  A    between atoms: P_28  and  O_30 
DOCKED: REMARK   21  A    between atoms: P_28  and  O_31 
DOCKED: REMARK   22  A    between atoms: O_32  and  P_33 
DOCKED: REMARK   23  A    between atoms: P_33  and  O_35 
DOCKED: REMARK   24  A    between atoms: P_33  and  O_36 
DOCKED: USER                              x       y       z     vdW  Elec       q    Type
DOCKED: USER                           _______ _______ _______ _____ _____    ______ ____
DOCKED: ROOT
DOCKED: ATOM      1  C   UNL d   1      19.326  49.744  26.374 -0.03 -0.01    +0.194 C 
DOCKED: ATOM      2  C   UNL d   1      19.763  48.450  27.062 -0.08 -0.02    +0.194 C 
DOCKED: ATOM      3  C   UNL d   1      21.151  48.003  26.600 -0.12 -0.04    +0.194 C 
DOCKED: ATOM      4  C   UNL d   1      22.206  49.102  26.714 -0.11 -0.05    +0.194 C 
DOCKED: ATOM      5  C   UNL d   1      21.767  50.444  26.142 -0.07 -0.03    +0.194 C 
DOCKED: ATOM      6  C   UNL d   1      20.354  50.862  26.556 -0.03 -0.01    +0.194 C 
DOCKED: ENDROOT
DOCKED: BRANCH   1   7
DOCKED: ATOM      7  O   UNL d   1      18.109  50.183  26.982 -0.02 +0.01    -0.278 OA
DOCKED: BRANCH   7   8
DOCKED: ATOM      8  P   UNL d   1      16.902  50.625  26.032 -0.01 -0.02    +0.473 P 
DOCKED: ATOM      9  O   UNL d   1      15.859  49.587  25.814 -0.02 +0.01    -0.228 OA
DOCKED: BRANCH   8  10
DOCKED: ATOM     10  O   UNL d   1      16.337  51.950  26.717 -0.00 +0.01    -0.303 OA
DOCKED: ATOM     11  H   UNL d   1      17.022  52.644  26.701 +0.00 -0.01    +0.222 HD
DOCKED: ENDBRANCH   8  10
DOCKED: BRANCH   8  12
DOCKED: ATOM     12  O   UNL d   1      17.596  51.197  24.722 -0.03 +0.01    -0.303 OA
DOCKED: ATOM     13  H   UNL d   1      18.489  51.574  24.892 +0.02 -0.01    +0.222 HD
DOCKED: ENDBRANCH   8  12
DOCKED: ENDBRANCH   7   8
DOCKED: ENDBRANCH   1   7
DOCKED: BRANCH   2  14
DOCKED: ATOM     14  O   UNL d   1      19.800  48.663  28.479 -0.01 +0.02    -0.278 OA
DOCKED: BRANCH  14  15
DOCKED: ATOM     15  P   UNL d   1      19.438  47.406  29.402 -0.00 -0.02    +0.473 P 
DOCKED: ATOM     16  O   UNL d   1      18.332  47.596  30.392 -0.01 +0.01    -0.228 OA
DOCKED: BRANCH  15  17
DOCKED: ATOM     17  O   UNL d   1      19.142  46.235  28.363 -0.05 +0.02    -0.303 OA
DOCKED: ATOM     18  H   UNL d   1      19.949  45.719  28.176 +0.05 -0.02    +0.222 HD
DOCKED: ENDBRANCH  15  17
DOCKED: BRANCH  15  19
DOCKED: ATOM     19  O   UNL d   1      20.833  46.947  30.012 -0.00 +0.02    -0.303 OA
DOCKED: ATOM     20  H   UNL d   1      21.395  46.515  29.343 +0.03 -0.02    +0.222 HD
DOCKED: ENDBRANCH  15  19
DOCKED: ENDBRANCH  14  15
DOCKED: ENDBRANCH   2  14
DOCKED: BRANCH   6  21
DOCKED: ATOM     21  O   UNL d   1      19.970  51.928  25.691 -0.03 +0.01    -0.278 OA
DOCKED: BRANCH  21  22
DOCKED: ATOM     22  P   UNL d   1      19.437  53.298  26.311 +0.00 -0.01    +0.473 P 
DOCKED: ATOM     23  O   UNL d   1      20.426  54.380  26.584 -0.00 -0.00    -0.228 OA
DOCKED: BRANCH  22  24
DOCKED: ATOM     24  O   UNL d   1      18.282  53.690  25.289 -0.00 +0.01    -0.303 OA
DOCKED: ATOM     25  H   UNL d   1      17.626  52.948  25.265 +0.01 -0.01    +0.222 HD
DOCKED: ENDBRANCH  22  24
DOCKED: BRANCH  22  26
DOCKED: ATOM     26  O   UNL d   1      18.598  52.778  27.575 -0.00 +0.01    -0.303 OA
DOCKED: ATOM     27  H   UNL d   1      18.383  51.831  27.450 +0.01 -0.01    +0.222 HD
DOCKED: ENDBRANCH  22  26
DOCKED: ENDBRANCH  21  22
DOCKED: ENDBRANCH   6  21
DOCKED: BRANCH   3  28
DOCKED: ATOM     28  O   UNL d   1      21.584  46.972  27.478 -0.09 +0.05    -0.278 OA
DOCKED: BRANCH  28  29
DOCKED: ATOM     29  P   UNL d   1      22.146  45.601  26.894 -0.20 -0.13    +0.473 P 
DOCKED: ATOM     30  O   UNL d   1      21.434  44.375  27.339 -0.16 +0.03    -0.228 OA
DOCKED: BRANCH  29  31
DOCKED: ATOM     31  O   UNL d   1      22.114  45.931  25.328 -0.85 +0.14    -0.303 OA
DOCKED: ATOM     32  H   UNL d   1      22.679  46.720  25.162 -0.10 -0.22    +0.222 HD
DOCKED: ENDBRANCH  29  31
DOCKED: BRANCH  29  33
DOCKED: ATOM     33  O   UNL d   1      23.696  45.700  27.242 -0.13 +0.12    -0.303 OA
DOCKED: ATOM     34  H   UNL d   1      24.050  46.554  26.894 +0.09 -0.12    +0.222 HD
DOCKED: ENDBRANCH  29  33
DOCKED: ENDBRANCH  28  29
DOCKED: ENDBRANCH   3  28
DOCKED: BRANCH   5  35
DOCKED: ATOM     35  O   UNL d   1      22.666  51.408  26.687 -0.03 +0.01    -0.278 OA
DOCKED: BRANCH  35  36
DOCKED: ATOM     36  P   UNL d   1      23.552  52.317  25.721 -0.06 +0.08    +0.473 P 
DOCKED: ATOM     37  O   UNL d   1      23.967  51.678  24.434 -0.19 -0.07    -0.228 OA
DOCKED: BRANCH  36  38
DOCKED: ATOM     38  O   UNL d   1      22.629  53.603  25.546 -0.01 -0.03    -0.303 OA
DOCKED: ATOM     39  H   UNL d   1      21.687  53.331  25.596 +0.02 +0.01    +0.222 HD
DOCKED: ENDBRANCH  36  38
DOCKED: BRANCH  36  40
DOCKED: ATOM     40  O   UNL d   1      24.714  52.809  26.689 -0.05 -0.09    -0.303 OA
DOCKED: ATOM     41  H   UNL d   1      25.138  52.058  27.160 +0.02 +0.07    +0.222 HD
DOCKED: ENDBRANCH  36  40
DOCKED: ENDBRANCH  35  36
DOCKED: ENDBRANCH   5  35
DOCKED: BRANCH   4  42
DOCKED: ATOM     42  O   UNL d   1      23.339  48.670  25.953 -0.16 +0.22    -0.278 OA
DOCKED: BRANCH  42  43
DOCKED: ATOM     43  P   UNL d   1      24.752  48.540  26.680 -0.13 -0.20    +0.473 P 
DOCKED: ATOM     44  O   UNL d   1      25.762  47.636  26.062 -0.32 +0.14    -0.228 OA
DOCKED: BRANCH  43  45
DOCKED: ATOM     45  O   UNL d   1      25.223  50.055  26.801 -0.14 -0.03    -0.303 OA
DOCKED: ATOM     46  H   UNL d   1      24.686  50.643  26.233 +0.02 +0.03    +0.222 HD
DOCKED: ENDBRANCH  43  45
DOCKED: BRANCH  43  47
DOCKED: ATOM     47  O   UNL d   1      24.355  48.200  28.195 -0.04 +0.05    -0.303 OA
DOCKED: ATOM     48  H   UNL d   1      23.541  47.655  28.201 +0.06 -0.05    +0.222 HD
DOCKED: ENDBRANCH  43  47
DOCKED: ENDBRANCH  42  43
DOCKED: ENDBRANCH   4  42
DOCKED: TORSDOF 24
DOCKED: TER
DOCKED: ENDMDL
________________________________________________________________________________


	BEGINNING GENETIC ALGORITHM DOCKING 45 of 100
Run: 45 Seed: 2052520833 354214605 [ Run 45 of 100 GA/GALS ]
Beginning LAMARCKIAN GENETIC ALGORITHM (LGA), with a maximum of 25000000 energy evaluations.

Final-Value: -15.021


	FINAL GENETIC ALGORITHM DOCKED STATE
	_______________________________________________


Detailed state:  trans 30.070 53.296 27.955 quatxyzw -0.086947 0.865384 0.091696 0.484915 center 0.035 0.082 -0.065 ntor 24 69.6247 79.8062 -169.0364 57.5842 -10.2749 -25.5908 -4.3849 -124.2400 13.6333 4.3601 -167.7773 -112.4308 -30.8524 172.3327 -83.7880 -70.9889 -179.9784 83.3232 -164.7994 20.9691 -5.0976 7.3361 -177.3961 18.8993
State:	 30.070  53.296  27.955  -0.099  0.990  0.105 121.986     69.62   79.81 -169.04   57.58  -10.27  -25.59   -4.38 -124.24   13.63    4.36 -167.78 -112.43  -30.85  172.33  -83.79  -70.99 -179.98   83.32 -164.80   20.97   -5.10    7.34 -177.40   18.90

DOCKED: MODEL       45
DOCKED: USER    Run = 45
DOCKED: USER    DPF = D:/Protein_go_brrr/autodock/final/6BB5/IHP/dock.dpf
DOCKED: USER  
DOCKED: USER    Estimated Free Energy of Binding    =   +5.94 kcal/mol  [=(1)+(2)+(3)-(4)]
DOCKED: USER    
DOCKED: USER    (1) Final Intermolecular Energy     =   -1.22 kcal/mol
DOCKED: USER        vdW + Hbond + desolv Energy     =   -1.30 kcal/mol
DOCKED: USER        Electrostatic Energy            =   +0.07 kcal/mol
DOCKED: USER    (2) Final Total Internal Energy     =  -13.80 kcal/mol
DOCKED: USER    (3) Torsional Free Energy           =   +7.16 kcal/mol
DOCKED: USER    (4) Unbound System's Energy  [=(2)] =  -13.80 kcal/mol
DOCKED: USER    
DOCKED: USER    
DOCKED: USER    NEWDPF move IHP_ideal_opt.pdbqt
DOCKED: USER    NEWDPF about 0.035000 0.082000 -0.065000
DOCKED: USER    NEWDPF tran0 30.069773 53.295852 27.955320
DOCKED: USER    NEWDPF quaternion0 -0.086947 0.865384 0.091696 0.484915
DOCKED: USER    NEWDPF axisangle0 -0.099418 0.989506 0.104848 121.986213
DOCKED: USER    NEWDPF quat0 -0.099418 0.989506 0.104848 121.986213
DOCKED: USER    NEWDPF dihe0 69.62 79.81 -169.04 57.58 -10.27 -25.59 -4.38 -124.24 13.63 4.36 -167.78 -112.43 -30.85 172.33 -83.79 -70.99 -179.98 83.32 -164.80 20.97 -5.10 7.34 -177.40 18.90 
DOCKED: USER  keepresnum = 1 
DOCKED: USER  
DOCKED: REMARK  24 active torsions:
DOCKED: REMARK  status: ('A' for Active; 'I' for Inactive)
DOCKED: REMARK    1  A    between atoms: C_1  and  O_7 
DOCKED: REMARK    2  A    between atoms: C_2  and  O_12 
DOCKED: REMARK    3  A    between atoms: C_3  and  O_17 
DOCKED: REMARK    4  A    between atoms: C_4  and  O_22 
DOCKED: REMARK    5  A    between atoms: C_5  and  O_27 
DOCKED: REMARK    6  A    between atoms: C_6  and  O_32 
DOCKED: REMARK    7  A    between atoms: O_7  and  P_8 
DOCKED: REMARK    8  A    between atoms: P_8  and  O_10 
DOCKED: REMARK    9  A    between atoms: P_8  and  O_11 
DOCKED: REMARK   10  A    between atoms: O_12  and  P_13 
DOCKED: REMARK   11  A    between atoms: P_13  and  O_15 
DOCKED: REMARK   12  A    between atoms: P_13  and  O_16 
DOCKED: REMARK   13  A    between atoms: O_17  and  P_18 
DOCKED: REMARK   14  A    between atoms: P_18  and  O_20 
DOCKED: REMARK   15  A    between atoms: P_18  and  O_21 
DOCKED: REMARK   16  A    between atoms: O_22  and  P_23 
DOCKED: REMARK   17  A    between atoms: P_23  and  O_25 
DOCKED: REMARK   18  A    between atoms: P_23  and  O_26 
DOCKED: REMARK   19  A    between atoms: O_27  and  P_28 
DOCKED: REMARK   20  A    between atoms: P_28  and  O_30 
DOCKED: REMARK   21  A    between atoms: P_28  and  O_31 
DOCKED: REMARK   22  A    between atoms: O_32  and  P_33 
DOCKED: REMARK   23  A    between atoms: P_33  and  O_35 
DOCKED: REMARK   24  A    between atoms: P_33  and  O_36 
DOCKED: USER                              x       y       z     vdW  Elec       q    Type
DOCKED: USER                           _______ _______ _______ _____ _____    ______ ____
DOCKED: ROOT
DOCKED: ATOM      1  C   UNL d   1      28.803  52.195  28.365 -0.05 +0.04    +0.194 C 
DOCKED: ATOM      2  C   UNL d   1      29.810  51.688  27.332 -0.07 +0.06    +0.194 C 
DOCKED: ATOM      3  C   UNL d   1      30.154  52.764  26.300 -0.06 +0.07    +0.194 C 
DOCKED: ATOM      4  C   UNL d   1      30.588  54.085  26.930 -0.03 +0.04    +0.194 C 
DOCKED: ATOM      5  C   UNL d   1      29.673  54.571  28.047 -0.01 +0.03    +0.194 C 
DOCKED: ATOM      6  C   UNL d   1      29.280  53.479  29.045 -0.02 +0.03    +0.194 C 
DOCKED: ENDROOT
DOCKED: BRANCH   1   7
DOCKED: ATOM      7  O   UNL d   1      28.669  51.200  29.383 -0.03 -0.03    -0.278 OA
DOCKED: BRANCH   7   8
DOCKED: ATOM      8  P   UNL d   1      29.872  51.001  30.414 -0.00 +0.03    +0.473 P 
DOCKED: ATOM      9  O   UNL d   1      30.799  52.160  30.533 -0.01 -0.01    -0.228 OA
DOCKED: BRANCH   8  10
DOCKED: ATOM     10  O   UNL d   1      29.148  50.633  31.787 -0.00 -0.01    -0.303 OA
DOCKED: ATOM     11  H   UNL d   1      28.935  51.450  32.274 +0.00 +0.01    +0.222 HD
DOCKED: ENDBRANCH   8  10
DOCKED: BRANCH   8  12
DOCKED: ATOM     12  O   UNL d   1      30.540  49.618  30.008 -0.02 -0.01    -0.303 OA
DOCKED: ATOM     13  H   UNL d   1      30.522  49.451  29.039 +0.05 +0.01    +0.222 HD
DOCKED: ENDBRANCH   8  12
DOCKED: ENDBRANCH   7   8
DOCKED: ENDBRANCH   1   7
DOCKED: BRANCH   2  14
DOCKED: ATOM     14  O   UNL d   1      31.015  51.300  28.005 -0.05 -0.04    -0.278 OA
DOCKED: BRANCH  14  15
DOCKED: ATOM     15  P   UNL d   1      31.897  50.167  27.297 -0.11 +0.04    +0.473 P 
DOCKED: ATOM     16  O   UNL d   1      32.363  49.039  28.163 -0.13 +0.00    -0.228 OA
DOCKED: BRANCH  15  17
DOCKED: ATOM     17  O   UNL d   1      30.995  49.678  26.078 -0.19 -0.06    -0.303 OA
DOCKED: ATOM     18  H   UNL d   1      31.233  50.144  25.254 +0.07 +0.07    +0.222 HD
DOCKED: ENDBRANCH  15  17
DOCKED: BRANCH  15  19
DOCKED: ATOM     19  O   UNL d   1      33.044  50.971  26.542 -0.08 -0.03    -0.303 OA
DOCKED: ATOM     20  H   UNL d   1      32.937  51.934  26.646 +0.04 +0.03    +0.222 HD
DOCKED: ENDBRANCH  15  19
DOCKED: ENDBRANCH  14  15
DOCKED: ENDBRANCH   2  14
DOCKED: BRANCH   6  21
DOCKED: ATOM     21  O   UNL d   1      28.182  53.987  29.799 -0.00 -0.03    -0.278 OA
DOCKED: BRANCH  21  22
DOCKED: ATOM     22  P   UNL d   1      28.399  54.420  31.319 +0.00 +0.02    +0.473 P 
DOCKED: ATOM     23  O   UNL d   1      29.008  53.430  32.254 -0.00 -0.01    -0.228 OA
DOCKED: BRANCH  22  24
DOCKED: ATOM     24  O   UNL d   1      29.215  55.777  31.158 -0.00 -0.02    -0.303 OA
DOCKED: ATOM     25  H   UNL d   1      30.151  55.548  30.928 +0.00 +0.01    +0.222 HD
DOCKED: ENDBRANCH  22  24
DOCKED: BRANCH  22  26
DOCKED: ATOM     26  O   UNL d   1      26.941  54.956  31.716 +0.00 -0.01    -0.303 OA
DOCKED: ATOM     27  H   UNL d   1      26.853  54.958  32.691 +0.00 +0.01    +0.222 HD
DOCKED: ENDBRANCH  22  26
DOCKED: ENDBRANCH  21  22
DOCKED: ENDBRANCH   6  21
DOCKED: BRANCH   3  28
DOCKED: ATOM     28  O   UNL d   1      31.281  52.308  25.564 -0.09 -0.09    -0.278 OA
DOCKED: BRANCH  28  29
DOCKED: ATOM     29  P   UNL d   1      31.170  52.057  23.995 -0.14 +0.20    +0.473 P 
DOCKED: ATOM     30  O   UNL d   1      30.920  50.651  23.587 -0.35 -0.11    -0.228 OA
DOCKED: BRANCH  29  31
DOCKED: ATOM     31  O   UNL d   1      30.047  53.134  23.619 -0.09 -0.17    -0.303 OA
DOCKED: ATOM     32  H   UNL d   1      30.280  53.992  24.043 +0.04 +0.08    +0.222 HD
DOCKED: ENDBRANCH  29  31
DOCKED: BRANCH  29  33
DOCKED: ATOM     33  O   UNL d   1      32.504  52.737  23.453 -0.05 -0.09    -0.303 OA
DOCKED: ATOM     34  H   UNL d   1      32.461  53.710  23.622 +0.04 +0.06    +0.222 HD
DOCKED: ENDBRANCH  29  33
DOCKED: ENDBRANCH  28  29
DOCKED: ENDBRANCH   3  28
DOCKED: BRANCH   5  35
DOCKED: ATOM     35  O   UNL d   1      30.425  55.547  28.766 -0.00 -0.03    -0.278 OA
DOCKED: BRANCH  35  36
DOCKED: ATOM     36  P   UNL d   1      31.933  55.247  29.192 +0.00 +0.04    +0.473 P 
DOCKED: ATOM     37  O   UNL d   1      32.295  55.628  30.592 +0.00 -0.01    -0.228 OA
DOCKED: BRANCH  36  38
DOCKED: ATOM     38  O   UNL d   1      32.055  53.689  28.885 -0.00 -0.03    -0.303 OA
DOCKED: ATOM     39  H   UNL d   1      31.358  53.209  29.382 +0.01 +0.02    +0.222 HD
DOCKED: ENDBRANCH  36  38
DOCKED: BRANCH  36  40
DOCKED: ATOM     40  O   UNL d   1      32.760  55.934  28.020 -0.00 -0.03    -0.303 OA
DOCKED: ATOM     41  H   UNL d   1      32.316  55.827  27.149 +0.00 +0.02    +0.222 HD
DOCKED: ENDBRANCH  36  40
DOCKED: ENDBRANCH  35  36
DOCKED: ENDBRANCH   5  35
DOCKED: BRANCH   4  42
DOCKED: ATOM     42  O   UNL d   1      30.549  55.072  25.894 -0.01 -0.06    -0.278 OA
DOCKED: BRANCH  42  43
DOCKED: ATOM     43  P   UNL d   1      31.871  55.357  25.049 +0.01 +0.08    +0.473 P 
DOCKED: ATOM     44  O   UNL d   1      31.757  55.333  23.564 -0.01 -0.05    -0.228 OA
DOCKED: BRANCH  43  45
DOCKED: ATOM     45  O   UNL d   1      32.370  56.748  25.640 -0.00 -0.04    -0.303 OA
DOCKED: ATOM     46  H   UNL d   1      33.259  56.669  26.040 +0.00 +0.02    +0.222 HD
DOCKED: ENDBRANCH  43  45
DOCKED: BRANCH  43  47
DOCKED: ATOM     47  O   UNL d   1      32.935  54.336  25.678 -0.00 -0.05    -0.303 OA
DOCKED: ATOM     48  H   UNL d   1      32.660  53.418  25.475 +0.03 +0.04    +0.222 HD
DOCKED: ENDBRANCH  43  47
DOCKED: ENDBRANCH  42  43
DOCKED: ENDBRANCH   4  42
DOCKED: TORSDOF 24
DOCKED: TER
DOCKED: ENDMDL
________________________________________________________________________________


	BEGINNING GENETIC ALGORITHM DOCKING 46 of 100
Run: 46 Seed: 1089668646 294485493 [ Run 46 of 100 GA/GALS ]
Beginning LAMARCKIAN GENETIC ALGORITHM (LGA), with a maximum of 25000000 energy evaluations.

Final-Value: -14.925


	FINAL GENETIC ALGORITHM DOCKED STATE
	_______________________________________________


Detailed state:  trans 0.576 51.170 8.554 quatxyzw -0.776499 0.328335 -0.400420 0.359040 center 0.035 0.082 -0.065 ntor 24 -158.7171 -171.4905 14.6107 -162.8531 12.3180 -118.7244 -124.5664 -73.5778 52.1648 157.8511 107.9364 140.4264 119.1626 -86.5646 -42.6118 37.0921 -114.0224 -149.3746 38.2493 19.6937 -174.9516 13.5433 -9.5477 2.4813
State:	  0.576  51.170   8.554  -0.832  0.352 -0.429 137.917   -158.72 -171.49   14.61 -162.85   12.32 -118.72 -124.57  -73.58   52.16  157.85  107.94  140.43  119.16  -86.56  -42.61   37.09 -114.02 -149.37   38.25   19.69 -174.95   13.54   -9.55    2.48

DOCKED: MODEL       46
DOCKED: USER    Run = 46
DOCKED: USER    DPF = D:/Protein_go_brrr/autodock/final/6BB5/IHP/dock.dpf
DOCKED: USER  
DOCKED: USER    Estimated Free Energy of Binding    =   +4.41 kcal/mol  [=(1)+(2)+(3)-(4)]
DOCKED: USER    
DOCKED: USER    (1) Final Intermolecular Energy     =   -2.75 kcal/mol
DOCKED: USER        vdW + Hbond + desolv Energy     =   -2.48 kcal/mol
DOCKED: USER        Electrostatic Energy            =   -0.27 kcal/mol
DOCKED: USER    (2) Final Total Internal Energy     =  -12.17 kcal/mol
DOCKED: USER    (3) Torsional Free Energy           =   +7.16 kcal/mol
DOCKED: USER    (4) Unbound System's Energy  [=(2)] =  -12.17 kcal/mol
DOCKED: USER    
DOCKED: USER    
DOCKED: USER    NEWDPF move IHP_ideal_opt.pdbqt
DOCKED: USER    NEWDPF about 0.035000 0.082000 -0.065000
DOCKED: USER    NEWDPF tran0 0.575958 51.169839 8.553802
DOCKED: USER    NEWDPF quaternion0 -0.776499 0.328335 -0.400420 0.359040
DOCKED: USER    NEWDPF axisangle0 -0.831973 0.351792 -0.429026 137.917478
DOCKED: USER    NEWDPF quat0 -0.831973 0.351792 -0.429026 137.917478
DOCKED: USER    NEWDPF dihe0 -158.72 -171.49 14.61 -162.85 12.32 -118.72 -124.57 -73.58 52.16 157.85 107.94 140.43 119.16 -86.56 -42.61 37.09 -114.02 -149.37 38.25 19.69 -174.95 13.54 -9.55 2.48 
DOCKED: USER  keepresnum = 1 
DOCKED: USER  
DOCKED: REMARK  24 active torsions:
DOCKED: REMARK  status: ('A' for Active; 'I' for Inactive)
DOCKED: REMARK    1  A    between atoms: C_1  and  O_7 
DOCKED: REMARK    2  A    between atoms: C_2  and  O_12 
DOCKED: REMARK    3  A    between atoms: C_3  and  O_17 
DOCKED: REMARK    4  A    between atoms: C_4  and  O_22 
DOCKED: REMARK    5  A    between atoms: C_5  and  O_27 
DOCKED: REMARK    6  A    between atoms: C_6  and  O_32 
DOCKED: REMARK    7  A    between atoms: O_7  and  P_8 
DOCKED: REMARK    8  A    between atoms: P_8  and  O_10 
DOCKED: REMARK    9  A    between atoms: P_8  and  O_11 
DOCKED: REMARK   10  A    between atoms: O_12  and  P_13 
DOCKED: REMARK   11  A    between atoms: P_13  and  O_15 
DOCKED: REMARK   12  A    between atoms: P_13  and  O_16 
DOCKED: REMARK   13  A    between atoms: O_17  and  P_18 
DOCKED: REMARK   14  A    between atoms: P_18  and  O_20 
DOCKED: REMARK   15  A    between atoms: P_18  and  O_21 
DOCKED: REMARK   16  A    between atoms: O_22  and  P_23 
DOCKED: REMARK   17  A    between atoms: P_23  and  O_25 
DOCKED: REMARK   18  A    between atoms: P_23  and  O_26 
DOCKED: REMARK   19  A    between atoms: O_27  and  P_28 
DOCKED: REMARK   20  A    between atoms: P_28  and  O_30 
DOCKED: REMARK   21  A    between atoms: P_28  and  O_31 
DOCKED: REMARK   22  A    between atoms: O_32  and  P_33 
DOCKED: REMARK   23  A    between atoms: P_33  and  O_35 
DOCKED: REMARK   24  A    between atoms: P_33  and  O_36 
DOCKED: USER                              x       y       z     vdW  Elec       q    Type
DOCKED: USER                           _______ _______ _______ _____ _____    ______ ____
DOCKED: ROOT
DOCKED: ATOM      1  C   UNL d   1       2.171  50.710   9.033 -0.10 +0.03    +0.194 C 
DOCKED: ATOM      2  C   UNL d   1       2.090  51.713   7.882 -0.03 +0.02    +0.194 C 
DOCKED: ATOM      3  C   UNL d   1       1.003  51.334   6.874 -0.07 +0.03    +0.194 C 
DOCKED: ATOM      4  C   UNL d   1      -0.358  51.089   7.522 -0.04 +0.02    +0.194 C 
DOCKED: ATOM      5  C   UNL d   1      -0.308  50.184   8.746 -0.03 +0.03    +0.194 C 
DOCKED: ATOM      6  C   UNL d   1       0.818  50.525   9.723 -0.04 +0.03    +0.194 C 
DOCKED: ENDROOT
DOCKED: BRANCH   1   7
DOCKED: ATOM      7  O   UNL d   1       3.080  51.223  10.009 -0.05 -0.03    -0.278 OA
DOCKED: BRANCH   7   8
DOCKED: ATOM      8  P   UNL d   1       4.642  50.955   9.806 -0.12 +0.00    +0.473 P 
DOCKED: ATOM      9  O   UNL d   1       5.536  51.696  10.738 -0.08 +0.01    -0.228 OA
DOCKED: BRANCH   8  10
DOCKED: ATOM     10  O   UNL d   1       4.782  49.371   9.928 -0.18 -0.05    -0.303 OA
DOCKED: ATOM     11  H   UNL d   1       4.062  48.940   9.431 +0.09 +0.06    +0.222 HD
DOCKED: ENDBRANCH   8  10
DOCKED: BRANCH   8  12
DOCKED: ATOM     12  O   UNL d   1       4.904  51.194   8.257 -0.23 +0.03    -0.303 OA
DOCKED: ATOM     13  H   UNL d   1       5.772  51.618   8.074 -0.37 -0.10    +0.222 HD
DOCKED: ENDBRANCH   8  12
DOCKED: ENDBRANCH   7   8
DOCKED: ENDBRANCH   1   7
DOCKED: BRANCH   2  14
DOCKED: ATOM     14  O   UNL d   1       1.789  53.010   8.412 -0.04 -0.01    -0.278 OA
DOCKED: BRANCH  14  15
DOCKED: ATOM     15  P   UNL d   1       2.333  54.267   7.583 -0.03 +0.01    +0.473 P 
DOCKED: ATOM     16  O   UNL d   1       3.611  54.072   6.829 -0.08 -0.00    -0.228 OA
DOCKED: BRANCH  15  17
DOCKED: ATOM     17  O   UNL d   1       1.113  54.665   6.638 -0.02 -0.01    -0.303 OA
DOCKED: ATOM     18  H   UNL d   1       1.080  54.094   5.847 +0.02 +0.01    +0.222 HD
DOCKED: ENDBRANCH  15  17
DOCKED: BRANCH  15  19
DOCKED: ATOM     19  O   UNL d   1       2.330  55.465   8.630 -0.01 +0.00    -0.303 OA
DOCKED: ATOM     20  H   UNL d   1       3.138  56.006   8.560 +0.01 -0.00    +0.222 HD
DOCKED: ENDBRANCH  15  19
DOCKED: ENDBRANCH  14  15
DOCKED: ENDBRANCH   2  14
DOCKED: BRANCH   6  21
DOCKED: ATOM     21  O   UNL d   1       0.948  49.413  10.607 -0.03 -0.08    -0.278 OA
DOCKED: BRANCH  21  22
DOCKED: ATOM     22  P   UNL d   1       1.803  48.142  10.160 -0.07 +0.27    +0.473 P 
DOCKED: ATOM     23  O   UNL d   1       2.206  48.032   8.728 -0.21 -0.08    -0.228 OA
DOCKED: BRANCH  22  24
DOCKED: ATOM     24  O   UNL d   1       3.013  48.184  11.193 -0.49 -0.37    -0.303 OA
DOCKED: ATOM     25  H   UNL d   1       3.427  49.083  11.146 +0.05 +0.13    +0.222 HD
DOCKED: ENDBRANCH  22  24
DOCKED: BRANCH  22  26
DOCKED: ATOM     26  O   UNL d   1       0.917  46.936  10.735 -0.10 -0.24    -0.303 OA
DOCKED: ATOM     27  H   UNL d   1       0.070  46.897  10.246 +0.05 +0.10    +0.222 HD
DOCKED: ENDBRANCH  22  26
DOCKED: ENDBRANCH  21  22
DOCKED: ENDBRANCH   6  21
DOCKED: BRANCH   3  28
DOCKED: ATOM     28  O   UNL d   1       0.814  52.447   6.009 -0.06 -0.03    -0.278 OA
DOCKED: BRANCH  28  29
DOCKED: ATOM     29  P   UNL d   1       0.958  52.273   4.432 -0.05 +0.06    +0.473 P 
DOCKED: ATOM     30  O   UNL d   1       1.036  50.871   3.947 -0.11 -0.05    -0.228 OA
DOCKED: BRANCH  29  31
DOCKED: ATOM     31  O   UNL d   1      -0.291  53.144   3.940 -0.01 -0.03    -0.303 OA
DOCKED: ATOM     32  H   UNL d   1      -1.118  52.645   4.137 +0.01 +0.02    +0.222 HD
DOCKED: ENDBRANCH  29  31
DOCKED: BRANCH  29  33
DOCKED: ATOM     33  O   UNL d   1       2.197  53.218   4.104 -0.08 -0.03    -0.303 OA
DOCKED: ATOM     34  H   UNL d   1       2.368  53.805   4.881 +0.03 +0.02    +0.222 HD
DOCKED: ENDBRANCH  29  33
DOCKED: ENDBRANCH  28  29
DOCKED: ENDBRANCH   3  28
DOCKED: BRANCH   5  35
DOCKED: ATOM     35  O   UNL d   1      -1.539  50.395   9.434 -0.00 -0.03    -0.278 OA
DOCKED: BRANCH  35  36
DOCKED: ATOM     36  P   UNL d   1      -2.535  49.177   9.695 +0.01 +0.05    +0.473 P 
DOCKED: ATOM     37  O   UNL d   1      -3.215  48.628   8.481 -0.00 -0.03    -0.228 OA
DOCKED: BRANCH  36  38
DOCKED: ATOM     38  O   UNL d   1      -1.588  48.136  10.441 +0.00 -0.06    -0.303 OA
DOCKED: ATOM     39  H   UNL d   1      -0.651  48.381  10.280 +0.02 +0.05    +0.222 HD
DOCKED: ENDBRANCH  36  38
DOCKED: BRANCH  36  40
DOCKED: ATOM     40  O   UNL d   1      -3.469  49.742  10.852 +0.00 -0.02    -0.303 OA
DOCKED: ATOM     41  H   UNL d   1      -4.403  49.825  10.558 +0.00 +0.01    +0.222 HD
DOCKED: ENDBRANCH  36  40
DOCKED: ENDBRANCH  35  36
DOCKED: ENDBRANCH   5  35
DOCKED: BRANCH   4  42
DOCKED: ATOM     42  O   UNL d   1      -1.170  50.431   6.544 -0.02 -0.03    -0.278 OA
DOCKED: BRANCH  42  43
DOCKED: ATOM     43  P   UNL d   1      -2.367  51.237   5.866 -0.00 +0.04    +0.473 P 
DOCKED: ATOM     44  O   UNL d   1      -3.749  50.935   6.332 -0.00 -0.02    -0.228 OA
DOCKED: BRANCH  43  45
DOCKED: ATOM     45  O   UNL d   1      -1.928  52.753   6.072 -0.00 -0.02    -0.303 OA
DOCKED: ATOM     46  H   UNL d   1      -0.957  52.856   6.010 +0.01 +0.02    +0.222 HD
DOCKED: ENDBRANCH  43  45
DOCKED: BRANCH  43  47
DOCKED: ATOM     47  O   UNL d   1      -2.105  51.033   4.298 -0.01 -0.03    -0.303 OA
DOCKED: ATOM     48  H   UNL d   1      -1.145  51.103   4.119 +0.02 +0.03    +0.222 HD
DOCKED: ENDBRANCH  43  47
DOCKED: ENDBRANCH  42  43
DOCKED: ENDBRANCH   4  42
DOCKED: TORSDOF 24
DOCKED: TER
DOCKED: ENDMDL
________________________________________________________________________________


	BEGINNING GENETIC ALGORITHM DOCKING 47 of 100
Run: 47 Seed: 682073726 455427120 [ Run 47 of 100 GA/GALS ]
Beginning LAMARCKIAN GENETIC ALGORITHM (LGA), with a maximum of 25000000 energy evaluations.

Final-Value: -17.722


	FINAL GENETIC ALGORITHM DOCKED STATE
	_______________________________________________


Detailed state:  trans 45.651 23.693 0.020 quatxyzw -0.175704 0.629261 0.745916 -0.129493 center 0.035 0.082 -0.065 ntor 24 -123.1433 30.3274 172.9509 13.5053 11.0009 179.9647 -97.7137 122.5562 39.0564 134.0836 15.6535 161.5968 -144.5893 77.0208 146.0534 24.7276 -49.0303 -147.4447 21.7955 -36.9893 -26.2167 32.5052 -180.0000 -16.4559
State:	 45.651  23.693   0.020  -0.177  0.635  0.752 -165.119   -123.14   30.33  172.95   13.51   11.00  179.96  -97.71  122.56   39.06  134.08   15.65  161.60 -144.59   77.02  146.05   24.73  -49.03 -147.44   21.80  -36.99  -26.22   32.51 -180.00  -16.46

DOCKED: MODEL       47
DOCKED: USER    Run = 47
DOCKED: USER    DPF = D:/Protein_go_brrr/autodock/final/6BB5/IHP/dock.dpf
DOCKED: USER  
DOCKED: USER    Estimated Free Energy of Binding    =   +4.38 kcal/mol  [=(1)+(2)+(3)-(4)]
DOCKED: USER    
DOCKED: USER    (1) Final Intermolecular Energy     =   -2.78 kcal/mol
DOCKED: USER        vdW + Hbond + desolv Energy     =   -2.83 kcal/mol
DOCKED: USER        Electrostatic Energy            =   +0.05 kcal/mol
DOCKED: USER    (2) Final Total Internal Energy     =  -14.94 kcal/mol
DOCKED: USER    (3) Torsional Free Energy           =   +7.16 kcal/mol
DOCKED: USER    (4) Unbound System's Energy  [=(2)] =  -14.94 kcal/mol
DOCKED: USER    
DOCKED: USER    
DOCKED: USER    NEWDPF move IHP_ideal_opt.pdbqt
DOCKED: USER    NEWDPF about 0.035000 0.082000 -0.065000
DOCKED: USER    NEWDPF tran0 45.650541 23.692873 0.019562
DOCKED: USER    NEWDPF quaternion0 -0.175704 0.629261 0.745916 -0.129493
DOCKED: USER    NEWDPF axisangle0 -0.177196 0.634604 0.752250 -165.119376
DOCKED: USER    NEWDPF quat0 -0.177196 0.634604 0.752250 -165.119376
DOCKED: USER    NEWDPF dihe0 -123.14 30.33 172.95 13.51 11.00 179.96 -97.71 122.56 39.06 134.08 15.65 161.60 -144.59 77.02 146.05 24.73 -49.03 -147.44 21.80 -36.99 -26.22 32.51 -180.00 -16.46 
DOCKED: USER  keepresnum = 1 
DOCKED: USER  
DOCKED: REMARK  24 active torsions:
DOCKED: REMARK  status: ('A' for Active; 'I' for Inactive)
DOCKED: REMARK    1  A    between atoms: C_1  and  O_7 
DOCKED: REMARK    2  A    between atoms: C_2  and  O_12 
DOCKED: REMARK    3  A    between atoms: C_3  and  O_17 
DOCKED: REMARK    4  A    between atoms: C_4  and  O_22 
DOCKED: REMARK    5  A    between atoms: C_5  and  O_27 
DOCKED: REMARK    6  A    between atoms: C_6  and  O_32 
DOCKED: REMARK    7  A    between atoms: O_7  and  P_8 
DOCKED: REMARK    8  A    between atoms: P_8  and  O_10 
DOCKED: REMARK    9  A    between atoms: P_8  and  O_11 
DOCKED: REMARK   10  A    between atoms: O_12  and  P_13 
DOCKED: REMARK   11  A    between atoms: P_13  and  O_15 
DOCKED: REMARK   12  A    between atoms: P_13  and  O_16 
DOCKED: REMARK   13  A    between atoms: O_17  and  P_18 
DOCKED: REMARK   14  A    between atoms: P_18  and  O_20 
DOCKED: REMARK   15  A    between atoms: P_18  and  O_21 
DOCKED: REMARK   16  A    between atoms: O_22  and  P_23 
DOCKED: REMARK   17  A    between atoms: P_23  and  O_25 
DOCKED: REMARK   18  A    between atoms: P_23  and  O_26 
DOCKED: REMARK   19  A    between atoms: O_27  and  P_28 
DOCKED: REMARK   20  A    between atoms: P_28  and  O_30 
DOCKED: REMARK   21  A    between atoms: P_28  and  O_31 
DOCKED: REMARK   22  A    between atoms: O_32  and  P_33 
DOCKED: REMARK   23  A    between atoms: P_33  and  O_35 
DOCKED: REMARK   24  A    between atoms: P_33  and  O_36 
DOCKED: USER                              x       y       z     vdW  Elec       q    Type
DOCKED: USER                           _______ _______ _______ _____ _____    ______ ____
DOCKED: ROOT
DOCKED: ATOM      1  C   UNL d   1      44.806  24.591  -1.191 -0.10 +0.03    +0.194 C 
DOCKED: ATOM      2  C   UNL d   1      46.305  24.403  -1.432 -0.08 +0.03    +0.194 C 
DOCKED: ATOM      3  C   UNL d   1      47.116  24.616  -0.152 -0.03 +0.04    +0.194 C 
DOCKED: ATOM      4  C   UNL d   1      46.613  23.784   1.024 -0.18 +0.03    +0.194 C 
DOCKED: ATOM      5  C   UNL d   1      45.105  23.851   1.231 -0.21 +0.04    +0.194 C 
DOCKED: ATOM      6  C   UNL d   1      44.295  23.700  -0.058 -0.15 +0.03    +0.194 C 
DOCKED: ENDROOT
DOCKED: BRANCH   1   7
DOCKED: ATOM      7  O   UNL d   1      44.112  24.210  -2.380 -0.07 -0.02    -0.278 OA
DOCKED: BRANCH   7   8
DOCKED: ATOM      8  P   UNL d   1      43.601  25.360  -3.364 -0.06 +0.02    +0.473 P 
DOCKED: ATOM      9  O   UNL d   1      42.205  25.818  -3.129 -0.06 -0.01    -0.228 OA
DOCKED: BRANCH   8  10
DOCKED: ATOM     10  O   UNL d   1      44.681  26.523  -3.192 -0.11 +0.00    -0.303 OA
DOCKED: ATOM     11  H   UNL d   1      45.478  26.307  -3.710 +0.02 -0.00    +0.222 HD
DOCKED: ENDBRANCH   8  10
DOCKED: BRANCH   8  12
DOCKED: ATOM     12  O   UNL d   1      43.919  24.825  -4.825 -0.01 -0.01    -0.303 OA
DOCKED: ATOM     13  H   UNL d   1      44.542  24.063  -4.830 +0.01 +0.01    +0.222 HD
DOCKED: ENDBRANCH   8  12
DOCKED: ENDBRANCH   7   8
DOCKED: ENDBRANCH   1   7
DOCKED: BRANCH   2  14
DOCKED: ATOM     14  O   UNL d   1      46.538  23.071  -1.905 -0.03 -0.02    -0.278 OA
DOCKED: BRANCH  14  15
DOCKED: ATOM     15  P   UNL d   1      46.607  22.876  -3.493 -0.00 +0.02    +0.473 P 
DOCKED: ATOM     16  O   UNL d   1      47.752  22.072  -4.022 -0.00 -0.01    -0.228 OA
DOCKED: BRANCH  15  17
DOCKED: ATOM     17  O   UNL d   1      45.189  22.252  -3.868 -0.00 -0.01    -0.303 OA
DOCKED: ATOM     18  H   UNL d   1      44.493  22.937  -3.870 +0.01 +0.01    +0.222 HD
DOCKED: ENDBRANCH  15  17
DOCKED: BRANCH  15  19
DOCKED: ATOM     19  O   UNL d   1      46.473  24.348  -4.079 -0.02 -0.01    -0.303 OA
DOCKED: ATOM     20  H   UNL d   1      45.751  24.844  -3.649 +0.02 +0.01    +0.222 HD
DOCKED: ENDBRANCH  15  19
DOCKED: ENDBRANCH  14  15
DOCKED: ENDBRANCH   2  14
DOCKED: BRANCH   6  21
DOCKED: ATOM     21  O   UNL d   1      42.966  24.121   0.238 -0.14 -0.04    -0.278 OA
DOCKED: BRANCH  21  22
DOCKED: ATOM     22  P   UNL d   1      41.735  23.176  -0.130 -0.09 +0.02    +0.473 P 
DOCKED: ATOM     23  O   UNL d   1      40.366  23.612   0.272 -0.13 +0.00    -0.228 OA
DOCKED: BRANCH  22  24
DOCKED: ATOM     24  O   UNL d   1      41.937  22.974  -1.696 -0.03 -0.01    -0.303 OA
DOCKED: ATOM     25  H   UNL d   1      41.979  23.869  -2.120 +0.03 +0.01    +0.222 HD
DOCKED: ENDBRANCH  22  24
DOCKED: BRANCH  22  26
DOCKED: ATOM     26  O   UNL d   1      42.223  21.764   0.452 -0.04 -0.02    -0.303 OA
DOCKED: ATOM     27  H   UNL d   1      43.063  21.890   0.938 +0.06 +0.02    +0.222 HD
DOCKED: ENDBRANCH  22  26
DOCKED: ENDBRANCH  21  22
DOCKED: ENDBRANCH   6  21
DOCKED: BRANCH   3  28
DOCKED: ATOM     28  O   UNL d   1      48.438  24.155  -0.402 -0.06 -0.03    -0.278 OA
DOCKED: BRANCH  28  29
DOCKED: ATOM     29  P   UNL d   1      49.688  24.920   0.223 -0.06 +0.03    +0.473 P 
DOCKED: ATOM     30  O   UNL d   1      49.364  26.124   1.030 -0.22 -0.00    -0.228 OA
DOCKED: BRANCH  29  31
DOCKED: ATOM     31  O   UNL d   1      50.406  23.708   0.982 -0.02 -0.02    -0.303 OA
DOCKED: ATOM     32  H   UNL d   1      49.724  23.202   1.481 +0.05 +0.02    +0.222 HD
DOCKED: ENDBRANCH  29  31
DOCKED: BRANCH  29  33
DOCKED: ATOM     33  O   UNL d   1      50.618  25.137  -1.052 -0.02 -0.01    -0.303 OA
DOCKED: ATOM     34  H   UNL d   1      51.450  25.589  -0.769 +0.03 +0.01    +0.222 HD
DOCKED: ENDBRANCH  29  33
DOCKED: ENDBRANCH  28  29
DOCKED: ENDBRANCH   3  28
DOCKED: BRANCH   5  35
DOCKED: ATOM     35  O   UNL d   1      44.779  22.740   2.064 -0.18 -0.05    -0.278 OA
DOCKED: BRANCH  35  36
DOCKED: ATOM     36  P   UNL d   1      45.315  21.281   1.707 -0.06 +0.10    +0.473 P 
DOCKED: ATOM     37  O   UNL d   1      46.063  21.168   0.416 -0.03 -0.03    -0.228 OA
DOCKED: BRANCH  36  38
DOCKED: ATOM     38  O   UNL d   1      46.179  20.926   2.997 -0.08 -0.13    -0.303 OA
DOCKED: ATOM     39  H   UNL d   1      46.556  21.752   3.368 +0.09 +0.08    +0.222 HD
DOCKED: ENDBRANCH  36  38
DOCKED: BRANCH  36  40
DOCKED: ATOM     40  O   UNL d   1      44.008  20.390   1.864 -0.07 -0.06    -0.303 OA
DOCKED: ATOM     41  H   UNL d   1      43.526  20.295   1.012 +0.04 +0.03    +0.222 HD
DOCKED: ENDBRANCH  36  40
DOCKED: ENDBRANCH  35  36
DOCKED: ENDBRANCH   5  35
DOCKED: BRANCH   4  42
DOCKED: ATOM     42  O   UNL d   1      47.224  24.319   2.203 -0.25 -0.04    -0.278 OA
DOCKED: BRANCH  42  43
DOCKED: ATOM     43  P   UNL d   1      48.002  23.332   3.185 -0.20 +0.08    +0.473 P 
DOCKED: ATOM     44  O   UNL d   1      47.302  22.908   4.429 -0.32 -0.04    -0.228 OA
DOCKED: BRANCH  43  45
DOCKED: ATOM     45  O   UNL d   1      48.405  22.130   2.223 -0.05 -0.06    -0.303 OA
DOCKED: ATOM     46  H   UNL d   1      47.620  21.733   1.797 +0.06 +0.04    +0.222 HD
DOCKED: ENDBRANCH  43  45
DOCKED: BRANCH  43  47
DOCKED: ATOM     47  O   UNL d   1      49.412  24.065   3.399 -0.19 -0.05    -0.303 OA
DOCKED: ATOM     48  H   UNL d   1      49.553  24.710   2.676 +0.08 +0.02    +0.222 HD
DOCKED: ENDBRANCH  43  47
DOCKED: ENDBRANCH  42  43
DOCKED: ENDBRANCH   4  42
DOCKED: TORSDOF 24
DOCKED: TER
DOCKED: ENDMDL
________________________________________________________________________________


	BEGINNING GENETIC ALGORITHM DOCKING 48 of 100
Run: 48 Seed: 1679669367 445008683 [ Run 48 of 100 GA/GALS ]
Beginning LAMARCKIAN GENETIC ALGORITHM (LGA), with a maximum of 25000000 energy evaluations.

Final-Value: -16.630


	FINAL GENETIC ALGORITHM DOCKED STATE
	_______________________________________________


Detailed state:  trans 2.678 13.704 -2.361 quatxyzw 0.251728 0.765688 0.564756 0.177216 center 0.035 0.082 -0.065 ntor 24 -132.3942 -31.7735 -36.7003 150.0887 24.0155 167.8850 -113.4910 -82.1559 103.2410 -47.0490 141.2237 152.1629 50.7071 77.2422 176.8132 -138.7664 -123.1986 29.6690 -12.5213 16.4825 -24.5399 5.0895 -2.5400 176.1585
State:	  2.678  13.704  -2.361   0.256  0.778  0.574 159.585   -132.39  -31.77  -36.70  150.09   24.02  167.88 -113.49  -82.16  103.24  -47.05  141.22  152.16   50.71   77.24  176.81 -138.77 -123.20   29.67  -12.52   16.48  -24.54    5.09   -2.54  176.16

DOCKED: MODEL       48
DOCKED: USER    Run = 48
DOCKED: USER    DPF = D:/Protein_go_brrr/autodock/final/6BB5/IHP/dock.dpf
DOCKED: USER  
DOCKED: USER    Estimated Free Energy of Binding    =   +4.89 kcal/mol  [=(1)+(2)+(3)-(4)]
DOCKED: USER    
DOCKED: USER    (1) Final Intermolecular Energy     =   -2.27 kcal/mol
DOCKED: USER        vdW + Hbond + desolv Energy     =   -2.12 kcal/mol
DOCKED: USER        Electrostatic Energy            =   -0.15 kcal/mol
DOCKED: USER    (2) Final Total Internal Energy     =  -14.36 kcal/mol
DOCKED: USER    (3) Torsional Free Energy           =   +7.16 kcal/mol
DOCKED: USER    (4) Unbound System's Energy  [=(2)] =  -14.36 kcal/mol
DOCKED: USER    
DOCKED: USER    
DOCKED: USER    NEWDPF move IHP_ideal_opt.pdbqt
DOCKED: USER    NEWDPF about 0.035000 0.082000 -0.065000
DOCKED: USER    NEWDPF tran0 2.677501 13.703759 -2.361487
DOCKED: USER    NEWDPF quaternion0 0.251728 0.765688 0.564756 0.177216
DOCKED: USER    NEWDPF axisangle0 0.255776 0.778002 0.573839 159.584677
DOCKED: USER    NEWDPF quat0 0.255776 0.778002 0.573839 159.584677
DOCKED: USER    NEWDPF dihe0 -132.39 -31.77 -36.70 150.09 24.02 167.88 -113.49 -82.16 103.24 -47.05 141.22 152.16 50.71 77.24 176.81 -138.77 -123.20 29.67 -12.52 16.48 -24.54 5.09 -2.54 176.16 
DOCKED: USER  keepresnum = 1 
DOCKED: USER  
DOCKED: REMARK  24 active torsions:
DOCKED: REMARK  status: ('A' for Active; 'I' for Inactive)
DOCKED: REMARK    1  A    between atoms: C_1  and  O_7 
DOCKED: REMARK    2  A    between atoms: C_2  and  O_12 
DOCKED: REMARK    3  A    between atoms: C_3  and  O_17 
DOCKED: REMARK    4  A    between atoms: C_4  and  O_22 
DOCKED: REMARK    5  A    between atoms: C_5  and  O_27 
DOCKED: REMARK    6  A    between atoms: C_6  and  O_32 
DOCKED: REMARK    7  A    between atoms: O_7  and  P_8 
DOCKED: REMARK    8  A    between atoms: P_8  and  O_10 
DOCKED: REMARK    9  A    between atoms: P_8  and  O_11 
DOCKED: REMARK   10  A    between atoms: O_12  and  P_13 
DOCKED: REMARK   11  A    between atoms: P_13  and  O_15 
DOCKED: REMARK   12  A    between atoms: P_13  and  O_16 
DOCKED: REMARK   13  A    between atoms: O_17  and  P_18 
DOCKED: REMARK   14  A    between atoms: P_18  and  O_20 
DOCKED: REMARK   15  A    between atoms: P_18  and  O_21 
DOCKED: REMARK   16  A    between atoms: O_22  and  P_23 
DOCKED: REMARK   17  A    between atoms: P_23  and  O_25 
DOCKED: REMARK   18  A    between atoms: P_23  and  O_26 
DOCKED: REMARK   19  A    between atoms: O_27  and  P_28 
DOCKED: REMARK   20  A    between atoms: P_28  and  O_30 
DOCKED: REMARK   21  A    between atoms: P_28  and  O_31 
DOCKED: REMARK   22  A    between atoms: O_32  and  P_33 
DOCKED: REMARK   23  A    between atoms: P_33  and  O_35 
DOCKED: REMARK   24  A    between atoms: P_33  and  O_36 
DOCKED: USER                              x       y       z     vdW  Elec       q    Type
DOCKED: USER                           _______ _______ _______ _____ _____    ______ ____
DOCKED: ROOT
DOCKED: ATOM      1  C   UNL d   1       1.152  14.482  -2.591 +0.00 +0.01    +0.194 C 
DOCKED: ATOM      2  C   UNL d   1       1.688  13.709  -3.797 +0.00 +0.02    +0.194 C 
DOCKED: ATOM      3  C   UNL d   1       3.184  13.954  -4.008 -0.00 +0.03    +0.194 C 
DOCKED: ATOM      4  C   UNL d   1       4.016  13.711  -2.751 -0.02 +0.06    +0.194 C 
DOCKED: ATOM      5  C   UNL d   1       3.454  14.370  -1.498 -0.04 +0.04    +0.194 C 
DOCKED: ATOM      6  C   UNL d   1       1.946  14.177  -1.320 -0.01 +0.02    +0.194 C 
DOCKED: ENDROOT
DOCKED: BRANCH   1   7
DOCKED: ATOM      7  O   UNL d   1      -0.197  14.068  -2.360 +0.00 -0.01    -0.278 OA
DOCKED: BRANCH   7   8
DOCKED: ATOM      8  P   UNL d   1      -1.295  15.191  -2.067 +0.00 +0.00    +0.473 P 
DOCKED: ATOM      9  O   UNL d   1      -2.180  15.522  -3.217 +0.00 +0.00    -0.228 OA
DOCKED: BRANCH   8  10
DOCKED: ATOM     10  O   UNL d   1      -2.091  14.633  -0.802 +0.00 -0.00    -0.303 OA
DOCKED: ATOM     11  H   UNL d   1      -1.517  14.664  -0.015 +0.01 +0.00    +0.222 HD
DOCKED: ENDBRANCH   8  10
DOCKED: BRANCH   8  12
DOCKED: ATOM     12  O   UNL d   1      -0.486  16.407  -1.441 -0.00 -0.00    -0.303 OA
DOCKED: ATOM     13  H   UNL d   1      -0.242  16.263  -0.499 +0.02 +0.00    +0.222 HD
DOCKED: ENDBRANCH   8  12
DOCKED: ENDBRANCH   7   8
DOCKED: ENDBRANCH   1   7
DOCKED: BRANCH   2  14
DOCKED: ATOM     14  O   UNL d   1       1.480  12.307  -3.584 +0.00 -0.02    -0.278 OA
DOCKED: BRANCH  14  15
DOCKED: ATOM     15  P   UNL d   1       1.209  11.417  -4.887 +0.00 +0.03    +0.473 P 
DOCKED: ATOM     16  O   UNL d   1       1.990  10.146  -5.008 +0.00 -0.01    -0.228 OA
DOCKED: BRANCH  15  17
DOCKED: ATOM     17  O   UNL d   1      -0.365  11.175  -4.870 +0.00 -0.01    -0.303 OA
DOCKED: ATOM     18  H   UNL d   1      -0.578  10.234  -5.022 +0.00 +0.01    +0.222 HD
DOCKED: ENDBRANCH  15  17
DOCKED: BRANCH  15  19
DOCKED: ATOM     19  O   UNL d   1       1.363  12.434  -6.101 +0.00 -0.02    -0.303 OA
DOCKED: ATOM     20  H   UNL d   1       2.279  12.466  -6.431 +0.00 +0.02    +0.222 HD
DOCKED: ENDBRANCH  15  19
DOCKED: ENDBRANCH  14  15
DOCKED: ENDBRANCH   2  14
DOCKED: BRANCH   6  21
DOCKED: ATOM     21  O   UNL d   1       1.525  15.112  -0.329 -0.03 -0.03    -0.278 OA
DOCKED: BRANCH  21  22
DOCKED: ATOM     22  P   UNL d   1       0.700  14.604   0.938 -0.02 +0.03    +0.473 P 
DOCKED: ATOM     23  O   UNL d   1      -0.226  15.564   1.606 -0.03 -0.01    -0.228 OA
DOCKED: BRANCH  22  24
DOCKED: ATOM     24  O   UNL d   1       0.004  13.291   0.369 +0.00 -0.01    -0.303 OA
DOCKED: ATOM     25  H   UNL d   1      -0.322  13.487  -0.547 +0.01 +0.01    +0.222 HD
DOCKED: ENDBRANCH  22  24
DOCKED: BRANCH  22  26
DOCKED: ATOM     26  O   UNL d   1       1.861  13.991   1.859 -0.33 -0.05    -0.303 OA
DOCKED: ATOM     27  H   UNL d   1       2.705  14.005   1.363 +0.04 +0.04    +0.222 HD
DOCKED: ENDBRANCH  22  26
DOCKED: ENDBRANCH  21  22
DOCKED: ENDBRANCH   6  21
DOCKED: BRANCH   3  28
DOCKED: ATOM     28  O   UNL d   1       3.644  12.999  -4.956 +0.00 -0.05    -0.278 OA
DOCKED: BRANCH  28  29
DOCKED: ATOM     29  P   UNL d   1       4.197  13.474  -6.372 +0.01 +0.08    +0.473 P 
DOCKED: ATOM     30  O   UNL d   1       4.317  12.411  -7.403 +0.00 -0.03    -0.228 OA
DOCKED: BRANCH  29  31
DOCKED: ATOM     31  O   UNL d   1       3.182  14.673  -6.680 +0.00 -0.03    -0.303 OA
DOCKED: ATOM     32  H   UNL d   1       2.270  14.306  -6.733 +0.00 +0.01    +0.222 HD
DOCKED: ENDBRANCH  29  31
DOCKED: BRANCH  29  33
DOCKED: ATOM     33  O   UNL d   1       5.534  14.240  -5.970 -0.01 -0.12    -0.303 OA
DOCKED: ATOM     34  H   UNL d   1       5.465  14.533  -5.028 +0.03 +0.12    +0.222 HD
DOCKED: ENDBRANCH  29  33
DOCKED: ENDBRANCH  28  29
DOCKED: ENDBRANCH   3  28
DOCKED: BRANCH   5  35
DOCKED: ATOM     35  O   UNL d   1       4.093  13.721  -0.400 -0.05 -0.06    -0.278 OA
DOCKED: BRANCH  35  36
DOCKED: ATOM     36  P   UNL d   1       4.817  14.581   0.731 -0.11 +0.10    +0.473 P 
DOCKED: ATOM     37  O   UNL d   1       6.175  15.100   0.377 -0.24 -0.10    -0.228 OA
DOCKED: BRANCH  36  38
DOCKED: ATOM     38  O   UNL d   1       3.738  15.715   1.020 -0.35 -0.08    -0.303 OA
DOCKED: ATOM     39  H   UNL d   1       2.838  15.340   0.902 +0.05 +0.05    +0.222 HD
DOCKED: ENDBRANCH  36  38
DOCKED: BRANCH  36  40
DOCKED: ATOM     40  O   UNL d   1       4.718  13.626   1.999 -0.03 -0.00    -0.303 OA
DOCKED: ATOM     41  H   UNL d   1       3.886  13.773   2.501 -0.07 +0.01    +0.222 HD
DOCKED: ENDBRANCH  36  40
DOCKED: ENDBRANCH  35  36
DOCKED: ENDBRANCH   5  35
DOCKED: BRANCH   4  42
DOCKED: ATOM     42  O   UNL d   1       5.304  14.289  -2.989 -0.07 -0.18    -0.278 OA
DOCKED: BRANCH  42  43
DOCKED: ATOM     43  P   UNL d   1       5.418  15.869  -3.173 -0.10 +0.31    +0.473 P 
DOCKED: ATOM     44  O   UNL d   1       5.311  16.712  -1.950 -0.26 -0.11    -0.228 OA
DOCKED: BRANCH  43  45
DOCKED: ATOM     45  O   UNL d   1       6.794  16.031  -3.956 -0.57 -0.44    -0.303 OA
DOCKED: ATOM     46  H   UNL d   1       6.733  15.675  -4.865 +0.05 +0.24    +0.222 HD
DOCKED: ENDBRANCH  43  45
DOCKED: BRANCH  43  47
DOCKED: ATOM     47  O   UNL d   1       4.349  16.182  -4.326 -0.02 -0.08    -0.303 OA
DOCKED: ATOM     48  H   UNL d   1       4.264  15.399  -4.908 +0.03 +0.06    +0.222 HD
DOCKED: ENDBRANCH  43  47
DOCKED: ENDBRANCH  42  43
DOCKED: ENDBRANCH   4  42
DOCKED: TORSDOF 24
DOCKED: TER
DOCKED: ENDMDL
________________________________________________________________________________


	BEGINNING GENETIC ALGORITHM DOCKING 49 of 100
Run: 49 Seed: 793073358 1090439050 [ Run 49 of 100 GA/GALS ]
Beginning LAMARCKIAN GENETIC ALGORITHM (LGA), with a maximum of 25000000 energy evaluations.

Final-Value: -18.413


	FINAL GENETIC ALGORITHM DOCKED STATE
	_______________________________________________


Detailed state:  trans 31.710 48.919 30.604 quatxyzw -0.682451 0.665460 -0.302192 -0.010174 center 0.035 0.082 -0.065 ntor 24 -124.0790 18.9073 152.6849 -25.7317 30.2404 -97.5507 -76.5428 5.8629 90.2302 102.6403 -144.4861 135.6354 61.5296 169.8010 -50.4421 141.4995 109.5843 174.1696 25.2654 15.9938 178.0229 16.0312 -5.6160 172.0634
State:	 31.710  48.919  30.604  -0.682  0.665 -0.302 -178.834   -124.08   18.91  152.68  -25.73   30.24  -97.55  -76.54    5.86   90.23  102.64 -144.49  135.64   61.53  169.80  -50.44  141.50  109.58  174.17   25.27   15.99  178.02   16.03   -5.62  172.06

DOCKED: MODEL       49
DOCKED: USER    Run = 49
DOCKED: USER    DPF = D:/Protein_go_brrr/autodock/final/6BB5/IHP/dock.dpf
DOCKED: USER  
DOCKED: USER    Estimated Free Energy of Binding    =   +3.43 kcal/mol  [=(1)+(2)+(3)-(4)]
DOCKED: USER    
DOCKED: USER    (1) Final Intermolecular Energy     =   -3.73 kcal/mol
DOCKED: USER        vdW + Hbond + desolv Energy     =   -3.56 kcal/mol
DOCKED: USER        Electrostatic Energy            =   -0.17 kcal/mol
DOCKED: USER    (2) Final Total Internal Energy     =  -14.68 kcal/mol
DOCKED: USER    (3) Torsional Free Energy           =   +7.16 kcal/mol
DOCKED: USER    (4) Unbound System's Energy  [=(2)] =  -14.68 kcal/mol
DOCKED: USER    
DOCKED: USER    
DOCKED: USER    NEWDPF move IHP_ideal_opt.pdbqt
DOCKED: USER    NEWDPF about 0.035000 0.082000 -0.065000
DOCKED: USER    NEWDPF tran0 31.710220 48.918689 30.603977
DOCKED: USER    NEWDPF quaternion0 -0.682451 0.665460 -0.302192 -0.010174
DOCKED: USER    NEWDPF axisangle0 -0.682486 0.665494 -0.302208 -178.834153
DOCKED: USER    NEWDPF quat0 -0.682486 0.665494 -0.302208 -178.834153
DOCKED: USER    NEWDPF dihe0 -124.08 18.91 152.68 -25.73 30.24 -97.55 -76.54 5.86 90.23 102.64 -144.49 135.64 61.53 169.80 -50.44 141.50 109.58 174.17 25.27 15.99 178.02 16.03 -5.62 172.06 
DOCKED: USER  keepresnum = 1 
DOCKED: USER  
DOCKED: REMARK  24 active torsions:
DOCKED: REMARK  status: ('A' for Active; 'I' for Inactive)
DOCKED: REMARK    1  A    between atoms: C_1  and  O_7 
DOCKED: REMARK    2  A    between atoms: C_2  and  O_12 
DOCKED: REMARK    3  A    between atoms: C_3  and  O_17 
DOCKED: REMARK    4  A    between atoms: C_4  and  O_22 
DOCKED: REMARK    5  A    between atoms: C_5  and  O_27 
DOCKED: REMARK    6  A    between atoms: C_6  and  O_32 
DOCKED: REMARK    7  A    between atoms: O_7  and  P_8 
DOCKED: REMARK    8  A    between atoms: P_8  and  O_10 
DOCKED: REMARK    9  A    between atoms: P_8  and  O_11 
DOCKED: REMARK   10  A    between atoms: O_12  and  P_13 
DOCKED: REMARK   11  A    between atoms: P_13  and  O_15 
DOCKED: REMARK   12  A    between atoms: P_13  and  O_16 
DOCKED: REMARK   13  A    between atoms: O_17  and  P_18 
DOCKED: REMARK   14  A    between atoms: P_18  and  O_20 
DOCKED: REMARK   15  A    between atoms: P_18  and  O_21 
DOCKED: REMARK   16  A    between atoms: O_22  and  P_23 
DOCKED: REMARK   17  A    between atoms: P_23  and  O_25 
DOCKED: REMARK   18  A    between atoms: P_23  and  O_26 
DOCKED: REMARK   19  A    between atoms: O_27  and  P_28 
DOCKED: REMARK   20  A    between atoms: P_28  and  O_30 
DOCKED: REMARK   21  A    between atoms: P_28  and  O_31 
DOCKED: REMARK   22  A    between atoms: O_32  and  P_33 
DOCKED: REMARK   23  A    between atoms: P_33  and  O_35 
DOCKED: REMARK   24  A    between atoms: P_33  and  O_36 
DOCKED: USER                              x       y       z     vdW  Elec       q    Type
DOCKED: USER                           _______ _______ _______ _____ _____    ______ ____
DOCKED: ROOT
DOCKED: ATOM      1  C   UNL d   1      32.763  47.567  30.827 -0.04 +0.01    +0.194 C 
DOCKED: ATOM      2  C   UNL d   1      33.416  48.943  30.965 -0.01 +0.01    +0.194 C 
DOCKED: ATOM      3  C   UNL d   1      32.944  49.907  29.874 -0.02 +0.01    +0.194 C 
DOCKED: ATOM      4  C   UNL d   1      31.423  49.998  29.769 -0.03 +0.01    +0.194 C 
DOCKED: ATOM      5  C   UNL d   1      30.721  48.646  29.744 -0.06 +0.00    +0.194 C 
DOCKED: ATOM      6  C   UNL d   1      31.237  47.661  30.796 -0.04 +0.00    +0.194 C 
DOCKED: ENDROOT
DOCKED: BRANCH   1   7
DOCKED: ATOM      7  O   UNL d   1      33.118  46.788  31.971 -0.03 -0.01    -0.278 OA
DOCKED: BRANCH   7   8
DOCKED: ATOM      8  P   UNL d   1      34.342  45.768  31.845 -0.07 +0.05    +0.473 P 
DOCKED: ATOM      9  O   UNL d   1      35.536  46.111  32.665 -0.05 -0.02    -0.228 OA
DOCKED: BRANCH   8  10
DOCKED: ATOM     10  O   UNL d   1      33.707  44.354  32.221 -0.17 -0.03    -0.303 OA
DOCKED: ATOM     11  H   UNL d   1      33.204  44.009  31.460 +0.06 +0.03    +0.222 HD
DOCKED: ENDBRANCH   8  10
DOCKED: BRANCH   8  12
DOCKED: ATOM     12  O   UNL d   1      34.593  45.616  30.284 -0.47 -0.07    -0.303 OA
DOCKED: ATOM     13  H   UNL d   1      33.787  45.787  29.745 +0.07 +0.05    +0.222 HD
DOCKED: ENDBRANCH   8  12
DOCKED: ENDBRANCH   7   8
DOCKED: ENDBRANCH   1   7
DOCKED: BRANCH   2  14
DOCKED: ATOM     14  O   UNL d   1      33.074  49.496  32.242 -0.00 -0.01    -0.278 OA
DOCKED: BRANCH  14  15
DOCKED: ATOM     15  P   UNL d   1      34.172  50.436  32.933 +0.00 +0.02    +0.473 P 
DOCKED: ATOM     16  O   UNL d   1      34.438  50.202  34.387 +0.00 -0.01    -0.228 OA
DOCKED: BRANCH  15  17
DOCKED: ATOM     17  O   UNL d   1      35.470  50.244  32.029 +0.00 -0.01    -0.303 OA
DOCKED: ATOM     18  H   UNL d   1      35.285  50.468  31.096 +0.00 +0.01    +0.222 HD
DOCKED: ENDBRANCH  15  17
DOCKED: BRANCH  15  19
DOCKED: ATOM     19  O   UNL d   1      33.729  51.914  32.546 +0.00 -0.01    -0.303 OA
DOCKED: ATOM     20  H   UNL d   1      34.080  52.179  31.675 +0.00 +0.01    +0.222 HD
DOCKED: ENDBRANCH  15  19
DOCKED: ENDBRANCH  14  15
DOCKED: ENDBRANCH   2  14
DOCKED: BRANCH   6  21
DOCKED: ATOM     21  O   UNL d   1      30.746  46.373  30.430 -0.07 +0.01    -0.278 OA
DOCKED: BRANCH  21  22
DOCKED: ATOM     22  P   UNL d   1      31.418  45.585  29.217 -0.22 -0.04    +0.473 P 
DOCKED: ATOM     23  O   UNL d   1      32.208  46.365  28.220 -0.22 +0.02    -0.228 OA
DOCKED: BRANCH  22  24
DOCKED: ATOM     24  O   UNL d   1      32.238  44.453  29.979 -0.58 -0.02    -0.303 OA
DOCKED: ATOM     25  H   UNL d   1      32.588  44.840  30.821 +0.07 +0.02    +0.222 HD
DOCKED: ENDBRANCH  22  24
DOCKED: BRANCH  22  26
DOCKED: ATOM     26  O   UNL d   1      30.174  44.758  28.636 -0.26 +0.11    -0.303 OA
DOCKED: ATOM     27  H   UNL d   1      29.707  45.304  27.970 -0.33 -0.16    +0.222 HD
DOCKED: ENDBRANCH  22  26
DOCKED: ENDBRANCH  21  22
DOCKED: ENDBRANCH   6  21
DOCKED: BRANCH   3  28
DOCKED: ATOM     28  O   UNL d   1      33.375  51.212  30.239 -0.00 -0.01    -0.278 OA
DOCKED: BRANCH  28  29
DOCKED: ATOM     29  P   UNL d   1      34.218  52.095  29.217 +0.00 +0.03    +0.473 P 
DOCKED: ATOM     30  O   UNL d   1      33.557  53.341  28.750 -0.00 -0.02    -0.228 OA
DOCKED: BRANCH  29  31
DOCKED: ATOM     31  O   UNL d   1      35.577  52.262  30.046 -0.00 -0.02    -0.303 OA
DOCKED: ATOM     32  H   UNL d   1      35.374  52.160  31.005 +0.00 +0.01    +0.222 HD
DOCKED: ENDBRANCH  29  31
DOCKED: BRANCH  29  33
DOCKED: ATOM     33  O   UNL d   1      34.615  51.030  28.102 -0.01 -0.02    -0.303 OA
DOCKED: ATOM     34  H   UNL d   1      33.793  50.716  27.651 +0.04 +0.02    +0.222 HD
DOCKED: ENDBRANCH  29  33
DOCKED: ENDBRANCH  28  29
DOCKED: ENDBRANCH   3  28
DOCKED: BRANCH   5  35
DOCKED: ATOM     35  O   UNL d   1      29.355  48.914  30.054 -0.02 -0.01    -0.278 OA
DOCKED: BRANCH  35  36
DOCKED: ATOM     36  P   UNL d   1      28.197  48.431  29.069 -0.07 +0.01    +0.473 P 
DOCKED: ATOM     37  O   UNL d   1      26.864  48.200  29.705 -0.03 +0.01    -0.228 OA
DOCKED: BRANCH  36  38
DOCKED: ATOM     38  O   UNL d   1      28.206  49.581  27.967 -0.10 -0.06    -0.303 OA
DOCKED: ATOM     39  H   UNL d   1      29.068  50.048  27.998 +0.04 +0.05    +0.222 HD
DOCKED: ENDBRANCH  36  38
DOCKED: BRANCH  36  40
DOCKED: ATOM     40  O   UNL d   1      28.871  47.192  28.334 -0.16 +0.04    -0.303 OA
DOCKED: ATOM     41  H   UNL d   1      29.116  46.482  28.968 +0.04 -0.04    +0.222 HD
DOCKED: ENDBRANCH  36  40
DOCKED: ENDBRANCH  35  36
DOCKED: ENDBRANCH   5  35
DOCKED: BRANCH   4  42
DOCKED: ATOM     42  O   UNL d   1      31.132  50.646  28.527 -0.05 -0.03    -0.278 OA
DOCKED: BRANCH  42  43
DOCKED: ATOM     43  P   UNL d   1      31.612  49.963  27.168 -0.11 +0.04    +0.473 P 
DOCKED: ATOM     44  O   UNL d   1      32.149  50.855  26.103 -0.17 -0.04    -0.228 OA
DOCKED: BRANCH  43  45
DOCKED: ATOM     45  O   UNL d   1      32.644  48.863  27.677 -0.12 +0.02    -0.303 OA
DOCKED: ATOM     46  H   UNL d   1      32.581  48.042  27.149 -0.35 -0.08    +0.222 HD
DOCKED: ENDBRANCH  43  45
DOCKED: BRANCH  43  47
DOCKED: ATOM     47  O   UNL d   1      30.355  49.061  26.748 -0.07 -0.05    -0.303 OA
DOCKED: ATOM     48  H   UNL d   1      30.030  48.574  27.533 +0.06 +0.02    +0.222 HD
DOCKED: ENDBRANCH  43  47
DOCKED: ENDBRANCH  42  43
DOCKED: ENDBRANCH   4  42
DOCKED: TORSDOF 24
DOCKED: TER
DOCKED: ENDMDL
________________________________________________________________________________


	BEGINNING GENETIC ALGORITHM DOCKING 50 of 100
Run: 50 Seed: 733532747 1225450483 [ Run 50 of 100 GA/GALS ]
Beginning LAMARCKIAN GENETIC ALGORITHM (LGA), with a maximum of 25000000 energy evaluations.

Final-Value: -18.481


	FINAL GENETIC ALGORITHM DOCKED STATE
	_______________________________________________


Detailed state:  trans 21.758 25.459 -6.713 quatxyzw -0.104536 0.554657 0.242709 0.788999 center 0.035 0.082 -0.065 ntor 24 96.9572 -131.5480 9.8959 -14.5393 119.3100 -177.7362 -99.8063 -32.4208 24.5883 74.6577 90.2246 -93.3674 -51.0945 161.5324 175.2661 -162.5932 -71.3400 79.4277 62.8637 0.6128 22.6231 -8.6609 180.0000 24.3110
State:	 21.758  25.459  -6.713  -0.170  0.903  0.395 75.816     96.96 -131.55    9.90  -14.54  119.31 -177.74  -99.81  -32.42   24.59   74.66   90.22  -93.37  -51.09  161.53  175.27 -162.59  -71.34   79.43   62.86    0.61   22.62   -8.66  180.00   24.31

DOCKED: MODEL       50
DOCKED: USER    Run = 50
DOCKED: USER    DPF = D:/Protein_go_brrr/autodock/final/6BB5/IHP/dock.dpf
DOCKED: USER  
DOCKED: USER    Estimated Free Energy of Binding    =   +2.73 kcal/mol  [=(1)+(2)+(3)-(4)]
DOCKED: USER    
DOCKED: USER    (1) Final Intermolecular Energy     =   -4.43 kcal/mol
DOCKED: USER        vdW + Hbond + desolv Energy     =   -4.15 kcal/mol
DOCKED: USER        Electrostatic Energy            =   -0.28 kcal/mol
DOCKED: USER    (2) Final Total Internal Energy     =  -14.05 kcal/mol
DOCKED: USER    (3) Torsional Free Energy           =   +7.16 kcal/mol
DOCKED: USER    (4) Unbound System's Energy  [=(2)] =  -14.05 kcal/mol
DOCKED: USER    
DOCKED: USER    
DOCKED: USER    NEWDPF move IHP_ideal_opt.pdbqt
DOCKED: USER    NEWDPF about 0.035000 0.082000 -0.065000
DOCKED: USER    NEWDPF tran0 21.758204 25.459204 -6.712929
DOCKED: USER    NEWDPF quaternion0 -0.104536 0.554657 0.242709 0.788999
DOCKED: USER    NEWDPF axisangle0 -0.170145 0.902771 0.395037 75.815821
DOCKED: USER    NEWDPF quat0 -0.170145 0.902771 0.395037 75.815821
DOCKED: USER    NEWDPF dihe0 96.96 -131.55 9.90 -14.54 119.31 -177.74 -99.81 -32.42 24.59 74.66 90.22 -93.37 -51.09 161.53 175.27 -162.59 -71.34 79.43 62.86 0.61 22.62 -8.66 180.00 24.31 
DOCKED: USER  keepresnum = 1 
DOCKED: USER  
DOCKED: REMARK  24 active torsions:
DOCKED: REMARK  status: ('A' for Active; 'I' for Inactive)
DOCKED: REMARK    1  A    between atoms: C_1  and  O_7 
DOCKED: REMARK    2  A    between atoms: C_2  and  O_12 
DOCKED: REMARK    3  A    between atoms: C_3  and  O_17 
DOCKED: REMARK    4  A    between atoms: C_4  and  O_22 
DOCKED: REMARK    5  A    between atoms: C_5  and  O_27 
DOCKED: REMARK    6  A    between atoms: C_6  and  O_32 
DOCKED: REMARK    7  A    between atoms: O_7  and  P_8 
DOCKED: REMARK    8  A    between atoms: P_8  and  O_10 
DOCKED: REMARK    9  A    between atoms: P_8  and  O_11 
DOCKED: REMARK   10  A    between atoms: O_12  and  P_13 
DOCKED: REMARK   11  A    between atoms: P_13  and  O_15 
DOCKED: REMARK   12  A    between atoms: P_13  and  O_16 
DOCKED: REMARK   13  A    between atoms: O_17  and  P_18 
DOCKED: REMARK   14  A    between atoms: P_18  and  O_20 
DOCKED: REMARK   15  A    between atoms: P_18  and  O_21 
DOCKED: REMARK   16  A    between atoms: O_22  and  P_23 
DOCKED: REMARK   17  A    between atoms: P_23  and  O_25 
DOCKED: REMARK   18  A    between atoms: P_23  and  O_26 
DOCKED: REMARK   19  A    between atoms: O_27  and  P_28 
DOCKED: REMARK   20  A    between atoms: P_28  and  O_30 
DOCKED: REMARK   21  A    between atoms: P_28  and  O_31 
DOCKED: REMARK   22  A    between atoms: O_32  and  P_33 
DOCKED: REMARK   23  A    between atoms: P_33  and  O_35 
DOCKED: REMARK   24  A    between atoms: P_33  and  O_36 
DOCKED: USER                              x       y       z     vdW  Elec       q    Type
DOCKED: USER                           _______ _______ _______ _____ _____    ______ ____
DOCKED: ROOT
DOCKED: ATOM      1  C   UNL d   1      21.123  24.153  -5.778 -0.16 -0.05    +0.194 C 
DOCKED: ATOM      2  C   UNL d   1      20.917  24.045  -7.290 -0.15 -0.05    +0.194 C 
DOCKED: ATOM      3  C   UNL d   1      20.487  25.381  -7.900 -0.20 -0.06    +0.194 C 
DOCKED: ATOM      4  C   UNL d   1      21.410  26.538  -7.524 -0.17 -0.12    +0.194 C 
DOCKED: ATOM      5  C   UNL d   1      21.735  26.615  -6.038 -0.07 -0.17    +0.194 C 
DOCKED: ATOM      6  C   UNL d   1      22.105  25.267  -5.415 -0.14 -0.08    +0.194 C 
DOCKED: ENDROOT
DOCKED: BRANCH   1   7
DOCKED: ATOM      7  O   UNL d   1      21.685  22.922  -5.316 -0.06 +0.06    -0.278 OA
DOCKED: BRANCH   7   8
DOCKED: ATOM      8  P   UNL d   1      20.859  21.575  -5.550 -0.12 -0.10    +0.473 P 
DOCKED: ATOM      9  O   UNL d   1      19.560  21.746  -6.256 -0.52 +0.06    -0.228 OA
DOCKED: BRANCH   8  10
DOCKED: ATOM     10  O   UNL d   1      21.877  20.627  -6.331 -0.03 +0.06    -0.303 OA
DOCKED: ATOM     11  H   UNL d   1      22.126  21.042  -7.178 +0.04 -0.05    +0.222 HD
DOCKED: ENDBRANCH   8  10
DOCKED: BRANCH   8  12
DOCKED: ATOM     12  O   UNL d   1      20.787  20.881  -4.123 -0.12 +0.07    -0.303 OA
DOCKED: ATOM     13  H   UNL d   1      20.340  20.005  -4.142 +0.06 -0.06    +0.222 HD
DOCKED: ENDBRANCH   8  12
DOCKED: ENDBRANCH   7   8
DOCKED: ENDBRANCH   1   7
DOCKED: BRANCH   2  14
DOCKED: ATOM     14  O   UNL d   1      22.148  23.639  -7.902 -0.02 +0.06    -0.278 OA
DOCKED: BRANCH  14  15
DOCKED: ATOM     15  P   UNL d   1      22.060  22.441  -8.961 -0.00 -0.09    +0.473 P 
DOCKED: ATOM     16  O   UNL d   1      23.196  21.467  -8.969 -0.01 +0.04    -0.228 OA
DOCKED: BRANCH  15  17
DOCKED: ATOM     17  O   UNL d   1      20.658  21.752  -8.651 -0.08 +0.09    -0.303 OA
DOCKED: ATOM     18  H   UNL d   1      20.742  21.088  -7.940 +0.05 -0.07    +0.222 HD
DOCKED: ENDBRANCH  15  17
DOCKED: BRANCH  15  19
DOCKED: ATOM     19  O   UNL d   1      21.763  23.160 -10.348 -0.01 +0.06    -0.303 OA
DOCKED: ATOM     20  H   UNL d   1      20.841  23.473 -10.402 +0.03 -0.05    +0.222 HD
DOCKED: ENDBRANCH  15  19
DOCKED: ENDBRANCH  14  15
DOCKED: ENDBRANCH   2  14
DOCKED: BRANCH   6  21
DOCKED: ATOM     21  O   UNL d   1      22.041  25.435  -4.000 -0.14 +0.12    -0.278 OA
DOCKED: BRANCH  21  22
DOCKED: ATOM     22  P   UNL d   1      23.252  26.132  -3.230 -0.14 -0.26    +0.473 P 
DOCKED: ATOM     23  O   UNL d   1      23.455  25.802  -1.790 -0.13 +0.12    -0.228 OA
DOCKED: BRANCH  22  24
DOCKED: ATOM     24  O   UNL d   1      24.483  25.782  -4.176 -0.03 +0.12    -0.303 OA
DOCKED: ATOM     25  H   UNL d   1      24.258  26.071  -5.096 +0.04 -0.10    +0.222 HD
DOCKED: ENDBRANCH  22  24
DOCKED: BRANCH  22  26
DOCKED: ATOM     26  O   UNL d   1      23.005  27.680  -3.568 -0.21 +0.39    -0.303 OA
DOCKED: ATOM     27  H   UNL d   1      22.142  27.777  -4.020 -0.41 -0.41    +0.222 HD
DOCKED: ENDBRANCH  22  26
DOCKED: ENDBRANCH  21  22
DOCKED: ENDBRANCH   6  21
DOCKED: BRANCH   3  28
DOCKED: ATOM     28  O   UNL d   1      20.591  25.260  -9.313 -0.07 +0.07    -0.278 OA
DOCKED: BRANCH  28  29
DOCKED: ATOM     29  P   UNL d   1      19.287  25.026 -10.198 -0.09 -0.11    +0.473 P 
DOCKED: ATOM     30  O   UNL d   1      19.486  25.112 -11.667 -0.04 +0.04    -0.228 OA
DOCKED: BRANCH  29  31
DOCKED: ATOM     31  O   UNL d   1      18.801  23.618  -9.612 -0.19 +0.08    -0.303 OA
DOCKED: ATOM     32  H   UNL d   1      19.573  23.007  -9.583 +0.05 -0.07    +0.222 HD
DOCKED: ENDBRANCH  29  31
DOCKED: BRANCH  29  33
DOCKED: ATOM     33  O   UNL d   1      18.255  26.051  -9.550 -0.08 +0.07    -0.303 OA
DOCKED: ATOM     34  H   UNL d   1      18.758  26.796  -9.139 +0.09 -0.07    +0.222 HD
DOCKED: ENDBRANCH  29  33
DOCKED: ENDBRANCH  28  29
DOCKED: ENDBRANCH   3  28
DOCKED: BRANCH   5  35
DOCKED: ATOM     35  O   UNL d   1      22.884  27.454  -5.936 -0.03 +0.39    -0.278 OA
DOCKED: BRANCH  35  36
DOCKED: ATOM     36  P   UNL d   1      24.156  27.192  -6.861 -0.04 -0.32    +0.473 P 
DOCKED: ATOM     37  O   UNL d   1      24.343  25.779  -7.316 -0.02 +0.08    -0.228 OA
DOCKED: BRANCH  36  38
DOCKED: ATOM     38  O   UNL d   1      23.921  28.234  -8.042 -0.05 +0.24    -0.303 OA
DOCKED: ATOM     39  H   UNL d   1      22.984  28.185  -8.332 -0.09 -0.22    +0.222 HD
DOCKED: ENDBRANCH  36  38
DOCKED: BRANCH  36  40
DOCKED: ATOM     40  O   UNL d   1      25.334  27.838  -6.010 -0.04 +0.16    -0.303 OA
DOCKED: ATOM     41  H   UNL d   1      25.178  27.746  -5.043 +0.04 -0.13    +0.222 HD
DOCKED: ENDBRANCH  36  40
DOCKED: ENDBRANCH  35  36
DOCKED: ENDBRANCH   5  35
DOCKED: BRANCH   4  42
DOCKED: ATOM     42  O   UNL d   1      20.721  27.746  -7.867 -0.19 +0.27    -0.278 OA
DOCKED: BRANCH  42  43
DOCKED: ATOM     43  P   UNL d   1      20.857  28.316  -9.350 -0.06 -0.29    +0.473 P 
DOCKED: ATOM     44  O   UNL d   1      19.598  28.567 -10.107 -0.10 +0.08    -0.228 OA
DOCKED: BRANCH  43  45
DOCKED: ATOM     45  O   UNL d   1      21.763  29.608  -9.146 -0.06 +0.28    -0.303 OA
DOCKED: ATOM     46  H   UNL d   1      22.222  29.590  -8.283 -0.51 -0.42    +0.222 HD
DOCKED: ENDBRANCH  43  45
DOCKED: BRANCH  43  47
DOCKED: ATOM     47  O   UNL d   1      21.888  27.301 -10.040 -0.02 +0.11    -0.303 OA
DOCKED: ATOM     48  H   UNL d   1      21.396  26.528 -10.387 +0.04 -0.06    +0.222 HD
DOCKED: ENDBRANCH  43  47
DOCKED: ENDBRANCH  42  43
DOCKED: ENDBRANCH   4  42
DOCKED: TORSDOF 24
DOCKED: TER
DOCKED: ENDMDL
________________________________________________________________________________


	BEGINNING GENETIC ALGORITHM DOCKING 51 of 100
Run: 51 Seed: 11894637 1109056478 [ Run 51 of 100 GA/GALS ]
Beginning LAMARCKIAN GENETIC ALGORITHM (LGA), with a maximum of 25000000 energy evaluations.

Final-Value: -19.142


	FINAL GENETIC ALGORITHM DOCKED STATE
	_______________________________________________


Detailed state:  trans 23.502 48.808 0.982 quatxyzw -0.581202 -0.506188 0.304855 0.559502 center 0.035 0.082 -0.065 ntor 24 -126.4250 -10.5954 20.2870 122.3719 117.0957 127.4982 -104.4580 15.6411 125.0654 114.7775 60.4796 -179.9302 -133.7661 -24.1542 -169.7871 14.2745 61.2783 162.9137 36.2784 -44.9145 -10.0032 178.3351 169.6052 8.4589
State:	 23.502  48.808   0.982  -0.701 -0.611  0.368 111.957   -126.42  -10.60   20.29  122.37  117.10  127.50 -104.46   15.64  125.07  114.78   60.48 -179.93 -133.77  -24.15 -169.79   14.27   61.28  162.91   36.28  -44.91  -10.00  178.34  169.61    8.46

DOCKED: MODEL       51
DOCKED: USER    Run = 51
DOCKED: USER    DPF = D:/Protein_go_brrr/autodock/final/6BB5/IHP/dock.dpf
DOCKED: USER  
DOCKED: USER    Estimated Free Energy of Binding    =   +2.78 kcal/mol  [=(1)+(2)+(3)-(4)]
DOCKED: USER    
DOCKED: USER    (1) Final Intermolecular Energy     =   -4.38 kcal/mol
DOCKED: USER        vdW + Hbond + desolv Energy     =   -4.28 kcal/mol
DOCKED: USER        Electrostatic Energy            =   -0.09 kcal/mol
DOCKED: USER    (2) Final Total Internal Energy     =  -14.76 kcal/mol
DOCKED: USER    (3) Torsional Free Energy           =   +7.16 kcal/mol
DOCKED: USER    (4) Unbound System's Energy  [=(2)] =  -14.76 kcal/mol
DOCKED: USER    
DOCKED: USER    
DOCKED: USER    NEWDPF move IHP_ideal_opt.pdbqt
DOCKED: USER    NEWDPF about 0.035000 0.082000 -0.065000
DOCKED: USER    NEWDPF tran0 23.502276 48.807934 0.981738
DOCKED: USER    NEWDPF quaternion0 -0.581202 -0.506188 0.304855 0.559502
DOCKED: USER    NEWDPF axisangle0 -0.701232 -0.610726 0.367814 111.957325
DOCKED: USER    NEWDPF quat0 -0.701232 -0.610726 0.367814 111.957325
DOCKED: USER    NEWDPF dihe0 -126.42 -10.60 20.29 122.37 117.10 127.50 -104.46 15.64 125.07 114.78 60.48 -179.93 -133.77 -24.15 -169.79 14.27 61.28 162.91 36.28 -44.91 -10.00 178.34 169.61 8.46 
DOCKED: USER  keepresnum = 1 
DOCKED: USER  
DOCKED: REMARK  24 active torsions:
DOCKED: REMARK  status: ('A' for Active; 'I' for Inactive)
DOCKED: REMARK    1  A    between atoms: C_1  and  O_7 
DOCKED: REMARK    2  A    between atoms: C_2  and  O_12 
DOCKED: REMARK    3  A    between atoms: C_3  and  O_17 
DOCKED: REMARK    4  A    between atoms: C_4  and  O_22 
DOCKED: REMARK    5  A    between atoms: C_5  and  O_27 
DOCKED: REMARK    6  A    between atoms: C_6  and  O_32 
DOCKED: REMARK    7  A    between atoms: O_7  and  P_8 
DOCKED: REMARK    8  A    between atoms: P_8  and  O_10 
DOCKED: REMARK    9  A    between atoms: P_8  and  O_11 
DOCKED: REMARK   10  A    between atoms: O_12  and  P_13 
DOCKED: REMARK   11  A    between atoms: P_13  and  O_15 
DOCKED: REMARK   12  A    between atoms: P_13  and  O_16 
DOCKED: REMARK   13  A    between atoms: O_17  and  P_18 
DOCKED: REMARK   14  A    between atoms: P_18  and  O_20 
DOCKED: REMARK   15  A    between atoms: P_18  and  O_21 
DOCKED: REMARK   16  A    between atoms: O_22  and  P_23 
DOCKED: REMARK   17  A    between atoms: P_23  and  O_25 
DOCKED: REMARK   18  A    between atoms: P_23  and  O_26 
DOCKED: REMARK   19  A    between atoms: O_27  and  P_28 
DOCKED: REMARK   20  A    between atoms: P_28  and  O_30 
DOCKED: REMARK   21  A    between atoms: P_28  and  O_31 
DOCKED: REMARK   22  A    between atoms: O_32  and  P_33 
DOCKED: REMARK   23  A    between atoms: P_33  and  O_35 
DOCKED: REMARK   24  A    between atoms: P_33  and  O_36 
DOCKED: USER                              x       y       z     vdW  Elec       q    Type
DOCKED: USER                           _______ _______ _______ _____ _____    ______ ____
DOCKED: ROOT
DOCKED: ATOM      1  C   UNL d   1      23.223  48.236  -0.624 -0.10 +0.01    +0.194 C 
DOCKED: ATOM      2  C   UNL d   1      22.021  48.170   0.320 -0.17 +0.00    +0.194 C 
DOCKED: ATOM      3  C   UNL d   1      22.416  47.656   1.706 -0.19 +0.02    +0.194 C 
DOCKED: ATOM      4  C   UNL d   1      23.589  48.418   2.317 -0.13 +0.03    +0.194 C 
DOCKED: ATOM      5  C   UNL d   1      24.767  48.608   1.371 -0.07 +0.03    +0.194 C 
DOCKED: ATOM      6  C   UNL d   1      24.366  49.063  -0.034 -0.05 +0.02    +0.194 C 
DOCKED: ENDROOT
DOCKED: BRANCH   1   7
DOCKED: ATOM      7  O   UNL d   1      22.808  48.882  -1.830 -0.05 +0.00    -0.278 OA
DOCKED: BRANCH   7   8
DOCKED: ATOM      8  P   UNL d   1      22.145  47.992  -2.979 -0.08 -0.02    +0.473 P 
DOCKED: ATOM      9  O   UNL d   1      23.110  47.276  -3.858 -0.06 -0.00    -0.228 OA
DOCKED: BRANCH   8  10
DOCKED: ATOM     10  O   UNL d   1      21.165  47.011  -2.191 -0.22 +0.03    -0.303 OA
DOCKED: ATOM     11  H   UNL d   1      20.367  47.499  -1.914 -0.06 -0.07    +0.222 HD
DOCKED: ENDBRANCH   8  10
DOCKED: BRANCH   8  12
DOCKED: ATOM     12  O   UNL d   1      21.124  48.962  -3.715 -0.03 +0.03    -0.303 OA
DOCKED: ATOM     13  H   UNL d   1      20.467  49.365  -3.105 +0.05 -0.03    +0.222 HD
DOCKED: ENDBRANCH   8  12
DOCKED: ENDBRANCH   7   8
DOCKED: ENDBRANCH   1   7
DOCKED: BRANCH   2  14
DOCKED: ATOM     14  O   UNL d   1      21.465  49.484   0.461 -0.12 +0.02    -0.278 OA
DOCKED: BRANCH  14  15
DOCKED: ATOM     15  P   UNL d   1      20.384  49.925  -0.635 -0.17 -0.10    +0.473 P 
DOCKED: ATOM     16  O   UNL d   1      19.531  48.840  -1.213 -0.05 +0.10    -0.228 OA
DOCKED: BRANCH  15  17
DOCKED: ATOM     17  O   UNL d   1      19.532  51.057   0.095 -0.16 +0.10    -0.303 OA
DOCKED: ATOM     18  H   UNL d   1      18.916  50.668   0.745 -0.46 -0.13    +0.222 HD
DOCKED: ENDBRANCH  15  17
DOCKED: BRANCH  15  19
DOCKED: ATOM     19  O   UNL d   1      21.214  50.780  -1.689 -0.04 +0.03    -0.303 OA
DOCKED: ATOM     20  H   UNL d   1      21.902  50.245  -2.125 +0.04 -0.02    +0.222 HD
DOCKED: ENDBRANCH  15  19
DOCKED: ENDBRANCH  14  15
DOCKED: ENDBRANCH   2  14
DOCKED: BRANCH   6  21
DOCKED: ATOM     21  O   UNL d   1      25.502  48.863  -0.872 -0.02 -0.03    -0.278 OA
DOCKED: BRANCH  21  22
DOCKED: ATOM     22  P   UNL d   1      26.268  50.123  -1.482 +0.00 +0.03    +0.473 P 
DOCKED: ATOM     23  O   UNL d   1      26.743  50.044  -2.893 -0.00 -0.01    -0.228 OA
DOCKED: BRANCH  22  24
DOCKED: ATOM     24  O   UNL d   1      25.239  51.302  -1.188 -0.00 -0.01    -0.303 OA
DOCKED: ATOM     25  H   UNL d   1      24.990  51.262  -0.230 +0.01 +0.00    +0.222 HD
DOCKED: ENDBRANCH  22  24
DOCKED: BRANCH  22  26
DOCKED: ATOM     26  O   UNL d   1      27.397  50.385  -0.374 +0.00 -0.03    -0.303 OA
DOCKED: ATOM     27  H   UNL d   1      26.987  50.359   0.515 +0.02 +0.02    +0.222 HD
DOCKED: ENDBRANCH  22  26
DOCKED: ENDBRANCH  21  22
DOCKED: ENDBRANCH   6  21
DOCKED: BRANCH   3  28
DOCKED: ATOM     28  O   UNL d   1      21.318  47.890   2.578 -0.30 +0.00    -0.278 OA
DOCKED: BRANCH  28  29
DOCKED: ATOM     29  P   UNL d   1      20.951  49.372   3.030 -0.25 -0.03    +0.473 P 
DOCKED: ATOM     30  O   UNL d   1      21.965  50.409   2.710 -0.13 +0.01    -0.228 OA
DOCKED: BRANCH  29  31
DOCKED: ATOM     31  O   UNL d   1      19.514  49.526   2.342 -0.42 +0.07    -0.303 OA
DOCKED: ATOM     32  H   UNL d   1      19.597  49.299   1.387 +0.04 -0.06    +0.222 HD
DOCKED: ENDBRANCH  29  31
DOCKED: BRANCH  29  33
DOCKED: ATOM     33  O   UNL d   1      20.585  49.173   4.567 -0.33 -0.00    -0.303 OA
DOCKED: ATOM     34  H   UNL d   1      21.419  49.037   5.080 +0.13 +0.01    +0.222 HD
DOCKED: ENDBRANCH  29  33
DOCKED: ENDBRANCH  28  29
DOCKED: ENDBRANCH   3  28
DOCKED: BRANCH   5  35
DOCKED: ATOM     35  O   UNL d   1      25.557  49.650   1.940 -0.01 -0.03    -0.278 OA
DOCKED: BRANCH  35  36
DOCKED: ATOM     36  P   UNL d   1      24.931  51.099   2.172 +0.02 +0.01    +0.473 P 
DOCKED: ATOM     37  O   UNL d   1      24.610  51.442   3.592 -0.02 -0.00    -0.228 OA
DOCKED: BRANCH  36  38
DOCKED: ATOM     38  O   UNL d   1      26.028  52.039   1.503 +0.00 -0.01    -0.303 OA
DOCKED: ATOM     39  H   UNL d   1      26.177  51.751   0.577 +0.01 +0.01    +0.222 HD
DOCKED: ENDBRANCH  36  38
DOCKED: BRANCH  36  40
DOCKED: ATOM     40  O   UNL d   1      23.726  51.118   1.134 -0.01 +0.00    -0.303 OA
DOCKED: ATOM     41  H   UNL d   1      22.981  50.550   1.430 +0.06 -0.01    +0.222 HD
DOCKED: ENDBRANCH  36  40
DOCKED: ENDBRANCH  35  36
DOCKED: ENDBRANCH   5  35
DOCKED: BRANCH   4  42
DOCKED: ATOM     42  O   UNL d   1      24.058  47.639   3.423 -0.18 -0.10    -0.278 OA
DOCKED: BRANCH  42  43
DOCKED: ATOM     43  P   UNL d   1      23.667  48.086   4.903 -0.14 +0.12    +0.473 P 
DOCKED: ATOM     44  O   UNL d   1      24.613  47.735   5.999 -0.28 -0.10    -0.228 OA
DOCKED: BRANCH  43  45
DOCKED: ATOM     45  O   UNL d   1      23.412  49.648   4.739 -0.08 -0.02    -0.303 OA
DOCKED: ATOM     46  H   UNL d   1      23.736  49.976   3.877 +0.08 +0.01    +0.222 HD
DOCKED: ENDBRANCH  43  45
DOCKED: BRANCH  43  47
DOCKED: ATOM     47  O   UNL d   1      22.174  47.528   5.072 -0.07 -0.02    -0.303 OA
DOCKED: ATOM     48  H   UNL d   1      21.899  47.087   4.242 -0.27 -0.02    +0.222 HD
DOCKED: ENDBRANCH  43  47
DOCKED: ENDBRANCH  42  43
DOCKED: ENDBRANCH   4  42
DOCKED: TORSDOF 24
DOCKED: TER
DOCKED: ENDMDL
________________________________________________________________________________


	BEGINNING GENETIC ALGORITHM DOCKING 52 of 100
Run: 52 Seed: 1807424705 364320135 [ Run 52 of 100 GA/GALS ]
Beginning LAMARCKIAN GENETIC ALGORITHM (LGA), with a maximum of 25000000 energy evaluations.

Final-Value: -18.367


	FINAL GENETIC ALGORITHM DOCKED STATE
	_______________________________________________


Detailed state:  trans 37.315 41.770 0.587 quatxyzw 0.246263 0.262164 -0.182693 -0.915012 center 0.035 0.082 -0.065 ntor 24 -158.4272 26.4604 125.3101 122.7607 144.9608 132.8640 -93.1001 -60.1909 52.1782 94.3254 96.9128 152.5269 -136.5068 90.2459 -153.2535 -138.9845 -38.5793 58.4301 51.2881 1.5342 12.4934 0.9346 -31.8279 -5.5463
State:	 37.315  41.770   0.587   0.610  0.650 -0.453 -47.585   -158.43   26.46  125.31  122.76  144.96  132.86  -93.10  -60.19   52.18   94.33   96.91  152.53 -136.51   90.25 -153.25 -138.98  -38.58   58.43   51.29    1.53   12.49    0.93  -31.83   -5.55

DOCKED: MODEL       52
DOCKED: USER    Run = 52
DOCKED: USER    DPF = D:/Protein_go_brrr/autodock/final/6BB5/IHP/dock.dpf
DOCKED: USER  
DOCKED: USER    Estimated Free Energy of Binding    =   +4.10 kcal/mol  [=(1)+(2)+(3)-(4)]
DOCKED: USER    
DOCKED: USER    (1) Final Intermolecular Energy     =   -3.06 kcal/mol
DOCKED: USER        vdW + Hbond + desolv Energy     =   -2.91 kcal/mol
DOCKED: USER        Electrostatic Energy            =   -0.15 kcal/mol
DOCKED: USER    (2) Final Total Internal Energy     =  -15.30 kcal/mol
DOCKED: USER    (3) Torsional Free Energy           =   +7.16 kcal/mol
DOCKED: USER    (4) Unbound System's Energy  [=(2)] =  -15.30 kcal/mol
DOCKED: USER    
DOCKED: USER    
DOCKED: USER    NEWDPF move IHP_ideal_opt.pdbqt
DOCKED: USER    NEWDPF about 0.035000 0.082000 -0.065000
DOCKED: USER    NEWDPF tran0 37.314543 41.769904 0.587355
DOCKED: USER    NEWDPF quaternion0 0.246263 0.262164 -0.182693 -0.915012
DOCKED: USER    NEWDPF axisangle0 0.610431 0.649844 -0.452854 -47.585010
DOCKED: USER    NEWDPF quat0 0.610431 0.649844 -0.452854 -47.585010
DOCKED: USER    NEWDPF dihe0 -158.43 26.46 125.31 122.76 144.96 132.86 -93.10 -60.19 52.18 94.33 96.91 152.53 -136.51 90.25 -153.25 -138.98 -38.58 58.43 51.29 1.53 12.49 0.93 -31.83 -5.55 
DOCKED: USER  keepresnum = 1 
DOCKED: USER  
DOCKED: REMARK  24 active torsions:
DOCKED: REMARK  status: ('A' for Active; 'I' for Inactive)
DOCKED: REMARK    1  A    between atoms: C_1  and  O_7 
DOCKED: REMARK    2  A    between atoms: C_2  and  O_12 
DOCKED: REMARK    3  A    between atoms: C_3  and  O_17 
DOCKED: REMARK    4  A    between atoms: C_4  and  O_22 
DOCKED: REMARK    5  A    between atoms: C_5  and  O_27 
DOCKED: REMARK    6  A    between atoms: C_6  and  O_32 
DOCKED: REMARK    7  A    between atoms: O_7  and  P_8 
DOCKED: REMARK    8  A    between atoms: P_8  and  O_10 
DOCKED: REMARK    9  A    between atoms: P_8  and  O_11 
DOCKED: REMARK   10  A    between atoms: O_12  and  P_13 
DOCKED: REMARK   11  A    between atoms: P_13  and  O_15 
DOCKED: REMARK   12  A    between atoms: P_13  and  O_16 
DOCKED: REMARK   13  A    between atoms: O_17  and  P_18 
DOCKED: REMARK   14  A    between atoms: P_18  and  O_20 
DOCKED: REMARK   15  A    between atoms: P_18  and  O_21 
DOCKED: REMARK   16  A    between atoms: O_22  and  P_23 
DOCKED: REMARK   17  A    between atoms: P_23  and  O_25 
DOCKED: REMARK   18  A    between atoms: P_23  and  O_26 
DOCKED: REMARK   19  A    between atoms: O_27  and  P_28 
DOCKED: REMARK   20  A    between atoms: P_28  and  O_30 
DOCKED: REMARK   21  A    between atoms: P_28  and  O_31 
DOCKED: REMARK   22  A    between atoms: O_32  and  P_33 
DOCKED: REMARK   23  A    between atoms: P_33  and  O_35 
DOCKED: REMARK   24  A    between atoms: P_33  and  O_36 
DOCKED: USER                              x       y       z     vdW  Elec       q    Type
DOCKED: USER                           _______ _______ _______ _____ _____    ______ ____
DOCKED: ROOT
DOCKED: ATOM      1  C   UNL d   1      38.208  40.360   0.145 -0.05 +0.01    +0.194 C 
DOCKED: ATOM      2  C   UNL d   1      36.699  40.164   0.297 -0.08 +0.01    +0.194 C 
DOCKED: ATOM      3  C   UNL d   1      36.157  40.880   1.536 -0.14 +0.01    +0.194 C 
DOCKED: ATOM      4  C   UNL d   1      36.559  42.352   1.604 -0.08 +0.03    +0.194 C 
DOCKED: ATOM      5  C   UNL d   1      38.038  42.604   1.344 -0.04 +0.03    +0.194 C 
DOCKED: ATOM      6  C   UNL d   1      38.595  41.839   0.141 -0.03 +0.02    +0.194 C 
DOCKED: ENDROOT
DOCKED: BRANCH   1   7
DOCKED: ATOM      7  O   UNL d   1      38.604  39.813  -1.115 -0.04 -0.02    -0.278 OA
DOCKED: BRANCH   7   8
DOCKED: ATOM      8  P   UNL d   1      38.597  38.225  -1.290 -0.02 +0.02    +0.473 P 
DOCKED: ATOM      9  O   UNL d   1      39.829  37.533  -0.823 -0.07 -0.01    -0.228 OA
DOCKED: BRANCH   8  10
DOCKED: ATOM     10  O   UNL d   1      37.282  37.757  -0.516 -0.03 +0.00    -0.303 OA
DOCKED: ATOM     11  H   UNL d   1      36.543  38.353  -0.738 +0.03 -0.00    +0.222 HD
DOCKED: ENDBRANCH   8  10
DOCKED: BRANCH   8  12
DOCKED: ATOM     12  O   UNL d   1      38.195  37.977  -2.807 -0.01 -0.01    -0.303 OA
DOCKED: ATOM     13  H   UNL d   1      37.763  38.757  -3.223 +0.01 +0.01    +0.222 HD
DOCKED: ENDBRANCH   8  12
DOCKED: ENDBRANCH   7   8
DOCKED: ENDBRANCH   1   7
DOCKED: BRANCH   2  14
DOCKED: ATOM     14  O   UNL d   1      36.041  40.694  -0.861 -0.01 -0.02    -0.278 OA
DOCKED: BRANCH  14  15
DOCKED: ATOM     15  P   UNL d   1      34.918  39.769  -1.531 -0.00 +0.02    +0.473 P 
DOCKED: ATOM     16  O   UNL d   1      33.744  40.471  -2.138 -0.00 -0.02    -0.228 OA
DOCKED: BRANCH  15  17
DOCKED: ATOM     17  O   UNL d   1      35.722  38.887  -2.586 -0.00 -0.01    -0.303 OA
DOCKED: ATOM     18  H   UNL d   1      36.642  38.741  -2.293 +0.01 +0.01    +0.222 HD
DOCKED: ENDBRANCH  15  17
DOCKED: BRANCH  15  19
DOCKED: ATOM     19  O   UNL d   1      34.571  38.693  -0.413 -0.03 -0.00    -0.303 OA
DOCKED: ATOM     20  H   UNL d   1      34.191  39.110   0.383 +0.04 +0.00    +0.222 HD
DOCKED: ENDBRANCH  15  19
DOCKED: ENDBRANCH  14  15
DOCKED: ENDBRANCH   2  14
DOCKED: BRANCH   6  21
DOCKED: ATOM     21  O   UNL d   1      40.016  41.901   0.235 -0.02 -0.02    -0.278 OA
DOCKED: BRANCH  21  22
DOCKED: ATOM     22  P   UNL d   1      40.804  43.105  -0.454 -0.00 +0.04    +0.473 P 
DOCKED: ATOM     23  O   UNL d   1      41.860  42.776  -1.454 -0.00 -0.01    -0.228 OA
DOCKED: BRANCH  22  24
DOCKED: ATOM     24  O   UNL d   1      39.610  43.997  -1.013 +0.00 -0.03    -0.303 OA
DOCKED: ATOM     25  H   UNL d   1      39.237  44.520  -0.258 +0.01 +0.03    +0.222 HD
DOCKED: ENDBRANCH  22  24
DOCKED: BRANCH  22  26
DOCKED: ATOM     26  O   UNL d   1      41.282  43.952   0.820 -0.01 -0.03    -0.303 OA
DOCKED: ATOM     27  H   UNL d   1      40.555  43.986   1.475 +0.03 +0.03    +0.222 HD
DOCKED: ENDBRANCH  22  26
DOCKED: ENDBRANCH  21  22
DOCKED: ENDBRANCH   6  21
DOCKED: BRANCH   3  28
DOCKED: ATOM     28  O   UNL d   1      34.738  40.881   1.444 -0.07 -0.02    -0.278 OA
DOCKED: BRANCH  28  29
DOCKED: ATOM     29  P   UNL d   1      33.867  40.015   2.458 -0.17 +0.03    +0.473 P 
DOCKED: ATOM     30  O   UNL d   1      32.448  39.808   2.068 -0.10 -0.02    -0.228 OA
DOCKED: BRANCH  29  31
DOCKED: ATOM     31  O   UNL d   1      34.786  38.710   2.572 -0.02 +0.04    -0.303 OA
DOCKED: ATOM     32  H   UNL d   1      35.125  38.485   1.675 -0.30 -0.05    +0.222 HD
DOCKED: ENDBRANCH  29  31
DOCKED: BRANCH  29  33
DOCKED: ATOM     33  O   UNL d   1      34.132  40.754   3.843 -0.25 -0.03    -0.303 OA
DOCKED: ATOM     34  H   UNL d   1      34.756  41.506   3.691 -0.28 +0.00    +0.222 HD
DOCKED: ENDBRANCH  29  33
DOCKED: ENDBRANCH  28  29
DOCKED: ENDBRANCH   3  28
DOCKED: BRANCH   5  35
DOCKED: ATOM     35  O   UNL d   1      38.147  43.994   1.044 -0.01 -0.07    -0.278 OA
DOCKED: BRANCH  35  36
DOCKED: ATOM     36  P   UNL d   1      38.603  45.026   2.172 -0.01 +0.17    +0.473 P 
DOCKED: ATOM     37  O   UNL d   1      39.022  44.418   3.472 -0.08 -0.07    -0.228 OA
DOCKED: BRANCH  36  38
DOCKED: ATOM     38  O   UNL d   1      39.754  45.836   1.427 -0.00 -0.07    -0.303 OA
DOCKED: ATOM     39  H   UNL d   1      40.055  45.322   0.647 +0.01 +0.03    +0.222 HD
DOCKED: ENDBRANCH  36  38
DOCKED: BRANCH  36  40
DOCKED: ATOM     40  O   UNL d   1      37.382  46.046   2.212 -0.06 -0.28    -0.303 OA
DOCKED: ATOM     41  H   UNL d   1      36.524  45.582   2.329 +0.03 +0.27    +0.222 HD
DOCKED: ENDBRANCH  36  40
DOCKED: ENDBRANCH  35  36
DOCKED: ENDBRANCH   5  35
DOCKED: BRANCH   4  42
DOCKED: ATOM     42  O   UNL d   1      36.284  42.795   2.937 -0.10 -0.05    -0.278 OA
DOCKED: BRANCH  42  43
DOCKED: ATOM     43  P   UNL d   1      35.193  43.937   3.161 -0.07 +0.30    +0.473 P 
DOCKED: ATOM     44  O   UNL d   1      33.862  43.521   3.686 -0.26 -0.10    -0.228 OA
DOCKED: BRANCH  43  45
DOCKED: ATOM     45  O   UNL d   1      35.962  44.978   4.087 -0.64 -0.45    -0.303 OA
DOCKED: ATOM     46  H   UNL d   1      36.931  44.900   3.985 +0.06 +0.21    +0.222 HD
DOCKED: ENDBRANCH  43  45
DOCKED: BRANCH  43  47
DOCKED: ATOM     47  O   UNL d   1      35.172  44.705   1.754 -0.10 -0.23    -0.303 OA
DOCKED: ATOM     48  H   UNL d   1      36.052  44.627   1.331 +0.04 +0.12    +0.222 HD
DOCKED: ENDBRANCH  43  47
DOCKED: ENDBRANCH  42  43
DOCKED: ENDBRANCH   4  42
DOCKED: TORSDOF 24
DOCKED: TER
DOCKED: ENDMDL
________________________________________________________________________________


	BEGINNING GENETIC ALGORITHM DOCKING 53 of 100
Run: 53 Seed: 1431333883 1010634227 [ Run 53 of 100 GA/GALS ]
Beginning LAMARCKIAN GENETIC ALGORITHM (LGA), with a maximum of 25000000 energy evaluations.

Final-Value: -16.823


	FINAL GENETIC ALGORITHM DOCKED STATE
	_______________________________________________


Detailed state:  trans 40.622 40.756 29.527 quatxyzw 0.735186 0.063262 0.407163 -0.538254 center 0.035 0.082 -0.065 ntor 24 120.4008 63.8980 28.6592 90.2584 171.7906 145.9223 -91.5914 28.1026 92.9844 -60.3328 149.2847 97.2181 169.4910 -171.5364 -169.3059 59.7833 45.9106 87.4746 34.1000 -11.8628 179.5954 157.5246 17.4381 -45.2749
State:	 40.622  40.756  29.527   0.872  0.075  0.483 -114.870    120.40   63.90   28.66   90.26  171.79  145.92  -91.59   28.10   92.98  -60.33  149.28   97.22  169.49 -171.54 -169.31   59.78   45.91   87.47   34.10  -11.86  179.60  157.52   17.44  -45.27

DOCKED: MODEL       53
DOCKED: USER    Run = 53
DOCKED: USER    DPF = D:/Protein_go_brrr/autodock/final/6BB5/IHP/dock.dpf
DOCKED: USER  
DOCKED: USER    Estimated Free Energy of Binding    =   +4.67 kcal/mol  [=(1)+(2)+(3)-(4)]
DOCKED: USER    
DOCKED: USER    (1) Final Intermolecular Energy     =   -2.49 kcal/mol
DOCKED: USER        vdW + Hbond + desolv Energy     =   -2.54 kcal/mol
DOCKED: USER        Electrostatic Energy            =   +0.05 kcal/mol
DOCKED: USER    (2) Final Total Internal Energy     =  -14.34 kcal/mol
DOCKED: USER    (3) Torsional Free Energy           =   +7.16 kcal/mol
DOCKED: USER    (4) Unbound System's Energy  [=(2)] =  -14.34 kcal/mol
DOCKED: USER    
DOCKED: USER    
DOCKED: USER    NEWDPF move IHP_ideal_opt.pdbqt
DOCKED: USER    NEWDPF about 0.035000 0.082000 -0.065000
DOCKED: USER    NEWDPF tran0 40.621979 40.755870 29.527070
DOCKED: USER    NEWDPF quaternion0 0.735186 0.063262 0.407163 -0.538254
DOCKED: USER    NEWDPF axisangle0 0.872332 0.075063 0.483118 -114.870298
DOCKED: USER    NEWDPF quat0 0.872332 0.075063 0.483118 -114.870298
DOCKED: USER    NEWDPF dihe0 120.40 63.90 28.66 90.26 171.79 145.92 -91.59 28.10 92.98 -60.33 149.28 97.22 169.49 -171.54 -169.31 59.78 45.91 87.47 34.10 -11.86 179.60 157.52 17.44 -45.27 
DOCKED: USER  keepresnum = 1 
DOCKED: USER  
DOCKED: REMARK  24 active torsions:
DOCKED: REMARK  status: ('A' for Active; 'I' for Inactive)
DOCKED: REMARK    1  A    between atoms: C_1  and  O_7 
DOCKED: REMARK    2  A    between atoms: C_2  and  O_12 
DOCKED: REMARK    3  A    between atoms: C_3  and  O_17 
DOCKED: REMARK    4  A    between atoms: C_4  and  O_22 
DOCKED: REMARK    5  A    between atoms: C_5  and  O_27 
DOCKED: REMARK    6  A    between atoms: C_6  and  O_32 
DOCKED: REMARK    7  A    between atoms: O_7  and  P_8 
DOCKED: REMARK    8  A    between atoms: P_8  and  O_10 
DOCKED: REMARK    9  A    between atoms: P_8  and  O_11 
DOCKED: REMARK   10  A    between atoms: O_12  and  P_13 
DOCKED: REMARK   11  A    between atoms: P_13  and  O_15 
DOCKED: REMARK   12  A    between atoms: P_13  and  O_16 
DOCKED: REMARK   13  A    between atoms: O_17  and  P_18 
DOCKED: REMARK   14  A    between atoms: P_18  and  O_20 
DOCKED: REMARK   15  A    between atoms: P_18  and  O_21 
DOCKED: REMARK   16  A    between atoms: O_22  and  P_23 
DOCKED: REMARK   17  A    between atoms: P_23  and  O_25 
DOCKED: REMARK   18  A    between atoms: P_23  and  O_26 
DOCKED: REMARK   19  A    between atoms: O_27  and  P_28 
DOCKED: REMARK   20  A    between atoms: P_28  and  O_30 
DOCKED: REMARK   21  A    between atoms: P_28  and  O_31 
DOCKED: REMARK   22  A    between atoms: O_32  and  P_33 
DOCKED: REMARK   23  A    between atoms: P_33  and  O_35 
DOCKED: REMARK   24  A    between atoms: P_33  and  O_36 
DOCKED: USER                              x       y       z     vdW  Elec       q    Type
DOCKED: USER                           _______ _______ _______ _____ _____    ______ ____
DOCKED: ROOT
DOCKED: ATOM      1  C   UNL d   1      42.284  41.203  29.373 -0.03 +0.05    +0.194 C 
DOCKED: ATOM      2  C   UNL d   1      41.491  41.144  28.066 -0.07 +0.02    +0.194 C 
DOCKED: ATOM      3  C   UNL d   1      40.588  39.911  28.006 +0.05 +0.06    +0.194 C 
DOCKED: ATOM      4  C   UNL d   1      39.691  39.762  29.232 -0.13 +0.08    +0.194 C 
DOCKED: ATOM      5  C   UNL d   1      40.421  39.927  30.559 -0.07 +0.08    +0.194 C 
DOCKED: ATOM      6  C   UNL d   1      41.371  41.126  30.597 -0.02 +0.05    +0.194 C 
DOCKED: ENDROOT
DOCKED: BRANCH   1   7
DOCKED: ATOM      7  O   UNL d   1      42.963  42.459  29.426 -0.00 -0.03    -0.278 OA
DOCKED: BRANCH   7   8
DOCKED: ATOM      8  P   UNL d   1      44.418  42.563  28.774 +0.01 +0.04    +0.473 P 
DOCKED: ATOM      9  O   UNL d   1      45.406  43.353  29.559 +0.00 -0.02    -0.228 OA
DOCKED: BRANCH   8  10
DOCKED: ATOM     10  O   UNL d   1      44.856  41.044  28.561 -0.00 -0.04    -0.303 OA
DOCKED: ATOM     11  H   UNL d   1      44.540  40.505  29.309 +0.02 +0.05    +0.222 HD
DOCKED: ENDBRANCH   8  10
DOCKED: BRANCH   8  12
DOCKED: ATOM     12  O   UNL d   1      44.168  43.050  27.283 +0.00 -0.01    -0.303 OA
DOCKED: ATOM     13  H   UNL d   1      43.282  43.458  27.154 +0.02 +0.00    +0.222 HD
DOCKED: ENDBRANCH   8  12
DOCKED: ENDBRANCH   7   8
DOCKED: ENDBRANCH   1   7
DOCKED: BRANCH   2  14
DOCKED: ATOM     14  O   UNL d   1      40.671  42.316  27.964 -0.02 -0.01    -0.278 OA
DOCKED: BRANCH  14  15
DOCKED: ATOM     15  P   UNL d   1      40.935  43.266  26.703 +0.01 -0.02    +0.473 P 
DOCKED: ATOM     16  O   UNL d   1      41.430  44.648  26.995 -0.01 -0.00    -0.228 OA
DOCKED: BRANCH  15  17
DOCKED: ATOM     17  O   UNL d   1      41.939  42.431  25.791 -0.04 +0.04    -0.303 OA
DOCKED: ATOM     18  H   UNL d   1      42.808  42.331  26.225 +0.04 -0.02    +0.222 HD
DOCKED: ENDBRANCH  15  17
DOCKED: BRANCH  15  19
DOCKED: ATOM     19  O   UNL d   1      39.591  43.184  25.856 -0.06 +0.03    -0.303 OA
DOCKED: ATOM     20  H   UNL d   1      38.814  43.035  26.426 +0.09 -0.02    +0.222 HD
DOCKED: ENDBRANCH  15  19
DOCKED: ENDBRANCH  14  15
DOCKED: ENDBRANCH   2  14
DOCKED: BRANCH   6  21
DOCKED: ATOM     21  O   UNL d   1      42.211  40.949  31.735 -0.00 -0.06    -0.278 OA
DOCKED: BRANCH  21  22
DOCKED: ATOM     22  P   UNL d   1      43.421  39.911  31.673 -0.00 +0.15    +0.473 P 
DOCKED: ATOM     23  O   UNL d   1      43.680  39.058  32.868 -0.00 -0.06    -0.228 OA
DOCKED: BRANCH  22  24
DOCKED: ATOM     24  O   UNL d   1      43.092  39.108  30.339 -0.28 -0.25    -0.303 OA
DOCKED: ATOM     25  H   UNL d   1      43.723  39.407  29.635 +0.02 +0.14    +0.222 HD
DOCKED: ENDBRANCH  22  24
DOCKED: BRANCH  22  26
DOCKED: ATOM     26  O   UNL d   1      44.632  40.850  31.204 +0.00 -0.06    -0.303 OA
DOCKED: ATOM     27  H   UNL d   1      44.277  41.594  30.675 +0.01 +0.04    +0.222 HD
DOCKED: ENDBRANCH  22  26
DOCKED: ENDBRANCH  21  22
DOCKED: ENDBRANCH   6  21
DOCKED: BRANCH   3  28
DOCKED: ATOM     28  O   UNL d   1      39.701  40.083  26.908 -0.18 +0.05    -0.278 OA
DOCKED: BRANCH  28  29
DOCKED: ATOM     29  P   UNL d   1      38.276  40.762  27.123 -0.21 -0.03    +0.473 P 
DOCKED: ATOM     30  O   UNL d   1      38.224  41.827  28.158 -0.21 -0.01    -0.228 OA
DOCKED: BRANCH  29  31
DOCKED: ATOM     31  O   UNL d   1      37.942  41.194  25.619 -0.17 +0.07    -0.303 OA
DOCKED: ATOM     32  H   UNL d   1      38.767  41.532  25.199 +0.13 -0.07    +0.222 HD
DOCKED: ENDBRANCH  29  31
DOCKED: BRANCH  29  33
DOCKED: ATOM     33  O   UNL d   1      37.333  39.498  27.344 -0.60 -0.03    -0.303 OA
DOCKED: ATOM     34  H   UNL d   1      37.338  39.257  28.302 +0.07 +0.03    +0.222 HD
DOCKED: ENDBRANCH  29  33
DOCKED: ENDBRANCH  28  29
DOCKED: ENDBRANCH   3  28
DOCKED: BRANCH   5  35
DOCKED: ATOM     35  O   UNL d   1      39.405  40.164  31.532 -0.05 -0.06    -0.278 OA
DOCKED: BRANCH  35  36
DOCKED: ATOM     36  P   UNL d   1      39.595  39.658  33.032 -0.00 +0.09    +0.473 P 
DOCKED: ATOM     37  O   UNL d   1      40.249  40.629  33.963 -0.01 -0.03    -0.228 OA
DOCKED: BRANCH  36  38
DOCKED: ATOM     38  O   UNL d   1      38.105  39.267  33.436 -0.03 -0.03    -0.303 OA
DOCKED: ATOM     39  H   UNL d   1      37.589  39.086  32.621 +0.04 +0.02    +0.222 HD
DOCKED: ENDBRANCH  36  38
DOCKED: BRANCH  36  40
DOCKED: ATOM     40  O   UNL d   1      40.317  38.255  32.829 -0.01 -0.10    -0.303 OA
DOCKED: ATOM     41  H   UNL d   1      39.691  37.505  32.934 +0.02 +0.07    +0.222 HD
DOCKED: ENDBRANCH  36  40
DOCKED: ENDBRANCH  35  36
DOCKED: ENDBRANCH   5  35
DOCKED: BRANCH   4  42
DOCKED: ATOM     42  O   UNL d   1      39.167  38.429  29.203 -0.14 -0.19    -0.278 OA
DOCKED: BRANCH  42  43
DOCKED: ATOM     43  P   UNL d   1      37.803  38.120  29.970 -0.13 +0.12    +0.473 P 
DOCKED: ATOM     44  O   UNL d   1      36.768  37.335  29.242 -0.53 -0.05    -0.228 OA
DOCKED: BRANCH  43  45
DOCKED: ATOM     45  O   UNL d   1      38.307  37.440  31.318 -0.07 -0.10    -0.303 OA
DOCKED: ATOM     46  H   UNL d   1      38.663  38.104  31.942 +0.05 +0.06    +0.222 HD
DOCKED: ENDBRANCH  43  45
DOCKED: BRANCH  43  47
DOCKED: ATOM     47  O   UNL d   1      37.338  39.564  30.488 -0.03 +0.00    -0.303 OA
DOCKED: ATOM     48  H   UNL d   1      37.794  39.767  31.331 +0.00 +0.02    +0.222 HD
DOCKED: ENDBRANCH  43  47
DOCKED: ENDBRANCH  42  43
DOCKED: ENDBRANCH   4  42
DOCKED: TORSDOF 24
DOCKED: TER
DOCKED: ENDMDL
________________________________________________________________________________


	BEGINNING GENETIC ALGORITHM DOCKING 54 of 100
Run: 54 Seed: 683594584 2021218443 [ Run 54 of 100 GA/GALS ]
Beginning LAMARCKIAN GENETIC ALGORITHM (LGA), with a maximum of 25000000 energy evaluations.

Final-Value: -16.355


	FINAL GENETIC ALGORITHM DOCKED STATE
	_______________________________________________


Detailed state:  trans 31.642 53.415 25.929 quatxyzw 0.532848 0.382606 -0.539606 -0.527741 center 0.035 0.082 -0.065 ntor 24 81.7286 -98.1897 116.0137 -34.3847 115.9462 137.8289 -59.1178 -26.1524 78.9824 93.2051 158.5747 -180.0000 -178.2867 -143.0199 61.8016 40.6118 122.4968 31.4847 -27.6385 -37.8631 -13.6562 -49.7431 -7.6354 -14.0153
State:	 31.642  53.415  25.929   0.627  0.450 -0.635 -116.294     81.73  -98.19  116.01  -34.38  115.95  137.83  -59.12  -26.15   78.98   93.21  158.57 -180.00 -178.29 -143.02   61.80   40.61  122.50   31.48  -27.64  -37.86  -13.66  -49.74   -7.64  -14.02

DOCKED: MODEL       54
DOCKED: USER    Run = 54
DOCKED: USER    DPF = D:/Protein_go_brrr/autodock/final/6BB5/IHP/dock.dpf
DOCKED: USER  
DOCKED: USER    Estimated Free Energy of Binding    =   +4.79 kcal/mol  [=(1)+(2)+(3)-(4)]
DOCKED: USER    
DOCKED: USER    (1) Final Intermolecular Energy     =   -2.37 kcal/mol
DOCKED: USER        vdW + Hbond + desolv Energy     =   -2.24 kcal/mol
DOCKED: USER        Electrostatic Energy            =   -0.13 kcal/mol
DOCKED: USER    (2) Final Total Internal Energy     =  -13.99 kcal/mol
DOCKED: USER    (3) Torsional Free Energy           =   +7.16 kcal/mol
DOCKED: USER    (4) Unbound System's Energy  [=(2)] =  -13.99 kcal/mol
DOCKED: USER    
DOCKED: USER    
DOCKED: USER    NEWDPF move IHP_ideal_opt.pdbqt
DOCKED: USER    NEWDPF about 0.035000 0.082000 -0.065000
DOCKED: USER    NEWDPF tran0 31.642085 53.415456 25.929311
DOCKED: USER    NEWDPF quaternion0 0.532848 0.382606 -0.539606 -0.527741
DOCKED: USER    NEWDPF axisangle0 0.627319 0.450440 -0.635275 -116.294035
DOCKED: USER    NEWDPF quat0 0.627319 0.450440 -0.635275 -116.294035
DOCKED: USER    NEWDPF dihe0 81.73 -98.19 116.01 -34.38 115.95 137.83 -59.12 -26.15 78.98 93.21 158.57 -180.00 -178.29 -143.02 61.80 40.61 122.50 31.48 -27.64 -37.86 -13.66 -49.74 -7.64 -14.02 
DOCKED: USER  keepresnum = 1 
DOCKED: USER  
DOCKED: REMARK  24 active torsions:
DOCKED: REMARK  status: ('A' for Active; 'I' for Inactive)
DOCKED: REMARK    1  A    between atoms: C_1  and  O_7 
DOCKED: REMARK    2  A    between atoms: C_2  and  O_12 
DOCKED: REMARK    3  A    between atoms: C_3  and  O_17 
DOCKED: REMARK    4  A    between atoms: C_4  and  O_22 
DOCKED: REMARK    5  A    between atoms: C_5  and  O_27 
DOCKED: REMARK    6  A    between atoms: C_6  and  O_32 
DOCKED: REMARK    7  A    between atoms: O_7  and  P_8 
DOCKED: REMARK    8  A    between atoms: P_8  and  O_10 
DOCKED: REMARK    9  A    between atoms: P_8  and  O_11 
DOCKED: REMARK   10  A    between atoms: O_12  and  P_13 
DOCKED: REMARK   11  A    between atoms: P_13  and  O_15 
DOCKED: REMARK   12  A    between atoms: P_13  and  O_16 
DOCKED: REMARK   13  A    between atoms: O_17  and  P_18 
DOCKED: REMARK   14  A    between atoms: P_18  and  O_20 
DOCKED: REMARK   15  A    between atoms: P_18  and  O_21 
DOCKED: REMARK   16  A    between atoms: O_22  and  P_23 
DOCKED: REMARK   17  A    between atoms: P_23  and  O_25 
DOCKED: REMARK   18  A    between atoms: P_23  and  O_26 
DOCKED: REMARK   19  A    between atoms: O_27  and  P_28 
DOCKED: REMARK   20  A    between atoms: P_28  and  O_30 
DOCKED: REMARK   21  A    between atoms: P_28  and  O_31 
DOCKED: REMARK   22  A    between atoms: O_32  and  P_33 
DOCKED: REMARK   23  A    between atoms: P_33  and  O_35 
DOCKED: REMARK   24  A    between atoms: P_33  and  O_36 
DOCKED: USER                              x       y       z     vdW  Elec       q    Type
DOCKED: USER                           _______ _______ _______ _____ _____    ______ ____
DOCKED: ROOT
DOCKED: ATOM      1  C   UNL d   1      30.795  52.575  24.680 -0.11 +0.08    +0.194 C 
DOCKED: ATOM      2  C   UNL d   1      29.917  53.257  25.730 -0.06 +0.08    +0.194 C 
DOCKED: ATOM      3  C   UNL d   1      30.455  53.041  27.146 -0.05 +0.05    +0.194 C 
DOCKED: ATOM      4  C   UNL d   1      31.928  53.416  27.294 -0.02 +0.03    +0.194 C 
DOCKED: ATOM      5  C   UNL d   1      32.824  52.850  26.200 -0.03 +0.03    +0.194 C 
DOCKED: ATOM      6  C   UNL d   1      32.257  53.011  24.788 -0.05 +0.05    +0.194 C 
DOCKED: ENDROOT
DOCKED: BRANCH   1   7
DOCKED: ATOM      7  O   UNL d   1      30.329  52.965  23.387 -0.11 -0.14    -0.278 OA
DOCKED: BRANCH   7   8
DOCKED: ATOM      8  P   UNL d   1      30.514  51.943  22.173 -0.19 +0.24    +0.473 P 
DOCKED: ATOM      9  O   UNL d   1      31.204  52.501  20.978 -0.20 -0.08    -0.228 OA
DOCKED: BRANCH   8  10
DOCKED: ATOM     10  O   UNL d   1      31.283  50.706  22.823 -0.36 -0.11    -0.303 OA
DOCKED: ATOM     11  H   UNL d   1      32.223  50.935  22.950 +0.10 +0.07    +0.222 HD
DOCKED: ENDBRANCH   8  10
DOCKED: BRANCH   8  12
DOCKED: ATOM     12  O   UNL d   1      29.067  51.338  21.918 -0.61 -0.34    -0.303 OA
DOCKED: ATOM     13  H   UNL d   1      29.085  50.387  21.666 -0.14 +0.17    +0.222 HD
DOCKED: ENDBRANCH   8  12
DOCKED: ENDBRANCH   7   8
DOCKED: ENDBRANCH   1   7
DOCKED: BRANCH   2  14
DOCKED: ATOM     14  O   UNL d   1      29.881  54.665  25.465 -0.03 -0.08    -0.278 OA
DOCKED: BRANCH  14  15
DOCKED: ATOM     15  P   UNL d   1      28.663  55.194  24.570 -0.02 +0.16    +0.473 P 
DOCKED: ATOM     16  O   UNL d   1      28.861  55.174  23.087 -0.02 -0.08    -0.228 OA
DOCKED: BRANCH  15  17
DOCKED: ATOM     17  O   UNL d   1      27.424  54.311  25.041 -0.07 -0.18    -0.303 OA
DOCKED: ATOM     18  H   UNL d   1      27.585  53.920  25.921 +0.02 +0.12    +0.222 HD
DOCKED: ENDBRANCH  15  17
DOCKED: BRANCH  15  19
DOCKED: ATOM     19  O   UNL d   1      28.300  56.612  25.194 -0.00 -0.05    -0.303 OA
DOCKED: ATOM     20  H   UNL d   1      27.584  56.543  25.853 +0.01 +0.04    +0.222 HD
DOCKED: ENDBRANCH  15  19
DOCKED: ENDBRANCH  14  15
DOCKED: ENDBRANCH   2  14
DOCKED: BRANCH   6  21
DOCKED: ATOM     21  O   UNL d   1      33.014  52.152  23.939 -0.07 -0.07    -0.278 OA
DOCKED: BRANCH  21  22
DOCKED: ATOM     22  P   UNL d   1      33.906  52.777  22.773 -0.03 +0.15    +0.473 P 
DOCKED: ATOM     23  O   UNL d   1      35.333  53.094  23.071 -0.03 -0.09    -0.228 OA
DOCKED: BRANCH  22  24
DOCKED: ATOM     24  O   UNL d   1      33.687  51.726  21.598 -0.19 -0.10    -0.303 OA
DOCKED: ATOM     25  H   UNL d   1      32.713  51.574  21.498 +0.04 +0.05    +0.222 HD
DOCKED: ENDBRANCH  22  24
DOCKED: BRANCH  22  26
DOCKED: ATOM     26  O   UNL d   1      32.998  54.007  22.292 -0.02 -0.09    -0.303 OA
DOCKED: ATOM     27  H   UNL d   1      32.055  53.749  22.341 +0.06 +0.06    +0.222 HD
DOCKED: ENDBRANCH  22  26
DOCKED: ENDBRANCH  21  22
DOCKED: ENDBRANCH   6  21
DOCKED: BRANCH   3  28
DOCKED: ATOM     28  O   UNL d   1      29.752  53.925  28.011 -0.01 -0.05    -0.278 OA
DOCKED: BRANCH  28  29
DOCKED: ATOM     29  P   UNL d   1      28.172  53.810  28.167 -0.02 +0.09    +0.473 P 
DOCKED: ATOM     30  O   UNL d   1      27.566  52.557  27.647 -0.06 -0.08    -0.228 OA
DOCKED: BRANCH  29  31
DOCKED: ATOM     31  O   UNL d   1      28.025  54.091  29.735 -0.00 -0.03    -0.303 OA
DOCKED: ATOM     32  H   UNL d   1      28.925  54.123  30.134 +0.01 +0.02    +0.222 HD
DOCKED: ENDBRANCH  29  31
DOCKED: BRANCH  29  33
DOCKED: ATOM     33  O   UNL d   1      27.672  55.175  27.517 -0.01 -0.05    -0.303 OA
DOCKED: ATOM     34  H   UNL d   1      28.286  55.426  26.784 +0.01 +0.04    +0.222 HD
DOCKED: ENDBRANCH  29  33
DOCKED: ENDBRANCH  28  29
DOCKED: ENDBRANCH   3  28
DOCKED: BRANCH   5  35
DOCKED: ATOM     35  O   UNL d   1      34.030  53.609  26.257 -0.00 -0.04    -0.278 OA
DOCKED: BRANCH  35  36
DOCKED: ATOM     36  P   UNL d   1      35.431  52.878  26.476 +0.01 +0.06    +0.473 P 
DOCKED: ATOM     37  O   UNL d   1      36.643  53.716  26.216 +0.00 -0.03    -0.228 OA
DOCKED: BRANCH  36  38
DOCKED: ATOM     38  O   UNL d   1      35.301  52.365  27.977 -0.00 -0.03    -0.303 OA
DOCKED: ATOM     39  H   UNL d   1      34.379  52.505  28.285 +0.01 +0.02    +0.222 HD
DOCKED: ENDBRANCH  36  38
DOCKED: BRANCH  36  40
DOCKED: ATOM     40  O   UNL d   1      35.266  51.559  25.604 -0.02 -0.05    -0.303 OA
DOCKED: ATOM     41  H   UNL d   1      34.972  51.762  24.688 +0.04 +0.05    +0.222 HD
DOCKED: ENDBRANCH  36  40
DOCKED: ENDBRANCH  35  36
DOCKED: ENDBRANCH   5  35
DOCKED: BRANCH   4  42
DOCKED: ATOM     42  O   UNL d   1      32.375  52.859  28.535 -0.01 -0.03    -0.278 OA
DOCKED: BRANCH  42  43
DOCKED: ATOM     43  P   UNL d   1      33.051  53.822  29.612 +0.00 +0.03    +0.473 P 
DOCKED: ATOM     44  O   UNL d   1      32.149  54.694  30.416 -0.00 -0.01    -0.228 OA
DOCKED: BRANCH  43  45
DOCKED: ATOM     45  O   UNL d   1      33.925  52.815  30.480 -0.00 -0.02    -0.303 OA
DOCKED: ATOM     46  H   UNL d   1      34.803  52.664  30.077 +0.00 +0.01    +0.222 HD
DOCKED: ENDBRANCH  43  45
DOCKED: BRANCH  43  47
DOCKED: ATOM     47  O   UNL d   1      34.177  54.585  28.766 +0.00 -0.02    -0.303 OA
DOCKED: ATOM     48  H   UNL d   1      34.165  54.257  27.843 +0.00 +0.02    +0.222 HD
DOCKED: ENDBRANCH  43  47
DOCKED: ENDBRANCH  42  43
DOCKED: ENDBRANCH   4  42
DOCKED: TORSDOF 24
DOCKED: TER
DOCKED: ENDMDL
________________________________________________________________________________


	BEGINNING GENETIC ALGORITHM DOCKING 55 of 100
Run: 55 Seed: 1371339553 998621371 [ Run 55 of 100 GA/GALS ]
Beginning LAMARCKIAN GENETIC ALGORITHM (LGA), with a maximum of 25000000 energy evaluations.

Final-Value: -16.836


	FINAL GENETIC ALGORITHM DOCKED STATE
	_______________________________________________


Detailed state:  trans -2.859 22.629 -2.096 quatxyzw -0.280696 -0.060769 0.283319 -0.915012 center 0.035 0.082 -0.065 ntor 24 -122.4882 7.6375 168.2503 -2.9129 10.3368 -45.7913 -95.5321 -26.8956 109.4482 -30.2741 83.8194 -165.1080 46.9505 176.3296 -52.1391 2.2413 -114.6989 124.3916 36.6791 15.8955 -171.4494 5.6988 166.5100 -6.8837
State:	 -2.859  22.629  -2.096  -0.696 -0.151  0.702 -47.585   -122.49    7.64  168.25   -2.91   10.34  -45.79  -95.53  -26.90  109.45  -30.27   83.82 -165.11   46.95  176.33  -52.14    2.24 -114.70  124.39   36.68   15.90 -171.45    5.70  166.51   -6.88

DOCKED: MODEL       55
DOCKED: USER    Run = 55
DOCKED: USER    DPF = D:/Protein_go_brrr/autodock/final/6BB5/IHP/dock.dpf
DOCKED: USER  
DOCKED: USER    Estimated Free Energy of Binding    =   +5.38 kcal/mol  [=(1)+(2)+(3)-(4)]
DOCKED: USER    
DOCKED: USER    (1) Final Intermolecular Energy     =   -1.78 kcal/mol
DOCKED: USER        vdW + Hbond + desolv Energy     =   -1.83 kcal/mol
DOCKED: USER        Electrostatic Energy            =   +0.05 kcal/mol
DOCKED: USER    (2) Final Total Internal Energy     =  -15.06 kcal/mol
DOCKED: USER    (3) Torsional Free Energy           =   +7.16 kcal/mol
DOCKED: USER    (4) Unbound System's Energy  [=(2)] =  -15.06 kcal/mol
DOCKED: USER    
DOCKED: USER    
DOCKED: USER    NEWDPF move IHP_ideal_opt.pdbqt
DOCKED: USER    NEWDPF about 0.035000 0.082000 -0.065000
DOCKED: USER    NEWDPF tran0 -2.858680 22.628577 -2.096293
DOCKED: USER    NEWDPF quaternion0 -0.280696 -0.060769 0.283319 -0.915012
DOCKED: USER    NEWDPF axisangle0 -0.695779 -0.150633 0.702283 -47.585087
DOCKED: USER    NEWDPF quat0 -0.695779 -0.150633 0.702283 -47.585087
DOCKED: USER    NEWDPF dihe0 -122.49 7.64 168.25 -2.91 10.34 -45.79 -95.53 -26.90 109.45 -30.27 83.82 -165.11 46.95 176.33 -52.14 2.24 -114.70 124.39 36.68 15.90 -171.45 5.70 166.51 -6.88 
DOCKED: USER  keepresnum = 1 
DOCKED: USER  
DOCKED: REMARK  24 active torsions:
DOCKED: REMARK  status: ('A' for Active; 'I' for Inactive)
DOCKED: REMARK    1  A    between atoms: C_1  and  O_7 
DOCKED: REMARK    2  A    between atoms: C_2  and  O_12 
DOCKED: REMARK    3  A    between atoms: C_3  and  O_17 
DOCKED: REMARK    4  A    between atoms: C_4  and  O_22 
DOCKED: REMARK    5  A    between atoms: C_5  and  O_27 
DOCKED: REMARK    6  A    between atoms: C_6  and  O_32 
DOCKED: REMARK    7  A    between atoms: O_7  and  P_8 
DOCKED: REMARK    8  A    between atoms: P_8  and  O_10 
DOCKED: REMARK    9  A    between atoms: P_8  and  O_11 
DOCKED: REMARK   10  A    between atoms: O_12  and  P_13 
DOCKED: REMARK   11  A    between atoms: P_13  and  O_15 
DOCKED: REMARK   12  A    between atoms: P_13  and  O_16 
DOCKED: REMARK   13  A    between atoms: O_17  and  P_18 
DOCKED: REMARK   14  A    between atoms: P_18  and  O_20 
DOCKED: REMARK   15  A    between atoms: P_18  and  O_21 
DOCKED: REMARK   16  A    between atoms: O_22  and  P_23 
DOCKED: REMARK   17  A    between atoms: P_23  and  O_25 
DOCKED: REMARK   18  A    between atoms: P_23  and  O_26 
DOCKED: REMARK   19  A    between atoms: O_27  and  P_28 
DOCKED: REMARK   20  A    between atoms: P_28  and  O_30 
DOCKED: REMARK   21  A    between atoms: P_28  and  O_31 
DOCKED: REMARK   22  A    between atoms: O_32  and  P_33 
DOCKED: REMARK   23  A    between atoms: P_33  and  O_35 
DOCKED: REMARK   24  A    between atoms: P_33  and  O_36 
DOCKED: USER                              x       y       z     vdW  Elec       q    Type
DOCKED: USER                           _______ _______ _______ _____ _____    ______ ____
DOCKED: ROOT
DOCKED: ATOM      1  C   UNL d   1      -1.600  23.095  -1.009 -0.06 -0.02    +0.194 C 
DOCKED: ATOM      2  C   UNL d   1      -2.149  21.680  -0.817 -0.02 -0.02    +0.194 C 
DOCKED: ATOM      3  C   UNL d   1      -3.676  21.647  -0.913 -0.00 -0.01    +0.194 C 
DOCKED: ATOM      4  C   UNL d   1      -4.212  22.307  -2.181 -0.01 -0.01    +0.194 C 
DOCKED: ATOM      5  C   UNL d   1      -3.605  23.673  -2.474 -0.02 -0.01    +0.194 C 
DOCKED: ATOM      6  C   UNL d   1      -2.084  23.721  -2.317 -0.05 -0.02    +0.194 C 
DOCKED: ENDROOT
DOCKED: BRANCH   1   7
DOCKED: ATOM      7  O   UNL d   1      -0.174  23.014  -1.077 -0.07 +0.03    -0.278 OA
DOCKED: BRANCH   7   8
DOCKED: ATOM      8  P   UNL d   1       0.654  23.030   0.289 -0.18 -0.11    +0.473 P 
DOCKED: ATOM      9  O   UNL d   1       1.080  21.693   0.784 -0.23 +0.08    -0.228 OA
DOCKED: BRANCH   8  10
DOCKED: ATOM     10  O   UNL d   1       1.878  24.008  -0.012 -0.68 +0.03    -0.303 OA
DOCKED: ATOM     11  H   UNL d   1       1.582  24.935   0.062 +0.01 -0.02    +0.222 HD
DOCKED: ENDBRANCH   8  10
DOCKED: BRANCH   8  12
DOCKED: ATOM     12  O   UNL d   1      -0.224  23.895   1.293 -0.07 +0.09    -0.303 OA
DOCKED: ATOM     13  H   UNL d   1      -0.666  24.659   0.859 +0.06 -0.06    +0.222 HD
DOCKED: ENDBRANCH   8  12
DOCKED: ENDBRANCH   7   8
DOCKED: ENDBRANCH   1   7
DOCKED: BRANCH   2  14
DOCKED: ATOM     14  O   UNL d   1      -1.609  20.827  -1.834 -0.02 +0.02    -0.278 OA
DOCKED: BRANCH  14  15
DOCKED: ATOM     15  P   UNL d   1      -1.359  19.298  -1.427 +0.00 -0.03    +0.473 P 
DOCKED: ATOM     16  O   UNL d   1       0.004  18.743  -1.703 -0.04 +0.01    -0.228 OA
DOCKED: BRANCH  15  17
DOCKED: ATOM     17  O   UNL d   1      -1.748  19.239   0.116 -0.00 +0.02    -0.303 OA
DOCKED: ATOM     18  H   UNL d   1      -2.715  19.302   0.237 +0.01 -0.01    +0.222 HD
DOCKED: ENDBRANCH  15  17
DOCKED: BRANCH  15  19
DOCKED: ATOM     19  O   UNL d   1      -2.569  18.508  -2.093 -0.00 +0.01    -0.303 OA
DOCKED: ATOM     20  H   UNL d   1      -3.428  18.793  -1.730 +0.00 -0.01    +0.222 HD
DOCKED: ENDBRANCH  15  19
DOCKED: ENDBRANCH  14  15
DOCKED: ENDBRANCH   2  14
DOCKED: BRANCH   6  21
DOCKED: ATOM     21  O   UNL d   1      -1.717  25.099  -2.282 -0.07 +0.03    -0.278 OA
DOCKED: BRANCH  21  22
DOCKED: ATOM     22  P   UNL d   1      -1.743  25.890  -0.897 -0.05 -0.07    +0.473 P 
DOCKED: ATOM     23  O   UNL d   1      -2.596  25.356   0.204 -0.01 +0.03    -0.228 OA
DOCKED: BRANCH  22  24
DOCKED: ATOM     24  O   UNL d   1      -0.193  25.992  -0.551 -0.08 +0.09    -0.303 OA
DOCKED: ATOM     25  H   UNL d   1       0.182  25.075  -0.544 -0.16 -0.05    +0.222 HD
DOCKED: ENDBRANCH  22  24
DOCKED: BRANCH  22  26
DOCKED: ATOM     26  O   UNL d   1      -2.073  27.383  -1.381 -0.03 +0.03    -0.303 OA
DOCKED: ATOM     27  H   UNL d   1      -2.700  27.793  -0.753 +0.01 -0.02    +0.222 HD
DOCKED: ENDBRANCH  22  26
DOCKED: ENDBRANCH  21  22
DOCKED: ENDBRANCH   6  21
DOCKED: BRANCH   3  28
DOCKED: ATOM     28  O   UNL d   1      -4.070  20.284  -1.002 -0.00 +0.01    -0.278 OA
DOCKED: BRANCH  28  29
DOCKED: ATOM     29  P   UNL d   1      -4.954  19.625   0.147 +0.00 -0.02    +0.473 P 
DOCKED: ATOM     30  O   UNL d   1      -4.866  20.280   1.478 +0.00 +0.02    -0.228 OA
DOCKED: BRANCH  29  31
DOCKED: ATOM     31  O   UNL d   1      -6.386  19.624  -0.568 +0.00 +0.01    -0.303 OA
DOCKED: ATOM     32  H   UNL d   1      -6.516  20.493  -1.012 +0.00 -0.01    +0.222 HD
DOCKED: ENDBRANCH  29  31
DOCKED: BRANCH  29  33
DOCKED: ATOM     33  O   UNL d   1      -4.520  18.095   0.068 -0.00 +0.01    -0.303 OA
DOCKED: ATOM     34  H   UNL d   1      -3.573  18.044  -0.211 +0.00 -0.01    +0.222 HD
DOCKED: ENDBRANCH  29  33
DOCKED: ENDBRANCH  28  29
DOCKED: ENDBRANCH   3  28
DOCKED: BRANCH   5  35
DOCKED: ATOM     35  O   UNL d   1      -3.895  23.939  -3.845 -0.01 +0.02    -0.278 OA
DOCKED: BRANCH  35  36
DOCKED: ATOM     36  P   UNL d   1      -3.301  23.000  -4.990 -0.01 -0.04    +0.473 P 
DOCKED: ATOM     37  O   UNL d   1      -1.826  23.107  -5.210 -0.05 +0.03    -0.228 OA
DOCKED: BRANCH  36  38
DOCKED: ATOM     38  O   UNL d   1      -3.790  21.560  -4.516 -0.00 +0.02    -0.303 OA
DOCKED: ATOM     39  H   UNL d   1      -4.702  21.632  -4.161 +0.00 -0.01    +0.222 HD
DOCKED: ENDBRANCH  36  38
DOCKED: BRANCH  36  40
DOCKED: ATOM     40  O   UNL d   1      -4.242  23.336  -6.227 -0.00 +0.02    -0.303 OA
DOCKED: ATOM     41  H   UNL d   1      -5.144  22.962  -6.110 +0.00 -0.01    +0.222 HD
DOCKED: ENDBRANCH  36  40
DOCKED: ENDBRANCH  35  36
DOCKED: ENDBRANCH   5  35
DOCKED: BRANCH   4  42
DOCKED: ATOM     42  O   UNL d   1      -5.617  22.504  -1.983 -0.00 +0.01    -0.278 OA
DOCKED: BRANCH  42  43
DOCKED: ATOM     43  P   UNL d   1      -6.643  21.767  -2.957 +0.00 -0.01    +0.473 P 
DOCKED: ATOM     44  O   UNL d   1      -8.087  21.809  -2.591 +0.00 +0.00    -0.228 OA
DOCKED: BRANCH  43  45
DOCKED: ATOM     45  O   UNL d   1      -6.311  22.417  -4.371 -0.00 +0.01    -0.303 OA
DOCKED: ATOM     46  H   UNL d   1      -5.489  22.947  -4.337 +0.00 -0.01    +0.222 HD
DOCKED: ENDBRANCH  43  45
DOCKED: BRANCH  43  47
DOCKED: ATOM     47  O   UNL d   1      -6.012  20.303  -3.115 -0.00 +0.01    -0.303 OA
DOCKED: ATOM     48  H   UNL d   1      -5.324  20.172  -2.429 +0.00 -0.01    +0.222 HD
DOCKED: ENDBRANCH  43  47
DOCKED: ENDBRANCH  42  43
DOCKED: ENDBRANCH   4  42
DOCKED: TORSDOF 24
DOCKED: TER
DOCKED: ENDMDL
________________________________________________________________________________


	BEGINNING GENETIC ALGORITHM DOCKING 56 of 100
Run: 56 Seed: 1425633837 1286707143 [ Run 56 of 100 GA/GALS ]
Beginning LAMARCKIAN GENETIC ALGORITHM (LGA), with a maximum of 25000000 energy evaluations.

Final-Value: -18.071


	FINAL GENETIC ALGORITHM DOCKED STATE
	_______________________________________________


Detailed state:  trans -1.238 34.971 8.433 quatxyzw -0.118622 -0.786996 -0.412706 -0.442990 center 0.035 0.082 -0.065 ntor 24 -180.0000 6.5815 101.3929 143.8262 -59.0540 -167.6110 -20.8079 179.9315 136.3505 -35.8532 106.9852 -126.9917 20.5062 84.5131 180.0000 134.2579 113.8912 -7.0559 -129.3492 -15.5097 180.0000 -29.4680 150.8328 155.3350
State:	 -1.238  34.971   8.433  -0.132 -0.878 -0.460 -127.410   -180.00    6.58  101.39  143.83  -59.05 -167.61  -20.81  179.93  136.35  -35.85  106.99 -126.99   20.51   84.51  180.00  134.26  113.89   -7.06 -129.35  -15.51  180.00  -29.47  150.83  155.33

DOCKED: MODEL       56
DOCKED: USER    Run = 56
DOCKED: USER    DPF = D:/Protein_go_brrr/autodock/final/6BB5/IHP/dock.dpf
DOCKED: USER  
DOCKED: USER    Estimated Free Energy of Binding    =   +3.27 kcal/mol  [=(1)+(2)+(3)-(4)]
DOCKED: USER    
DOCKED: USER    (1) Final Intermolecular Energy     =   -3.89 kcal/mol
DOCKED: USER        vdW + Hbond + desolv Energy     =   -3.82 kcal/mol
DOCKED: USER        Electrostatic Energy            =   -0.06 kcal/mol
DOCKED: USER    (2) Final Total Internal Energy     =  -14.19 kcal/mol
DOCKED: USER    (3) Torsional Free Energy           =   +7.16 kcal/mol
DOCKED: USER    (4) Unbound System's Energy  [=(2)] =  -14.19 kcal/mol
DOCKED: USER    
DOCKED: USER    
DOCKED: USER    NEWDPF move IHP_ideal_opt.pdbqt
DOCKED: USER    NEWDPF about 0.035000 0.082000 -0.065000
DOCKED: USER    NEWDPF tran0 -1.237838 34.970543 8.433275
DOCKED: USER    NEWDPF quaternion0 -0.118622 -0.786996 -0.412706 -0.442990
DOCKED: USER    NEWDPF axisangle0 -0.132313 -0.877827 -0.460339 -127.410389
DOCKED: USER    NEWDPF quat0 -0.132313 -0.877827 -0.460339 -127.410389
DOCKED: USER    NEWDPF dihe0 -180.00 6.58 101.39 143.83 -59.05 -167.61 -20.81 179.93 136.35 -35.85 106.99 -126.99 20.51 84.51 180.00 134.26 113.89 -7.06 -129.35 -15.51 180.00 -29.47 150.83 155.33 
DOCKED: USER  keepresnum = 1 
DOCKED: USER  
DOCKED: REMARK  24 active torsions:
DOCKED: REMARK  status: ('A' for Active; 'I' for Inactive)
DOCKED: REMARK    1  A    between atoms: C_1  and  O_7 
DOCKED: REMARK    2  A    between atoms: C_2  and  O_12 
DOCKED: REMARK    3  A    between atoms: C_3  and  O_17 
DOCKED: REMARK    4  A    between atoms: C_4  and  O_22 
DOCKED: REMARK    5  A    between atoms: C_5  and  O_27 
DOCKED: REMARK    6  A    between atoms: C_6  and  O_32 
DOCKED: REMARK    7  A    between atoms: O_7  and  P_8 
DOCKED: REMARK    8  A    between atoms: P_8  and  O_10 
DOCKED: REMARK    9  A    between atoms: P_8  and  O_11 
DOCKED: REMARK   10  A    between atoms: O_12  and  P_13 
DOCKED: REMARK   11  A    between atoms: P_13  and  O_15 
DOCKED: REMARK   12  A    between atoms: P_13  and  O_16 
DOCKED: REMARK   13  A    between atoms: O_17  and  P_18 
DOCKED: REMARK   14  A    between atoms: P_18  and  O_20 
DOCKED: REMARK   15  A    between atoms: P_18  and  O_21 
DOCKED: REMARK   16  A    between atoms: O_22  and  P_23 
DOCKED: REMARK   17  A    between atoms: P_23  and  O_25 
DOCKED: REMARK   18  A    between atoms: P_23  and  O_26 
DOCKED: REMARK   19  A    between atoms: O_27  and  P_28 
DOCKED: REMARK   20  A    between atoms: P_28  and  O_30 
DOCKED: REMARK   21  A    between atoms: P_28  and  O_31 
DOCKED: REMARK   22  A    between atoms: O_32  and  P_33 
DOCKED: REMARK   23  A    between atoms: P_33  and  O_35 
DOCKED: REMARK   24  A    between atoms: P_33  and  O_36 
DOCKED: USER                              x       y       z     vdW  Elec       q    Type
DOCKED: USER                           _______ _______ _______ _____ _____    ______ ____
DOCKED: ROOT
DOCKED: ATOM      1  C   UNL d   1      -2.928  34.783   8.735 -0.03 +0.03    +0.194 C 
DOCKED: ATOM      2  C   UNL d   1      -2.428  34.220   7.403 -0.03 +0.02    +0.194 C 
DOCKED: ATOM      3  C   UNL d   1      -1.448  35.174   6.717 -0.12 +0.04    +0.194 C 
DOCKED: ATOM      4  C   UNL d   1      -0.302  35.614   7.625 -0.27 +0.05    +0.194 C 
DOCKED: ATOM      5  C   UNL d   1      -0.747  36.076   9.007 -0.11 +0.07    +0.194 C 
DOCKED: ATOM      6  C   UNL d   1      -1.774  35.153   9.667 -0.09 +0.04    +0.194 C 
DOCKED: ENDROOT
DOCKED: BRANCH   1   7
DOCKED: ATOM      7  O   UNL d   1      -3.695  33.768   9.388 -0.00 -0.02    -0.278 OA
DOCKED: BRANCH   7   8
DOCKED: ATOM      8  P   UNL d   1      -3.070  33.054  10.674 +0.01 +0.01    +0.473 P 
DOCKED: ATOM      9  O   UNL d   1      -3.018  33.895  11.900 -0.02 -0.01    -0.228 OA
DOCKED: BRANCH   8  10
DOCKED: ATOM     10  O   UNL d   1      -3.952  31.737  10.852 +0.00 +0.00    -0.303 OA
DOCKED: ATOM     11  H   UNL d   1      -4.374  31.509  10.002 +0.00 -0.00    +0.222 HD
DOCKED: ENDBRANCH   8  10
DOCKED: BRANCH   8  12
DOCKED: ATOM     12  O   UNL d   1      -1.681  32.460  10.181 -0.02 -0.00    -0.303 OA
DOCKED: ATOM     13  H   UNL d   1      -1.721  32.090   9.271 +0.04 -0.00    +0.222 HD
DOCKED: ENDBRANCH   8  12
DOCKED: ENDBRANCH   7   8
DOCKED: ENDBRANCH   1   7
DOCKED: BRANCH   2  14
DOCKED: ATOM     14  O   UNL d   1      -1.760  32.975   7.644 -0.03 -0.01    -0.278 OA
DOCKED: BRANCH  14  15
DOCKED: ATOM     15  P   UNL d   1      -2.424  31.670   6.995 +0.01 -0.01    +0.473 P 
DOCKED: ATOM     16  O   UNL d   1      -1.486  30.660   6.411 -0.03 +0.02    -0.228 OA
DOCKED: BRANCH  15  17
DOCKED: ATOM     17  O   UNL d   1      -3.327  31.072   8.163 -0.00 +0.01    -0.303 OA
DOCKED: ATOM     18  H   UNL d   1      -3.337  31.666   8.938 +0.01 -0.00    +0.222 HD
DOCKED: ENDBRANCH  15  17
DOCKED: BRANCH  15  19
DOCKED: ATOM     19  O   UNL d   1      -3.525  32.239   5.998 -0.00 -0.01    -0.303 OA
DOCKED: ATOM     20  H   UNL d   1      -3.142  32.475   5.133 +0.01 +0.01    +0.222 HD
DOCKED: ENDBRANCH  15  19
DOCKED: ENDBRANCH  14  15
DOCKED: ENDBRANCH   2  14
DOCKED: BRANCH   6  21
DOCKED: ATOM     21  O   UNL d   1      -2.335  35.876  10.760 -0.07 -0.08    -0.278 OA
DOCKED: BRANCH  21  22
DOCKED: ATOM     22  P   UNL d   1      -3.436  36.997  10.487 -0.01 +0.25    +0.473 P 
DOCKED: ATOM     23  O   UNL d   1      -3.513  38.154  11.425 -0.48 -0.22    -0.228 OA
DOCKED: BRANCH  22  24
DOCKED: ATOM     24  O   UNL d   1      -3.137  37.385   8.972 -0.05 -0.19    -0.303 OA
DOCKED: ATOM     25  H   UNL d   1      -2.990  38.364   8.928 +0.03 +0.24    +0.222 HD
DOCKED: ENDBRANCH  22  24
DOCKED: BRANCH  22  26
DOCKED: ATOM     26  O   UNL d   1      -4.769  36.117  10.346 -0.01 -0.06    -0.303 OA
DOCKED: ATOM     27  H   UNL d   1      -4.615  35.235  10.741 +0.01 +0.03    +0.222 HD
DOCKED: ENDBRANCH  22  26
DOCKED: ENDBRANCH  21  22
DOCKED: ENDBRANCH   6  21
DOCKED: BRANCH   3  28
DOCKED: ATOM     28  O   UNL d   1      -0.833  34.463   5.651 -0.12 -0.05    -0.278 OA
DOCKED: BRANCH  28  29
DOCKED: ATOM     29  P   UNL d   1      -1.584  34.297   4.256 -0.06 +0.09    +0.473 P 
DOCKED: ATOM     30  O   UNL d   1      -1.028  35.091   3.131 -0.13 -0.09    -0.228 OA
DOCKED: BRANCH  29  31
DOCKED: ATOM     31  O   UNL d   1      -1.548  32.704   4.108 -0.02 -0.02    -0.303 OA
DOCKED: ATOM     32  H   UNL d   1      -1.573  32.304   5.008 +0.04 +0.01    +0.222 HD
DOCKED: ENDBRANCH  29  31
DOCKED: BRANCH  29  33
DOCKED: ATOM     33  O   UNL d   1      -3.099  34.578   4.657 -0.01 -0.05    -0.303 OA
DOCKED: ATOM     34  H   UNL d   1      -3.644  33.785   4.430 +0.01 +0.02    +0.222 HD
DOCKED: ENDBRANCH  29  33
DOCKED: ENDBRANCH  28  29
DOCKED: ENDBRANCH   3  28
DOCKED: BRANCH   5  35
DOCKED: ATOM     35  O   UNL d   1       0.425  36.049   9.819 -0.18 -0.06    -0.278 OA
DOCKED: BRANCH  35  36
DOCKED: ATOM     36  P   UNL d   1       0.966  34.668  10.406 -0.22 -0.00    +0.473 P 
DOCKED: ATOM     37  O   UNL d   1       2.411  34.654  10.793 -0.49 +0.03    -0.228 OA
DOCKED: BRANCH  36  38
DOCKED: ATOM     38  O   UNL d   1      -0.038  34.412  11.615 -0.13 -0.00    -0.303 OA
DOCKED: ATOM     39  H   UNL d   1      -0.938  34.253  11.257 +0.08 +0.01    +0.222 HD
DOCKED: ENDBRANCH  36  38
DOCKED: BRANCH  36  40
DOCKED: ATOM     40  O   UNL d   1       0.505  33.625   9.298 -0.13 -0.02    -0.303 OA
DOCKED: ATOM     41  H   UNL d   1      -0.452  33.414   9.372 +0.08 +0.01    +0.222 HD
DOCKED: ENDBRANCH  36  40
DOCKED: ENDBRANCH  35  36
DOCKED: ENDBRANCH   5  35
DOCKED: BRANCH   4  42
DOCKED: ATOM     42  O   UNL d   1       0.324  36.734   6.989 -0.34 -0.10    -0.278 OA
DOCKED: BRANCH  42  43
DOCKED: ATOM     43  P   UNL d   1      -0.594  37.876   6.359 -0.20 +0.25    +0.473 P 
DOCKED: ATOM     44  O   UNL d   1      -1.824  38.259   7.107 -0.14 -0.15    -0.228 OA
DOCKED: BRANCH  43  45
DOCKED: ATOM     45  O   UNL d   1       0.435  39.071   6.143 -0.37 -0.17    -0.303 OA
DOCKED: ATOM     46  H   UNL d   1       1.325  38.739   5.911 -0.24 +0.09    +0.222 HD
DOCKED: ENDBRANCH  43  45
DOCKED: BRANCH  43  47
DOCKED: ATOM     47  O   UNL d   1      -0.827  37.371   4.856 -0.09 -0.19    -0.303 OA
DOCKED: ATOM     48  H   UNL d   1      -1.153  36.447   4.872 +0.06 +0.10    +0.222 HD
DOCKED: ENDBRANCH  43  47
DOCKED: ENDBRANCH  42  43
DOCKED: ENDBRANCH   4  42
DOCKED: TORSDOF 24
DOCKED: TER
DOCKED: ENDMDL
________________________________________________________________________________


	BEGINNING GENETIC ALGORITHM DOCKING 57 of 100
Run: 57 Seed: 167460835 2098742138 [ Run 57 of 100 GA/GALS ]
Beginning LAMARCKIAN GENETIC ALGORITHM (LGA), with a maximum of 25000000 energy evaluations.

Final-Value: -16.892


	FINAL GENETIC ALGORITHM DOCKED STATE
	_______________________________________________


Detailed state:  trans 2.983 50.054 12.645 quatxyzw -0.085777 -0.527736 0.747772 0.393667 center 0.035 0.082 -0.065 ntor 24 -104.2288 19.3351 -159.7431 19.1107 34.5763 -162.2146 0.3367 -133.5177 28.5013 79.8337 -2.7645 -146.9057 -179.9912 47.3163 168.8138 -119.4456 -8.3618 -57.0969 62.2241 14.2346 -12.0083 29.7234 -15.1622 -180.0000
State:	  2.983  50.054  12.645  -0.093 -0.574  0.813 133.634   -104.23   19.34 -159.74   19.11   34.58 -162.21    0.34 -133.52   28.50   79.83   -2.76 -146.91 -179.99   47.32  168.81 -119.45   -8.36  -57.10   62.22   14.23  -12.01   29.72  -15.16 -180.00

DOCKED: MODEL       57
DOCKED: USER    Run = 57
DOCKED: USER    DPF = D:/Protein_go_brrr/autodock/final/6BB5/IHP/dock.dpf
DOCKED: USER  
DOCKED: USER    Estimated Free Energy of Binding    =   +5.03 kcal/mol  [=(1)+(2)+(3)-(4)]
DOCKED: USER    
DOCKED: USER    (1) Final Intermolecular Energy     =   -2.13 kcal/mol
DOCKED: USER        vdW + Hbond + desolv Energy     =   -2.24 kcal/mol
DOCKED: USER        Electrostatic Energy            =   +0.11 kcal/mol
DOCKED: USER    (2) Final Total Internal Energy     =  -14.76 kcal/mol
DOCKED: USER    (3) Torsional Free Energy           =   +7.16 kcal/mol
DOCKED: USER    (4) Unbound System's Energy  [=(2)] =  -14.76 kcal/mol
DOCKED: USER    
DOCKED: USER    
DOCKED: USER    NEWDPF move IHP_ideal_opt.pdbqt
DOCKED: USER    NEWDPF about 0.035000 0.082000 -0.065000
DOCKED: USER    NEWDPF tran0 2.982549 50.053826 12.644587
DOCKED: USER    NEWDPF quaternion0 -0.085777 -0.527736 0.747772 0.393667
DOCKED: USER    NEWDPF axisangle0 -0.093311 -0.574092 0.813456 133.634313
DOCKED: USER    NEWDPF quat0 -0.093311 -0.574092 0.813456 133.634313
DOCKED: USER    NEWDPF dihe0 -104.23 19.34 -159.74 19.11 34.58 -162.21 0.34 -133.52 28.50 79.83 -2.76 -146.91 -179.99 47.32 168.81 -119.45 -8.36 -57.10 62.22 14.23 -12.01 29.72 -15.16 -180.00 
DOCKED: USER  keepresnum = 1 
DOCKED: USER  
DOCKED: REMARK  24 active torsions:
DOCKED: REMARK  status: ('A' for Active; 'I' for Inactive)
DOCKED: REMARK    1  A    between atoms: C_1  and  O_7 
DOCKED: REMARK    2  A    between atoms: C_2  and  O_12 
DOCKED: REMARK    3  A    between atoms: C_3  and  O_17 
DOCKED: REMARK    4  A    between atoms: C_4  and  O_22 
DOCKED: REMARK    5  A    between atoms: C_5  and  O_27 
DOCKED: REMARK    6  A    between atoms: C_6  and  O_32 
DOCKED: REMARK    7  A    between atoms: O_7  and  P_8 
DOCKED: REMARK    8  A    between atoms: P_8  and  O_10 
DOCKED: REMARK    9  A    between atoms: P_8  and  O_11 
DOCKED: REMARK   10  A    between atoms: O_12  and  P_13 
DOCKED: REMARK   11  A    between atoms: P_13  and  O_15 
DOCKED: REMARK   12  A    between atoms: P_13  and  O_16 
DOCKED: REMARK   13  A    between atoms: O_17  and  P_18 
DOCKED: REMARK   14  A    between atoms: P_18  and  O_20 
DOCKED: REMARK   15  A    between atoms: P_18  and  O_21 
DOCKED: REMARK   16  A    between atoms: O_22  and  P_23 
DOCKED: REMARK   17  A    between atoms: P_23  and  O_25 
DOCKED: REMARK   18  A    between atoms: P_23  and  O_26 
DOCKED: REMARK   19  A    between atoms: O_27  and  P_28 
DOCKED: REMARK   20  A    between atoms: P_28  and  O_30 
DOCKED: REMARK   21  A    between atoms: P_28  and  O_31 
DOCKED: REMARK   22  A    between atoms: O_32  and  P_33 
DOCKED: REMARK   23  A    between atoms: P_33  and  O_35 
DOCKED: REMARK   24  A    between atoms: P_33  and  O_36 
DOCKED: USER                              x       y       z     vdW  Elec       q    Type
DOCKED: USER                           _______ _______ _______ _____ _____    ______ ____
DOCKED: ROOT
DOCKED: ATOM      1  C   UNL d   1       1.760  48.870  12.943 -0.05 +0.13    +0.194 C 
DOCKED: ATOM      2  C   UNL d   1       1.951  49.915  14.044 -0.02 +0.04    +0.194 C 
DOCKED: ATOM      3  C   UNL d   1       3.432  50.181  14.322 -0.02 +0.03    +0.194 C 
DOCKED: ATOM      4  C   UNL d   1       4.229  50.516  13.063 -0.03 +0.03    +0.194 C 
DOCKED: ATOM      5  C   UNL d   1       3.981  49.565  11.900 -0.10 +0.07    +0.194 C 
DOCKED: ATOM      6  C   UNL d   1       2.503  49.250  11.661 -0.07 +0.11    +0.194 C 
DOCKED: ENDROOT
DOCKED: BRANCH   1   7
DOCKED: ATOM      7  O   UNL d   1       0.368  48.806  12.625 -0.03 -0.11    -0.278 OA
DOCKED: BRANCH   7   8
DOCKED: ATOM      8  P   UNL d   1      -0.656  48.397  13.781 +0.00 +0.10    +0.473 P 
DOCKED: ATOM      9  O   UNL d   1      -1.590  47.291  13.434 -0.00 -0.04    -0.228 OA
DOCKED: BRANCH   8  10
DOCKED: ATOM     10  O   UNL d   1       0.281  48.060  15.027 -0.01 -0.06    -0.303 OA
DOCKED: ATOM     11  H   UNL d   1       0.327  48.833  15.620 +0.01 +0.02    +0.222 HD
DOCKED: ENDBRANCH   8  10
DOCKED: BRANCH   8  12
DOCKED: ATOM     12  O   UNL d   1      -1.334  49.760  14.234 +0.00 -0.03    -0.303 OA
DOCKED: ATOM     13  H   UNL d   1      -0.768  50.547  14.066 +0.00 +0.02    +0.222 HD
DOCKED: ENDBRANCH   8  12
DOCKED: ENDBRANCH   7   8
DOCKED: ENDBRANCH   1   7
DOCKED: BRANCH   2  14
DOCKED: ATOM     14  O   UNL d   1       1.335  51.142  13.634 +0.00 -0.03    -0.278 OA
DOCKED: BRANCH  14  15
DOCKED: ATOM     15  P   UNL d   1       0.668  52.029  14.789 +0.01 +0.02    +0.473 P 
DOCKED: ATOM     16  O   UNL d   1       1.439  53.228  15.245 +0.00 -0.00    -0.228 OA
DOCKED: BRANCH  15  17
DOCKED: ATOM     17  O   UNL d   1      -0.768  52.402  14.211 +0.00 -0.01    -0.303 OA
DOCKED: ATOM     18  H   UNL d   1      -1.468  51.872  14.639 +0.00 +0.01    +0.222 HD
DOCKED: ENDBRANCH  15  17
DOCKED: BRANCH  15  19
DOCKED: ATOM     19  O   UNL d   1       0.293  50.982  15.926 +0.00 -0.01    -0.303 OA
DOCKED: ATOM     20  H   UNL d   1      -0.068  50.157  15.552 +0.01 +0.01    +0.222 HD
DOCKED: ENDBRANCH  15  19
DOCKED: ENDBRANCH  14  15
DOCKED: ENDBRANCH   2  14
DOCKED: BRANCH   6  21
DOCKED: ATOM     21  O   UNL d   1       2.457  48.115  10.799 -0.45 -0.26    -0.278 OA
DOCKED: BRANCH  21  22
DOCKED: ATOM     22  P   UNL d   1       1.861  48.262   9.327 -0.12 +0.19    +0.473 P 
DOCKED: ATOM     23  O   UNL d   1       1.428  47.025   8.615 -0.18 -0.09    -0.228 OA
DOCKED: BRANCH  22  24
DOCKED: ATOM     24  O   UNL d   1       0.712  49.342   9.548 -0.03 -0.07    -0.303 OA
DOCKED: ATOM     25  H   UNL d   1       0.354  49.228  10.465 +0.03 +0.06    +0.222 HD
DOCKED: ENDBRANCH  22  24
DOCKED: BRANCH  22  26
DOCKED: ATOM     26  O   UNL d   1       2.996  49.131   8.601 -0.17 -0.08    -0.303 OA
DOCKED: ATOM     27  H   UNL d   1       3.845  49.008   9.072 +0.09 +0.06    +0.222 HD
DOCKED: ENDBRANCH  22  26
DOCKED: ENDBRANCH  21  22
DOCKED: ENDBRANCH   6  21
DOCKED: BRANCH   3  28
DOCKED: ATOM     28  O   UNL d   1       3.512  51.342  15.139 +0.00 -0.00    -0.278 OA
DOCKED: BRANCH  28  29
DOCKED: ATOM     29  P   UNL d   1       4.569  51.416  16.329 +0.02 -0.02    +0.473 P 
DOCKED: ATOM     30  O   UNL d   1       4.124  52.160  17.535 +0.00 +0.01    -0.228 OA
DOCKED: BRANCH  29  31
DOCKED: ATOM     31  O   UNL d   1       4.892  49.860  16.513 -0.00 +0.03    -0.303 OA
DOCKED: ATOM     32  H   UNL d   1       5.135  49.483  15.636 +0.02 -0.02    +0.222 HD
DOCKED: ENDBRANCH  29  31
DOCKED: BRANCH  29  33
DOCKED: ATOM     33  O   UNL d   1       5.869  51.960  15.587 +0.00 +0.02    -0.303 OA
DOCKED: ATOM     34  H   UNL d   1       6.259  51.229  15.047 +0.01 -0.02    +0.222 HD
DOCKED: ENDBRANCH  29  33
DOCKED: ENDBRANCH  28  29
DOCKED: ENDBRANCH   3  28
DOCKED: BRANCH   5  35
DOCKED: ATOM     35  O   UNL d   1       4.459  50.240  10.739 -0.08 -0.04    -0.278 OA
DOCKED: BRANCH  35  36
DOCKED: ATOM     36  P   UNL d   1       5.699  49.657   9.921 -0.21 -0.01    +0.473 P 
DOCKED: ATOM     37  O   UNL d   1       5.774  48.165   9.842 -0.28 -0.02    -0.228 OA
DOCKED: BRANCH  36  38
DOCKED: ATOM     38  O   UNL d   1       5.529  50.379   8.512 -0.23 +0.06    -0.303 OA
DOCKED: ATOM     39  H   UNL d   1       4.579  50.383   8.266 +0.06 +0.00    +0.222 HD
DOCKED: ENDBRANCH  36  38
DOCKED: BRANCH  36  40
DOCKED: ATOM     40  O   UNL d   1       6.931  50.408  10.590 -0.14 +0.04    -0.303 OA
DOCKED: ATOM     41  H   UNL d   1       6.815  50.504  11.561 +0.06 -0.02    +0.222 HD
DOCKED: ENDBRANCH  36  40
DOCKED: ENDBRANCH  35  36
DOCKED: ENDBRANCH   5  35
DOCKED: BRANCH   4  42
DOCKED: ATOM     42  O   UNL d   1       5.614  50.408  13.409 -0.01 +0.00    -0.278 OA
DOCKED: BRANCH  42  43
DOCKED: ATOM     43  P   UNL d   1       6.220  48.966  13.722 -0.07 -0.05    +0.473 P 
DOCKED: ATOM     44  O   UNL d   1       5.260  47.839  13.891 -0.30 -0.02    -0.228 OA
DOCKED: BRANCH  43  45
DOCKED: ATOM     45  O   UNL d   1       7.262  48.760  12.536 -0.08 +0.06    -0.303 OA
DOCKED: ATOM     46  H   UNL d   1       6.810  48.542  11.696 +0.09 -0.02    +0.222 HD
DOCKED: ENDBRANCH  43  45
DOCKED: BRANCH  43  47
DOCKED: ATOM     47  O   UNL d   1       7.192  49.239  14.966 -0.01 +0.07    -0.303 OA
DOCKED: ATOM     48  H   UNL d   1       6.823  49.964  15.511 +0.02 -0.03    +0.222 HD
DOCKED: ENDBRANCH  43  47
DOCKED: ENDBRANCH  42  43
DOCKED: ENDBRANCH   4  42
DOCKED: TORSDOF 24
DOCKED: TER
DOCKED: ENDMDL
________________________________________________________________________________


	BEGINNING GENETIC ALGORITHM DOCKING 58 of 100
Run: 58 Seed: 728390039 1159231222 [ Run 58 of 100 GA/GALS ]
Beginning LAMARCKIAN GENETIC ALGORITHM (LGA), with a maximum of 25000000 energy evaluations.

Final-Value: -17.109


	FINAL GENETIC ALGORITHM DOCKED STATE
	_______________________________________________


Detailed state:  trans 15.039 10.810 25.217 quatxyzw 0.749859 0.536162 -0.033120 0.386193 center 0.035 0.082 -0.065 ntor 24 123.7781 94.5689 108.3203 -8.9765 12.4356 -139.1875 4.1065 -115.5325 30.6812 25.0432 131.3992 145.9750 -72.8297 40.4690 13.5756 116.4085 166.8238 -120.1524 -148.3033 -22.2016 163.1169 -38.7605 -22.3905 159.9156
State:	 15.039  10.810  25.217   0.813  0.581 -0.036 134.564    123.78   94.57  108.32   -8.98   12.44 -139.19    4.11 -115.53   30.68   25.04  131.40  145.98  -72.83   40.47   13.58  116.41  166.82 -120.15 -148.30  -22.20  163.12  -38.76  -22.39  159.92

DOCKED: MODEL       58
DOCKED: USER    Run = 58
DOCKED: USER    DPF = D:/Protein_go_brrr/autodock/final/6BB5/IHP/dock.dpf
DOCKED: USER  
DOCKED: USER    Estimated Free Energy of Binding    =   +4.54 kcal/mol  [=(1)+(2)+(3)-(4)]
DOCKED: USER    
DOCKED: USER    (1) Final Intermolecular Energy     =   -2.62 kcal/mol
DOCKED: USER        vdW + Hbond + desolv Energy     =   -2.45 kcal/mol
DOCKED: USER        Electrostatic Energy            =   -0.17 kcal/mol
DOCKED: USER    (2) Final Total Internal Energy     =  -14.49 kcal/mol
DOCKED: USER    (3) Torsional Free Energy           =   +7.16 kcal/mol
DOCKED: USER    (4) Unbound System's Energy  [=(2)] =  -14.49 kcal/mol
DOCKED: USER    
DOCKED: USER    
DOCKED: USER    NEWDPF move IHP_ideal_opt.pdbqt
DOCKED: USER    NEWDPF about 0.035000 0.082000 -0.065000
DOCKED: USER    NEWDPF tran0 15.039019 10.809972 25.216974
DOCKED: USER    NEWDPF quaternion0 0.749859 0.536162 -0.033120 0.386193
DOCKED: USER    NEWDPF axisangle0 0.812928 0.581257 -0.035905 134.564389
DOCKED: USER    NEWDPF quat0 0.812928 0.581257 -0.035905 134.564389
DOCKED: USER    NEWDPF dihe0 123.78 94.57 108.32 -8.98 12.44 -139.19 4.11 -115.53 30.68 25.04 131.40 145.98 -72.83 40.47 13.58 116.41 166.82 -120.15 -148.30 -22.20 163.12 -38.76 -22.39 159.92 
DOCKED: USER  keepresnum = 1 
DOCKED: USER  
DOCKED: REMARK  24 active torsions:
DOCKED: REMARK  status: ('A' for Active; 'I' for Inactive)
DOCKED: REMARK    1  A    between atoms: C_1  and  O_7 
DOCKED: REMARK    2  A    between atoms: C_2  and  O_12 
DOCKED: REMARK    3  A    between atoms: C_3  and  O_17 
DOCKED: REMARK    4  A    between atoms: C_4  and  O_22 
DOCKED: REMARK    5  A    between atoms: C_5  and  O_27 
DOCKED: REMARK    6  A    between atoms: C_6  and  O_32 
DOCKED: REMARK    7  A    between atoms: O_7  and  P_8 
DOCKED: REMARK    8  A    between atoms: P_8  and  O_10 
DOCKED: REMARK    9  A    between atoms: P_8  and  O_11 
DOCKED: REMARK   10  A    between atoms: O_12  and  P_13 
DOCKED: REMARK   11  A    between atoms: P_13  and  O_15 
DOCKED: REMARK   12  A    between atoms: P_13  and  O_16 
DOCKED: REMARK   13  A    between atoms: O_17  and  P_18 
DOCKED: REMARK   14  A    between atoms: P_18  and  O_20 
DOCKED: REMARK   15  A    between atoms: P_18  and  O_21 
DOCKED: REMARK   16  A    between atoms: O_22  and  P_23 
DOCKED: REMARK   17  A    between atoms: P_23  and  O_25 
DOCKED: REMARK   18  A    between atoms: P_23  and  O_26 
DOCKED: REMARK   19  A    between atoms: O_27  and  P_28 
DOCKED: REMARK   20  A    between atoms: P_28  and  O_30 
DOCKED: REMARK   21  A    between atoms: P_28  and  O_31 
DOCKED: REMARK   22  A    between atoms: O_32  and  P_33 
DOCKED: REMARK   23  A    between atoms: P_33  and  O_35 
DOCKED: REMARK   24  A    between atoms: P_33  and  O_36 
DOCKED: USER                              x       y       z     vdW  Elec       q    Type
DOCKED: USER                           _______ _______ _______ _____ _____    ______ ____
DOCKED: ROOT
DOCKED: ATOM      1  C   UNL d   1      14.511  12.392  25.666 -0.16 -0.03    +0.194 C 
DOCKED: ATOM      2  C   UNL d   1      13.528  11.258  25.964 -0.08 -0.01    +0.194 C 
DOCKED: ATOM      3  C   UNL d   1      13.438  10.267  24.801 -0.08 +0.01    +0.194 C 
DOCKED: ATOM      4  C   UNL d   1      14.800   9.747  24.348 -0.04 +0.01    +0.194 C 
DOCKED: ATOM      5  C   UNL d   1      15.846  10.836  24.149 -0.06 +0.00    +0.194 C 
DOCKED: ATOM      6  C   UNL d   1      15.893  11.863  25.283 -0.09 -0.02    +0.194 C 
DOCKED: ENDROOT
DOCKED: BRANCH   1   7
DOCKED: ATOM      7  O   UNL d   1      14.667  13.170  26.855 -0.13 +0.14    -0.278 OA
DOCKED: BRANCH   7   8
DOCKED: ATOM      8  P   UNL d   1      15.805  12.750  27.894 -0.05 -0.23    +0.473 P 
DOCKED: ATOM      9  O   UNL d   1      16.265  11.338  27.788 -0.02 +0.04    -0.228 OA
DOCKED: BRANCH   8  10
DOCKED: ATOM     10  O   UNL d   1      16.970  13.810  27.642 -0.11 +0.25    -0.303 OA
DOCKED: ATOM     11  H   UNL d   1      16.996  14.049  26.697 +0.04 -0.19    +0.222 HD
DOCKED: ENDBRANCH   8  10
DOCKED: BRANCH   8  12
DOCKED: ATOM     12  O   UNL d   1      15.252  13.195  29.315 -0.06 +0.17    -0.303 OA
DOCKED: ATOM     13  H   UNL d   1      14.331  12.893  29.482 +0.02 -0.10    +0.222 HD
DOCKED: ENDBRANCH   8  12
DOCKED: ENDBRANCH   7   8
DOCKED: ENDBRANCH   1   7
DOCKED: BRANCH   2  14
DOCKED: ATOM     14  O   UNL d   1      13.968  10.553  27.131 -0.01 +0.02    -0.278 OA
DOCKED: BRANCH  14  15
DOCKED: ATOM     15  P   UNL d   1      13.088  10.743  28.456 +0.00 -0.05    +0.473 P 
DOCKED: ATOM     16  O   UNL d   1      12.056   9.694  28.733 -0.00 +0.01    -0.228 OA
DOCKED: BRANCH  15  17
DOCKED: ATOM     17  O   UNL d   1      14.165  10.872  29.622 -0.00 +0.04    -0.303 OA
DOCKED: ATOM     18  H   UNL d   1      15.062  11.007  29.259 +0.01 -0.04    +0.222 HD
DOCKED: ENDBRANCH  15  17
DOCKED: BRANCH  15  19
DOCKED: ATOM     19  O   UNL d   1      12.541  12.233  28.359 -0.02 +0.06    -0.303 OA
DOCKED: ATOM     20  H   UNL d   1      13.257  12.887  28.464 +0.03 -0.09    +0.222 HD
DOCKED: ENDBRANCH  15  19
DOCKED: ENDBRANCH  14  15
DOCKED: ENDBRANCH   2  14
DOCKED: BRANCH   6  21
DOCKED: ATOM     21  O   UNL d   1      16.648  12.973  24.802 -0.11 +0.05    -0.278 OA
DOCKED: BRANCH  21  22
DOCKED: ATOM     22  P   UNL d   1      16.139  13.783  23.525 -0.16 +0.01    +0.473 P 
DOCKED: ATOM     23  O   UNL d   1      14.689  14.120  23.437 -0.72 -0.06    -0.228 OA
DOCKED: BRANCH  22  24
DOCKED: ATOM     24  O   UNL d   1      17.117  15.038  23.525 -0.31 +0.03    -0.303 OA
DOCKED: ATOM     25  H   UNL d   1      17.071  15.465  24.418 +0.03 -0.11    +0.222 HD
DOCKED: ENDBRANCH  22  24
DOCKED: BRANCH  22  26
DOCKED: ATOM     26  O   UNL d   1      16.731  12.901  22.324 -0.04 -0.05    -0.303 OA
DOCKED: ATOM     27  H   UNL d   1      16.540  11.956  22.494 +0.06 +0.03    +0.222 HD
DOCKED: ENDBRANCH  22  26
DOCKED: ENDBRANCH  21  22
DOCKED: ENDBRANCH   6  21
DOCKED: BRANCH   3  28
DOCKED: ATOM     28  O   UNL d   1      12.734   9.123  25.267 -0.02 -0.01    -0.278 OA
DOCKED: BRANCH  28  29
DOCKED: ATOM     29  P   UNL d   1      11.166   9.200  25.541 -0.02 +0.02    +0.473 P 
DOCKED: ATOM     30  O   UNL d   1      10.297   8.853  24.388 -0.03 -0.02    -0.228 OA
DOCKED: BRANCH  29  31
DOCKED: ATOM     31  O   UNL d   1      11.063   8.266  26.836 -0.00 -0.00    -0.303 OA
DOCKED: ATOM     32  H   UNL d   1      11.671   8.618  27.527 +0.01 -0.00    +0.222 HD
DOCKED: ENDBRANCH  29  31
DOCKED: BRANCH  29  33
DOCKED: ATOM     33  O   UNL d   1      11.005  10.663  26.149 -0.04 -0.01    -0.303 OA
DOCKED: ATOM     34  H   UNL d   1      11.592  10.749  26.939 +0.03 -0.00    +0.222 HD
DOCKED: ENDBRANCH  29  33
DOCKED: ENDBRANCH  28  29
DOCKED: ENDBRANCH   3  28
DOCKED: BRANCH   5  35
DOCKED: ATOM     35  O   UNL d   1      17.105  10.167  24.136 -0.01 -0.00    -0.278 OA
DOCKED: BRANCH  35  36
DOCKED: ATOM     36  P   UNL d   1      17.923  10.018  22.775 -0.01 +0.02    +0.473 P 
DOCKED: ATOM     37  O   UNL d   1      18.764   8.786  22.660 -0.00 -0.01    -0.228 OA
DOCKED: BRANCH  36  38
DOCKED: ATOM     38  O   UNL d   1      16.766  10.124  21.686 -0.04 -0.03    -0.303 OA
DOCKED: ATOM     39  H   UNL d   1      15.976   9.640  22.009 +0.03 +0.02    +0.222 HD
DOCKED: ENDBRANCH  36  38
DOCKED: BRANCH  36  40
DOCKED: ATOM     40  O   UNL d   1      18.673  11.417  22.675 -0.02 -0.01    -0.303 OA
DOCKED: ATOM     41  H   UNL d   1      18.274  12.088  23.272 +0.04 -0.00    +0.222 HD
DOCKED: ENDBRANCH  36  40
DOCKED: ENDBRANCH  35  36
DOCKED: ENDBRANCH   5  35
DOCKED: BRANCH   4  42
DOCKED: ATOM     42  O   UNL d   1      14.601   9.118  23.077 -0.03 -0.02    -0.278 OA
DOCKED: BRANCH  42  43
DOCKED: ATOM     43  P   UNL d   1      13.787   9.898  21.949 -0.06 +0.08    +0.473 P 
DOCKED: ATOM     44  O   UNL d   1      12.309   9.993  22.110 -0.10 -0.05    -0.228 OA
DOCKED: BRANCH  43  45
DOCKED: ATOM     45  O   UNL d   1      14.527  11.306  21.896 -0.12 -0.08    -0.303 OA
DOCKED: ATOM     46  H   UNL d   1      15.477  11.203  21.687 +0.05 +0.04    +0.222 HD
DOCKED: ENDBRANCH  43  45
DOCKED: BRANCH  43  47
DOCKED: ATOM     47  O   UNL d   1      14.293   9.213  20.591 -0.04 -0.05    -0.303 OA
DOCKED: ATOM     48  H   UNL d   1      15.239   8.976  20.683 +0.03 +0.03    +0.222 HD
DOCKED: ENDBRANCH  43  47
DOCKED: ENDBRANCH  42  43
DOCKED: ENDBRANCH   4  42
DOCKED: TORSDOF 24
DOCKED: TER
DOCKED: ENDMDL
________________________________________________________________________________


	BEGINNING GENETIC ALGORITHM DOCKING 59 of 100
Run: 59 Seed: 709480431 604360325 [ Run 59 of 100 GA/GALS ]
Beginning LAMARCKIAN GENETIC ALGORITHM (LGA), with a maximum of 25000000 energy evaluations.

Final-Value: -14.788


	FINAL GENETIC ALGORITHM DOCKED STATE
	_______________________________________________


Detailed state:  trans 11.670 26.017 -14.952 quatxyzw -0.201527 -0.139966 -0.446295 -0.860591 center 0.035 0.082 -0.065 ntor 24 -161.3925 -29.9847 33.4963 54.0905 -5.7486 133.6954 -69.4209 -33.9735 -5.5436 101.5553 -109.1450 -172.4650 29.5838 168.5024 -65.8841 -161.9263 -9.2706 27.5645 -133.6928 -29.2383 179.0425 -28.7360 171.2898 0.5240
State:	 11.670  26.017 -14.952  -0.396 -0.275 -0.876 -61.234   -161.39  -29.98   33.50   54.09   -5.75  133.70  -69.42  -33.97   -5.54  101.56 -109.15 -172.46   29.58  168.50  -65.88 -161.93   -9.27   27.56 -133.69  -29.24  179.04  -28.74  171.29    0.52

DOCKED: MODEL       59
DOCKED: USER    Run = 59
DOCKED: USER    DPF = D:/Protein_go_brrr/autodock/final/6BB5/IHP/dock.dpf
DOCKED: USER  
DOCKED: USER    Estimated Free Energy of Binding    =   +3.46 kcal/mol  [=(1)+(2)+(3)-(4)]
DOCKED: USER    
DOCKED: USER    (1) Final Intermolecular Energy     =   -3.70 kcal/mol
DOCKED: USER        vdW + Hbond + desolv Energy     =   -3.29 kcal/mol
DOCKED: USER        Electrostatic Energy            =   -0.41 kcal/mol
DOCKED: USER    (2) Final Total Internal Energy     =  -11.09 kcal/mol
DOCKED: USER    (3) Torsional Free Energy           =   +7.16 kcal/mol
DOCKED: USER    (4) Unbound System's Energy  [=(2)] =  -11.09 kcal/mol
DOCKED: USER    
DOCKED: USER    
DOCKED: USER    NEWDPF move IHP_ideal_opt.pdbqt
DOCKED: USER    NEWDPF about 0.035000 0.082000 -0.065000
DOCKED: USER    NEWDPF tran0 11.669632 26.016868 -14.951709
DOCKED: USER    NEWDPF quaternion0 -0.201527 -0.139966 -0.446295 -0.860591
DOCKED: USER    NEWDPF axisangle0 -0.395697 -0.274822 -0.876297 -61.233947
DOCKED: USER    NEWDPF quat0 -0.395697 -0.274822 -0.876297 -61.233947
DOCKED: USER    NEWDPF dihe0 -161.39 -29.98 33.50 54.09 -5.75 133.70 -69.42 -33.97 -5.54 101.56 -109.15 -172.46 29.58 168.50 -65.88 -161.93 -9.27 27.56 -133.69 -29.24 179.04 -28.74 171.29 0.52 
DOCKED: USER  keepresnum = 1 
DOCKED: USER  
DOCKED: REMARK  24 active torsions:
DOCKED: REMARK  status: ('A' for Active; 'I' for Inactive)
DOCKED: REMARK    1  A    between atoms: C_1  and  O_7 
DOCKED: REMARK    2  A    between atoms: C_2  and  O_12 
DOCKED: REMARK    3  A    between atoms: C_3  and  O_17 
DOCKED: REMARK    4  A    between atoms: C_4  and  O_22 
DOCKED: REMARK    5  A    between atoms: C_5  and  O_27 
DOCKED: REMARK    6  A    between atoms: C_6  and  O_32 
DOCKED: REMARK    7  A    between atoms: O_7  and  P_8 
DOCKED: REMARK    8  A    between atoms: P_8  and  O_10 
DOCKED: REMARK    9  A    between atoms: P_8  and  O_11 
DOCKED: REMARK   10  A    between atoms: O_12  and  P_13 
DOCKED: REMARK   11  A    between atoms: P_13  and  O_15 
DOCKED: REMARK   12  A    between atoms: P_13  and  O_16 
DOCKED: REMARK   13  A    between atoms: O_17  and  P_18 
DOCKED: REMARK   14  A    between atoms: P_18  and  O_20 
DOCKED: REMARK   15  A    between atoms: P_18  and  O_21 
DOCKED: REMARK   16  A    between atoms: O_22  and  P_23 
DOCKED: REMARK   17  A    between atoms: P_23  and  O_25 
DOCKED: REMARK   18  A    between atoms: P_23  and  O_26 
DOCKED: REMARK   19  A    between atoms: O_27  and  P_28 
DOCKED: REMARK   20  A    between atoms: P_28  and  O_30 
DOCKED: REMARK   21  A    between atoms: P_28  and  O_31 
DOCKED: REMARK   22  A    between atoms: O_32  and  P_33 
DOCKED: REMARK   23  A    between atoms: P_33  and  O_35 
DOCKED: REMARK   24  A    between atoms: P_33  and  O_36 
DOCKED: USER                              x       y       z     vdW  Elec       q    Type
DOCKED: USER                           _______ _______ _______ _____ _____    ______ ____
DOCKED: ROOT
DOCKED: ATOM      1  C   UNL d   1      11.594  25.036 -13.532 -0.10 -0.13    +0.194 C 
DOCKED: ATOM      2  C   UNL d   1      10.252  25.332 -14.203 -0.10 -0.08    +0.194 C 
DOCKED: ATOM      3  C   UNL d   1      10.145  26.796 -14.636 -0.15 -0.05    +0.194 C 
DOCKED: ATOM      4  C   UNL d   1      11.328  27.260 -15.482 -0.13 -0.03    +0.194 C 
DOCKED: ATOM      5  C   UNL d   1      12.688  26.885 -14.907 -0.11 -0.04    +0.194 C 
DOCKED: ATOM      6  C   UNL d   1      12.775  25.438 -14.417 -0.10 -0.06    +0.194 C 
DOCKED: ENDROOT
DOCKED: BRANCH   1   7
DOCKED: ATOM      7  O   UNL d   1      11.683  23.626 -13.316 -0.11 +0.20    -0.278 OA
DOCKED: BRANCH   7   8
DOCKED: ATOM      8  P   UNL d   1      12.613  22.766 -14.290 -0.00 -0.15    +0.473 P 
DOCKED: ATOM      9  O   UNL d   1      14.064  22.789 -13.960 -0.02 +0.07    -0.228 OA
DOCKED: BRANCH   8  10
DOCKED: ATOM     10  O   UNL d   1      11.980  21.303 -14.238 -0.01 +0.06    -0.303 OA
DOCKED: ATOM     11  H   UNL d   1      11.006  21.368 -14.246 +0.03 -0.04    +0.222 HD
DOCKED: ENDBRANCH   8  10
DOCKED: BRANCH   8  12
DOCKED: ATOM     12  O   UNL d   1      12.228  23.243 -15.756 -0.00 +0.05    -0.303 OA
DOCKED: ATOM     13  H   UNL d   1      11.364  22.886 -16.063 +0.02 -0.03    +0.222 HD
DOCKED: ENDBRANCH   8  12
DOCKED: ENDBRANCH   7   8
DOCKED: ENDBRANCH   1   7
DOCKED: BRANCH   2  14
DOCKED: ATOM     14  O   UNL d   1      10.117  24.501 -15.363 -0.04 +0.06    -0.278 OA
DOCKED: BRANCH  14  15
DOCKED: ATOM     15  P   UNL d   1       9.167  23.220 -15.219 -0.02 -0.08    +0.473 P 
DOCKED: ATOM     16  O   UNL d   1       9.679  21.937 -15.794 -0.00 +0.02    -0.228 OA
DOCKED: BRANCH  15  17
DOCKED: ATOM     17  O   UNL d   1       8.879  23.125 -13.656 -0.12 +0.14    -0.303 OA
DOCKED: ATOM     18  H   UNL d   1       9.703  22.976 -13.154 +0.05 -0.15    +0.222 HD
DOCKED: ENDBRANCH  15  17
DOCKED: BRANCH  15  19
DOCKED: ATOM     19  O   UNL d   1       7.758  23.707 -15.775 -0.01 +0.02    -0.303 OA
DOCKED: ATOM     20  H   UNL d   1       7.762  24.659 -15.983 +0.03 -0.01    +0.222 HD
DOCKED: ENDBRANCH  15  19
DOCKED: ENDBRANCH  14  15
DOCKED: ENDBRANCH   2  14
DOCKED: BRANCH   6  21
DOCKED: ATOM     21  O   UNL d   1      13.950  25.344 -13.614 -0.07 +0.10    -0.278 OA
DOCKED: BRANCH  21  22
DOCKED: ATOM     22  P   UNL d   1      13.943  25.927 -12.129 -0.23 -0.24    +0.473 P 
DOCKED: ATOM     23  O   UNL d   1      13.160  27.169 -11.863 -0.34 +0.14    -0.228 OA
DOCKED: BRANCH  22  24
DOCKED: ATOM     24  O   UNL d   1      13.489  24.658 -11.283 -0.27 +0.28    -0.303 OA
DOCKED: ATOM     25  H   UNL d   1      12.528  24.495 -11.464 -0.39 -0.38    +0.222 HD
DOCKED: ENDBRANCH  22  24
DOCKED: BRANCH  22  26
DOCKED: ATOM     26  O   UNL d   1      15.510  26.001 -11.801 -0.16 +0.09    -0.303 OA
DOCKED: ATOM     27  H   UNL d   1      15.951  25.202 -12.156 +0.08 -0.06    +0.222 HD
DOCKED: ENDBRANCH  22  26
DOCKED: ENDBRANCH  21  22
DOCKED: ENDBRANCH   6  21
DOCKED: BRANCH   3  28
DOCKED: ATOM     28  O   UNL d   1       9.008  26.910 -15.482 -0.09 +0.01    -0.278 OA
DOCKED: BRANCH  28  29
DOCKED: ATOM     29  P   UNL d   1       7.550  27.049 -14.857 -0.10 +0.10    +0.473 P 
DOCKED: ATOM     30  O   UNL d   1       6.463  27.344 -15.825 -0.06 -0.10    -0.228 OA
DOCKED: BRANCH  29  31
DOCKED: ATOM     31  O   UNL d   1       7.456  25.666 -14.058 -0.11 +0.04    -0.303 OA
DOCKED: ATOM     32  H   UNL d   1       8.144  25.053 -14.408 +0.05 -0.05    +0.222 HD
DOCKED: ENDBRANCH  29  31
DOCKED: BRANCH  29  33
DOCKED: ATOM     33  O   UNL d   1       7.786  28.111 -13.694 -0.11 -0.11    -0.303 OA
DOCKED: ATOM     34  H   UNL d   1       8.572  28.666 -13.920 -0.18 -0.01    +0.222 HD
DOCKED: ENDBRANCH  29  33
DOCKED: ENDBRANCH  28  29
DOCKED: ENDBRANCH   3  28
DOCKED: BRANCH   5  35
DOCKED: ATOM     35  O   UNL d   1      13.614  27.020 -15.982 -0.04 +0.04    -0.278 OA
DOCKED: BRANCH  35  36
DOCKED: ATOM     36  P   UNL d   1      13.413  26.186 -17.327 +0.01 -0.04    +0.473 P 
DOCKED: ATOM     37  O   UNL d   1      11.993  25.967 -17.744 -0.01 +0.01    -0.228 OA
DOCKED: BRANCH  36  38
DOCKED: ATOM     38  O   UNL d   1      14.278  27.028 -18.366 -0.00 +0.02    -0.303 OA
DOCKED: ATOM     39  H   UNL d   1      13.787  27.842 -18.608 +0.01 -0.01    +0.222 HD
DOCKED: ENDBRANCH  36  38
DOCKED: BRANCH  36  40
DOCKED: ATOM     40  O   UNL d   1      14.294  24.889 -17.057 +0.00 +0.03    -0.303 OA
DOCKED: ATOM     41  H   UNL d   1      13.982  24.395 -16.266 +0.02 -0.03    +0.222 HD
DOCKED: ENDBRANCH  36  40
DOCKED: ENDBRANCH  35  36
DOCKED: ENDBRANCH   5  35
DOCKED: BRANCH   4  42
DOCKED: ATOM     42  O   UNL d   1      11.270  28.690 -15.526 -0.13 +0.04    -0.278 OA
DOCKED: BRANCH  42  43
DOCKED: ATOM     43  P   UNL d   1      10.899  29.404 -16.904 -0.05 +0.00    +0.473 P 
DOCKED: ATOM     44  O   UNL d   1       9.482  29.332 -17.355 -0.03 -0.03    -0.228 OA
DOCKED: BRANCH  43  45
DOCKED: ATOM     45  O   UNL d   1      11.438  30.885 -16.684 -0.22 -0.01    -0.303 OA
DOCKED: ATOM     46  H   UNL d   1      11.305  31.436 -17.481 +0.03 +0.01    +0.222 HD
DOCKED: ENDBRANCH  43  45
DOCKED: BRANCH  43  47
DOCKED: ATOM     47  O   UNL d   1      11.982  28.812 -17.926 -0.02 +0.01    -0.303 OA
DOCKED: ATOM     48  H   UNL d   1      12.500  28.111 -17.478 +0.02 -0.01    +0.222 HD
DOCKED: ENDBRANCH  43  47
DOCKED: ENDBRANCH  42  43
DOCKED: ENDBRANCH   4  42
DOCKED: TORSDOF 24
DOCKED: TER
DOCKED: ENDMDL
________________________________________________________________________________


	BEGINNING GENETIC ALGORITHM DOCKING 60 of 100
Run: 60 Seed: 983480713 133281454 [ Run 60 of 100 GA/GALS ]
Beginning LAMARCKIAN GENETIC ALGORITHM (LGA), with a maximum of 25000000 energy evaluations.

Final-Value: -19.129


	FINAL GENETIC ALGORITHM DOCKED STATE
	_______________________________________________


Detailed state:  trans 0.837 44.504 -1.753 quatxyzw 0.106445 -0.564260 -0.437351 0.692102 center 0.035 0.082 -0.065 ntor 24 88.5756 -145.0131 146.7251 -0.7932 124.4880 -180.0000 -95.6013 -7.7060 3.6684 48.0568 25.0892 179.9960 134.2945 176.8511 28.8533 11.5678 154.6360 138.7805 -13.6958 12.0400 -8.0700 -5.7021 -21.3015 -7.9080
State:	  0.837  44.504  -1.753   0.147 -0.782 -0.606 92.407     88.58 -145.01  146.73   -0.79  124.49 -180.00  -95.60   -7.71    3.67   48.06   25.09  180.00  134.29  176.85   28.85   11.57  154.64  138.78  -13.70   12.04   -8.07   -5.70  -21.30   -7.91

DOCKED: MODEL       60
DOCKED: USER    Run = 60
DOCKED: USER    DPF = D:/Protein_go_brrr/autodock/final/6BB5/IHP/dock.dpf
DOCKED: USER  
DOCKED: USER    Estimated Free Energy of Binding    =   +3.11 kcal/mol  [=(1)+(2)+(3)-(4)]
DOCKED: USER    
DOCKED: USER    (1) Final Intermolecular Energy     =   -4.05 kcal/mol
DOCKED: USER        vdW + Hbond + desolv Energy     =   -4.03 kcal/mol
DOCKED: USER        Electrostatic Energy            =   -0.03 kcal/mol
DOCKED: USER    (2) Final Total Internal Energy     =  -15.08 kcal/mol
DOCKED: USER    (3) Torsional Free Energy           =   +7.16 kcal/mol
DOCKED: USER    (4) Unbound System's Energy  [=(2)] =  -15.08 kcal/mol
DOCKED: USER    
DOCKED: USER    
DOCKED: USER    NEWDPF move IHP_ideal_opt.pdbqt
DOCKED: USER    NEWDPF about 0.035000 0.082000 -0.065000
DOCKED: USER    NEWDPF tran0 0.837264 44.504378 -1.752850
DOCKED: USER    NEWDPF quaternion0 0.106445 -0.564260 -0.437351 0.692102
DOCKED: USER    NEWDPF axisangle0 0.147471 -0.781739 -0.605917 92.406612
DOCKED: USER    NEWDPF quat0 0.147471 -0.781739 -0.605917 92.406612
DOCKED: USER    NEWDPF dihe0 88.58 -145.01 146.73 -0.79 124.49 -180.00 -95.60 -7.71 3.67 48.06 25.09 180.00 134.29 176.85 28.85 11.57 154.64 138.78 -13.70 12.04 -8.07 -5.70 -21.30 -7.91 
DOCKED: USER  keepresnum = 1 
DOCKED: USER  
DOCKED: REMARK  24 active torsions:
DOCKED: REMARK  status: ('A' for Active; 'I' for Inactive)
DOCKED: REMARK    1  A    between atoms: C_1  and  O_7 
DOCKED: REMARK    2  A    between atoms: C_2  and  O_12 
DOCKED: REMARK    3  A    between atoms: C_3  and  O_17 
DOCKED: REMARK    4  A    between atoms: C_4  and  O_22 
DOCKED: REMARK    5  A    between atoms: C_5  and  O_27 
DOCKED: REMARK    6  A    between atoms: C_6  and  O_32 
DOCKED: REMARK    7  A    between atoms: O_7  and  P_8 
DOCKED: REMARK    8  A    between atoms: P_8  and  O_10 
DOCKED: REMARK    9  A    between atoms: P_8  and  O_11 
DOCKED: REMARK   10  A    between atoms: O_12  and  P_13 
DOCKED: REMARK   11  A    between atoms: P_13  and  O_15 
DOCKED: REMARK   12  A    between atoms: P_13  and  O_16 
DOCKED: REMARK   13  A    between atoms: O_17  and  P_18 
DOCKED: REMARK   14  A    between atoms: P_18  and  O_20 
DOCKED: REMARK   15  A    between atoms: P_18  and  O_21 
DOCKED: REMARK   16  A    between atoms: O_22  and  P_23 
DOCKED: REMARK   17  A    between atoms: P_23  and  O_25 
DOCKED: REMARK   18  A    between atoms: P_23  and  O_26 
DOCKED: REMARK   19  A    between atoms: O_27  and  P_28 
DOCKED: REMARK   20  A    between atoms: P_28  and  O_30 
DOCKED: REMARK   21  A    between atoms: P_28  and  O_31 
DOCKED: REMARK   22  A    between atoms: O_32  and  P_33 
DOCKED: REMARK   23  A    between atoms: P_33  and  O_35 
DOCKED: REMARK   24  A    between atoms: P_33  and  O_36 
DOCKED: USER                              x       y       z     vdW  Elec       q    Type
DOCKED: USER                           _______ _______ _______ _____ _____    ______ ____
DOCKED: ROOT
DOCKED: ATOM      1  C   UNL d   1       2.001  45.091  -2.886 -0.12 +0.14    +0.194 C 
DOCKED: ATOM      2  C   UNL d   1       2.355  43.771  -2.199 -0.13 +0.11    +0.194 C 
DOCKED: ATOM      3  C   UNL d   1       2.039  43.808  -0.703 -0.17 +0.13    +0.194 C 
DOCKED: ATOM      4  C   UNL d   1       0.609  44.251  -0.401 -0.07 +0.11    +0.194 C 
DOCKED: ATOM      5  C   UNL d   1       0.175  45.502  -1.155 -0.06 +0.10    +0.194 C 
DOCKED: ATOM      6  C   UNL d   1       0.546  45.491  -2.639 -0.06 +0.10    +0.194 C 
DOCKED: ENDROOT
DOCKED: BRANCH   1   7
DOCKED: ATOM      7  O   UNL d   1       2.162  44.917  -4.296 -0.07 -0.16    -0.278 OA
DOCKED: BRANCH   7   8
DOCKED: ATOM      8  P   UNL d   1       2.890  46.073  -5.125 -0.12 +0.42    +0.473 P 
DOCKED: ATOM      9  O   UNL d   1       2.896  45.882  -6.601 -0.07 -0.11    -0.228 OA
DOCKED: BRANCH   8  10
DOCKED: ATOM     10  O   UNL d   1       2.143  47.406  -4.667 -0.05 -0.43    -0.303 OA
DOCKED: ATOM     11  H   UNL d   1       1.231  47.406  -5.013 +0.03 +0.17    +0.222 HD
DOCKED: ENDBRANCH   8  10
DOCKED: BRANCH   8  12
DOCKED: ATOM     12  O   UNL d   1       4.314  46.237  -4.441 -0.79 -0.45    -0.303 OA
DOCKED: ATOM     13  H   UNL d   1       4.926  46.810  -4.957 -0.04 +0.32    +0.222 HD
DOCKED: ENDBRANCH   8  12
DOCKED: ENDBRANCH   7   8
DOCKED: ENDBRANCH   1   7
DOCKED: BRANCH   2  14
DOCKED: ATOM     14  O   UNL d   1       1.596  42.714  -2.800 -0.02 -0.14    -0.278 OA
DOCKED: BRANCH  14  15
DOCKED: ATOM     15  P   UNL d   1       2.332  41.300  -2.950 -0.01 +0.24    +0.473 P 
DOCKED: ATOM     16  O   UNL d   1       2.327  40.680  -4.312 -0.01 -0.07    -0.228 OA
DOCKED: BRANCH  15  17
DOCKED: ATOM     17  O   UNL d   1       3.803  41.569  -2.400 -0.11 -0.14    -0.303 OA
DOCKED: ATOM     18  H   UNL d   1       3.778  41.996  -1.522 +0.11 +0.13    +0.222 HD
DOCKED: ENDBRANCH  15  17
DOCKED: BRANCH  15  19
DOCKED: ATOM     19  O   UNL d   1       1.715  40.406  -1.787 -0.15 -0.33    -0.303 OA
DOCKED: ATOM     20  H   UNL d   1       1.887  40.790  -0.908 +0.06 +0.37    +0.222 HD
DOCKED: ENDBRANCH  15  19
DOCKED: ENDBRANCH  14  15
DOCKED: ENDBRANCH   2  14
DOCKED: BRANCH   6  21
DOCKED: ATOM     21  O   UNL d   1       0.393  46.827  -3.112 -0.06 -0.18    -0.278 OA
DOCKED: BRANCH  21  22
DOCKED: ATOM     22  P   UNL d   1      -0.789  47.178  -4.124 -0.01 +0.18    +0.473 P 
DOCKED: ATOM     23  O   UNL d   1      -2.192  46.919  -3.686 -0.00 -0.05    -0.228 OA
DOCKED: BRANCH  22  24
DOCKED: ATOM     24  O   UNL d   1      -0.472  48.696  -4.482 -0.02 -0.13    -0.303 OA
DOCKED: ATOM     25  H   UNL d   1       0.439  48.737  -4.869 +0.02 +0.14    +0.222 HD
DOCKED: ENDBRANCH  22  24
DOCKED: BRANCH  22  26
DOCKED: ATOM     26  O   UNL d   1      -0.316  46.419  -5.454 -0.00 -0.10    -0.303 OA
DOCKED: ATOM     27  H   UNL d   1       0.484  45.891  -5.256 +0.02 +0.09    +0.222 HD
DOCKED: ENDBRANCH  22  26
DOCKED: ENDBRANCH  21  22
DOCKED: ENDBRANCH   6  21
DOCKED: BRANCH   3  28
DOCKED: ATOM     28  O   UNL d   1       2.133  42.477  -0.212 -0.13 -0.28    -0.278 OA
DOCKED: BRANCH  28  29
DOCKED: ATOM     29  P   UNL d   1       3.389  42.028   0.658 -0.27 +0.50    +0.473 P 
DOCKED: ATOM     30  O   UNL d   1       4.554  42.949   0.626 -0.34 -0.11    -0.228 OA
DOCKED: BRANCH  29  31
DOCKED: ATOM     31  O   UNL d   1       2.681  41.802   2.076 -0.58 -0.47    -0.303 OA
DOCKED: ATOM     32  H   UNL d   1       2.065  42.552   2.242 +0.12 +0.26    +0.222 HD
DOCKED: ENDBRANCH  29  31
DOCKED: BRANCH  29  33
DOCKED: ATOM     33  O   UNL d   1       3.634  40.540   0.147 -0.59 -0.44    -0.303 OA
DOCKED: ATOM     34  H   UNL d   1       3.681  40.544  -0.841 +0.09 +0.21    +0.222 HD
DOCKED: ENDBRANCH  29  33
DOCKED: ENDBRANCH  28  29
DOCKED: ENDBRANCH   3  28
DOCKED: BRANCH   5  35
DOCKED: ATOM     35  O   UNL d   1      -1.249  45.525  -1.079 -0.01 -0.10    -0.278 OA
DOCKED: BRANCH  35  36
DOCKED: ATOM     36  P   UNL d   1      -1.989  46.611  -0.175 +0.00 +0.13    +0.473 P 
DOCKED: ATOM     37  O   UNL d   1      -3.404  46.291   0.189 -0.00 -0.04    -0.228 OA
DOCKED: BRANCH  36  38
DOCKED: ATOM     38  O   UNL d   1      -1.003  46.727   1.069 -0.02 -0.09    -0.303 OA
DOCKED: ATOM     39  H   UNL d   1      -1.007  45.878   1.562 +0.04 +0.07    +0.222 HD
DOCKED: ENDBRANCH  36  38
DOCKED: BRANCH  36  40
DOCKED: ATOM     40  O   UNL d   1      -1.740  47.955  -0.988 -0.01 -0.08    -0.303 OA
DOCKED: ATOM     41  H   UNL d   1      -1.307  47.783  -1.853 +0.01 +0.08    +0.222 HD
DOCKED: ENDBRANCH  36  40
DOCKED: ENDBRANCH  35  36
DOCKED: ENDBRANCH   5  35
DOCKED: BRANCH   4  42
DOCKED: ATOM     42  O   UNL d   1       0.557  44.562   0.995 -0.08 -0.15    -0.278 OA
DOCKED: BRANCH  42  43
DOCKED: ATOM     43  P   UNL d   1      -0.432  43.734   1.933 -0.04 +0.29    +0.473 P 
DOCKED: ATOM     44  O   UNL d   1      -0.537  44.151   3.359 -0.06 -0.11    -0.228 OA
DOCKED: BRANCH  43  45
DOCKED: ATOM     45  O   UNL d   1      -1.807  43.798   1.134 -0.01 -0.13    -0.303 OA
DOCKED: ATOM     46  H   UNL d   1      -2.011  44.710   0.846 +0.02 +0.07    +0.222 HD
DOCKED: ENDBRANCH  43  45
DOCKED: BRANCH  43  47
DOCKED: ATOM     47  O   UNL d   1       0.016  42.215   1.688 -0.35 -0.45    -0.303 OA
DOCKED: ATOM     48  H   UNL d   1       0.746  42.195   1.035 +0.07 +0.39    +0.222 HD
DOCKED: ENDBRANCH  43  47
DOCKED: ENDBRANCH  42  43
DOCKED: ENDBRANCH   4  42
DOCKED: TORSDOF 24
DOCKED: TER
DOCKED: ENDMDL
________________________________________________________________________________


	BEGINNING GENETIC ALGORITHM DOCKING 61 of 100
Run: 61 Seed: 1094020222 1860624561 [ Run 61 of 100 GA/GALS ]
Beginning LAMARCKIAN GENETIC ALGORITHM (LGA), with a maximum of 25000000 energy evaluations.

Final-Value: -16.159


	FINAL GENETIC ALGORITHM DOCKED STATE
	_______________________________________________


Detailed state:  trans 8.434 50.055 -9.555 quatxyzw 0.172891 -0.697516 0.683730 0.126860 center 0.035 0.082 -0.065 ntor 24 66.0745 138.4949 152.9484 84.3720 -71.4592 -136.5066 -42.1431 -15.8308 -5.4971 101.7570 -10.4856 116.3135 -35.2434 66.6001 0.0643 -180.0000 -38.4644 -154.4125 -164.1854 26.1105 -33.0636 22.5316 -180.0000 -9.6207
State:	  8.434  50.055  -9.555   0.174 -0.703  0.689 165.424     66.07  138.49  152.95   84.37  -71.46 -136.51  -42.14  -15.83   -5.50  101.76  -10.49  116.31  -35.24   66.60    0.06 -180.00  -38.46 -154.41 -164.19   26.11  -33.06   22.53 -180.00   -9.62

DOCKED: MODEL       61
DOCKED: USER    Run = 61
DOCKED: USER    DPF = D:/Protein_go_brrr/autodock/final/6BB5/IHP/dock.dpf
DOCKED: USER  
DOCKED: USER    Estimated Free Energy of Binding    =   +4.39 kcal/mol  [=(1)+(2)+(3)-(4)]
DOCKED: USER    
DOCKED: USER    (1) Final Intermolecular Energy     =   -2.77 kcal/mol
DOCKED: USER        vdW + Hbond + desolv Energy     =   -2.57 kcal/mol
DOCKED: USER        Electrostatic Energy            =   -0.20 kcal/mol
DOCKED: USER    (2) Final Total Internal Energy     =  -13.39 kcal/mol
DOCKED: USER    (3) Torsional Free Energy           =   +7.16 kcal/mol
DOCKED: USER    (4) Unbound System's Energy  [=(2)] =  -13.39 kcal/mol
DOCKED: USER    
DOCKED: USER    
DOCKED: USER    NEWDPF move IHP_ideal_opt.pdbqt
DOCKED: USER    NEWDPF about 0.035000 0.082000 -0.065000
DOCKED: USER    NEWDPF tran0 8.433736 50.054727 -9.555402
DOCKED: USER    NEWDPF quaternion0 0.172891 -0.697516 0.683730 0.126860
DOCKED: USER    NEWDPF axisangle0 0.174299 -0.703197 0.689299 165.423589
DOCKED: USER    NEWDPF quat0 0.174299 -0.703197 0.689299 165.423589
DOCKED: USER    NEWDPF dihe0 66.07 138.49 152.95 84.37 -71.46 -136.51 -42.14 -15.83 -5.50 101.76 -10.49 116.31 -35.24 66.60 0.06 -180.00 -38.46 -154.41 -164.19 26.11 -33.06 22.53 -180.00 -9.62 
DOCKED: USER  keepresnum = 1 
DOCKED: USER  
DOCKED: REMARK  24 active torsions:
DOCKED: REMARK  status: ('A' for Active; 'I' for Inactive)
DOCKED: REMARK    1  A    between atoms: C_1  and  O_7 
DOCKED: REMARK    2  A    between atoms: C_2  and  O_12 
DOCKED: REMARK    3  A    between atoms: C_3  and  O_17 
DOCKED: REMARK    4  A    between atoms: C_4  and  O_22 
DOCKED: REMARK    5  A    between atoms: C_5  and  O_27 
DOCKED: REMARK    6  A    between atoms: C_6  and  O_32 
DOCKED: REMARK    7  A    between atoms: O_7  and  P_8 
DOCKED: REMARK    8  A    between atoms: P_8  and  O_10 
DOCKED: REMARK    9  A    between atoms: P_8  and  O_11 
DOCKED: REMARK   10  A    between atoms: O_12  and  P_13 
DOCKED: REMARK   11  A    between atoms: P_13  and  O_15 
DOCKED: REMARK   12  A    between atoms: P_13  and  O_16 
DOCKED: REMARK   13  A    between atoms: O_17  and  P_18 
DOCKED: REMARK   14  A    between atoms: P_18  and  O_20 
DOCKED: REMARK   15  A    between atoms: P_18  and  O_21 
DOCKED: REMARK   16  A    between atoms: O_22  and  P_23 
DOCKED: REMARK   17  A    between atoms: P_23  and  O_25 
DOCKED: REMARK   18  A    between atoms: P_23  and  O_26 
DOCKED: REMARK   19  A    between atoms: O_27  and  P_28 
DOCKED: REMARK   20  A    between atoms: P_28  and  O_30 
DOCKED: REMARK   21  A    between atoms: P_28  and  O_31 
DOCKED: REMARK   22  A    between atoms: O_32  and  P_33 
DOCKED: REMARK   23  A    between atoms: P_33  and  O_35 
DOCKED: REMARK   24  A    between atoms: P_33  and  O_36 
DOCKED: USER                              x       y       z     vdW  Elec       q    Type
DOCKED: USER                           _______ _______ _______ _____ _____    ______ ____
DOCKED: ROOT
DOCKED: ATOM      1  C   UNL d   1       7.683  48.811  -8.621 -0.13 +0.01    +0.194 C 
DOCKED: ATOM      2  C   UNL d   1       8.718  49.660  -7.881 -0.11 -0.01    +0.194 C 
DOCKED: ATOM      3  C   UNL d   1       9.963  49.909  -8.736 -0.13 -0.02    +0.194 C 
DOCKED: ATOM      4  C   UNL d   1       9.640  50.468 -10.119 -0.04 -0.01    +0.194 C 
DOCKED: ATOM      5  C   UNL d   1       8.531  49.720 -10.848 -0.02 -0.00    +0.194 C 
DOCKED: ATOM      6  C   UNL d   1       7.311  49.417  -9.975 -0.04 +0.01    +0.194 C 
DOCKED: ENDROOT
DOCKED: BRANCH   1   7
DOCKED: ATOM      7  O   UNL d   1       6.493  48.770  -7.831 -0.13 -0.07    -0.278 OA
DOCKED: BRANCH   7   8
DOCKED: ATOM      8  P   UNL d   1       5.584  50.082  -7.759 -0.06 +0.11    +0.473 P 
DOCKED: ATOM      9  O   UNL d   1       5.854  51.095  -8.815 -0.02 -0.02    -0.228 OA
DOCKED: BRANCH   8  10
DOCKED: ATOM     10  O   UNL d   1       4.091  49.520  -7.796 -0.03 -0.10    -0.303 OA
DOCKED: ATOM     11  H   UNL d   1       3.778  49.484  -8.719 +0.02 +0.05    +0.222 HD
DOCKED: ENDBRANCH   8  10
DOCKED: BRANCH   8  12
DOCKED: ATOM     12  O   UNL d   1       5.710  50.591  -6.259 -0.12 -0.11    -0.303 OA
DOCKED: ATOM     13  H   UNL d   1       6.421  51.260  -6.138 +0.05 +0.05    +0.222 HD
DOCKED: ENDBRANCH   8  12
DOCKED: ENDBRANCH   7   8
DOCKED: ENDBRANCH   1   7
DOCKED: BRANCH   2  14
DOCKED: ATOM     14  O   UNL d   1       8.133  50.925  -7.548 -0.10 -0.01    -0.278 OA
DOCKED: BRANCH  14  15
DOCKED: ATOM     15  P   UNL d   1       8.804  51.727  -6.335 -0.11 +0.01    +0.473 P 
DOCKED: ATOM     16  O   UNL d   1       9.311  53.102  -6.639 -0.05 -0.00    -0.228 OA
DOCKED: BRANCH  15  17
DOCKED: ATOM     17  O   UNL d   1       7.687  51.718  -5.199 -0.15 -0.05    -0.303 OA
DOCKED: ATOM     18  H   UNL d   1       7.427  50.805  -4.970 -0.01 +0.04    +0.222 HD
DOCKED: ENDBRANCH  15  17
DOCKED: BRANCH  15  19
DOCKED: ATOM     19  O   UNL d   1       9.877  50.717  -5.737 -0.24 +0.05    -0.303 OA
DOCKED: ATOM     20  H   UNL d   1      10.168  50.065  -6.401 -0.41 -0.09    +0.222 HD
DOCKED: ENDBRANCH  15  19
DOCKED: ENDBRANCH  14  15
DOCKED: ENDBRANCH   2  14
DOCKED: BRANCH   6  21
DOCKED: ATOM     21  O   UNL d   1       6.538  48.442 -10.671 -0.02 -0.01    -0.278 OA
DOCKED: BRANCH  21  22
DOCKED: ATOM     22  P   UNL d   1       4.954  48.610 -10.768 +0.01 +0.03    +0.473 P 
DOCKED: ATOM     23  O   UNL d   1       4.391  49.991 -10.773 -0.00 -0.02    -0.228 OA
DOCKED: BRANCH  22  24
DOCKED: ATOM     24  O   UNL d   1       4.614  47.746 -12.061 -0.00 -0.01    -0.303 OA
DOCKED: ATOM     25  H   UNL d   1       3.952  48.248 -12.601 +0.00 +0.01    +0.222 HD
DOCKED: ENDBRANCH  22  24
DOCKED: BRANCH  22  26
DOCKED: ATOM     26  O   UNL d   1       4.452  47.650  -9.587 -0.02 -0.05    -0.303 OA
DOCKED: ATOM     27  H   UNL d   1       4.951  47.856  -8.771 +0.03 +0.05    +0.222 HD
DOCKED: ENDBRANCH  22  26
DOCKED: ENDBRANCH  21  22
DOCKED: ENDBRANCH   6  21
DOCKED: BRANCH   3  28
DOCKED: ATOM     28  O   UNL d   1      10.731  50.917  -8.091 -0.08 +0.03    -0.278 OA
DOCKED: BRANCH  28  29
DOCKED: ATOM     29  P   UNL d   1      12.301  50.732  -7.898 -0.06 -0.05    +0.473 P 
DOCKED: ATOM     30  O   UNL d   1      13.085  51.989  -7.790 -0.02 +0.02    -0.228 OA
DOCKED: BRANCH  29  31
DOCKED: ATOM     31  O   UNL d   1      12.313  49.757  -6.629 -0.10 +0.07    -0.303 OA
DOCKED: ATOM     32  H   UNL d   1      11.392  49.453  -6.458 -0.45 -0.12    +0.222 HD
DOCKED: ENDBRANCH  29  31
DOCKED: BRANCH  29  33
DOCKED: ATOM     33  O   UNL d   1      12.672  49.752  -9.097 -0.07 +0.03    -0.303 OA
DOCKED: ATOM     34  H   UNL d   1      12.200  50.051  -9.913 +0.03 -0.02    +0.222 HD
DOCKED: ENDBRANCH  29  33
DOCKED: ENDBRANCH  28  29
DOCKED: ENDBRANCH   3  28
DOCKED: BRANCH   5  35
DOCKED: ATOM     35  O   UNL d   1       8.095  50.592 -11.889 -0.00 +0.00    -0.278 OA
DOCKED: BRANCH  35  36
DOCKED: ATOM     36  P   UNL d   1       7.743  52.114 -11.569 +0.00 +0.00    +0.473 P 
DOCKED: ATOM     37  O   UNL d   1       8.034  52.564 -10.173 -0.00 -0.00    -0.228 OA
DOCKED: BRANCH  36  38
DOCKED: ATOM     38  O   UNL d   1       8.572  52.883 -12.691 -0.00 +0.00    -0.303 OA
DOCKED: ATOM     39  H   UNL d   1       9.522  52.883 -12.444 +0.00 -0.00    +0.222 HD
DOCKED: ENDBRANCH  36  38
DOCKED: BRANCH  36  40
DOCKED: ATOM     40  O   UNL d   1       6.236  52.226 -12.064 +0.00 -0.01    -0.303 OA
DOCKED: ATOM     41  H   UNL d   1       5.647  51.604 -11.581 +0.00 +0.01    +0.222 HD
DOCKED: ENDBRANCH  36  40
DOCKED: ENDBRANCH  35  36
DOCKED: ENDBRANCH   5  35
DOCKED: BRANCH   4  42
DOCKED: ATOM     42  O   UNL d   1      10.827  50.334 -10.908 -0.01 +0.02    -0.278 OA
DOCKED: BRANCH  42  43
DOCKED: ATOM     43  P   UNL d   1      11.490  51.643 -11.534 +0.00 -0.02    +0.473 P 
DOCKED: ATOM     44  O   UNL d   1      11.379  51.832 -13.007 -0.00 +0.01    -0.228 OA
DOCKED: BRANCH  43  45
DOCKED: ATOM     45  O   UNL d   1      10.831  52.811 -10.676 -0.00 +0.01    -0.303 OA
DOCKED: ATOM     46  H   UNL d   1       9.953  53.061 -11.028 +0.00 -0.00    +0.222 HD
DOCKED: ENDBRANCH  43  45
DOCKED: BRANCH  43  47
DOCKED: ATOM     47  O   UNL d   1      12.982  51.612 -10.950 -0.00 +0.01    -0.303 OA
DOCKED: ATOM     48  H   UNL d   1      12.950  51.715  -9.976 +0.01 -0.01    +0.222 HD
DOCKED: ENDBRANCH  43  47
DOCKED: ENDBRANCH  42  43
DOCKED: ENDBRANCH   4  42
DOCKED: TORSDOF 24
DOCKED: TER
DOCKED: ENDMDL
________________________________________________________________________________


	BEGINNING GENETIC ALGORITHM DOCKING 62 of 100
Run: 62 Seed: 728417346 175568825 [ Run 62 of 100 GA/GALS ]
Beginning LAMARCKIAN GENETIC ALGORITHM (LGA), with a maximum of 25000000 energy evaluations.

Final-Value: -16.831


	FINAL GENETIC ALGORITHM DOCKED STATE
	_______________________________________________


Detailed state:  trans 28.989 10.965 14.689 quatxyzw -0.830344 0.022150 0.555851 0.032664 center 0.035 0.082 -0.065 ntor 24 179.9008 13.0439 105.7274 -9.7928 121.5056 101.3736 -110.0613 1.6855 23.1420 55.1539 170.2843 117.8617 44.6903 81.8059 79.5398 52.6786 157.3906 170.7450 3.2361 -41.2084 -32.5364 -46.9894 -10.6595 28.2500
State:	 28.989  10.965  14.689  -0.831  0.022  0.556 176.256    179.90   13.04  105.73   -9.79  121.51  101.37 -110.06    1.69   23.14   55.15  170.28  117.86   44.69   81.81   79.54   52.68  157.39  170.74    3.24  -41.21  -32.54  -46.99  -10.66   28.25

DOCKED: MODEL       62
DOCKED: USER    Run = 62
DOCKED: USER    DPF = D:/Protein_go_brrr/autodock/final/6BB5/IHP/dock.dpf
DOCKED: USER  
DOCKED: USER    Estimated Free Energy of Binding    =   +5.19 kcal/mol  [=(1)+(2)+(3)-(4)]
DOCKED: USER    
DOCKED: USER    (1) Final Intermolecular Energy     =   -1.97 kcal/mol
DOCKED: USER        vdW + Hbond + desolv Energy     =   -1.74 kcal/mol
DOCKED: USER        Electrostatic Energy            =   -0.22 kcal/mol
DOCKED: USER    (2) Final Total Internal Energy     =  -14.86 kcal/mol
DOCKED: USER    (3) Torsional Free Energy           =   +7.16 kcal/mol
DOCKED: USER    (4) Unbound System's Energy  [=(2)] =  -14.86 kcal/mol
DOCKED: USER    
DOCKED: USER    
DOCKED: USER    NEWDPF move IHP_ideal_opt.pdbqt
DOCKED: USER    NEWDPF about 0.035000 0.082000 -0.065000
DOCKED: USER    NEWDPF tran0 28.988916 10.965001 14.688805
DOCKED: USER    NEWDPF quaternion0 -0.830344 0.022150 0.555851 0.032664
DOCKED: USER    NEWDPF axisangle0 -0.830788 0.022161 0.556148 176.256328
DOCKED: USER    NEWDPF quat0 -0.830788 0.022161 0.556148 176.256328
DOCKED: USER    NEWDPF dihe0 179.90 13.04 105.73 -9.79 121.51 101.37 -110.06 1.69 23.14 55.15 170.28 117.86 44.69 81.81 79.54 52.68 157.39 170.74 3.24 -41.21 -32.54 -46.99 -10.66 28.25 
DOCKED: USER  keepresnum = 1 
DOCKED: USER  
DOCKED: REMARK  24 active torsions:
DOCKED: REMARK  status: ('A' for Active; 'I' for Inactive)
DOCKED: REMARK    1  A    between atoms: C_1  and  O_7 
DOCKED: REMARK    2  A    between atoms: C_2  and  O_12 
DOCKED: REMARK    3  A    between atoms: C_3  and  O_17 
DOCKED: REMARK    4  A    between atoms: C_4  and  O_22 
DOCKED: REMARK    5  A    between atoms: C_5  and  O_27 
DOCKED: REMARK    6  A    between atoms: C_6  and  O_32 
DOCKED: REMARK    7  A    between atoms: O_7  and  P_8 
DOCKED: REMARK    8  A    between atoms: P_8  and  O_10 
DOCKED: REMARK    9  A    between atoms: P_8  and  O_11 
DOCKED: REMARK   10  A    between atoms: O_12  and  P_13 
DOCKED: REMARK   11  A    between atoms: P_13  and  O_15 
DOCKED: REMARK   12  A    between atoms: P_13  and  O_16 
DOCKED: REMARK   13  A    between atoms: O_17  and  P_18 
DOCKED: REMARK   14  A    between atoms: P_18  and  O_20 
DOCKED: REMARK   15  A    between atoms: P_18  and  O_21 
DOCKED: REMARK   16  A    between atoms: O_22  and  P_23 
DOCKED: REMARK   17  A    between atoms: P_23  and  O_25 
DOCKED: REMARK   18  A    between atoms: P_23  and  O_26 
DOCKED: REMARK   19  A    between atoms: O_27  and  P_28 
DOCKED: REMARK   20  A    between atoms: P_28  and  O_30 
DOCKED: REMARK   21  A    between atoms: P_28  and  O_31 
DOCKED: REMARK   22  A    between atoms: O_32  and  P_33 
DOCKED: REMARK   23  A    between atoms: P_33  and  O_35 
DOCKED: REMARK   24  A    between atoms: P_33  and  O_36 
DOCKED: USER                              x       y       z     vdW  Elec       q    Type
DOCKED: USER                           _______ _______ _______ _____ _____    ______ ____
DOCKED: ROOT
DOCKED: ATOM      1  C   UNL d   1      28.736  11.735  13.163 -0.01 +0.03    +0.194 C 
DOCKED: ATOM      2  C   UNL d   1      28.601  12.639  14.390 -0.04 +0.05    +0.194 C 
DOCKED: ATOM      3  C   UNL d   1      27.820  11.956  15.514 -0.01 +0.05    +0.194 C 
DOCKED: ATOM      4  C   UNL d   1      28.363  10.574  15.871 +0.00 +0.04    +0.194 C 
DOCKED: ATOM      5  C   UNL d   1      28.621   9.678  14.667 +0.00 +0.03    +0.194 C 
DOCKED: ATOM      6  C   UNL d   1      29.348  10.380  13.518 -0.00 +0.03    +0.194 C 
DOCKED: ENDROOT
DOCKED: BRANCH   1   7
DOCKED: ATOM      7  O   UNL d   1      29.617  12.372  12.235 -0.02 -0.04    -0.278 OA
DOCKED: BRANCH   7   8
DOCKED: ATOM      8  P   UNL d   1      29.054  12.746  10.788 -0.01 +0.06    +0.473 P 
DOCKED: ATOM      9  O   UNL d   1      28.581  14.149  10.638 -0.07 -0.04    -0.228 OA
DOCKED: BRANCH   8  10
DOCKED: ATOM     10  O   UNL d   1      30.251  12.377   9.800 -0.01 -0.03    -0.303 OA
DOCKED: ATOM     11  H   UNL d   1      30.839  11.728  10.227 +0.01 +0.02    +0.222 HD
DOCKED: ENDBRANCH   8  10
DOCKED: BRANCH   8  12
DOCKED: ATOM     12  O   UNL d   1      27.988  11.615  10.455 -0.00 -0.03    -0.303 OA
DOCKED: ATOM     13  H   UNL d   1      28.217  10.742  10.846 +0.00 +0.02    +0.222 HD
DOCKED: ENDBRANCH   8  12
DOCKED: ENDBRANCH   7   8
DOCKED: ENDBRANCH   1   7
DOCKED: BRANCH   2  14
DOCKED: ATOM     14  O   UNL d   1      29.910  12.964  14.876 -0.04 -0.08    -0.278 OA
DOCKED: BRANCH  14  15
DOCKED: ATOM     15  P   UNL d   1      30.588  14.285  14.279 -0.14 +0.14    +0.473 P 
DOCKED: ATOM     16  O   UNL d   1      31.298  15.175  15.250 -0.31 -0.09    -0.228 OA
DOCKED: BRANCH  15  17
DOCKED: ATOM     17  O   UNL d   1      31.544  13.743  13.125 -0.08 -0.06    -0.303 OA
DOCKED: ATOM     18  H   UNL d   1      31.381  12.797  12.950 +0.05 +0.04    +0.222 HD
DOCKED: ENDBRANCH  15  17
DOCKED: BRANCH  15  19
DOCKED: ATOM     19  O   UNL d   1      29.431  14.978  13.435 -0.22 -0.09    -0.303 OA
DOCKED: ATOM     20  H   UNL d   1      29.212  14.465  12.635 +0.07 +0.05    +0.222 HD
DOCKED: ENDBRANCH  15  19
DOCKED: ENDBRANCH  14  15
DOCKED: ENDBRANCH   2  14
DOCKED: BRANCH   6  21
DOCKED: ATOM     21  O   UNL d   1      29.208   9.545  12.371 -0.00 -0.03    -0.278 OA
DOCKED: BRANCH  21  22
DOCKED: ATOM     22  P   UNL d   1      30.474   9.254  11.444 -0.00 +0.04    +0.473 P 
DOCKED: ATOM     23  O   UNL d   1      31.058   7.882  11.458 +0.00 -0.02    -0.228 OA
DOCKED: BRANCH  22  24
DOCKED: ATOM     24  O   UNL d   1      29.954   9.743  10.021 -0.00 -0.02    -0.303 OA
DOCKED: ATOM     25  H   UNL d   1      29.654  10.683  10.109 +0.00 +0.02    +0.222 HD
DOCKED: ENDBRANCH  22  24
DOCKED: BRANCH  22  26
DOCKED: ATOM     26  O   UNL d   1      31.464  10.444  11.862 -0.00 -0.03    -0.303 OA
DOCKED: ATOM     27  H   UNL d   1      31.129  11.286  11.491 +0.01 +0.02    +0.222 HD
DOCKED: ENDBRANCH  22  26
DOCKED: ENDBRANCH  21  22
DOCKED: ENDBRANCH   6  21
DOCKED: BRANCH   3  28
DOCKED: ATOM     28  O   UNL d   1      27.984  12.741  16.689 -0.04 -0.13    -0.278 OA
DOCKED: BRANCH  28  29
DOCKED: ATOM     29  P   UNL d   1      27.426  14.231  16.744 -0.08 +0.39    +0.473 P 
DOCKED: ATOM     30  O   UNL d   1      26.270  14.516  15.856 -0.11 -0.12    -0.228 OA
DOCKED: BRANCH  29  31
DOCKED: ATOM     31  O   UNL d   1      27.186  14.381  18.319 -0.57 -0.42    -0.303 OA
DOCKED: ATOM     32  H   UNL d   1      26.558  13.680  18.609 +0.02 +0.16    +0.222 HD
DOCKED: ENDBRANCH  29  31
DOCKED: BRANCH  29  33
DOCKED: ATOM     33  O   UNL d   1      28.745  15.091  16.506 -0.29 -0.36    -0.303 OA
DOCKED: ATOM     34  H   UNL d   1      29.123  14.861  15.622 +0.07 +0.15    +0.222 HD
DOCKED: ENDBRANCH  29  33
DOCKED: ENDBRANCH  28  29
DOCKED: ENDBRANCH   3  28
DOCKED: BRANCH   5  35
DOCKED: ATOM     35  O   UNL d   1      29.478   8.639  15.134 +0.00 -0.03    -0.278 OA
DOCKED: BRANCH  35  36
DOCKED: ATOM     36  P   UNL d   1      29.011   7.115  15.055 +0.00 +0.04    +0.473 P 
DOCKED: ATOM     37  O   UNL d   1      29.707   6.178  15.991 +0.00 -0.02    -0.228 OA
DOCKED: BRANCH  36  38
DOCKED: ATOM     38  O   UNL d   1      27.443   7.241  15.300 +0.00 -0.03    -0.303 OA
DOCKED: ATOM     39  H   UNL d   1      27.284   7.830  16.069 +0.00 +0.02    +0.222 HD
DOCKED: ENDBRANCH  36  38
DOCKED: BRANCH  36  40
DOCKED: ATOM     40  O   UNL d   1      29.132   6.803  13.500 +0.00 -0.02    -0.303 OA
DOCKED: ATOM     41  H   UNL d   1      29.641   7.499  13.027 +0.00 +0.02    +0.222 HD
DOCKED: ENDBRANCH  36  40
DOCKED: ENDBRANCH  35  36
DOCKED: ENDBRANCH   5  35
DOCKED: BRANCH   4  42
DOCKED: ATOM     42  O   UNL d   1      27.364   9.930  16.670 +0.00 -0.05    -0.278 OA
DOCKED: BRANCH  42  43
DOCKED: ATOM     43  P   UNL d   1      27.303  10.246  18.232 +0.01 +0.09    +0.473 P 
DOCKED: ATOM     44  O   UNL d   1      26.948   9.125  19.146 +0.00 -0.03    -0.228 OA
DOCKED: BRANCH  43  45
DOCKED: ATOM     45  O   UNL d   1      28.731  10.889  18.514 +0.00 -0.08    -0.303 OA
DOCKED: ATOM     46  H   UNL d   1      28.692  11.866  18.509 +0.02 +0.09    +0.222 HD
DOCKED: ENDBRANCH  43  45
DOCKED: BRANCH  43  47
DOCKED: ATOM     47  O   UNL d   1      26.347  11.531  18.308 +0.00 -0.09    -0.303 OA
DOCKED: ATOM     48  H   UNL d   1      26.771  12.276  17.834 +0.02 +0.09    +0.222 HD
DOCKED: ENDBRANCH  43  47
DOCKED: ENDBRANCH  42  43
DOCKED: ENDBRANCH   4  42
DOCKED: TORSDOF 24
DOCKED: TER
DOCKED: ENDMDL
________________________________________________________________________________


	BEGINNING GENETIC ALGORITHM DOCKING 63 of 100
Run: 63 Seed: 1075722869 337828814 [ Run 63 of 100 GA/GALS ]
Beginning LAMARCKIAN GENETIC ALGORITHM (LGA), with a maximum of 25000000 energy evaluations.

Final-Value: -17.564


	FINAL GENETIC ALGORITHM DOCKED STATE
	_______________________________________________


Detailed state:  trans 40.899 27.785 -3.000 quatxyzw -0.309066 0.422580 -0.776617 -0.350386 center 0.035 0.082 -0.065 ntor 24 -94.3043 -2.7620 105.0825 136.2267 69.5449 83.5658 20.0875 -81.4490 75.4251 -28.6748 -130.5746 -79.3086 30.2662 85.1040 175.4183 -120.8282 52.5051 -48.9398 -136.9050 -12.8307 18.6862 16.4045 -177.8681 164.4223
State:	 40.899  27.785  -3.000  -0.330  0.451 -0.829 -138.978    -94.30   -2.76  105.08  136.23   69.54   83.57   20.09  -81.45   75.43  -28.67 -130.57  -79.31   30.27   85.10  175.42 -120.83   52.51  -48.94 -136.91  -12.83   18.69   16.40 -177.87  164.42

DOCKED: MODEL       63
DOCKED: USER    Run = 63
DOCKED: USER    DPF = D:/Protein_go_brrr/autodock/final/6BB5/IHP/dock.dpf
DOCKED: USER  
DOCKED: USER    Estimated Free Energy of Binding    =   +3.44 kcal/mol  [=(1)+(2)+(3)-(4)]
DOCKED: USER    
DOCKED: USER    (1) Final Intermolecular Energy     =   -3.72 kcal/mol
DOCKED: USER        vdW + Hbond + desolv Energy     =   -3.59 kcal/mol
DOCKED: USER        Electrostatic Energy            =   -0.13 kcal/mol
DOCKED: USER    (2) Final Total Internal Energy     =  -13.85 kcal/mol
DOCKED: USER    (3) Torsional Free Energy           =   +7.16 kcal/mol
DOCKED: USER    (4) Unbound System's Energy  [=(2)] =  -13.85 kcal/mol
DOCKED: USER    
DOCKED: USER    
DOCKED: USER    NEWDPF move IHP_ideal_opt.pdbqt
DOCKED: USER    NEWDPF about 0.035000 0.082000 -0.065000
DOCKED: USER    NEWDPF tran0 40.899014 27.784636 -3.000190
DOCKED: USER    NEWDPF quaternion0 -0.309066 0.422580 -0.776617 -0.350386
DOCKED: USER    NEWDPF axisangle0 -0.329985 0.451183 -0.829183 -138.978107
DOCKED: USER    NEWDPF quat0 -0.329985 0.451183 -0.829183 -138.978107
DOCKED: USER    NEWDPF dihe0 -94.30 -2.76 105.08 136.23 69.54 83.57 20.09 -81.45 75.43 -28.67 -130.57 -79.31 30.27 85.10 175.42 -120.83 52.51 -48.94 -136.91 -12.83 18.69 16.40 -177.87 164.42 
DOCKED: USER  keepresnum = 1 
DOCKED: USER  
DOCKED: REMARK  24 active torsions:
DOCKED: REMARK  status: ('A' for Active; 'I' for Inactive)
DOCKED: REMARK    1  A    between atoms: C_1  and  O_7 
DOCKED: REMARK    2  A    between atoms: C_2  and  O_12 
DOCKED: REMARK    3  A    between atoms: C_3  and  O_17 
DOCKED: REMARK    4  A    between atoms: C_4  and  O_22 
DOCKED: REMARK    5  A    between atoms: C_5  and  O_27 
DOCKED: REMARK    6  A    between atoms: C_6  and  O_32 
DOCKED: REMARK    7  A    between atoms: O_7  and  P_8 
DOCKED: REMARK    8  A    between atoms: P_8  and  O_10 
DOCKED: REMARK    9  A    between atoms: P_8  and  O_11 
DOCKED: REMARK   10  A    between atoms: O_12  and  P_13 
DOCKED: REMARK   11  A    between atoms: P_13  and  O_15 
DOCKED: REMARK   12  A    between atoms: P_13  and  O_16 
DOCKED: REMARK   13  A    between atoms: O_17  and  P_18 
DOCKED: REMARK   14  A    between atoms: P_18  and  O_20 
DOCKED: REMARK   15  A    between atoms: P_18  and  O_21 
DOCKED: REMARK   16  A    between atoms: O_22  and  P_23 
DOCKED: REMARK   17  A    between atoms: P_23  and  O_25 
DOCKED: REMARK   18  A    between atoms: P_23  and  O_26 
DOCKED: REMARK   19  A    between atoms: O_27  and  P_28 
DOCKED: REMARK   20  A    between atoms: P_28  and  O_30 
DOCKED: REMARK   21  A    between atoms: P_28  and  O_31 
DOCKED: REMARK   22  A    between atoms: O_32  and  P_33 
DOCKED: REMARK   23  A    between atoms: P_33  and  O_35 
DOCKED: REMARK   24  A    between atoms: P_33  and  O_36 
DOCKED: USER                              x       y       z     vdW  Elec       q    Type
DOCKED: USER                           _______ _______ _______ _____ _____    ______ ____
DOCKED: ROOT
DOCKED: ATOM      1  C   UNL d   1      40.556  26.780  -1.637 -0.15 +0.00    +0.194 C 
DOCKED: ATOM      2  C   UNL d   1      40.745  28.267  -1.332 -0.16 +0.00    +0.194 C 
DOCKED: ATOM      3  C   UNL d   1      41.931  28.857  -2.097 -0.18 -0.00    +0.194 C 
DOCKED: ATOM      4  C   UNL d   1      41.878  28.578  -3.597 -0.06 -0.00    +0.194 C 
DOCKED: ATOM      5  C   UNL d   1      41.577  27.126  -3.948 -0.04 +0.00    +0.194 C 
DOCKED: ATOM      6  C   UNL d   1      40.430  26.518  -3.139 -0.05 +0.00    +0.194 C 
DOCKED: ENDROOT
DOCKED: BRANCH   1   7
DOCKED: ATOM      7  O   UNL d   1      39.337  26.351  -1.026 -0.13 +0.00    -0.278 OA
DOCKED: BRANCH   7   8
DOCKED: ATOM      8  P   UNL d   1      38.036  26.210  -1.943 -0.04 -0.01    +0.473 P 
DOCKED: ATOM      9  O   UNL d   1      37.942  24.939  -2.713 -0.02 +0.01    -0.228 OA
DOCKED: BRANCH   8  10
DOCKED: ATOM     10  O   UNL d   1      36.823  26.421  -0.928 -0.09 +0.01    -0.303 OA
DOCKED: ATOM     11  H   UNL d   1      36.410  27.289  -1.090 +0.05 -0.00    +0.222 HD
DOCKED: ENDBRANCH   8  10
DOCKED: BRANCH   8  12
DOCKED: ATOM     12  O   UNL d   1      37.989  27.546  -2.801 -0.02 +0.00    -0.303 OA
DOCKED: ATOM     13  H   UNL d   1      38.114  28.357  -2.258 +0.04 +0.00    +0.222 HD
DOCKED: ENDBRANCH   8  12
DOCKED: ENDBRANCH   7   8
DOCKED: ENDBRANCH   1   7
DOCKED: BRANCH   2  14
DOCKED: ATOM     14  O   UNL d   1      39.559  28.977  -1.711 -0.08 +0.00    -0.278 OA
DOCKED: BRANCH  14  15
DOCKED: ATOM     15  P   UNL d   1      38.780  29.746  -0.543 -0.14 -0.02    +0.473 P 
DOCKED: ATOM     16  O   UNL d   1      38.212  31.088  -0.884 -0.08 +0.01    -0.228 OA
DOCKED: BRANCH  15  17
DOCKED: ATOM     17  O   UNL d   1      37.669  28.707  -0.069 -0.14 -0.00    -0.303 OA
DOCKED: ATOM     18  H   UNL d   1      37.811  27.830  -0.475 +0.07 +0.00    +0.222 HD
DOCKED: ENDBRANCH  15  17
DOCKED: BRANCH  15  19
DOCKED: ATOM     19  O   UNL d   1      39.786  29.720   0.689 -0.15 +0.05    -0.303 OA
DOCKED: ATOM     20  H   UNL d   1      40.504  30.371   0.581 -0.35 -0.08    +0.222 HD
DOCKED: ENDBRANCH  15  19
DOCKED: ENDBRANCH  14  15
DOCKED: ENDBRANCH   2  14
DOCKED: BRANCH   6  21
DOCKED: ATOM     21  O   UNL d   1      40.497  25.106  -3.324 -0.02 -0.00    -0.278 OA
DOCKED: BRANCH  21  22
DOCKED: ATOM     22  P   UNL d   1      39.829  24.444  -4.612 -0.00 +0.00    +0.473 P 
DOCKED: ATOM     23  O   UNL d   1      39.395  23.019  -4.527 -0.00 +0.00    -0.228 OA
DOCKED: BRANCH  22  24
DOCKED: ATOM     24  O   UNL d   1      38.665  25.477  -4.942 -0.00 +0.00    -0.303 OA
DOCKED: ATOM     25  H   UNL d   1      38.733  26.233  -4.305 +0.01 +0.00    +0.222 HD
DOCKED: ENDBRANCH  22  24
DOCKED: BRANCH  22  26
DOCKED: ATOM     26  O   UNL d   1      40.906  24.784  -5.749 -0.00 -0.00    -0.303 OA
DOCKED: ATOM     27  H   UNL d   1      40.678  25.641  -6.163 +0.00 +0.00    +0.222 HD
DOCKED: ENDBRANCH  22  26
DOCKED: ENDBRANCH  21  22
DOCKED: ENDBRANCH   6  21
DOCKED: BRANCH   3  28
DOCKED: ATOM     28  O   UNL d   1      41.861  30.271  -1.973 -0.11 +0.01    -0.278 OA
DOCKED: BRANCH  28  29
DOCKED: ATOM     29  P   UNL d   1      43.119  31.097  -1.451 -0.25 -0.04    +0.473 P 
DOCKED: ATOM     30  O   UNL d   1      42.803  32.309  -0.653 -0.26 +0.01    -0.228 OA
DOCKED: BRANCH  29  31
DOCKED: ATOM     31  O   UNL d   1      43.930  29.932  -0.712 -0.32 +0.04    -0.303 OA
DOCKED: ATOM     32  H   UNL d   1      44.311  29.333  -1.394 -0.32 -0.06    +0.222 HD
DOCKED: ENDBRANCH  29  31
DOCKED: BRANCH  29  33
DOCKED: ATOM     33  O   UNL d   1      43.955  31.313  -2.788 -0.08 +0.02    -0.303 OA
DOCKED: ATOM     34  H   UNL d   1      43.698  30.620  -3.444 +0.04 -0.01    +0.222 HD
DOCKED: ENDBRANCH  29  33
DOCKED: ENDBRANCH  28  29
DOCKED: ENDBRANCH   3  28
DOCKED: BRANCH   5  35
DOCKED: ATOM     35  O   UNL d   1      41.167  27.136  -5.314 -0.00 -0.00    -0.278 OA
DOCKED: BRANCH  35  36
DOCKED: ATOM     36  P   UNL d   1      40.091  28.197  -5.825 -0.00 +0.00    +0.473 P 
DOCKED: ATOM     37  O   UNL d   1      40.652  29.424  -6.470 -0.00 -0.00    -0.228 OA
DOCKED: BRANCH  36  38
DOCKED: ATOM     38  O   UNL d   1      39.187  27.307  -6.787 +0.00 -0.00    -0.303 OA
DOCKED: ATOM     39  H   UNL d   1      39.479  26.372  -6.729 +0.00 +0.00    +0.222 HD
DOCKED: ENDBRANCH  36  38
DOCKED: BRANCH  36  40
DOCKED: ATOM     40  O   UNL d   1      39.185  28.409  -4.535 -0.00 -0.00    -0.303 OA
DOCKED: ATOM     41  H   UNL d   1      38.639  27.616  -4.339 +0.01 +0.00    +0.222 HD
DOCKED: ENDBRANCH  36  40
DOCKED: ENDBRANCH  35  36
DOCKED: ENDBRANCH   5  35
DOCKED: BRANCH   4  42
DOCKED: ATOM     42  O   UNL d   1      43.176  28.877  -4.121 -0.04 +0.01    -0.278 OA
DOCKED: BRANCH  42  43
DOCKED: ATOM     43  P   UNL d   1      44.453  28.193  -3.455 -0.03 -0.05    +0.473 P 
DOCKED: ATOM     44  O   UNL d   1      44.226  27.327  -2.264 +0.01 +0.01    -0.228 OA
DOCKED: BRANCH  43  45
DOCKED: ATOM     45  O   UNL d   1      45.129  27.444  -4.685 -0.04 +0.01    -0.303 OA
DOCKED: ATOM     46  H   UNL d   1      46.084  27.295  -4.533 +0.02 -0.01    +0.222 HD
DOCKED: ENDBRANCH  43  45
DOCKED: BRANCH  43  47
DOCKED: ATOM     47  O   UNL d   1      45.455  29.425  -3.233 -0.07 +0.07    -0.303 OA
DOCKED: ATOM     48  H   UNL d   1      45.405  29.717  -2.300 -0.41 -0.10    +0.222 HD
DOCKED: ENDBRANCH  43  47
DOCKED: ENDBRANCH  42  43
DOCKED: ENDBRANCH   4  42
DOCKED: TORSDOF 24
DOCKED: TER
DOCKED: ENDMDL
________________________________________________________________________________


	BEGINNING GENETIC ALGORITHM DOCKING 64 of 100
Run: 64 Seed: 1111496980 1293291985 [ Run 64 of 100 GA/GALS ]
Beginning LAMARCKIAN GENETIC ALGORITHM (LGA), with a maximum of 25000000 energy evaluations.

Final-Value: -15.702


	FINAL GENETIC ALGORITHM DOCKED STATE
	_______________________________________________


Detailed state:  trans 12.302 12.190 -9.673 quatxyzw 0.265755 0.657695 0.475720 -0.520099 center 0.035 0.082 -0.065 ntor 24 -180.0000 -18.6304 50.9355 83.1612 -80.6784 76.2567 -125.2685 -33.9720 22.5412 30.9931 90.3482 125.7818 18.4152 113.8278 45.6405 -156.1250 144.2111 36.9309 -137.7675 -17.9052 168.9124 0.6318 -12.9731 -13.3043
State:	 12.302  12.190  -9.673   0.311  0.770  0.557 -117.322   -180.00  -18.63   50.94   83.16  -80.68   76.26 -125.27  -33.97   22.54   30.99   90.35  125.78   18.42  113.83   45.64 -156.12  144.21   36.93 -137.77  -17.91  168.91    0.63  -12.97  -13.30

DOCKED: MODEL       64
DOCKED: USER    Run = 64
DOCKED: USER    DPF = D:/Protein_go_brrr/autodock/final/6BB5/IHP/dock.dpf
DOCKED: USER  
DOCKED: USER    Estimated Free Energy of Binding    =   +5.22 kcal/mol  [=(1)+(2)+(3)-(4)]
DOCKED: USER    
DOCKED: USER    (1) Final Intermolecular Energy     =   -1.94 kcal/mol
DOCKED: USER        vdW + Hbond + desolv Energy     =   -1.34 kcal/mol
DOCKED: USER        Electrostatic Energy            =   -0.60 kcal/mol
DOCKED: USER    (2) Final Total Internal Energy     =  -13.76 kcal/mol
DOCKED: USER    (3) Torsional Free Energy           =   +7.16 kcal/mol
DOCKED: USER    (4) Unbound System's Energy  [=(2)] =  -13.76 kcal/mol
DOCKED: USER    
DOCKED: USER    
DOCKED: USER    NEWDPF move IHP_ideal_opt.pdbqt
DOCKED: USER    NEWDPF about 0.035000 0.082000 -0.065000
DOCKED: USER    NEWDPF tran0 12.302403 12.189968 -9.672602
DOCKED: USER    NEWDPF quaternion0 0.265755 0.657695 0.475720 -0.520099
DOCKED: USER    NEWDPF axisangle0 0.311149 0.770038 0.556980 -117.322265
DOCKED: USER    NEWDPF quat0 0.311149 0.770038 0.556980 -117.322265
DOCKED: USER    NEWDPF dihe0 -180.00 -18.63 50.94 83.16 -80.68 76.26 -125.27 -33.97 22.54 30.99 90.35 125.78 18.42 113.83 45.64 -156.12 144.21 36.93 -137.77 -17.91 168.91 0.63 -12.97 -13.30 
DOCKED: USER  keepresnum = 1 
DOCKED: USER  
DOCKED: REMARK  24 active torsions:
DOCKED: REMARK  status: ('A' for Active; 'I' for Inactive)
DOCKED: REMARK    1  A    between atoms: C_1  and  O_7 
DOCKED: REMARK    2  A    between atoms: C_2  and  O_12 
DOCKED: REMARK    3  A    between atoms: C_3  and  O_17 
DOCKED: REMARK    4  A    between atoms: C_4  and  O_22 
DOCKED: REMARK    5  A    between atoms: C_5  and  O_27 
DOCKED: REMARK    6  A    between atoms: C_6  and  O_32 
DOCKED: REMARK    7  A    between atoms: O_7  and  P_8 
DOCKED: REMARK    8  A    between atoms: P_8  and  O_10 
DOCKED: REMARK    9  A    between atoms: P_8  and  O_11 
DOCKED: REMARK   10  A    between atoms: O_12  and  P_13 
DOCKED: REMARK   11  A    between atoms: P_13  and  O_15 
DOCKED: REMARK   12  A    between atoms: P_13  and  O_16 
DOCKED: REMARK   13  A    between atoms: O_17  and  P_18 
DOCKED: REMARK   14  A    between atoms: P_18  and  O_20 
DOCKED: REMARK   15  A    between atoms: P_18  and  O_21 
DOCKED: REMARK   16  A    between atoms: O_22  and  P_23 
DOCKED: REMARK   17  A    between atoms: P_23  and  O_25 
DOCKED: REMARK   18  A    between atoms: P_23  and  O_26 
DOCKED: REMARK   19  A    between atoms: O_27  and  P_28 
DOCKED: REMARK   20  A    between atoms: P_28  and  O_30 
DOCKED: REMARK   21  A    between atoms: P_28  and  O_31 
DOCKED: REMARK   22  A    between atoms: O_32  and  P_33 
DOCKED: REMARK   23  A    between atoms: P_33  and  O_35 
DOCKED: REMARK   24  A    between atoms: P_33  and  O_36 
DOCKED: USER                              x       y       z     vdW  Elec       q    Type
DOCKED: USER                           _______ _______ _______ _____ _____    ______ ____
DOCKED: ROOT
DOCKED: ATOM      1  C   UNL d   1      12.774  13.164 -11.019 +0.00 -0.03    +0.194 C 
DOCKED: ATOM      2  C   UNL d   1      12.942  11.654 -11.204 +0.00 -0.02    +0.194 C 
DOCKED: ATOM      3  C   UNL d   1      13.534  10.993  -9.958 +0.00 -0.02    +0.194 C 
DOCKED: ATOM      4  C   UNL d   1      12.777  11.338  -8.677 +0.01 -0.01    +0.194 C 
DOCKED: ATOM      5  C   UNL d   1      12.487  12.823  -8.508 -0.00 -0.02    +0.194 C 
DOCKED: ATOM      6  C   UNL d   1      11.953  13.498  -9.773 +0.01 -0.02    +0.194 C 
DOCKED: ENDROOT
DOCKED: BRANCH   1   7
DOCKED: ATOM      7  O   UNL d   1      12.063  13.675 -12.149 +0.00 +0.03    -0.278 OA
DOCKED: BRANCH   7   8
DOCKED: ATOM      8  P   UNL d   1      10.496  13.950 -11.998 +0.01 -0.01    +0.473 P 
DOCKED: ATOM      9  O   UNL d   1      10.139  15.098 -11.121 +0.00 -0.00    -0.228 OA
DOCKED: BRANCH   8  10
DOCKED: ATOM     10  O   UNL d   1       9.988  14.126 -13.500 +0.00 +0.00    -0.303 OA
DOCKED: ATOM     11  H   UNL d   1      10.615  13.694 -14.110 +0.00 -0.01    +0.222 HD
DOCKED: ENDBRANCH   8  10
DOCKED: BRANCH   8  12
DOCKED: ATOM     12  O   UNL d   1       9.867  12.548 -11.596 +0.00 -0.00    -0.303 OA
DOCKED: ATOM     13  H   UNL d   1       9.971  11.864 -12.296 +0.00 -0.00    +0.222 HD
DOCKED: ENDBRANCH   8  12
DOCKED: ENDBRANCH   7   8
DOCKED: ENDBRANCH   1   7
DOCKED: BRANCH   2  14
DOCKED: ATOM     14  O   UNL d   1      11.659  11.071 -11.465 +0.00 +0.01    -0.278 OA
DOCKED: BRANCH  14  15
DOCKED: ATOM     15  P   UNL d   1      11.444  10.437 -12.920 +0.00 -0.01    +0.473 P 
DOCKED: ATOM     16  O   UNL d   1      10.210   9.614 -13.118 +0.00 +0.00    -0.228 OA
DOCKED: BRANCH  15  17
DOCKED: ATOM     17  O   UNL d   1      11.515  11.689 -13.902 +0.00 +0.01    -0.303 OA
DOCKED: ATOM     18  H   UNL d   1      10.994  12.439 -13.555 +0.00 -0.01    +0.222 HD
DOCKED: ENDBRANCH  15  17
DOCKED: BRANCH  15  19
DOCKED: ATOM     19  O   UNL d   1      12.817   9.701 -13.239 +0.00 +0.01    -0.303 OA
DOCKED: ATOM     20  H   UNL d   1      13.302   9.473 -12.425 +0.00 -0.01    +0.222 HD
DOCKED: ENDBRANCH  15  19
DOCKED: ENDBRANCH  14  15
DOCKED: ENDBRANCH   2  14
DOCKED: BRANCH   6  21
DOCKED: ATOM     21  O   UNL d   1      12.059  14.905  -9.567 -0.01 +0.07    -0.278 OA
DOCKED: BRANCH  21  22
DOCKED: ATOM     22  P   UNL d   1      13.500  15.581  -9.453 -0.01 -0.41    +0.473 P 
DOCKED: ATOM     23  O   UNL d   1      14.288  15.776 -10.705 -0.07 +0.17    -0.228 OA
DOCKED: BRANCH  22  24
DOCKED: ATOM     24  O   UNL d   1      13.169  16.920  -8.658 -0.09 +0.41    -0.303 OA
DOCKED: ATOM     25  H   UNL d   1      13.785  17.627  -8.976 -0.38 -0.57    +0.222 HD
DOCKED: ENDBRANCH  22  24
DOCKED: BRANCH  22  26
DOCKED: ATOM     26  O   UNL d   1      14.192  14.685  -8.319 -0.08 +0.32    -0.303 OA
DOCKED: ATOM     27  H   UNL d   1      14.118  15.143  -7.457 -0.17 -0.31    +0.222 HD
DOCKED: ENDBRANCH  22  26
DOCKED: ENDBRANCH  21  22
DOCKED: ENDBRANCH   6  21
DOCKED: BRANCH   3  28
DOCKED: ATOM     28  O   UNL d   1      13.395   9.587 -10.112 +0.00 +0.01    -0.278 OA
DOCKED: BRANCH  28  29
DOCKED: ATOM     29  P   UNL d   1      14.679   8.670 -10.327 +0.00 -0.02    +0.473 P 
DOCKED: ATOM     30  O   UNL d   1      14.416   7.211 -10.428 +0.00 +0.00    -0.228 OA
DOCKED: BRANCH  29  31
DOCKED: ATOM     31  O   UNL d   1      15.319   9.382 -11.609 +0.00 +0.02    -0.303 OA
DOCKED: ATOM     32  H   UNL d   1      14.773   9.158 -12.398 +0.00 -0.01    +0.222 HD
DOCKED: ENDBRANCH  29  31
DOCKED: BRANCH  29  33
DOCKED: ATOM     33  O   UNL d   1      15.634   9.149  -9.146 +0.00 +0.02    -0.303 OA
DOCKED: ATOM     34  H   UNL d   1      15.080   9.523  -8.417 +0.00 -0.01    +0.222 HD
DOCKED: ENDBRANCH  29  33
DOCKED: ENDBRANCH  28  29
DOCKED: ENDBRANCH   3  28
DOCKED: BRANCH   5  35
DOCKED: ATOM     35  O   UNL d   1      11.460  12.908  -7.522 -0.01 -0.02    -0.278 OA
DOCKED: BRANCH  35  36
DOCKED: ATOM     36  P   UNL d   1      11.731  13.657  -6.140 -0.04 +0.13    +0.473 P 
DOCKED: ATOM     37  O   UNL d   1      10.660  13.512  -5.107 -0.60 -0.27    -0.228 OA
DOCKED: BRANCH  36  38
DOCKED: ATOM     38  O   UNL d   1      13.140  13.052  -5.711 -0.04 +0.00    -0.303 OA
DOCKED: ATOM     39  H   UNL d   1      13.113  12.075  -5.808 +0.03 +0.01    +0.222 HD
DOCKED: ENDBRANCH  36  38
DOCKED: BRANCH  36  40
DOCKED: ATOM     40  O   UNL d   1      12.079  15.134  -6.618 -0.03 +0.03    -0.303 OA
DOCKED: ATOM     41  H   UNL d   1      12.209  15.181  -7.591 +0.06 -0.07    +0.222 HD
DOCKED: ENDBRANCH  36  40
DOCKED: ENDBRANCH  35  36
DOCKED: ENDBRANCH   5  35
DOCKED: BRANCH   4  42
DOCKED: ATOM     42  O   UNL d   1      13.613  10.945  -7.583 +0.00 +0.02    -0.278 OA
DOCKED: BRANCH  42  43
DOCKED: ATOM     43  P   UNL d   1      13.031   9.940  -6.490 +0.01 +0.01    +0.473 P 
DOCKED: ATOM     44  O   UNL d   1      13.074   8.484  -6.804 +0.00 -0.00    -0.228 OA
DOCKED: BRANCH  43  45
DOCKED: ATOM     45  O   UNL d   1      13.835  10.346  -5.178 +0.00 -0.01    -0.303 OA
DOCKED: ATOM     46  H   UNL d   1      14.247  11.229  -5.270 +0.02 -0.01    +0.222 HD
DOCKED: ENDBRANCH  43  45
DOCKED: BRANCH  43  47
DOCKED: ATOM     47  O   UNL d   1      11.577  10.538  -6.179 +0.00 -0.04    -0.303 OA
DOCKED: ATOM     48  H   UNL d   1      11.665  11.476  -5.911 +0.02 +0.04    +0.222 HD
DOCKED: ENDBRANCH  43  47
DOCKED: ENDBRANCH  42  43
DOCKED: ENDBRANCH   4  42
DOCKED: TORSDOF 24
DOCKED: TER
DOCKED: ENDMDL
________________________________________________________________________________


	BEGINNING GENETIC ALGORITHM DOCKING 65 of 100
Run: 65 Seed: 1631165082 510913944 [ Run 65 of 100 GA/GALS ]
Beginning LAMARCKIAN GENETIC ALGORITHM (LGA), with a maximum of 25000000 energy evaluations.

Final-Value: -18.127


	FINAL GENETIC ALGORITHM DOCKED STATE
	_______________________________________________


Detailed state:  trans 7.509 47.768 14.983 quatxyzw 0.405398 -0.645143 0.531159 -0.370557 center 0.035 0.082 -0.065 ntor 24 -101.9860 12.8294 24.7796 22.7081 141.2765 151.8881 180.0000 -2.4859 -25.5557 135.1201 51.1825 109.6954 -160.4939 178.7328 175.2925 54.7605 -54.5941 -129.4474 43.3355 -12.7728 0.0971 152.2078 158.4565 -42.6146
State:	  7.509  47.768  14.983   0.436 -0.695  0.572 -136.500   -101.99   12.83   24.78   22.71  141.28  151.89  180.00   -2.49  -25.56  135.12   51.18  109.70 -160.49  178.73  175.29   54.76  -54.59 -129.45   43.34  -12.77    0.10  152.21  158.46  -42.61

DOCKED: MODEL       65
DOCKED: USER    Run = 65
DOCKED: USER    DPF = D:/Protein_go_brrr/autodock/final/6BB5/IHP/dock.dpf
DOCKED: USER  
DOCKED: USER    Estimated Free Energy of Binding    =   +4.32 kcal/mol  [=(1)+(2)+(3)-(4)]
DOCKED: USER    
DOCKED: USER    (1) Final Intermolecular Energy     =   -2.84 kcal/mol
DOCKED: USER        vdW + Hbond + desolv Energy     =   -2.46 kcal/mol
DOCKED: USER        Electrostatic Energy            =   -0.38 kcal/mol
DOCKED: USER    (2) Final Total Internal Energy     =  -15.29 kcal/mol
DOCKED: USER    (3) Torsional Free Energy           =   +7.16 kcal/mol
DOCKED: USER    (4) Unbound System's Energy  [=(2)] =  -15.29 kcal/mol
DOCKED: USER    
DOCKED: USER    
DOCKED: USER    NEWDPF move IHP_ideal_opt.pdbqt
DOCKED: USER    NEWDPF about 0.035000 0.082000 -0.065000
DOCKED: USER    NEWDPF tran0 7.508828 47.767825 14.983094
DOCKED: USER    NEWDPF quaternion0 0.405398 -0.645143 0.531159 -0.370557
DOCKED: USER    NEWDPF axisangle0 0.436471 -0.694592 0.571870 -136.500067
DOCKED: USER    NEWDPF quat0 0.436471 -0.694592 0.571870 -136.500067
DOCKED: USER    NEWDPF dihe0 -101.99 12.83 24.78 22.71 141.28 151.89 180.00 -2.49 -25.56 135.12 51.18 109.70 -160.49 178.73 175.29 54.76 -54.59 -129.45 43.34 -12.77 0.10 152.21 158.46 -42.61 
DOCKED: USER  keepresnum = 1 
DOCKED: USER  
DOCKED: REMARK  24 active torsions:
DOCKED: REMARK  status: ('A' for Active; 'I' for Inactive)
DOCKED: REMARK    1  A    between atoms: C_1  and  O_7 
DOCKED: REMARK    2  A    between atoms: C_2  and  O_12 
DOCKED: REMARK    3  A    between atoms: C_3  and  O_17 
DOCKED: REMARK    4  A    between atoms: C_4  and  O_22 
DOCKED: REMARK    5  A    between atoms: C_5  and  O_27 
DOCKED: REMARK    6  A    between atoms: C_6  and  O_32 
DOCKED: REMARK    7  A    between atoms: O_7  and  P_8 
DOCKED: REMARK    8  A    between atoms: P_8  and  O_10 
DOCKED: REMARK    9  A    between atoms: P_8  and  O_11 
DOCKED: REMARK   10  A    between atoms: O_12  and  P_13 
DOCKED: REMARK   11  A    between atoms: P_13  and  O_15 
DOCKED: REMARK   12  A    between atoms: P_13  and  O_16 
DOCKED: REMARK   13  A    between atoms: O_17  and  P_18 
DOCKED: REMARK   14  A    between atoms: P_18  and  O_20 
DOCKED: REMARK   15  A    between atoms: P_18  and  O_21 
DOCKED: REMARK   16  A    between atoms: O_22  and  P_23 
DOCKED: REMARK   17  A    between atoms: P_23  and  O_25 
DOCKED: REMARK   18  A    between atoms: P_23  and  O_26 
DOCKED: REMARK   19  A    between atoms: O_27  and  P_28 
DOCKED: REMARK   20  A    between atoms: P_28  and  O_30 
DOCKED: REMARK   21  A    between atoms: P_28  and  O_31 
DOCKED: REMARK   22  A    between atoms: O_32  and  P_33 
DOCKED: REMARK   23  A    between atoms: P_33  and  O_35 
DOCKED: REMARK   24  A    between atoms: P_33  and  O_36 
DOCKED: USER                              x       y       z     vdW  Elec       q    Type
DOCKED: USER                           _______ _______ _______ _____ _____    ______ ____
DOCKED: ROOT
DOCKED: ATOM      1  C   UNL d   1       7.788  46.731  16.336 -0.08 -0.12    +0.194 C 
DOCKED: ATOM      2  C   UNL d   1       9.038  47.170  15.571 -0.06 -0.10    +0.194 C 
DOCKED: ATOM      3  C   UNL d   1       8.826  47.107  14.057 -0.11 -0.13    +0.194 C 
DOCKED: ATOM      4  C   UNL d   1       7.575  47.849  13.593 -0.12 -0.09    +0.194 C 
DOCKED: ATOM      5  C   UNL d   1       6.326  47.527  14.404 -0.12 -0.11    +0.194 C 
DOCKED: ATOM      6  C   UNL d   1       6.553  47.529  15.917 -0.09 -0.11    +0.194 C 
DOCKED: ENDROOT
DOCKED: BRANCH   1   7
DOCKED: ATOM      7  O   UNL d   1       8.006  46.981  17.727 -0.03 +0.09    -0.278 OA
DOCKED: BRANCH   7   8
DOCKED: ATOM      8  P   UNL d   1       8.894  45.943  18.555 -0.00 -0.12    +0.473 P 
DOCKED: ATOM      9  O   UNL d   1       8.142  45.103  19.526 -0.04 +0.04    -0.228 OA
DOCKED: BRANCH   8  10
DOCKED: ATOM     10  O   UNL d   1       9.640  45.090  17.432 -0.08 +0.12    -0.303 OA
DOCKED: ATOM     11  H   UNL d   1      10.551  45.419  17.323 +0.06 -0.09    +0.222 HD
DOCKED: ENDBRANCH   8  10
DOCKED: BRANCH   8  12
DOCKED: ATOM     12  O   UNL d   1      10.083  46.807  19.160 -0.00 +0.06    -0.303 OA
DOCKED: ATOM     13  H   UNL d   1      10.350  47.554  18.579 +0.02 -0.05    +0.222 HD
DOCKED: ENDBRANCH   8  12
DOCKED: ENDBRANCH   7   8
DOCKED: ENDBRANCH   1   7
DOCKED: BRANCH   2  14
DOCKED: ATOM     14  O   UNL d   1       9.356  48.520  15.932 -0.01 +0.09    -0.278 OA
DOCKED: BRANCH  14  15
DOCKED: ATOM     15  P   UNL d   1      10.780  48.759  16.624 +0.02 -0.13    +0.473 P 
DOCKED: ATOM     16  O   UNL d   1      10.776  49.469  17.941 +0.00 +0.04    -0.228 OA
DOCKED: BRANCH  15  17
DOCKED: ATOM     17  O   UNL d   1      11.419  47.302  16.710 -0.01 +0.12    -0.303 OA
DOCKED: ATOM     18  H   UNL d   1      10.960  46.756  17.376 +0.04 -0.08    +0.222 HD
DOCKED: ENDBRANCH  15  17
DOCKED: BRANCH  15  19
DOCKED: ATOM     19  O   UNL d   1      11.666  49.430  15.486 -0.01 +0.09    -0.303 OA
DOCKED: ATOM     20  H   UNL d   1      11.470  49.055  14.608 +0.05 -0.08    +0.222 HD
DOCKED: ENDBRANCH  15  19
DOCKED: ENDBRANCH  14  15
DOCKED: ENDBRANCH   2  14
DOCKED: BRANCH   6  21
DOCKED: ATOM     21  O   UNL d   1       5.422  46.889  16.505 -0.12 +0.20    -0.278 OA
DOCKED: BRANCH  21  22
DOCKED: ATOM     22  P   UNL d   1       4.282  47.769  17.190 -0.04 -0.13    +0.473 P 
DOCKED: ATOM     23  O   UNL d   1       3.452  47.140  18.258 -0.04 +0.05    -0.228 OA
DOCKED: BRANCH  22  24
DOCKED: ATOM     24  O   UNL d   1       5.096  49.057  17.650 -0.00 +0.05    -0.303 OA
DOCKED: ATOM     25  H   UNL d   1       5.281  49.608  16.847 +0.02 -0.03    +0.222 HD
DOCKED: ENDBRANCH  22  24
DOCKED: BRANCH  22  26
DOCKED: ATOM     26  O   UNL d   1       3.484  48.320  15.913 -0.06 +0.02    -0.303 OA
DOCKED: ATOM     27  H   UNL d   1       4.070  48.289  15.130 +0.02 +0.01    +0.222 HD
DOCKED: ENDBRANCH  22  26
DOCKED: ENDBRANCH  21  22
DOCKED: ENDBRANCH   6  21
DOCKED: BRANCH   3  28
DOCKED: ATOM     28  O   UNL d   1       9.916  47.785  13.444 -0.08 +0.15    -0.278 OA
DOCKED: BRANCH  28  29
DOCKED: ATOM     29  P   UNL d   1       9.766  49.305  12.991 -0.07 -0.15    +0.473 P 
DOCKED: ATOM     30  O   UNL d   1       8.805  50.116  13.782 -0.03 +0.05    -0.228 OA
DOCKED: BRANCH  29  31
DOCKED: ATOM     31  O   UNL d   1      11.300  49.759  13.025 -0.11 +0.10    -0.303 OA
DOCKED: ATOM     32  H   UNL d   1      11.372  50.581  13.563 +0.06 -0.07    +0.222 HD
DOCKED: ENDBRANCH  29  31
DOCKED: BRANCH  29  33
DOCKED: ATOM     33  O   UNL d   1       9.476  49.162  11.432 -0.14 +0.11    -0.303 OA
DOCKED: ATOM     34  H   UNL d   1       8.680  48.589  11.305 -0.03 -0.09    +0.222 HD
DOCKED: ENDBRANCH  29  33
DOCKED: ENDBRANCH  28  29
DOCKED: ENDBRANCH   3  28
DOCKED: BRANCH   5  35
DOCKED: ATOM     35  O   UNL d   1       5.398  48.571  14.117 -0.12 -0.00    -0.278 OA
DOCKED: BRANCH  35  36
DOCKED: ATOM     36  P   UNL d   1       5.645  50.043  14.679 +0.00 -0.03    +0.473 P 
DOCKED: ATOM     37  O   UNL d   1       6.742  50.174  15.687 -0.00 +0.03    -0.228 OA
DOCKED: BRANCH  36  38
DOCKED: ATOM     38  O   UNL d   1       5.887  50.868  13.338 -0.00 +0.01    -0.303 OA
DOCKED: ATOM     39  H   UNL d   1       6.852  50.937  13.173 +0.03 -0.02    +0.222 HD
DOCKED: ENDBRANCH  36  38
DOCKED: BRANCH  36  40
DOCKED: ATOM     40  O   UNL d   1       4.186  50.480  15.139 -0.00 -0.00    -0.303 OA
DOCKED: ATOM     41  H   UNL d   1       4.031  50.286  16.090 +0.01 -0.01    +0.222 HD
DOCKED: ENDBRANCH  36  40
DOCKED: ENDBRANCH  35  36
DOCKED: ENDBRANCH   5  35
DOCKED: BRANCH   4  42
DOCKED: ATOM     42  O   UNL d   1       7.322  47.433  12.247 -0.18 +0.10    -0.278 OA
DOCKED: BRANCH  42  43
DOCKED: ATOM     43  P   UNL d   1       6.532  48.417  11.271 -0.09 -0.01    +0.473 P 
DOCKED: ATOM     44  O   UNL d   1       5.044  48.402  11.338 -0.09 -0.10    -0.228 OA
DOCKED: BRANCH  43  45
DOCKED: ATOM     45  O   UNL d   1       7.184  49.831  11.599 -0.11 +0.04    -0.303 OA
DOCKED: ATOM     46  H   UNL d   1       7.604  49.835  12.483 +0.06 -0.04    +0.222 HD
DOCKED: ENDBRANCH  43  45
DOCKED: BRANCH  43  47
DOCKED: ATOM     47  O   UNL d   1       7.164  48.093   9.834 -0.32 +0.07    -0.303 OA
DOCKED: ATOM     48  H   UNL d   1       8.078  48.442   9.797 -0.43 -0.12    +0.222 HD
DOCKED: ENDBRANCH  43  47
DOCKED: ENDBRANCH  42  43
DOCKED: ENDBRANCH   4  42
DOCKED: TORSDOF 24
DOCKED: TER
DOCKED: ENDMDL
________________________________________________________________________________


	BEGINNING GENETIC ALGORITHM DOCKING 66 of 100
Run: 66 Seed: 397239830 2092663879 [ Run 66 of 100 GA/GALS ]
Beginning LAMARCKIAN GENETIC ALGORITHM (LGA), with a maximum of 25000000 energy evaluations.

Final-Value: -16.689


	FINAL GENETIC ALGORITHM DOCKED STATE
	_______________________________________________


Detailed state:  trans 36.561 21.999 1.138 quatxyzw -0.061806 -0.303510 -0.147998 -0.939233 center 0.035 0.082 -0.065 ntor 24 -175.9156 75.6263 127.1708 28.2049 150.3532 161.1486 -48.9504 20.7453 -33.4131 79.2438 93.8648 167.8544 96.6429 -163.3969 40.8180 25.5070 -17.8762 108.9431 -4.0967 -15.4956 -8.1169 -31.9624 179.5865 -0.2555
State:	 36.561  21.999   1.138  -0.180 -0.884 -0.431 -40.154   -175.92   75.63  127.17   28.20  150.35  161.15  -48.95   20.75  -33.41   79.24   93.86  167.85   96.64 -163.40   40.82   25.51  -17.88  108.94   -4.10  -15.50   -8.12  -31.96  179.59   -0.26

DOCKED: MODEL       66
DOCKED: USER    Run = 66
DOCKED: USER    DPF = D:/Protein_go_brrr/autodock/final/6BB5/IHP/dock.dpf
DOCKED: USER  
DOCKED: USER    Estimated Free Energy of Binding    =   +3.38 kcal/mol  [=(1)+(2)+(3)-(4)]
DOCKED: USER    
DOCKED: USER    (1) Final Intermolecular Energy     =   -3.78 kcal/mol
DOCKED: USER        vdW + Hbond + desolv Energy     =   -3.18 kcal/mol
DOCKED: USER        Electrostatic Energy            =   -0.60 kcal/mol
DOCKED: USER    (2) Final Total Internal Energy     =  -12.91 kcal/mol
DOCKED: USER    (3) Torsional Free Energy           =   +7.16 kcal/mol
DOCKED: USER    (4) Unbound System's Energy  [=(2)] =  -12.91 kcal/mol
DOCKED: USER    
DOCKED: USER    
DOCKED: USER    NEWDPF move IHP_ideal_opt.pdbqt
DOCKED: USER    NEWDPF about 0.035000 0.082000 -0.065000
DOCKED: USER    NEWDPF tran0 36.561290 21.999476 1.138053
DOCKED: USER    NEWDPF quaternion0 -0.061806 -0.303510 -0.147998 -0.939233
DOCKED: USER    NEWDPF axisangle0 -0.180046 -0.884145 -0.431127 -40.153739
DOCKED: USER    NEWDPF quat0 -0.180046 -0.884145 -0.431127 -40.153739
DOCKED: USER    NEWDPF dihe0 -175.92 75.63 127.17 28.20 150.35 161.15 -48.95 20.75 -33.41 79.24 93.86 167.85 96.64 -163.40 40.82 25.51 -17.88 108.94 -4.10 -15.50 -8.12 -31.96 179.59 -0.26 
DOCKED: USER  keepresnum = 1 
DOCKED: USER  
DOCKED: REMARK  24 active torsions:
DOCKED: REMARK  status: ('A' for Active; 'I' for Inactive)
DOCKED: REMARK    1  A    between atoms: C_1  and  O_7 
DOCKED: REMARK    2  A    between atoms: C_2  and  O_12 
DOCKED: REMARK    3  A    between atoms: C_3  and  O_17 
DOCKED: REMARK    4  A    between atoms: C_4  and  O_22 
DOCKED: REMARK    5  A    between atoms: C_5  and  O_27 
DOCKED: REMARK    6  A    between atoms: C_6  and  O_32 
DOCKED: REMARK    7  A    between atoms: O_7  and  P_8 
DOCKED: REMARK    8  A    between atoms: P_8  and  O_10 
DOCKED: REMARK    9  A    between atoms: P_8  and  O_11 
DOCKED: REMARK   10  A    between atoms: O_12  and  P_13 
DOCKED: REMARK   11  A    between atoms: P_13  and  O_15 
DOCKED: REMARK   12  A    between atoms: P_13  and  O_16 
DOCKED: REMARK   13  A    between atoms: O_17  and  P_18 
DOCKED: REMARK   14  A    between atoms: P_18  and  O_20 
DOCKED: REMARK   15  A    between atoms: P_18  and  O_21 
DOCKED: REMARK   16  A    between atoms: O_22  and  P_23 
DOCKED: REMARK   17  A    between atoms: P_23  and  O_25 
DOCKED: REMARK   18  A    between atoms: P_23  and  O_26 
DOCKED: REMARK   19  A    between atoms: O_27  and  P_28 
DOCKED: REMARK   20  A    between atoms: P_28  and  O_30 
DOCKED: REMARK   21  A    between atoms: P_28  and  O_31 
DOCKED: REMARK   22  A    between atoms: O_32  and  P_33 
DOCKED: REMARK   23  A    between atoms: P_33  and  O_35 
DOCKED: REMARK   24  A    between atoms: P_33  and  O_36 
DOCKED: USER                              x       y       z     vdW  Elec       q    Type
DOCKED: USER                           _______ _______ _______ _____ _____    ______ ____
DOCKED: ROOT
DOCKED: ATOM      1  C   UNL d   1      36.812  21.019   2.538 -0.06 -0.16    +0.194 C 
DOCKED: ATOM      2  C   UNL d   1      35.798  20.480   1.526 -0.07 -0.13    +0.194 C 
DOCKED: ATOM      3  C   UNL d   1      34.876  21.584   1.006 -0.11 -0.15    +0.194 C 
DOCKED: ATOM      4  C   UNL d   1      35.632  22.799   0.474 -0.14 -0.10    +0.194 C 
DOCKED: ATOM      5  C   UNL d   1      36.732  23.301   1.402 -0.04 -0.12    +0.194 C 
DOCKED: ATOM      6  C   UNL d   1      37.616  22.189   1.971 -0.19 -0.10    +0.194 C 
DOCKED: ENDROOT
DOCKED: BRANCH   1   7
DOCKED: ATOM      7  O   UNL d   1      37.738  19.973   2.842 -0.08 +0.11    -0.278 OA
DOCKED: BRANCH   7   8
DOCKED: ATOM      8  P   UNL d   1      37.973  19.588   4.374 -0.10 -0.16    +0.473 P 
DOCKED: ATOM      9  O   UNL d   1      38.294  18.157   4.623 -0.04 +0.03    -0.228 OA
DOCKED: BRANCH   8  10
DOCKED: ATOM     10  O   UNL d   1      39.126  20.583   4.850 -0.23 +0.09    -0.303 OA
DOCKED: ATOM     11  H   UNL d   1      39.106  21.392   4.305 +0.11 -0.07    +0.222 HD
DOCKED: ENDBRANCH   8  10
DOCKED: BRANCH   8  12
DOCKED: ATOM     12  O   UNL d   1      36.704  20.158   5.142 -0.16 +0.23    -0.303 OA
DOCKED: ATOM     13  H   UNL d   1      35.891  20.169   4.589 -0.37 -0.35    +0.222 HD
DOCKED: ENDBRANCH   8  12
DOCKED: ENDBRANCH   7   8
DOCKED: ENDBRANCH   1   7
DOCKED: BRANCH   2  14
DOCKED: ATOM     14  O   UNL d   1      36.504  19.913   0.415 -0.01 +0.07    -0.278 OA
DOCKED: BRANCH  14  15
DOCKED: ATOM     15  P   UNL d   1      36.323  18.340   0.181 +0.01 -0.07    +0.473 P 
DOCKED: ATOM     16  O   UNL d   1      37.499  17.472   0.507 +0.00 +0.02    -0.228 OA
DOCKED: BRANCH  15  17
DOCKED: ATOM     17  O   UNL d   1      35.027  17.967   1.028 -0.00 +0.06    -0.303 OA
DOCKED: ATOM     18  H   UNL d   1      34.400  18.715   1.058 +0.01 -0.07    +0.222 HD
DOCKED: ENDBRANCH  15  17
DOCKED: BRANCH  15  19
DOCKED: ATOM     19  O   UNL d   1      35.776  18.221  -1.308 +0.00 +0.02    -0.303 OA
DOCKED: ATOM     20  H   UNL d   1      35.229  18.990  -1.554 +0.00 -0.02    +0.222 HD
DOCKED: ENDBRANCH  15  19
DOCKED: ENDBRANCH  14  15
DOCKED: ENDBRANCH   2  14
DOCKED: BRANCH   6  21
DOCKED: ATOM     21  O   UNL d   1      38.347  22.758   3.055 -0.30 +0.11    -0.278 OA
DOCKED: BRANCH  21  22
DOCKED: ATOM     22  P   UNL d   1      39.920  22.986   2.917 -0.29 -0.07    +0.473 P 
DOCKED: ATOM     23  O   UNL d   1      40.399  24.061   2.000 -0.32 +0.01    -0.228 OA
DOCKED: BRANCH  22  24
DOCKED: ATOM     24  O   UNL d   1      40.358  23.160   4.437 -0.45 +0.06    -0.303 OA
DOCKED: ATOM     25  H   UNL d   1      40.493  22.258   4.824 +0.05 -0.05    +0.222 HD
DOCKED: ENDBRANCH  22  24
DOCKED: BRANCH  22  26
DOCKED: ATOM     26  O   UNL d   1      40.436  21.503   2.591 -0.09 +0.02    -0.303 OA
DOCKED: ATOM     27  H   UNL d   1      39.715  20.865   2.770 +0.08 -0.03    +0.222 HD
DOCKED: ENDBRANCH  22  26
DOCKED: ENDBRANCH  21  22
DOCKED: ENDBRANCH   6  21
DOCKED: BRANCH   3  28
DOCKED: ATOM     28  O   UNL d   1      34.169  21.061  -0.111 -0.03 +0.10    -0.278 OA
DOCKED: BRANCH  28  29
DOCKED: ATOM     29  P   UNL d   1      32.919  20.098   0.106 -0.01 -0.13    +0.473 P 
DOCKED: ATOM     30  O   UNL d   1      32.579  19.800   1.521 -0.04 +0.10    -0.228 OA
DOCKED: BRANCH  29  31
DOCKED: ATOM     31  O   UNL d   1      31.817  20.872  -0.758 -0.00 +0.05    -0.303 OA
DOCKED: ATOM     32  H   UNL d   1      32.242  21.653  -1.182 +0.01 -0.03    +0.222 HD
DOCKED: ENDBRANCH  29  31
DOCKED: BRANCH  29  33
DOCKED: ATOM     33  O   UNL d   1      33.288  18.858  -0.822 +0.00 +0.04    -0.303 OA
DOCKED: ATOM     34  H   UNL d   1      33.934  18.281  -0.346 +0.01 -0.03    +0.222 HD
DOCKED: ENDBRANCH  29  33
DOCKED: ENDBRANCH  28  29
DOCKED: ENDBRANCH   3  28
DOCKED: BRANCH   5  35
DOCKED: ATOM     35  O   UNL d   1      37.567  24.132   0.598 -0.14 +0.06    -0.278 OA
DOCKED: BRANCH  35  36
DOCKED: ATOM     36  P   UNL d   1      38.109  23.608  -0.808 -0.03 -0.05    +0.473 P 
DOCKED: ATOM     37  O   UNL d   1      37.262  22.576  -1.482 -0.02 +0.03    -0.228 OA
DOCKED: BRANCH  36  38
DOCKED: ATOM     38  O   UNL d   1      38.261  24.967  -1.625 -0.04 +0.01    -0.303 OA
DOCKED: ATOM     39  H   UNL d   1      37.514  25.046  -2.257 +0.03 -0.01    +0.222 HD
DOCKED: ENDBRANCH  36  38
DOCKED: BRANCH  36  40
DOCKED: ATOM     40  O   UNL d   1      39.607  23.200  -0.463 -0.04 +0.01    -0.303 OA
DOCKED: ATOM     41  H   UNL d   1      39.678  22.793   0.429 +0.07 -0.02    +0.222 HD
DOCKED: ENDBRANCH  36  40
DOCKED: ENDBRANCH  35  36
DOCKED: ENDBRANCH   5  35
DOCKED: BRANCH   4  42
DOCKED: ATOM     42  O   UNL d   1      34.677  23.858   0.343 -0.14 +0.14    -0.278 OA
DOCKED: BRANCH  42  43
DOCKED: ATOM     43  P   UNL d   1      34.278  24.360  -1.117 -0.03 -0.08    +0.473 P 
DOCKED: ATOM     44  O   UNL d   1      32.942  24.997  -1.283 -0.03 +0.02    -0.228 OA
DOCKED: BRANCH  43  45
DOCKED: ATOM     45  O   UNL d   1      35.501  25.299  -1.510 -0.03 +0.03    -0.303 OA
DOCKED: ATOM     46  H   UNL d   1      36.295  25.095  -0.976 +0.05 -0.03    +0.222 HD
DOCKED: ENDBRANCH  43  45
DOCKED: BRANCH  43  47
DOCKED: ATOM     47  O   UNL d   1      34.548  23.072  -2.034 -0.01 +0.04    -0.303 OA
DOCKED: ATOM     48  H   UNL d   1      35.068  22.417  -1.524 +0.02 -0.04    +0.222 HD
DOCKED: ENDBRANCH  43  47
DOCKED: ENDBRANCH  42  43
DOCKED: ENDBRANCH   4  42
DOCKED: TORSDOF 24
DOCKED: TER
DOCKED: ENDMDL
________________________________________________________________________________


	BEGINNING GENETIC ALGORITHM DOCKING 67 of 100
Run: 67 Seed: 1472940533 1555552419 [ Run 67 of 100 GA/GALS ]
Beginning LAMARCKIAN GENETIC ALGORITHM (LGA), with a maximum of 25000000 energy evaluations.

Final-Value: -18.156


	FINAL GENETIC ALGORITHM DOCKED STATE
	_______________________________________________


Detailed state:  trans -2.262 44.459 16.637 quatxyzw 0.147479 -0.360833 -0.843195 0.370232 center 0.035 0.082 -0.065 ntor 24 180.0000 108.5586 119.8423 -18.5787 29.6948 -23.7017 -129.3551 -19.9482 -179.9471 6.8215 46.8626 114.3639 132.4312 165.1925 -54.5784 -172.1622 -180.0000 -174.3113 41.0620 0.8498 -170.6431 -11.8856 -173.6428 17.6858
State:	 -2.262  44.459  16.637   0.159 -0.388 -0.908 136.540    180.00  108.56  119.84  -18.58   29.69  -23.70 -129.36  -19.95 -179.95    6.82   46.86  114.36  132.43  165.19  -54.58 -172.16 -180.00 -174.31   41.06    0.85 -170.64  -11.89 -173.64   17.69

DOCKED: MODEL       67
DOCKED: USER    Run = 67
DOCKED: USER    DPF = D:/Protein_go_brrr/autodock/final/6BB5/IHP/dock.dpf
DOCKED: USER  
DOCKED: USER    Estimated Free Energy of Binding    =   +2.69 kcal/mol  [=(1)+(2)+(3)-(4)]
DOCKED: USER    
DOCKED: USER    (1) Final Intermolecular Energy     =   -4.47 kcal/mol
DOCKED: USER        vdW + Hbond + desolv Energy     =   -3.86 kcal/mol
DOCKED: USER        Electrostatic Energy            =   -0.61 kcal/mol
DOCKED: USER    (2) Final Total Internal Energy     =  -13.68 kcal/mol
DOCKED: USER    (3) Torsional Free Energy           =   +7.16 kcal/mol
DOCKED: USER    (4) Unbound System's Energy  [=(2)] =  -13.68 kcal/mol
DOCKED: USER    
DOCKED: USER    
DOCKED: USER    NEWDPF move IHP_ideal_opt.pdbqt
DOCKED: USER    NEWDPF about 0.035000 0.082000 -0.065000
DOCKED: USER    NEWDPF tran0 -2.262128 44.458887 16.636692
DOCKED: USER    NEWDPF quaternion0 0.147479 -0.360833 -0.843195 0.370232
DOCKED: USER    NEWDPF axisangle0 0.158761 -0.388436 -0.907696 136.540101
DOCKED: USER    NEWDPF quat0 0.158761 -0.388436 -0.907696 136.540101
DOCKED: USER    NEWDPF dihe0 180.00 108.56 119.84 -18.58 29.69 -23.70 -129.36 -19.95 -179.95 6.82 46.86 114.36 132.43 165.19 -54.58 -172.16 -180.00 -174.31 41.06 0.85 -170.64 -11.89 -173.64 17.69 
DOCKED: USER  keepresnum = 1 
DOCKED: USER  
DOCKED: REMARK  24 active torsions:
DOCKED: REMARK  status: ('A' for Active; 'I' for Inactive)
DOCKED: REMARK    1  A    between atoms: C_1  and  O_7 
DOCKED: REMARK    2  A    between atoms: C_2  and  O_12 
DOCKED: REMARK    3  A    between atoms: C_3  and  O_17 
DOCKED: REMARK    4  A    between atoms: C_4  and  O_22 
DOCKED: REMARK    5  A    between atoms: C_5  and  O_27 
DOCKED: REMARK    6  A    between atoms: C_6  and  O_32 
DOCKED: REMARK    7  A    between atoms: O_7  and  P_8 
DOCKED: REMARK    8  A    between atoms: P_8  and  O_10 
DOCKED: REMARK    9  A    between atoms: P_8  and  O_11 
DOCKED: REMARK   10  A    between atoms: O_12  and  P_13 
DOCKED: REMARK   11  A    between atoms: P_13  and  O_15 
DOCKED: REMARK   12  A    between atoms: P_13  and  O_16 
DOCKED: REMARK   13  A    between atoms: O_17  and  P_18 
DOCKED: REMARK   14  A    between atoms: P_18  and  O_20 
DOCKED: REMARK   15  A    between atoms: P_18  and  O_21 
DOCKED: REMARK   16  A    between atoms: O_22  and  P_23 
DOCKED: REMARK   17  A    between atoms: P_23  and  O_25 
DOCKED: REMARK   18  A    between atoms: P_23  and  O_26 
DOCKED: REMARK   19  A    between atoms: O_27  and  P_28 
DOCKED: REMARK   20  A    between atoms: P_28  and  O_30 
DOCKED: REMARK   21  A    between atoms: P_28  and  O_31 
DOCKED: REMARK   22  A    between atoms: O_32  and  P_33 
DOCKED: REMARK   23  A    between atoms: P_33  and  O_35 
DOCKED: REMARK   24  A    between atoms: P_33  and  O_36 
DOCKED: USER                              x       y       z     vdW  Elec       q    Type
DOCKED: USER                           _______ _______ _______ _____ _____    ______ ____
DOCKED: ROOT
DOCKED: ATOM      1  C   UNL d   1      -2.454  46.089  16.098 +0.01 -0.01    +0.194 C 
DOCKED: ATOM      2  C   UNL d   1      -1.021  45.552  16.083 -0.01 -0.02    +0.194 C 
DOCKED: ATOM      3  C   UNL d   1      -0.702  44.755  17.350 -0.02 -0.04    +0.194 C 
DOCKED: ATOM      4  C   UNL d   1      -1.725  43.662  17.647 -0.02 -0.06    +0.194 C 
DOCKED: ATOM      5  C   UNL d   1      -3.173  44.127  17.559 -0.00 -0.03    +0.194 C 
DOCKED: ATOM      6  C   UNL d   1      -3.478  44.976  16.323 +0.01 -0.02    +0.194 C 
DOCKED: ENDROOT
DOCKED: BRANCH   1   7
DOCKED: ATOM      7  O   UNL d   1      -2.726  46.666  14.818 +0.01 -0.01    -0.278 OA
DOCKED: BRANCH   7   8
DOCKED: ATOM      8  P   UNL d   1      -2.214  48.152  14.531 +0.01 +0.03    +0.473 P 
DOCKED: ATOM      9  O   UNL d   1      -2.619  48.715  13.215 +0.00 -0.02    -0.228 OA
DOCKED: BRANCH   8  10
DOCKED: ATOM     10  O   UNL d   1      -2.760  48.996  15.770 +0.00 -0.01    -0.303 OA
DOCKED: ATOM     11  H   UNL d   1      -2.935  48.398  16.521 +0.00 +0.00    +0.222 HD
DOCKED: ENDBRANCH   8  10
DOCKED: BRANCH   8  12
DOCKED: ATOM     12  O   UNL d   1      -0.652  48.113  14.819 -0.00 -0.04    -0.303 OA
DOCKED: ATOM     13  H   UNL d   1      -0.163  47.513  14.211 +0.02 +0.07    +0.222 HD
DOCKED: ENDBRANCH   8  12
DOCKED: ENDBRANCH   7   8
DOCKED: ENDBRANCH   1   7
DOCKED: BRANCH   2  14
DOCKED: ATOM     14  O   UNL d   1      -0.857  44.691  14.949 -0.06 +0.03    -0.278 OA
DOCKED: BRANCH  14  15
DOCKED: ATOM     15  P   UNL d   1       0.449  44.930  14.053 -0.06 +0.18    +0.473 P 
DOCKED: ATOM     16  O   UNL d   1       0.271  44.840  12.569 -0.29 -0.15    -0.228 OA
DOCKED: BRANCH  15  17
DOCKED: ATOM     17  O   UNL d   1       0.988  46.353  14.525 -0.36 -0.19    -0.303 OA
DOCKED: ATOM     18  H   UNL d   1       0.687  46.560  15.430 +0.04 +0.04    +0.222 HD
DOCKED: ENDBRANCH  15  17
DOCKED: BRANCH  15  19
DOCKED: ATOM     19  O   UNL d   1       1.540  43.953  14.673 -0.44 +0.05    -0.303 OA
DOCKED: ATOM     20  H   UNL d   1       1.927  44.318  15.491 -0.21 -0.13    +0.222 HD
DOCKED: ENDBRANCH  15  19
DOCKED: ENDBRANCH  14  15
DOCKED: ENDBRANCH   2  14
DOCKED: BRANCH   6  21
DOCKED: ATOM     21  O   UNL d   1      -4.736  45.605  16.555 +0.00 +0.01    -0.278 OA
DOCKED: BRANCH  21  22
DOCKED: ATOM     22  P   UNL d   1      -4.793  46.999  17.328 +0.00 -0.01    +0.473 P 
DOCKED: ATOM     23  O   UNL d   1      -3.671  47.340  18.251 +0.00 +0.01    -0.228 OA
DOCKED: BRANCH  22  24
DOCKED: ATOM     24  O   UNL d   1      -5.009  48.027  16.132 +0.00 -0.00    -0.303 OA
DOCKED: ATOM     25  H   UNL d   1      -4.491  47.704  15.352 +0.00 +0.00    +0.222 HD
DOCKED: ENDBRANCH  22  24
DOCKED: BRANCH  22  26
DOCKED: ATOM     26  O   UNL d   1      -6.253  46.946  17.987 +0.00 +0.00    -0.303 OA
DOCKED: ATOM     27  H   UNL d   1      -6.304  47.604  18.710 +0.00 -0.00    +0.222 HD
DOCKED: ENDBRANCH  22  26
DOCKED: ENDBRANCH  21  22
DOCKED: ENDBRANCH   6  21
DOCKED: BRANCH   3  28
DOCKED: ATOM     28  O   UNL d   1       0.526  44.073  17.129 -0.09 +0.09    -0.278 OA
DOCKED: BRANCH  28  29
DOCKED: ATOM     29  P   UNL d   1       1.890  44.669  17.693 -0.09 -0.15    +0.473 P 
DOCKED: ATOM     30  O   UNL d   1       3.021  43.710  17.781 -0.71 +0.06    -0.228 OA
DOCKED: BRANCH  29  31
DOCKED: ATOM     31  O   UNL d   1       2.075  45.921  16.713 -0.09 +0.11    -0.303 OA
DOCKED: ATOM     32  H   UNL d   1       2.412  45.594  15.847 -0.46 -0.16    +0.222 HD
DOCKED: ENDBRANCH  29  31
DOCKED: BRANCH  29  33
DOCKED: ATOM     33  O   UNL d   1       1.420  45.353  19.052 -0.02 +0.04    -0.303 OA
DOCKED: ATOM     34  H   UNL d   1       0.744  44.776  19.485 +0.03 -0.03    +0.222 HD
DOCKED: ENDBRANCH  29  33
DOCKED: ENDBRANCH  28  29
DOCKED: ENDBRANCH   3  28
DOCKED: BRANCH   5  35
DOCKED: ATOM     35  O   UNL d   1      -3.956  42.939  17.456 -0.00 +0.05    -0.278 OA
DOCKED: BRANCH  35  36
DOCKED: ATOM     36  P   UNL d   1      -3.490  41.750  16.500 -0.01 -0.22    +0.473 P 
DOCKED: ATOM     37  O   UNL d   1      -4.566  41.141  15.657 -0.02 +0.06    -0.228 OA
DOCKED: BRANCH  36  38
DOCKED: ATOM     38  O   UNL d   1      -2.319  42.439  15.669 +0.01 +0.27    -0.303 OA
DOCKED: ATOM     39  H   UNL d   1      -1.460  42.051  15.942 -0.41 -0.45    +0.222 HD
DOCKED: ENDBRANCH  36  38
DOCKED: BRANCH  36  40
DOCKED: ATOM     40  O   UNL d   1      -2.728  40.783  17.507 -0.04 +0.18    -0.303 OA
DOCKED: ATOM     41  H   UNL d   1      -2.252  41.286  18.205 +0.02 -0.11    +0.222 HD
DOCKED: ENDBRANCH  36  40
DOCKED: ENDBRANCH  35  36
DOCKED: ENDBRANCH   5  35
DOCKED: BRANCH   4  42
DOCKED: ATOM     42  O   UNL d   1      -1.500  43.238  18.995 -0.01 +0.06    -0.278 OA
DOCKED: BRANCH  42  43
DOCKED: ATOM     43  P   UNL d   1      -0.542  41.991  19.262 -0.03 -0.14    +0.473 P 
DOCKED: ATOM     44  O   UNL d   1      -1.066  40.895  20.124 -0.02 +0.05    -0.228 OA
DOCKED: BRANCH  43  45
DOCKED: ATOM     45  O   UNL d   1      -0.150  41.531  17.790 -0.13 +0.25    -0.303 OA
DOCKED: ATOM     46  H   UNL d   1      -0.837  41.784  17.141 -0.40 -0.28    +0.222 HD
DOCKED: ENDBRANCH  43  45
DOCKED: BRANCH  43  47
DOCKED: ATOM     47  O   UNL d   1       0.818  42.674  19.764 -0.07 +0.06    -0.303 OA
DOCKED: ATOM     48  H   UNL d   1       1.215  43.183  19.026 +0.05 -0.05    +0.222 HD
DOCKED: ENDBRANCH  43  47
DOCKED: ENDBRANCH  42  43
DOCKED: ENDBRANCH   4  42
DOCKED: TORSDOF 24
DOCKED: TER
DOCKED: ENDMDL
________________________________________________________________________________


	BEGINNING GENETIC ALGORITHM DOCKING 68 of 100
Run: 68 Seed: 2035850665 2053352281 [ Run 68 of 100 GA/GALS ]
Beginning LAMARCKIAN GENETIC ALGORITHM (LGA), with a maximum of 25000000 energy evaluations.

Final-Value: -17.657


	FINAL GENETIC ALGORITHM DOCKED STATE
	_______________________________________________


Detailed state:  trans 53.308 31.253 -0.101 quatxyzw -0.242236 0.022174 0.236142 0.940780 center 0.035 0.082 -0.065 ntor 24 141.5542 101.8882 74.8943 74.5493 -16.1430 -136.6800 16.7295 67.2430 34.2014 13.3313 61.1767 -83.9962 133.7610 145.4806 2.8584 132.0423 170.0775 104.9207 12.2195 -17.6405 163.5014 3.3084 -11.9564 171.9030
State:	 53.308  31.253  -0.101  -0.715  0.065  0.697 39.634    141.55  101.89   74.89   74.55  -16.14 -136.68   16.73   67.24   34.20   13.33   61.18  -84.00  133.76  145.48    2.86  132.04  170.08  104.92   12.22  -17.64  163.50    3.31  -11.96  171.90

DOCKED: MODEL       68
DOCKED: USER    Run = 68
DOCKED: USER    DPF = D:/Protein_go_brrr/autodock/final/6BB5/IHP/dock.dpf
DOCKED: USER  
DOCKED: USER    Estimated Free Energy of Binding    =   +4.63 kcal/mol  [=(1)+(2)+(3)-(4)]
DOCKED: USER    
DOCKED: USER    (1) Final Intermolecular Energy     =   -2.53 kcal/mol
DOCKED: USER        vdW + Hbond + desolv Energy     =   -2.45 kcal/mol
DOCKED: USER        Electrostatic Energy            =   -0.07 kcal/mol
DOCKED: USER    (2) Final Total Internal Energy     =  -15.13 kcal/mol
DOCKED: USER    (3) Torsional Free Energy           =   +7.16 kcal/mol
DOCKED: USER    (4) Unbound System's Energy  [=(2)] =  -15.13 kcal/mol
DOCKED: USER    
DOCKED: USER    
DOCKED: USER    NEWDPF move IHP_ideal_opt.pdbqt
DOCKED: USER    NEWDPF about 0.035000 0.082000 -0.065000
DOCKED: USER    NEWDPF tran0 53.308276 31.253091 -0.101297
DOCKED: USER    NEWDPF quaternion0 -0.242236 0.022174 0.236142 0.940780
DOCKED: USER    NEWDPF axisangle0 -0.714523 0.065406 0.696548 39.634082
DOCKED: USER    NEWDPF quat0 -0.714523 0.065406 0.696548 39.634082
DOCKED: USER    NEWDPF dihe0 141.55 101.89 74.89 74.55 -16.14 -136.68 16.73 67.24 34.20 13.33 61.18 -84.00 133.76 145.48 2.86 132.04 170.08 104.92 12.22 -17.64 163.50 3.31 -11.96 171.90 
DOCKED: USER  keepresnum = 1 
DOCKED: USER  
DOCKED: REMARK  24 active torsions:
DOCKED: REMARK  status: ('A' for Active; 'I' for Inactive)
DOCKED: REMARK    1  A    between atoms: C_1  and  O_7 
DOCKED: REMARK    2  A    between atoms: C_2  and  O_12 
DOCKED: REMARK    3  A    between atoms: C_3  and  O_17 
DOCKED: REMARK    4  A    between atoms: C_4  and  O_22 
DOCKED: REMARK    5  A    between atoms: C_5  and  O_27 
DOCKED: REMARK    6  A    between atoms: C_6  and  O_32 
DOCKED: REMARK    7  A    between atoms: O_7  and  P_8 
DOCKED: REMARK    8  A    between atoms: P_8  and  O_10 
DOCKED: REMARK    9  A    between atoms: P_8  and  O_11 
DOCKED: REMARK   10  A    between atoms: O_12  and  P_13 
DOCKED: REMARK   11  A    between atoms: P_13  and  O_15 
DOCKED: REMARK   12  A    between atoms: P_13  and  O_16 
DOCKED: REMARK   13  A    between atoms: O_17  and  P_18 
DOCKED: REMARK   14  A    between atoms: P_18  and  O_20 
DOCKED: REMARK   15  A    between atoms: P_18  and  O_21 
DOCKED: REMARK   16  A    between atoms: O_22  and  P_23 
DOCKED: REMARK   17  A    between atoms: P_23  and  O_25 
DOCKED: REMARK   18  A    between atoms: P_23  and  O_26 
DOCKED: REMARK   19  A    between atoms: O_27  and  P_28 
DOCKED: REMARK   20  A    between atoms: P_28  and  O_30 
DOCKED: REMARK   21  A    between atoms: P_28  and  O_31 
DOCKED: REMARK   22  A    between atoms: O_32  and  P_33 
DOCKED: REMARK   23  A    between atoms: P_33  and  O_35 
DOCKED: REMARK   24  A    between atoms: P_33  and  O_36 
DOCKED: USER                              x       y       z     vdW  Elec       q    Type
DOCKED: USER                           _______ _______ _______ _____ _____    ______ ____
DOCKED: ROOT
DOCKED: ATOM      1  C   UNL d   1      53.912  29.646   0.091 -0.00 -0.00    +0.194 C 
DOCKED: ATOM      2  C   UNL d   1      52.513  29.758  -0.519 -0.02 -0.00    +0.194 C 
DOCKED: ATOM      3  C   UNL d   1      51.658  30.796   0.212 -0.06 -0.00    +0.194 C 
DOCKED: ATOM      4  C   UNL d   1      52.342  32.154   0.343 -0.02 +0.01    +0.194 C 
DOCKED: ATOM      5  C   UNL d   1      53.780  32.080   0.839 -0.00 +0.00    +0.194 C 
DOCKED: ATOM      6  C   UNL d   1      54.618  31.001   0.151 +0.00 +0.00    +0.194 C 
DOCKED: ENDROOT
DOCKED: BRANCH   1   7
DOCKED: ATOM      7  O   UNL d   1      54.696  28.793  -0.746 +0.00 -0.00    -0.278 OA
DOCKED: BRANCH   7   8
DOCKED: ATOM      8  P   UNL d   1      55.105  27.352  -0.192 +0.01 +0.01    +0.473 P 
DOCKED: ATOM      9  O   UNL d   1      56.024  26.576  -1.068 +0.00 -0.01    -0.228 OA
DOCKED: BRANCH   8  10
DOCKED: ATOM     10  O   UNL d   1      55.718  27.652   1.251 +0.00 -0.00    -0.303 OA
DOCKED: ATOM     11  H   UNL d   1      55.929  28.601   1.325 +0.01 +0.00    +0.222 HD
DOCKED: ENDBRANCH   8  10
DOCKED: BRANCH   8  12
DOCKED: ATOM     12  O   UNL d   1      53.730  26.644   0.172 -0.00 -0.00    -0.303 OA
DOCKED: ATOM     13  H   UNL d   1      53.108  26.595  -0.589 +0.01 +0.00    +0.222 HD
DOCKED: ENDBRANCH   8  12
DOCKED: ENDBRANCH   7   8
DOCKED: ENDBRANCH   1   7
DOCKED: BRANCH   2  14
DOCKED: ATOM     14  O   UNL d   1      52.632  30.151  -1.892 -0.00 -0.00    -0.278 OA
DOCKED: BRANCH  14  15
DOCKED: ATOM     15  P   UNL d   1      52.167  29.078  -2.986 +0.00 +0.00    +0.473 P 
DOCKED: ATOM     16  O   UNL d   1      52.712  29.248  -4.369 -0.00 -0.00    -0.228 OA
DOCKED: BRANCH  15  17
DOCKED: ATOM     17  O   UNL d   1      52.551  27.673  -2.339 -0.00 -0.00    -0.303 OA
DOCKED: ATOM     18  H   UNL d   1      53.235  27.779  -1.650 +0.01 +0.00    +0.222 HD
DOCKED: ENDBRANCH  15  17
DOCKED: BRANCH  15  19
DOCKED: ATOM     19  O   UNL d   1      50.580  29.058  -2.872 -0.01 +0.01    -0.303 OA
DOCKED: ATOM     20  H   UNL d   1      50.245  29.825  -2.371 +0.03 -0.01    +0.222 HD
DOCKED: ENDBRANCH  15  19
DOCKED: ENDBRANCH  14  15
DOCKED: ENDBRANCH   2  14
DOCKED: BRANCH   6  21
DOCKED: ATOM     21  O   UNL d   1      55.793  30.826   0.939 +0.00 -0.00    -0.278 OA
DOCKED: BRANCH  21  22
DOCKED: ATOM     22  P   UNL d   1      55.665  30.343   2.454 +0.01 -0.01    +0.473 P 
DOCKED: ATOM     23  O   UNL d   1      54.553  29.412   2.806 -0.03 +0.01    -0.228 OA
DOCKED: BRANCH  22  24
DOCKED: ATOM     24  O   UNL d   1      57.125  29.777   2.740 +0.00 -0.00    -0.303 OA
DOCKED: ATOM     25  H   UNL d   1      57.172  28.853   2.385 +0.00 +0.00    +0.222 HD
DOCKED: ENDBRANCH  22  24
DOCKED: BRANCH  22  26
DOCKED: ATOM     26  O   UNL d   1      55.690  31.738   3.244 +0.00 +0.01    -0.303 OA
DOCKED: ATOM     27  H   UNL d   1      55.049  32.352   2.832 +0.02 -0.01    +0.222 HD
DOCKED: ENDBRANCH  22  26
DOCKED: ENDBRANCH  21  22
DOCKED: ENDBRANCH   6  21
DOCKED: BRANCH   3  28
DOCKED: ATOM     28  O   UNL d   1      50.500  31.030  -0.579 -0.05 +0.00    -0.278 OA
DOCKED: BRANCH  28  29
DOCKED: ATOM     29  P   UNL d   1      49.061  30.608  -0.043 -0.20 -0.04    +0.473 P 
DOCKED: ATOM     30  O   UNL d   1      48.191  31.726   0.405 -0.30 +0.01    -0.228 OA
DOCKED: BRANCH  29  31
DOCKED: ATOM     31  O   UNL d   1      48.545  29.738  -1.283 -0.07 +0.07    -0.303 OA
DOCKED: ATOM     32  H   UNL d   1      49.083  28.914  -1.333 -0.02 -0.04    +0.222 HD
DOCKED: ENDBRANCH  29  31
DOCKED: BRANCH  29  33
DOCKED: ATOM     33  O   UNL d   1      49.420  29.498   1.041 -0.62 +0.03    -0.303 OA
DOCKED: ATOM     34  H   UNL d   1      48.996  29.738   1.900 -0.30 -0.03    +0.222 HD
DOCKED: ENDBRANCH  29  33
DOCKED: ENDBRANCH  28  29
DOCKED: ENDBRANCH   3  28
DOCKED: BRANCH   5  35
DOCKED: ATOM     35  O   UNL d   1      54.367  33.339   0.514 +0.00 -0.01    -0.278 OA
DOCKED: BRANCH  35  36
DOCKED: ATOM     36  P   UNL d   1      54.922  34.290   1.667 +0.02 +0.01    +0.473 P 
DOCKED: ATOM     37  O   UNL d   1      54.766  35.758   1.424 +0.00 -0.01    -0.228 OA
DOCKED: BRANCH  36  38
DOCKED: ATOM     38  O   UNL d   1      54.134  33.751   2.942 -0.00 -0.01    -0.303 OA
DOCKED: ATOM     39  H   UNL d   1      53.229  33.484   2.671 +0.04 +0.01    +0.222 HD
DOCKED: ENDBRANCH  36  38
DOCKED: BRANCH  36  40
DOCKED: ATOM     40  O   UNL d   1      56.402  33.746   1.874 +0.00 -0.00    -0.303 OA
DOCKED: ATOM     41  H   UNL d   1      56.474  32.792   1.648 +0.00 +0.00    +0.222 HD
DOCKED: ENDBRANCH  36  40
DOCKED: ENDBRANCH  35  36
DOCKED: ENDBRANCH   5  35
DOCKED: BRANCH   4  42
DOCKED: ATOM     42  O   UNL d   1      51.600  32.901   1.313 -0.06 -0.03    -0.278 OA
DOCKED: BRANCH  42  43
DOCKED: ATOM     43  P   UNL d   1      51.485  32.334   2.800 -0.11 +0.02    +0.473 P 
DOCKED: ATOM     44  O   UNL d   1      51.337  33.324   3.903 -0.56 -0.11    -0.228 OA
DOCKED: BRANCH  43  45
DOCKED: ATOM     45  O   UNL d   1      50.282  31.299   2.687 -0.22 +0.01    -0.303 OA
DOCKED: ATOM     46  H   UNL d   1      49.803  31.397   1.840 +0.08 +0.01    +0.222 HD
DOCKED: ENDBRANCH  43  45
DOCKED: BRANCH  43  47
DOCKED: ATOM     47  O   UNL d   1      52.748  31.353   2.916 -0.08 +0.04    -0.303 OA
DOCKED: ATOM     48  H   UNL d   1      53.497  31.838   3.321 +0.05 -0.03    +0.222 HD
DOCKED: ENDBRANCH  43  47
DOCKED: ENDBRANCH  42  43
DOCKED: ENDBRANCH   4  42
DOCKED: TORSDOF 24
DOCKED: TER
DOCKED: ENDMDL
________________________________________________________________________________


	BEGINNING GENETIC ALGORITHM DOCKING 69 of 100
Run: 69 Seed: 1956685041 252583121 [ Run 69 of 100 GA/GALS ]
Beginning LAMARCKIAN GENETIC ALGORITHM (LGA), with a maximum of 25000000 energy evaluations.

Final-Value: -17.685


	FINAL GENETIC ALGORITHM DOCKED STATE
	_______________________________________________


Detailed state:  trans 16.288 12.354 0.220 quatxyzw 0.910766 -0.361564 -0.144198 -0.137782 center 0.035 0.082 -0.065 ntor 24 -134.9341 -38.9861 -156.5175 59.5159 11.3069 152.9879 45.9471 -70.7416 108.4569 56.5289 11.8025 -155.0392 52.0031 159.6405 -178.2147 92.3226 136.3158 -11.9763 -14.6783 -16.2394 -22.2262 -26.1714 -11.9326 169.4974
State:	 16.288  12.354   0.220   0.920 -0.365 -0.146 -164.161   -134.93  -38.99 -156.52   59.52   11.31  152.99   45.95  -70.74  108.46   56.53   11.80 -155.04   52.00  159.64 -178.21   92.32  136.32  -11.98  -14.68  -16.24  -22.23  -26.17  -11.93  169.50

DOCKED: MODEL       69
DOCKED: USER    Run = 69
DOCKED: USER    DPF = D:/Protein_go_brrr/autodock/final/6BB5/IHP/dock.dpf
DOCKED: USER  
DOCKED: USER    Estimated Free Energy of Binding    =   +5.01 kcal/mol  [=(1)+(2)+(3)-(4)]
DOCKED: USER    
DOCKED: USER    (1) Final Intermolecular Energy     =   -2.15 kcal/mol
DOCKED: USER        vdW + Hbond + desolv Energy     =   -1.98 kcal/mol
DOCKED: USER        Electrostatic Energy            =   -0.17 kcal/mol
DOCKED: USER    (2) Final Total Internal Energy     =  -15.54 kcal/mol
DOCKED: USER    (3) Torsional Free Energy           =   +7.16 kcal/mol
DOCKED: USER    (4) Unbound System's Energy  [=(2)] =  -15.54 kcal/mol
DOCKED: USER    
DOCKED: USER    
DOCKED: USER    NEWDPF move IHP_ideal_opt.pdbqt
DOCKED: USER    NEWDPF about 0.035000 0.082000 -0.065000
DOCKED: USER    NEWDPF tran0 16.287824 12.353872 0.220145
DOCKED: USER    NEWDPF quaternion0 0.910766 -0.361564 -0.144198 -0.137782
DOCKED: USER    NEWDPF axisangle0 0.919536 -0.365045 -0.145587 -164.160971
DOCKED: USER    NEWDPF quat0 0.919536 -0.365045 -0.145587 -164.160971
DOCKED: USER    NEWDPF dihe0 -134.93 -38.99 -156.52 59.52 11.31 152.99 45.95 -70.74 108.46 56.53 11.80 -155.04 52.00 159.64 -178.21 92.32 136.32 -11.98 -14.68 -16.24 -22.23 -26.17 -11.93 169.50 
DOCKED: USER  keepresnum = 1 
DOCKED: USER  
DOCKED: REMARK  24 active torsions:
DOCKED: REMARK  status: ('A' for Active; 'I' for Inactive)
DOCKED: REMARK    1  A    between atoms: C_1  and  O_7 
DOCKED: REMARK    2  A    between atoms: C_2  and  O_12 
DOCKED: REMARK    3  A    between atoms: C_3  and  O_17 
DOCKED: REMARK    4  A    between atoms: C_4  and  O_22 
DOCKED: REMARK    5  A    between atoms: C_5  and  O_27 
DOCKED: REMARK    6  A    between atoms: C_6  and  O_32 
DOCKED: REMARK    7  A    between atoms: O_7  and  P_8 
DOCKED: REMARK    8  A    between atoms: P_8  and  O_10 
DOCKED: REMARK    9  A    between atoms: P_8  and  O_11 
DOCKED: REMARK   10  A    between atoms: O_12  and  P_13 
DOCKED: REMARK   11  A    between atoms: P_13  and  O_15 
DOCKED: REMARK   12  A    between atoms: P_13  and  O_16 
DOCKED: REMARK   13  A    between atoms: O_17  and  P_18 
DOCKED: REMARK   14  A    between atoms: P_18  and  O_20 
DOCKED: REMARK   15  A    between atoms: P_18  and  O_21 
DOCKED: REMARK   16  A    between atoms: O_22  and  P_23 
DOCKED: REMARK   17  A    between atoms: P_23  and  O_25 
DOCKED: REMARK   18  A    between atoms: P_23  and  O_26 
DOCKED: REMARK   19  A    between atoms: O_27  and  P_28 
DOCKED: REMARK   20  A    between atoms: P_28  and  O_30 
DOCKED: REMARK   21  A    between atoms: P_28  and  O_31 
DOCKED: REMARK   22  A    between atoms: O_32  and  P_33 
DOCKED: REMARK   23  A    between atoms: P_33  and  O_35 
DOCKED: REMARK   24  A    between atoms: P_33  and  O_36 
DOCKED: USER                              x       y       z     vdW  Elec       q    Type
DOCKED: USER                           _______ _______ _______ _____ _____    ______ ____
DOCKED: ROOT
DOCKED: ATOM      1  C   UNL d   1      17.424  11.985  -1.028 +0.00 -0.00    +0.194 C 
DOCKED: ATOM      2  C   UNL d   1      17.186  13.474  -0.770 -0.01 -0.00    +0.194 C 
DOCKED: ATOM      3  C   UNL d   1      15.700  13.785  -0.578 -0.02 +0.01    +0.194 C 
DOCKED: ATOM      4  C   UNL d   1      15.032  12.903   0.474 -0.01 +0.02    +0.194 C 
DOCKED: ATOM      5  C   UNL d   1      15.337  11.418   0.323 +0.00 +0.01    +0.194 C 
DOCKED: ATOM      6  C   UNL d   1      16.814  11.112   0.070 +0.00 +0.01    +0.194 C 
DOCKED: ENDROOT
DOCKED: BRANCH   1   7
DOCKED: ATOM      7  O   UNL d   1      18.835  11.752  -1.023 +0.00 +0.00    -0.278 OA
DOCKED: BRANCH   7   8
DOCKED: ATOM      8  P   UNL d   1      19.449  10.794  -2.144 +0.00 -0.01    +0.473 P 
DOCKED: ATOM      9  O   UNL d   1      20.155  11.492  -3.253 +0.00 +0.01    -0.228 OA
DOCKED: BRANCH   8  10
DOCKED: ATOM     10  O   UNL d   1      20.391   9.798  -1.327 +0.00 +0.00    -0.303 OA
DOCKED: ATOM     11  H   UNL d   1      19.845   9.225  -0.758 +0.00 +0.00    +0.222 HD
DOCKED: ENDBRANCH   8  10
DOCKED: BRANCH   8  12
DOCKED: ATOM     12  O   UNL d   1      18.253   9.841  -2.574 +0.00 +0.01    -0.303 OA
DOCKED: ATOM     13  H   UNL d   1      18.148   9.062  -1.983 +0.00 +0.00    +0.222 HD
DOCKED: ENDBRANCH   8  12
DOCKED: ENDBRANCH   7   8
DOCKED: ENDBRANCH   1   7
DOCKED: BRANCH   2  14
DOCKED: ATOM     14  O   UNL d   1      17.890  13.861   0.416 -0.00 +0.00    -0.278 OA
DOCKED: BRANCH  14  15
DOCKED: ATOM     15  P   UNL d   1      19.078  14.919   0.230 -0.00 -0.02    +0.473 P 
DOCKED: ATOM     16  O   UNL d   1      20.269  14.755   1.121 -0.01 +0.00    -0.228 OA
DOCKED: BRANCH  15  17
DOCKED: ATOM     17  O   UNL d   1      19.445  14.821  -1.317 -0.01 +0.03    -0.303 OA
DOCKED: ATOM     18  H   UNL d   1      19.142  15.612  -1.802 +0.04 -0.03    +0.222 HD
DOCKED: ENDBRANCH  15  17
DOCKED: BRANCH  15  19
DOCKED: ATOM     19  O   UNL d   1      18.361  16.337   0.298 -0.09 +0.04    -0.303 OA
DOCKED: ATOM     20  H   UNL d   1      17.398  16.249   0.429 +0.03 -0.02    +0.222 HD
DOCKED: ENDBRANCH  15  19
DOCKED: ENDBRANCH  14  15
DOCKED: ENDBRANCH   2  14
DOCKED: BRANCH   6  21
DOCKED: ATOM     21  O   UNL d   1      16.884   9.762  -0.383 +0.00 -0.01    -0.278 OA
DOCKED: BRANCH  21  22
DOCKED: ATOM     22  P   UNL d   1      17.815   8.716   0.382 +0.00 +0.01    +0.473 P 
DOCKED: ATOM     23  O   UNL d   1      18.447   7.623  -0.412 +0.00 -0.00    -0.228 OA
DOCKED: BRANCH  22  24
DOCKED: ATOM     24  O   UNL d   1      18.840   9.679   1.127 +0.00 -0.01    -0.303 OA
DOCKED: ATOM     25  H   UNL d   1      19.257  10.269   0.450 +0.00 +0.00    +0.222 HD
DOCKED: ENDBRANCH  22  24
DOCKED: BRANCH  22  26
DOCKED: ATOM     26  O   UNL d   1      16.862   8.251   1.585 +0.00 -0.01    -0.303 OA
DOCKED: ATOM     27  H   UNL d   1      16.170   8.929   1.727 +0.00 +0.01    +0.222 HD
DOCKED: ENDBRANCH  22  26
DOCKED: ENDBRANCH  21  22
DOCKED: ENDBRANCH   6  21
DOCKED: BRANCH   3  28
DOCKED: ATOM     28  O   UNL d   1      15.601  15.111  -0.076 -0.06 -0.02    -0.278 OA
DOCKED: BRANCH  28  29
DOCKED: ATOM     29  P   UNL d   1      15.612  16.352  -1.075 -0.11 -0.00    +0.473 P 
DOCKED: ATOM     30  O   UNL d   1      14.439  16.457  -1.979 -0.72 -0.03    -0.228 OA
DOCKED: BRANCH  29  31
DOCKED: ATOM     31  O   UNL d   1      15.835  17.547  -0.033 -0.33 +0.04    -0.303 OA
DOCKED: ATOM     32  H   UNL d   1      16.793  17.776  -0.018 -0.46 -0.09    +0.222 HD
DOCKED: ENDBRANCH  29  31
DOCKED: BRANCH  29  33
DOCKED: ATOM     33  O   UNL d   1      17.042  16.214  -1.762 -0.12 +0.04    -0.303 OA
DOCKED: ATOM     34  H   UNL d   1      17.575  15.548  -1.264 +0.05 -0.02    +0.222 HD
DOCKED: ENDBRANCH  29  33
DOCKED: ENDBRANCH  28  29
DOCKED: ENDBRANCH   3  28
DOCKED: BRANCH   5  35
DOCKED: ATOM     35  O   UNL d   1      14.993  10.823   1.573 +0.00 -0.02    -0.278 OA
DOCKED: BRANCH  35  36
DOCKED: ATOM     36  P   UNL d   1      13.857   9.706   1.648 +0.00 +0.04    +0.473 P 
DOCKED: ATOM     37  O   UNL d   1      13.572   9.167   3.013 -0.00 -0.02    -0.228 OA
DOCKED: BRANCH  36  38
DOCKED: ATOM     38  O   UNL d   1      12.624  10.449   0.967 -0.00 -0.04    -0.303 OA
DOCKED: ATOM     39  H   UNL d   1      12.950  10.990   0.215 +0.01 +0.04    +0.222 HD
DOCKED: ENDBRANCH  36  38
DOCKED: BRANCH  36  40
DOCKED: ATOM     40  O   UNL d   1      14.333   8.664   0.545 +0.00 -0.02    -0.303 OA
DOCKED: ATOM     41  H   UNL d   1      15.267   8.816   0.278 +0.00 +0.01    +0.222 HD
DOCKED: ENDBRANCH  36  40
DOCKED: ENDBRANCH  35  36
DOCKED: ENDBRANCH   5  35
DOCKED: BRANCH   4  42
DOCKED: ATOM     42  O   UNL d   1      13.618  13.061   0.311 -0.02 -0.06    -0.278 OA
DOCKED: BRANCH  42  43
DOCKED: ATOM     43  P   UNL d   1      12.960  12.705  -1.098 -0.04 +0.15    +0.473 P 
DOCKED: ATOM     44  O   UNL d   1      13.562  11.586  -1.874 -0.01 -0.04    -0.228 OA
DOCKED: BRANCH  43  45
DOCKED: ATOM     45  O   UNL d   1      11.429  12.487  -0.722 -0.08 -0.17    -0.303 OA
DOCKED: ATOM     46  H   UNL d   1      11.317  11.750  -0.089 +0.02 +0.08    +0.222 HD
DOCKED: ENDBRANCH  43  45
DOCKED: BRANCH  43  47
DOCKED: ATOM     47  O   UNL d   1      12.913  14.121  -1.848 -0.12 -0.14    -0.303 OA
DOCKED: ATOM     48  H   UNL d   1      13.597  14.710  -1.468 +0.07 +0.06    +0.222 HD
DOCKED: ENDBRANCH  43  47
DOCKED: ENDBRANCH  42  43
DOCKED: ENDBRANCH   4  42
DOCKED: TORSDOF 24
DOCKED: TER
DOCKED: ENDMDL
________________________________________________________________________________


	BEGINNING GENETIC ALGORITHM DOCKING 70 of 100
Run: 70 Seed: 2106541609 1835635863 [ Run 70 of 100 GA/GALS ]
Beginning LAMARCKIAN GENETIC ALGORITHM (LGA), with a maximum of 25000000 energy evaluations.

Final-Value: -17.202


	FINAL GENETIC ALGORITHM DOCKED STATE
	_______________________________________________


Detailed state:  trans 51.861 45.962 16.069 quatxyzw -0.590317 -0.286852 -0.113780 0.745853 center 0.035 0.082 -0.065 ntor 24 170.1717 -151.6778 -70.5262 10.9661 -19.6635 159.6179 -20.6950 -89.5015 -6.3948 110.1811 32.9237 169.6976 73.1106 36.6614 -177.0573 -51.3133 -13.7225 166.6749 9.6471 -18.3342 -33.1922 0.8118 165.5947 -7.7074
State:	 51.861  45.962  16.069  -0.886 -0.431 -0.171 83.535    170.17 -151.68  -70.53   10.97  -19.66  159.62  -20.70  -89.50   -6.39  110.18   32.92  169.70   73.11   36.66 -177.06  -51.31  -13.72  166.67    9.65  -18.33  -33.19    0.81  165.59   -7.71

DOCKED: MODEL       70
DOCKED: USER    Run = 70
DOCKED: USER    DPF = D:/Protein_go_brrr/autodock/final/6BB5/IHP/dock.dpf
DOCKED: USER  
DOCKED: USER    Estimated Free Energy of Binding    =   +3.79 kcal/mol  [=(1)+(2)+(3)-(4)]
DOCKED: USER    
DOCKED: USER    (1) Final Intermolecular Energy     =   -3.37 kcal/mol
DOCKED: USER        vdW + Hbond + desolv Energy     =   -3.32 kcal/mol
DOCKED: USER        Electrostatic Energy            =   -0.04 kcal/mol
DOCKED: USER    (2) Final Total Internal Energy     =  -13.83 kcal/mol
DOCKED: USER    (3) Torsional Free Energy           =   +7.16 kcal/mol
DOCKED: USER    (4) Unbound System's Energy  [=(2)] =  -13.83 kcal/mol
DOCKED: USER    
DOCKED: USER    
DOCKED: USER    NEWDPF move IHP_ideal_opt.pdbqt
DOCKED: USER    NEWDPF about 0.035000 0.082000 -0.065000
DOCKED: USER    NEWDPF tran0 51.860805 45.961904 16.069294
DOCKED: USER    NEWDPF quaternion0 -0.590317 -0.286852 -0.113780 0.745853
DOCKED: USER    NEWDPF axisangle0 -0.886214 -0.430637 -0.170812 83.535193
DOCKED: USER    NEWDPF quat0 -0.886214 -0.430637 -0.170812 83.535193
DOCKED: USER    NEWDPF dihe0 170.17 -151.68 -70.53 10.97 -19.66 159.62 -20.70 -89.50 -6.39 110.18 32.92 169.70 73.11 36.66 -177.06 -51.31 -13.72 166.67 9.65 -18.33 -33.19 0.81 165.59 -7.71 
DOCKED: USER  keepresnum = 1 
DOCKED: USER  
DOCKED: REMARK  24 active torsions:
DOCKED: REMARK  status: ('A' for Active; 'I' for Inactive)
DOCKED: REMARK    1  A    between atoms: C_1  and  O_7 
DOCKED: REMARK    2  A    between atoms: C_2  and  O_12 
DOCKED: REMARK    3  A    between atoms: C_3  and  O_17 
DOCKED: REMARK    4  A    between atoms: C_4  and  O_22 
DOCKED: REMARK    5  A    between atoms: C_5  and  O_27 
DOCKED: REMARK    6  A    between atoms: C_6  and  O_32 
DOCKED: REMARK    7  A    between atoms: O_7  and  P_8 
DOCKED: REMARK    8  A    between atoms: P_8  and  O_10 
DOCKED: REMARK    9  A    between atoms: P_8  and  O_11 
DOCKED: REMARK   10  A    between atoms: O_12  and  P_13 
DOCKED: REMARK   11  A    between atoms: P_13  and  O_15 
DOCKED: REMARK   12  A    between atoms: P_13  and  O_16 
DOCKED: REMARK   13  A    between atoms: O_17  and  P_18 
DOCKED: REMARK   14  A    between atoms: P_18  and  O_20 
DOCKED: REMARK   15  A    between atoms: P_18  and  O_21 
DOCKED: REMARK   16  A    between atoms: O_22  and  P_23 
DOCKED: REMARK   17  A    between atoms: P_23  and  O_25 
DOCKED: REMARK   18  A    between atoms: P_23  and  O_26 
DOCKED: REMARK   19  A    between atoms: O_27  and  P_28 
DOCKED: REMARK   20  A    between atoms: P_28  and  O_30 
DOCKED: REMARK   21  A    between atoms: P_28  and  O_31 
DOCKED: REMARK   22  A    between atoms: O_32  and  P_33 
DOCKED: REMARK   23  A    between atoms: P_33  and  O_35 
DOCKED: REMARK   24  A    between atoms: P_33  and  O_36 
DOCKED: USER                              x       y       z     vdW  Elec       q    Type
DOCKED: USER                           _______ _______ _______ _____ _____    ______ ____
DOCKED: ROOT
DOCKED: ATOM      1  C   UNL d   1      53.170  45.708  14.971 -0.00 -0.01    +0.194 C 
DOCKED: ATOM      2  C   UNL d   1      51.816  45.151  14.526 -0.05 -0.02    +0.194 C 
DOCKED: ATOM      3  C   UNL d   1      51.085  44.454  15.675 -0.06 -0.02    +0.194 C 
DOCKED: ATOM      4  C   UNL d   1      50.969  45.320  16.927 -0.06 -0.01    +0.194 C 
DOCKED: ATOM      5  C   UNL d   1      52.274  45.988  17.342 -0.01 -0.01    +0.194 C 
DOCKED: ATOM      6  C   UNL d   1      53.036  46.632  16.182 -0.00 -0.01    +0.194 C 
DOCKED: ENDROOT
DOCKED: BRANCH   1   7
DOCKED: ATOM      7  O   UNL d   1      53.707  46.486  13.899 +0.00 +0.02    -0.278 OA
DOCKED: BRANCH   7   8
DOCKED: ATOM      8  P   UNL d   1      55.022  45.957  13.161 +0.01 -0.03    +0.473 P 
DOCKED: ATOM      9  O   UNL d   1      54.898  45.802  11.686 -0.01 +0.02    -0.228 OA
DOCKED: BRANCH   8  10
DOCKED: ATOM     10  O   UNL d   1      56.151  46.998  13.591 +0.00 +0.01    -0.303 OA
DOCKED: ATOM     11  H   UNL d   1      55.823  47.554  14.323 +0.00 -0.01    +0.222 HD
DOCKED: ENDBRANCH   8  10
DOCKED: BRANCH   8  12
DOCKED: ATOM     12  O   UNL d   1      55.448  44.653  13.963 +0.00 +0.01    -0.303 OA
DOCKED: ATOM     13  H   UNL d   1      56.079  44.085  13.466 +0.01 -0.01    +0.222 HD
DOCKED: ENDBRANCH   8  12
DOCKED: ENDBRANCH   7   8
DOCKED: ENDBRANCH   1   7
DOCKED: BRANCH   2  14
DOCKED: ATOM     14  O   UNL d   1      51.000  46.231  14.053 -0.08 +0.05    -0.278 OA
DOCKED: BRANCH  14  15
DOCKED: ATOM     15  P   UNL d   1      50.647  46.229  12.491 -0.09 -0.15    +0.473 P 
DOCKED: ATOM     16  O   UNL d   1      49.375  45.551  12.091 -0.39 +0.12    -0.228 OA
DOCKED: BRANCH  15  17
DOCKED: ATOM     17  O   UNL d   1      50.679  47.770  12.085 -0.06 +0.09    -0.303 OA
DOCKED: ATOM     18  H   UNL d   1      50.271  47.911  11.210 +0.05 -0.11    +0.222 HD
DOCKED: ENDBRANCH  15  17
DOCKED: BRANCH  15  19
DOCKED: ATOM     19  O   UNL d   1      51.965  45.686  11.787 -0.29 +0.06    -0.303 OA
DOCKED: ATOM     20  H   UNL d   1      52.762  46.148  12.107 +0.03 -0.04    +0.222 HD
DOCKED: ENDBRANCH  15  19
DOCKED: ENDBRANCH  14  15
DOCKED: ENDBRANCH   2  14
DOCKED: BRANCH   6  21
DOCKED: ATOM     21  O   UNL d   1      54.355  46.898  16.653 +0.00 +0.01    -0.278 OA
DOCKED: BRANCH  21  22
DOCKED: ATOM     22  P   UNL d   1      55.042  48.302  16.333 +0.00 -0.01    +0.473 P 
DOCKED: ATOM     23  O   UNL d   1      56.519  48.334  16.130 +0.00 +0.00    -0.228 OA
DOCKED: BRANCH  22  24
DOCKED: ATOM     24  O   UNL d   1      54.186  48.807  15.090 +0.00 +0.01    -0.303 OA
DOCKED: ATOM     25  H   UNL d   1      54.581  48.421  14.267 +0.00 -0.01    +0.222 HD
DOCKED: ENDBRANCH  22  24
DOCKED: BRANCH  22  26
DOCKED: ATOM     26  O   UNL d   1      54.476  49.219  17.520 +0.00 +0.00    -0.303 OA
DOCKED: ATOM     27  H   UNL d   1      53.722  48.764  17.947 +0.00 -0.00    +0.222 HD
DOCKED: ENDBRANCH  22  26
DOCKED: ENDBRANCH  21  22
DOCKED: ENDBRANCH   6  21
DOCKED: BRANCH   3  28
DOCKED: ATOM     28  O   UNL d   1      49.747  44.222  15.252 -0.15 +0.05    -0.278 OA
DOCKED: BRANCH  28  29
DOCKED: ATOM     29  P   UNL d   1      49.234  42.738  14.986 -0.18 -0.07    +0.473 P 
DOCKED: ATOM     30  O   UNL d   1      49.672  42.129  13.704 -0.23 +0.04    -0.228 OA
DOCKED: BRANCH  29  31
DOCKED: ATOM     31  O   UNL d   1      49.725  42.027  16.333 -0.08 +0.03    -0.303 OA
DOCKED: ATOM     32  H   UNL d   1      49.709  42.689  17.062 +0.05 -0.02    +0.222 HD
DOCKED: ENDBRANCH  29  31
DOCKED: BRANCH  29  33
DOCKED: ATOM     33  O   UNL d   1      47.665  42.881  15.217 -0.21 +0.09    -0.303 OA
DOCKED: ATOM     34  H   UNL d   1      47.502  43.591  15.884 -0.50 -0.12    +0.222 HD
DOCKED: ENDBRANCH  29  33
DOCKED: ENDBRANCH  28  29
DOCKED: ENDBRANCH   3  28
DOCKED: BRANCH   5  35
DOCKED: ATOM     35  O   UNL d   1      51.904  47.037  18.235 -0.01 +0.00    -0.278 OA
DOCKED: BRANCH  35  36
DOCKED: ATOM     36  P   UNL d   1      51.015  48.257  17.720 -0.03 -0.01    +0.473 P 
DOCKED: ATOM     37  O   UNL d   1      50.055  47.935  16.619 -0.05 +0.01    -0.228 OA
DOCKED: BRANCH  36  38
DOCKED: ATOM     38  O   UNL d   1      50.325  48.749  19.068 -0.01 +0.00    -0.303 OA
DOCKED: ATOM     39  H   UNL d   1      49.601  48.129  19.303 +0.02 -0.00    +0.222 HD
DOCKED: ENDBRANCH  36  38
DOCKED: BRANCH  36  40
DOCKED: ATOM     40  O   UNL d   1      52.109  49.372  17.421 -0.00 +0.00    -0.303 OA
DOCKED: ATOM     41  H   UNL d   1      52.672  49.133  16.651 +0.01 -0.01    +0.222 HD
DOCKED: ENDBRANCH  36  40
DOCKED: ENDBRANCH  35  36
DOCKED: ENDBRANCH   5  35
DOCKED: BRANCH   4  42
DOCKED: ATOM     42  O   UNL d   1      50.582  44.451  17.997 -0.04 +0.01    -0.278 OA
DOCKED: BRANCH  42  43
DOCKED: ATOM     43  P   UNL d   1      49.198  44.716  18.744 -0.06 -0.02    +0.473 P 
DOCKED: ATOM     44  O   UNL d   1      49.123  44.377  20.193 -0.03 +0.00    -0.228 OA
DOCKED: BRANCH  43  45
DOCKED: ATOM     45  O   UNL d   1      48.914  46.248  18.419 -0.52 -0.01    -0.303 OA
DOCKED: ATOM     46  H   UNL d   1      49.732  46.781  18.464 +0.02 -0.00    +0.222 HD
DOCKED: ENDBRANCH  43  45
DOCKED: BRANCH  43  47
DOCKED: ATOM     47  O   UNL d   1      48.128  43.980  17.805 -0.30 +0.06    -0.303 OA
DOCKED: ATOM     48  H   UNL d   1      48.557  43.732  16.960 -0.03 -0.05    +0.222 HD
DOCKED: ENDBRANCH  43  47
DOCKED: ENDBRANCH  42  43
DOCKED: ENDBRANCH   4  42
DOCKED: TORSDOF 24
DOCKED: TER
DOCKED: ENDMDL
________________________________________________________________________________


	BEGINNING GENETIC ALGORITHM DOCKING 71 of 100
Run: 71 Seed: 1750344752 1144628123 [ Run 71 of 100 GA/GALS ]
Beginning LAMARCKIAN GENETIC ALGORITHM (LGA), with a maximum of 25000000 energy evaluations.

Final-Value: -17.549


	FINAL GENETIC ALGORITHM DOCKED STATE
	_______________________________________________


Detailed state:  trans 51.192 36.369 2.162 quatxyzw 0.693522 0.214886 0.634598 0.264833 center 0.035 0.082 -0.065 ntor 24 -124.5081 -24.4538 152.6860 28.3928 140.1531 119.5245 -17.9694 -168.7677 109.6236 0.3283 143.5623 141.9818 -169.8735 -178.5471 -120.4098 119.9824 57.5918 62.1948 54.2785 1.4968 -5.4876 -14.2425 -16.2147 -17.8774
State:	 51.192  36.369   2.162   0.719  0.223  0.658 149.286   -124.51  -24.45  152.69   28.39  140.15  119.52  -17.97 -168.77  109.62    0.33  143.56  141.98 -169.87 -178.55 -120.41  119.98   57.59   62.19   54.28    1.50   -5.49  -14.24  -16.21  -17.88

DOCKED: MODEL       71
DOCKED: USER    Run = 71
DOCKED: USER    DPF = D:/Protein_go_brrr/autodock/final/6BB5/IHP/dock.dpf
DOCKED: USER  
DOCKED: USER    Estimated Free Energy of Binding    =   +4.66 kcal/mol  [=(1)+(2)+(3)-(4)]
DOCKED: USER    
DOCKED: USER    (1) Final Intermolecular Energy     =   -2.50 kcal/mol
DOCKED: USER        vdW + Hbond + desolv Energy     =   -2.56 kcal/mol
DOCKED: USER        Electrostatic Energy            =   +0.06 kcal/mol
DOCKED: USER    (2) Final Total Internal Energy     =  -15.05 kcal/mol
DOCKED: USER    (3) Torsional Free Energy           =   +7.16 kcal/mol
DOCKED: USER    (4) Unbound System's Energy  [=(2)] =  -15.05 kcal/mol
DOCKED: USER    
DOCKED: USER    
DOCKED: USER    NEWDPF move IHP_ideal_opt.pdbqt
DOCKED: USER    NEWDPF about 0.035000 0.082000 -0.065000
DOCKED: USER    NEWDPF tran0 51.191629 36.369253 2.161617
DOCKED: USER    NEWDPF quaternion0 0.693522 0.214886 0.634598 0.264833
DOCKED: USER    NEWDPF axisangle0 0.719202 0.222842 0.658096 149.285985
DOCKED: USER    NEWDPF quat0 0.719202 0.222842 0.658096 149.285985
DOCKED: USER    NEWDPF dihe0 -124.51 -24.45 152.69 28.39 140.15 119.52 -17.97 -168.77 109.62 0.33 143.56 141.98 -169.87 -178.55 -120.41 119.98 57.59 62.19 54.28 1.50 -5.49 -14.24 -16.21 -17.88 
DOCKED: USER  keepresnum = 1 
DOCKED: USER  
DOCKED: REMARK  24 active torsions:
DOCKED: REMARK  status: ('A' for Active; 'I' for Inactive)
DOCKED: REMARK    1  A    between atoms: C_1  and  O_7 
DOCKED: REMARK    2  A    between atoms: C_2  and  O_12 
DOCKED: REMARK    3  A    between atoms: C_3  and  O_17 
DOCKED: REMARK    4  A    between atoms: C_4  and  O_22 
DOCKED: REMARK    5  A    between atoms: C_5  and  O_27 
DOCKED: REMARK    6  A    between atoms: C_6  and  O_32 
DOCKED: REMARK    7  A    between atoms: O_7  and  P_8 
DOCKED: REMARK    8  A    between atoms: P_8  and  O_10 
DOCKED: REMARK    9  A    between atoms: P_8  and  O_11 
DOCKED: REMARK   10  A    between atoms: O_12  and  P_13 
DOCKED: REMARK   11  A    between atoms: P_13  and  O_15 
DOCKED: REMARK   12  A    between atoms: P_13  and  O_16 
DOCKED: REMARK   13  A    between atoms: O_17  and  P_18 
DOCKED: REMARK   14  A    between atoms: P_18  and  O_20 
DOCKED: REMARK   15  A    between atoms: P_18  and  O_21 
DOCKED: REMARK   16  A    between atoms: O_22  and  P_23 
DOCKED: REMARK   17  A    between atoms: P_23  and  O_25 
DOCKED: REMARK   18  A    between atoms: P_23  and  O_26 
DOCKED: REMARK   19  A    between atoms: O_27  and  P_28 
DOCKED: REMARK   20  A    between atoms: P_28  and  O_30 
DOCKED: REMARK   21  A    between atoms: P_28  and  O_31 
DOCKED: REMARK   22  A    between atoms: O_32  and  P_33 
DOCKED: REMARK   23  A    between atoms: P_33  and  O_35 
DOCKED: REMARK   24  A    between atoms: P_33  and  O_36 
DOCKED: USER                              x       y       z     vdW  Elec       q    Type
DOCKED: USER                           _______ _______ _______ _____ _____    ______ ____
DOCKED: ROOT
DOCKED: ATOM      1  C   UNL d   1      51.363  37.509   3.448 -0.08 +0.06    +0.194 C 
DOCKED: ATOM      2  C   UNL d   1      50.443  37.938   2.304 -0.05 +0.04    +0.194 C 
DOCKED: ATOM      3  C   UNL d   1      51.042  37.598   0.937 -0.01 +0.02    +0.194 C 
DOCKED: ATOM      4  C   UNL d   1      51.473  36.138   0.816 -0.03 +0.03    +0.194 C 
DOCKED: ATOM      5  C   UNL d   1      52.298  35.635   1.994 -0.04 +0.04    +0.194 C 
DOCKED: ATOM      6  C   UNL d   1      51.731  36.028   3.360 -0.07 +0.10    +0.194 C 
DOCKED: ENDROOT
DOCKED: BRANCH   1   7
DOCKED: ATOM      7  O   UNL d   1      50.662  37.701   4.679 -0.20 -0.14    -0.278 OA
DOCKED: BRANCH   7   8
DOCKED: ATOM      8  P   UNL d   1      50.346  39.195   5.148 -0.16 +0.06    +0.473 P 
DOCKED: ATOM      9  O   UNL d   1      50.968  39.596   6.439 -0.28 -0.01    -0.228 OA
DOCKED: BRANCH   8  10
DOCKED: ATOM     10  O   UNL d   1      50.818  40.095   3.918 -0.05 -0.01    -0.303 OA
DOCKED: ATOM     11  H   UNL d   1      50.148  40.056   3.209 +0.06 +0.01    +0.222 HD
DOCKED: ENDBRANCH   8  10
DOCKED: BRANCH   8  12
DOCKED: ATOM     12  O   UNL d   1      48.765  39.327   5.070 -0.24 -0.02    -0.303 OA
DOCKED: ATOM     13  H   UNL d   1      48.423  39.326   4.147 +0.09 +0.03    +0.222 HD
DOCKED: ENDBRANCH   8  12
DOCKED: ENDBRANCH   7   8
DOCKED: ENDBRANCH   1   7
DOCKED: BRANCH   2  14
DOCKED: ATOM     14  O   UNL d   1      49.188  37.257   2.434 -0.07 -0.10    -0.278 OA
DOCKED: BRANCH  14  15
DOCKED: ATOM     15  P   UNL d   1      47.869  38.153   2.281 -0.07 +0.08    +0.473 P 
DOCKED: ATOM     16  O   UNL d   1      46.909  38.136   3.429 -0.23 -0.04    -0.228 OA
DOCKED: BRANCH  15  17
DOCKED: ATOM     17  O   UNL d   1      48.426  39.611   1.963 -0.04 -0.02    -0.303 OA
DOCKED: ATOM     18  H   UNL d   1      48.995  39.605   1.170 +0.03 +0.01    +0.222 HD
DOCKED: ENDBRANCH  15  17
DOCKED: BRANCH  15  19
DOCKED: ATOM     19  O   UNL d   1      47.262  37.728   0.873 -0.05 -0.02    -0.303 OA
DOCKED: ATOM     20  H   UNL d   1      47.960  37.469   0.244 +0.04 +0.02    +0.222 HD
DOCKED: ENDBRANCH  15  19
DOCKED: ENDBRANCH  14  15
DOCKED: ENDBRANCH   2  14
DOCKED: BRANCH   6  21
DOCKED: ATOM     21  O   UNL d   1      52.763  35.795   4.316 -0.08 -0.08    -0.278 OA
DOCKED: BRANCH  21  22
DOCKED: ATOM     22  P   UNL d   1      52.641  34.570   5.330 -0.08 +0.07    +0.473 P 
DOCKED: ATOM     23  O   UNL d   1      51.969  34.803   6.640 -0.29 +0.03    -0.228 OA
DOCKED: BRANCH  22  24
DOCKED: ATOM     24  O   UNL d   1      51.958  33.459   4.417 -0.73 -0.07    -0.303 OA
DOCKED: ATOM     25  H   UNL d   1      52.640  33.117   3.785 +0.05 -0.00    +0.222 HD
DOCKED: ENDBRANCH  22  24
DOCKED: BRANCH  22  26
DOCKED: ATOM     26  O   UNL d   1      54.158  34.053   5.399 -0.04 +0.04    -0.303 OA
DOCKED: ATOM     27  H   UNL d   1      54.477  33.870   4.492 +0.03 -0.01    +0.222 HD
DOCKED: ENDBRANCH  22  26
DOCKED: ENDBRANCH  21  22
DOCKED: ENDBRANCH   6  21
DOCKED: BRANCH   3  28
DOCKED: ATOM     28  O   UNL d   1      50.018  37.771  -0.034 -0.01 -0.02    -0.278 OA
DOCKED: BRANCH  28  29
DOCKED: ATOM     29  P   UNL d   1      49.910  39.132  -0.855 +0.00 +0.02    +0.473 P 
DOCKED: ATOM     30  O   UNL d   1      50.599  39.143  -2.171 -0.00 -0.01    -0.228 OA
DOCKED: BRANCH  29  31
DOCKED: ATOM     31  O   UNL d   1      48.321  39.326  -0.865 -0.00 -0.01    -0.303 OA
DOCKED: ATOM     32  H   UNL d   1      47.957  38.975  -0.020 +0.02 +0.01    +0.222 HD
DOCKED: ENDBRANCH  29  31
DOCKED: BRANCH  29  33
DOCKED: ATOM     33  O   UNL d   1      50.388  40.207   0.217 -0.00 -0.01    -0.303 OA
DOCKED: ATOM     34  H   UNL d   1      49.612  40.752   0.495 +0.02 +0.00    +0.222 HD
DOCKED: ENDBRANCH  29  33
DOCKED: ENDBRANCH  28  29
DOCKED: ENDBRANCH   3  28
DOCKED: BRANCH   5  35
DOCKED: ATOM     35  O   UNL d   1      52.256  34.212   1.915 -0.05 -0.05    -0.278 OA
DOCKED: BRANCH  35  36
DOCKED: ATOM     36  P   UNL d   1      53.586  33.382   1.619 +0.01 +0.02    +0.473 P 
DOCKED: ATOM     37  O   UNL d   1      54.218  32.730   2.808 -0.01 +0.01    -0.228 OA
DOCKED: BRANCH  36  38
DOCKED: ATOM     38  O   UNL d   1      53.093  32.364   0.499 -0.00 -0.01    -0.303 OA
DOCKED: ATOM     39  H   UNL d   1      52.487  32.831  -0.116 +0.02 +0.01    +0.222 HD
DOCKED: ENDBRANCH  36  38
DOCKED: BRANCH  36  40
DOCKED: ATOM     40  O   UNL d   1      54.471  34.434   0.818 +0.00 -0.01    -0.303 OA
DOCKED: ATOM     41  H   UNL d   1      53.934  34.943   0.171 +0.01 +0.01    +0.222 HD
DOCKED: ENDBRANCH  36  40
DOCKED: ENDBRANCH  35  36
DOCKED: ENDBRANCH   5  35
DOCKED: BRANCH   4  42
DOCKED: ATOM     42  O   UNL d   1      52.301  36.046  -0.348 -0.00 -0.02    -0.278 OA
DOCKED: BRANCH  42  43
DOCKED: ATOM     43  P   UNL d   1      51.977  34.928  -1.439 +0.00 +0.02    +0.473 P 
DOCKED: ATOM     44  O   UNL d   1      51.397  35.380  -2.734 -0.00 -0.01    -0.228 OA
DOCKED: BRANCH  43  45
DOCKED: ATOM     45  O   UNL d   1      53.367  34.165  -1.579 -0.00 -0.01    -0.303 OA
DOCKED: ATOM     46  H   UNL d   1      53.568  33.638  -0.780 +0.01 +0.01    +0.222 HD
DOCKED: ENDBRANCH  43  45
DOCKED: BRANCH  43  47
DOCKED: ATOM     47  O   UNL d   1      51.101  33.863  -0.622 -0.01 -0.02    -0.303 OA
DOCKED: ATOM     48  H   UNL d   1      51.469  33.768   0.281 +0.03 +0.02    +0.222 HD
DOCKED: ENDBRANCH  43  47
DOCKED: ENDBRANCH  42  43
DOCKED: ENDBRANCH   4  42
DOCKED: TORSDOF 24
DOCKED: TER
DOCKED: ENDMDL
________________________________________________________________________________


	BEGINNING GENETIC ALGORITHM DOCKING 72 of 100
Run: 72 Seed: 115445289 922880310 [ Run 72 of 100 GA/GALS ]
Beginning LAMARCKIAN GENETIC ALGORITHM (LGA), with a maximum of 25000000 energy evaluations.

Final-Value: -16.981


	FINAL GENETIC ALGORITHM DOCKED STATE
	_______________________________________________


Detailed state:  trans 48.401 46.533 20.745 quatxyzw -0.816103 0.358000 0.413384 -0.186884 center 0.035 0.082 -0.065 ntor 24 -156.3554 16.6094 -179.7040 132.0698 11.4690 -179.8708 -2.9050 -77.4818 165.8186 -19.9924 52.5996 -141.4370 -138.8560 84.7785 -179.9913 -49.0257 40.2342 137.1523 54.3028 5.4163 -20.4684 9.1371 -20.9685 -6.9487
State:	 48.401  46.533  20.745  -0.831  0.364  0.421 -158.458   -156.36   16.61 -179.70  132.07   11.47 -179.87   -2.91  -77.48  165.82  -19.99   52.60 -141.44 -138.86   84.78 -179.99  -49.03   40.23  137.15   54.30    5.42  -20.47    9.14  -20.97   -6.95

DOCKED: MODEL       72
DOCKED: USER    Run = 72
DOCKED: USER    DPF = D:/Protein_go_brrr/autodock/final/6BB5/IHP/dock.dpf
DOCKED: USER  
DOCKED: USER    Estimated Free Energy of Binding    =   +5.42 kcal/mol  [=(1)+(2)+(3)-(4)]
DOCKED: USER    
DOCKED: USER    (1) Final Intermolecular Energy     =   -1.74 kcal/mol
DOCKED: USER        vdW + Hbond + desolv Energy     =   -1.74 kcal/mol
DOCKED: USER        Electrostatic Energy            =   +0.01 kcal/mol
DOCKED: USER    (2) Final Total Internal Energy     =  -15.24 kcal/mol
DOCKED: USER    (3) Torsional Free Energy           =   +7.16 kcal/mol
DOCKED: USER    (4) Unbound System's Energy  [=(2)] =  -15.24 kcal/mol
DOCKED: USER    
DOCKED: USER    
DOCKED: USER    NEWDPF move IHP_ideal_opt.pdbqt
DOCKED: USER    NEWDPF about 0.035000 0.082000 -0.065000
DOCKED: USER    NEWDPF tran0 48.401066 46.532606 20.744673
DOCKED: USER    NEWDPF quaternion0 -0.816103 0.358000 0.413384 -0.186884
DOCKED: USER    NEWDPF axisangle0 -0.830739 0.364420 0.420798 -158.458013
DOCKED: USER    NEWDPF quat0 -0.830739 0.364420 0.420798 -158.458013
DOCKED: USER    NEWDPF dihe0 -156.36 16.61 -179.70 132.07 11.47 -179.87 -2.91 -77.48 165.82 -19.99 52.60 -141.44 -138.86 84.78 -179.99 -49.03 40.23 137.15 54.30 5.42 -20.47 9.14 -20.97 -6.95 
DOCKED: USER  keepresnum = 1 
DOCKED: USER  
DOCKED: REMARK  24 active torsions:
DOCKED: REMARK  status: ('A' for Active; 'I' for Inactive)
DOCKED: REMARK    1  A    between atoms: C_1  and  O_7 
DOCKED: REMARK    2  A    between atoms: C_2  and  O_12 
DOCKED: REMARK    3  A    between atoms: C_3  and  O_17 
DOCKED: REMARK    4  A    between atoms: C_4  and  O_22 
DOCKED: REMARK    5  A    between atoms: C_5  and  O_27 
DOCKED: REMARK    6  A    between atoms: C_6  and  O_32 
DOCKED: REMARK    7  A    between atoms: O_7  and  P_8 
DOCKED: REMARK    8  A    between atoms: P_8  and  O_10 
DOCKED: REMARK    9  A    between atoms: P_8  and  O_11 
DOCKED: REMARK   10  A    between atoms: O_12  and  P_13 
DOCKED: REMARK   11  A    between atoms: P_13  and  O_15 
DOCKED: REMARK   12  A    between atoms: P_13  and  O_16 
DOCKED: REMARK   13  A    between atoms: O_17  and  P_18 
DOCKED: REMARK   14  A    between atoms: P_18  and  O_20 
DOCKED: REMARK   15  A    between atoms: P_18  and  O_21 
DOCKED: REMARK   16  A    between atoms: O_22  and  P_23 
DOCKED: REMARK   17  A    between atoms: P_23  and  O_25 
DOCKED: REMARK   18  A    between atoms: P_23  and  O_26 
DOCKED: REMARK   19  A    between atoms: O_27  and  P_28 
DOCKED: REMARK   20  A    between atoms: P_28  and  O_30 
DOCKED: REMARK   21  A    between atoms: P_28  and  O_31 
DOCKED: REMARK   22  A    between atoms: O_32  and  P_33 
DOCKED: REMARK   23  A    between atoms: P_33  and  O_35 
DOCKED: REMARK   24  A    between atoms: P_33  and  O_36 
DOCKED: USER                              x       y       z     vdW  Elec       q    Type
DOCKED: USER                           _______ _______ _______ _____ _____    ______ ____
DOCKED: ROOT
DOCKED: ATOM      1  C   UNL d   1      49.133  47.068  19.274 -0.07 +0.00    +0.194 C 
DOCKED: ATOM      2  C   UNL d   1      49.425  47.924  20.508 -0.01 +0.00    +0.194 C 
DOCKED: ATOM      3  C   UNL d   1      48.169  48.147  21.353 -0.01 +0.00    +0.194 C 
DOCKED: ATOM      4  C   UNL d   1      47.445  46.851  21.708 -0.01 +0.00    +0.194 C 
DOCKED: ATOM      5  C   UNL d   1      47.235  45.913  20.526 -0.07 -0.00    +0.194 C 
DOCKED: ATOM      6  C   UNL d   1      48.474  45.739  19.646 -0.08 -0.00    +0.194 C 
DOCKED: ENDROOT
DOCKED: BRANCH   1   7
DOCKED: ATOM      7  O   UNL d   1      50.376  46.764  18.638 -0.05 +0.00    -0.278 OA
DOCKED: BRANCH   7   8
DOCKED: ATOM      8  P   UNL d   1      51.183  47.953  17.941 -0.02 -0.01    +0.473 P 
DOCKED: ATOM      9  O   UNL d   1      50.806  48.229  16.528 -0.06 +0.01    -0.228 OA
DOCKED: BRANCH   8  10
DOCKED: ATOM     10  O   UNL d   1      50.947  49.200  18.909 -0.00 +0.00    -0.303 OA
DOCKED: ATOM     11  H   UNL d   1      51.079  48.924  19.835 +0.01 +0.00    +0.222 HD
DOCKED: ENDBRANCH   8  10
DOCKED: BRANCH   8  12
DOCKED: ATOM     12  O   UNL d   1      52.715  47.619  18.198 -0.00 +0.00    -0.303 OA
DOCKED: ATOM     13  H   UNL d   1      52.865  47.105  19.023 +0.01 -0.00    +0.222 HD
DOCKED: ENDBRANCH   8  12
DOCKED: ENDBRANCH   7   8
DOCKED: ENDBRANCH   1   7
DOCKED: BRANCH   2  14
DOCKED: ATOM     14  O   UNL d   1      50.407  47.261  21.314 -0.00 -0.00    -0.278 OA
DOCKED: BRANCH  14  15
DOCKED: ATOM     15  P   UNL d   1      51.572  48.177  21.920 +0.00 +0.01    +0.473 P 
DOCKED: ATOM     16  O   UNL d   1      52.000  47.880  23.323 +0.00 -0.01    -0.228 OA
DOCKED: BRANCH  15  17
DOCKED: ATOM     17  O   UNL d   1      52.761  48.037  20.869 +0.00 -0.00    -0.303 OA
DOCKED: ATOM     18  H   UNL d   1      52.653  48.665  20.130 +0.00 +0.00    +0.222 HD
DOCKED: ENDBRANCH  15  17
DOCKED: BRANCH  15  19
DOCKED: ATOM     19  O   UNL d   1      51.085  49.668  21.653 +0.00 -0.01    -0.303 OA
DOCKED: ATOM     20  H   UNL d   1      50.344  49.915  22.238 +0.00 +0.01    +0.222 HD
DOCKED: ENDBRANCH  15  19
DOCKED: ENDBRANCH  14  15
DOCKED: ENDBRANCH   2  14
DOCKED: BRANCH   6  21
DOCKED: ATOM     21  O   UNL d   1      48.035  45.136  18.431 -0.66 -0.00    -0.278 OA
DOCKED: BRANCH  21  22
DOCKED: ATOM     22  P   UNL d   1      48.673  43.753  17.957 -0.06 -0.07    +0.473 P 
DOCKED: ATOM     23  O   UNL d   1      48.759  43.480  16.493 -0.21 +0.05    -0.228 OA
DOCKED: BRANCH  22  24
DOCKED: ATOM     24  O   UNL d   1      50.072  43.763  18.717 -0.03 +0.01    -0.303 OA
DOCKED: ATOM     25  H   UNL d   1      50.543  44.603  18.484 +0.02 -0.01    +0.222 HD
DOCKED: ENDBRANCH  22  24
DOCKED: BRANCH  22  26
DOCKED: ATOM     26  O   UNL d   1      47.835  42.694  18.821 -0.09 +0.05    -0.303 OA
DOCKED: ATOM     27  H   UNL d   1      47.126  43.164  19.305 +0.00 -0.03    +0.222 HD
DOCKED: ENDBRANCH  22  26
DOCKED: ENDBRANCH  21  22
DOCKED: ENDBRANCH   6  21
DOCKED: BRANCH   3  28
DOCKED: ATOM     28  O   UNL d   1      48.582  48.702  22.595 +0.00 -0.01    -0.278 OA
DOCKED: BRANCH  28  29
DOCKED: ATOM     29  P   UNL d   1      48.055  50.134  23.052 +0.00 +0.02    +0.473 P 
DOCKED: ATOM     30  O   UNL d   1      48.670  51.294  22.357 +0.00 -0.01    -0.228 OA
DOCKED: BRANCH  29  31
DOCKED: ATOM     31  O   UNL d   1      46.480  49.925  22.862 -0.00 -0.02    -0.303 OA
DOCKED: ATOM     32  H   UNL d   1      46.221  49.079  23.294 +0.00 +0.01    +0.222 HD
DOCKED: ENDBRANCH  29  31
DOCKED: BRANCH  29  33
DOCKED: ATOM     33  O   UNL d   1      48.231  50.066  24.633 +0.00 -0.01    -0.303 OA
DOCKED: ATOM     34  H   UNL d   1      48.315  49.120  24.906 +0.00 +0.01    +0.222 HD
DOCKED: ENDBRANCH  29  33
DOCKED: ENDBRANCH  28  29
DOCKED: ENDBRANCH   3  28
DOCKED: BRANCH   5  35
DOCKED: ATOM     35  O   UNL d   1      46.939  44.638  21.092 -0.03 +0.00    -0.278 OA
DOCKED: BRANCH  35  36
DOCKED: ATOM     36  P   UNL d   1      45.468  44.030  20.981 -0.09 -0.00    +0.473 P 
DOCKED: ATOM     37  O   UNL d   1      45.168  43.297  19.712 -0.24 -0.00    -0.228 OA
DOCKED: BRANCH  36  38
DOCKED: ATOM     38  O   UNL d   1      45.387  43.131  22.292 -0.03 +0.00    -0.303 OA
DOCKED: ATOM     39  H   UNL d   1      44.951  43.644  23.007 +0.05 -0.00    +0.222 HD
DOCKED: ENDBRANCH  36  38
DOCKED: BRANCH  36  40
DOCKED: ATOM     40  O   UNL d   1      44.555  45.287  21.321 -0.08 -0.01    -0.303 OA
DOCKED: ATOM     41  H   UNL d   1      44.722  45.624  22.230 +0.04 +0.01    +0.222 HD
DOCKED: ENDBRANCH  36  40
DOCKED: ENDBRANCH  35  36
DOCKED: ENDBRANCH   5  35
DOCKED: BRANCH   4  42
DOCKED: ATOM     42  O   UNL d   1      46.149  47.218  22.190 -0.01 -0.01    -0.278 OA
DOCKED: BRANCH  42  43
DOCKED: ATOM     43  P   UNL d   1      45.750  46.849  23.690 +0.00 +0.02    +0.473 P 
DOCKED: ATOM     44  O   UNL d   1      44.370  47.188  24.137 -0.01 -0.01    -0.228 OA
DOCKED: BRANCH  43  45
DOCKED: ATOM     45  O   UNL d   1      46.098  45.299  23.772 -0.00 -0.01    -0.303 OA
DOCKED: ATOM     46  H   UNL d   1      46.142  44.894  22.883 +0.03 +0.00    +0.222 HD
DOCKED: ENDBRANCH  43  45
DOCKED: BRANCH  43  47
DOCKED: ATOM     47  O   UNL d   1      46.935  47.495  24.554 -0.00 -0.01    -0.303 OA
DOCKED: ATOM     48  H   UNL d   1      47.198  48.350  24.153 +0.00 +0.01    +0.222 HD
DOCKED: ENDBRANCH  43  47
DOCKED: ENDBRANCH  42  43
DOCKED: ENDBRANCH   4  42
DOCKED: TORSDOF 24
DOCKED: TER
DOCKED: ENDMDL
________________________________________________________________________________


	BEGINNING GENETIC ALGORITHM DOCKING 73 of 100
Run: 73 Seed: 878140247 1741116741 [ Run 73 of 100 GA/GALS ]
Beginning LAMARCKIAN GENETIC ALGORITHM (LGA), with a maximum of 25000000 energy evaluations.

Final-Value: -18.802


	FINAL GENETIC ALGORITHM DOCKED STATE
	_______________________________________________


Detailed state:  trans 26.941 30.659 31.612 quatxyzw -0.825136 0.375512 0.392245 -0.155838 center 0.035 0.082 -0.065 ntor 24 -154.4108 -22.1446 180.0000 -7.2968 11.0132 -111.9323 25.2362 -113.3325 -7.7661 25.1445 148.7228 132.2151 97.3316 -180.0000 -11.2217 -73.0028 -178.8315 58.8582 -17.1177 17.5954 155.2265 20.9384 -29.7647 -11.5089
State:	 26.941  30.659  31.612  -0.835  0.380  0.397 -162.069   -154.41  -22.14  180.00   -7.30   11.01 -111.93   25.24 -113.33   -7.77   25.14  148.72  132.22   97.33 -180.00  -11.22  -73.00 -178.83   58.86  -17.12   17.60  155.23   20.94  -29.76  -11.51

DOCKED: MODEL       73
DOCKED: USER    Run = 73
DOCKED: USER    DPF = D:/Protein_go_brrr/autodock/final/6BB5/IHP/dock.dpf
DOCKED: USER  
DOCKED: USER    Estimated Free Energy of Binding    =   +3.89 kcal/mol  [=(1)+(2)+(3)-(4)]
DOCKED: USER    
DOCKED: USER    (1) Final Intermolecular Energy     =   -3.27 kcal/mol
DOCKED: USER        vdW + Hbond + desolv Energy     =   -3.42 kcal/mol
DOCKED: USER        Electrostatic Energy            =   +0.16 kcal/mol
DOCKED: USER    (2) Final Total Internal Energy     =  -15.54 kcal/mol
DOCKED: USER    (3) Torsional Free Energy           =   +7.16 kcal/mol
DOCKED: USER    (4) Unbound System's Energy  [=(2)] =  -15.54 kcal/mol
DOCKED: USER    
DOCKED: USER    
DOCKED: USER    NEWDPF move IHP_ideal_opt.pdbqt
DOCKED: USER    NEWDPF about 0.035000 0.082000 -0.065000
DOCKED: USER    NEWDPF tran0 26.940916 30.658866 31.611936
DOCKED: USER    NEWDPF quaternion0 -0.825136 0.375512 0.392245 -0.155838
DOCKED: USER    NEWDPF axisangle0 -0.835341 0.380157 0.397097 -162.069233
DOCKED: USER    NEWDPF quat0 -0.835341 0.380157 0.397097 -162.069233
DOCKED: USER    NEWDPF dihe0 -154.41 -22.14 180.00 -7.30 11.01 -111.93 25.24 -113.33 -7.77 25.14 148.72 132.22 97.33 -180.00 -11.22 -73.00 -178.83 58.86 -17.12 17.60 155.23 20.94 -29.76 -11.51 
DOCKED: USER  keepresnum = 1 
DOCKED: USER  
DOCKED: REMARK  24 active torsions:
DOCKED: REMARK  status: ('A' for Active; 'I' for Inactive)
DOCKED: REMARK    1  A    between atoms: C_1  and  O_7 
DOCKED: REMARK    2  A    between atoms: C_2  and  O_12 
DOCKED: REMARK    3  A    between atoms: C_3  and  O_17 
DOCKED: REMARK    4  A    between atoms: C_4  and  O_22 
DOCKED: REMARK    5  A    between atoms: C_5  and  O_27 
DOCKED: REMARK    6  A    between atoms: C_6  and  O_32 
DOCKED: REMARK    7  A    between atoms: O_7  and  P_8 
DOCKED: REMARK    8  A    between atoms: P_8  and  O_10 
DOCKED: REMARK    9  A    between atoms: P_8  and  O_11 
DOCKED: REMARK   10  A    between atoms: O_12  and  P_13 
DOCKED: REMARK   11  A    between atoms: P_13  and  O_15 
DOCKED: REMARK   12  A    between atoms: P_13  and  O_16 
DOCKED: REMARK   13  A    between atoms: O_17  and  P_18 
DOCKED: REMARK   14  A    between atoms: P_18  and  O_20 
DOCKED: REMARK   15  A    between atoms: P_18  and  O_21 
DOCKED: REMARK   16  A    between atoms: O_22  and  P_23 
DOCKED: REMARK   17  A    between atoms: P_23  and  O_25 
DOCKED: REMARK   18  A    between atoms: P_23  and  O_26 
DOCKED: REMARK   19  A    between atoms: O_27  and  P_28 
DOCKED: REMARK   20  A    between atoms: P_28  and  O_30 
DOCKED: REMARK   21  A    between atoms: P_28  and  O_31 
DOCKED: REMARK   22  A    between atoms: O_32  and  P_33 
DOCKED: REMARK   23  A    between atoms: P_33  and  O_35 
DOCKED: REMARK   24  A    between atoms: P_33  and  O_36 
DOCKED: USER                              x       y       z     vdW  Elec       q    Type
DOCKED: USER                           _______ _______ _______ _____ _____    ______ ____
DOCKED: ROOT
DOCKED: ATOM      1  C   UNL d   1      27.694  31.066  30.112 -0.09 -0.05    +0.194 C 
DOCKED: ATOM      2  C   UNL d   1      27.975  32.022  31.273 -0.08 -0.06    +0.194 C 
DOCKED: ATOM      3  C   UNL d   1      26.709  32.319  32.080 -0.07 +0.01    +0.194 C 
DOCKED: ATOM      4  C   UNL d   1      25.974  31.060  32.533 -0.04 +0.09    +0.194 C 
DOCKED: ATOM      5  C   UNL d   1      25.775  30.028  31.431 -0.07 +0.08    +0.194 C 
DOCKED: ATOM      6  C   UNL d   1      27.024  29.776  30.584 -0.07 +0.00    +0.194 C 
DOCKED: ENDROOT
DOCKED: BRANCH   1   7
DOCKED: ATOM      7  O   UNL d   1      28.945  30.705  29.520 -0.11 +0.08    -0.278 OA
DOCKED: BRANCH   7   8
DOCKED: ATOM      8  P   UNL d   1      29.030  30.607  27.928 -0.17 -0.23    +0.473 P 
DOCKED: ATOM      9  O   UNL d   1      30.357  30.946  27.345 -0.39 +0.10    -0.228 OA
DOCKED: BRANCH   8  10
DOCKED: ATOM     10  O   UNL d   1      28.566  29.114  27.607 -0.23 +0.18    -0.303 OA
DOCKED: ATOM     11  H   UNL d   1      27.747  28.914  28.098 +0.10 -0.14    +0.222 HD
DOCKED: ENDBRANCH   8  10
DOCKED: BRANCH   8  12
DOCKED: ATOM     12  O   UNL d   1      27.800  31.459  27.394 -0.19 +0.29    -0.303 OA
DOCKED: ATOM     13  H   UNL d   1      26.929  31.056  27.610 +0.08 -0.18    +0.222 HD
DOCKED: ENDBRANCH   8  12
DOCKED: ENDBRANCH   7   8
DOCKED: ENDBRANCH   1   7
DOCKED: BRANCH   2  14
DOCKED: ATOM     14  O   UNL d   1      28.942  31.425  32.146 -0.04 +0.02    -0.278 OA
DOCKED: BRANCH  14  15
DOCKED: ATOM     15  P   UNL d   1      29.918  32.428  32.924 -0.04 -0.06    +0.473 P 
DOCKED: ATOM     16  O   UNL d   1      31.388  32.207  32.749 -0.09 -0.02    -0.228 OA
DOCKED: BRANCH  15  17
DOCKED: ATOM     17  O   UNL d   1      29.450  33.874  32.446 -0.10 +0.22    -0.303 OA
DOCKED: ATOM     18  H   UNL d   1      28.695  34.192  32.977 +0.04 -0.13    +0.222 HD
DOCKED: ENDBRANCH  15  17
DOCKED: BRANCH  15  19
DOCKED: ATOM     19  O   UNL d   1      29.395  32.404  34.426 -0.00 -0.00    -0.303 OA
DOCKED: ATOM     20  H   UNL d   1      28.509  32.801  34.506 +0.02 -0.01    +0.222 HD
DOCKED: ENDBRANCH  15  19
DOCKED: ENDBRANCH  14  15
DOCKED: ENDBRANCH   2  14
DOCKED: BRANCH   6  21
DOCKED: ATOM     21  O   UNL d   1      26.598  29.075  29.418 -0.10 +0.05    -0.278 OA
DOCKED: BRANCH  21  22
DOCKED: ATOM     22  P   UNL d   1      25.414  29.666  28.527 -0.09 -0.07    +0.473 P 
DOCKED: ATOM     23  O   UNL d   1      25.076  31.112  28.674 -0.16 -0.01    -0.228 OA
DOCKED: BRANCH  22  24
DOCKED: ATOM     24  O   UNL d   1      25.860  29.231  27.063 -0.25 +0.19    -0.303 OA
DOCKED: ATOM     25  H   UNL d   1      26.776  29.573  26.905 +0.11 -0.17    +0.222 HD
DOCKED: ENDBRANCH  22  24
DOCKED: BRANCH  22  26
DOCKED: ATOM     26  O   UNL d   1      24.228  28.632  28.834 -0.13 -0.02    -0.303 OA
DOCKED: ATOM     27  H   UNL d   1      23.881  28.798  29.734 +0.08 +0.08    +0.222 HD
DOCKED: ENDBRANCH  22  26
DOCKED: ENDBRANCH  21  22
DOCKED: ENDBRANCH   6  21
DOCKED: BRANCH   3  28
DOCKED: ATOM     28  O   UNL d   1      27.108  32.974  33.277 -0.03 +0.01    -0.278 OA
DOCKED: BRANCH  28  29
DOCKED: ATOM     29  P   UNL d   1      26.377  34.309  33.746 -0.02 -0.01    +0.473 P 
DOCKED: ATOM     30  O   UNL d   1      27.081  35.575  33.417 -0.06 +0.09    -0.228 OA
DOCKED: BRANCH  29  31
DOCKED: ATOM     31  O   UNL d   1      24.937  34.086  33.085 -0.06 -0.15    -0.303 OA
DOCKED: ATOM     32  H   UNL d   1      24.438  33.436  33.632 +0.02 +0.16    +0.222 HD
DOCKED: ENDBRANCH  29  31
DOCKED: BRANCH  29  33
DOCKED: ATOM     33  O   UNL d   1      26.105  34.017  35.288 -0.00 -0.02    -0.303 OA
DOCKED: ATOM     34  H   UNL d   1      25.615  33.162  35.371 +0.01 +0.04    +0.222 HD
DOCKED: ENDBRANCH  29  33
DOCKED: ENDBRANCH  28  29
DOCKED: ENDBRANCH   3  28
DOCKED: BRANCH   5  35
DOCKED: ATOM     35  O   UNL d   1      25.465  28.805  32.097 -0.21 -0.09    -0.278 OA
DOCKED: BRANCH  35  36
DOCKED: ATOM     36  P   UNL d   1      23.954  28.303  32.195 -0.06 +0.20    +0.473 P 
DOCKED: ATOM     37  O   UNL d   1      23.524  27.814  33.541 -0.03 -0.06    -0.228 OA
DOCKED: BRANCH  36  38
DOCKED: ATOM     38  O   UNL d   1      23.153  29.577  31.674 -0.07 -0.38    -0.303 OA
DOCKED: ATOM     39  H   UNL d   1      23.110  30.245  32.392 +0.02 +0.41    +0.222 HD
DOCKED: ENDBRANCH  36  38
DOCKED: BRANCH  36  40
DOCKED: ATOM     40  O   UNL d   1      23.860  27.271  30.988 -0.28 -0.07    -0.303 OA
DOCKED: ATOM     41  H   UNL d   1      24.601  27.385  30.353 +0.05 +0.03    +0.222 HD
DOCKED: ENDBRANCH  36  40
DOCKED: ENDBRANCH  35  36
DOCKED: ENDBRANCH   5  35
DOCKED: BRANCH   4  42
DOCKED: ATOM     42  O   UNL d   1      24.673  31.472  32.965 -0.52 -0.34    -0.278 OA
DOCKED: BRANCH  42  43
DOCKED: ATOM     43  P   UNL d   1      24.212  31.132  34.454 -0.03 +0.27    +0.473 P 
DOCKED: ATOM     44  O   UNL d   1      24.207  32.247  35.442 -0.03 -0.08    -0.228 OA
DOCKED: BRANCH  43  45
DOCKED: ATOM     45  O   UNL d   1      22.790  30.452  34.232 -0.06 -0.22    -0.303 OA
DOCKED: ATOM     46  H   UNL d   1      22.879  29.537  33.899 +0.02 +0.13    +0.222 HD
DOCKED: ENDBRANCH  43  45
DOCKED: BRANCH  43  47
DOCKED: ATOM     47  O   UNL d   1      25.120  29.869  34.840 -0.00 -0.09    -0.303 OA
DOCKED: ATOM     48  H   UNL d   1      25.076  29.208  34.119 +0.02 +0.07    +0.222 HD
DOCKED: ENDBRANCH  43  47
DOCKED: ENDBRANCH  42  43
DOCKED: ENDBRANCH   4  42
DOCKED: TORSDOF 24
DOCKED: TER
DOCKED: ENDMDL
________________________________________________________________________________


	BEGINNING GENETIC ALGORITHM DOCKING 74 of 100
Run: 74 Seed: 1013663060 953035310 [ Run 74 of 100 GA/GALS ]
Beginning LAMARCKIAN GENETIC ALGORITHM (LGA), with a maximum of 25000000 energy evaluations.

Final-Value: -19.046


	FINAL GENETIC ALGORITHM DOCKED STATE
	_______________________________________________


Detailed state:  trans 3.192 43.214 -7.002 quatxyzw -0.664172 0.571431 0.431375 0.215075 center 0.035 0.082 -0.065 ntor 24 104.1032 125.8843 76.8628 61.7827 105.0921 94.0664 -98.8778 8.1216 2.7087 67.1928 140.6876 112.3263 -71.8173 122.3220 179.9858 168.2076 -55.1974 -150.0398 -149.0799 -11.6249 12.0972 20.0144 174.7970 0.9127
State:	  3.192  43.214  -7.002  -0.680  0.585  0.442 155.160    104.10  125.88   76.86   61.78  105.09   94.07  -98.88    8.12    2.71   67.19  140.69  112.33  -71.82  122.32  179.99  168.21  -55.20 -150.04 -149.08  -11.62   12.10   20.01  174.80    0.91

DOCKED: MODEL       74
DOCKED: USER    Run = 74
DOCKED: USER    DPF = D:/Protein_go_brrr/autodock/final/6BB5/IHP/dock.dpf
DOCKED: USER  
DOCKED: USER    Estimated Free Energy of Binding    =   +4.78 kcal/mol  [=(1)+(2)+(3)-(4)]
DOCKED: USER    
DOCKED: USER    (1) Final Intermolecular Energy     =   -2.38 kcal/mol
DOCKED: USER        vdW + Hbond + desolv Energy     =   -2.34 kcal/mol
DOCKED: USER        Electrostatic Energy            =   -0.04 kcal/mol
DOCKED: USER    (2) Final Total Internal Energy     =  -16.67 kcal/mol
DOCKED: USER    (3) Torsional Free Energy           =   +7.16 kcal/mol
DOCKED: USER    (4) Unbound System's Energy  [=(2)] =  -16.67 kcal/mol
DOCKED: USER    
DOCKED: USER    
DOCKED: USER    NEWDPF move IHP_ideal_opt.pdbqt
DOCKED: USER    NEWDPF about 0.035000 0.082000 -0.065000
DOCKED: USER    NEWDPF tran0 3.191892 43.213596 -7.001535
DOCKED: USER    NEWDPF quaternion0 -0.664172 0.571431 0.431375 0.215075
DOCKED: USER    NEWDPF axisangle0 -0.680088 0.585125 0.441712 155.160132
DOCKED: USER    NEWDPF quat0 -0.680088 0.585125 0.441712 155.160132
DOCKED: USER    NEWDPF dihe0 104.10 125.88 76.86 61.78 105.09 94.07 -98.88 8.12 2.71 67.19 140.69 112.33 -71.82 122.32 179.99 168.21 -55.20 -150.04 -149.08 -11.62 12.10 20.01 174.80 0.91 
DOCKED: USER  keepresnum = 1 
DOCKED: USER  
DOCKED: REMARK  24 active torsions:
DOCKED: REMARK  status: ('A' for Active; 'I' for Inactive)
DOCKED: REMARK    1  A    between atoms: C_1  and  O_7 
DOCKED: REMARK    2  A    between atoms: C_2  and  O_12 
DOCKED: REMARK    3  A    between atoms: C_3  and  O_17 
DOCKED: REMARK    4  A    between atoms: C_4  and  O_22 
DOCKED: REMARK    5  A    between atoms: C_5  and  O_27 
DOCKED: REMARK    6  A    between atoms: C_6  and  O_32 
DOCKED: REMARK    7  A    between atoms: O_7  and  P_8 
DOCKED: REMARK    8  A    between atoms: P_8  and  O_10 
DOCKED: REMARK    9  A    between atoms: P_8  and  O_11 
DOCKED: REMARK   10  A    between atoms: O_12  and  P_13 
DOCKED: REMARK   11  A    between atoms: P_13  and  O_15 
DOCKED: REMARK   12  A    between atoms: P_13  and  O_16 
DOCKED: REMARK   13  A    between atoms: O_17  and  P_18 
DOCKED: REMARK   14  A    between atoms: P_18  and  O_20 
DOCKED: REMARK   15  A    between atoms: P_18  and  O_21 
DOCKED: REMARK   16  A    between atoms: O_22  and  P_23 
DOCKED: REMARK   17  A    between atoms: P_23  and  O_25 
DOCKED: REMARK   18  A    between atoms: P_23  and  O_26 
DOCKED: REMARK   19  A    between atoms: O_27  and  P_28 
DOCKED: REMARK   20  A    between atoms: P_28  and  O_30 
DOCKED: REMARK   21  A    between atoms: P_28  and  O_31 
DOCKED: REMARK   22  A    between atoms: O_32  and  P_33 
DOCKED: REMARK   23  A    between atoms: P_33  and  O_35 
DOCKED: REMARK   24  A    between atoms: P_33  and  O_36 
DOCKED: USER                              x       y       z     vdW  Elec       q    Type
DOCKED: USER                           _______ _______ _______ _____ _____    ______ ____
DOCKED: ROOT
DOCKED: ATOM      1  C   UNL d   1       3.022  42.420  -8.526 -0.01 +0.02    +0.194 C 
DOCKED: ATOM      2  C   UNL d   1       3.817  43.727  -8.547 -0.03 +0.03    +0.194 C 
DOCKED: ATOM      3  C   UNL d   1       3.149  44.809  -7.696 -0.04 +0.05    +0.194 C 
DOCKED: ATOM      4  C   UNL d   1       2.832  44.348  -6.276 -0.07 +0.07    +0.194 C 
DOCKED: ATOM      5  C   UNL d   1       2.141  42.992  -6.203 -0.01 +0.05    +0.194 C 
DOCKED: ATOM      6  C   UNL d   1       2.772  41.926  -7.101 -0.01 +0.03    +0.194 C 
DOCKED: ENDROOT
DOCKED: BRANCH   1   7
DOCKED: ATOM      7  O   UNL d   1       3.793  41.419  -9.195 -0.00 -0.01    -0.278 OA
DOCKED: BRANCH   7   8
DOCKED: ATOM      8  P   UNL d   1       4.836  40.565  -8.337 +0.01 +0.01    +0.473 P 
DOCKED: ATOM      9  O   UNL d   1       5.249  41.184  -7.048 -0.05 -0.01    -0.228 OA
DOCKED: BRANCH   8  10
DOCKED: ATOM     10  O   UNL d   1       4.120  39.151  -8.154 -0.01 -0.02    -0.303 OA
DOCKED: ATOM     11  H   UNL d   1       3.230  39.282  -7.776 +0.01 +0.02    +0.222 HD
DOCKED: ENDBRANCH   8  10
DOCKED: BRANCH   8  12
DOCKED: ATOM     12  O   UNL d   1       6.011  40.214  -9.347 -0.00 +0.02    -0.303 OA
DOCKED: ATOM     13  H   UNL d   1       6.651  40.952  -9.466 +0.03 -0.03    +0.222 HD
DOCKED: ENDBRANCH   8  12
DOCKED: ENDBRANCH   7   8
DOCKED: ENDBRANCH   1   7
DOCKED: BRANCH   2  14
DOCKED: ATOM     14  O   UNL d   1       5.130  43.483  -8.027 -0.07 -0.04    -0.278 OA
DOCKED: BRANCH  14  15
DOCKED: ATOM     15  P   UNL d   1       6.357  43.786  -9.010 -0.03 -0.02    +0.473 P 
DOCKED: ATOM     16  O   UNL d   1       7.730  43.581  -8.453 -0.24 +0.09    -0.228 OA
DOCKED: BRANCH  15  17
DOCKED: ATOM     17  O   UNL d   1       6.065  42.877 -10.285 -0.01 +0.03    -0.303 OA
DOCKED: ATOM     18  H   UNL d   1       5.433  42.164 -10.072 +0.02 -0.01    +0.222 HD
DOCKED: ENDBRANCH  15  17
DOCKED: BRANCH  15  19
DOCKED: ATOM     19  O   UNL d   1       6.058  45.241  -9.580 -0.06 -0.01    -0.303 OA
DOCKED: ATOM     20  H   UNL d   1       5.247  45.620  -9.194 +0.04 +0.03    +0.222 HD
DOCKED: ENDBRANCH  15  19
DOCKED: ENDBRANCH  14  15
DOCKED: ENDBRANCH   2  14
DOCKED: BRANCH   6  21
DOCKED: ATOM     21  O   UNL d   1       1.837  40.854  -7.187 +0.00 -0.04    -0.278 OA
DOCKED: BRANCH  21  22
DOCKED: ATOM     22  P   UNL d   1       1.899  39.662  -6.129 +0.01 +0.08    +0.473 P 
DOCKED: ATOM     23  O   UNL d   1       1.456  38.307  -6.567 -0.00 -0.03    -0.228 OA
DOCKED: BRANCH  22  24
DOCKED: ATOM     24  O   UNL d   1       3.409  39.743  -5.635 -0.00 -0.05    -0.303 OA
DOCKED: ATOM     25  H   UNL d   1       3.657  40.699  -5.558 +0.03 +0.04    +0.222 HD
DOCKED: ENDBRANCH  22  24
DOCKED: BRANCH  22  26
DOCKED: ATOM     26  O   UNL d   1       1.109  40.291  -4.883 +0.00 -0.08    -0.303 OA
DOCKED: ATOM     27  H   UNL d   1       1.710  40.884  -4.388 +0.02 +0.07    +0.222 HD
DOCKED: ENDBRANCH  22  26
DOCKED: ENDBRANCH  21  22
DOCKED: ENDBRANCH   6  21
DOCKED: BRANCH   3  28
DOCKED: ATOM     28  O   UNL d   1       4.080  45.873  -7.549 -0.04 -0.11    -0.278 OA
DOCKED: BRANCH  28  29
DOCKED: ATOM     29  P   UNL d   1       3.637  47.376  -7.837 -0.04 +0.17    +0.473 P 
DOCKED: ATOM     30  O   UNL d   1       4.214  48.399  -6.928 -0.14 -0.13    -0.228 OA
DOCKED: BRANCH  29  31
DOCKED: ATOM     31  O   UNL d   1       4.016  47.486  -9.388 -0.02 -0.05    -0.303 OA
DOCKED: ATOM     32  H   UNL d   1       4.924  47.126  -9.515 +0.03 +0.03    +0.222 HD
DOCKED: ENDBRANCH  29  31
DOCKED: BRANCH  29  33
DOCKED: ATOM     33  O   UNL d   1       2.050  47.256  -7.870 -0.01 -0.09    -0.303 OA
DOCKED: ATOM     34  H   UNL d   1       1.726  47.030  -6.964 +0.02 +0.09    +0.222 HD
DOCKED: ENDBRANCH  29  33
DOCKED: ENDBRANCH  28  29
DOCKED: ENDBRANCH   3  28
DOCKED: BRANCH   5  35
DOCKED: ATOM     35  O   UNL d   1       2.295  42.551  -4.855 -0.01 -0.08    -0.278 OA
DOCKED: BRANCH  35  36
DOCKED: ATOM     36  P   UNL d   1       3.746  42.464  -4.198 -0.07 +0.16    +0.473 P 
DOCKED: ATOM     37  O   UNL d   1       4.893  42.622  -5.145 -0.60 -0.09    -0.228 OA
DOCKED: BRANCH  36  38
DOCKED: ATOM     38  O   UNL d   1       3.664  43.590  -3.076 -0.15 -0.15    -0.303 OA
DOCKED: ATOM     39  H   UNL d   1       3.600  44.470  -3.507 +0.08 +0.14    +0.222 HD
DOCKED: ENDBRANCH  36  38
DOCKED: BRANCH  36  40
DOCKED: ATOM     40  O   UNL d   1       3.668  41.102  -3.381 -0.06 -0.11    -0.303 OA
DOCKED: ATOM     41  H   UNL d   1       3.004  40.485  -3.763 +0.04 +0.08    +0.222 HD
DOCKED: ENDBRANCH  36  40
DOCKED: ENDBRANCH  35  36
DOCKED: ENDBRANCH   5  35
DOCKED: BRANCH   4  42
DOCKED: ATOM     42  O   UNL d   1       1.931  45.311  -5.718 -0.03 -0.13    -0.278 OA
DOCKED: BRANCH  42  43
DOCKED: ATOM     43  P   UNL d   1       2.451  46.270  -4.555 -0.03 +0.50    +0.473 P 
DOCKED: ATOM     44  O   UNL d   1       2.006  45.969  -3.165 -0.12 -0.23    -0.228 OA
DOCKED: BRANCH  43  45
DOCKED: ATOM     45  O   UNL d   1       4.029  46.238  -4.755 -0.65 -0.40    -0.303 OA
DOCKED: ATOM     46  H   UNL d   1       4.293  46.675  -5.589 +0.05 +0.24    +0.222 HD
DOCKED: ENDBRANCH  43  45
DOCKED: BRANCH  43  47
DOCKED: ATOM     47  O   UNL d   1       2.084  47.734  -5.096 -0.15 -0.37    -0.303 OA
DOCKED: ATOM     48  H   UNL d   1       2.649  47.943  -5.868 +0.04 +0.22    +0.222 HD
DOCKED: ENDBRANCH  43  47
DOCKED: ENDBRANCH  42  43
DOCKED: ENDBRANCH   4  42
DOCKED: TORSDOF 24
DOCKED: TER
DOCKED: ENDMDL
________________________________________________________________________________


	BEGINNING GENETIC ALGORITHM DOCKING 75 of 100
Run: 75 Seed: 556468220 834214473 [ Run 75 of 100 GA/GALS ]
Beginning LAMARCKIAN GENETIC ALGORITHM (LGA), with a maximum of 25000000 energy evaluations.

Final-Value: -19.090


	FINAL GENETIC ALGORITHM DOCKED STATE
	_______________________________________________


Detailed state:  trans 44.938 52.303 14.905 quatxyzw -0.711467 -0.119496 -0.035398 0.691579 center 0.035 0.082 -0.065 ntor 24 -104.2344 22.6462 48.6214 -6.5087 139.7121 85.4838 28.1612 -92.5377 -14.0642 33.5221 47.0750 165.0645 -157.8207 158.6666 180.0000 87.2284 167.8364 -156.2781 40.7517 -5.3585 8.6295 -7.8086 176.6312 10.7116
State:	 44.938  52.303  14.905  -0.985 -0.165 -0.049 92.490   -104.23   22.65   48.62   -6.51  139.71   85.48   28.16  -92.54  -14.06   33.52   47.08  165.06 -157.82  158.67  180.00   87.23  167.84 -156.28   40.75   -5.36    8.63   -7.81  176.63   10.71

DOCKED: MODEL       75
DOCKED: USER    Run = 75
DOCKED: USER    DPF = D:/Protein_go_brrr/autodock/final/6BB5/IHP/dock.dpf
DOCKED: USER  
DOCKED: USER    Estimated Free Energy of Binding    =   +2.20 kcal/mol  [=(1)+(2)+(3)-(4)]
DOCKED: USER    
DOCKED: USER    (1) Final Intermolecular Energy     =   -4.96 kcal/mol
DOCKED: USER        vdW + Hbond + desolv Energy     =   -4.42 kcal/mol
DOCKED: USER        Electrostatic Energy            =   -0.54 kcal/mol
DOCKED: USER    (2) Final Total Internal Energy     =  -14.13 kcal/mol
DOCKED: USER    (3) Torsional Free Energy           =   +7.16 kcal/mol
DOCKED: USER    (4) Unbound System's Energy  [=(2)] =  -14.13 kcal/mol
DOCKED: USER    
DOCKED: USER    
DOCKED: USER    NEWDPF move IHP_ideal_opt.pdbqt
DOCKED: USER    NEWDPF about 0.035000 0.082000 -0.065000
DOCKED: USER    NEWDPF tran0 44.937941 52.303190 14.905415
DOCKED: USER    NEWDPF quaternion0 -0.711467 -0.119496 -0.035398 0.691579
DOCKED: USER    NEWDPF axisangle0 -0.985002 -0.165438 -0.049008 92.489501
DOCKED: USER    NEWDPF quat0 -0.985002 -0.165438 -0.049008 92.489501
DOCKED: USER    NEWDPF dihe0 -104.23 22.65 48.62 -6.51 139.71 85.48 28.16 -92.54 -14.06 33.52 47.08 165.06 -157.82 158.67 180.00 87.23 167.84 -156.28 40.75 -5.36 8.63 -7.81 176.63 10.71 
DOCKED: USER  keepresnum = 1 
DOCKED: USER  
DOCKED: REMARK  24 active torsions:
DOCKED: REMARK  status: ('A' for Active; 'I' for Inactive)
DOCKED: REMARK    1  A    between atoms: C_1  and  O_7 
DOCKED: REMARK    2  A    between atoms: C_2  and  O_12 
DOCKED: REMARK    3  A    between atoms: C_3  and  O_17 
DOCKED: REMARK    4  A    between atoms: C_4  and  O_22 
DOCKED: REMARK    5  A    between atoms: C_5  and  O_27 
DOCKED: REMARK    6  A    between atoms: C_6  and  O_32 
DOCKED: REMARK    7  A    between atoms: O_7  and  P_8 
DOCKED: REMARK    8  A    between atoms: P_8  and  O_10 
DOCKED: REMARK    9  A    between atoms: P_8  and  O_11 
DOCKED: REMARK   10  A    between atoms: O_12  and  P_13 
DOCKED: REMARK   11  A    between atoms: P_13  and  O_15 
DOCKED: REMARK   12  A    between atoms: P_13  and  O_16 
DOCKED: REMARK   13  A    between atoms: O_17  and  P_18 
DOCKED: REMARK   14  A    between atoms: P_18  and  O_20 
DOCKED: REMARK   15  A    between atoms: P_18  and  O_21 
DOCKED: REMARK   16  A    between atoms: O_22  and  P_23 
DOCKED: REMARK   17  A    between atoms: P_23  and  O_25 
DOCKED: REMARK   18  A    between atoms: P_23  and  O_26 
DOCKED: REMARK   19  A    between atoms: O_27  and  P_28 
DOCKED: REMARK   20  A    between atoms: P_28  and  O_30 
DOCKED: REMARK   21  A    between atoms: P_28  and  O_31 
DOCKED: REMARK   22  A    between atoms: O_32  and  P_33 
DOCKED: REMARK   23  A    between atoms: P_33  and  O_35 
DOCKED: REMARK   24  A    between atoms: P_33  and  O_36 
DOCKED: USER                              x       y       z     vdW  Elec       q    Type
DOCKED: USER                           _______ _______ _______ _____ _____    ______ ____
DOCKED: ROOT
DOCKED: ATOM      1  C   UNL d   1      46.215  51.819  13.848 -0.07 -0.02    +0.194 C 
DOCKED: ATOM      2  C   UNL d   1      44.829  51.918  13.208 -0.09 -0.04    +0.194 C 
DOCKED: ATOM      3  C   UNL d   1      43.746  51.317  14.107 -0.11 -0.05    +0.194 C 
DOCKED: ATOM      4  C   UNL d   1      43.767  51.874  15.528 -0.08 -0.02    +0.194 C 
DOCKED: ATOM      5  C   UNL d   1      45.151  51.901  16.164 -0.07 -0.01    +0.194 C 
DOCKED: ATOM      6  C   UNL d   1      46.245  52.445  15.243 -0.03 -0.01    +0.194 C 
DOCKED: ENDROOT
DOCKED: BRANCH   1   7
DOCKED: ATOM      7  O   UNL d   1      47.135  52.550  13.033 -0.01 +0.02    -0.278 OA
DOCKED: BRANCH   7   8
DOCKED: ATOM      8  P   UNL d   1      47.734  51.835  11.736 +0.02 -0.06    +0.473 P 
DOCKED: ATOM      9  O   UNL d   1      49.154  51.407  11.850 -0.01 +0.03    -0.228 OA
DOCKED: BRANCH   8  10
DOCKED: ATOM     10  O   UNL d   1      46.732  50.623  11.466 -0.10 +0.05    -0.303 OA
DOCKED: ATOM     11  H   UNL d   1      46.088  50.878  10.779 +0.08 -0.05    +0.222 HD
DOCKED: ENDBRANCH   8  10
DOCKED: BRANCH   8  12
DOCKED: ATOM     12  O   UNL d   1      47.400  52.817  10.532 -0.00 +0.04    -0.303 OA
DOCKED: ATOM     13  H   UNL d   1      46.645  53.418  10.723 +0.03 -0.03    +0.222 HD
DOCKED: ENDBRANCH   8  12
DOCKED: ENDBRANCH   7   8
DOCKED: ENDBRANCH   1   7
DOCKED: BRANCH   2  14
DOCKED: ATOM     14  O   UNL d   1      44.518  53.298  12.979 -0.02 +0.04    -0.278 OA
DOCKED: BRANCH  14  15
DOCKED: ATOM     15  P   UNL d   1      44.094  53.697  11.487 -0.01 -0.16    +0.473 P 
DOCKED: ATOM     16  O   UNL d   1      44.513  55.052  11.010 -0.01 +0.04    -0.228 OA
DOCKED: BRANCH  15  17
DOCKED: ATOM     17  O   UNL d   1      44.678  52.518  10.589 -0.09 +0.14    -0.303 OA
DOCKED: ATOM     18  H   UNL d   1      45.605  52.322  10.826 +0.06 -0.06    +0.222 HD
DOCKED: ENDBRANCH  15  17
DOCKED: BRANCH  15  19
DOCKED: ATOM     19  O   UNL d   1      42.532  53.401  11.426 -0.03 +0.23    -0.303 OA
DOCKED: ATOM     20  H   UNL d   1      42.342  52.449  11.508 -0.44 -0.27    +0.222 HD
DOCKED: ENDBRANCH  15  19
DOCKED: ENDBRANCH  14  15
DOCKED: ENDBRANCH   2  14
DOCKED: BRANCH   6  21
DOCKED: ATOM     21  O   UNL d   1      47.494  52.091  15.833 -0.02 +0.01    -0.278 OA
DOCKED: BRANCH  21  22
DOCKED: ATOM     22  P   UNL d   1      48.234  53.124  16.798 +0.01 -0.00    +0.473 P 
DOCKED: ATOM     23  O   UNL d   1      49.725  53.092  16.854 -0.00 +0.00    -0.228 OA
DOCKED: BRANCH  22  24
DOCKED: ATOM     24  O   UNL d   1      47.614  54.512  16.327 +0.00 -0.00    -0.303 OA
DOCKED: ATOM     25  H   UNL d   1      46.682  54.562  16.662 +0.00 +0.00    +0.222 HD
DOCKED: ENDBRANCH  22  24
DOCKED: BRANCH  22  26
DOCKED: ATOM     26  O   UNL d   1      47.473  52.874  18.186 -0.00 -0.01    -0.303 OA
DOCKED: ATOM     27  H   UNL d   1      46.690  53.459  18.233 +0.01 +0.01    +0.222 HD
DOCKED: ENDBRANCH  22  26
DOCKED: ENDBRANCH  21  22
DOCKED: ENDBRANCH   6  21
DOCKED: BRANCH   3  28
DOCKED: ATOM     28  O   UNL d   1      42.485  51.697  13.571 -0.14 +0.06    -0.278 OA
DOCKED: BRANCH  28  29
DOCKED: ATOM     29  P   UNL d   1      41.618  50.654  12.737 -0.22 -0.16    +0.473 P 
DOCKED: ATOM     30  O   UNL d   1      41.199  49.434  13.474 -0.89 +0.03    -0.228 OA
DOCKED: BRANCH  29  31
DOCKED: ATOM     31  O   UNL d   1      40.455  51.618  12.207 -0.18 +0.14    -0.303 OA
DOCKED: ATOM     32  H   UNL d   1      40.794  52.121  11.432 -0.38 -0.27    +0.222 HD
DOCKED: ENDBRANCH  29  31
DOCKED: BRANCH  29  33
DOCKED: ATOM     33  O   UNL d   1      42.514  50.438  11.439 -0.53 +0.23    -0.303 OA
DOCKED: ATOM     34  H   UNL d   1      42.979  51.283  11.225 -0.33 -0.27    +0.222 HD
DOCKED: ENDBRANCH  29  33
DOCKED: ENDBRANCH  28  29
DOCKED: ENDBRANCH   3  28
DOCKED: BRANCH   5  35
DOCKED: ATOM     35  O   UNL d   1      45.052  52.795  17.271 -0.01 -0.01    -0.278 OA
DOCKED: BRANCH  35  36
DOCKED: ATOM     36  P   UNL d   1      44.475  54.268  17.066 +0.01 +0.04    +0.473 P 
DOCKED: ATOM     37  O   UNL d   1      45.054  55.318  17.959 -0.00 -0.02    -0.228 OA
DOCKED: BRANCH  36  38
DOCKED: ATOM     38  O   UNL d   1      44.741  54.509  15.514 +0.00 -0.01    -0.303 OA
DOCKED: ATOM     39  H   UNL d   1      45.663  54.824  15.392 +0.00 +0.00    +0.222 HD
DOCKED: ENDBRANCH  36  38
DOCKED: BRANCH  36  40
DOCKED: ATOM     40  O   UNL d   1      42.904  54.033  17.152 -0.01 -0.06    -0.303 OA
DOCKED: ATOM     41  H   UNL d   1      42.680  53.076  17.174 +0.03 +0.05    +0.222 HD
DOCKED: ENDBRANCH  36  40
DOCKED: ENDBRANCH  35  36
DOCKED: ENDBRANCH   5  35
DOCKED: BRANCH   4  42
DOCKED: ATOM     42  O   UNL d   1      42.955  51.006  16.326 -0.04 +0.02    -0.278 OA
DOCKED: BRANCH  42  43
DOCKED: ATOM     43  P   UNL d   1      41.462  51.449  16.673 -0.11 +0.17    +0.473 P 
DOCKED: ATOM     44  O   UNL d   1      41.164  51.810  18.087 -0.13 -0.18    -0.228 OA
DOCKED: BRANCH  43  45
DOCKED: ATOM     45  O   UNL d   1      41.196  52.623  15.632 -0.06 -0.09    -0.303 OA
DOCKED: ATOM     46  H   UNL d   1      42.030  53.055  15.358 +0.05 +0.03    +0.222 HD
DOCKED: ENDBRANCH  43  45
DOCKED: BRANCH  43  47
DOCKED: ATOM     47  O   UNL d   1      40.576  50.263  16.060 -0.27 -0.07    -0.303 OA
DOCKED: ATOM     48  H   UNL d   1      41.122  49.741  15.437 -0.23 -0.02    +0.222 HD
DOCKED: ENDBRANCH  43  47
DOCKED: ENDBRANCH  42  43
DOCKED: ENDBRANCH   4  42
DOCKED: TORSDOF 24
DOCKED: TER
DOCKED: ENDMDL
________________________________________________________________________________


	BEGINNING GENETIC ALGORITHM DOCKING 76 of 100
Run: 76 Seed: 2053827254 536704676 [ Run 76 of 100 GA/GALS ]
Beginning LAMARCKIAN GENETIC ALGORITHM (LGA), with a maximum of 25000000 energy evaluations.

Final-Value: -17.674


	FINAL GENETIC ALGORITHM DOCKED STATE
	_______________________________________________


Detailed state:  trans 27.716 16.609 26.119 quatxyzw -0.193494 -0.609092 -0.760592 -0.114313 center 0.035 0.082 -0.065 ntor 24 115.5949 70.1330 171.3259 6.1646 15.7265 180.0000 -50.5908 13.1839 84.9726 59.7896 -179.7793 118.8511 -179.2620 86.5240 -40.6007 167.6032 99.8078 -20.4620 16.6178 -32.6738 172.7180 -32.1039 -5.2517 2.9781
State:	 27.716  16.609  26.119  -0.195 -0.613 -0.766 -166.872    115.59   70.13  171.33    6.16   15.73  180.00  -50.59   13.18   84.97   59.79 -179.78  118.85 -179.26   86.52  -40.60  167.60   99.81  -20.46   16.62  -32.67  172.72  -32.10   -5.25    2.98

DOCKED: MODEL       76
DOCKED: USER    Run = 76
DOCKED: USER    DPF = D:/Protein_go_brrr/autodock/final/6BB5/IHP/dock.dpf
DOCKED: USER  
DOCKED: USER    Estimated Free Energy of Binding    =   +2.11 kcal/mol  [=(1)+(2)+(3)-(4)]
DOCKED: USER    
DOCKED: USER    (1) Final Intermolecular Energy     =   -5.04 kcal/mol
DOCKED: USER        vdW + Hbond + desolv Energy     =   -4.30 kcal/mol
DOCKED: USER        Electrostatic Energy            =   -0.75 kcal/mol
DOCKED: USER    (2) Final Total Internal Energy     =  -12.63 kcal/mol
DOCKED: USER    (3) Torsional Free Energy           =   +7.16 kcal/mol
DOCKED: USER    (4) Unbound System's Energy  [=(2)] =  -12.63 kcal/mol
DOCKED: USER    
DOCKED: USER    
DOCKED: USER    NEWDPF move IHP_ideal_opt.pdbqt
DOCKED: USER    NEWDPF about 0.035000 0.082000 -0.065000
DOCKED: USER    NEWDPF tran0 27.715780 16.609438 26.118786
DOCKED: USER    NEWDPF quaternion0 -0.193494 -0.609092 -0.760592 -0.114313
DOCKED: USER    NEWDPF axisangle0 -0.194770 -0.613111 -0.765610 -166.872028
DOCKED: USER    NEWDPF quat0 -0.194770 -0.613111 -0.765610 -166.872028
DOCKED: USER    NEWDPF dihe0 115.59 70.13 171.33 6.16 15.73 180.00 -50.59 13.18 84.97 59.79 -179.78 118.85 -179.26 86.52 -40.60 167.60 99.81 -20.46 16.62 -32.67 172.72 -32.10 -5.25 2.98 
DOCKED: USER  keepresnum = 1 
DOCKED: USER  
DOCKED: REMARK  24 active torsions:
DOCKED: REMARK  status: ('A' for Active; 'I' for Inactive)
DOCKED: REMARK    1  A    between atoms: C_1  and  O_7 
DOCKED: REMARK    2  A    between atoms: C_2  and  O_12 
DOCKED: REMARK    3  A    between atoms: C_3  and  O_17 
DOCKED: REMARK    4  A    between atoms: C_4  and  O_22 
DOCKED: REMARK    5  A    between atoms: C_5  and  O_27 
DOCKED: REMARK    6  A    between atoms: C_6  and  O_32 
DOCKED: REMARK    7  A    between atoms: O_7  and  P_8 
DOCKED: REMARK    8  A    between atoms: P_8  and  O_10 
DOCKED: REMARK    9  A    between atoms: P_8  and  O_11 
DOCKED: REMARK   10  A    between atoms: O_12  and  P_13 
DOCKED: REMARK   11  A    between atoms: P_13  and  O_15 
DOCKED: REMARK   12  A    between atoms: P_13  and  O_16 
DOCKED: REMARK   13  A    between atoms: O_17  and  P_18 
DOCKED: REMARK   14  A    between atoms: P_18  and  O_20 
DOCKED: REMARK   15  A    between atoms: P_18  and  O_21 
DOCKED: REMARK   16  A    between atoms: O_22  and  P_23 
DOCKED: REMARK   17  A    between atoms: P_23  and  O_25 
DOCKED: REMARK   18  A    between atoms: P_23  and  O_26 
DOCKED: REMARK   19  A    between atoms: O_27  and  P_28 
DOCKED: REMARK   20  A    between atoms: P_28  and  O_30 
DOCKED: REMARK   21  A    between atoms: P_28  and  O_31 
DOCKED: REMARK   22  A    between atoms: O_32  and  P_33 
DOCKED: REMARK   23  A    between atoms: P_33  and  O_35 
DOCKED: REMARK   24  A    between atoms: P_33  and  O_36 
DOCKED: USER                              x       y       z     vdW  Elec       q    Type
DOCKED: USER                           _______ _______ _______ _____ _____    ______ ____
DOCKED: ROOT
DOCKED: ATOM      1  C   UNL d   1      26.348  17.661  26.023 -0.05 +0.00    +0.194 C 
DOCKED: ATOM      2  C   UNL d   1      27.084  17.412  24.705 -0.07 +0.02    +0.194 C 
DOCKED: ATOM      3  C   UNL d   1      28.602  17.461  24.886 -0.15 +0.02    +0.194 C 
DOCKED: ATOM      4  C   UNL d   1      29.104  16.554  26.007 -0.11 +0.00    +0.194 C 
DOCKED: ATOM      5  C   UNL d   1      28.324  16.686  27.309 -0.09 +0.00    +0.194 C 
DOCKED: ATOM      6  C   UNL d   1      26.805  16.700  27.122 -0.04 +0.00    +0.194 C 
DOCKED: ENDROOT
DOCKED: BRANCH   1   7
DOCKED: ATOM      7  O   UNL d   1      24.954  17.429  25.807 -0.02 +0.00    -0.278 OA
DOCKED: BRANCH   7   8
DOCKED: ATOM      8  P   UNL d   1      23.979  18.691  25.725 -0.04 -0.03    +0.473 P 
DOCKED: ATOM      9  O   UNL d   1      22.797  18.636  26.628 -0.03 +0.03    -0.228 OA
DOCKED: BRANCH   8  10
DOCKED: ATOM     10  O   UNL d   1      24.932  19.937  26.013 -0.09 +0.04    -0.303 OA
DOCKED: ATOM     11  H   UNL d   1      25.541  19.720  26.744 +0.08 -0.03    +0.222 HD
DOCKED: ENDBRANCH   8  10
DOCKED: BRANCH   8  12
DOCKED: ATOM     12  O   UNL d   1      23.661  18.867  24.178 -0.08 +0.01    -0.303 OA
DOCKED: ATOM     13  H   UNL d   1      23.757  18.031  23.667 +0.04 +0.00    +0.222 HD
DOCKED: ENDBRANCH   8  12
DOCKED: ENDBRANCH   7   8
DOCKED: ENDBRANCH   1   7
DOCKED: BRANCH   2  14
DOCKED: ATOM     14  O   UNL d   1      26.725  16.117  24.208 -0.01 -0.05    -0.278 OA
DOCKED: BRANCH  14  15
DOCKED: ATOM     15  P   UNL d   1      25.596  16.074  23.072 -0.01 +0.12    +0.473 P 
DOCKED: ATOM     16  O   UNL d   1      25.779  15.067  21.980 -0.02 -0.09    -0.228 OA
DOCKED: BRANCH  15  17
DOCKED: ATOM     17  O   UNL d   1      24.240  15.867  23.881 -0.01 -0.02    -0.303 OA
DOCKED: ATOM     18  H   UNL d   1      23.961  16.695  24.318 +0.02 +0.01    +0.222 HD
DOCKED: ENDBRANCH  15  17
DOCKED: BRANCH  15  19
DOCKED: ATOM     19  O   UNL d   1      25.456  17.585  22.595 -0.06 -0.08    -0.303 OA
DOCKED: ATOM     20  H   UNL d   1      25.291  18.186  23.345 +0.05 +0.03    +0.222 HD
DOCKED: ENDBRANCH  15  19
DOCKED: ENDBRANCH  14  15
DOCKED: ENDBRANCH   2  14
DOCKED: BRANCH   6  21
DOCKED: ATOM     21  O   UNL d   1      26.243  17.166  28.346 -0.02 +0.00    -0.278 OA
DOCKED: BRANCH  21  22
DOCKED: ATOM     22  P   UNL d   1      26.423  18.694  28.768 -0.09 -0.00    +0.473 P 
DOCKED: ATOM     23  O   UNL d   1      27.374  19.535  27.985 -0.66 -0.03    -0.228 OA
DOCKED: BRANCH  22  24
DOCKED: ATOM     24  O   UNL d   1      24.918  19.211  28.766 -0.04 +0.02    -0.303 OA
DOCKED: ATOM     25  H   UNL d   1      24.503  18.950  27.905 +0.05 -0.02    +0.222 HD
DOCKED: ENDBRANCH  22  24
DOCKED: BRANCH  22  26
DOCKED: ATOM     26  O   UNL d   1      26.726  18.565  30.337 -0.08 +0.00    -0.303 OA
DOCKED: ATOM     27  H   UNL d   1      26.811  17.618  30.572 +0.04 -0.01    +0.222 HD
DOCKED: ENDBRANCH  22  26
DOCKED: ENDBRANCH  21  22
DOCKED: ENDBRANCH   6  21
DOCKED: BRANCH   3  28
DOCKED: ATOM     28  O   UNL d   1      29.192  16.951  23.696 -0.10 -0.08    -0.278 OA
DOCKED: BRANCH  28  29
DOCKED: ATOM     29  P   UNL d   1      29.298  17.865  22.396 -0.19 +0.31    +0.473 P 
DOCKED: ATOM     30  O   UNL d   1      30.549  17.715  21.609 -0.36 -0.21    -0.228 OA
DOCKED: BRANCH  29  31
DOCKED: ATOM     31  O   UNL d   1      27.929  17.473  21.666 -0.24 -0.36    -0.303 OA
DOCKED: ATOM     32  H   UNL d   1      27.448  16.824  22.230 +0.06 +0.17    +0.222 HD
DOCKED: ENDBRANCH  29  31
DOCKED: BRANCH  29  33
DOCKED: ATOM     33  O   UNL d   1      28.984  19.313  22.979 -0.24 -0.04    -0.303 OA
DOCKED: ATOM     34  H   UNL d   1      29.756  19.618  23.515 -0.20 -0.06    +0.222 HD
DOCKED: ENDBRANCH  29  33
DOCKED: ENDBRANCH  28  29
DOCKED: ENDBRANCH   3  28
DOCKED: BRANCH   5  35
DOCKED: ATOM     35  O   UNL d   1      28.643  15.524  28.071 -0.04 +0.01    -0.278 OA
DOCKED: BRANCH  35  36
DOCKED: ATOM     36  P   UNL d   1      29.216  15.667  29.553 -0.02 -0.04    +0.473 P 
DOCKED: ATOM     37  O   UNL d   1      28.765  14.620  30.522 -0.01 +0.02    -0.228 OA
DOCKED: BRANCH  36  38
DOCKED: ATOM     38  O   UNL d   1      30.787  15.687  29.295 -0.09 +0.08    -0.303 OA
DOCKED: ATOM     39  H   UNL d   1      30.954  15.849  28.341 +0.05 -0.07    +0.222 HD
DOCKED: ENDBRANCH  36  38
DOCKED: BRANCH  36  40
DOCKED: ATOM     40  O   UNL d   1      28.867  17.177  29.909 -0.08 +0.01    -0.303 OA
DOCKED: ATOM     41  H   UNL d   1      28.176  17.542  29.312 +0.05 +0.00    +0.222 HD
DOCKED: ENDBRANCH  36  40
DOCKED: ENDBRANCH  35  36
DOCKED: ENDBRANCH   5  35
DOCKED: BRANCH   4  42
DOCKED: ATOM     42  O   UNL d   1      30.453  16.944  26.284 -0.02 +0.02    -0.278 OA
DOCKED: BRANCH  42  43
DOCKED: ATOM     43  P   UNL d   1      31.642  15.978  25.840 -0.17 -0.14    +0.473 P 
DOCKED: ATOM     44  O   UNL d   1      31.386  15.051  24.703 -0.07 +0.01    -0.228 OA
DOCKED: BRANCH  43  45
DOCKED: ATOM     45  O   UNL d   1      32.844  16.992  25.595 -0.36 +0.18    -0.303 OA
DOCKED: ATOM     46  H   UNL d   1      33.515  16.930  26.304 -0.31 -0.40    +0.222 HD
DOCKED: ENDBRANCH  43  45
DOCKED: BRANCH  43  47
DOCKED: ATOM     47  O   UNL d   1      32.080  15.281  27.216 -0.14 +0.20    -0.303 OA
DOCKED: ATOM     48  H   UNL d   1      32.404  15.966  27.836 -0.33 -0.30    +0.222 HD
DOCKED: ENDBRANCH  43  47
DOCKED: ENDBRANCH  42  43
DOCKED: ENDBRANCH   4  42
DOCKED: TORSDOF 24
DOCKED: TER
DOCKED: ENDMDL
________________________________________________________________________________


	BEGINNING GENETIC ALGORITHM DOCKING 77 of 100
Run: 77 Seed: 95175981 1563293081 [ Run 77 of 100 GA/GALS ]
Beginning LAMARCKIAN GENETIC ALGORITHM (LGA), with a maximum of 25000000 energy evaluations.

Final-Value: -17.063


	FINAL GENETIC ALGORITHM DOCKED STATE
	_______________________________________________


Detailed state:  trans 2.822 22.984 19.963 quatxyzw 0.588077 -0.227777 -0.774072 -0.055649 center 0.035 0.082 -0.065 ntor 24 76.5549 112.0967 -165.9130 42.3574 65.2835 -79.1096 -42.0841 42.1013 12.9255 20.8329 18.3593 -150.3458 -80.1065 169.8094 74.0090 176.8898 -140.9874 -25.7009 -147.4415 -18.6223 34.3709 -17.5196 -39.6125 169.5064
State:	  2.822  22.984  19.963   0.589 -0.228 -0.775 -173.620     76.55  112.10 -165.91   42.36   65.28  -79.11  -42.08   42.10   12.93   20.83   18.36 -150.35  -80.11  169.81   74.01  176.89 -140.99  -25.70 -147.44  -18.62   34.37  -17.52  -39.61  169.51

DOCKED: MODEL       77
DOCKED: USER    Run = 77
DOCKED: USER    DPF = D:/Protein_go_brrr/autodock/final/6BB5/IHP/dock.dpf
DOCKED: USER  
DOCKED: USER    Estimated Free Energy of Binding    =   +4.17 kcal/mol  [=(1)+(2)+(3)-(4)]
DOCKED: USER    
DOCKED: USER    (1) Final Intermolecular Energy     =   -2.99 kcal/mol
DOCKED: USER        vdW + Hbond + desolv Energy     =   -2.98 kcal/mol
DOCKED: USER        Electrostatic Energy            =   -0.01 kcal/mol
DOCKED: USER    (2) Final Total Internal Energy     =  -14.07 kcal/mol
DOCKED: USER    (3) Torsional Free Energy           =   +7.16 kcal/mol
DOCKED: USER    (4) Unbound System's Energy  [=(2)] =  -14.07 kcal/mol
DOCKED: USER    
DOCKED: USER    
DOCKED: USER    NEWDPF move IHP_ideal_opt.pdbqt
DOCKED: USER    NEWDPF about 0.035000 0.082000 -0.065000
DOCKED: USER    NEWDPF tran0 2.822242 22.983819 19.962831
DOCKED: USER    NEWDPF quaternion0 0.588077 -0.227777 -0.774072 -0.055649
DOCKED: USER    NEWDPF axisangle0 0.588989 -0.228130 -0.775273 -173.619842
DOCKED: USER    NEWDPF quat0 0.588989 -0.228130 -0.775273 -173.619842
DOCKED: USER    NEWDPF dihe0 76.55 112.10 -165.91 42.36 65.28 -79.11 -42.08 42.10 12.93 20.83 18.36 -150.35 -80.11 169.81 74.01 176.89 -140.99 -25.70 -147.44 -18.62 34.37 -17.52 -39.61 169.51 
DOCKED: USER  keepresnum = 1 
DOCKED: USER  
DOCKED: REMARK  24 active torsions:
DOCKED: REMARK  status: ('A' for Active; 'I' for Inactive)
DOCKED: REMARK    1  A    between atoms: C_1  and  O_7 
DOCKED: REMARK    2  A    between atoms: C_2  and  O_12 
DOCKED: REMARK    3  A    between atoms: C_3  and  O_17 
DOCKED: REMARK    4  A    between atoms: C_4  and  O_22 
DOCKED: REMARK    5  A    between atoms: C_5  and  O_27 
DOCKED: REMARK    6  A    between atoms: C_6  and  O_32 
DOCKED: REMARK    7  A    between atoms: O_7  and  P_8 
DOCKED: REMARK    8  A    between atoms: P_8  and  O_10 
DOCKED: REMARK    9  A    between atoms: P_8  and  O_11 
DOCKED: REMARK   10  A    between atoms: O_12  and  P_13 
DOCKED: REMARK   11  A    between atoms: P_13  and  O_15 
DOCKED: REMARK   12  A    between atoms: P_13  and  O_16 
DOCKED: REMARK   13  A    between atoms: O_17  and  P_18 
DOCKED: REMARK   14  A    between atoms: P_18  and  O_20 
DOCKED: REMARK   15  A    between atoms: P_18  and  O_21 
DOCKED: REMARK   16  A    between atoms: O_22  and  P_23 
DOCKED: REMARK   17  A    between atoms: P_23  and  O_25 
DOCKED: REMARK   18  A    between atoms: P_23  and  O_26 
DOCKED: REMARK   19  A    between atoms: O_27  and  P_28 
DOCKED: REMARK   20  A    between atoms: P_28  and  O_30 
DOCKED: REMARK   21  A    between atoms: P_28  and  O_31 
DOCKED: REMARK   22  A    between atoms: O_32  and  P_33 
DOCKED: REMARK   23  A    between atoms: P_33  and  O_35 
DOCKED: REMARK   24  A    between atoms: P_33  and  O_36 
DOCKED: USER                              x       y       z     vdW  Elec       q    Type
DOCKED: USER                           _______ _______ _______ _____ _____    ______ ____
DOCKED: ROOT
DOCKED: ATOM      1  C   UNL d   1       1.865  23.558  18.644 -0.05 -0.00    +0.194 C 
DOCKED: ATOM      2  C   UNL d   1       2.733  24.609  19.337 -0.11 +0.00    +0.194 C 
DOCKED: ATOM      3  C   UNL d   1       2.686  24.469  20.860 -0.12 +0.00    +0.194 C 
DOCKED: ATOM      4  C   UNL d   1       2.995  23.055  21.344 -0.11 +0.01    +0.194 C 
DOCKED: ATOM      5  C   UNL d   1       2.235  21.964  20.601 -0.05 +0.01    +0.194 C 
DOCKED: ATOM      6  C   UNL d   1       2.231  22.138  19.080 -0.05 +0.00    +0.194 C 
DOCKED: ENDROOT
DOCKED: BRANCH   1   7
DOCKED: ATOM      7  O   UNL d   1       2.098  23.644  17.237 -0.06 +0.01    -0.278 OA
DOCKED: BRANCH   7   8
DOCKED: ATOM      8  P   UNL d   1       3.263  22.754  16.604 -0.15 -0.02    +0.473 P 
DOCKED: ATOM      9  O   UNL d   1       4.389  22.441  17.525 -0.15 -0.00    -0.228 OA
DOCKED: BRANCH   8  10
DOCKED: ATOM     10  O   UNL d   1       2.509  21.453  16.069 -0.15 +0.02    -0.303 OA
DOCKED: ATOM     11  H   UNL d   1       2.362  20.834  16.809 +0.05 -0.01    +0.222 HD
DOCKED: ENDBRANCH   8  10
DOCKED: BRANCH   8  12
DOCKED: ATOM     12  O   UNL d   1       3.657  23.489  15.251 -0.16 +0.04    -0.303 OA
DOCKED: ATOM     13  H   UNL d   1       4.075  24.367  15.397 +0.12 -0.02    +0.222 HD
DOCKED: ENDBRANCH   8  12
DOCKED: ENDBRANCH   7   8
DOCKED: ENDBRANCH   1   7
DOCKED: BRANCH   2  14
DOCKED: ATOM     14  O   UNL d   1       4.091  24.451  18.907 -0.12 -0.03    -0.278 OA
DOCKED: BRANCH  14  15
DOCKED: ATOM     15  P   UNL d   1       4.704  25.636  18.021 -0.21 +0.03    +0.473 P 
DOCKED: ATOM     16  O   UNL d   1       5.476  25.235  16.803 -0.40 -0.01    -0.228 OA
DOCKED: BRANCH  15  17
DOCKED: ATOM     17  O   UNL d   1       3.448  26.555  17.681 -0.15 +0.01    -0.303 OA
DOCKED: ATOM     18  H   UNL d   1       3.398  27.320  18.285 +0.11 -0.01    +0.222 HD
DOCKED: ENDBRANCH  15  17
DOCKED: BRANCH  15  19
DOCKED: ATOM     19  O   UNL d   1       5.490  26.544  19.064 -0.30 -0.03    -0.303 OA
DOCKED: ATOM     20  H   UNL d   1       5.214  26.363  19.981 -0.25 -0.01    +0.222 HD
DOCKED: ENDBRANCH  15  19
DOCKED: ENDBRANCH  14  15
DOCKED: ENDBRANCH   2  14
DOCKED: BRANCH   6  21
DOCKED: ATOM     21  O   UNL d   1       1.222  21.270  18.569 -0.01 +0.00    -0.278 OA
DOCKED: BRANCH  21  22
DOCKED: ATOM     22  P   UNL d   1       1.419  19.690  18.657 +0.00 -0.00    +0.473 P 
DOCKED: ATOM     23  O   UNL d   1       0.649  18.940  19.692 -0.00 -0.00    -0.228 OA
DOCKED: BRANCH  22  24
DOCKED: ATOM     24  O   UNL d   1       1.131  19.242  17.157 -0.01 +0.01    -0.303 OA
DOCKED: ATOM     25  H   UNL d   1       0.908  20.052  16.631 +0.03 -0.02    +0.222 HD
DOCKED: ENDBRANCH  22  24
DOCKED: BRANCH  22  26
DOCKED: ATOM     26  O   UNL d   1       3.015  19.564  18.739 -0.02 -0.01    -0.303 OA
DOCKED: ATOM     27  H   UNL d   1       3.271  19.317  19.651 +0.04 +0.01    +0.222 HD
DOCKED: ENDBRANCH  22  26
DOCKED: ENDBRANCH  21  22
DOCKED: ENDBRANCH   6  21
DOCKED: BRANCH   3  28
DOCKED: ATOM     28  O   UNL d   1       3.718  25.286  21.398 -0.19 +0.00    -0.278 OA
DOCKED: BRANCH  28  29
DOCKED: ATOM     29  P   UNL d   1       3.409  26.785  21.841 -0.07 -0.03    +0.473 P 
DOCKED: ATOM     30  O   UNL d   1       4.255  27.315  22.941 -0.27 +0.03    -0.228 OA
DOCKED: BRANCH  29  31
DOCKED: ATOM     31  O   UNL d   1       3.514  27.522  20.424 -0.19 +0.01    -0.303 OA
DOCKED: ATOM     32  H   UNL d   1       3.575  26.838  19.718 +0.09 -0.01    +0.222 HD
DOCKED: ENDBRANCH  29  31
DOCKED: BRANCH  29  33
DOCKED: ATOM     33  O   UNL d   1       1.838  26.740  22.099 -0.05 +0.01    -0.303 OA
DOCKED: ATOM     34  H   UNL d   1       1.674  26.679  23.072 +0.05 -0.00    +0.222 HD
DOCKED: ENDBRANCH  29  33
DOCKED: ENDBRANCH  28  29
DOCKED: ENDBRANCH   3  28
DOCKED: BRANCH   5  35
DOCKED: ATOM     35  O   UNL d   1       2.927  20.749  20.882 -0.04 -0.02    -0.278 OA
DOCKED: BRANCH  35  36
DOCKED: ATOM     36  P   UNL d   1       2.505  19.854  22.133 -0.00 +0.02    +0.473 P 
DOCKED: ATOM     37  O   UNL d   1       3.311  20.061  23.376 -0.03 -0.01    -0.228 OA
DOCKED: BRANCH  36  38
DOCKED: ATOM     38  O   UNL d   1       0.962  20.214  22.286 -0.00 -0.00    -0.303 OA
DOCKED: ATOM     39  H   UNL d   1       0.869  21.184  22.405 +0.01 +0.00    +0.222 HD
DOCKED: ENDBRANCH  36  38
DOCKED: BRANCH  36  40
DOCKED: ATOM     40  O   UNL d   1       2.497  18.389  21.514 -0.00 -0.01    -0.303 OA
DOCKED: ATOM     41  H   UNL d   1       2.412  18.407  20.535 +0.01 +0.01    +0.222 HD
DOCKED: ENDBRANCH  36  40
DOCKED: ENDBRANCH  35  36
DOCKED: ENDBRANCH   5  35
DOCKED: BRANCH   4  42
DOCKED: ATOM     42  O   UNL d   1       2.592  22.988  22.716 -0.05 -0.01    -0.278 OA
DOCKED: BRANCH  42  43
DOCKED: ATOM     43  P   UNL d   1       1.072  23.298  23.089 +0.00 -0.00    +0.473 P 
DOCKED: ATOM     44  O   UNL d   1       0.062  23.192  22.000 -0.00 +0.00    -0.228 OA
DOCKED: BRANCH  43  45
DOCKED: ATOM     45  O   UNL d   1       0.809  22.322  24.318 -0.00 +0.00    -0.303 OA
DOCKED: ATOM     46  H   UNL d   1       1.020  21.394  24.090 +0.01 +0.00    +0.222 HD
DOCKED: ENDBRANCH  43  45
DOCKED: BRANCH  43  47
DOCKED: ATOM     47  O   UNL d   1       1.157  24.723  23.818 -0.00 +0.00    -0.303 OA
DOCKED: ATOM     48  H   UNL d   1       1.924  25.220  23.466 +0.04 -0.00    +0.222 HD
DOCKED: ENDBRANCH  43  47
DOCKED: ENDBRANCH  42  43
DOCKED: ENDBRANCH   4  42
DOCKED: TORSDOF 24
DOCKED: TER
DOCKED: ENDMDL
________________________________________________________________________________


	BEGINNING GENETIC ALGORITHM DOCKING 78 of 100
Run: 78 Seed: 752867227 1221260120 [ Run 78 of 100 GA/GALS ]
Beginning LAMARCKIAN GENETIC ALGORITHM (LGA), with a maximum of 25000000 energy evaluations.

Final-Value: -17.989


	FINAL GENETIC ALGORITHM DOCKED STATE
	_______________________________________________


Detailed state:  trans 20.589 20.897 -2.592 quatxyzw -0.530908 0.392751 -0.665227 -0.348362 center 0.035 0.082 -0.065 ntor 24 -174.1991 17.0871 108.0207 99.3665 50.5355 15.2554 -85.2479 -8.6203 134.9954 21.8399 121.4767 -112.1672 -125.6186 96.0433 130.7478 2.5309 90.1708 106.9136 44.4264 -5.3441 155.3627 -14.1785 -36.9906 160.9443
State:	 20.589  20.897  -2.592  -0.566  0.419 -0.710 -139.226   -174.20   17.09  108.02   99.37   50.54   15.26  -85.25   -8.62  135.00   21.84  121.48 -112.17 -125.62   96.04  130.75    2.53   90.17  106.91   44.43   -5.34  155.36  -14.18  -36.99  160.94

DOCKED: MODEL       78
DOCKED: USER    Run = 78
DOCKED: USER    DPF = D:/Protein_go_brrr/autodock/final/6BB5/IHP/dock.dpf
DOCKED: USER  
DOCKED: USER    Estimated Free Energy of Binding    =   +4.09 kcal/mol  [=(1)+(2)+(3)-(4)]
DOCKED: USER    
DOCKED: USER    (1) Final Intermolecular Energy     =   -3.07 kcal/mol
DOCKED: USER        vdW + Hbond + desolv Energy     =   -3.08 kcal/mol
DOCKED: USER        Electrostatic Energy            =   +0.01 kcal/mol
DOCKED: USER    (2) Final Total Internal Energy     =  -14.92 kcal/mol
DOCKED: USER    (3) Torsional Free Energy           =   +7.16 kcal/mol
DOCKED: USER    (4) Unbound System's Energy  [=(2)] =  -14.92 kcal/mol
DOCKED: USER    
DOCKED: USER    
DOCKED: USER    NEWDPF move IHP_ideal_opt.pdbqt
DOCKED: USER    NEWDPF about 0.035000 0.082000 -0.065000
DOCKED: USER    NEWDPF tran0 20.588909 20.897097 -2.591906
DOCKED: USER    NEWDPF quaternion0 -0.530908 0.392751 -0.665227 -0.348362
DOCKED: USER    NEWDPF axisangle0 -0.566386 0.418997 -0.709682 -139.225706
DOCKED: USER    NEWDPF quat0 -0.566386 0.418997 -0.709682 -139.225706
DOCKED: USER    NEWDPF dihe0 -174.20 17.09 108.02 99.37 50.54 15.26 -85.25 -8.62 135.00 21.84 121.48 -112.17 -125.62 96.04 130.75 2.53 90.17 106.91 44.43 -5.34 155.36 -14.18 -36.99 160.94 
DOCKED: USER  keepresnum = 1 
DOCKED: USER  
DOCKED: REMARK  24 active torsions:
DOCKED: REMARK  status: ('A' for Active; 'I' for Inactive)
DOCKED: REMARK    1  A    between atoms: C_1  and  O_7 
DOCKED: REMARK    2  A    between atoms: C_2  and  O_12 
DOCKED: REMARK    3  A    between atoms: C_3  and  O_17 
DOCKED: REMARK    4  A    between atoms: C_4  and  O_22 
DOCKED: REMARK    5  A    between atoms: C_5  and  O_27 
DOCKED: REMARK    6  A    between atoms: C_6  and  O_32 
DOCKED: REMARK    7  A    between atoms: O_7  and  P_8 
DOCKED: REMARK    8  A    between atoms: P_8  and  O_10 
DOCKED: REMARK    9  A    between atoms: P_8  and  O_11 
DOCKED: REMARK   10  A    between atoms: O_12  and  P_13 
DOCKED: REMARK   11  A    between atoms: P_13  and  O_15 
DOCKED: REMARK   12  A    between atoms: P_13  and  O_16 
DOCKED: REMARK   13  A    between atoms: O_17  and  P_18 
DOCKED: REMARK   14  A    between atoms: P_18  and  O_20 
DOCKED: REMARK   15  A    between atoms: P_18  and  O_21 
DOCKED: REMARK   16  A    between atoms: O_22  and  P_23 
DOCKED: REMARK   17  A    between atoms: P_23  and  O_25 
DOCKED: REMARK   18  A    between atoms: P_23  and  O_26 
DOCKED: REMARK   19  A    between atoms: O_27  and  P_28 
DOCKED: REMARK   20  A    between atoms: P_28  and  O_30 
DOCKED: REMARK   21  A    between atoms: P_28  and  O_31 
DOCKED: REMARK   22  A    between atoms: O_32  and  P_33 
DOCKED: REMARK   23  A    between atoms: P_33  and  O_35 
DOCKED: REMARK   24  A    between atoms: P_33  and  O_36 
DOCKED: USER                              x       y       z     vdW  Elec       q    Type
DOCKED: USER                           _______ _______ _______ _____ _____    ______ ____
DOCKED: ROOT
DOCKED: ATOM      1  C   UNL d   1      21.080  20.072  -1.156 -0.11 -0.03    +0.194 C 
DOCKED: ATOM      2  C   UNL d   1      20.923  21.588  -1.026 -0.11 -0.03    +0.194 C 
DOCKED: ATOM      3  C   UNL d   1      21.517  22.324  -2.228 -0.09 -0.03    +0.194 C 
DOCKED: ATOM      4  C   UNL d   1      21.001  21.803  -3.567 -0.10 -0.04    +0.194 C 
DOCKED: ATOM      5  C   UNL d   1      21.033  20.286  -3.697 -0.10 -0.04    +0.194 C 
DOCKED: ATOM      6  C   UNL d   1      20.495  19.548  -2.469 +0.04 -0.05    +0.194 C 
DOCKED: ENDROOT
DOCKED: BRANCH   1   7
DOCKED: ATOM      7  O   UNL d   1      20.354  19.455  -0.090 -0.13 +0.05    -0.278 OA
DOCKED: BRANCH   7   8
DOCKED: ATOM      8  P   UNL d   1      21.012  19.436   1.365 -0.04 -0.04    +0.473 P 
DOCKED: ATOM      9  O   UNL d   1      22.136  18.476   1.538 -0.01 +0.01    -0.228 OA
DOCKED: BRANCH   8  10
DOCKED: ATOM     10  O   UNL d   1      21.438  20.953   1.616 -0.03 +0.02    -0.303 OA
DOCKED: ATOM     11  H   UNL d   1      20.850  21.546   1.112 +0.06 -0.02    +0.222 HD
DOCKED: ENDBRANCH   8  10
DOCKED: BRANCH   8  12
DOCKED: ATOM     12  O   UNL d   1      19.792  19.264   2.368 -0.10 +0.03    -0.303 OA
DOCKED: ATOM     13  H   UNL d   1      18.950  19.632   2.017 -0.20 -0.07    +0.222 HD
DOCKED: ENDBRANCH   8  12
DOCKED: ENDBRANCH   7   8
DOCKED: ENDBRANCH   1   7
DOCKED: BRANCH   2  14
DOCKED: ATOM     14  O   UNL d   1      19.528  21.907  -0.938 -0.08 +0.04    -0.278 OA
DOCKED: BRANCH  14  15
DOCKED: ATOM     15  P   UNL d   1      19.075  22.795   0.314 -0.21 -0.04    +0.473 P 
DOCKED: ATOM     16  O   UNL d   1      17.872  23.664   0.121 -0.40 +0.03    -0.228 OA
DOCKED: BRANCH  15  17
DOCKED: ATOM     17  O   UNL d   1      18.890  21.738   1.492 -0.22 +0.02    -0.303 OA
DOCKED: ATOM     18  H   UNL d   1      19.268  20.871   1.250 -0.17 -0.04    +0.222 HD
DOCKED: ENDBRANCH  15  17
DOCKED: BRANCH  15  19
DOCKED: ATOM     19  O   UNL d   1      20.400  23.549   0.767 -0.08 +0.03    -0.303 OA
DOCKED: ATOM     20  H   UNL d   1      20.927  23.842   0.001 +0.10 -0.04    +0.222 HD
DOCKED: ENDBRANCH  15  19
DOCKED: ENDBRANCH  14  15
DOCKED: ENDBRANCH   2  14
DOCKED: BRANCH   6  21
DOCKED: ATOM     21  O   UNL d   1      20.902  18.188  -2.595 -0.09 +0.05    -0.278 OA
DOCKED: BRANCH  21  22
DOCKED: ATOM     22  P   UNL d   1      22.440  17.840  -2.840 -0.00 -0.06    +0.473 P 
DOCKED: ATOM     23  O   UNL d   1      22.905  16.455  -2.540 -0.00 +0.02    -0.228 OA
DOCKED: BRANCH  22  24
DOCKED: ATOM     24  O   UNL d   1      22.641  18.300  -4.350 -0.01 +0.04    -0.303 OA
DOCKED: ATOM     25  H   UNL d   1      21.745  18.415  -4.759 +0.04 -0.04    +0.222 HD
DOCKED: ENDBRANCH  22  24
DOCKED: BRANCH  22  26
DOCKED: ATOM     26  O   UNL d   1      23.172  19.017  -2.034 -0.00 +0.03    -0.303 OA
DOCKED: ATOM     27  H   UNL d   1      24.084  19.119  -2.373 +0.01 -0.02    +0.222 HD
DOCKED: ENDBRANCH  22  26
DOCKED: ENDBRANCH  21  22
DOCKED: ENDBRANCH   6  21
DOCKED: BRANCH   3  28
DOCKED: ATOM     28  O   UNL d   1      21.085  23.677  -2.158 -0.12 +0.05    -0.278 OA
DOCKED: BRANCH  28  29
DOCKED: ATOM     29  P   UNL d   1      22.023  24.789  -1.509 -0.09 -0.15    +0.473 P 
DOCKED: ATOM     30  O   UNL d   1      23.040  24.288  -0.549 -0.05 +0.06    -0.228 OA
DOCKED: BRANCH  29  31
DOCKED: ATOM     31  O   UNL d   1      22.566  25.504  -2.834 -0.13 +0.13    -0.303 OA
DOCKED: ATOM     32  H   UNL d   1      22.653  24.826  -3.543 +0.06 -0.07    +0.222 HD
DOCKED: ENDBRANCH  29  31
DOCKED: BRANCH  29  33
DOCKED: ATOM     33  O   UNL d   1      20.962  25.838  -0.953 -0.27 +0.11    -0.303 OA
DOCKED: ATOM     34  H   UNL d   1      20.287  25.357  -0.415 +0.14 -0.06    +0.222 HD
DOCKED: ENDBRANCH  29  33
DOCKED: ENDBRANCH  28  29
DOCKED: ENDBRANCH   3  28
DOCKED: BRANCH   5  35
DOCKED: ATOM     35  O   UNL d   1      20.168  19.972  -4.787 -0.18 +0.08    -0.278 OA
DOCKED: BRANCH  35  36
DOCKED: ATOM     36  P   UNL d   1      20.757  19.808  -6.260 -0.14 -0.14    +0.473 P 
DOCKED: ATOM     37  O   UNL d   1      20.264  18.619  -7.022 -0.17 +0.10    -0.228 OA
DOCKED: BRANCH  36  38
DOCKED: ATOM     38  O   UNL d   1      20.383  21.208  -6.919 -0.18 +0.09    -0.303 OA
DOCKED: ATOM     39  H   UNL d   1      20.874  21.922  -6.457 +0.07 -0.05    +0.222 HD
DOCKED: ENDBRANCH  36  38
DOCKED: BRANCH  36  40
DOCKED: ATOM     40  O   UNL d   1      22.325  19.907  -6.012 -0.02 +0.06    -0.303 OA
DOCKED: ATOM     41  H   UNL d   1      22.531  20.339  -5.153 +0.03 -0.04    +0.222 HD
DOCKED: ENDBRANCH  36  40
DOCKED: ENDBRANCH  35  36
DOCKED: ENDBRANCH   5  35
DOCKED: BRANCH   4  42
DOCKED: ATOM     42  O   UNL d   1      21.867  22.330  -4.578 -0.05 +0.05    -0.278 OA
DOCKED: BRANCH  42  43
DOCKED: ATOM     43  P   UNL d   1      23.445  22.178  -4.399 +0.01 -0.07    +0.473 P 
DOCKED: ATOM     44  O   UNL d   1      24.276  22.136  -5.634 -0.00 +0.03    -0.228 OA
DOCKED: BRANCH  43  45
DOCKED: ATOM     45  O   UNL d   1      23.801  23.377  -3.415 -0.00 +0.06    -0.303 OA
DOCKED: ATOM     46  H   UNL d   1      23.199  23.399  -2.644 +0.04 -0.04    +0.222 HD
DOCKED: ENDBRANCH  43  45
DOCKED: BRANCH  43  47
DOCKED: ATOM     47  O   UNL d   1      23.582  20.909  -3.429 -0.00 +0.04    -0.303 OA
DOCKED: ATOM     48  H   UNL d   1      23.274  20.108  -3.901 +0.02 -0.03    +0.222 HD
DOCKED: ENDBRANCH  43  47
DOCKED: ENDBRANCH  42  43
DOCKED: ENDBRANCH   4  42
DOCKED: TORSDOF 24
DOCKED: TER
DOCKED: ENDMDL
________________________________________________________________________________


	BEGINNING GENETIC ALGORITHM DOCKING 79 of 100
Run: 79 Seed: 415569201 1818159084 [ Run 79 of 100 GA/GALS ]
Beginning LAMARCKIAN GENETIC ALGORITHM (LGA), with a maximum of 25000000 energy evaluations.

Final-Value: -17.450


	FINAL GENETIC ALGORITHM DOCKED STATE
	_______________________________________________


Detailed state:  trans -5.136 25.831 4.637 quatxyzw -0.810746 0.513556 0.038787 -0.278292 center 0.035 0.082 -0.065 ntor 24 -129.8700 -5.3552 154.1063 78.7528 155.3934 114.3548 -38.7734 -165.9892 42.0444 100.1427 17.7199 -102.4762 -115.5492 87.2012 -161.7081 141.6179 -21.9237 -69.3346 36.8616 -16.1885 22.3511 -29.7635 -39.6103 12.3737
State:	 -5.136  25.831   4.637  -0.844  0.535  0.040 -147.683   -129.87   -5.36  154.11   78.75  155.39  114.35  -38.77 -165.99   42.04  100.14   17.72 -102.48 -115.55   87.20 -161.71  141.62  -21.92  -69.33   36.86  -16.19   22.35  -29.76  -39.61   12.37

DOCKED: MODEL       79
DOCKED: USER    Run = 79
DOCKED: USER    DPF = D:/Protein_go_brrr/autodock/final/6BB5/IHP/dock.dpf
DOCKED: USER  
DOCKED: USER    Estimated Free Energy of Binding    =   +5.40 kcal/mol  [=(1)+(2)+(3)-(4)]
DOCKED: USER    
DOCKED: USER    (1) Final Intermolecular Energy     =   -1.76 kcal/mol
DOCKED: USER        vdW + Hbond + desolv Energy     =   -1.36 kcal/mol
DOCKED: USER        Electrostatic Energy            =   -0.40 kcal/mol
DOCKED: USER    (2) Final Total Internal Energy     =  -15.69 kcal/mol
DOCKED: USER    (3) Torsional Free Energy           =   +7.16 kcal/mol
DOCKED: USER    (4) Unbound System's Energy  [=(2)] =  -15.69 kcal/mol
DOCKED: USER    
DOCKED: USER    
DOCKED: USER    NEWDPF move IHP_ideal_opt.pdbqt
DOCKED: USER    NEWDPF about 0.035000 0.082000 -0.065000
DOCKED: USER    NEWDPF tran0 -5.136082 25.830625 4.636932
DOCKED: USER    NEWDPF quaternion0 -0.810746 0.513556 0.038787 -0.278292
DOCKED: USER    NEWDPF axisangle0 -0.844091 0.534677 0.040382 -147.683370
DOCKED: USER    NEWDPF quat0 -0.844091 0.534677 0.040382 -147.683370
DOCKED: USER    NEWDPF dihe0 -129.87 -5.36 154.11 78.75 155.39 114.35 -38.77 -165.99 42.04 100.14 17.72 -102.48 -115.55 87.20 -161.71 141.62 -21.92 -69.33 36.86 -16.19 22.35 -29.76 -39.61 12.37 
DOCKED: USER  keepresnum = 1 
DOCKED: USER  
DOCKED: REMARK  24 active torsions:
DOCKED: REMARK  status: ('A' for Active; 'I' for Inactive)
DOCKED: REMARK    1  A    between atoms: C_1  and  O_7 
DOCKED: REMARK    2  A    between atoms: C_2  and  O_12 
DOCKED: REMARK    3  A    between atoms: C_3  and  O_17 
DOCKED: REMARK    4  A    between atoms: C_4  and  O_22 
DOCKED: REMARK    5  A    between atoms: C_5  and  O_27 
DOCKED: REMARK    6  A    between atoms: C_6  and  O_32 
DOCKED: REMARK    7  A    between atoms: O_7  and  P_8 
DOCKED: REMARK    8  A    between atoms: P_8  and  O_10 
DOCKED: REMARK    9  A    between atoms: P_8  and  O_11 
DOCKED: REMARK   10  A    between atoms: O_12  and  P_13 
DOCKED: REMARK   11  A    between atoms: P_13  and  O_15 
DOCKED: REMARK   12  A    between atoms: P_13  and  O_16 
DOCKED: REMARK   13  A    between atoms: O_17  and  P_18 
DOCKED: REMARK   14  A    between atoms: P_18  and  O_20 
DOCKED: REMARK   15  A    between atoms: P_18  and  O_21 
DOCKED: REMARK   16  A    between atoms: O_22  and  P_23 
DOCKED: REMARK   17  A    between atoms: P_23  and  O_25 
DOCKED: REMARK   18  A    between atoms: P_23  and  O_26 
DOCKED: REMARK   19  A    between atoms: O_27  and  P_28 
DOCKED: REMARK   20  A    between atoms: P_28  and  O_30 
DOCKED: REMARK   21  A    between atoms: P_28  and  O_31 
DOCKED: REMARK   22  A    between atoms: O_32  and  P_33 
DOCKED: REMARK   23  A    between atoms: P_33  and  O_35 
DOCKED: REMARK   24  A    between atoms: P_33  and  O_36 
DOCKED: USER                              x       y       z     vdW  Elec       q    Type
DOCKED: USER                           _______ _______ _______ _____ _____    ______ ____
DOCKED: ROOT
DOCKED: ATOM      1  C   UNL d   1      -3.613  25.485   3.899 -0.00 -0.05    +0.194 C 
DOCKED: ATOM      2  C   UNL d   1      -3.594  26.571   4.976 -0.01 -0.05    +0.194 C 
DOCKED: ATOM      3  C   UNL d   1      -4.784  27.523   4.841 +0.00 -0.02    +0.194 C 
DOCKED: ATOM      4  C   UNL d   1      -6.128  26.801   4.773 +0.00 -0.02    +0.194 C 
DOCKED: ATOM      5  C   UNL d   1      -6.156  25.635   3.793 +0.00 -0.02    +0.194 C 
DOCKED: ATOM      6  C   UNL d   1      -4.935  24.717   3.886 +0.00 -0.03    +0.194 C 
DOCKED: ENDROOT
DOCKED: BRANCH   1   7
DOCKED: ATOM      7  O   UNL d   1      -2.578  24.545   4.196 -0.02 +0.12    -0.278 OA
DOCKED: BRANCH   7   8
DOCKED: ATOM      8  P   UNL d   1      -1.101  24.850   3.669 -0.02 -0.32    +0.473 P 
DOCKED: ATOM      9  O   UNL d   1      -0.953  24.882   2.188 -0.04 +0.08    -0.228 OA
DOCKED: BRANCH   8  10
DOCKED: ATOM     10  O   UNL d   1      -0.719  26.232   4.368 -0.05 +0.29    -0.303 OA
DOCKED: ATOM     11  H   UNL d   1      -0.557  26.084   5.318 -0.32 -0.40    +0.222 HD
DOCKED: ENDBRANCH   8  10
DOCKED: BRANCH   8  12
DOCKED: ATOM     12  O   UNL d   1      -0.167  23.820   4.437 -0.08 +0.39    -0.303 OA
DOCKED: ATOM     13  H   UNL d   1      -0.312  23.819   5.410 -0.43 -0.46    +0.222 HD
DOCKED: ENDBRANCH   8  12
DOCKED: ENDBRANCH   7   8
DOCKED: ENDBRANCH   1   7
DOCKED: BRANCH   2  14
DOCKED: ATOM     14  O   UNL d   1      -3.650  25.951   6.266 -0.01 +0.09    -0.278 OA
DOCKED: BRANCH  14  15
DOCKED: ATOM     15  P   UNL d   1      -2.369  26.141   7.208 -0.04 -0.29    +0.473 P 
DOCKED: ATOM     16  O   UNL d   1      -2.631  26.317   8.672 -0.04 +0.09    -0.228 OA
DOCKED: BRANCH  15  17
DOCKED: ATOM     17  O   UNL d   1      -1.463  24.870   6.891 -0.08 +0.42    -0.303 OA
DOCKED: ATOM     18  H   UNL d   1      -1.232  24.830   5.943 -0.23 -0.36    +0.222 HD
DOCKED: ENDBRANCH  15  17
DOCKED: BRANCH  15  19
DOCKED: ATOM     19  O   UNL d   1      -1.538  27.307   6.516 -0.07 +0.20    -0.303 OA
DOCKED: ATOM     20  H   UNL d   1      -2.089  27.828   5.903 +0.03 -0.09    +0.222 HD
DOCKED: ENDBRANCH  15  19
DOCKED: ENDBRANCH  14  15
DOCKED: ENDBRANCH   2  14
DOCKED: BRANCH   6  21
DOCKED: ATOM     21  O   UNL d   1      -4.938  23.907   2.713 +0.00 +0.03    -0.278 OA
DOCKED: BRANCH  21  22
DOCKED: ATOM     22  P   UNL d   1      -5.892  22.632   2.633 +0.00 -0.04    +0.473 P 
DOCKED: ATOM     23  O   UNL d   1      -5.303  21.338   2.180 +0.00 +0.02    -0.228 OA
DOCKED: BRANCH  22  24
DOCKED: ATOM     24  O   UNL d   1      -6.520  22.603   4.095 +0.00 +0.02    -0.303 OA
DOCKED: ATOM     25  H   UNL d   1      -7.343  23.155   4.088 +0.00 -0.01    +0.222 HD
DOCKED: ENDBRANCH  22  24
DOCKED: BRANCH  22  26
DOCKED: ATOM     26  O   UNL d   1      -7.113  23.193   1.759 +0.00 +0.02    -0.303 OA
DOCKED: ATOM     27  H   UNL d   1      -7.517  23.955   2.223 +0.00 -0.01    +0.222 HD
DOCKED: ENDBRANCH  22  26
DOCKED: ENDBRANCH  21  22
DOCKED: ENDBRANCH   6  21
DOCKED: BRANCH   3  28
DOCKED: ATOM     28  O   UNL d   1      -4.839  28.311   6.023 +0.00 +0.03    -0.278 OA
DOCKED: BRANCH  28  29
DOCKED: ATOM     29  P   UNL d   1      -3.889  29.578   6.190 +0.01 -0.05    +0.473 P 
DOCKED: ATOM     30  O   UNL d   1      -4.579  30.890   6.275 +0.00 +0.01    -0.228 OA
DOCKED: BRANCH  29  31
DOCKED: ATOM     31  O   UNL d   1      -3.037  29.122   7.466 -0.00 +0.05    -0.303 OA
DOCKED: ATOM     32  H   UNL d   1      -3.195  28.162   7.622 +0.02 -0.05    +0.222 HD
DOCKED: ENDBRANCH  29  31
DOCKED: BRANCH  29  33
DOCKED: ATOM     33  O   UNL d   1      -2.859  29.383   4.992 -0.00 +0.04    -0.303 OA
DOCKED: ATOM     34  H   UNL d   1      -1.987  29.099   5.361 +0.02 -0.05    +0.222 HD
DOCKED: ENDBRANCH  29  33
DOCKED: ENDBRANCH  28  29
DOCKED: ENDBRANCH   3  28
DOCKED: BRANCH   5  35
DOCKED: ATOM     35  O   UNL d   1      -7.296  24.856   4.152 +0.00 +0.02    -0.278 OA
DOCKED: BRANCH  35  36
DOCKED: ATOM     36  P   UNL d   1      -8.712  25.143   3.477 +0.00 -0.02    +0.473 P 
DOCKED: ATOM     37  O   UNL d   1      -8.667  25.844   2.157 +0.00 +0.01    -0.228 OA
DOCKED: BRANCH  36  38
DOCKED: ATOM     38  O   UNL d   1      -9.349  23.684   3.422 +0.00 +0.01    -0.303 OA
DOCKED: ATOM     39  H   UNL d   1      -8.627  23.021   3.365 +0.00 -0.01    +0.222 HD
DOCKED: ENDBRANCH  36  38
DOCKED: BRANCH  36  40
DOCKED: ATOM     40  O   UNL d   1      -9.508  25.864   4.651 +0.00 +0.01    -0.303 OA
DOCKED: ATOM     41  H   UNL d   1      -9.050  26.679   4.954 +0.00 -0.01    +0.222 HD
DOCKED: ENDBRANCH  36  40
DOCKED: ENDBRANCH  35  36
DOCKED: ENDBRANCH   5  35
DOCKED: BRANCH   4  42
DOCKED: ATOM     42  O   UNL d   1      -7.090  27.758   4.317 +0.00 +0.01    -0.278 OA
DOCKED: BRANCH  42  43
DOCKED: ATOM     43  P   UNL d   1      -8.021  28.486   5.389 +0.00 -0.01    +0.473 P 
DOCKED: ATOM     44  O   UNL d   1      -8.240  27.795   6.690 +0.00 +0.01    -0.228 OA
DOCKED: BRANCH  43  45
DOCKED: ATOM     45  O   UNL d   1      -7.345  29.921   5.519 +0.00 +0.01    -0.303 OA
DOCKED: ATOM     46  H   UNL d   1      -6.398  29.851   5.754 +0.00 -0.01    +0.222 HD
DOCKED: ENDBRANCH  43  45
DOCKED: BRANCH  43  47
DOCKED: ATOM     47  O   UNL d   1      -9.346  28.825   4.553 +0.00 +0.00    -0.303 OA
DOCKED: ATOM     48  H   UNL d   1      -9.876  28.009   4.444 +0.00 -0.00    +0.222 HD
DOCKED: ENDBRANCH  43  47
DOCKED: ENDBRANCH  42  43
DOCKED: ENDBRANCH   4  42
DOCKED: TORSDOF 24
DOCKED: TER
DOCKED: ENDMDL
________________________________________________________________________________


	BEGINNING GENETIC ALGORITHM DOCKING 80 of 100
Run: 80 Seed: 554735202 1114438480 [ Run 80 of 100 GA/GALS ]
Beginning LAMARCKIAN GENETIC ALGORITHM (LGA), with a maximum of 25000000 energy evaluations.

Final-Value: -17.003


	FINAL GENETIC ALGORITHM DOCKED STATE
	_______________________________________________


Detailed state:  trans 51.457 22.874 6.582 quatxyzw 0.644288 0.478617 0.366917 -0.470309 center 0.035 0.082 -0.065 ntor 24 127.3587 120.8499 59.5519 34.8029 102.9066 166.5805 -141.0328 -63.0821 38.4156 126.9154 64.0564 -153.2761 97.2818 149.0815 -117.1831 19.3551 -73.5911 108.0032 34.7715 -11.2509 -30.6194 33.7765 -0.5984 -15.9068
State:	 51.457  22.874   6.582   0.730  0.542  0.416 -123.891    127.36  120.85   59.55   34.80  102.91  166.58 -141.03  -63.08   38.42  126.92   64.06 -153.28   97.28  149.08 -117.18   19.36  -73.59  108.00   34.77  -11.25  -30.62   33.78   -0.60  -15.91

DOCKED: MODEL       80
DOCKED: USER    Run = 80
DOCKED: USER    DPF = D:/Protein_go_brrr/autodock/final/6BB5/IHP/dock.dpf
DOCKED: USER  
DOCKED: USER    Estimated Free Energy of Binding    =   +3.64 kcal/mol  [=(1)+(2)+(3)-(4)]
DOCKED: USER    
DOCKED: USER    (1) Final Intermolecular Energy     =   -3.51 kcal/mol
DOCKED: USER        vdW + Hbond + desolv Energy     =   -3.43 kcal/mol
DOCKED: USER        Electrostatic Energy            =   -0.08 kcal/mol
DOCKED: USER    (2) Final Total Internal Energy     =  -13.49 kcal/mol
DOCKED: USER    (3) Torsional Free Energy           =   +7.16 kcal/mol
DOCKED: USER    (4) Unbound System's Energy  [=(2)] =  -13.49 kcal/mol
DOCKED: USER    
DOCKED: USER    
DOCKED: USER    NEWDPF move IHP_ideal_opt.pdbqt
DOCKED: USER    NEWDPF about 0.035000 0.082000 -0.065000
DOCKED: USER    NEWDPF tran0 51.456731 22.873512 6.582114
DOCKED: USER    NEWDPF quaternion0 0.644288 0.478617 0.366917 -0.470309
DOCKED: USER    NEWDPF axisangle0 0.730070 0.542341 0.415770 -123.891255
DOCKED: USER    NEWDPF quat0 0.730070 0.542341 0.415770 -123.891255
DOCKED: USER    NEWDPF dihe0 127.36 120.85 59.55 34.80 102.91 166.58 -141.03 -63.08 38.42 126.92 64.06 -153.28 97.28 149.08 -117.18 19.36 -73.59 108.00 34.77 -11.25 -30.62 33.78 -0.60 -15.91 
DOCKED: USER  keepresnum = 1 
DOCKED: USER  
DOCKED: REMARK  24 active torsions:
DOCKED: REMARK  status: ('A' for Active; 'I' for Inactive)
DOCKED: REMARK    1  A    between atoms: C_1  and  O_7 
DOCKED: REMARK    2  A    between atoms: C_2  and  O_12 
DOCKED: REMARK    3  A    between atoms: C_3  and  O_17 
DOCKED: REMARK    4  A    between atoms: C_4  and  O_22 
DOCKED: REMARK    5  A    between atoms: C_5  and  O_27 
DOCKED: REMARK    6  A    between atoms: C_6  and  O_32 
DOCKED: REMARK    7  A    between atoms: O_7  and  P_8 
DOCKED: REMARK    8  A    between atoms: P_8  and  O_10 
DOCKED: REMARK    9  A    between atoms: P_8  and  O_11 
DOCKED: REMARK   10  A    between atoms: O_12  and  P_13 
DOCKED: REMARK   11  A    between atoms: P_13  and  O_15 
DOCKED: REMARK   12  A    between atoms: P_13  and  O_16 
DOCKED: REMARK   13  A    between atoms: O_17  and  P_18 
DOCKED: REMARK   14  A    between atoms: P_18  and  O_20 
DOCKED: REMARK   15  A    between atoms: P_18  and  O_21 
DOCKED: REMARK   16  A    between atoms: O_22  and  P_23 
DOCKED: REMARK   17  A    between atoms: P_23  and  O_25 
DOCKED: REMARK   18  A    between atoms: P_23  and  O_26 
DOCKED: REMARK   19  A    between atoms: O_27  and  P_28 
DOCKED: REMARK   20  A    between atoms: P_28  and  O_30 
DOCKED: REMARK   21  A    between atoms: P_28  and  O_31 
DOCKED: REMARK   22  A    between atoms: O_32  and  P_33 
DOCKED: REMARK   23  A    between atoms: P_33  and  O_35 
DOCKED: REMARK   24  A    between atoms: P_33  and  O_36 
DOCKED: USER                              x       y       z     vdW  Elec       q    Type
DOCKED: USER                           _______ _______ _______ _____ _____    ______ ____
DOCKED: ROOT
DOCKED: ATOM      1  C   UNL d   1      52.287  23.966   5.532 -0.13 +0.03    +0.194 C 
DOCKED: ATOM      2  C   UNL d   1      51.388  22.939   4.841 -0.14 +0.04    +0.194 C 
DOCKED: ATOM      3  C   UNL d   1      51.539  21.547   5.458 -0.08 +0.04    +0.194 C 
DOCKED: ATOM      4  C   UNL d   1      51.364  21.539   6.974 -0.14 +0.06    +0.194 C 
DOCKED: ATOM      5  C   UNL d   1      52.155  22.622   7.696 -0.14 +0.05    +0.194 C 
DOCKED: ATOM      6  C   UNL d   1      52.053  24.003   7.043 -0.16 +0.04    +0.194 C 
DOCKED: ENDROOT
DOCKED: BRANCH   1   7
DOCKED: ATOM      7  O   UNL d   1      51.963  25.260   5.019 -0.16 -0.02    -0.278 OA
DOCKED: BRANCH   7   8
DOCKED: ATOM      8  P   UNL d   1      52.714  25.764   3.703 -0.09 +0.00    +0.473 P 
DOCKED: ATOM      9  O   UNL d   1      51.920  26.673   2.832 -0.15 +0.02    -0.228 OA
DOCKED: BRANCH   8  10
DOCKED: ATOM     10  O   UNL d   1      54.053  26.434   4.254 -0.06 -0.00    -0.303 OA
DOCKED: ATOM     11  H   UNL d   1      53.891  26.807   5.140 +0.04 -0.00    +0.222 HD
DOCKED: ENDBRANCH   8  10
DOCKED: BRANCH   8  12
DOCKED: ATOM     12  O   UNL d   1      53.264  24.445   3.009 -0.02 -0.02    -0.303 OA
DOCKED: ATOM     13  H   UNL d   1      52.562  23.928   2.552 +0.03 +0.02    +0.222 HD
DOCKED: ENDBRANCH   8  12
DOCKED: ENDBRANCH   7   8
DOCKED: ENDBRANCH   1   7
DOCKED: BRANCH   2  14
DOCKED: ATOM     14  O   UNL d   1      50.022  23.351   4.973 -0.19 -0.07    -0.278 OA
DOCKED: BRANCH  14  15
DOCKED: ATOM     15  P   UNL d   1      49.217  23.606   3.612 -0.08 +0.09    +0.473 P 
DOCKED: ATOM     16  O   UNL d   1      48.049  24.540   3.687 -0.23 -0.04    -0.228 OA
DOCKED: BRANCH  15  17
DOCKED: ATOM     17  O   UNL d   1      50.334  24.095   2.587 -0.11 -0.03    -0.303 OA
DOCKED: ATOM     18  H   UNL d   1      51.003  24.649   3.033 +0.06 +0.02    +0.222 HD
DOCKED: ENDBRANCH  15  17
DOCKED: BRANCH  15  19
DOCKED: ATOM     19  O   UNL d   1      48.895  22.149   3.062 -0.09 -0.06    -0.303 OA
DOCKED: ATOM     20  H   UNL d   1      49.534  21.490   3.391 +0.06 +0.05    +0.222 HD
DOCKED: ENDBRANCH  15  19
DOCKED: ENDBRANCH  14  15
DOCKED: ENDBRANCH   2  14
DOCKED: BRANCH   6  21
DOCKED: ATOM     21  O   UNL d   1      53.090  24.803   7.607 -0.09 -0.05    -0.278 OA
DOCKED: BRANCH  21  22
DOCKED: ATOM     22  P   UNL d   1      52.761  26.277   8.120 -0.11 +0.07    +0.473 P 
DOCKED: ATOM     23  O   UNL d   1      52.831  27.397   7.138 -0.44 -0.03    -0.228 OA
DOCKED: BRANCH  22  24
DOCKED: ATOM     24  O   UNL d   1      51.337  26.075   8.802 -0.28 -0.07    -0.303 OA
DOCKED: ATOM     25  H   UNL d   1      51.331  25.189   9.245 +0.10 +0.07    +0.222 HD
DOCKED: ENDBRANCH  22  24
DOCKED: BRANCH  22  26
DOCKED: ATOM     26  O   UNL d   1      53.724  26.400   9.396 -0.03 -0.04    -0.303 OA
DOCKED: ATOM     27  H   UNL d   1      54.137  25.530   9.573 +0.05 +0.03    +0.222 HD
DOCKED: ENDBRANCH  22  26
DOCKED: ENDBRANCH  21  22
DOCKED: ENDBRANCH   6  21
DOCKED: BRANCH   3  28
DOCKED: ATOM     28  O   UNL d   1      50.485  20.738   4.952 -0.08 -0.09    -0.278 OA
DOCKED: BRANCH  28  29
DOCKED: ATOM     29  P   UNL d   1      50.730  19.193   4.651 -0.03 +0.17    +0.473 P 
DOCKED: ATOM     30  O   UNL d   1      52.134  18.729   4.788 -0.00 -0.05    -0.228 OA
DOCKED: BRANCH  29  31
DOCKED: ATOM     31  O   UNL d   1      49.650  18.542   5.637 -0.09 -0.24    -0.303 OA
DOCKED: ATOM     32  H   UNL d   1      50.075  18.392   6.513 +0.03 +0.16    +0.222 HD
DOCKED: ENDBRANCH  29  31
DOCKED: BRANCH  29  33
DOCKED: ATOM     33  O   UNL d   1      50.050  19.019   3.222 -0.02 -0.09    -0.303 OA
DOCKED: ATOM     34  H   UNL d   1      49.624  19.873   2.963 +0.03 +0.07    +0.222 HD
DOCKED: ENDBRANCH  29  33
DOCKED: ENDBRANCH  28  29
DOCKED: ENDBRANCH   3  28
DOCKED: BRANCH   5  35
DOCKED: ATOM     35  O   UNL d   1      51.572  22.728   8.993 -0.19 -0.11    -0.278 OA
DOCKED: BRANCH  35  36
DOCKED: ATOM     36  P   UNL d   1      52.493  22.693  10.295 -0.10 +0.20    +0.473 P 
DOCKED: ATOM     37  O   UNL d   1      53.760  21.907  10.167 -0.03 -0.07    -0.228 OA
DOCKED: BRANCH  36  38
DOCKED: ATOM     38  O   UNL d   1      52.712  24.244  10.582 -0.11 -0.11    -0.303 OA
DOCKED: ATOM     39  H   UNL d   1      52.710  24.732   9.730 +0.07 +0.06    +0.222 HD
DOCKED: ENDBRANCH  36  38
DOCKED: BRANCH  36  40
DOCKED: ATOM     40  O   UNL d   1      51.471  22.235  11.424 +0.02 -0.25    -0.303 OA
DOCKED: ATOM     41  H   UNL d   1      51.385  21.257  11.463 +0.04 +0.18    +0.222 HD
DOCKED: ENDBRANCH  36  40
DOCKED: ENDBRANCH  35  36
DOCKED: ENDBRANCH   5  35
DOCKED: BRANCH   4  42
DOCKED: ATOM     42  O   UNL d   1      51.854  20.278   7.442 -0.04 -0.09    -0.278 OA
DOCKED: BRANCH  42  43
DOCKED: ATOM     43  P   UNL d   1      50.913  19.378   8.363 -0.08 +0.24    +0.473 P 
DOCKED: ATOM     44  O   UNL d   1      51.140  17.906   8.347 -0.04 -0.11    -0.228 OA
DOCKED: BRANCH  43  45
DOCKED: ATOM     45  O   UNL d   1      51.084  20.048   9.796 -0.10 -0.16    -0.303 OA
DOCKED: ATOM     46  H   UNL d   1      51.798  20.717   9.796 +0.05 +0.10    +0.222 HD
DOCKED: ENDBRANCH  43  45
DOCKED: BRANCH  43  47
DOCKED: ATOM     47  O   UNL d   1      49.437  19.854   7.955 -0.21 -0.26    -0.303 OA
DOCKED: ATOM     48  H   UNL d   1      49.454  20.210   7.043 +0.03 +0.17    +0.222 HD
DOCKED: ENDBRANCH  43  47
DOCKED: ENDBRANCH  42  43
DOCKED: ENDBRANCH   4  42
DOCKED: TORSDOF 24
DOCKED: TER
DOCKED: ENDMDL
________________________________________________________________________________


	BEGINNING GENETIC ALGORITHM DOCKING 81 of 100
Run: 81 Seed: 1058428591 1712307337 [ Run 81 of 100 GA/GALS ]
Beginning LAMARCKIAN GENETIC ALGORITHM (LGA), with a maximum of 25000000 energy evaluations.

Final-Value: -17.159


	FINAL GENETIC ALGORITHM DOCKED STATE
	_______________________________________________


Detailed state:  trans 35.135 45.426 32.041 quatxyzw 0.476503 -0.065679 -0.521689 0.704608 center 0.035 0.082 -0.065 ntor 24 149.4618 180.0000 119.5506 117.5756 4.4325 -134.5985 -41.0310 -138.8221 86.2871 -24.5265 50.0071 -131.1269 -96.1824 65.9518 -58.3905 117.4990 41.4974 129.4760 49.5711 15.5429 179.8995 -2.4426 -21.9200 -1.5892
State:	 35.135  45.426  32.041   0.672 -0.093 -0.735 90.404    149.46  180.00  119.55  117.58    4.43 -134.60  -41.03 -138.82   86.29  -24.53   50.01 -131.13  -96.18   65.95  -58.39  117.50   41.50  129.48   49.57   15.54  179.90   -2.44  -21.92   -1.59

DOCKED: MODEL       81
DOCKED: USER    Run = 81
DOCKED: USER    DPF = D:/Protein_go_brrr/autodock/final/6BB5/IHP/dock.dpf
DOCKED: USER  
DOCKED: USER    Estimated Free Energy of Binding    =   +4.32 kcal/mol  [=(1)+(2)+(3)-(4)]
DOCKED: USER    
DOCKED: USER    (1) Final Intermolecular Energy     =   -2.84 kcal/mol
DOCKED: USER        vdW + Hbond + desolv Energy     =   -2.89 kcal/mol
DOCKED: USER        Electrostatic Energy            =   +0.05 kcal/mol
DOCKED: USER    (2) Final Total Internal Energy     =  -14.32 kcal/mol
DOCKED: USER    (3) Torsional Free Energy           =   +7.16 kcal/mol
DOCKED: USER    (4) Unbound System's Energy  [=(2)] =  -14.32 kcal/mol
DOCKED: USER    
DOCKED: USER    
DOCKED: USER    NEWDPF move IHP_ideal_opt.pdbqt
DOCKED: USER    NEWDPF about 0.035000 0.082000 -0.065000
DOCKED: USER    NEWDPF tran0 35.135289 45.425855 32.041256
DOCKED: USER    NEWDPF quaternion0 0.476503 -0.065679 -0.521689 0.704608
DOCKED: USER    NEWDPF axisangle0 0.671512 -0.092559 -0.735190 90.404292
DOCKED: USER    NEWDPF quat0 0.671512 -0.092559 -0.735190 90.404292
DOCKED: USER    NEWDPF dihe0 149.46 180.00 119.55 117.58 4.43 -134.60 -41.03 -138.82 86.29 -24.53 50.01 -131.13 -96.18 65.95 -58.39 117.50 41.50 129.48 49.57 15.54 179.90 -2.44 -21.92 -1.59 
DOCKED: USER  keepresnum = 1 
DOCKED: USER  
DOCKED: REMARK  24 active torsions:
DOCKED: REMARK  status: ('A' for Active; 'I' for Inactive)
DOCKED: REMARK    1  A    between atoms: C_1  and  O_7 
DOCKED: REMARK    2  A    between atoms: C_2  and  O_12 
DOCKED: REMARK    3  A    between atoms: C_3  and  O_17 
DOCKED: REMARK    4  A    between atoms: C_4  and  O_22 
DOCKED: REMARK    5  A    between atoms: C_5  and  O_27 
DOCKED: REMARK    6  A    between atoms: C_6  and  O_32 
DOCKED: REMARK    7  A    between atoms: O_7  and  P_8 
DOCKED: REMARK    8  A    between atoms: P_8  and  O_10 
DOCKED: REMARK    9  A    between atoms: P_8  and  O_11 
DOCKED: REMARK   10  A    between atoms: O_12  and  P_13 
DOCKED: REMARK   11  A    between atoms: P_13  and  O_15 
DOCKED: REMARK   12  A    between atoms: P_13  and  O_16 
DOCKED: REMARK   13  A    between atoms: O_17  and  P_18 
DOCKED: REMARK   14  A    between atoms: P_18  and  O_20 
DOCKED: REMARK   15  A    between atoms: P_18  and  O_21 
DOCKED: REMARK   16  A    between atoms: O_22  and  P_23 
DOCKED: REMARK   17  A    between atoms: P_23  and  O_25 
DOCKED: REMARK   18  A    between atoms: P_23  and  O_26 
DOCKED: REMARK   19  A    between atoms: O_27  and  P_28 
DOCKED: REMARK   20  A    between atoms: P_28  and  O_30 
DOCKED: REMARK   21  A    between atoms: P_28  and  O_31 
DOCKED: REMARK   22  A    between atoms: O_32  and  P_33 
DOCKED: REMARK   23  A    between atoms: P_33  and  O_35 
DOCKED: REMARK   24  A    between atoms: P_33  and  O_36 
DOCKED: USER                              x       y       z     vdW  Elec       q    Type
DOCKED: USER                           _______ _______ _______ _____ _____    ______ ____
DOCKED: ROOT
DOCKED: ATOM      1  C   UNL d   1      36.084  46.853  32.263 -0.03 +0.01    +0.194 C 
DOCKED: ATOM      2  C   UNL d   1      36.317  45.739  33.285 -0.04 +0.01    +0.194 C 
DOCKED: ATOM      3  C   UNL d   1      35.000  45.110  33.748 -0.04 +0.01    +0.194 C 
DOCKED: ATOM      4  C   UNL d   1      34.112  44.657  32.592 -0.02 +0.02    +0.194 C 
DOCKED: ATOM      5  C   UNL d   1      33.945  45.697  31.492 -0.13 +0.02    +0.194 C 
DOCKED: ATOM      6  C   UNL d   1      35.254  46.370  31.073 -0.11 +0.02    +0.194 C 
DOCKED: ENDROOT
DOCKED: BRANCH   1   7
DOCKED: ATOM      7  O   UNL d   1      37.355  47.266  31.756 -0.01 -0.02    -0.278 OA
DOCKED: BRANCH   7   8
DOCKED: ATOM      8  P   UNL d   1      38.308  48.126  32.707 +0.00 +0.02    +0.473 P 
DOCKED: ATOM      9  O   UNL d   1      37.633  49.225  33.448 -0.00 -0.01    -0.228 OA
DOCKED: BRANCH   8  10
DOCKED: ATOM     10  O   UNL d   1      38.979  47.041  33.665 -0.00 -0.01    -0.303 OA
DOCKED: ATOM     11  H   UNL d   1      38.553  46.175  33.527 +0.01 +0.01    +0.222 HD
DOCKED: ENDBRANCH   8  10
DOCKED: BRANCH   8  12
DOCKED: ATOM     12  O   UNL d   1      39.529  48.557  31.786 -0.00 -0.01    -0.303 OA
DOCKED: ATOM     13  H   UNL d   1      39.773  49.505  31.888 +0.00 +0.01    +0.222 HD
DOCKED: ENDBRANCH   8  12
DOCKED: ENDBRANCH   7   8
DOCKED: ENDBRANCH   1   7
DOCKED: BRANCH   2  14
DOCKED: ATOM     14  O   UNL d   1      37.125  44.718  32.687 -0.04 -0.03    -0.278 OA
DOCKED: BRANCH  14  15
DOCKED: ATOM     15  P   UNL d   1      38.130  43.939  33.661 -0.02 +0.03    +0.473 P 
DOCKED: ATOM     16  O   UNL d   1      37.962  42.455  33.753 -0.05 -0.02    -0.228 OA
DOCKED: BRANCH  15  17
DOCKED: ATOM     17  O   UNL d   1      39.576  44.365  33.147 -0.01 -0.02    -0.303 OA
DOCKED: ATOM     18  H   UNL d   1      39.544  45.219  32.674 +0.01 +0.01    +0.222 HD
DOCKED: ENDBRANCH  15  17
DOCKED: BRANCH  15  19
DOCKED: ATOM     19  O   UNL d   1      38.036  44.726  35.040 -0.01 -0.02    -0.303 OA
DOCKED: ATOM     20  H   UNL d   1      37.123  44.749  35.381 +0.01 +0.01    +0.222 HD
DOCKED: ENDBRANCH  15  19
DOCKED: ENDBRANCH  14  15
DOCKED: ENDBRANCH   2  14
DOCKED: BRANCH   6  21
DOCKED: ATOM     21  O   UNL d   1      34.899  47.524  30.314 -0.05 -0.02    -0.278 OA
DOCKED: BRANCH  21  22
DOCKED: ATOM     22  P   UNL d   1      34.396  48.839  31.063 +0.01 +0.02    +0.473 P 
DOCKED: ATOM     23  O   UNL d   1      33.710  48.683  32.378 -0.00 -0.01    -0.228 OA
DOCKED: BRANCH  22  24
DOCKED: ATOM     24  O   UNL d   1      35.722  49.719  31.102 -0.00 -0.01    -0.303 OA
DOCKED: ATOM     25  H   UNL d   1      36.403  49.227  31.627 +0.01 +0.01    +0.222 HD
DOCKED: ENDBRANCH  22  24
DOCKED: BRANCH  22  26
DOCKED: ATOM     26  O   UNL d   1      33.550  49.566  29.911 -0.01 -0.01    -0.303 OA
DOCKED: ATOM     27  H   UNL d   1      32.910  48.930  29.532 +0.05 +0.01    +0.222 HD
DOCKED: ENDBRANCH  22  26
DOCKED: ENDBRANCH  21  22
DOCKED: ENDBRANCH   6  21
DOCKED: BRANCH   3  28
DOCKED: ATOM     28  O   UNL d   1      35.321  43.925  34.465 -0.04 -0.01    -0.278 OA
DOCKED: BRANCH  28  29
DOCKED: ATOM     29  P   UNL d   1      35.146  43.871  36.048 -0.00 +0.01    +0.473 P 
DOCKED: ATOM     30  O   UNL d   1      33.829  43.381  36.530 -0.01 -0.00    -0.228 OA
DOCKED: BRANCH  29  31
DOCKED: ATOM     31  O   UNL d   1      36.431  43.003  36.441 -0.01 -0.01    -0.303 OA
DOCKED: ATOM     32  H   UNL d   1      37.009  42.920  35.648 +0.01 +0.01    +0.222 HD
DOCKED: ENDBRANCH  29  31
DOCKED: BRANCH  29  33
DOCKED: ATOM     33  O   UNL d   1      35.569  45.343  36.481 -0.00 -0.01    -0.303 OA
DOCKED: ATOM     34  H   UNL d   1      36.556  45.402  36.496 +0.00 +0.01    +0.222 HD
DOCKED: ENDBRANCH  29  33
DOCKED: ENDBRANCH  28  29
DOCKED: ENDBRANCH   3  28
DOCKED: BRANCH   5  35
DOCKED: ATOM     35  O   UNL d   1      33.457  44.985  30.357 -0.69 -0.09    -0.278 OA
DOCKED: BRANCH  35  36
DOCKED: ATOM     36  P   UNL d   1      31.948  45.175  29.876 -0.21 +0.01    +0.473 P 
DOCKED: ATOM     37  O   UNL d   1      31.706  46.328  28.954 -0.27 +0.01    -0.228 OA
DOCKED: BRANCH  36  38
DOCKED: ATOM     38  O   UNL d   1      31.625  43.751  29.242 -0.47 +0.04    -0.303 OA
DOCKED: ATOM     39  H   UNL d   1      32.299  43.105  29.544 -0.06 +0.01    +0.222 HD
DOCKED: ENDBRANCH  36  38
DOCKED: BRANCH  36  40
DOCKED: ATOM     40  O   UNL d   1      31.149  45.171  31.252 -0.11 +0.01    -0.303 OA
DOCKED: ATOM     41  H   UNL d   1      31.196  44.296  31.697 +0.06 -0.01    +0.222 HD
DOCKED: ENDBRANCH  36  40
DOCKED: ENDBRANCH  35  36
DOCKED: ENDBRANCH   5  35
DOCKED: BRANCH   4  42
DOCKED: ATOM     42  O   UNL d   1      32.812  44.412  33.140 -0.07 -0.00    -0.278 OA
DOCKED: BRANCH  42  43
DOCKED: ATOM     43  P   UNL d   1      32.260  42.916  33.176 -0.14 -0.03    +0.473 P 
DOCKED: ATOM     44  O   UNL d   1      30.952  42.682  33.851 -0.11 +0.02    -0.228 OA
DOCKED: BRANCH  43  45
DOCKED: ATOM     45  O   UNL d   1      32.283  42.498  31.641 -0.30 +0.04    -0.303 OA
DOCKED: ATOM     46  H   UNL d   1      32.256  43.282  31.056 +0.06 -0.00    +0.222 HD
DOCKED: ENDBRANCH  43  45
DOCKED: BRANCH  43  47
DOCKED: ATOM     47  O   UNL d   1      33.498  42.082  33.760 -0.10 +0.01    -0.303 OA
DOCKED: ATOM     48  H   UNL d   1      33.849  42.537  34.553 +0.04 +0.00    +0.222 HD
DOCKED: ENDBRANCH  43  47
DOCKED: ENDBRANCH  42  43
DOCKED: ENDBRANCH   4  42
DOCKED: TORSDOF 24
DOCKED: TER
DOCKED: ENDMDL
________________________________________________________________________________


	BEGINNING GENETIC ALGORITHM DOCKING 82 of 100
Run: 82 Seed: 5376914 984283982 [ Run 82 of 100 GA/GALS ]
Beginning LAMARCKIAN GENETIC ALGORITHM (LGA), with a maximum of 25000000 energy evaluations.

Final-Value: -18.100


	FINAL GENETIC ALGORITHM DOCKED STATE
	_______________________________________________


Detailed state:  trans -0.481 28.913 2.336 quatxyzw -0.274355 0.840872 0.339674 -0.319821 center 0.035 0.082 -0.065 ntor 24 -128.6739 -16.0328 153.7808 7.4163 21.9730 -147.0793 88.1132 -113.3474 -156.9290 -17.8694 166.1159 169.3814 98.5215 -141.8115 -4.1302 -44.8356 164.1919 0.5267 -26.1059 7.4128 148.4954 143.1133 -179.9598 135.4520
State:	 -0.481  28.913   2.336  -0.290  0.887  0.359 -142.696   -128.67  -16.03  153.78    7.42   21.97 -147.08   88.11 -113.35 -156.93  -17.87  166.12  169.38   98.52 -141.81   -4.13  -44.84  164.19    0.53  -26.11    7.41  148.50  143.11 -179.96  135.45

DOCKED: MODEL       82
DOCKED: USER    Run = 82
DOCKED: USER    DPF = D:/Protein_go_brrr/autodock/final/6BB5/IHP/dock.dpf
DOCKED: USER  
DOCKED: USER    Estimated Free Energy of Binding    =   +2.69 kcal/mol  [=(1)+(2)+(3)-(4)]
DOCKED: USER    
DOCKED: USER    (1) Final Intermolecular Energy     =   -4.47 kcal/mol
DOCKED: USER        vdW + Hbond + desolv Energy     =   -3.91 kcal/mol
DOCKED: USER        Electrostatic Energy            =   -0.56 kcal/mol
DOCKED: USER    (2) Final Total Internal Energy     =  -13.63 kcal/mol
DOCKED: USER    (3) Torsional Free Energy           =   +7.16 kcal/mol
DOCKED: USER    (4) Unbound System's Energy  [=(2)] =  -13.63 kcal/mol
DOCKED: USER    
DOCKED: USER    
DOCKED: USER    NEWDPF move IHP_ideal_opt.pdbqt
DOCKED: USER    NEWDPF about 0.035000 0.082000 -0.065000
DOCKED: USER    NEWDPF tran0 -0.480503 28.913262 2.336018
DOCKED: USER    NEWDPF quaternion0 -0.274355 0.840872 0.339674 -0.319821
DOCKED: USER    NEWDPF axisangle0 -0.289563 0.887484 0.358504 -142.695781
DOCKED: USER    NEWDPF quat0 -0.289563 0.887484 0.358504 -142.695781
DOCKED: USER    NEWDPF dihe0 -128.67 -16.03 153.78 7.42 21.97 -147.08 88.11 -113.35 -156.93 -17.87 166.12 169.38 98.52 -141.81 -4.13 -44.84 164.19 0.53 -26.11 7.41 148.50 143.11 -179.96 135.45 
DOCKED: USER  keepresnum = 1 
DOCKED: USER  
DOCKED: REMARK  24 active torsions:
DOCKED: REMARK  status: ('A' for Active; 'I' for Inactive)
DOCKED: REMARK    1  A    between atoms: C_1  and  O_7 
DOCKED: REMARK    2  A    between atoms: C_2  and  O_12 
DOCKED: REMARK    3  A    between atoms: C_3  and  O_17 
DOCKED: REMARK    4  A    between atoms: C_4  and  O_22 
DOCKED: REMARK    5  A    between atoms: C_5  and  O_27 
DOCKED: REMARK    6  A    between atoms: C_6  and  O_32 
DOCKED: REMARK    7  A    between atoms: O_7  and  P_8 
DOCKED: REMARK    8  A    between atoms: P_8  and  O_10 
DOCKED: REMARK    9  A    between atoms: P_8  and  O_11 
DOCKED: REMARK   10  A    between atoms: O_12  and  P_13 
DOCKED: REMARK   11  A    between atoms: P_13  and  O_15 
DOCKED: REMARK   12  A    between atoms: P_13  and  O_16 
DOCKED: REMARK   13  A    between atoms: O_17  and  P_18 
DOCKED: REMARK   14  A    between atoms: P_18  and  O_20 
DOCKED: REMARK   15  A    between atoms: P_18  and  O_21 
DOCKED: REMARK   16  A    between atoms: O_22  and  P_23 
DOCKED: REMARK   17  A    between atoms: P_23  and  O_25 
DOCKED: REMARK   18  A    between atoms: P_23  and  O_26 
DOCKED: REMARK   19  A    between atoms: O_27  and  P_28 
DOCKED: REMARK   20  A    between atoms: P_28  and  O_30 
DOCKED: REMARK   21  A    between atoms: P_28  and  O_31 
DOCKED: REMARK   22  A    between atoms: O_32  and  P_33 
DOCKED: REMARK   23  A    between atoms: P_33  and  O_35 
DOCKED: REMARK   24  A    between atoms: P_33  and  O_36 
DOCKED: USER                              x       y       z     vdW  Elec       q    Type
DOCKED: USER                           _______ _______ _______ _____ _____    ______ ____
DOCKED: ROOT
DOCKED: ATOM      1  C   UNL d   1      -0.408  28.649   0.630 -0.05 -0.02    +0.194 C 
DOCKED: ATOM      2  C   UNL d   1       0.813  28.180   1.424 -0.12 -0.04    +0.194 C 
DOCKED: ATOM      3  C   UNL d   1       1.229  29.206   2.481 -0.12 -0.03    +0.194 C 
DOCKED: ATOM      4  C   UNL d   1       0.080  29.635   3.389 -0.05 -0.03    +0.194 C 
DOCKED: ATOM      5  C   UNL d   1      -1.197  30.001   2.643 -0.02 -0.02    +0.194 C 
DOCKED: ATOM      6  C   UNL d   1      -1.580  29.007   1.545 -0.01 -0.02    +0.194 C 
DOCKED: ENDROOT
DOCKED: BRANCH   1   7
DOCKED: ATOM      7  O   UNL d   1      -0.835  27.572  -0.207 -0.05 +0.05    -0.278 OA
DOCKED: BRANCH   7   8
DOCKED: ATOM      8  P   UNL d   1      -1.513  27.924  -1.610 -0.04 -0.05    +0.473 P 
DOCKED: ATOM      9  O   UNL d   1      -1.307  26.913  -2.683 -0.09 +0.03    -0.228 OA
DOCKED: BRANCH   8  10
DOCKED: ATOM     10  O   UNL d   1      -3.050  28.153  -1.250 -0.00 +0.02    -0.303 OA
DOCKED: ATOM     11  H   UNL d   1      -3.154  29.005  -0.787 +0.01 -0.01    +0.222 HD
DOCKED: ENDBRANCH   8  10
DOCKED: BRANCH   8  12
DOCKED: ATOM     12  O   UNL d   1      -1.027  29.400  -1.945 -0.02 +0.02    -0.303 OA
DOCKED: ATOM     13  H   UNL d   1      -1.313  30.061  -1.275 +0.02 -0.01    +0.222 HD
DOCKED: ENDBRANCH   8  12
DOCKED: ENDBRANCH   7   8
DOCKED: ENDBRANCH   1   7
DOCKED: BRANCH   2  14
DOCKED: ATOM     14  O   UNL d   1       0.496  26.948   2.085 -0.07 +0.10    -0.278 OA
DOCKED: BRANCH  14  15
DOCKED: ATOM     15  P   UNL d   1       1.636  25.824   2.087 -0.11 -0.23    +0.473 P 
DOCKED: ATOM     16  O   UNL d   1       1.686  24.915   0.899 -0.29 +0.08    -0.228 OA
DOCKED: BRANCH  15  17
DOCKED: ATOM     17  O   UNL d   1       2.987  26.642   2.295 -0.16 +0.11    -0.303 OA
DOCKED: ATOM     18  H   UNL d   1       2.960  27.161   3.121 +0.14 -0.08    +0.222 HD
DOCKED: ENDBRANCH  15  17
DOCKED: BRANCH  15  19
DOCKED: ATOM     19  O   UNL d   1       1.479  25.103   3.496 -0.19 +0.32    -0.303 OA
DOCKED: ATOM     20  H   UNL d   1       1.483  25.744   4.231 -0.27 -0.35    +0.222 HD
DOCKED: ENDBRANCH  15  19
DOCKED: ENDBRANCH  14  15
DOCKED: ENDBRANCH   2  14
DOCKED: BRANCH   6  21
DOCKED: ATOM     21  O   UNL d   1      -2.563  29.646   0.734 -0.00 +0.01    -0.278 OA
DOCKED: BRANCH  21  22
DOCKED: ATOM     22  P   UNL d   1      -2.336  31.151   0.254 +0.00 +0.01    +0.473 P 
DOCKED: ATOM     23  O   UNL d   1      -0.936  31.650   0.138 -0.01 -0.01    -0.228 OA
DOCKED: BRANCH  22  24
DOCKED: ATOM     24  O   UNL d   1      -3.173  31.190  -1.099 +0.00 -0.01    -0.303 OA
DOCKED: ATOM     25  H   UNL d   1      -2.975  30.363  -1.608 +0.00 -0.00    +0.222 HD
DOCKED: ENDBRANCH  22  24
DOCKED: BRANCH  22  26
DOCKED: ATOM     26  O   UNL d   1      -3.291  31.960   1.257 -0.00 -0.01    -0.303 OA
DOCKED: ATOM     27  H   UNL d   1      -3.236  31.557   2.148 +0.00 +0.00    +0.222 HD
DOCKED: ENDBRANCH  22  26
DOCKED: ENDBRANCH  21  22
DOCKED: ENDBRANCH   6  21
DOCKED: BRANCH   3  28
DOCKED: ATOM     28  O   UNL d   1       2.174  28.578   3.338 -0.17 +0.07    -0.278 OA
DOCKED: BRANCH  28  29
DOCKED: ATOM     29  P   UNL d   1       1.756  28.140   4.811 -0.16 -0.26    +0.473 P 
DOCKED: ATOM     30  O   UNL d   1       1.536  29.251   5.772 -0.28 +0.08    -0.228 OA
DOCKED: BRANCH  29  31
DOCKED: ATOM     31  O   UNL d   1       0.498  27.208   4.479 -0.10 +0.27    -0.303 OA
DOCKED: ATOM     32  H   UNL d   1       0.526  26.421   5.071 -0.46 -0.48    +0.222 HD
DOCKED: ENDBRANCH  29  31
DOCKED: BRANCH  29  33
DOCKED: ATOM     33  O   UNL d   1       2.889  27.084   5.180 -0.23 +0.23    -0.303 OA
DOCKED: ATOM     34  H   UNL d   1       2.921  26.389   4.477 +0.08 -0.18    +0.222 HD
DOCKED: ENDBRANCH  29  33
DOCKED: ENDBRANCH  28  29
DOCKED: ENDBRANCH   3  28
DOCKED: BRANCH   5  35
DOCKED: ATOM     35  O   UNL d   1      -2.237  29.971   3.618 -0.00 +0.02    -0.278 OA
DOCKED: BRANCH  35  36
DOCKED: ATOM     36  P   UNL d   1      -2.395  28.714   4.588 +0.01 -0.10    +0.473 P 
DOCKED: ATOM     37  O   UNL d   1      -3.784  28.441   5.070 -0.00 +0.03    -0.228 OA
DOCKED: BRANCH  36  38
DOCKED: ATOM     38  O   UNL d   1      -1.765  27.544   3.710 -0.01 +0.10    -0.303 OA
DOCKED: ATOM     39  H   UNL d   1      -1.144  27.025   4.264 +0.03 -0.13    +0.222 HD
DOCKED: ENDBRANCH  36  38
DOCKED: BRANCH  36  40
DOCKED: ATOM     40  O   UNL d   1      -1.290  28.998   5.695 -0.03 +0.09    -0.303 OA
DOCKED: ATOM     41  H   UNL d   1      -0.390  29.059   5.305 +0.06 -0.07    +0.222 HD
DOCKED: ENDBRANCH  36  40
DOCKED: ENDBRANCH  35  36
DOCKED: ENDBRANCH   5  35
DOCKED: BRANCH   4  42
DOCKED: ATOM     42  O   UNL d   1       0.514  30.810   4.082 -0.07 +0.02    -0.278 OA
DOCKED: BRANCH  42  43
DOCKED: ATOM     43  P   UNL d   1       1.655  31.713   3.428 -0.16 -0.01    +0.473 P 
DOCKED: ATOM     44  O   UNL d   1       1.523  32.045   1.981 -0.10 -0.01    -0.228 OA
DOCKED: BRANCH  43  45
DOCKED: ATOM     45  O   UNL d   1       1.686  32.983   4.386 -0.22 -0.02    -0.303 OA
DOCKED: ATOM     46  H   UNL d   1       2.352  32.880   5.096 -0.42 -0.05    +0.222 HD
DOCKED: ENDBRANCH  43  45
DOCKED: BRANCH  43  47
DOCKED: ATOM     47  O   UNL d   1       3.005  30.957   3.844 -0.25 +0.02    -0.303 OA
DOCKED: ATOM     48  H   UNL d   1       2.800  30.279   4.521 +0.11 -0.03    +0.222 HD
DOCKED: ENDBRANCH  43  47
DOCKED: ENDBRANCH  42  43
DOCKED: ENDBRANCH   4  42
DOCKED: TORSDOF 24
DOCKED: TER
DOCKED: ENDMDL
________________________________________________________________________________


	BEGINNING GENETIC ALGORITHM DOCKING 83 of 100
Run: 83 Seed: 723862497 589715949 [ Run 83 of 100 GA/GALS ]
Beginning LAMARCKIAN GENETIC ALGORITHM (LGA), with a maximum of 25000000 energy evaluations.

Final-Value: -17.157


	FINAL GENETIC ALGORITHM DOCKED STATE
	_______________________________________________


Detailed state:  trans 41.589 40.270 32.052 quatxyzw -0.008746 -0.569708 0.462508 -0.679295 center 0.035 0.082 -0.065 ntor 24 64.2927 3.8778 134.0322 134.1001 -32.1948 179.8649 -10.8263 179.0673 71.9702 10.6501 147.9940 79.6145 -156.5573 90.0567 27.2976 145.9217 161.3309 -136.4216 21.4499 -29.7951 168.7490 -42.2199 -13.7394 160.1393
State:	 41.589  40.270  32.052  -0.012 -0.776  0.630 -94.423     64.29    3.88  134.03  134.10  -32.19  179.86  -10.83  179.07   71.97   10.65  147.99   79.61 -156.56   90.06   27.30  145.92  161.33 -136.42   21.45  -29.80  168.75  -42.22  -13.74  160.14

DOCKED: MODEL       83
DOCKED: USER    Run = 83
DOCKED: USER    DPF = D:/Protein_go_brrr/autodock/final/6BB5/IHP/dock.dpf
DOCKED: USER  
DOCKED: USER    Estimated Free Energy of Binding    =   +5.15 kcal/mol  [=(1)+(2)+(3)-(4)]
DOCKED: USER    
DOCKED: USER    (1) Final Intermolecular Energy     =   -2.01 kcal/mol
DOCKED: USER        vdW + Hbond + desolv Energy     =   -1.70 kcal/mol
DOCKED: USER        Electrostatic Energy            =   -0.32 kcal/mol
DOCKED: USER    (2) Final Total Internal Energy     =  -15.14 kcal/mol
DOCKED: USER    (3) Torsional Free Energy           =   +7.16 kcal/mol
DOCKED: USER    (4) Unbound System's Energy  [=(2)] =  -15.14 kcal/mol
DOCKED: USER    
DOCKED: USER    
DOCKED: USER    NEWDPF move IHP_ideal_opt.pdbqt
DOCKED: USER    NEWDPF about 0.035000 0.082000 -0.065000
DOCKED: USER    NEWDPF tran0 41.589260 40.269826 32.052218
DOCKED: USER    NEWDPF quaternion0 -0.008746 -0.569708 0.462508 -0.679295
DOCKED: USER    NEWDPF axisangle0 -0.011918 -0.776312 0.630236 -94.422801
DOCKED: USER    NEWDPF quat0 -0.011918 -0.776312 0.630236 -94.422801
DOCKED: USER    NEWDPF dihe0 64.29 3.88 134.03 134.10 -32.19 179.86 -10.83 179.07 71.97 10.65 147.99 79.61 -156.56 90.06 27.30 145.92 161.33 -136.42 21.45 -29.80 168.75 -42.22 -13.74 160.14 
DOCKED: USER  keepresnum = 1 
DOCKED: USER  
DOCKED: REMARK  24 active torsions:
DOCKED: REMARK  status: ('A' for Active; 'I' for Inactive)
DOCKED: REMARK    1  A    between atoms: C_1  and  O_7 
DOCKED: REMARK    2  A    between atoms: C_2  and  O_12 
DOCKED: REMARK    3  A    between atoms: C_3  and  O_17 
DOCKED: REMARK    4  A    between atoms: C_4  and  O_22 
DOCKED: REMARK    5  A    between atoms: C_5  and  O_27 
DOCKED: REMARK    6  A    between atoms: C_6  and  O_32 
DOCKED: REMARK    7  A    between atoms: O_7  and  P_8 
DOCKED: REMARK    8  A    between atoms: P_8  and  O_10 
DOCKED: REMARK    9  A    between atoms: P_8  and  O_11 
DOCKED: REMARK   10  A    between atoms: O_12  and  P_13 
DOCKED: REMARK   11  A    between atoms: P_13  and  O_15 
DOCKED: REMARK   12  A    between atoms: P_13  and  O_16 
DOCKED: REMARK   13  A    between atoms: O_17  and  P_18 
DOCKED: REMARK   14  A    between atoms: P_18  and  O_20 
DOCKED: REMARK   15  A    between atoms: P_18  and  O_21 
DOCKED: REMARK   16  A    between atoms: O_22  and  P_23 
DOCKED: REMARK   17  A    between atoms: P_23  and  O_25 
DOCKED: REMARK   18  A    between atoms: P_23  and  O_26 
DOCKED: REMARK   19  A    between atoms: O_27  and  P_28 
DOCKED: REMARK   20  A    between atoms: P_28  and  O_30 
DOCKED: REMARK   21  A    between atoms: P_28  and  O_31 
DOCKED: REMARK   22  A    between atoms: O_32  and  P_33 
DOCKED: REMARK   23  A    between atoms: P_33  and  O_35 
DOCKED: REMARK   24  A    between atoms: P_33  and  O_36 
DOCKED: USER                              x       y       z     vdW  Elec       q    Type
DOCKED: USER                           _______ _______ _______ _____ _____    ______ ____
DOCKED: ROOT
DOCKED: ATOM      1  C   UNL d   1      41.423  40.154  33.768 +0.00 +0.03    +0.194 C 
DOCKED: ATOM      2  C   UNL d   1      42.305  39.088  33.116 -0.00 +0.05    +0.194 C 
DOCKED: ATOM      3  C   UNL d   1      41.681  38.546  31.828 -0.05 +0.12    +0.194 C 
DOCKED: ATOM      4  C   UNL d   1      41.280  39.644  30.846 -0.05 +0.10    +0.194 C 
DOCKED: ATOM      5  C   UNL d   1      40.496  40.787  31.478 -0.03 +0.04    +0.194 C 
DOCKED: ATOM      6  C   UNL d   1      41.087  41.287  32.798 -0.01 +0.03    +0.194 C 
DOCKED: ENDROOT
DOCKED: BRANCH   1   7
DOCKED: ATOM      7  O   UNL d   1      42.149  40.728  34.858 +0.00 -0.03    -0.278 OA
DOCKED: BRANCH   7   8
DOCKED: ATOM      8  P   UNL d   1      41.802  40.243  36.340 +0.00 +0.04    +0.473 P 
DOCKED: ATOM      9  O   UNL d   1      41.013  41.209  37.151 -0.00 -0.01    -0.228 OA
DOCKED: BRANCH   8  10
DOCKED: ATOM     10  O   UNL d   1      41.059  38.848  36.126 +0.00 -0.03    -0.303 OA
DOCKED: ATOM     11  H   UNL d   1      40.095  38.993  36.093 +0.00 +0.02    +0.222 HD
DOCKED: ENDBRANCH   8  10
DOCKED: BRANCH   8  12
DOCKED: ATOM     12  O   UNL d   1      43.192  39.788  36.961 +0.00 -0.03    -0.303 OA
DOCKED: ATOM     13  H   UNL d   1      43.751  39.284  36.328 +0.00 +0.02    +0.222 HD
DOCKED: ENDBRANCH   8  12
DOCKED: ENDBRANCH   7   8
DOCKED: ENDBRANCH   1   7
DOCKED: BRANCH   2  14
DOCKED: ATOM     14  O   UNL d   1      43.578  39.665  32.798 +0.00 -0.07    -0.278 OA
DOCKED: BRANCH  14  15
DOCKED: ATOM     15  P   UNL d   1      44.786  39.324  33.793 +0.01 +0.08    +0.473 P 
DOCKED: ATOM     16  O   UNL d   1      46.144  39.187  33.178 +0.00 -0.03    -0.228 OA
DOCKED: BRANCH  15  17
DOCKED: ATOM     17  O   UNL d   1      44.719  40.476  34.892 +0.00 -0.03    -0.303 OA
DOCKED: ATOM     18  H   UNL d   1      43.795  40.698  35.112 +0.00 +0.02    +0.222 HD
DOCKED: ENDBRANCH  15  17
DOCKED: BRANCH  15  19
DOCKED: ATOM     19  O   UNL d   1      44.277  38.064  34.619 +0.00 -0.05    -0.303 OA
DOCKED: ATOM     20  H   UNL d   1      44.295  37.250  34.083 +0.00 +0.05    +0.222 HD
DOCKED: ENDBRANCH  15  19
DOCKED: ENDBRANCH  14  15
DOCKED: ENDBRANCH   2  14
DOCKED: BRANCH   6  21
DOCKED: ATOM     21  O   UNL d   1      40.085  42.088  33.420 -0.01 -0.03    -0.278 OA
DOCKED: BRANCH  21  22
DOCKED: ATOM     22  P   UNL d   1      38.735  41.409  33.932 -0.02 +0.04    +0.473 P 
DOCKED: ATOM     23  O   UNL d   1      38.835  40.296  34.920 -0.01 -0.02    -0.228 OA
DOCKED: BRANCH  22  24
DOCKED: ATOM     24  O   UNL d   1      37.905  42.672  34.431 -0.03 -0.02    -0.303 OA
DOCKED: ATOM     25  H   UNL d   1      38.011  42.741  35.414 +0.01 +0.01    +0.222 HD
DOCKED: ENDBRANCH  22  24
DOCKED: BRANCH  22  26
DOCKED: ATOM     26  O   UNL d   1      38.003  41.058  32.549 -0.05 -0.03    -0.303 OA
DOCKED: ATOM     27  H   UNL d   1      38.605  41.262  31.805 +0.03 +0.03    +0.222 HD
DOCKED: ENDBRANCH  22  26
DOCKED: ENDBRANCH  21  22
DOCKED: ENDBRANCH   6  21
DOCKED: BRANCH   3  28
DOCKED: ATOM     28  O   UNL d   1      42.676  37.784  31.157 -0.17 -0.30    -0.278 OA
DOCKED: BRANCH  28  29
DOCKED: ATOM     29  P   UNL d   1      43.187  36.407  31.774 -0.03 +0.36    +0.473 P 
DOCKED: ATOM     30  O   UNL d   1      42.981  35.208  30.922 -0.03 -0.26    -0.228 OA
DOCKED: BRANCH  29  31
DOCKED: ATOM     31  O   UNL d   1      44.698  36.801  32.122 -0.01 -0.12    -0.303 OA
DOCKED: ATOM     32  H   UNL d   1      44.708  37.713  32.494 +0.01 +0.07    +0.222 HD
DOCKED: ENDBRANCH  29  31
DOCKED: BRANCH  29  33
DOCKED: ATOM     33  O   UNL d   1      42.487  36.402  33.205 -0.01 -0.12    -0.303 OA
DOCKED: ATOM     34  H   UNL d   1      43.184  36.337  33.903 +0.01 +0.06    +0.222 HD
DOCKED: ENDBRANCH  29  33
DOCKED: ENDBRANCH  28  29
DOCKED: ENDBRANCH   3  28
DOCKED: BRANCH   5  35
DOCKED: ATOM     35  O   UNL d   1      40.569  41.866  30.549 -0.02 -0.04    -0.278 OA
DOCKED: BRANCH  35  36
DOCKED: ATOM     36  P   UNL d   1      39.244  42.427  29.861 -0.05 +0.06    +0.473 P 
DOCKED: ATOM     37  O   UNL d   1      39.437  43.088  28.533 -0.08 -0.01    -0.228 OA
DOCKED: BRANCH  36  38
DOCKED: ATOM     38  O   UNL d   1      38.325  41.127  29.817 -0.07 -0.05    -0.303 OA
DOCKED: ATOM     39  H   UNL d   1      38.803  40.381  30.240 +0.06 +0.05    +0.222 HD
DOCKED: ENDBRANCH  36  38
DOCKED: BRANCH  36  40
DOCKED: ATOM     40  O   UNL d   1      38.606  43.308  31.020 -0.07 -0.04    -0.303 OA
DOCKED: ATOM     41  H   UNL d   1      38.818  42.949  31.910 +0.02 +0.03    +0.222 HD
DOCKED: ENDBRANCH  36  40
DOCKED: ENDBRANCH  35  36
DOCKED: ENDBRANCH   5  35
DOCKED: BRANCH   4  42
DOCKED: ATOM     42  O   UNL d   1      40.426  39.036  29.871 -0.08 -0.24    -0.278 OA
DOCKED: BRANCH  42  43
DOCKED: ATOM     43  P   UNL d   1      39.211  38.130  30.367 -0.07 +0.31    +0.473 P 
DOCKED: ATOM     44  O   UNL d   1      39.468  36.673  30.542 -0.51 -0.25    -0.228 OA
DOCKED: BRANCH  43  45
DOCKED: ATOM     45  O   UNL d   1      38.742  38.872  31.694 -0.05 -0.08    -0.303 OA
DOCKED: ATOM     46  H   UNL d   1      38.248  39.691  31.491 +0.04 +0.03    +0.222 HD
DOCKED: ENDBRANCH  43  45
DOCKED: BRANCH  43  47
DOCKED: ATOM     47  O   UNL d   1      38.033  38.507  29.349 -0.24 -0.09    -0.303 OA
DOCKED: ATOM     48  H   UNL d   1      37.416  39.130  29.786 -0.15 +0.01    +0.222 HD
DOCKED: ENDBRANCH  43  47
DOCKED: ENDBRANCH  42  43
DOCKED: ENDBRANCH   4  42
DOCKED: TORSDOF 24
DOCKED: TER
DOCKED: ENDMDL
________________________________________________________________________________


	BEGINNING GENETIC ALGORITHM DOCKING 84 of 100
Run: 84 Seed: 219453737 1578896969 [ Run 84 of 100 GA/GALS ]
Beginning LAMARCKIAN GENETIC ALGORITHM (LGA), with a maximum of 25000000 energy evaluations.

Final-Value: -18.845


	FINAL GENETIC ALGORITHM DOCKED STATE
	_______________________________________________


Detailed state:  trans 50.139 41.948 18.461 quatxyzw -0.761721 -0.194033 0.562953 0.255376 center 0.035 0.082 -0.065 ntor 24 -112.9228 -24.7060 168.6562 13.7772 -9.0707 -110.6198 -32.2329 -0.0714 -18.6075 29.4232 26.7013 -155.9150 91.4203 174.7619 -13.2537 -0.1919 178.7438 -33.6347 -11.2405 14.0123 157.1849 -7.8513 -35.3219 12.4376
State:	 50.139  41.948  18.461  -0.788 -0.201  0.582 150.408   -112.92  -24.71  168.66   13.78   -9.07 -110.62  -32.23   -0.07  -18.61   29.42   26.70 -155.91   91.42  174.76  -13.25   -0.19  178.74  -33.63  -11.24   14.01  157.18   -7.85  -35.32   12.44

DOCKED: MODEL       84
DOCKED: USER    Run = 84
DOCKED: USER    DPF = D:/Protein_go_brrr/autodock/final/6BB5/IHP/dock.dpf
DOCKED: USER  
DOCKED: USER    Estimated Free Energy of Binding    =   +3.76 kcal/mol  [=(1)+(2)+(3)-(4)]
DOCKED: USER    
DOCKED: USER    (1) Final Intermolecular Energy     =   -3.40 kcal/mol
DOCKED: USER        vdW + Hbond + desolv Energy     =   -3.33 kcal/mol
DOCKED: USER        Electrostatic Energy            =   -0.07 kcal/mol
DOCKED: USER    (2) Final Total Internal Energy     =  -15.45 kcal/mol
DOCKED: USER    (3) Torsional Free Energy           =   +7.16 kcal/mol
DOCKED: USER    (4) Unbound System's Energy  [=(2)] =  -15.45 kcal/mol
DOCKED: USER    
DOCKED: USER    
DOCKED: USER    NEWDPF move IHP_ideal_opt.pdbqt
DOCKED: USER    NEWDPF about 0.035000 0.082000 -0.065000
DOCKED: USER    NEWDPF tran0 50.138973 41.948061 18.461458
DOCKED: USER    NEWDPF quaternion0 -0.761721 -0.194033 0.562953 0.255376
DOCKED: USER    NEWDPF axisangle0 -0.787844 -0.200688 0.582259 150.408310
DOCKED: USER    NEWDPF quat0 -0.787844 -0.200688 0.582259 150.408310
DOCKED: USER    NEWDPF dihe0 -112.92 -24.71 168.66 13.78 -9.07 -110.62 -32.23 -0.07 -18.61 29.42 26.70 -155.91 91.42 174.76 -13.25 -0.19 178.74 -33.63 -11.24 14.01 157.18 -7.85 -35.32 12.44 
DOCKED: USER  keepresnum = 1 
DOCKED: USER  
DOCKED: REMARK  24 active torsions:
DOCKED: REMARK  status: ('A' for Active; 'I' for Inactive)
DOCKED: REMARK    1  A    between atoms: C_1  and  O_7 
DOCKED: REMARK    2  A    between atoms: C_2  and  O_12 
DOCKED: REMARK    3  A    between atoms: C_3  and  O_17 
DOCKED: REMARK    4  A    between atoms: C_4  and  O_22 
DOCKED: REMARK    5  A    between atoms: C_5  and  O_27 
DOCKED: REMARK    6  A    between atoms: C_6  and  O_32 
DOCKED: REMARK    7  A    between atoms: O_7  and  P_8 
DOCKED: REMARK    8  A    between atoms: P_8  and  O_10 
DOCKED: REMARK    9  A    between atoms: P_8  and  O_11 
DOCKED: REMARK   10  A    between atoms: O_12  and  P_13 
DOCKED: REMARK   11  A    between atoms: P_13  and  O_15 
DOCKED: REMARK   12  A    between atoms: P_13  and  O_16 
DOCKED: REMARK   13  A    between atoms: O_17  and  P_18 
DOCKED: REMARK   14  A    between atoms: P_18  and  O_20 
DOCKED: REMARK   15  A    between atoms: P_18  and  O_21 
DOCKED: REMARK   16  A    between atoms: O_22  and  P_23 
DOCKED: REMARK   17  A    between atoms: P_23  and  O_25 
DOCKED: REMARK   18  A    between atoms: P_23  and  O_26 
DOCKED: REMARK   19  A    between atoms: O_27  and  P_28 
DOCKED: REMARK   20  A    between atoms: P_28  and  O_30 
DOCKED: REMARK   21  A    between atoms: P_28  and  O_31 
DOCKED: REMARK   22  A    between atoms: O_32  and  P_33 
DOCKED: REMARK   23  A    between atoms: P_33  and  O_35 
DOCKED: REMARK   24  A    between atoms: P_33  and  O_36 
DOCKED: USER                              x       y       z     vdW  Elec       q    Type
DOCKED: USER                           _______ _______ _______ _____ _____    ______ ____
DOCKED: ROOT
DOCKED: ATOM      1  C   UNL d   1      49.386  42.183  16.925 -0.13 -0.02    +0.194 C 
DOCKED: ATOM      2  C   UNL d   1      48.834  43.036  18.069 -0.13 -0.03    +0.194 C 
DOCKED: ATOM      3  C   UNL d   1      48.670  42.222  19.354 -0.08 -0.01    +0.194 C 
DOCKED: ATOM      4  C   UNL d   1      49.936  41.468  19.754 -0.01 -0.00    +0.194 C 
DOCKED: ATOM      5  C   UNL d   1      50.585  40.695  18.614 -0.01 -0.00    +0.194 C 
DOCKED: ATOM      6  C   UNL d   1      50.693  41.489  17.310 -0.02 -0.01    +0.194 C 
DOCKED: ENDROOT
DOCKED: BRANCH   1   7
DOCKED: ATOM      7  O   UNL d   1      49.671  43.047  15.822 -0.12 +0.04    -0.278 OA
DOCKED: BRANCH   7   8
DOCKED: ATOM      8  P   UNL d   1      49.186  42.604  14.366 -0.09 -0.07    +0.473 P 
DOCKED: ATOM      9  O   UNL d   1      48.711  43.713  13.494 -0.32 +0.05    -0.228 OA
DOCKED: BRANCH   8  10
DOCKED: ATOM     10  O   UNL d   1      50.439  41.823  13.762 -0.16 +0.06    -0.303 OA
DOCKED: ATOM     11  H   UNL d   1      50.379  40.878  13.995 +0.07 -0.04    +0.222 HD
DOCKED: ENDBRANCH   8  10
DOCKED: BRANCH   8  12
DOCKED: ATOM     12  O   UNL d   1      48.150  41.426  14.616 -0.74 +0.02    -0.303 OA
DOCKED: ATOM     13  H   UNL d   1      48.575  40.602  14.945 -0.09 -0.03    +0.222 HD
DOCKED: ENDBRANCH   8  12
DOCKED: ENDBRANCH   7   8
DOCKED: ENDBRANCH   1   7
DOCKED: BRANCH   2  14
DOCKED: ATOM     14  O   UNL d   1      49.740  44.116  18.325 -0.07 +0.02    -0.278 OA
DOCKED: BRANCH  14  15
DOCKED: ATOM     15  P   UNL d   1      49.086  45.505  18.780 -0.01 -0.00    +0.473 P 
DOCKED: ATOM     16  O   UNL d   1      49.523  46.729  18.037 -0.24 -0.00    -0.228 OA
DOCKED: BRANCH  15  17
DOCKED: ATOM     17  O   UNL d   1      47.518  45.248  18.678 -0.52 -0.00    -0.303 OA
DOCKED: ATOM     18  H   UNL d   1      47.209  44.665  19.399 +0.05 -0.02    +0.222 HD
DOCKED: ENDBRANCH  15  17
DOCKED: BRANCH  15  19
DOCKED: ATOM     19  O   UNL d   1      49.301  45.547  20.356 -0.01 +0.00    -0.303 OA
DOCKED: ATOM     20  H   UNL d   1      49.065  44.699  20.775 +0.02 -0.00    +0.222 HD
DOCKED: ENDBRANCH  15  19
DOCKED: ENDBRANCH  14  15
DOCKED: ENDBRANCH   2  14
DOCKED: BRANCH   6  21
DOCKED: ATOM     21  O   UNL d   1      50.988  40.550  16.279 -0.02 +0.01    -0.278 OA
DOCKED: BRANCH  21  22
DOCKED: ATOM     22  P   UNL d   1      50.035  39.289  16.060 -0.03 -0.02    +0.473 P 
DOCKED: ATOM     23  O   UNL d   1      48.673  39.321  16.667 -0.13 +0.01    -0.228 OA
DOCKED: BRANCH  22  24
DOCKED: ATOM     24  O   UNL d   1      50.056  39.137  14.476 -0.13 +0.04    -0.303 OA
DOCKED: ATOM     25  H   UNL d   1      49.488  39.852  14.089 -0.22 -0.06    +0.222 HD
DOCKED: ENDBRANCH  22  24
DOCKED: BRANCH  22  26
DOCKED: ATOM     26  O   UNL d   1      50.983  38.081  16.521 -0.01 -0.00    -0.303 OA
DOCKED: ATOM     27  H   UNL d   1      51.042  38.074  17.498 +0.02 +0.00    +0.222 HD
DOCKED: ENDBRANCH  22  26
DOCKED: ENDBRANCH  21  22
DOCKED: ENDBRANCH   6  21
DOCKED: BRANCH   3  28
DOCKED: ATOM     28  O   UNL d   1      48.425  43.138  20.413 -0.03 +0.01    -0.278 OA
DOCKED: BRANCH  28  29
DOCKED: ATOM     29  P   UNL d   1      46.951  43.335  20.983 -0.04 -0.01    +0.473 P 
DOCKED: ATOM     30  O   UNL d   1      45.851  43.032  20.031 -0.19 +0.01    -0.228 OA
DOCKED: BRANCH  29  31
DOCKED: ATOM     31  O   UNL d   1      47.039  42.433  22.302 -0.01 +0.00    -0.303 OA
DOCKED: ATOM     32  H   UNL d   1      47.988  42.305  22.532 +0.02 +0.00    +0.222 HD
DOCKED: ENDBRANCH  29  31
DOCKED: BRANCH  29  33
DOCKED: ATOM     33  O   UNL d   1      47.012  44.816  21.564 -0.01 -0.00    -0.303 OA
DOCKED: ATOM     34  H   UNL d   1      47.248  45.438  20.833 +0.04 -0.00    +0.222 HD
DOCKED: ENDBRANCH  29  33
DOCKED: ENDBRANCH  28  29
DOCKED: ENDBRANCH   3  28
DOCKED: BRANCH   5  35
DOCKED: ATOM     35  O   UNL d   1      51.915  40.413  19.045 +0.00 -0.00    -0.278 OA
DOCKED: BRANCH  35  36
DOCKED: ATOM     36  P   UNL d   1      52.258  39.016  19.733 +0.00 +0.01    +0.473 P 
DOCKED: ATOM     37  O   UNL d   1      53.145  39.090  20.935 +0.00 -0.01    -0.228 OA
DOCKED: BRANCH  36  38
DOCKED: ATOM     38  O   UNL d   1      50.806  38.431  20.026 +0.00 -0.01    -0.303 OA
DOCKED: ATOM     39  H   UNL d   1      50.507  38.741  20.908 +0.00 +0.01    +0.222 HD
DOCKED: ENDBRANCH  36  38
DOCKED: BRANCH  36  40
DOCKED: ATOM     40  O   UNL d   1      52.778  38.150  18.504 -0.00 -0.01    -0.303 OA
DOCKED: ATOM     41  H   UNL d   1      52.584  38.586  17.644 +0.00 +0.00    +0.222 HD
DOCKED: ENDBRANCH  36  40
DOCKED: ENDBRANCH  35  36
DOCKED: ENDBRANCH   5  35
DOCKED: BRANCH   4  42
DOCKED: ATOM     42  O   UNL d   1      49.552  40.511  20.747 -0.00 -0.00    -0.278 OA
DOCKED: BRANCH  42  43
DOCKED: ATOM     43  P   UNL d   1      49.784  40.859  22.286 +0.00 +0.01    +0.473 P 
DOCKED: ATOM     44  O   UNL d   1      50.133  42.267  22.626 -0.00 -0.00    -0.228 OA
DOCKED: BRANCH  43  45
DOCKED: ATOM     45  O   UNL d   1      48.445  40.337  22.969 -0.00 -0.00    -0.303 OA
DOCKED: ATOM     46  H   UNL d   1      47.654  40.623  22.470 +0.02 -0.00    +0.222 HD
DOCKED: ENDBRANCH  43  45
DOCKED: BRANCH  43  47
DOCKED: ATOM     47  O   UNL d   1      50.843  39.752  22.756 -0.00 -0.01    -0.303 OA
DOCKED: ATOM     48  H   UNL d   1      51.333  39.421  21.975 +0.00 +0.01    +0.222 HD
DOCKED: ENDBRANCH  43  47
DOCKED: ENDBRANCH  42  43
DOCKED: ENDBRANCH   4  42
DOCKED: TORSDOF 24
DOCKED: TER
DOCKED: ENDMDL
________________________________________________________________________________


	BEGINNING GENETIC ALGORITHM DOCKING 85 of 100
Run: 85 Seed: 1412032362 791152464 [ Run 85 of 100 GA/GALS ]
Beginning LAMARCKIAN GENETIC ALGORITHM (LGA), with a maximum of 25000000 energy evaluations.

Final-Value: -15.637


	FINAL GENETIC ALGORITHM DOCKED STATE
	_______________________________________________


Detailed state:  trans 39.299 52.202 1.857 quatxyzw -0.204396 -0.734196 -0.091205 0.640984 center 0.035 0.082 -0.065 ntor 24 25.3523 86.4607 160.7500 8.2745 16.9934 -126.3597 -35.6335 -180.0000 -11.3466 106.9591 -26.5344 -152.4047 29.8970 -173.3521 7.7336 -39.5684 -86.9971 -99.0098 -5.8788 6.0019 145.1382 129.9343 -165.5534 -179.9651
State:	 39.299  52.202   1.857  -0.266 -0.957 -0.119 100.270     25.35   86.46  160.75    8.27   16.99 -126.36  -35.63 -180.00  -11.35  106.96  -26.53 -152.40   29.90 -173.35    7.73  -39.57  -87.00  -99.01   -5.88    6.00  145.14  129.93 -165.55 -179.97

DOCKED: MODEL       85
DOCKED: USER    Run = 85
DOCKED: USER    DPF = D:/Protein_go_brrr/autodock/final/6BB5/IHP/dock.dpf
DOCKED: USER  
DOCKED: USER    Estimated Free Energy of Binding    =   +4.23 kcal/mol  [=(1)+(2)+(3)-(4)]
DOCKED: USER    
DOCKED: USER    (1) Final Intermolecular Energy     =   -2.93 kcal/mol
DOCKED: USER        vdW + Hbond + desolv Energy     =   -2.86 kcal/mol
DOCKED: USER        Electrostatic Energy            =   -0.07 kcal/mol
DOCKED: USER    (2) Final Total Internal Energy     =  -12.71 kcal/mol
DOCKED: USER    (3) Torsional Free Energy           =   +7.16 kcal/mol
DOCKED: USER    (4) Unbound System's Energy  [=(2)] =  -12.71 kcal/mol
DOCKED: USER    
DOCKED: USER    
DOCKED: USER    NEWDPF move IHP_ideal_opt.pdbqt
DOCKED: USER    NEWDPF about 0.035000 0.082000 -0.065000
DOCKED: USER    NEWDPF tran0 39.298787 52.201785 1.856570
DOCKED: USER    NEWDPF quaternion0 -0.204396 -0.734196 -0.091205 0.640984
DOCKED: USER    NEWDPF axisangle0 -0.266295 -0.956539 -0.118825 100.269543
DOCKED: USER    NEWDPF quat0 -0.266295 -0.956539 -0.118825 100.269543
DOCKED: USER    NEWDPF dihe0 25.35 86.46 160.75 8.27 16.99 -126.36 -35.63 -180.00 -11.35 106.96 -26.53 -152.40 29.90 -173.35 7.73 -39.57 -87.00 -99.01 -5.88 6.00 145.14 129.93 -165.55 -179.97 
DOCKED: USER  keepresnum = 1 
DOCKED: USER  
DOCKED: REMARK  24 active torsions:
DOCKED: REMARK  status: ('A' for Active; 'I' for Inactive)
DOCKED: REMARK    1  A    between atoms: C_1  and  O_7 
DOCKED: REMARK    2  A    between atoms: C_2  and  O_12 
DOCKED: REMARK    3  A    between atoms: C_3  and  O_17 
DOCKED: REMARK    4  A    between atoms: C_4  and  O_22 
DOCKED: REMARK    5  A    between atoms: C_5  and  O_27 
DOCKED: REMARK    6  A    between atoms: C_6  and  O_32 
DOCKED: REMARK    7  A    between atoms: O_7  and  P_8 
DOCKED: REMARK    8  A    between atoms: P_8  and  O_10 
DOCKED: REMARK    9  A    between atoms: P_8  and  O_11 
DOCKED: REMARK   10  A    between atoms: O_12  and  P_13 
DOCKED: REMARK   11  A    between atoms: P_13  and  O_15 
DOCKED: REMARK   12  A    between atoms: P_13  and  O_16 
DOCKED: REMARK   13  A    between atoms: O_17  and  P_18 
DOCKED: REMARK   14  A    between atoms: P_18  and  O_20 
DOCKED: REMARK   15  A    between atoms: P_18  and  O_21 
DOCKED: REMARK   16  A    between atoms: O_22  and  P_23 
DOCKED: REMARK   17  A    between atoms: P_23  and  O_25 
DOCKED: REMARK   18  A    between atoms: P_23  and  O_26 
DOCKED: REMARK   19  A    between atoms: O_27  and  P_28 
DOCKED: REMARK   20  A    between atoms: P_28  and  O_30 
DOCKED: REMARK   21  A    between atoms: P_28  and  O_31 
DOCKED: REMARK   22  A    between atoms: O_32  and  P_33 
DOCKED: REMARK   23  A    between atoms: P_33  and  O_35 
DOCKED: REMARK   24  A    between atoms: P_33  and  O_36 
DOCKED: USER                              x       y       z     vdW  Elec       q    Type
DOCKED: USER                           _______ _______ _______ _____ _____    ______ ____
DOCKED: ROOT
DOCKED: ATOM      1  C   UNL d   1      39.791  51.824   0.244 +0.01 +0.03    +0.194 C 
DOCKED: ATOM      2  C   UNL d   1      39.401  50.627   1.114 +0.00 +0.04    +0.194 C 
DOCKED: ATOM      3  C   UNL d   1      39.973  50.744   2.528 -0.01 +0.04    +0.194 C 
DOCKED: ATOM      4  C   UNL d   1      39.648  52.076   3.200 -0.04 +0.05    +0.194 C 
DOCKED: ATOM      5  C   UNL d   1      39.915  53.294   2.325 -0.00 +0.03    +0.194 C 
DOCKED: ATOM      6  C   UNL d   1      39.397  53.152   0.892 +0.01 +0.03    +0.194 C 
DOCKED: ENDROOT
DOCKED: BRANCH   1   7
DOCKED: ATOM      7  O   UNL d   1      39.083  51.726  -0.993 +0.00 -0.03    -0.278 OA
DOCKED: BRANCH   7   8
DOCKED: ATOM      8  P   UNL d   1      39.913  51.830  -2.354 +0.00 +0.04    +0.473 P 
DOCKED: ATOM      9  O   UNL d   1      40.583  50.572  -2.782 +0.00 -0.01    -0.228 OA
DOCKED: BRANCH   8  10
DOCKED: ATOM     10  O   UNL d   1      38.850  52.369  -3.415 +0.00 -0.02    -0.303 OA
DOCKED: ATOM     11  H   UNL d   1      38.898  51.832  -4.227 +0.00 +0.01    +0.222 HD
DOCKED: ENDBRANCH   8  10
DOCKED: BRANCH   8  12
DOCKED: ATOM     12  O   UNL d   1      40.861  53.091  -2.163 +0.00 -0.02    -0.303 OA
DOCKED: ATOM     13  H   UNL d   1      41.257  53.143  -1.264 +0.00 +0.01    +0.222 HD
DOCKED: ENDBRANCH   8  12
DOCKED: ENDBRANCH   7   8
DOCKED: ENDBRANCH   1   7
DOCKED: BRANCH   2  14
DOCKED: ATOM     14  O   UNL d   1      37.972  50.561   1.203 -0.01 -0.10    -0.278 OA
DOCKED: BRANCH  14  15
DOCKED: ATOM     15  P   UNL d   1      37.314  49.107   1.076 -0.04 +0.28    +0.473 P 
DOCKED: ATOM     16  O   UNL d   1      36.390  48.887  -0.081 -0.02 -0.10    -0.228 OA
DOCKED: BRANCH  15  17
DOCKED: ATOM     17  O   UNL d   1      38.561  48.116   1.067 -0.01 -0.13    -0.303 OA
DOCKED: ATOM     18  H   UNL d   1      39.038  48.143   1.918 +0.03 +0.09    +0.222 HD
DOCKED: ENDBRANCH  15  17
DOCKED: BRANCH  15  19
DOCKED: ATOM     19  O   UNL d   1      36.693  48.825   2.513 -0.08 -0.52    -0.303 OA
DOCKED: ATOM     20  H   UNL d   1      37.346  48.971   3.222 +0.03 +0.34    +0.222 HD
DOCKED: ENDBRANCH  15  19
DOCKED: ENDBRANCH  14  15
DOCKED: ENDBRANCH   2  14
DOCKED: BRANCH   6  21
DOCKED: ATOM     21  O   UNL d   1      40.009  54.188   0.128 +0.00 -0.03    -0.278 OA
DOCKED: BRANCH  21  22
DOCKED: ATOM     22  P   UNL d   1      41.558  54.512   0.330 +0.00 +0.03    +0.473 P 
DOCKED: ATOM     23  O   UNL d   1      42.492  53.372   0.561 +0.00 -0.01    -0.228 OA
DOCKED: BRANCH  22  24
DOCKED: ATOM     24  O   UNL d   1      41.879  55.388  -0.959 +0.00 -0.01    -0.303 OA
DOCKED: ATOM     25  H   UNL d   1      41.526  54.910  -1.752 +0.00 +0.01    +0.222 HD
DOCKED: ENDBRANCH  22  24
DOCKED: BRANCH  22  26
DOCKED: ATOM     26  O   UNL d   1      41.510  55.625   1.483 +0.00 -0.02    -0.303 OA
DOCKED: ATOM     27  H   UNL d   1      41.080  55.247   2.277 +0.01 +0.02    +0.222 HD
DOCKED: ENDBRANCH  22  26
DOCKED: ENDBRANCH  21  22
DOCKED: ENDBRANCH   6  21
DOCKED: BRANCH   3  28
DOCKED: ATOM     28  O   UNL d   1      39.341  49.754   3.329 -0.05 -0.10    -0.278 OA
DOCKED: BRANCH  28  29
DOCKED: ATOM     29  P   UNL d   1      38.481  50.176   4.601 -0.15 +0.27    +0.473 P 
DOCKED: ATOM     30  O   UNL d   1      39.242  50.809   5.708 -0.44 -0.10    -0.228 OA
DOCKED: BRANCH  29  31
DOCKED: ATOM     31  O   UNL d   1      37.354  51.066   3.893 -0.14 -0.18    -0.303 OA
DOCKED: ATOM     32  H   UNL d   1      37.367  50.878   2.926 +0.04 +0.12    +0.222 HD
DOCKED: ENDBRANCH  29  31
DOCKED: BRANCH  29  33
DOCKED: ATOM     33  O   UNL d   1      37.703  48.829   4.940 -0.61 -0.38    -0.303 OA
DOCKED: ATOM     34  H   UNL d   1      36.730  49.001   4.898 -0.36 +0.48    +0.222 HD
DOCKED: ENDBRANCH  29  33
DOCKED: ENDBRANCH  28  29
DOCKED: ENDBRANCH   3  28
DOCKED: BRANCH   5  35
DOCKED: ATOM     35  O   UNL d   1      39.195  54.368   2.927 -0.01 -0.07    -0.278 OA
DOCKED: BRANCH  35  36
DOCKED: ATOM     36  P   UNL d   1      37.792  54.099   3.636 -0.07 +0.21    +0.473 P 
DOCKED: ATOM     37  O   UNL d   1      36.865  53.182   2.904 -0.11 -0.09    -0.228 OA
DOCKED: BRANCH  36  38
DOCKED: ATOM     38  O   UNL d   1      38.246  53.565   5.066 -0.57 -0.37    -0.303 OA
DOCKED: ATOM     39  H   UNL d   1      38.473  52.613   4.996 +0.06 +0.28    +0.222 HD
DOCKED: ENDBRANCH  36  38
DOCKED: BRANCH  36  40
DOCKED: ATOM     40  O   UNL d   1      37.269  55.573   3.926 -0.08 -0.11    -0.303 OA
DOCKED: ATOM     41  H   UNL d   1      37.089  56.066   3.094 +0.03 +0.05    +0.222 HD
DOCKED: ENDBRANCH  36  40
DOCKED: ENDBRANCH  35  36
DOCKED: ENDBRANCH   5  35
DOCKED: BRANCH   4  42
DOCKED: ATOM     42  O   UNL d   1      40.504  52.184   4.343 -0.09 -0.04    -0.278 OA
DOCKED: BRANCH  42  43
DOCKED: ATOM     43  P   UNL d   1      42.070  52.385   4.117 -0.04 -0.02    +0.473 P 
DOCKED: ATOM     44  O   UNL d   1      42.768  51.408   3.235 -0.03 +0.01    -0.228 OA
DOCKED: BRANCH  43  45
DOCKED: ATOM     45  O   UNL d   1      42.160  53.893   3.616 -0.00 -0.01    -0.303 OA
DOCKED: ATOM     46  H   UNL d   1      42.244  53.942   2.643 +0.01 +0.01    +0.222 HD
DOCKED: ENDBRANCH  43  45
DOCKED: BRANCH  43  47
DOCKED: ATOM     47  O   UNL d   1      42.644  52.502   5.609 -0.12 +0.09    -0.303 OA
DOCKED: ATOM     48  H   UNL d   1      42.048  52.023   6.222 -0.05 -0.17    +0.222 HD
DOCKED: ENDBRANCH  43  47
DOCKED: ENDBRANCH  42  43
DOCKED: ENDBRANCH   4  42
DOCKED: TORSDOF 24
DOCKED: TER
DOCKED: ENDMDL
________________________________________________________________________________


	BEGINNING GENETIC ALGORITHM DOCKING 86 of 100
Run: 86 Seed: 2055397981 918609122 [ Run 86 of 100 GA/GALS ]
Beginning LAMARCKIAN GENETIC ALGORITHM (LGA), with a maximum of 25000000 energy evaluations.

Final-Value: -16.019


	FINAL GENETIC ALGORITHM DOCKED STATE
	_______________________________________________


Detailed state:  trans 35.837 31.643 33.511 quatxyzw -0.551977 -0.217638 0.279000 -0.755059 center 0.035 0.082 -0.065 ntor 24 -170.5617 179.3362 133.7936 -4.2086 78.2127 115.8817 4.0231 -158.5385 134.4575 -31.5548 141.4602 -30.0243 -107.5774 -179.3101 60.2134 123.8817 -179.9625 97.4696 51.0827 7.7284 180.0000 -10.6669 12.9522 158.1246
State:	 35.837  31.643  33.511  -0.842 -0.332  0.426 -81.939   -170.56  179.34  133.79   -4.21   78.21  115.88    4.02 -158.54  134.46  -31.55  141.46  -30.02 -107.58 -179.31   60.21  123.88 -179.96   97.47   51.08    7.73  180.00  -10.67   12.95  158.12

DOCKED: MODEL       86
DOCKED: USER    Run = 86
DOCKED: USER    DPF = D:/Protein_go_brrr/autodock/final/6BB5/IHP/dock.dpf
DOCKED: USER  
DOCKED: USER    Estimated Free Energy of Binding    =   +4.78 kcal/mol  [=(1)+(2)+(3)-(4)]
DOCKED: USER    
DOCKED: USER    (1) Final Intermolecular Energy     =   -2.38 kcal/mol
DOCKED: USER        vdW + Hbond + desolv Energy     =   -2.35 kcal/mol
DOCKED: USER        Electrostatic Energy            =   -0.03 kcal/mol
DOCKED: USER    (2) Final Total Internal Energy     =  -13.64 kcal/mol
DOCKED: USER    (3) Torsional Free Energy           =   +7.16 kcal/mol
DOCKED: USER    (4) Unbound System's Energy  [=(2)] =  -13.64 kcal/mol
DOCKED: USER    
DOCKED: USER    
DOCKED: USER    NEWDPF move IHP_ideal_opt.pdbqt
DOCKED: USER    NEWDPF about 0.035000 0.082000 -0.065000
DOCKED: USER    NEWDPF tran0 35.836634 31.643065 33.511265
DOCKED: USER    NEWDPF quaternion0 -0.551977 -0.217638 0.279000 -0.755059
DOCKED: USER    NEWDPF axisangle0 -0.841868 -0.331939 0.425528 -81.938915
DOCKED: USER    NEWDPF quat0 -0.841868 -0.331939 0.425528 -81.938915
DOCKED: USER    NEWDPF dihe0 -170.56 179.34 133.79 -4.21 78.21 115.88 4.02 -158.54 134.46 -31.55 141.46 -30.02 -107.58 -179.31 60.21 123.88 -179.96 97.47 51.08 7.73 180.00 -10.67 12.95 158.12 
DOCKED: USER  keepresnum = 1 
DOCKED: USER  
DOCKED: REMARK  24 active torsions:
DOCKED: REMARK  status: ('A' for Active; 'I' for Inactive)
DOCKED: REMARK    1  A    between atoms: C_1  and  O_7 
DOCKED: REMARK    2  A    between atoms: C_2  and  O_12 
DOCKED: REMARK    3  A    between atoms: C_3  and  O_17 
DOCKED: REMARK    4  A    between atoms: C_4  and  O_22 
DOCKED: REMARK    5  A    between atoms: C_5  and  O_27 
DOCKED: REMARK    6  A    between atoms: C_6  and  O_32 
DOCKED: REMARK    7  A    between atoms: O_7  and  P_8 
DOCKED: REMARK    8  A    between atoms: P_8  and  O_10 
DOCKED: REMARK    9  A    between atoms: P_8  and  O_11 
DOCKED: REMARK   10  A    between atoms: O_12  and  P_13 
DOCKED: REMARK   11  A    between atoms: P_13  and  O_15 
DOCKED: REMARK   12  A    between atoms: P_13  and  O_16 
DOCKED: REMARK   13  A    between atoms: O_17  and  P_18 
DOCKED: REMARK   14  A    between atoms: P_18  and  O_20 
DOCKED: REMARK   15  A    between atoms: P_18  and  O_21 
DOCKED: REMARK   16  A    between atoms: O_22  and  P_23 
DOCKED: REMARK   17  A    between atoms: P_23  and  O_25 
DOCKED: REMARK   18  A    between atoms: P_23  and  O_26 
DOCKED: REMARK   19  A    between atoms: O_27  and  P_28 
DOCKED: REMARK   20  A    between atoms: P_28  and  O_30 
DOCKED: REMARK   21  A    between atoms: P_28  and  O_31 
DOCKED: REMARK   22  A    between atoms: O_32  and  P_33 
DOCKED: REMARK   23  A    between atoms: P_33  and  O_35 
DOCKED: REMARK   24  A    between atoms: P_33  and  O_36 
DOCKED: USER                              x       y       z     vdW  Elec       q    Type
DOCKED: USER                           _______ _______ _______ _____ _____    ______ ____
DOCKED: ROOT
DOCKED: ATOM      1  C   UNL d   1      36.433  32.827  34.619 -0.01 +0.04    +0.194 C 
DOCKED: ATOM      2  C   UNL d   1      35.878  31.549  35.252 -0.03 +0.07    +0.194 C 
DOCKED: ATOM      3  C   UNL d   1      34.575  31.106  34.584 -0.08 +0.12    +0.194 C 
DOCKED: ATOM      4  C   UNL d   1      34.685  30.997  33.065 -0.06 +0.14    +0.194 C 
DOCKED: ATOM      5  C   UNL d   1      35.339  32.202  32.402 -0.11 +0.07    +0.194 C 
DOCKED: ATOM      6  C   UNL d   1      36.609  32.684  33.107 -0.04 +0.05    +0.194 C 
DOCKED: ENDROOT
DOCKED: BRANCH   1   7
DOCKED: ATOM      7  O   UNL d   1      37.726  33.075  35.177 -0.00 -0.05    -0.278 OA
DOCKED: BRANCH   7   8
DOCKED: ATOM      8  P   UNL d   1      37.817  33.563  36.695 +0.00 +0.06    +0.473 P 
DOCKED: ATOM      9  O   UNL d   1      37.041  34.794  37.010 +0.00 -0.02    -0.228 OA
DOCKED: BRANCH   8  10
DOCKED: ATOM     10  O   UNL d   1      37.348  32.293  37.538 +0.00 -0.05    -0.303 OA
DOCKED: ATOM     11  H   UNL d   1      37.604  31.477  37.070 +0.00 +0.04    +0.222 HD
DOCKED: ENDBRANCH   8  10
DOCKED: BRANCH   8  12
DOCKED: ATOM     12  O   UNL d   1      39.371  33.621  37.018 +0.00 -0.04    -0.303 OA
DOCKED: ATOM     13  H   UNL d   1      39.638  34.446  37.483 +0.00 +0.02    +0.222 HD
DOCKED: ENDBRANCH   8  12
DOCKED: ENDBRANCH   7   8
DOCKED: ENDBRANCH   1   7
DOCKED: BRANCH   2  14
DOCKED: ATOM     14  O   UNL d   1      36.844  30.500  35.110 -0.03 -0.12    -0.278 OA
DOCKED: BRANCH  14  15
DOCKED: ATOM     15  P   UNL d   1      37.038  29.531  36.370 -0.01 +0.17    +0.473 P 
DOCKED: ATOM     16  O   UNL d   1      38.425  29.414  36.920 -0.00 -0.05    -0.228 OA
DOCKED: BRANCH  15  17
DOCKED: ATOM     17  O   UNL d   1      35.992  30.075  37.442 -0.00 -0.09    -0.303 OA
DOCKED: ATOM     18  H   UNL d   1      35.163  30.358  37.012 +0.01 +0.08    +0.222 HD
DOCKED: ENDBRANCH  15  17
DOCKED: BRANCH  15  19
DOCKED: ATOM     19  O   UNL d   1      36.358  28.163  35.927 -0.05 -0.21    -0.303 OA
DOCKED: ATOM     20  H   UNL d   1      35.400  28.268  35.779 +0.02 +0.24    +0.222 HD
DOCKED: ENDBRANCH  15  19
DOCKED: ENDBRANCH  14  15
DOCKED: ENDBRANCH   2  14
DOCKED: BRANCH   6  21
DOCKED: ATOM     21  O   UNL d   1      36.897  33.983  32.595 -0.02 -0.05    -0.278 OA
DOCKED: BRANCH  21  22
DOCKED: ATOM     22  P   UNL d   1      36.065  35.241  33.114 +0.01 +0.04    +0.473 P 
DOCKED: ATOM     23  O   UNL d   1      36.581  35.986  34.299 -0.01 -0.02    -0.228 OA
DOCKED: BRANCH  22  24
DOCKED: ATOM     24  O   UNL d   1      35.927  36.110  31.788 -0.07 -0.01    -0.303 OA
DOCKED: ATOM     25  H   UNL d   1      36.206  35.548  31.021 +0.09 +0.03    +0.222 HD
DOCKED: ENDBRANCH  22  24
DOCKED: BRANCH  22  26
DOCKED: ATOM     26  O   UNL d   1      34.594  34.622  33.259 -0.02 -0.01    -0.303 OA
DOCKED: ATOM     27  H   UNL d   1      34.307  34.268  32.392 +0.07 +0.00    +0.222 HD
DOCKED: ENDBRANCH  22  26
DOCKED: ENDBRANCH  21  22
DOCKED: ENDBRANCH   6  21
DOCKED: BRANCH   3  28
DOCKED: ATOM     28  O   UNL d   1      34.288  29.789  35.037 -0.55 -0.37    -0.278 OA
DOCKED: BRANCH  28  29
DOCKED: ATOM     29  P   UNL d   1      33.223  29.552  36.197 -0.03 +0.37    +0.473 P 
DOCKED: ATOM     30  O   UNL d   1      31.859  29.172  35.747 -0.08 -0.19    -0.228 OA
DOCKED: BRANCH  29  31
DOCKED: ATOM     31  O   UNL d   1      34.015  28.486  37.090 -0.03 -0.19    -0.303 OA
DOCKED: ATOM     32  H   UNL d   1      34.890  28.869  37.334 +0.01 +0.10    +0.222 HD
DOCKED: ENDBRANCH  29  31
DOCKED: BRANCH  29  33
DOCKED: ATOM     33  O   UNL d   1      33.353  30.890  37.049 -0.00 -0.10    -0.303 OA
DOCKED: ATOM     34  H   UNL d   1      33.925  30.715  37.836 +0.01 +0.06    +0.222 HD
DOCKED: ENDBRANCH  29  33
DOCKED: ENDBRANCH  28  29
DOCKED: ENDBRANCH   3  28
DOCKED: BRANCH   5  35
DOCKED: ATOM     35  O   UNL d   1      35.721  31.767  31.099 -0.17 -0.10    -0.278 OA
DOCKED: BRANCH  35  36
DOCKED: ATOM     36  P   UNL d   1      35.620  32.762  29.856 -0.21 +0.09    +0.473 P 
DOCKED: ATOM     37  O   UNL d   1      35.031  32.180  28.611 -0.45 -0.02    -0.228 OA
DOCKED: BRANCH  36  38
DOCKED: ATOM     38  O   UNL d   1      34.784  33.970  30.473 -0.19 -0.02    -0.303 OA
DOCKED: ATOM     39  H   UNL d   1      35.309  34.392  31.187 +0.09 +0.02    +0.222 HD
DOCKED: ENDBRANCH  36  38
DOCKED: BRANCH  36  40
DOCKED: ATOM     40  O   UNL d   1      37.101  33.333  29.756 -0.21 -0.08    -0.303 OA
DOCKED: ATOM     41  H   UNL d   1      37.296  33.969  30.480 +0.10 +0.06    +0.222 HD
DOCKED: ENDBRANCH  36  40
DOCKED: ENDBRANCH  35  36
DOCKED: ENDBRANCH   5  35
DOCKED: BRANCH   4  42
DOCKED: ATOM     42  O   UNL d   1      33.349  30.911  32.558 -0.13 -0.21    -0.278 OA
DOCKED: BRANCH  42  43
DOCKED: ATOM     43  P   UNL d   1      32.252  31.936  33.096 -0.07 +0.13    +0.473 P 
DOCKED: ATOM     44  O   UNL d   1      31.241  32.434  32.122 -0.13 +0.01    -0.228 OA
DOCKED: BRANCH  43  45
DOCKED: ATOM     45  O   UNL d   1      31.631  31.161  34.340 -0.04 -0.12    -0.303 OA
DOCKED: ATOM     46  H   UNL d   1      32.277  31.082  35.071 +0.02 +0.10    +0.222 HD
DOCKED: ENDBRANCH  43  45
DOCKED: BRANCH  43  47
DOCKED: ATOM     47  O   UNL d   1      33.130  33.065  33.820 -0.02 -0.04    -0.303 OA
DOCKED: ATOM     48  H   UNL d   1      32.670  33.927  33.747 +0.04 -0.01    +0.222 HD
DOCKED: ENDBRANCH  43  47
DOCKED: ENDBRANCH  42  43
DOCKED: ENDBRANCH   4  42
DOCKED: TORSDOF 24
DOCKED: TER
DOCKED: ENDMDL
________________________________________________________________________________


	BEGINNING GENETIC ALGORITHM DOCKING 87 of 100
Run: 87 Seed: 216265190 1665842839 [ Run 87 of 100 GA/GALS ]
Beginning LAMARCKIAN GENETIC ALGORITHM (LGA), with a maximum of 25000000 energy evaluations.

Final-Value: -16.604


	FINAL GENETIC ALGORITHM DOCKED STATE
	_______________________________________________


Detailed state:  trans -3.709 40.450 6.723 quatxyzw -0.389307 -0.039886 0.649832 0.651589 center 0.035 0.082 -0.065 ntor 24 -130.8482 20.6167 176.6203 5.0659 34.7391 -171.7908 -10.3962 -137.7386 154.0502 123.7889 68.0997 86.4920 -142.5736 77.6399 134.1585 143.5096 43.3516 172.7373 21.0077 -35.9803 -21.6395 -41.5816 -179.2368 26.9781
State:	 -3.709  40.450   6.723  -0.513 -0.053  0.857 98.677   -130.85   20.62  176.62    5.07   34.74 -171.79  -10.40 -137.74  154.05  123.79   68.10   86.49 -142.57   77.64  134.16  143.51   43.35  172.74   21.01  -35.98  -21.64  -41.58 -179.24   26.98

DOCKED: MODEL       87
DOCKED: USER    Run = 87
DOCKED: USER    DPF = D:/Protein_go_brrr/autodock/final/6BB5/IHP/dock.dpf
DOCKED: USER  
DOCKED: USER    Estimated Free Energy of Binding    =   +5.23 kcal/mol  [=(1)+(2)+(3)-(4)]
DOCKED: USER    
DOCKED: USER    (1) Final Intermolecular Energy     =   -1.93 kcal/mol
DOCKED: USER        vdW + Hbond + desolv Energy     =   -1.81 kcal/mol
DOCKED: USER        Electrostatic Energy            =   -0.12 kcal/mol
DOCKED: USER    (2) Final Total Internal Energy     =  -14.67 kcal/mol
DOCKED: USER    (3) Torsional Free Energy           =   +7.16 kcal/mol
DOCKED: USER    (4) Unbound System's Energy  [=(2)] =  -14.67 kcal/mol
DOCKED: USER    
DOCKED: USER    
DOCKED: USER    NEWDPF move IHP_ideal_opt.pdbqt
DOCKED: USER    NEWDPF about 0.035000 0.082000 -0.065000
DOCKED: USER    NEWDPF tran0 -3.709064 40.450201 6.722693
DOCKED: USER    NEWDPF quaternion0 -0.389307 -0.039886 0.649832 0.651589
DOCKED: USER    NEWDPF axisangle0 -0.513210 -0.052580 0.856651 98.677038
DOCKED: USER    NEWDPF quat0 -0.513210 -0.052580 0.856651 98.677038
DOCKED: USER    NEWDPF dihe0 -130.85 20.62 176.62 5.07 34.74 -171.79 -10.40 -137.74 154.05 123.79 68.10 86.49 -142.57 77.64 134.16 143.51 43.35 172.74 21.01 -35.98 -21.64 -41.58 -179.24 26.98 
DOCKED: USER  keepresnum = 1 
DOCKED: USER  
DOCKED: REMARK  24 active torsions:
DOCKED: REMARK  status: ('A' for Active; 'I' for Inactive)
DOCKED: REMARK    1  A    between atoms: C_1  and  O_7 
DOCKED: REMARK    2  A    between atoms: C_2  and  O_12 
DOCKED: REMARK    3  A    between atoms: C_3  and  O_17 
DOCKED: REMARK    4  A    between atoms: C_4  and  O_22 
DOCKED: REMARK    5  A    between atoms: C_5  and  O_27 
DOCKED: REMARK    6  A    between atoms: C_6  and  O_32 
DOCKED: REMARK    7  A    between atoms: O_7  and  P_8 
DOCKED: REMARK    8  A    between atoms: P_8  and  O_10 
DOCKED: REMARK    9  A    between atoms: P_8  and  O_11 
DOCKED: REMARK   10  A    between atoms: O_12  and  P_13 
DOCKED: REMARK   11  A    between atoms: P_13  and  O_15 
DOCKED: REMARK   12  A    between atoms: P_13  and  O_16 
DOCKED: REMARK   13  A    between atoms: O_17  and  P_18 
DOCKED: REMARK   14  A    between atoms: P_18  and  O_20 
DOCKED: REMARK   15  A    between atoms: P_18  and  O_21 
DOCKED: REMARK   16  A    between atoms: O_22  and  P_23 
DOCKED: REMARK   17  A    between atoms: P_23  and  O_25 
DOCKED: REMARK   18  A    between atoms: P_23  and  O_26 
DOCKED: REMARK   19  A    between atoms: O_27  and  P_28 
DOCKED: REMARK   20  A    between atoms: P_28  and  O_30 
DOCKED: REMARK   21  A    between atoms: P_28  and  O_31 
DOCKED: REMARK   22  A    between atoms: O_32  and  P_33 
DOCKED: REMARK   23  A    between atoms: P_33  and  O_35 
DOCKED: REMARK   24  A    between atoms: P_33  and  O_36 
DOCKED: USER                              x       y       z     vdW  Elec       q    Type
DOCKED: USER                           _______ _______ _______ _____ _____    ______ ____
DOCKED: ROOT
DOCKED: ATOM      1  C   UNL d   1      -4.657  39.117   6.168 -0.01 +0.06    +0.194 C 
DOCKED: ATOM      2  C   UNL d   1      -5.385  40.460   6.242 +0.00 +0.05    +0.194 C 
DOCKED: ATOM      3  C   UNL d   1      -5.048  41.217   7.528 -0.01 +0.07    +0.194 C 
DOCKED: ATOM      4  C   UNL d   1      -3.547  41.361   7.766 -0.06 +0.13    +0.194 C 
DOCKED: ATOM      5  C   UNL d   1      -2.764  40.066   7.589 -0.08 +0.17    +0.194 C 
DOCKED: ATOM      6  C   UNL d   1      -3.145  39.278   6.334 -0.07 +0.09    +0.194 C 
DOCKED: ENDROOT
DOCKED: BRANCH   1   7
DOCKED: ATOM      7  O   UNL d   1      -4.886  38.556   4.873 -0.00 -0.07    -0.278 OA
DOCKED: BRANCH   7   8
DOCKED: ATOM      8  P   UNL d   1      -5.977  37.399   4.729 +0.01 +0.07    +0.473 P 
DOCKED: ATOM      9  O   UNL d   1      -5.453  36.014   4.883 -0.00 -0.03    -0.228 OA
DOCKED: BRANCH   8  10
DOCKED: ATOM     10  O   UNL d   1      -7.085  37.775   5.813 +0.00 -0.04    -0.303 OA
DOCKED: ATOM     11  H   UNL d   1      -7.579  38.562   5.517 +0.00 +0.03    +0.222 HD
DOCKED: ENDBRANCH   8  10
DOCKED: BRANCH   8  12
DOCKED: ATOM     12  O   UNL d   1      -6.729  37.708   3.364 +0.00 -0.04    -0.303 OA
DOCKED: ATOM     13  H   UNL d   1      -6.684  38.656   3.105 +0.00 +0.03    +0.222 HD
DOCKED: ENDBRANCH   8  12
DOCKED: ENDBRANCH   7   8
DOCKED: ENDBRANCH   1   7
DOCKED: BRANCH   2  14
DOCKED: ATOM     14  O   UNL d   1      -4.995  41.265   5.123 +0.00 -0.07    -0.278 OA
DOCKED: BRANCH  14  15
DOCKED: ATOM     15  P   UNL d   1      -5.959  41.229   3.844 +0.00 +0.09    +0.473 P 
DOCKED: ATOM     16  O   UNL d   1      -6.318  42.549   3.236 +0.00 -0.03    -0.228 OA
DOCKED: BRANCH  15  17
DOCKED: ATOM     17  O   UNL d   1      -5.211  40.262   2.823 +0.00 -0.07    -0.303 OA
DOCKED: ATOM     18  H   UNL d   1      -5.375  39.325   3.041 +0.01 +0.05    +0.222 HD
DOCKED: ENDBRANCH  15  17
DOCKED: BRANCH  15  19
DOCKED: ATOM     19  O   UNL d   1      -7.187  40.326   4.299 +0.00 -0.04    -0.303 OA
DOCKED: ATOM     20  H   UNL d   1      -6.893  39.456   4.625 +0.00 +0.03    +0.222 HD
DOCKED: ENDBRANCH  15  19
DOCKED: ENDBRANCH  14  15
DOCKED: ENDBRANCH   2  14
DOCKED: BRANCH   6  21
DOCKED: ATOM     21  O   UNL d   1      -2.600  37.970   6.487 -0.07 -0.13    -0.278 OA
DOCKED: BRANCH  21  22
DOCKED: ATOM     22  P   UNL d   1      -1.619  37.386   5.373 -0.10 +0.22    +0.473 P 
DOCKED: ATOM     23  O   UNL d   1      -0.794  36.191   5.716 -0.20 -0.08    -0.228 OA
DOCKED: BRANCH  22  24
DOCKED: ATOM     24  O   UNL d   1      -2.608  37.183   4.143 -0.06 -0.13    -0.303 OA
DOCKED: ATOM     25  H   UNL d   1      -3.506  36.967   4.501 +0.03 +0.06    +0.222 HD
DOCKED: ENDBRANCH  22  24
DOCKED: BRANCH  22  26
DOCKED: ATOM     26  O   UNL d   1      -0.808  38.697   4.933 -0.13 -0.22    -0.303 OA
DOCKED: ATOM     27  H   UNL d   1      -0.959  39.405   5.592 +0.08 +0.14    +0.222 HD
DOCKED: ENDBRANCH  22  26
DOCKED: ENDBRANCH  21  22
DOCKED: ENDBRANCH   6  21
DOCKED: BRANCH   3  28
DOCKED: ATOM     28  O   UNL d   1      -5.536  42.545   7.384 +0.00 -0.07    -0.278 OA
DOCKED: BRANCH  28  29
DOCKED: ATOM     29  P   UNL d   1      -7.103  42.828   7.359 +0.01 +0.07    +0.473 P 
DOCKED: ATOM     30  O   UNL d   1      -7.619  43.678   8.463 +0.00 -0.03    -0.228 OA
DOCKED: BRANCH  29  31
DOCKED: ATOM     31  O   UNL d   1      -7.261  43.396   5.871 +0.00 -0.04    -0.303 OA
DOCKED: ATOM     32  H   UNL d   1      -6.702  42.854   5.267 +0.00 +0.03    +0.222 HD
DOCKED: ENDBRANCH  29  31
DOCKED: BRANCH  29  33
DOCKED: ATOM     33  O   UNL d   1      -7.706  41.359   7.240 +0.00 -0.04    -0.303 OA
DOCKED: ATOM     34  H   UNL d   1      -7.631  41.056   6.302 +0.00 +0.03    +0.222 HD
DOCKED: ENDBRANCH  29  33
DOCKED: ENDBRANCH  28  29
DOCKED: ENDBRANCH   3  28
DOCKED: BRANCH   5  35
DOCKED: ATOM     35  O   UNL d   1      -1.400  40.455   7.442 -0.18 -0.28    -0.278 OA
DOCKED: BRANCH  35  36
DOCKED: ATOM     36  P   UNL d   1      -0.999  41.611   6.418 -0.13 +0.29    +0.473 P 
DOCKED: ATOM     37  O   UNL d   1      -1.046  43.002   6.966 -0.11 -0.12    -0.228 OA
DOCKED: BRANCH  36  38
DOCKED: ATOM     38  O   UNL d   1       0.447  41.141   5.947 -0.25 -0.18    -0.303 OA
DOCKED: ATOM     39  H   UNL d   1       0.352  40.489   5.219 -0.02 +0.15    +0.222 HD
DOCKED: ENDBRANCH  36  38
DOCKED: BRANCH  36  40
DOCKED: ATOM     40  O   UNL d   1      -1.931  41.296   5.168 -0.05 -0.16    -0.303 OA
DOCKED: ATOM     41  H   UNL d   1      -2.837  41.656   5.289 +0.03 +0.09    +0.222 HD
DOCKED: ENDBRANCH  36  40
DOCKED: ENDBRANCH  35  36
DOCKED: ENDBRANCH   5  35
DOCKED: BRANCH   4  42
DOCKED: ATOM     42  O   UNL d   1      -3.380  41.771   9.127 -0.40 -0.31    -0.278 OA
DOCKED: BRANCH  42  43
DOCKED: ATOM     43  P   UNL d   1      -3.497  43.321   9.485 -0.02 +0.25    +0.473 P 
DOCKED: ATOM     44  O   UNL d   1      -2.560  43.862  10.509 -0.05 -0.11    -0.228 OA
DOCKED: BRANCH  43  45
DOCKED: ATOM     45  O   UNL d   1      -3.377  44.018   8.060 -0.01 -0.10    -0.303 OA
DOCKED: ATOM     46  H   UNL d   1      -3.188  43.365   7.357 +0.02 +0.09    +0.222 HD
DOCKED: ENDBRANCH  43  45
DOCKED: BRANCH  43  47
DOCKED: ATOM     47  O   UNL d   1      -5.056  43.506   9.808 +0.00 -0.08    -0.303 OA
DOCKED: ATOM     48  H   UNL d   1      -5.519  43.807   8.999 +0.01 +0.05    +0.222 HD
DOCKED: ENDBRANCH  43  47
DOCKED: ENDBRANCH  42  43
DOCKED: ENDBRANCH   4  42
DOCKED: TORSDOF 24
DOCKED: TER
DOCKED: ENDMDL
________________________________________________________________________________


	BEGINNING GENETIC ALGORITHM DOCKING 88 of 100
Run: 88 Seed: 1661672847 67755941 [ Run 88 of 100 GA/GALS ]
Beginning LAMARCKIAN GENETIC ALGORITHM (LGA), with a maximum of 25000000 energy evaluations.

Final-Value: -17.912


	FINAL GENETIC ALGORITHM DOCKED STATE
	_______________________________________________


Detailed state:  trans -2.538 36.632 16.160 quatxyzw 0.911924 -0.061922 0.400881 0.062093 center 0.035 0.082 -0.065 ntor 24 123.1062 43.5965 89.6515 51.3952 126.1715 146.1136 -66.9803 -17.9275 25.5230 104.8413 129.3532 147.7567 -7.5496 116.6815 180.0000 -161.7152 -46.9529 90.0617 -5.8604 -19.9497 -3.9432 4.8578 164.8164 -7.5086
State:	 -2.538  36.632  16.160   0.914 -0.062  0.402 172.880    123.11   43.60   89.65   51.40  126.17  146.11  -66.98  -17.93   25.52  104.84  129.35  147.76   -7.55  116.68  180.00 -161.72  -46.95   90.06   -5.86  -19.95   -3.94    4.86  164.82   -7.51

DOCKED: MODEL       88
DOCKED: USER    Run = 88
DOCKED: USER    DPF = D:/Protein_go_brrr/autodock/final/6BB5/IHP/dock.dpf
DOCKED: USER  
DOCKED: USER    Estimated Free Energy of Binding    =   +2.58 kcal/mol  [=(1)+(2)+(3)-(4)]
DOCKED: USER    
DOCKED: USER    (1) Final Intermolecular Energy     =   -4.58 kcal/mol
DOCKED: USER        vdW + Hbond + desolv Energy     =   -3.94 kcal/mol
DOCKED: USER        Electrostatic Energy            =   -0.64 kcal/mol
DOCKED: USER    (2) Final Total Internal Energy     =  -13.33 kcal/mol
DOCKED: USER    (3) Torsional Free Energy           =   +7.16 kcal/mol
DOCKED: USER    (4) Unbound System's Energy  [=(2)] =  -13.33 kcal/mol
DOCKED: USER    
DOCKED: USER    
DOCKED: USER    NEWDPF move IHP_ideal_opt.pdbqt
DOCKED: USER    NEWDPF about 0.035000 0.082000 -0.065000
DOCKED: USER    NEWDPF tran0 -2.538022 36.632491 16.159573
DOCKED: USER    NEWDPF quaternion0 0.911924 -0.061922 0.400881 0.062093
DOCKED: USER    NEWDPF axisangle0 0.913687 -0.062041 0.401656 172.880141
DOCKED: USER    NEWDPF quat0 0.913687 -0.062041 0.401656 172.880141
DOCKED: USER    NEWDPF dihe0 123.11 43.60 89.65 51.40 126.17 146.11 -66.98 -17.93 25.52 104.84 129.35 147.76 -7.55 116.68 180.00 -161.72 -46.95 90.06 -5.86 -19.95 -3.94 4.86 164.82 -7.51 
DOCKED: USER  keepresnum = 1 
DOCKED: USER  
DOCKED: REMARK  24 active torsions:
DOCKED: REMARK  status: ('A' for Active; 'I' for Inactive)
DOCKED: REMARK    1  A    between atoms: C_1  and  O_7 
DOCKED: REMARK    2  A    between atoms: C_2  and  O_12 
DOCKED: REMARK    3  A    between atoms: C_3  and  O_17 
DOCKED: REMARK    4  A    between atoms: C_4  and  O_22 
DOCKED: REMARK    5  A    between atoms: C_5  and  O_27 
DOCKED: REMARK    6  A    between atoms: C_6  and  O_32 
DOCKED: REMARK    7  A    between atoms: O_7  and  P_8 
DOCKED: REMARK    8  A    between atoms: P_8  and  O_10 
DOCKED: REMARK    9  A    between atoms: P_8  and  O_11 
DOCKED: REMARK   10  A    between atoms: O_12  and  P_13 
DOCKED: REMARK   11  A    between atoms: P_13  and  O_15 
DOCKED: REMARK   12  A    between atoms: P_13  and  O_16 
DOCKED: REMARK   13  A    between atoms: O_17  and  P_18 
DOCKED: REMARK   14  A    between atoms: P_18  and  O_20 
DOCKED: REMARK   15  A    between atoms: P_18  and  O_21 
DOCKED: REMARK   16  A    between atoms: O_22  and  P_23 
DOCKED: REMARK   17  A    between atoms: P_23  and  O_25 
DOCKED: REMARK   18  A    between atoms: P_23  and  O_26 
DOCKED: REMARK   19  A    between atoms: O_27  and  P_28 
DOCKED: REMARK   20  A    between atoms: P_28  and  O_30 
DOCKED: REMARK   21  A    between atoms: P_28  and  O_31 
DOCKED: REMARK   22  A    between atoms: O_32  and  P_33 
DOCKED: REMARK   23  A    between atoms: P_33  and  O_35 
DOCKED: REMARK   24  A    between atoms: P_33  and  O_36 
DOCKED: USER                              x       y       z     vdW  Elec       q    Type
DOCKED: USER                           _______ _______ _______ _____ _____    ______ ____
DOCKED: ROOT
DOCKED: ATOM      1  C   UNL d   1      -1.057  37.353  16.680 -0.08 -0.09    +0.194 C 
DOCKED: ATOM      2  C   UNL d   1      -2.116  38.324  16.156 -0.03 -0.15    +0.194 C 
DOCKED: ATOM      3  C   UNL d   1      -2.793  37.795  14.889 -0.11 -0.09    +0.194 C 
DOCKED: ATOM      4  C   UNL d   1      -3.337  36.377  15.046 -0.04 -0.03    +0.194 C 
DOCKED: ATOM      5  C   UNL d   1      -2.350  35.400  15.672 -0.05 -0.03    +0.194 C 
DOCKED: ATOM      6  C   UNL d   1      -1.628  35.952  16.903 -0.05 -0.04    +0.194 C 
DOCKED: ENDROOT
DOCKED: BRANCH   1   7
DOCKED: ATOM      7  O   UNL d   1      -0.599  37.833  17.946 -0.12 +0.11    -0.278 OA
DOCKED: BRANCH   7   8
DOCKED: ATOM      8  P   UNL d   1       0.974  37.993  18.175 -0.27 -0.14    +0.473 P 
DOCKED: ATOM      9  O   UNL d   1       1.715  38.619  17.046 -0.73 +0.11    -0.228 OA
DOCKED: BRANCH   8  10
DOCKED: ATOM     10  O   UNL d   1       1.086  38.819  19.535 -0.16 +0.07    -0.303 OA
DOCKED: ATOM     11  H   UNL d   1       0.349  39.456  19.592 +0.07 -0.06    +0.222 HD
DOCKED: ENDBRANCH   8  10
DOCKED: BRANCH   8  12
DOCKED: ATOM     12  O   UNL d   1       1.474  36.552  18.619 -0.52 +0.06    -0.303 OA
DOCKED: ATOM     13  H   UNL d   1       0.746  35.894  18.685 +0.07 -0.04    +0.222 HD
DOCKED: ENDBRANCH   8  12
DOCKED: ENDBRANCH   7   8
DOCKED: ENDBRANCH   1   7
DOCKED: BRANCH   2  14
DOCKED: ATOM     14  O   UNL d   1      -3.117  38.512  17.164 -0.04 +0.11    -0.278 OA
DOCKED: BRANCH  14  15
DOCKED: ATOM     15  P   UNL d   1      -3.184  39.960  17.845 -0.01 -0.19    +0.473 P 
DOCKED: ATOM     16  O   UNL d   1      -4.338  40.218  18.763 -0.00 +0.04    -0.228 OA
DOCKED: BRANCH  15  17
DOCKED: ATOM     17  O   UNL d   1      -1.773  40.115  18.567 -0.04 +0.14    -0.303 OA
DOCKED: ATOM     18  H   UNL d   1      -1.258  39.287  18.513 +0.05 -0.10    +0.222 HD
DOCKED: ENDBRANCH  15  17
DOCKED: BRANCH  15  19
DOCKED: ATOM     19  O   UNL d   1      -3.034  40.977  16.630 -0.04 +0.23    -0.303 OA
DOCKED: ATOM     20  H   UNL d   1      -2.810  40.517  15.801 -0.41 -0.27    +0.222 HD
DOCKED: ENDBRANCH  15  19
DOCKED: ENDBRANCH  14  15
DOCKED: ENDBRANCH   2  14
DOCKED: BRANCH   6  21
DOCKED: ATOM     21  O   UNL d   1      -0.525  35.086  17.157 -0.02 +0.04    -0.278 OA
DOCKED: BRANCH  21  22
DOCKED: ATOM     22  P   UNL d   1      -0.579  34.075  18.390 -0.04 -0.06    +0.473 P 
DOCKED: ATOM     23  O   UNL d   1       0.704  33.704  19.054 -0.13 +0.05    -0.228 OA
DOCKED: BRANCH  22  24
DOCKED: ATOM     24  O   UNL d   1      -1.644  34.778  19.341 -0.01 +0.03    -0.303 OA
DOCKED: ATOM     25  H   UNL d   1      -2.500  34.848  18.846 +0.02 -0.02    +0.222 HD
DOCKED: ENDBRANCH  22  24
DOCKED: BRANCH  22  26
DOCKED: ATOM     26  O   UNL d   1      -1.430  32.862  17.779 -0.02 +0.02    -0.303 OA
DOCKED: ATOM     27  H   UNL d   1      -2.029  33.206  17.085 +0.02 -0.02    +0.222 HD
DOCKED: ENDBRANCH  22  26
DOCKED: ENDBRANCH  21  22
DOCKED: ENDBRANCH   6  21
DOCKED: BRANCH   3  28
DOCKED: ATOM     28  O   UNL d   1      -3.930  38.611  14.639 -0.05 +0.07    -0.278 OA
DOCKED: BRANCH  28  29
DOCKED: ATOM     29  P   UNL d   1      -4.002  39.511  13.327 -0.08 +0.05    +0.473 P 
DOCKED: ATOM     30  O   UNL d   1      -5.305  40.181  13.081 -0.02 -0.03    -0.228 OA
DOCKED: BRANCH  29  31
DOCKED: ATOM     31  O   UNL d   1      -2.734  40.456  13.567 -0.13 +0.14    -0.303 OA
DOCKED: ATOM     32  H   UNL d   1      -2.460  40.381  14.511 -0.42 -0.38    +0.222 HD
DOCKED: ENDBRANCH  29  31
DOCKED: BRANCH  29  33
DOCKED: ATOM     33  O   UNL d   1      -3.486  38.507  12.205 -0.52 -0.22    -0.303 OA
DOCKED: ATOM     34  H   UNL d   1      -3.878  37.614  12.367 +0.03 +0.06    +0.222 HD
DOCKED: ENDBRANCH  29  33
DOCKED: ENDBRANCH  28  29
DOCKED: ENDBRANCH   3  28
DOCKED: BRANCH   5  35
DOCKED: ATOM     35  O   UNL d   1      -3.131  34.288  16.107 -0.02 +0.02    -0.278 OA
DOCKED: BRANCH  35  36
DOCKED: ATOM     36  P   UNL d   1      -4.221  34.471  17.257 +0.00 -0.03    +0.473 P 
DOCKED: ATOM     37  O   UNL d   1      -4.304  35.840  17.855 -0.00 +0.02    -0.228 OA
DOCKED: BRANCH  36  38
DOCKED: ATOM     38  O   UNL d   1      -5.552  33.996  16.523 -0.00 +0.01    -0.303 OA
DOCKED: ATOM     39  H   UNL d   1      -5.582  34.392  15.625 +0.00 -0.01    +0.222 HD
DOCKED: ENDBRANCH  36  38
DOCKED: BRANCH  36  40
DOCKED: ATOM     40  O   UNL d   1      -3.879  33.272  18.244 -0.00 +0.02    -0.303 OA
DOCKED: ATOM     41  H   UNL d   1      -2.981  33.364  18.631 +0.01 -0.01    +0.222 HD
DOCKED: ENDBRANCH  36  40
DOCKED: ENDBRANCH  35  36
DOCKED: ENDBRANCH   5  35
DOCKED: BRANCH   4  42
DOCKED: ATOM     42  O   UNL d   1      -3.626  35.897  13.729 -0.02 +0.01    -0.278 OA
DOCKED: BRANCH  42  43
DOCKED: ATOM     43  P   UNL d   1      -5.128  35.503  13.364 +0.01 +0.01    +0.473 P 
DOCKED: ATOM     44  O   UNL d   1      -5.660  35.963  12.051 -0.00 -0.02    -0.228 OA
DOCKED: BRANCH  43  45
DOCKED: ATOM     45  O   UNL d   1      -5.130  33.923  13.550 +0.00 +0.00    -0.303 OA
DOCKED: ATOM     46  H   UNL d   1      -4.841  33.668  14.449 +0.01 -0.00    +0.222 HD
DOCKED: ENDBRANCH  43  45
DOCKED: BRANCH  43  47
DOCKED: ATOM     47  O   UNL d   1      -5.955  35.983  14.651 +0.00 +0.00    -0.303 OA
DOCKED: ATOM     48  H   UNL d   1      -5.399  35.874  15.451 +0.01 -0.01    +0.222 HD
DOCKED: ENDBRANCH  43  47
DOCKED: ENDBRANCH  42  43
DOCKED: ENDBRANCH   4  42
DOCKED: TORSDOF 24
DOCKED: TER
DOCKED: ENDMDL
________________________________________________________________________________


	BEGINNING GENETIC ALGORITHM DOCKING 89 of 100
Run: 89 Seed: 1984625500 182990031 [ Run 89 of 100 GA/GALS ]
Beginning LAMARCKIAN GENETIC ALGORITHM (LGA), with a maximum of 25000000 energy evaluations.

Final-Value: -16.053


	FINAL GENETIC ALGORITHM DOCKED STATE
	_______________________________________________


Detailed state:  trans 19.380 57.159 8.693 quatxyzw -0.716908 0.261524 0.126543 0.633747 center 0.035 0.082 -0.065 ntor 24 -131.8265 18.7650 -49.7570 73.6964 58.3117 -129.5910 -107.1945 -42.9947 132.6635 111.0634 136.0506 154.2626 16.3874 -21.8492 -60.4659 37.4259 46.2981 -161.3400 -133.3087 -13.0767 -172.0586 3.9754 39.9574 10.8516
State:	 19.380  57.159   8.693  -0.927  0.338  0.164 101.346   -131.83   18.77  -49.76   73.70   58.31 -129.59 -107.19  -42.99  132.66  111.06  136.05  154.26   16.39  -21.85  -60.47   37.43   46.30 -161.34 -133.31  -13.08 -172.06    3.98   39.96   10.85

DOCKED: MODEL       89
DOCKED: USER    Run = 89
DOCKED: USER    DPF = D:/Protein_go_brrr/autodock/final/6BB5/IHP/dock.dpf
DOCKED: USER  
DOCKED: USER    Estimated Free Energy of Binding    =   +4.27 kcal/mol  [=(1)+(2)+(3)-(4)]
DOCKED: USER    
DOCKED: USER    (1) Final Intermolecular Energy     =   -2.89 kcal/mol
DOCKED: USER        vdW + Hbond + desolv Energy     =   -2.80 kcal/mol
DOCKED: USER        Electrostatic Energy            =   -0.09 kcal/mol
DOCKED: USER    (2) Final Total Internal Energy     =  -13.17 kcal/mol
DOCKED: USER    (3) Torsional Free Energy           =   +7.16 kcal/mol
DOCKED: USER    (4) Unbound System's Energy  [=(2)] =  -13.17 kcal/mol
DOCKED: USER    
DOCKED: USER    
DOCKED: USER    NEWDPF move IHP_ideal_opt.pdbqt
DOCKED: USER    NEWDPF about 0.035000 0.082000 -0.065000
DOCKED: USER    NEWDPF tran0 19.380431 57.159156 8.693124
DOCKED: USER    NEWDPF quaternion0 -0.716908 0.261524 0.126543 0.633747
DOCKED: USER    NEWDPF axisangle0 -0.926788 0.338087 0.163589 101.345775
DOCKED: USER    NEWDPF quat0 -0.926788 0.338087 0.163589 101.345775
DOCKED: USER    NEWDPF dihe0 -131.83 18.77 -49.76 73.70 58.31 -129.59 -107.19 -42.99 132.66 111.06 136.05 154.26 16.39 -21.85 -60.47 37.43 46.30 -161.34 -133.31 -13.08 -172.06 3.98 39.96 10.85 
DOCKED: USER  keepresnum = 1 
DOCKED: USER  
DOCKED: REMARK  24 active torsions:
DOCKED: REMARK  status: ('A' for Active; 'I' for Inactive)
DOCKED: REMARK    1  A    between atoms: C_1  and  O_7 
DOCKED: REMARK    2  A    between atoms: C_2  and  O_12 
DOCKED: REMARK    3  A    between atoms: C_3  and  O_17 
DOCKED: REMARK    4  A    between atoms: C_4  and  O_22 
DOCKED: REMARK    5  A    between atoms: C_5  and  O_27 
DOCKED: REMARK    6  A    between atoms: C_6  and  O_32 
DOCKED: REMARK    7  A    between atoms: O_7  and  P_8 
DOCKED: REMARK    8  A    between atoms: P_8  and  O_10 
DOCKED: REMARK    9  A    between atoms: P_8  and  O_11 
DOCKED: REMARK   10  A    between atoms: O_12  and  P_13 
DOCKED: REMARK   11  A    between atoms: P_13  and  O_15 
DOCKED: REMARK   12  A    between atoms: P_13  and  O_16 
DOCKED: REMARK   13  A    between atoms: O_17  and  P_18 
DOCKED: REMARK   14  A    between atoms: P_18  and  O_20 
DOCKED: REMARK   15  A    between atoms: P_18  and  O_21 
DOCKED: REMARK   16  A    between atoms: O_22  and  P_23 
DOCKED: REMARK   17  A    between atoms: P_23  and  O_25 
DOCKED: REMARK   18  A    between atoms: P_23  and  O_26 
DOCKED: REMARK   19  A    between atoms: O_27  and  P_28 
DOCKED: REMARK   20  A    between atoms: P_28  and  O_30 
DOCKED: REMARK   21  A    between atoms: P_28  and  O_31 
DOCKED: REMARK   22  A    between atoms: O_32  and  P_33 
DOCKED: REMARK   23  A    between atoms: P_33  and  O_35 
DOCKED: REMARK   24  A    between atoms: P_33  and  O_36 
DOCKED: USER                              x       y       z     vdW  Elec       q    Type
DOCKED: USER                           _______ _______ _______ _____ _____    ______ ____
DOCKED: ROOT
DOCKED: ATOM      1  C   UNL d   1      20.207  55.875   7.885 -0.15 -0.03    +0.194 C 
DOCKED: ATOM      2  C   UNL d   1      19.531  56.902   6.975 -0.10 -0.03    +0.194 C 
DOCKED: ATOM      3  C   UNL d   1      18.137  57.277   7.481 -0.14 -0.05    +0.194 C 
DOCKED: ATOM      4  C   UNL d   1      18.124  57.707   8.946 -0.09 -0.10    +0.194 C 
DOCKED: ATOM      5  C   UNL d   1      18.885  56.770   9.874 -0.07 -0.14    +0.194 C 
DOCKED: ATOM      6  C   UNL d   1      20.255  56.346   9.339 -0.08 -0.06    +0.194 C 
DOCKED: ENDROOT
DOCKED: BRANCH   1   7
DOCKED: ATOM      7  O   UNL d   1      21.557  55.710   7.446 -0.07 +0.02    -0.278 OA
DOCKED: BRANCH   7   8
DOCKED: ATOM      8  P   UNL d   1      22.722  56.393   8.299 +0.00 -0.03    +0.473 P 
DOCKED: ATOM      9  O   UNL d   1      22.938  55.811   9.652 -0.02 +0.02    -0.228 OA
DOCKED: BRANCH   8  10
DOCKED: ATOM     10  O   UNL d   1      24.005  56.287   7.357 -0.01 +0.01    -0.303 OA
DOCKED: ATOM     11  H   UNL d   1      23.904  56.890   6.598 +0.02 -0.01    +0.222 HD
DOCKED: ENDBRANCH   8  10
DOCKED: BRANCH   8  12
DOCKED: ATOM     12  O   UNL d   1      22.406  57.950   8.256 -0.00 +0.02    -0.303 OA
DOCKED: ATOM     13  H   UNL d   1      21.898  58.218   7.458 +0.02 -0.02    +0.222 HD
DOCKED: ENDBRANCH   8  12
DOCKED: ENDBRANCH   7   8
DOCKED: ENDBRANCH   1   7
DOCKED: BRANCH   2  14
DOCKED: ATOM     14  O   UNL d   1      20.335  58.088   6.931 -0.03 +0.03    -0.278 OA
DOCKED: BRANCH  14  15
DOCKED: ATOM     15  P   UNL d   1      20.914  58.508   5.499 -0.01 -0.04    +0.473 P 
DOCKED: ATOM     16  O   UNL d   1      20.053  58.208   4.312 -0.05 +0.02    -0.228 OA
DOCKED: BRANCH  15  17
DOCKED: ATOM     17  O   UNL d   1      21.235  60.061   5.651 -0.00 +0.02    -0.303 OA
DOCKED: ATOM     18  H   UNL d   1      21.071  60.538   4.815 +0.01 -0.01    +0.222 HD
DOCKED: ENDBRANCH  15  17
DOCKED: BRANCH  15  19
DOCKED: ATOM     19  O   UNL d   1      22.375  57.882   5.461 -0.01 +0.02    -0.303 OA
DOCKED: ATOM     20  H   UNL d   1      22.506  57.228   6.173 +0.02 -0.01    +0.222 HD
DOCKED: ENDBRANCH  15  19
DOCKED: ENDBRANCH  14  15
DOCKED: ENDBRANCH   2  14
DOCKED: BRANCH   6  21
DOCKED: ATOM     21  O   UNL d   1      20.678  55.234  10.125 -0.06 +0.09    -0.278 OA
DOCKED: BRANCH  21  22
DOCKED: ATOM     22  P   UNL d   1      20.210  53.761   9.731 -0.16 -0.16    +0.473 P 
DOCKED: ATOM     23  O   UNL d   1      18.887  53.599   9.060 -0.79 +0.10    -0.228 OA
DOCKED: BRANCH  22  24
DOCKED: ATOM     24  O   UNL d   1      21.455  53.239   8.888 -0.13 +0.01    -0.303 OA
DOCKED: ATOM     25  H   UNL d   1      22.075  53.999   8.751 +0.07 -0.01    +0.222 HD
DOCKED: ENDBRANCH  22  24
DOCKED: BRANCH  22  26
DOCKED: ATOM     26  O   UNL d   1      20.395  52.978  11.117 -0.16 +0.10    -0.303 OA
DOCKED: ATOM     27  H   UNL d   1      19.877  53.430  11.814 +0.08 -0.13    +0.222 HD
DOCKED: ENDBRANCH  22  26
DOCKED: ENDBRANCH  21  22
DOCKED: ENDBRANCH   6  21
DOCKED: BRANCH   3  28
DOCKED: ATOM     28  O   UNL d   1      17.708  58.419   6.749 -0.06 +0.05    -0.278 OA
DOCKED: BRANCH  28  29
DOCKED: ATOM     29  P   UNL d   1      16.460  58.321   5.764 -0.04 -0.09    +0.473 P 
DOCKED: ATOM     30  O   UNL d   1      15.651  57.080   5.877 -0.52 +0.04    -0.228 OA
DOCKED: BRANCH  29  31
DOCKED: ATOM     31  O   UNL d   1      15.725  59.700   6.108 -0.01 +0.06    -0.303 OA
DOCKED: ATOM     32  H   UNL d   1      15.551  59.731   7.077 +0.02 -0.04    +0.222 HD
DOCKED: ENDBRANCH  29  31
DOCKED: BRANCH  29  33
DOCKED: ATOM     33  O   UNL d   1      17.126  58.620   4.350 -0.05 +0.06    -0.303 OA
DOCKED: ATOM     34  H   UNL d   1      18.106  58.520   4.429 +0.04 -0.03    +0.222 HD
DOCKED: ENDBRANCH  29  33
DOCKED: ENDBRANCH  28  29
DOCKED: ENDBRANCH   3  28
DOCKED: BRANCH   5  35
DOCKED: ATOM     35  O   UNL d   1      19.114  57.512  11.071 -0.05 +0.16    -0.278 OA
DOCKED: BRANCH  35  36
DOCKED: ATOM     36  P   UNL d   1      19.691  56.787  12.369 -0.02 -0.23    +0.473 P 
DOCKED: ATOM     37  O   UNL d   1      21.181  56.779  12.494 -0.01 +0.05    -0.228 OA
DOCKED: BRANCH  36  38
DOCKED: ATOM     38  O   UNL d   1      18.940  57.566  13.538 -0.01 +0.12    -0.303 OA
DOCKED: ATOM     39  H   UNL d   1      17.974  57.419  13.453 +0.01 -0.13    +0.222 HD
DOCKED: ENDBRANCH  36  38
DOCKED: BRANCH  36  40
DOCKED: ATOM     40  O   UNL d   1      18.963  55.374  12.321 -0.08 +0.31    -0.303 OA
DOCKED: ATOM     41  H   UNL d   1      19.289  54.821  11.578 +0.01 -0.22    +0.222 HD
DOCKED: ENDBRANCH  36  40
DOCKED: ENDBRANCH  35  36
DOCKED: ENDBRANCH   5  35
DOCKED: BRANCH   4  42
DOCKED: ATOM     42  O   UNL d   1      16.756  57.699   9.368 -0.10 +0.22    -0.278 OA
DOCKED: BRANCH  42  43
DOCKED: ATOM     43  P   UNL d   1      15.962  59.080   9.437 -0.02 -0.18    +0.473 P 
DOCKED: ATOM     44  O   UNL d   1      15.502  59.543  10.776 -0.02 +0.08    -0.228 OA
DOCKED: BRANCH  43  45
DOCKED: ATOM     45  O   UNL d   1      16.951  60.089   8.705 -0.00 +0.07    -0.303 OA
DOCKED: ATOM     46  H   UNL d   1      17.089  59.839   7.769 +0.02 -0.04    +0.222 HD
DOCKED: ENDBRANCH  43  45
DOCKED: BRANCH  43  47
DOCKED: ATOM     47  O   UNL d   1      14.811  58.896   8.336 -0.02 +0.09    -0.303 OA
DOCKED: ATOM     48  H   UNL d   1      15.115  58.262   7.654 +0.05 -0.07    +0.222 HD
DOCKED: ENDBRANCH  43  47
DOCKED: ENDBRANCH  42  43
DOCKED: ENDBRANCH   4  42
DOCKED: TORSDOF 24
DOCKED: TER
DOCKED: ENDMDL
________________________________________________________________________________


	BEGINNING GENETIC ALGORITHM DOCKING 90 of 100
Run: 90 Seed: 1535154562 62760595 [ Run 90 of 100 GA/GALS ]
Beginning LAMARCKIAN GENETIC ALGORITHM (LGA), with a maximum of 25000000 energy evaluations.

Final-Value: -18.852


	FINAL GENETIC ALGORITHM DOCKED STATE
	_______________________________________________


Detailed state:  trans 26.531 29.701 31.714 quatxyzw 0.842961 0.104581 0.134566 -0.510266 center 0.035 0.082 -0.065 ntor 24 -177.9172 29.8641 76.7384 87.8462 19.4865 -111.3788 -11.8099 -177.3433 21.4765 44.8690 52.6054 -124.4862 57.2981 109.1412 -50.2389 -62.6508 135.0353 -82.1258 27.5953 -6.4515 -179.8892 8.9271 -16.5181 -9.3937
State:	 26.531  29.701  31.714   0.980  0.122  0.156 -118.637   -177.92   29.86   76.74   87.85   19.49 -111.38  -11.81 -177.34   21.48   44.87   52.61 -124.49   57.30  109.14  -50.24  -62.65  135.04  -82.13   27.60   -6.45 -179.89    8.93  -16.52   -9.39

DOCKED: MODEL       90
DOCKED: USER    Run = 90
DOCKED: USER    DPF = D:/Protein_go_brrr/autodock/final/6BB5/IHP/dock.dpf
DOCKED: USER  
DOCKED: USER    Estimated Free Energy of Binding    =   +3.56 kcal/mol  [=(1)+(2)+(3)-(4)]
DOCKED: USER    
DOCKED: USER    (1) Final Intermolecular Energy     =   -3.60 kcal/mol
DOCKED: USER        vdW + Hbond + desolv Energy     =   -3.58 kcal/mol
DOCKED: USER        Electrostatic Energy            =   -0.02 kcal/mol
DOCKED: USER    (2) Final Total Internal Energy     =  -15.25 kcal/mol
DOCKED: USER    (3) Torsional Free Energy           =   +7.16 kcal/mol
DOCKED: USER    (4) Unbound System's Energy  [=(2)] =  -15.25 kcal/mol
DOCKED: USER    
DOCKED: USER    
DOCKED: USER    NEWDPF move IHP_ideal_opt.pdbqt
DOCKED: USER    NEWDPF about 0.035000 0.082000 -0.065000
DOCKED: USER    NEWDPF tran0 26.530548 29.701401 31.713527
DOCKED: USER    NEWDPF quaternion0 0.842961 0.104581 0.134566 -0.510266
DOCKED: USER    NEWDPF axisangle0 0.980168 0.121603 0.156469 -118.636882
DOCKED: USER    NEWDPF quat0 0.980168 0.121603 0.156469 -118.636882
DOCKED: USER    NEWDPF dihe0 -177.92 29.86 76.74 87.85 19.49 -111.38 -11.81 -177.34 21.48 44.87 52.61 -124.49 57.30 109.14 -50.24 -62.65 135.04 -82.13 27.60 -6.45 -179.89 8.93 -16.52 -9.39 
DOCKED: USER  keepresnum = 1 
DOCKED: USER  
DOCKED: REMARK  24 active torsions:
DOCKED: REMARK  status: ('A' for Active; 'I' for Inactive)
DOCKED: REMARK    1  A    between atoms: C_1  and  O_7 
DOCKED: REMARK    2  A    between atoms: C_2  and  O_12 
DOCKED: REMARK    3  A    between atoms: C_3  and  O_17 
DOCKED: REMARK    4  A    between atoms: C_4  and  O_22 
DOCKED: REMARK    5  A    between atoms: C_5  and  O_27 
DOCKED: REMARK    6  A    between atoms: C_6  and  O_32 
DOCKED: REMARK    7  A    between atoms: O_7  and  P_8 
DOCKED: REMARK    8  A    between atoms: P_8  and  O_10 
DOCKED: REMARK    9  A    between atoms: P_8  and  O_11 
DOCKED: REMARK   10  A    between atoms: O_12  and  P_13 
DOCKED: REMARK   11  A    between atoms: P_13  and  O_15 
DOCKED: REMARK   12  A    between atoms: P_13  and  O_16 
DOCKED: REMARK   13  A    between atoms: O_17  and  P_18 
DOCKED: REMARK   14  A    between atoms: P_18  and  O_20 
DOCKED: REMARK   15  A    between atoms: P_18  and  O_21 
DOCKED: REMARK   16  A    between atoms: O_22  and  P_23 
DOCKED: REMARK   17  A    between atoms: P_23  and  O_25 
DOCKED: REMARK   18  A    between atoms: P_23  and  O_26 
DOCKED: REMARK   19  A    between atoms: O_27  and  P_28 
DOCKED: REMARK   20  A    between atoms: P_28  and  O_30 
DOCKED: REMARK   21  A    between atoms: P_28  and  O_31 
DOCKED: REMARK   22  A    between atoms: O_32  and  P_33 
DOCKED: REMARK   23  A    between atoms: P_33  and  O_35 
DOCKED: REMARK   24  A    between atoms: P_33  and  O_36 
DOCKED: USER                              x       y       z     vdW  Elec       q    Type
DOCKED: USER                           _______ _______ _______ _____ _____    ______ ____
DOCKED: ROOT
DOCKED: ATOM      1  C   UNL d   1      27.940  29.842  30.725 -0.07 -0.01    +0.194 C 
DOCKED: ATOM      2  C   UNL d   1      26.610  30.126  30.024 -0.08 -0.01    +0.194 C 
DOCKED: ATOM      3  C   UNL d   1      25.536  29.108  30.414 -0.09 +0.04    +0.194 C 
DOCKED: ATOM      4  C   UNL d   1      25.372  28.955  31.924 -0.07 +0.07    +0.194 C 
DOCKED: ATOM      5  C   UNL d   1      26.685  28.785  32.677 -0.06 +0.04    +0.194 C 
DOCKED: ATOM      6  C   UNL d   1      27.779  29.764  32.243 -0.03 +0.02    +0.194 C 
DOCKED: ENDROOT
DOCKED: BRANCH   1   7
DOCKED: ATOM      7  O   UNL d   1      28.830  30.926  30.446 -0.07 +0.05    -0.278 OA
DOCKED: BRANCH   7   8
DOCKED: ATOM      8  P   UNL d   1      29.848  30.777  29.224 -0.11 -0.11    +0.473 P 
DOCKED: ATOM      9  O   UNL d   1      29.542  31.628  28.042 -0.36 +0.14    -0.228 OA
DOCKED: BRANCH   8  10
DOCKED: ATOM     10  O   UNL d   1      31.274  31.086  29.868 -0.19 -0.01    -0.303 OA
DOCKED: ATOM     11  H   UNL d   1      31.247  30.904  30.826 +0.09 +0.04    +0.222 HD
DOCKED: ENDBRANCH   8  10
DOCKED: BRANCH   8  12
DOCKED: ATOM     12  O   UNL d   1      29.938  29.215  28.949 -0.13 +0.04    -0.303 OA
DOCKED: ATOM     13  H   UNL d   1      29.580  28.672  29.688 +0.12 -0.01    +0.222 HD
DOCKED: ENDBRANCH   8  12
DOCKED: ENDBRANCH   7   8
DOCKED: ENDBRANCH   1   7
DOCKED: BRANCH   2  14
DOCKED: ATOM     14  O   UNL d   1      26.156  31.433  30.395 -0.09 -0.05    -0.278 OA
DOCKED: BRANCH  14  15
DOCKED: ATOM     15  P   UNL d   1      25.839  32.448  29.197 -0.14 -0.13    +0.473 P 
DOCKED: ATOM     16  O   UNL d   1      25.041  33.666  29.542 -0.25 -0.01    -0.228 OA
DOCKED: BRANCH  15  17
DOCKED: ATOM     17  O   UNL d   1      27.272  32.797  28.596 -0.25 +0.36    -0.303 OA
DOCKED: ATOM     18  H   UNL d   1      27.981  32.589  29.233 -0.03 -0.23    +0.222 HD
DOCKED: ENDBRANCH  15  17
DOCKED: BRANCH  15  19
DOCKED: ATOM     19  O   UNL d   1      25.227  31.529  28.051 -0.17 +0.11    -0.303 OA
DOCKED: ATOM     20  H   UNL d   1      24.781  30.744  28.419 +0.12 +0.02    +0.222 HD
DOCKED: ENDBRANCH  15  19
DOCKED: ENDBRANCH  14  15
DOCKED: ENDBRANCH   2  14
DOCKED: BRANCH   6  21
DOCKED: ATOM     21  O   UNL d   1      29.008  29.267  32.769 -0.03 -0.07    -0.278 OA
DOCKED: BRANCH  21  22
DOCKED: ATOM     22  P   UNL d   1      29.741  28.047  32.050 -0.12 +0.20    +0.473 P 
DOCKED: ATOM     23  O   UNL d   1      28.936  27.172  31.149 -0.18 -0.02    -0.228 OA
DOCKED: BRANCH  22  24
DOCKED: ATOM     24  O   UNL d   1      30.972  28.773  31.349 -0.10 -0.20    -0.303 OA
DOCKED: ATOM     25  H   UNL d   1      30.631  29.583  30.892 +0.09 +0.07    +0.222 HD
DOCKED: ENDBRANCH  22  24
DOCKED: BRANCH  22  26
DOCKED: ATOM     26  O   UNL d   1      30.450  27.317  33.289 -0.28 -0.29    -0.303 OA
DOCKED: ATOM     27  H   UNL d   1      29.774  26.835  33.808 +0.05 +0.12    +0.222 HD
DOCKED: ENDBRANCH  22  26
DOCKED: ENDBRANCH  21  22
DOCKED: ENDBRANCH   6  21
DOCKED: BRANCH   3  28
DOCKED: ATOM     28  O   UNL d   1      24.288  29.602  29.947 -0.09 -0.16    -0.278 OA
DOCKED: BRANCH  28  29
DOCKED: ATOM     29  P   UNL d   1      23.433  28.765  28.895 -0.12 +0.12    +0.473 P 
DOCKED: ATOM     30  O   UNL d   1      23.737  29.031  27.466 -0.17 -0.01    -0.228 OA
DOCKED: BRANCH  29  31
DOCKED: ATOM     31  O   UNL d   1      23.706  27.282  29.432 -0.13 -0.00    -0.303 OA
DOCKED: ATOM     32  H   UNL d   1      23.693  27.297  30.417 +0.05 +0.03    +0.222 HD
DOCKED: ENDBRANCH  29  31
DOCKED: BRANCH  29  33
DOCKED: ATOM     33  O   UNL d   1      21.942  29.045  29.378 -0.14 -0.17    -0.303 OA
DOCKED: ATOM     34  H   UNL d   1      21.524  28.189  29.642 +0.08 +0.08    +0.222 HD
DOCKED: ENDBRANCH  29  33
DOCKED: ENDBRANCH  28  29
DOCKED: ENDBRANCH   3  28
DOCKED: BRANCH   5  35
DOCKED: ATOM     35  O   UNL d   1      26.387  29.067  34.043 -0.01 -0.06    -0.278 OA
DOCKED: BRANCH  35  36
DOCKED: ATOM     36  P   UNL d   1      26.488  27.916  35.142 +0.01 +0.07    +0.473 P 
DOCKED: ATOM     37  O   UNL d   1      26.166  28.332  36.543 +0.00 -0.03    -0.228 OA
DOCKED: BRANCH  36  38
DOCKED: ATOM     38  O   UNL d   1      25.510  26.809  34.547 -0.04 -0.04    -0.303 OA
DOCKED: ATOM     39  H   UNL d   1      24.662  27.234  34.293 +0.02 +0.04    +0.222 HD
DOCKED: ENDBRANCH  36  38
DOCKED: BRANCH  36  40
DOCKED: ATOM     40  O   UNL d   1      27.941  27.323  34.882 -0.01 -0.06    -0.303 OA
DOCKED: ATOM     41  H   UNL d   1      28.416  27.820  34.179 +0.04 +0.06    +0.222 HD
DOCKED: ENDBRANCH  36  40
DOCKED: ENDBRANCH  35  36
DOCKED: ENDBRANCH   5  35
DOCKED: BRANCH   4  42
DOCKED: ATOM     42  O   UNL d   1      24.606  27.765  32.140 -0.58 -0.10    -0.278 OA
DOCKED: BRANCH  42  43
DOCKED: ATOM     43  P   UNL d   1      23.214  27.874  32.911 -0.03 +0.16    +0.473 P 
DOCKED: ATOM     44  O   UNL d   1      23.121  28.857  34.026 -0.02 -0.09    -0.228 OA
DOCKED: BRANCH  43  45
DOCKED: ATOM     45  O   UNL d   1      22.179  28.131  31.729 -0.05 -0.14    -0.303 OA
DOCKED: ATOM     46  H   UNL d   1      22.627  28.474  30.930 +0.05 +0.12    +0.222 HD
DOCKED: ENDBRANCH  43  45
DOCKED: BRANCH  43  47
DOCKED: ATOM     47  O   UNL d   1      22.891  26.353  33.300 -0.03 -0.04    -0.303 OA
DOCKED: ATOM     48  H   UNL d   1      23.650  25.978  33.794 +0.02 +0.03    +0.222 HD
DOCKED: ENDBRANCH  43  47
DOCKED: ENDBRANCH  42  43
DOCKED: ENDBRANCH   4  42
DOCKED: TORSDOF 24
DOCKED: TER
DOCKED: ENDMDL
________________________________________________________________________________


	BEGINNING GENETIC ALGORITHM DOCKING 91 of 100
Run: 91 Seed: 164197523 1080104935 [ Run 91 of 100 GA/GALS ]
Beginning LAMARCKIAN GENETIC ALGORITHM (LGA), with a maximum of 25000000 energy evaluations.

Final-Value: -17.149


	FINAL GENETIC ALGORITHM DOCKED STATE
	_______________________________________________


Detailed state:  trans 20.373 43.374 -8.343 quatxyzw -0.570870 -0.240012 -0.733509 -0.280119 center 0.035 0.082 -0.065 ntor 24 178.5062 -7.3552 57.9080 1.7913 -87.5080 -167.4078 -98.0041 -58.8055 40.2906 -2.4181 8.8174 180.0000 64.7555 165.2497 177.6052 -6.3067 135.2383 144.7347 47.7606 -4.9925 -180.0000 8.8552 -6.4479 -16.3555
State:	 20.373  43.374  -8.343  -0.595 -0.250 -0.764 -147.465    178.51   -7.36   57.91    1.79  -87.51 -167.41  -98.00  -58.81   40.29   -2.42    8.82  180.00   64.76  165.25  177.61   -6.31  135.24  144.73   47.76   -4.99 -180.00    8.86   -6.45  -16.36

DOCKED: MODEL       91
DOCKED: USER    Run = 91
DOCKED: USER    DPF = D:/Protein_go_brrr/autodock/final/6BB5/IHP/dock.dpf
DOCKED: USER  
DOCKED: USER    Estimated Free Energy of Binding    =   +3.30 kcal/mol  [=(1)+(2)+(3)-(4)]
DOCKED: USER    
DOCKED: USER    (1) Final Intermolecular Energy     =   -3.86 kcal/mol
DOCKED: USER        vdW + Hbond + desolv Energy     =   -3.84 kcal/mol
DOCKED: USER        Electrostatic Energy            =   -0.02 kcal/mol
DOCKED: USER    (2) Final Total Internal Energy     =  -13.29 kcal/mol
DOCKED: USER    (3) Torsional Free Energy           =   +7.16 kcal/mol
DOCKED: USER    (4) Unbound System's Energy  [=(2)] =  -13.29 kcal/mol
DOCKED: USER    
DOCKED: USER    
DOCKED: USER    NEWDPF move IHP_ideal_opt.pdbqt
DOCKED: USER    NEWDPF about 0.035000 0.082000 -0.065000
DOCKED: USER    NEWDPF tran0 20.373271 43.373794 -8.343311
DOCKED: USER    NEWDPF quaternion0 -0.570870 -0.240012 -0.733509 -0.280119
DOCKED: USER    NEWDPF axisangle0 -0.594678 -0.250021 -0.764099 -147.465393
DOCKED: USER    NEWDPF quat0 -0.594678 -0.250021 -0.764099 -147.465393
DOCKED: USER    NEWDPF dihe0 178.51 -7.36 57.91 1.79 -87.51 -167.41 -98.00 -58.81 40.29 -2.42 8.82 180.00 64.76 165.25 177.61 -6.31 135.24 144.73 47.76 -4.99 -180.00 8.86 -6.45 -16.36 
DOCKED: USER  keepresnum = 1 
DOCKED: USER  
DOCKED: REMARK  24 active torsions:
DOCKED: REMARK  status: ('A' for Active; 'I' for Inactive)
DOCKED: REMARK    1  A    between atoms: C_1  and  O_7 
DOCKED: REMARK    2  A    between atoms: C_2  and  O_12 
DOCKED: REMARK    3  A    between atoms: C_3  and  O_17 
DOCKED: REMARK    4  A    between atoms: C_4  and  O_22 
DOCKED: REMARK    5  A    between atoms: C_5  and  O_27 
DOCKED: REMARK    6  A    between atoms: C_6  and  O_32 
DOCKED: REMARK    7  A    between atoms: O_7  and  P_8 
DOCKED: REMARK    8  A    between atoms: P_8  and  O_10 
DOCKED: REMARK    9  A    between atoms: P_8  and  O_11 
DOCKED: REMARK   10  A    between atoms: O_12  and  P_13 
DOCKED: REMARK   11  A    between atoms: P_13  and  O_15 
DOCKED: REMARK   12  A    between atoms: P_13  and  O_16 
DOCKED: REMARK   13  A    between atoms: O_17  and  P_18 
DOCKED: REMARK   14  A    between atoms: P_18  and  O_20 
DOCKED: REMARK   15  A    between atoms: P_18  and  O_21 
DOCKED: REMARK   16  A    between atoms: O_22  and  P_23 
DOCKED: REMARK   17  A    between atoms: P_23  and  O_25 
DOCKED: REMARK   18  A    between atoms: P_23  and  O_26 
DOCKED: REMARK   19  A    between atoms: O_27  and  P_28 
DOCKED: REMARK   20  A    between atoms: P_28  and  O_30 
DOCKED: REMARK   21  A    between atoms: P_28  and  O_31 
DOCKED: REMARK   22  A    between atoms: O_32  and  P_33 
DOCKED: REMARK   23  A    between atoms: P_33  and  O_35 
DOCKED: REMARK   24  A    between atoms: P_33  and  O_36 
DOCKED: USER                              x       y       z     vdW  Elec       q    Type
DOCKED: USER                           _______ _______ _______ _____ _____    ______ ____
DOCKED: ROOT
DOCKED: ATOM      1  C   UNL d   1      20.081  44.380  -6.970 -0.20 +0.02    +0.194 C 
DOCKED: ATOM      2  C   UNL d   1      19.510  44.888  -8.295 -0.13 +0.02    +0.194 C 
DOCKED: ATOM      3  C   UNL d   1      20.505  44.716  -9.444 -0.06 +0.02    +0.194 C 
DOCKED: ATOM      4  C   UNL d   1      21.052  43.295  -9.558 -0.09 +0.05    +0.194 C 
DOCKED: ATOM      5  C   UNL d   1      21.528  42.705  -8.237 -0.13 +0.04    +0.194 C 
DOCKED: ATOM      6  C   UNL d   1      20.560  42.931  -7.073 -0.19 +0.04    +0.194 C 
DOCKED: ENDROOT
DOCKED: BRANCH   1   7
DOCKED: ATOM      7  O   UNL d   1      19.039  44.415  -5.992 -0.30 -0.01    -0.278 OA
DOCKED: BRANCH   7   8
DOCKED: ATOM      8  P   UNL d   1      18.608  45.832  -5.394 -0.20 -0.03    +0.473 P 
DOCKED: ATOM      9  O   UNL d   1      17.208  46.243  -5.691 -0.27 +0.03    -0.228 OA
DOCKED: BRANCH   8  10
DOCKED: ATOM     10  O   UNL d   1      18.905  45.699  -3.832 -0.22 +0.06    -0.303 OA
DOCKED: ATOM     11  H   UNL d   1      19.546  44.980  -3.681 -0.38 -0.08    +0.222 HD
DOCKED: ENDBRANCH   8  10
DOCKED: BRANCH   8  12
DOCKED: ATOM     12  O   UNL d   1      19.741  46.842  -5.863 -0.05 +0.02    -0.303 OA
DOCKED: ATOM     13  H   UNL d   1      20.648  46.536  -5.636 +0.07 -0.01    +0.222 HD
DOCKED: ENDBRANCH   8  12
DOCKED: ENDBRANCH   7   8
DOCKED: ENDBRANCH   1   7
DOCKED: BRANCH   2  14
DOCKED: ATOM     14  O   UNL d   1      18.322  44.149  -8.605 -0.10 -0.05    -0.278 OA
DOCKED: BRANCH  14  15
DOCKED: ATOM     15  P   UNL d   1      17.004  45.007  -8.909 -0.15 -0.01    +0.473 P 
DOCKED: ATOM     16  O   UNL d   1      15.720  44.492  -8.338 -0.29 +0.06    -0.228 OA
DOCKED: BRANCH  15  17
DOCKED: ATOM     17  O   UNL d   1      17.367  46.470  -8.392 -0.06 +0.01    -0.303 OA
DOCKED: ATOM     18  H   UNL d   1      17.897  46.432  -7.573 +0.07 -0.01    +0.222 HD
DOCKED: ENDBRANCH  15  17
DOCKED: BRANCH  15  19
DOCKED: ATOM     19  O   UNL d   1      17.020  45.213 -10.486 -0.06 +0.01    -0.303 OA
DOCKED: ATOM     20  H   UNL d   1      17.835  45.657 -10.784 +0.04 +0.00    +0.222 HD
DOCKED: ENDBRANCH  15  19
DOCKED: ENDBRANCH  14  15
DOCKED: ENDBRANCH   2  14
DOCKED: BRANCH   6  21
DOCKED: ATOM     21  O   UNL d   1      21.279  42.642  -5.877 -0.18 -0.06    -0.278 OA
DOCKED: BRANCH  21  22
DOCKED: ATOM     22  P   UNL d   1      22.314  43.709  -5.297 -0.06 +0.06    +0.473 P 
DOCKED: ATOM     23  O   UNL d   1      23.463  43.210  -4.489 -0.22 -0.04    -0.228 OA
DOCKED: BRANCH  22  24
DOCKED: ATOM     24  O   UNL d   1      22.719  44.515  -6.608 -0.05 -0.02    -0.303 OA
DOCKED: ATOM     25  H   UNL d   1      23.626  44.891  -6.471 +0.04 +0.01    +0.222 HD
DOCKED: ENDBRANCH  22  24
DOCKED: BRANCH  22  26
DOCKED: ATOM     26  O   UNL d   1      21.335  44.744  -4.561 -0.23 +0.01    -0.303 OA
DOCKED: ATOM     27  H   UNL d   1      20.469  44.315  -4.408 -0.11 -0.03    +0.222 HD
DOCKED: ENDBRANCH  22  26
DOCKED: ENDBRANCH  21  22
DOCKED: ENDBRANCH   6  21
DOCKED: BRANCH   3  28
DOCKED: ATOM     28  O   UNL d   1      19.802  44.948 -10.658 -0.03 -0.03    -0.278 OA
DOCKED: BRANCH  28  29
DOCKED: ATOM     29  P   UNL d   1      20.246  46.128 -11.632 +0.00 +0.02    +0.473 P 
DOCKED: ATOM     30  O   UNL d   1      20.818  47.327 -10.967 -0.00 -0.01    -0.228 OA
DOCKED: BRANCH  29  31
DOCKED: ATOM     31  O   UNL d   1      21.206  45.322 -12.627 -0.00 -0.02    -0.303 OA
DOCKED: ATOM     32  H   UNL d   1      21.808  44.755 -12.091 +0.01 +0.02    +0.222 HD
DOCKED: ENDBRANCH  29  31
DOCKED: BRANCH  29  33
DOCKED: ATOM     33  O   UNL d   1      18.936  46.348 -12.509 -0.00 -0.01    -0.303 OA
DOCKED: ATOM     34  H   UNL d   1      18.238  45.715 -12.209 +0.02 +0.01    +0.222 HD
DOCKED: ENDBRANCH  29  33
DOCKED: ENDBRANCH  28  29
DOCKED: ENDBRANCH   3  28
DOCKED: BRANCH   5  35
DOCKED: ATOM     35  O   UNL d   1      21.608  41.297  -8.448 -0.12 -0.09    -0.278 OA
DOCKED: BRANCH  35  36
DOCKED: ATOM     36  P   UNL d   1      22.974  40.519  -8.178 -0.05 +0.10    +0.473 P 
DOCKED: ATOM     37  O   UNL d   1      22.937  39.045  -8.425 -0.06 -0.05    -0.228 OA
DOCKED: BRANCH  36  38
DOCKED: ATOM     38  O   UNL d   1      23.992  41.314  -9.111 -0.01 -0.04    -0.303 OA
DOCKED: ATOM     39  H   UNL d   1      23.505  41.672  -9.885 +0.02 +0.03    +0.222 HD
DOCKED: ENDBRANCH  36  38
DOCKED: BRANCH  36  40
DOCKED: ATOM     40  O   UNL d   1      23.351  40.995  -6.708 -0.10 -0.06    -0.303 OA
DOCKED: ATOM     41  H   UNL d   1      23.222  41.963  -6.594 +0.07 +0.04    +0.222 HD
DOCKED: ENDBRANCH  36  40
DOCKED: ENDBRANCH  35  36
DOCKED: ENDBRANCH   5  35
DOCKED: BRANCH   4  42
DOCKED: ATOM     42  O   UNL d   1      22.189  43.357 -10.426 -0.02 -0.04    -0.278 OA
DOCKED: BRANCH  42  43
DOCKED: ATOM     43  P   UNL d   1      22.259  42.371 -11.678 -0.01 +0.09    +0.473 P 
DOCKED: ATOM     44  O   UNL d   1      23.549  42.290 -12.418 -0.00 -0.03    -0.228 OA
DOCKED: BRANCH  43  45
DOCKED: ATOM     45  O   UNL d   1      21.776  40.987 -11.059 -0.07 -0.11    -0.303 OA
DOCKED: ATOM     46  H   UNL d   1      22.398  40.663 -10.378 +0.03 +0.06    +0.222 HD
DOCKED: ENDBRANCH  43  45
DOCKED: BRANCH  43  47
DOCKED: ATOM     47  O   UNL d   1      20.985  42.799 -12.552 -0.02 -0.07    -0.303 OA
DOCKED: ATOM     48  H   UNL d   1      20.506  43.519 -12.093 +0.02 +0.04    +0.222 HD
DOCKED: ENDBRANCH  43  47
DOCKED: ENDBRANCH  42  43
DOCKED: ENDBRANCH   4  42
DOCKED: TORSDOF 24
DOCKED: TER
DOCKED: ENDMDL
________________________________________________________________________________


	BEGINNING GENETIC ALGORITHM DOCKING 92 of 100
Run: 92 Seed: 629052999 1444437017 [ Run 92 of 100 GA/GALS ]
Beginning LAMARCKIAN GENETIC ALGORITHM (LGA), with a maximum of 25000000 energy evaluations.

Final-Value: -17.690


	FINAL GENETIC ALGORITHM DOCKED STATE
	_______________________________________________


Detailed state:  trans -1.490 21.737 2.810 quatxyzw 0.338998 -0.855051 -0.263831 -0.290452 center 0.035 0.082 -0.065 ntor 24 -159.6524 110.7103 129.7109 3.1690 105.3892 131.4581 -99.5821 147.8410 -86.5409 41.2658 134.2590 -132.4316 -61.4485 80.9650 72.8484 -172.0933 8.0029 115.1279 -6.0452 -51.4092 -30.4715 -44.5696 165.8247 -9.7519
State:	 -1.490  21.737   2.810   0.354 -0.894 -0.276 -146.230   -159.65  110.71  129.71    3.17  105.39  131.46  -99.58  147.84  -86.54   41.27  134.26 -132.43  -61.45   80.96   72.85 -172.09    8.00  115.13   -6.05  -51.41  -30.47  -44.57  165.82   -9.75

DOCKED: MODEL       92
DOCKED: USER    Run = 92
DOCKED: USER    DPF = D:/Protein_go_brrr/autodock/final/6BB5/IHP/dock.dpf
DOCKED: USER  
DOCKED: USER    Estimated Free Energy of Binding    =   +2.74 kcal/mol  [=(1)+(2)+(3)-(4)]
DOCKED: USER    
DOCKED: USER    (1) Final Intermolecular Energy     =   -4.42 kcal/mol
DOCKED: USER        vdW + Hbond + desolv Energy     =   -4.01 kcal/mol
DOCKED: USER        Electrostatic Energy            =   -0.41 kcal/mol
DOCKED: USER    (2) Final Total Internal Energy     =  -13.27 kcal/mol
DOCKED: USER    (3) Torsional Free Energy           =   +7.16 kcal/mol
DOCKED: USER    (4) Unbound System's Energy  [=(2)] =  -13.27 kcal/mol
DOCKED: USER    
DOCKED: USER    
DOCKED: USER    NEWDPF move IHP_ideal_opt.pdbqt
DOCKED: USER    NEWDPF about 0.035000 0.082000 -0.065000
DOCKED: USER    NEWDPF tran0 -1.489963 21.736962 2.809717
DOCKED: USER    NEWDPF quaternion0 0.338998 -0.855051 -0.263831 -0.290452
DOCKED: USER    NEWDPF axisangle0 0.354271 -0.893573 -0.275717 -146.229982
DOCKED: USER    NEWDPF quat0 0.354271 -0.893573 -0.275717 -146.229982
DOCKED: USER    NEWDPF dihe0 -159.65 110.71 129.71 3.17 105.39 131.46 -99.58 147.84 -86.54 41.27 134.26 -132.43 -61.45 80.96 72.85 -172.09 8.00 115.13 -6.05 -51.41 -30.47 -44.57 165.82 -9.75 
DOCKED: USER  keepresnum = 1 
DOCKED: USER  
DOCKED: REMARK  24 active torsions:
DOCKED: REMARK  status: ('A' for Active; 'I' for Inactive)
DOCKED: REMARK    1  A    between atoms: C_1  and  O_7 
DOCKED: REMARK    2  A    between atoms: C_2  and  O_12 
DOCKED: REMARK    3  A    between atoms: C_3  and  O_17 
DOCKED: REMARK    4  A    between atoms: C_4  and  O_22 
DOCKED: REMARK    5  A    between atoms: C_5  and  O_27 
DOCKED: REMARK    6  A    between atoms: C_6  and  O_32 
DOCKED: REMARK    7  A    between atoms: O_7  and  P_8 
DOCKED: REMARK    8  A    between atoms: P_8  and  O_10 
DOCKED: REMARK    9  A    between atoms: P_8  and  O_11 
DOCKED: REMARK   10  A    between atoms: O_12  and  P_13 
DOCKED: REMARK   11  A    between atoms: P_13  and  O_15 
DOCKED: REMARK   12  A    between atoms: P_13  and  O_16 
DOCKED: REMARK   13  A    between atoms: O_17  and  P_18 
DOCKED: REMARK   14  A    between atoms: P_18  and  O_20 
DOCKED: REMARK   15  A    between atoms: P_18  and  O_21 
DOCKED: REMARK   16  A    between atoms: O_22  and  P_23 
DOCKED: REMARK   17  A    between atoms: P_23  and  O_25 
DOCKED: REMARK   18  A    between atoms: P_23  and  O_26 
DOCKED: REMARK   19  A    between atoms: O_27  and  P_28 
DOCKED: REMARK   20  A    between atoms: P_28  and  O_30 
DOCKED: REMARK   21  A    between atoms: P_28  and  O_31 
DOCKED: REMARK   22  A    between atoms: O_32  and  P_33 
DOCKED: REMARK   23  A    between atoms: P_33  and  O_35 
DOCKED: REMARK   24  A    between atoms: P_33  and  O_36 
DOCKED: USER                              x       y       z     vdW  Elec       q    Type
DOCKED: USER                           _______ _______ _______ _____ _____    ______ ____
DOCKED: ROOT
DOCKED: ATOM      1  C   UNL d   1      -2.399  20.459   2.085 -0.00 -0.03    +0.194 C 
DOCKED: ATOM      2  C   UNL d   1      -1.056  20.773   1.423 -0.05 -0.03    +0.194 C 
DOCKED: ATOM      3  C   UNL d   1      -0.826  22.280   1.295 -0.06 -0.04    +0.194 C 
DOCKED: ATOM      4  C   UNL d   1      -1.009  23.030   2.612 -0.06 -0.07    +0.194 C 
DOCKED: ATOM      5  C   UNL d   1      -2.282  22.663   3.364 -0.01 -0.06    +0.194 C 
DOCKED: ATOM      6  C   UNL d   1      -2.544  21.157   3.438 -0.00 -0.04    +0.194 C 
DOCKED: ENDROOT
DOCKED: BRANCH   1   7
DOCKED: ATOM      7  O   UNL d   1      -2.461  19.051   2.323 -0.00 +0.03    -0.278 OA
DOCKED: BRANCH   7   8
DOCKED: ATOM      8  P   UNL d   1      -3.745  18.250   1.811 +0.00 -0.03    +0.473 P 
DOCKED: ATOM      9  O   UNL d   1      -4.868  19.100   1.329 +0.00 +0.01    -0.228 OA
DOCKED: BRANCH   8  10
DOCKED: ATOM     10  O   UNL d   1      -3.170  17.274   0.689 +0.00 +0.01    -0.303 OA
DOCKED: ATOM     11  H   UNL d   1      -2.329  16.884   0.994 +0.01 -0.01    +0.222 HD
DOCKED: ENDBRANCH   8  10
DOCKED: BRANCH   8  12
DOCKED: ATOM     12  O   UNL d   1      -4.095  17.238   2.985 +0.00 +0.01    -0.303 OA
DOCKED: ATOM     13  H   UNL d   1      -4.380  17.690   3.811 +0.00 -0.01    +0.222 HD
DOCKED: ENDBRANCH   8  12
DOCKED: ENDBRANCH   7   8
DOCKED: ENDBRANCH   1   7
DOCKED: BRANCH   2  14
DOCKED: ATOM     14  O   UNL d   1      -0.002  20.216   2.218 -0.11 +0.06    -0.278 OA
DOCKED: BRANCH  14  15
DOCKED: ATOM     15  P   UNL d   1       0.278  18.649   2.039 -0.07 -0.04    +0.473 P 
DOCKED: ATOM     16  O   UNL d   1       1.711  18.229   1.947 -0.12 -0.01    -0.228 OA
DOCKED: BRANCH  15  17
DOCKED: ATOM     17  O   UNL d   1      -0.486  17.977   3.264 -0.03 +0.02    -0.303 OA
DOCKED: ATOM     18  H   UNL d   1      -1.301  18.468   3.483 +0.04 -0.02    +0.222 HD
DOCKED: ENDBRANCH  15  17
DOCKED: BRANCH  15  19
DOCKED: ATOM     19  O   UNL d   1      -0.642  18.219   0.814 -0.02 +0.02    -0.303 OA
DOCKED: ATOM     20  H   UNL d   1      -1.579  18.436   0.974 +0.02 -0.01    +0.222 HD
DOCKED: ENDBRANCH  15  19
DOCKED: ENDBRANCH  14  15
DOCKED: ENDBRANCH   2  14
DOCKED: BRANCH   6  21
DOCKED: ATOM     21  O   UNL d   1      -3.900  20.995   3.849 +0.00 +0.04    -0.278 OA
DOCKED: BRANCH  21  22
DOCKED: ATOM     22  P   UNL d   1      -4.256  19.965   5.015 +0.01 -0.06    +0.473 P 
DOCKED: ATOM     23  O   UNL d   1      -4.548  20.511   6.372 -0.00 +0.03    -0.228 OA
DOCKED: BRANCH  22  24
DOCKED: ATOM     24  O   UNL d   1      -5.443  19.131   4.361 +0.00 +0.02    -0.303 OA
DOCKED: ATOM     25  H   UNL d   1      -5.226  18.982   3.406 +0.00 -0.01    +0.222 HD
DOCKED: ENDBRANCH  22  24
DOCKED: BRANCH  22  26
DOCKED: ATOM     26  O   UNL d   1      -3.034  18.932   4.921 +0.00 +0.04    -0.303 OA
DOCKED: ATOM     27  H   UNL d   1      -2.852  18.734   3.980 +0.02 -0.02    +0.222 HD
DOCKED: ENDBRANCH  22  26
DOCKED: ENDBRANCH  21  22
DOCKED: ENDBRANCH   6  21
DOCKED: BRANCH   3  28
DOCKED: ATOM     28  O   UNL d   1       0.535  22.477   0.935 -0.18 +0.09    -0.278 OA
DOCKED: BRANCH  28  29
DOCKED: ATOM     29  P   UNL d   1       1.073  21.981  -0.480 -0.21 -0.09    +0.473 P 
DOCKED: ATOM     30  O   UNL d   1       2.355  22.585  -0.926 -0.94 -0.01    -0.228 OA
DOCKED: BRANCH  29  31
DOCKED: ATOM     31  O   UNL d   1       1.060  20.398  -0.244 -0.12 +0.08    -0.303 OA
DOCKED: ATOM     32  H   UNL d   1       1.493  20.205   0.620 -0.19 -0.12    +0.222 HD
DOCKED: ENDBRANCH  29  31
DOCKED: BRANCH  29  33
DOCKED: ATOM     33  O   UNL d   1      -0.194  22.207  -1.417 -0.07 +0.03    -0.303 OA
DOCKED: ATOM     34  H   UNL d   1      -0.154  21.569  -2.171 +0.05 -0.02    +0.222 HD
DOCKED: ENDBRANCH  29  33
DOCKED: ENDBRANCH  28  29
DOCKED: ENDBRANCH   3  28
DOCKED: BRANCH   5  35
DOCKED: ATOM     35  O   UNL d   1      -2.088  23.121   4.700 -0.04 +0.15    -0.278 OA
DOCKED: BRANCH  35  36
DOCKED: ATOM     36  P   UNL d   1      -0.930  22.500   5.604 -0.11 -0.44    +0.473 P 
DOCKED: ATOM     37  O   UNL d   1       0.435  22.502   4.994 -0.28 +0.26    -0.228 OA
DOCKED: BRANCH  36  38
DOCKED: ATOM     38  O   UNL d   1      -1.054  23.368   6.934 -0.11 +0.47    -0.303 OA
DOCKED: ATOM     39  H   UNL d   1      -0.195  23.352   7.409 -0.43 -0.63    +0.222 HD
DOCKED: ENDBRANCH  36  38
DOCKED: BRANCH  36  40
DOCKED: ATOM     40  O   UNL d   1      -1.538  21.088   6.011 -0.09 +0.15    -0.303 OA
DOCKED: ATOM     41  H   UNL d   1      -2.434  20.953   5.631 +0.04 -0.07    +0.222 HD
DOCKED: ENDBRANCH  36  40
DOCKED: ENDBRANCH  35  36
DOCKED: ENDBRANCH   5  35
DOCKED: BRANCH   4  42
DOCKED: ATOM     42  O   UNL d   1      -1.099  24.422   2.288 -0.03 +0.10    -0.278 OA
DOCKED: BRANCH  42  43
DOCKED: ATOM     43  P   UNL d   1      -0.034  25.430   2.915 -0.06 -0.29    +0.473 P 
DOCKED: ATOM     44  O   UNL d   1       0.134  26.752   2.249 -0.07 +0.08    -0.228 OA
DOCKED: BRANCH  43  45
DOCKED: ATOM     45  O   UNL d   1      -0.493  25.521   4.436 +0.09 +0.39    -0.303 OA
DOCKED: ATOM     46  H   UNL d   1      -0.449  24.648   4.876 -0.41 -0.41    +0.222 HD
DOCKED: ENDBRANCH  43  45
DOCKED: BRANCH  43  47
DOCKED: ATOM     47  O   UNL d   1       1.293  24.538   3.028 -0.14 +0.25    -0.303 OA
DOCKED: ATOM     48  H   UNL d   1       1.429  24.055   2.187 -0.29 -0.16    +0.222 HD
DOCKED: ENDBRANCH  43  47
DOCKED: ENDBRANCH  42  43
DOCKED: ENDBRANCH   4  42
DOCKED: TORSDOF 24
DOCKED: TER
DOCKED: ENDMDL
________________________________________________________________________________


	BEGINNING GENETIC ALGORITHM DOCKING 93 of 100
Run: 93 Seed: 566502785 1463726132 [ Run 93 of 100 GA/GALS ]
Beginning LAMARCKIAN GENETIC ALGORITHM (LGA), with a maximum of 25000000 energy evaluations.

Final-Value: -15.201


	FINAL GENETIC ALGORITHM DOCKED STATE
	_______________________________________________


Detailed state:  trans 20.857 41.293 -16.652 quatxyzw -0.116982 -0.166135 -0.031420 0.978635 center 0.035 0.082 -0.065 ntor 24 120.0202 67.9698 164.0596 -3.4494 -5.2469 -158.3258 -138.7649 -110.4945 -66.8803 86.3462 58.8755 -60.0193 -25.7514 82.0039 -38.4323 -155.1554 46.2500 41.7678 22.2184 -41.0876 160.0619 17.1269 22.0539 -174.0855
State:	 20.857  41.293 -16.652  -0.569 -0.808 -0.153 23.730    120.02   67.97  164.06   -3.45   -5.25 -158.33 -138.76 -110.49  -66.88   86.35   58.88  -60.02  -25.75   82.00  -38.43 -155.16   46.25   41.77   22.22  -41.09  160.06   17.13   22.05 -174.09

DOCKED: MODEL       93
DOCKED: USER    Run = 93
DOCKED: USER    DPF = D:/Protein_go_brrr/autodock/final/6BB5/IHP/dock.dpf
DOCKED: USER  
DOCKED: USER    Estimated Free Energy of Binding    =   +5.68 kcal/mol  [=(1)+(2)+(3)-(4)]
DOCKED: USER    
DOCKED: USER    (1) Final Intermolecular Energy     =   -1.48 kcal/mol
DOCKED: USER        vdW + Hbond + desolv Energy     =   -1.38 kcal/mol
DOCKED: USER        Electrostatic Energy            =   -0.09 kcal/mol
DOCKED: USER    (2) Final Total Internal Energy     =  -13.73 kcal/mol
DOCKED: USER    (3) Torsional Free Energy           =   +7.16 kcal/mol
DOCKED: USER    (4) Unbound System's Energy  [=(2)] =  -13.73 kcal/mol
DOCKED: USER    
DOCKED: USER    
DOCKED: USER    NEWDPF move IHP_ideal_opt.pdbqt
DOCKED: USER    NEWDPF about 0.035000 0.082000 -0.065000
DOCKED: USER    NEWDPF tran0 20.856686 41.292782 -16.651669
DOCKED: USER    NEWDPF quaternion0 -0.116982 -0.166135 -0.031420 0.978635
DOCKED: USER    NEWDPF axisangle0 -0.568969 -0.808035 -0.152820 23.729669
DOCKED: USER    NEWDPF quat0 -0.568969 -0.808035 -0.152820 23.729669
DOCKED: USER    NEWDPF dihe0 120.02 67.97 164.06 -3.45 -5.25 -158.33 -138.76 -110.49 -66.88 86.35 58.88 -60.02 -25.75 82.00 -38.43 -155.16 46.25 41.77 22.22 -41.09 160.06 17.13 22.05 -174.09 
DOCKED: USER  keepresnum = 1 
DOCKED: USER  
DOCKED: REMARK  24 active torsions:
DOCKED: REMARK  status: ('A' for Active; 'I' for Inactive)
DOCKED: REMARK    1  A    between atoms: C_1  and  O_7 
DOCKED: REMARK    2  A    between atoms: C_2  and  O_12 
DOCKED: REMARK    3  A    between atoms: C_3  and  O_17 
DOCKED: REMARK    4  A    between atoms: C_4  and  O_22 
DOCKED: REMARK    5  A    between atoms: C_5  and  O_27 
DOCKED: REMARK    6  A    between atoms: C_6  and  O_32 
DOCKED: REMARK    7  A    between atoms: O_7  and  P_8 
DOCKED: REMARK    8  A    between atoms: P_8  and  O_10 
DOCKED: REMARK    9  A    between atoms: P_8  and  O_11 
DOCKED: REMARK   10  A    between atoms: O_12  and  P_13 
DOCKED: REMARK   11  A    between atoms: P_13  and  O_15 
DOCKED: REMARK   12  A    between atoms: P_13  and  O_16 
DOCKED: REMARK   13  A    between atoms: O_17  and  P_18 
DOCKED: REMARK   14  A    between atoms: P_18  and  O_20 
DOCKED: REMARK   15  A    between atoms: P_18  and  O_21 
DOCKED: REMARK   16  A    between atoms: O_22  and  P_23 
DOCKED: REMARK   17  A    between atoms: P_23  and  O_25 
DOCKED: REMARK   18  A    between atoms: P_23  and  O_26 
DOCKED: REMARK   19  A    between atoms: O_27  and  P_28 
DOCKED: REMARK   20  A    between atoms: P_28  and  O_30 
DOCKED: REMARK   21  A    between atoms: P_28  and  O_31 
DOCKED: REMARK   22  A    between atoms: O_32  and  P_33 
DOCKED: REMARK   23  A    between atoms: P_33  and  O_35 
DOCKED: REMARK   24  A    between atoms: P_33  and  O_36 
DOCKED: USER                              x       y       z     vdW  Elec       q    Type
DOCKED: USER                           _______ _______ _______ _____ _____    ______ ____
DOCKED: ROOT
DOCKED: ATOM      1  C   UNL d   1      22.321  40.384 -16.537 +0.00 +0.02    +0.194 C 
DOCKED: ATOM      2  C   UNL d   1      21.040  39.559 -16.671 +0.01 +0.02    +0.194 C 
DOCKED: ATOM      3  C   UNL d   1      19.917  40.108 -15.789 -0.00 +0.04    +0.194 C 
DOCKED: ATOM      4  C   UNL d   1      19.667  41.600 -15.994 +0.00 +0.03    +0.194 C 
DOCKED: ATOM      5  C   UNL d   1      20.932  42.449 -15.982 +0.01 +0.02    +0.194 C 
DOCKED: ATOM      6  C   UNL d   1      22.076  41.867 -16.815 +0.00 +0.01    +0.194 C 
DOCKED: ENDROOT
DOCKED: BRANCH   1   7
DOCKED: ATOM      7  O   UNL d   1      23.257  39.917 -17.511 +0.00 -0.01    -0.278 OA
DOCKED: BRANCH   7   8
DOCKED: ATOM      8  P   UNL d   1      24.415  38.924 -17.037 +0.00 +0.02    +0.473 P 
DOCKED: ATOM      9  O   UNL d   1      24.097  38.115 -15.829 +0.00 -0.01    -0.228 OA
DOCKED: BRANCH   8  10
DOCKED: ATOM     10  O   UNL d   1      24.715  38.035 -18.328 +0.00 -0.01    -0.303 OA
DOCKED: ATOM     11  H   UNL d   1      23.880  37.844 -18.794 +0.00 +0.01    +0.222 HD
DOCKED: ENDBRANCH   8  10
DOCKED: BRANCH   8  12
DOCKED: ATOM     12  O   UNL d   1      25.720  39.826 -16.944 +0.00 -0.01    -0.303 OA
DOCKED: ATOM     13  H   UNL d   1      25.520  40.782 -16.831 +0.00 +0.01    +0.222 HD
DOCKED: ENDBRANCH   8  12
DOCKED: ENDBRANCH   7   8
DOCKED: ENDBRANCH   1   7
DOCKED: BRANCH   2  14
DOCKED: ATOM     14  O   UNL d   1      20.605  39.591 -18.036 +0.00 -0.02    -0.278 OA
DOCKED: BRANCH  14  15
DOCKED: ATOM     15  P   UNL d   1      21.160  38.431 -18.991 +0.00 +0.02    +0.473 P 
DOCKED: ATOM     16  O   UNL d   1      20.177  37.810 -19.934 +0.00 -0.01    -0.228 OA
DOCKED: BRANCH  15  17
DOCKED: ATOM     17  O   UNL d   1      22.394  39.104 -19.741 +0.00 -0.01    -0.303 OA
DOCKED: ATOM     18  H   UNL d   1      23.129  39.278 -19.122 +0.00 +0.01    +0.222 HD
DOCKED: ENDBRANCH  15  17
DOCKED: BRANCH  15  19
DOCKED: ATOM     19  O   UNL d   1      21.896  37.423 -18.005 +0.00 -0.01    -0.303 OA
DOCKED: ATOM     20  H   UNL d   1      22.655  37.843 -17.561 +0.00 +0.01    +0.222 HD
DOCKED: ENDBRANCH  15  19
DOCKED: ENDBRANCH  14  15
DOCKED: ENDBRANCH   2  14
DOCKED: BRANCH   6  21
DOCKED: ATOM     21  O   UNL d   1      23.259  42.566 -16.435 +0.00 -0.01    -0.278 OA
DOCKED: BRANCH  21  22
DOCKED: ATOM     22  P   UNL d   1      23.726  42.560 -14.909 +0.00 +0.03    +0.473 P 
DOCKED: ATOM     23  O   UNL d   1      22.804  41.977 -13.892 -0.00 -0.03    -0.228 OA
DOCKED: BRANCH  22  24
DOCKED: ATOM     24  O   UNL d   1      25.147  41.850 -15.006 +0.00 -0.01    -0.303 OA
DOCKED: ATOM     25  H   UNL d   1      25.000  40.891 -15.207 +0.00 +0.01    +0.222 HD
DOCKED: ENDBRANCH  22  24
DOCKED: BRANCH  22  26
DOCKED: ATOM     26  O   UNL d   1      24.137  44.094 -14.689 +0.00 -0.01    -0.303 OA
DOCKED: ATOM     27  H   UNL d   1      23.617  44.657 -15.298 +0.00 +0.01    +0.222 HD
DOCKED: ENDBRANCH  22  26
DOCKED: ENDBRANCH  21  22
DOCKED: ENDBRANCH   6  21
DOCKED: BRANCH   3  28
DOCKED: ATOM     28  O   UNL d   1      18.711  39.466 -16.181 -0.00 -0.05    -0.278 OA
DOCKED: BRANCH  28  29
DOCKED: ATOM     29  P   UNL d   1      17.790  38.751 -15.096 -0.01 +0.19    +0.473 P 
DOCKED: ATOM     30  O   UNL d   1      16.543  38.137 -15.619 -0.02 -0.05    -0.228 OA
DOCKED: BRANCH  29  31
DOCKED: ATOM     31  O   UNL d   1      18.860  37.767 -14.427 -0.09 -0.16    -0.303 OA
DOCKED: ATOM     32  H   UNL d   1      18.883  36.930 -14.946 +0.01 +0.07    +0.222 HD
DOCKED: ENDBRANCH  29  31
DOCKED: BRANCH  29  33
DOCKED: ATOM     33  O   UNL d   1      17.625  39.890 -13.996 -0.64 -0.22    -0.303 OA
DOCKED: ATOM     34  H   UNL d   1      18.519  40.232 -13.750 +0.01 +0.17    +0.222 HD
DOCKED: ENDBRANCH  29  33
DOCKED: ENDBRANCH  28  29
DOCKED: ENDBRANCH   3  28
DOCKED: BRANCH   5  35
DOCKED: ATOM     35  O   UNL d   1      20.569  43.693 -16.577 +0.00 -0.02    -0.278 OA
DOCKED: BRANCH  35  36
DOCKED: ATOM     36  P   UNL d   1      21.350  45.029 -16.190 +0.00 +0.02    +0.473 P 
DOCKED: ATOM     37  O   UNL d   1      22.535  45.353 -17.043 +0.00 -0.01    -0.228 OA
DOCKED: BRANCH  36  38
DOCKED: ATOM     38  O   UNL d   1      20.186  46.114 -16.246 +0.00 -0.01    -0.303 OA
DOCKED: ATOM     39  H   UNL d   1      20.520  46.920 -16.695 +0.00 +0.00    +0.222 HD
DOCKED: ENDBRANCH  36  38
DOCKED: BRANCH  36  40
DOCKED: ATOM     40  O   UNL d   1      21.613  44.829 -14.634 +0.00 -0.02    -0.303 OA
DOCKED: ATOM     41  H   UNL d   1      21.931  43.921 -14.432 +0.01 +0.02    +0.222 HD
DOCKED: ENDBRANCH  36  40
DOCKED: ENDBRANCH  35  36
DOCKED: ENDBRANCH   5  35
DOCKED: BRANCH   4  42
DOCKED: ATOM     42  O   UNL d   1      18.856  42.039 -14.899 -0.01 -0.06    -0.278 OA
DOCKED: BRANCH  42  43
DOCKED: ATOM     43  P   UNL d   1      19.529  42.218 -13.464 -0.05 +0.15    +0.473 P 
DOCKED: ATOM     44  O   UNL d   1      20.154  43.535 -13.159 -0.02 -0.04    -0.228 OA
DOCKED: BRANCH  43  45
DOCKED: ATOM     45  O   UNL d   1      18.351  41.812 -12.473 -0.60 -0.22    -0.303 OA
DOCKED: ATOM     46  H   UNL d   1      17.490  41.781 -12.934 +0.02 +0.12    +0.222 HD
DOCKED: ENDBRANCH  43  45
DOCKED: BRANCH  43  47
DOCKED: ATOM     47  O   UNL d   1      20.500  40.948 -13.353 -0.06 -0.12    -0.303 OA
DOCKED: ATOM     48  H   UNL d   1      21.425  41.257 -13.259 +0.02 +0.06    +0.222 HD
DOCKED: ENDBRANCH  43  47
DOCKED: ENDBRANCH  42  43
DOCKED: ENDBRANCH   4  42
DOCKED: TORSDOF 24
DOCKED: TER
DOCKED: ENDMDL
________________________________________________________________________________


	BEGINNING GENETIC ALGORITHM DOCKING 94 of 100
Run: 94 Seed: 591682516 1062866042 [ Run 94 of 100 GA/GALS ]
Beginning LAMARCKIAN GENETIC ALGORITHM (LGA), with a maximum of 25000000 energy evaluations.

Final-Value: -15.447


	FINAL GENETIC ALGORITHM DOCKED STATE
	_______________________________________________


Detailed state:  trans 7.110 10.081 8.524 quatxyzw 0.706350 0.551869 -0.384142 -0.221234 center 0.035 0.082 -0.065 ntor 24 -161.1033 -44.4403 101.1125 173.6771 76.2093 180.0000 -47.3945 -8.5113 40.6290 86.6163 -179.7650 103.8587 77.4068 90.3167 64.6622 177.0666 -83.0749 -169.2280 -35.7654 -23.2633 10.9139 -12.2576 173.0633 26.3349
State:	  7.110  10.081   8.524   0.724  0.566 -0.394 -154.437   -161.10  -44.44  101.11  173.68   76.21  180.00  -47.39   -8.51   40.63   86.62 -179.77  103.86   77.41   90.32   64.66  177.07  -83.07 -169.23  -35.77  -23.26   10.91  -12.26  173.06   26.33

DOCKED: MODEL       94
DOCKED: USER    Run = 94
DOCKED: USER    DPF = D:/Protein_go_brrr/autodock/final/6BB5/IHP/dock.dpf
DOCKED: USER  
DOCKED: USER    Estimated Free Energy of Binding    =   +4.64 kcal/mol  [=(1)+(2)+(3)-(4)]
DOCKED: USER    
DOCKED: USER    (1) Final Intermolecular Energy     =   -2.52 kcal/mol
DOCKED: USER        vdW + Hbond + desolv Energy     =   -2.46 kcal/mol
DOCKED: USER        Electrostatic Energy            =   -0.06 kcal/mol
DOCKED: USER    (2) Final Total Internal Energy     =  -12.93 kcal/mol
DOCKED: USER    (3) Torsional Free Energy           =   +7.16 kcal/mol
DOCKED: USER    (4) Unbound System's Energy  [=(2)] =  -12.93 kcal/mol
DOCKED: USER    
DOCKED: USER    
DOCKED: USER    NEWDPF move IHP_ideal_opt.pdbqt
DOCKED: USER    NEWDPF about 0.035000 0.082000 -0.065000
DOCKED: USER    NEWDPF tran0 7.109563 10.080956 8.524290
DOCKED: USER    NEWDPF quaternion0 0.706350 0.551869 -0.384142 -0.221234
DOCKED: USER    NEWDPF axisangle0 0.724298 0.565892 -0.393902 -154.436913
DOCKED: USER    NEWDPF quat0 0.724298 0.565892 -0.393902 -154.436913
DOCKED: USER    NEWDPF dihe0 -161.10 -44.44 101.11 173.68 76.21 180.00 -47.39 -8.51 40.63 86.62 -179.77 103.86 77.41 90.32 64.66 177.07 -83.07 -169.23 -35.77 -23.26 10.91 -12.26 173.06 26.33 
DOCKED: USER  keepresnum = 1 
DOCKED: USER  
DOCKED: REMARK  24 active torsions:
DOCKED: REMARK  status: ('A' for Active; 'I' for Inactive)
DOCKED: REMARK    1  A    between atoms: C_1  and  O_7 
DOCKED: REMARK    2  A    between atoms: C_2  and  O_12 
DOCKED: REMARK    3  A    between atoms: C_3  and  O_17 
DOCKED: REMARK    4  A    between atoms: C_4  and  O_22 
DOCKED: REMARK    5  A    between atoms: C_5  and  O_27 
DOCKED: REMARK    6  A    between atoms: C_6  and  O_32 
DOCKED: REMARK    7  A    between atoms: O_7  and  P_8 
DOCKED: REMARK    8  A    between atoms: P_8  and  O_10 
DOCKED: REMARK    9  A    between atoms: P_8  and  O_11 
DOCKED: REMARK   10  A    between atoms: O_12  and  P_13 
DOCKED: REMARK   11  A    between atoms: P_13  and  O_15 
DOCKED: REMARK   12  A    between atoms: P_13  and  O_16 
DOCKED: REMARK   13  A    between atoms: O_17  and  P_18 
DOCKED: REMARK   14  A    between atoms: P_18  and  O_20 
DOCKED: REMARK   15  A    between atoms: P_18  and  O_21 
DOCKED: REMARK   16  A    between atoms: O_22  and  P_23 
DOCKED: REMARK   17  A    between atoms: P_23  and  O_25 
DOCKED: REMARK   18  A    between atoms: P_23  and  O_26 
DOCKED: REMARK   19  A    between atoms: O_27  and  P_28 
DOCKED: REMARK   20  A    between atoms: P_28  and  O_30 
DOCKED: REMARK   21  A    between atoms: P_28  and  O_31 
DOCKED: REMARK   22  A    between atoms: O_32  and  P_33 
DOCKED: REMARK   23  A    between atoms: P_33  and  O_35 
DOCKED: REMARK   24  A    between atoms: P_33  and  O_36 
DOCKED: USER                              x       y       z     vdW  Elec       q    Type
DOCKED: USER                           _______ _______ _______ _____ _____    ______ ____
DOCKED: ROOT
DOCKED: ATOM      1  C   UNL d   1       6.150  10.522   7.157 -0.07 -0.01    +0.194 C 
DOCKED: ATOM      2  C   UNL d   1       5.377  10.269   8.453 -0.06 -0.02    +0.194 C 
DOCKED: ATOM      3  C   UNL d   1       5.891   9.028   9.185 -0.02 -0.01    +0.194 C 
DOCKED: ATOM      4  C   UNL d   1       7.402   9.043   9.408 -0.02 -0.01    +0.194 C 
DOCKED: ATOM      5  C   UNL d   1       8.208   9.405   8.167 -0.03 -0.01    +0.194 C 
DOCKED: ATOM      6  C   UNL d   1       7.658  10.609   7.400 -0.08 -0.02    +0.194 C 
DOCKED: ENDROOT
DOCKED: BRANCH   1   7
DOCKED: ATOM      7  O   UNL d   1       5.731  11.782   6.627 -0.14 +0.03    -0.278 OA
DOCKED: BRANCH   7   8
DOCKED: ATOM      8  P   UNL d   1       5.954  12.063   5.070 -0.10 -0.02    +0.473 P 
DOCKED: ATOM      9  O   UNL d   1       4.751  12.542   4.337 -0.14 +0.00    -0.228 OA
DOCKED: BRANCH   8  10
DOCKED: ATOM     10  O   UNL d   1       7.166  13.100   5.034 -0.21 +0.03    -0.303 OA
DOCKED: ATOM     11  H   UNL d   1       7.838  12.841   5.693 -0.30 -0.05    +0.222 HD
DOCKED: ENDBRANCH   8  10
DOCKED: BRANCH   8  12
DOCKED: ATOM     12  O   UNL d   1       6.631  10.741   4.505 -0.03 -0.00    -0.303 OA
DOCKED: ATOM     13  H   UNL d   1       7.613  10.760   4.553 +0.03 +0.00    +0.222 HD
DOCKED: ENDBRANCH   8  12
DOCKED: ENDBRANCH   7   8
DOCKED: ENDBRANCH   1   7
DOCKED: BRANCH   2  14
DOCKED: ATOM     14  O   UNL d   1       5.527  11.403   9.316 -0.12 +0.05    -0.278 OA
DOCKED: BRANCH  14  15
DOCKED: ATOM     15  P   UNL d   1       4.238  12.333   9.506 -0.08 -0.07    +0.473 P 
DOCKED: ATOM     16  O   UNL d   1       4.057  12.963  10.851 -0.13 +0.08    -0.228 OA
DOCKED: BRANCH  15  17
DOCKED: ATOM     17  O   UNL d   1       4.356  13.405   8.333 -0.20 +0.01    -0.303 OA
DOCKED: ATOM     18  H   UNL d   1       5.108  13.200   7.744 -0.03 -0.03    +0.222 HD
DOCKED: ENDBRANCH  15  17
DOCKED: BRANCH  15  19
DOCKED: ATOM     19  O   UNL d   1       3.025  11.438   8.999 -0.02 +0.02    -0.303 OA
DOCKED: ATOM     20  H   UNL d   1       2.415  11.212   9.726 +0.02 -0.02    +0.222 HD
DOCKED: ENDBRANCH  15  19
DOCKED: ENDBRANCH  14  15
DOCKED: ENDBRANCH   2  14
DOCKED: BRANCH   6  21
DOCKED: ATOM     21  O   UNL d   1       8.288  10.606   6.121 -0.04 +0.01    -0.278 OA
DOCKED: BRANCH  21  22
DOCKED: ATOM     22  P   UNL d   1       9.643  11.421   5.904 -0.02 +0.00    +0.473 P 
DOCKED: ATOM     23  O   UNL d   1      10.935  10.690   6.046 -0.01 -0.01    -0.228 OA
DOCKED: BRANCH  22  24
DOCKED: ATOM     24  O   UNL d   1       9.401  12.079   4.476 -0.04 -0.02    -0.303 OA
DOCKED: ATOM     25  H   UNL d   1       8.453  11.935   4.226 +0.05 +0.01    +0.222 HD
DOCKED: ENDBRANCH  22  24
DOCKED: BRANCH  22  26
DOCKED: ATOM     26  O   UNL d   1       9.431  12.671   6.885 -0.02 +0.05    -0.303 OA
DOCKED: ATOM     27  H   UNL d   1       8.607  12.542   7.397 -0.49 -0.10    +0.222 HD
DOCKED: ENDBRANCH  22  26
DOCKED: ENDBRANCH  21  22
DOCKED: ENDBRANCH   6  21
DOCKED: BRANCH   3  28
DOCKED: ATOM     28  O   UNL d   1       5.318   9.031  10.487 -0.01 +0.03    -0.278 OA
DOCKED: BRANCH  28  29
DOCKED: ATOM     29  P   UNL d   1       4.030   8.148  10.800 +0.01 -0.02    +0.473 P 
DOCKED: ATOM     30  O   UNL d   1       3.900   7.681  12.204 -0.00 +0.01    -0.228 OA
DOCKED: BRANCH  29  31
DOCKED: ATOM     31  O   UNL d   1       2.885   9.121  10.250 -0.00 +0.02    -0.303 OA
DOCKED: ATOM     32  H   UNL d   1       3.312   9.907   9.837 +0.02 -0.02    +0.222 HD
DOCKED: ENDBRANCH  29  31
DOCKED: BRANCH  29  33
DOCKED: ATOM     33  O   UNL d   1       4.111   7.027   9.673 -0.00 +0.00    -0.303 OA
DOCKED: ATOM     34  H   UNL d   1       5.017   6.632   9.677 +0.00 -0.00    +0.222 HD
DOCKED: ENDBRANCH  29  33
DOCKED: ENDBRANCH  28  29
DOCKED: ENDBRANCH   3  28
DOCKED: BRANCH   5  35
DOCKED: ATOM     35  O   UNL d   1       9.505   9.765   8.639 -0.02 +0.00    -0.278 OA
DOCKED: BRANCH  35  36
DOCKED: ATOM     36  P   UNL d   1       9.673  10.925   9.721 -0.06 -0.03    +0.473 P 
DOCKED: ATOM     37  O   UNL d   1       8.766  12.102   9.551 -0.10 +0.05    -0.228 OA
DOCKED: BRANCH  36  38
DOCKED: ATOM     38  O   UNL d   1       9.467  10.131  11.086 -0.03 +0.02    -0.303 OA
DOCKED: ATOM     39  H   UNL d   1       8.868   9.369  10.927 +0.02 -0.01    +0.222 HD
DOCKED: ENDBRANCH  36  38
DOCKED: BRANCH  36  40
DOCKED: ATOM     40  O   UNL d   1      11.238  11.208   9.675 -0.02 -0.04    -0.303 OA
DOCKED: ATOM     41  H   UNL d   1      11.572  11.259   8.752 +0.03 +0.03    +0.222 HD
DOCKED: ENDBRANCH  36  40
DOCKED: ENDBRANCH  35  36
DOCKED: ENDBRANCH   5  35
DOCKED: BRANCH   4  42
DOCKED: ATOM     42  O   UNL d   1       7.779   7.714   9.782 -0.00 +0.00    -0.278 OA
DOCKED: BRANCH  42  43
DOCKED: ATOM     43  P   UNL d   1       7.661   7.281  11.313 +0.01 -0.01    +0.473 P 
DOCKED: ATOM     44  O   UNL d   1       8.892   6.773  11.980 -0.00 -0.00    -0.228 OA
DOCKED: BRANCH  43  45
DOCKED: ATOM     45  O   UNL d   1       7.038   8.577  11.995 -0.01 +0.02    -0.303 OA
DOCKED: ATOM     46  H   UNL d   1       6.101   8.438  12.239 +0.01 -0.02    +0.222 HD
DOCKED: ENDBRANCH  43  45
DOCKED: BRANCH  43  47
DOCKED: ATOM     47  O   UNL d   1       6.410   6.279  11.315 +0.00 +0.00    -0.303 OA
DOCKED: ATOM     48  H   UNL d   1       5.580   6.798  11.266 +0.00 -0.00    +0.222 HD
DOCKED: ENDBRANCH  43  47
DOCKED: ENDBRANCH  42  43
DOCKED: ENDBRANCH   4  42
DOCKED: TORSDOF 24
DOCKED: TER
DOCKED: ENDMDL
________________________________________________________________________________


	BEGINNING GENETIC ALGORITHM DOCKING 95 of 100
Run: 95 Seed: 1941511610 544781959 [ Run 95 of 100 GA/GALS ]
Beginning LAMARCKIAN GENETIC ALGORITHM (LGA), with a maximum of 25000000 energy evaluations.

Final-Value: -16.781


	FINAL GENETIC ALGORITHM DOCKED STATE
	_______________________________________________


Detailed state:  trans 22.282 53.336 18.953 quatxyzw -0.129878 0.524996 0.688107 0.483755 center 0.035 0.082 -0.065 ntor 24 -169.9147 24.8665 10.1573 -94.5046 -4.0843 -128.9828 -9.8891 -59.0749 141.5737 -47.8676 9.4285 -132.5118 45.0493 -87.3472 5.5253 72.5187 85.4070 -69.4665 -1.2689 3.7045 147.1536 -12.6446 -46.1726 13.8832
State:	 22.282  53.336  18.953  -0.148  0.600  0.786 122.138   -169.91   24.87   10.16  -94.50   -4.08 -128.98   -9.89  -59.07  141.57  -47.87    9.43 -132.51   45.05  -87.35    5.53   72.52   85.41  -69.47   -1.27    3.70  147.15  -12.64  -46.17   13.88

DOCKED: MODEL       95
DOCKED: USER    Run = 95
DOCKED: USER    DPF = D:/Protein_go_brrr/autodock/final/6BB5/IHP/dock.dpf
DOCKED: USER  
DOCKED: USER    Estimated Free Energy of Binding    =   +4.22 kcal/mol  [=(1)+(2)+(3)-(4)]
DOCKED: USER    
DOCKED: USER    (1) Final Intermolecular Energy     =   -2.94 kcal/mol
DOCKED: USER        vdW + Hbond + desolv Energy     =   -2.65 kcal/mol
DOCKED: USER        Electrostatic Energy            =   -0.29 kcal/mol
DOCKED: USER    (2) Final Total Internal Energy     =  -13.84 kcal/mol
DOCKED: USER    (3) Torsional Free Energy           =   +7.16 kcal/mol
DOCKED: USER    (4) Unbound System's Energy  [=(2)] =  -13.84 kcal/mol
DOCKED: USER    
DOCKED: USER    
DOCKED: USER    NEWDPF move IHP_ideal_opt.pdbqt
DOCKED: USER    NEWDPF about 0.035000 0.082000 -0.065000
DOCKED: USER    NEWDPF tran0 22.281991 53.336152 18.952922
DOCKED: USER    NEWDPF quaternion0 -0.129878 0.524996 0.688107 0.483755
DOCKED: USER    NEWDPF axisangle0 -0.148397 0.599856 0.786226 122.138096
DOCKED: USER    NEWDPF quat0 -0.148397 0.599856 0.786226 122.138096
DOCKED: USER    NEWDPF dihe0 -169.91 24.87 10.16 -94.50 -4.08 -128.98 -9.89 -59.07 141.57 -47.87 9.43 -132.51 45.05 -87.35 5.53 72.52 85.41 -69.47 -1.27 3.70 147.15 -12.64 -46.17 13.88 
DOCKED: USER  keepresnum = 1 
DOCKED: USER  
DOCKED: REMARK  24 active torsions:
DOCKED: REMARK  status: ('A' for Active; 'I' for Inactive)
DOCKED: REMARK    1  A    between atoms: C_1  and  O_7 
DOCKED: REMARK    2  A    between atoms: C_2  and  O_12 
DOCKED: REMARK    3  A    between atoms: C_3  and  O_17 
DOCKED: REMARK    4  A    between atoms: C_4  and  O_22 
DOCKED: REMARK    5  A    between atoms: C_5  and  O_27 
DOCKED: REMARK    6  A    between atoms: C_6  and  O_32 
DOCKED: REMARK    7  A    between atoms: O_7  and  P_8 
DOCKED: REMARK    8  A    between atoms: P_8  and  O_10 
DOCKED: REMARK    9  A    between atoms: P_8  and  O_11 
DOCKED: REMARK   10  A    between atoms: O_12  and  P_13 
DOCKED: REMARK   11  A    between atoms: P_13  and  O_15 
DOCKED: REMARK   12  A    between atoms: P_13  and  O_16 
DOCKED: REMARK   13  A    between atoms: O_17  and  P_18 
DOCKED: REMARK   14  A    between atoms: P_18  and  O_20 
DOCKED: REMARK   15  A    between atoms: P_18  and  O_21 
DOCKED: REMARK   16  A    between atoms: O_22  and  P_23 
DOCKED: REMARK   17  A    between atoms: P_23  and  O_25 
DOCKED: REMARK   18  A    between atoms: P_23  and  O_26 
DOCKED: REMARK   19  A    between atoms: O_27  and  P_28 
DOCKED: REMARK   20  A    between atoms: P_28  and  O_30 
DOCKED: REMARK   21  A    between atoms: P_28  and  O_31 
DOCKED: REMARK   22  A    between atoms: O_32  and  P_33 
DOCKED: REMARK   23  A    between atoms: P_33  and  O_35 
DOCKED: REMARK   24  A    between atoms: P_33  and  O_36 
DOCKED: USER                              x       y       z     vdW  Elec       q    Type
DOCKED: USER                           _______ _______ _______ _____ _____    ______ ____
DOCKED: ROOT
DOCKED: ATOM      1  C   UNL d   1      20.644  52.786  18.941 -0.07 -0.02    +0.194 C 
DOCKED: ATOM      2  C   UNL d   1      21.094  53.551  17.695 -0.04 -0.01    +0.194 C 
DOCKED: ATOM      3  C   UNL d   1      21.924  54.785  18.056 -0.01 -0.01    +0.194 C 
DOCKED: ATOM      4  C   UNL d   1      23.089  54.472  18.993 -0.01 +0.00    +0.194 C 
DOCKED: ATOM      5  C   UNL d   1      22.707  53.613  20.191 -0.02 +0.01    +0.194 C 
DOCKED: ATOM      6  C   UNL d   1      21.825  52.413  19.838 -0.09 -0.01    +0.194 C 
DOCKED: ENDROOT
DOCKED: BRANCH   1   7
DOCKED: ATOM      7  O   UNL d   1      20.029  51.567  18.517 -0.10 +0.04    -0.278 OA
DOCKED: BRANCH   7   8
DOCKED: ATOM      8  P   UNL d   1      18.536  51.264  18.996 -0.05 -0.07    +0.473 P 
DOCKED: ATOM      9  O   UNL d   1      17.474  51.626  18.017 -0.05 +0.03    -0.228 OA
DOCKED: BRANCH   8  10
DOCKED: ATOM     10  O   UNL d   1      18.553  49.711  19.358 -0.08 +0.08    -0.303 OA
DOCKED: ATOM     11  H   UNL d   1      19.433  49.464  19.698 -0.51 -0.16    +0.222 HD
DOCKED: ENDBRANCH   8  10
DOCKED: BRANCH   8  12
DOCKED: ATOM     12  O   UNL d   1      18.416  51.939  20.429 -0.05 +0.03    -0.303 OA
DOCKED: ATOM     13  H   UNL d   1      19.289  52.099  20.854 +0.04 -0.02    +0.222 HD
DOCKED: ENDBRANCH   8  12
DOCKED: ENDBRANCH   7   8
DOCKED: ENDBRANCH   1   7
DOCKED: BRANCH   2  14
DOCKED: ATOM     14  O   UNL d   1      21.893  52.686  16.878 -0.07 +0.01    -0.278 OA
DOCKED: BRANCH  14  15
DOCKED: ATOM     15  P   UNL d   1      21.585  52.699  15.307 -0.06 -0.02    +0.473 P 
DOCKED: ATOM     16  O   UNL d   1      20.168  52.957  14.902 -0.08 +0.04    -0.228 OA
DOCKED: BRANCH  15  17
DOCKED: ATOM     17  O   UNL d   1      22.601  53.778  14.721 -0.03 +0.02    -0.303 OA
DOCKED: ATOM     18  H   UNL d   1      22.230  54.679  14.783 +0.03 -0.02    +0.222 HD
DOCKED: ENDBRANCH  15  17
DOCKED: BRANCH  15  19
DOCKED: ATOM     19  O   UNL d   1      22.216  51.342  14.768 -0.73 -0.08    -0.303 OA
DOCKED: ATOM     20  H   UNL d   1      22.455  51.405  13.825 +0.10 +0.03    +0.222 HD
DOCKED: ENDBRANCH  15  19
DOCKED: ENDBRANCH  14  15
DOCKED: ENDBRANCH   2  14
DOCKED: BRANCH   6  21
DOCKED: ATOM     21  O   UNL d   1      21.282  51.926  21.063 -0.12 +0.03    -0.278 OA
DOCKED: BRANCH  21  22
DOCKED: ATOM     22  P   UNL d   1      20.693  52.952  22.132 -0.02 -0.02    +0.473 P 
DOCKED: ATOM     23  O   UNL d   1      19.984  54.164  21.629 -0.01 +0.01    -0.228 OA
DOCKED: BRANCH  22  24
DOCKED: ATOM     24  O   UNL d   1      19.811  51.996  23.049 -0.06 +0.02    -0.303 OA
DOCKED: ATOM     25  H   UNL d   1      19.024  51.704  22.523 +0.03 -0.01    +0.222 HD
DOCKED: ENDBRANCH  22  24
DOCKED: BRANCH  22  26
DOCKED: ATOM     26  O   UNL d   1      21.969  53.220  23.064 -0.02 -0.01    -0.303 OA
DOCKED: ATOM     27  H   UNL d   1      22.706  53.553  22.512 +0.04 +0.02    +0.222 HD
DOCKED: ENDBRANCH  22  26
DOCKED: ENDBRANCH  21  22
DOCKED: ENDBRANCH   6  21
DOCKED: BRANCH   3  28
DOCKED: ATOM     28  O   UNL d   1      22.522  55.265  16.859 -0.00 +0.01    -0.278 OA
DOCKED: BRANCH  28  29
DOCKED: ATOM     29  P   UNL d   1      21.861  56.472  16.057 +0.01 -0.04    +0.473 P 
DOCKED: ATOM     30  O   UNL d   1      21.450  57.638  16.880 +0.00 +0.01    -0.228 OA
DOCKED: BRANCH  29  31
DOCKED: ATOM     31  O   UNL d   1      22.990  56.724  14.951 +0.00 +0.02    -0.303 OA
DOCKED: ATOM     32  H   UNL d   1      23.311  55.852  14.626 +0.01 -0.02    +0.222 HD
DOCKED: ENDBRANCH  29  31
DOCKED: BRANCH  29  33
DOCKED: ATOM     33  O   UNL d   1      20.716  55.736  15.230 +0.00 +0.05    -0.303 OA
DOCKED: ATOM     34  H   UNL d   1      20.738  54.770  15.440 +0.02 -0.04    +0.222 HD
DOCKED: ENDBRANCH  29  33
DOCKED: ENDBRANCH  28  29
DOCKED: ENDBRANCH   3  28
DOCKED: BRANCH   5  35
DOCKED: ATOM     35  O   UNL d   1      23.934  53.095  20.703 -0.04 -0.05    -0.278 OA
DOCKED: BRANCH  35  36
DOCKED: ATOM     36  P   UNL d   1      24.812  53.960  21.716 -0.02 +0.19    +0.473 P 
DOCKED: ATOM     37  O   UNL d   1      25.239  53.254  22.963 -0.60 -0.27    -0.228 OA
DOCKED: BRANCH  36  38
DOCKED: ATOM     38  O   UNL d   1      26.015  54.431  20.785 -0.02 -0.10    -0.303 OA
DOCKED: ATOM     39  H   UNL d   1      25.686  55.101  20.148 +0.02 +0.04    +0.222 HD
DOCKED: ENDBRANCH  36  38
DOCKED: BRANCH  36  40
DOCKED: ATOM     40  O   UNL d   1      23.931  55.272  21.895 -0.00 -0.05    -0.303 OA
DOCKED: ATOM     41  H   UNL d   1      24.156  55.956  21.226 +0.01 +0.02    +0.222 HD
DOCKED: ENDBRANCH  36  40
DOCKED: ENDBRANCH  35  36
DOCKED: ENDBRANCH   5  35
DOCKED: BRANCH   4  42
DOCKED: ATOM     42  O   UNL d   1      23.556  55.725  19.505 +0.00 -0.01    -0.278 OA
DOCKED: BRANCH  42  43
DOCKED: ATOM     43  P   UNL d   1      24.813  56.420  18.813 +0.00 +0.02    +0.473 P 
DOCKED: ATOM     44  O   UNL d   1      25.756  55.544  18.062 -0.01 -0.01    -0.228 OA
DOCKED: BRANCH  43  45
DOCKED: ATOM     45  O   UNL d   1      24.139  57.559  17.929 -0.00 -0.00    -0.303 OA
DOCKED: ATOM     46  H   UNL d   1      23.565  57.180  17.233 +0.00 -0.00    +0.222 HD
DOCKED: ENDBRANCH  43  45
DOCKED: BRANCH  43  47
DOCKED: ATOM     47  O   UNL d   1      25.462  57.274  20.004 +0.00 -0.02    -0.303 OA
DOCKED: ATOM     48  H   UNL d   1      25.520  56.716  20.807 +0.01 +0.03    +0.222 HD
DOCKED: ENDBRANCH  43  47
DOCKED: ENDBRANCH  42  43
DOCKED: ENDBRANCH   4  42
DOCKED: TORSDOF 24
DOCKED: TER
DOCKED: ENDMDL
________________________________________________________________________________


	BEGINNING GENETIC ALGORITHM DOCKING 96 of 100
Run: 96 Seed: 1085393115 1809564131 [ Run 96 of 100 GA/GALS ]
Beginning LAMARCKIAN GENETIC ALGORITHM (LGA), with a maximum of 25000000 energy evaluations.

Final-Value: -18.908


	FINAL GENETIC ALGORITHM DOCKED STATE
	_______________________________________________


Detailed state:  trans 39.642 46.188 3.015 quatxyzw -0.664186 0.172949 -0.711175 0.152235 center 0.035 0.082 -0.065 ntor 24 156.7656 62.4390 168.4086 3.1542 -7.0046 -164.5676 -11.0044 -143.1198 -36.5377 87.2126 29.7543 -124.4056 -89.0903 175.6783 178.2179 106.7670 -4.6233 -62.7458 -143.6754 14.9193 -175.1065 2.2406 -19.6333 171.8664
State:	 39.642  46.188   3.015  -0.672  0.175 -0.720 162.487    156.77   62.44  168.41    3.15   -7.00 -164.57  -11.00 -143.12  -36.54   87.21   29.75 -124.41  -89.09  175.68  178.22  106.77   -4.62  -62.75 -143.68   14.92 -175.11    2.24  -19.63  171.87

DOCKED: MODEL       96
DOCKED: USER    Run = 96
DOCKED: USER    DPF = D:/Protein_go_brrr/autodock/final/6BB5/IHP/dock.dpf
DOCKED: USER  
DOCKED: USER    Estimated Free Energy of Binding    =   +0.93 kcal/mol  [=(1)+(2)+(3)-(4)]
DOCKED: USER    
DOCKED: USER    (1) Final Intermolecular Energy     =   -6.23 kcal/mol
DOCKED: USER        vdW + Hbond + desolv Energy     =   -5.67 kcal/mol
DOCKED: USER        Electrostatic Energy            =   -0.55 kcal/mol
DOCKED: USER    (2) Final Total Internal Energy     =  -12.68 kcal/mol
DOCKED: USER    (3) Torsional Free Energy           =   +7.16 kcal/mol
DOCKED: USER    (4) Unbound System's Energy  [=(2)] =  -12.68 kcal/mol
DOCKED: USER    
DOCKED: USER    
DOCKED: USER    NEWDPF move IHP_ideal_opt.pdbqt
DOCKED: USER    NEWDPF about 0.035000 0.082000 -0.065000
DOCKED: USER    NEWDPF tran0 39.642177 46.187615 3.014751
DOCKED: USER    NEWDPF quaternion0 -0.664186 0.172949 -0.711175 0.152235
DOCKED: USER    NEWDPF axisangle0 -0.672019 0.174989 -0.719562 162.487038
DOCKED: USER    NEWDPF quat0 -0.672019 0.174989 -0.719562 162.487038
DOCKED: USER    NEWDPF dihe0 156.77 62.44 168.41 3.15 -7.00 -164.57 -11.00 -143.12 -36.54 87.21 29.75 -124.41 -89.09 175.68 178.22 106.77 -4.62 -62.75 -143.68 14.92 -175.11 2.24 -19.63 171.87 
DOCKED: USER  keepresnum = 1 
DOCKED: USER  
DOCKED: REMARK  24 active torsions:
DOCKED: REMARK  status: ('A' for Active; 'I' for Inactive)
DOCKED: REMARK    1  A    between atoms: C_1  and  O_7 
DOCKED: REMARK    2  A    between atoms: C_2  and  O_12 
DOCKED: REMARK    3  A    between atoms: C_3  and  O_17 
DOCKED: REMARK    4  A    between atoms: C_4  and  O_22 
DOCKED: REMARK    5  A    between atoms: C_5  and  O_27 
DOCKED: REMARK    6  A    between atoms: C_6  and  O_32 
DOCKED: REMARK    7  A    between atoms: O_7  and  P_8 
DOCKED: REMARK    8  A    between atoms: P_8  and  O_10 
DOCKED: REMARK    9  A    between atoms: P_8  and  O_11 
DOCKED: REMARK   10  A    between atoms: O_12  and  P_13 
DOCKED: REMARK   11  A    between atoms: P_13  and  O_15 
DOCKED: REMARK   12  A    between atoms: P_13  and  O_16 
DOCKED: REMARK   13  A    between atoms: O_17  and  P_18 
DOCKED: REMARK   14  A    between atoms: P_18  and  O_20 
DOCKED: REMARK   15  A    between atoms: P_18  and  O_21 
DOCKED: REMARK   16  A    between atoms: O_22  and  P_23 
DOCKED: REMARK   17  A    between atoms: P_23  and  O_25 
DOCKED: REMARK   18  A    between atoms: P_23  and  O_26 
DOCKED: REMARK   19  A    between atoms: O_27  and  P_28 
DOCKED: REMARK   20  A    between atoms: P_28  and  O_30 
DOCKED: REMARK   21  A    between atoms: P_28  and  O_31 
DOCKED: REMARK   22  A    between atoms: O_32  and  P_33 
DOCKED: REMARK   23  A    between atoms: P_33  and  O_35 
DOCKED: REMARK   24  A    between atoms: P_33  and  O_36 
DOCKED: USER                              x       y       z     vdW  Elec       q    Type
DOCKED: USER                           _______ _______ _______ _____ _____    ______ ____
DOCKED: ROOT
DOCKED: ATOM      1  C   UNL d   1      40.655  46.610   4.349 -0.16 +0.02    +0.194 C 
DOCKED: ATOM      2  C   UNL d   1      40.773  47.511   3.118 -0.05 +0.03    +0.194 C 
DOCKED: ATOM      3  C   UNL d   1      40.803  46.698   1.822 -0.01 +0.03    +0.194 C 
DOCKED: ATOM      4  C   UNL d   1      39.645  45.710   1.705 -0.01 +0.05    +0.194 C 
DOCKED: ATOM      5  C   UNL d   1      39.418  44.870   2.955 -0.06 +0.05    +0.194 C 
DOCKED: ATOM      6  C   UNL d   1      39.449  45.674   4.256 -0.14 +0.06    +0.194 C 
DOCKED: ENDROOT
DOCKED: BRANCH   1   7
DOCKED: ATOM      7  O   UNL d   1      40.460  47.444   5.494 -0.24 +0.01    -0.278 OA
DOCKED: BRANCH   7   8
DOCKED: ATOM      8  P   UNL d   1      38.964  47.741   5.971 -0.24 +0.13    +0.473 P 
DOCKED: ATOM      9  O   UNL d   1      37.975  47.917   4.873 -0.67 -0.27    -0.228 OA
DOCKED: BRANCH   8  10
DOCKED: ATOM     10  O   UNL d   1      38.617  46.521   6.939 -0.27 -0.04    -0.303 OA
DOCKED: ATOM     11  H   UNL d   1      39.377  45.910   6.980 -0.33 -0.04    +0.222 HD
DOCKED: ENDBRANCH   8  10
DOCKED: BRANCH   8  12
DOCKED: ATOM     12  O   UNL d   1      39.090  48.951   6.993 -0.41 +0.03    -0.303 OA
DOCKED: ATOM     13  H   UNL d   1      39.947  49.429   6.922 -0.40 -0.21    +0.222 HD
DOCKED: ENDBRANCH   8  12
DOCKED: ENDBRANCH   7   8
DOCKED: ENDBRANCH   1   7
DOCKED: BRANCH   2  14
DOCKED: ATOM     14  O   UNL d   1      39.647  48.395   3.076 -0.04 -0.09    -0.278 OA
DOCKED: BRANCH  14  15
DOCKED: ATOM     15  P   UNL d   1      39.907  49.858   2.478 +0.02 +0.11    +0.473 P 
DOCKED: ATOM     16  O   UNL d   1      39.448  51.015   3.309 -0.05 -0.07    -0.228 OA
DOCKED: BRANCH  15  17
DOCKED: ATOM     17  O   UNL d   1      41.473  49.886   2.191 -0.00 -0.02    -0.303 OA
DOCKED: ATOM     18  H   UNL d   1      41.699  49.334   1.417 +0.02 +0.01    +0.222 HD
DOCKED: ENDBRANCH  15  17
DOCKED: BRANCH  15  19
DOCKED: ATOM     19  O   UNL d   1      39.313  49.794   1.004 +0.00 -0.07    -0.303 OA
DOCKED: ATOM     20  H   UNL d   1      39.719  49.078   0.482 +0.01 +0.04    +0.222 HD
DOCKED: ENDBRANCH  15  19
DOCKED: ENDBRANCH  14  15
DOCKED: ENDBRANCH   2  14
DOCKED: BRANCH   6  21
DOCKED: ATOM     21  O   UNL d   1      39.568  44.732   5.320 -0.18 -0.05    -0.278 OA
DOCKED: BRANCH  21  22
DOCKED: ATOM     22  P   UNL d   1      41.004  44.154   5.709 -0.25 +0.05    +0.473 P 
DOCKED: ATOM     23  O   UNL d   1      41.076  42.790   6.308 -0.30 -0.05    -0.228 OA
DOCKED: BRANCH  22  24
DOCKED: ATOM     24  O   UNL d   1      41.805  44.328   4.345 -0.16 -0.03    -0.303 OA
DOCKED: ATOM     25  H   UNL d   1      41.476  43.645   3.706 +0.09 +0.02    +0.222 HD
DOCKED: ENDBRANCH  22  24
DOCKED: BRANCH  22  26
DOCKED: ATOM     26  O   UNL d   1      41.604  45.345   6.599 -0.60 +0.03    -0.303 OA
DOCKED: ATOM     27  H   UNL d   1      40.868  45.895   6.939 -0.39 -0.10    +0.222 HD
DOCKED: ENDBRANCH  22  26
DOCKED: ENDBRANCH  21  22
DOCKED: ENDBRANCH   6  21
DOCKED: BRANCH   3  28
DOCKED: ATOM     28  O   UNL d   1      40.634  47.607   0.742 +0.00 -0.04    -0.278 OA
DOCKED: BRANCH  28  29
DOCKED: ATOM     29  P   UNL d   1      41.825  47.870  -0.282 +0.00 +0.03    +0.473 P 
DOCKED: ATOM     30  O   UNL d   1      41.988  46.849  -1.350 +0.00 -0.01    -0.228 OA
DOCKED: BRANCH  29  31
DOCKED: ATOM     31  O   UNL d   1      41.468  49.358  -0.749 +0.00 -0.02    -0.303 OA
DOCKED: ATOM     32  H   UNL d   1      41.172  49.872   0.038 +0.00 +0.02    +0.222 HD
DOCKED: ENDBRANCH  29  31
DOCKED: BRANCH  29  33
DOCKED: ATOM     33  O   UNL d   1      43.062  48.094   0.694 -0.00 -0.00    -0.303 OA
DOCKED: ATOM     34  H   UNL d   1      43.071  49.037   0.989 +0.01 -0.00    +0.222 HD
DOCKED: ENDBRANCH  29  33
DOCKED: ENDBRANCH  28  29
DOCKED: ENDBRANCH   3  28
DOCKED: BRANCH   5  35
DOCKED: ATOM     35  O   UNL d   1      38.103  44.332   2.826 -0.06 -0.11    -0.278 OA
DOCKED: BRANCH  35  36
DOCKED: ATOM     36  P   UNL d   1      37.893  42.769   2.581 -0.06 +0.09    +0.473 P 
DOCKED: ATOM     37  O   UNL d   1      38.806  41.868   3.351 -0.19 -0.03    -0.228 OA
DOCKED: BRANCH  36  38
DOCKED: ATOM     38  O   UNL d   1      36.350  42.589   2.928 -0.09 -0.04    -0.303 OA
DOCKED: ATOM     39  H   UNL d   1      36.266  42.133   3.793 -0.48 -0.04    +0.222 HD
DOCKED: ENDBRANCH  36  38
DOCKED: BRANCH  36  40
DOCKED: ATOM     40  O   UNL d   1      37.944  42.664   0.995 -0.01 -0.05    -0.303 OA
DOCKED: ATOM     41  H   UNL d   1      38.691  43.181   0.619 +0.02 +0.03    +0.222 HD
DOCKED: ENDBRANCH  36  40
DOCKED: ENDBRANCH  35  36
DOCKED: ENDBRANCH   5  35
DOCKED: BRANCH   4  42
DOCKED: ATOM     42  O   UNL d   1      39.976  44.807   0.645 -0.00 -0.04    -0.278 OA
DOCKED: BRANCH  42  43
DOCKED: ATOM     43  P   UNL d   1      41.291  43.913   0.776 -0.00 +0.04    +0.473 P 
DOCKED: ATOM     44  O   UNL d   1      42.305  44.327   1.786 -0.05 -0.01    -0.228 OA
DOCKED: BRANCH  43  45
DOCKED: ATOM     45  O   UNL d   1      40.701  42.454   1.006 -0.02 -0.03    -0.303 OA
DOCKED: ATOM     46  H   UNL d   1      39.957  42.465   1.641 +0.05 +0.03    +0.222 HD
DOCKED: ENDBRANCH  43  45
DOCKED: BRANCH  43  47
DOCKED: ATOM     47  O   UNL d   1      41.820  43.816  -0.735 -0.00 -0.02    -0.303 OA
DOCKED: ATOM     48  H   UNL d   1      41.925  44.719  -1.098 +0.00 +0.01    +0.222 HD
DOCKED: ENDBRANCH  43  47
DOCKED: ENDBRANCH  42  43
DOCKED: ENDBRANCH   4  42
DOCKED: TORSDOF 24
DOCKED: TER
DOCKED: ENDMDL
________________________________________________________________________________


	BEGINNING GENETIC ALGORITHM DOCKING 97 of 100
Run: 97 Seed: 607562422 11316923 [ Run 97 of 100 GA/GALS ]
Beginning LAMARCKIAN GENETIC ALGORITHM (LGA), with a maximum of 25000000 energy evaluations.

Final-Value: -18.470


	FINAL GENETIC ALGORITHM DOCKED STATE
	_______________________________________________


Detailed state:  trans 9.669 47.319 15.564 quatxyzw -0.700484 -0.179081 -0.433851 0.537611 center 0.035 0.082 -0.065 ntor 24 124.2616 -137.2550 -164.9047 -27.3535 59.1748 107.6009 -138.7516 -85.6155 86.2390 45.5900 -120.9688 140.5186 -64.8737 177.4204 67.6133 -143.5356 108.3484 169.6746 77.7762 18.8525 177.0716 0.3677 -7.8302 174.3404
State:	  9.669  47.319  15.564  -0.831 -0.212 -0.515 114.958    124.26 -137.25 -164.90  -27.35   59.17  107.60 -138.75  -85.62   86.24   45.59 -120.97  140.52  -64.87  177.42   67.61 -143.54  108.35  169.67   77.78   18.85  177.07    0.37   -7.83  174.34

DOCKED: MODEL       97
DOCKED: USER    Run = 97
DOCKED: USER    DPF = D:/Protein_go_brrr/autodock/final/6BB5/IHP/dock.dpf
DOCKED: USER  
DOCKED: USER    Estimated Free Energy of Binding    =   +3.10 kcal/mol  [=(1)+(2)+(3)-(4)]
DOCKED: USER    
DOCKED: USER    (1) Final Intermolecular Energy     =   -4.06 kcal/mol
DOCKED: USER        vdW + Hbond + desolv Energy     =   -3.85 kcal/mol
DOCKED: USER        Electrostatic Energy            =   -0.21 kcal/mol
DOCKED: USER    (2) Final Total Internal Energy     =  -14.42 kcal/mol
DOCKED: USER    (3) Torsional Free Energy           =   +7.16 kcal/mol
DOCKED: USER    (4) Unbound System's Energy  [=(2)] =  -14.42 kcal/mol
DOCKED: USER    
DOCKED: USER    
DOCKED: USER    NEWDPF move IHP_ideal_opt.pdbqt
DOCKED: USER    NEWDPF about 0.035000 0.082000 -0.065000
DOCKED: USER    NEWDPF tran0 9.668881 47.319058 15.563760
DOCKED: USER    NEWDPF quaternion0 -0.700484 -0.179081 -0.433851 0.537611
DOCKED: USER    NEWDPF axisangle0 -0.830752 -0.212385 -0.514533 114.957633
DOCKED: USER    NEWDPF quat0 -0.830752 -0.212385 -0.514533 114.957633
DOCKED: USER    NEWDPF dihe0 124.26 -137.25 -164.90 -27.35 59.17 107.60 -138.75 -85.62 86.24 45.59 -120.97 140.52 -64.87 177.42 67.61 -143.54 108.35 169.67 77.78 18.85 177.07 0.37 -7.83 174.34 
DOCKED: USER  keepresnum = 1 
DOCKED: USER  
DOCKED: REMARK  24 active torsions:
DOCKED: REMARK  status: ('A' for Active; 'I' for Inactive)
DOCKED: REMARK    1  A    between atoms: C_1  and  O_7 
DOCKED: REMARK    2  A    between atoms: C_2  and  O_12 
DOCKED: REMARK    3  A    between atoms: C_3  and  O_17 
DOCKED: REMARK    4  A    between atoms: C_4  and  O_22 
DOCKED: REMARK    5  A    between atoms: C_5  and  O_27 
DOCKED: REMARK    6  A    between atoms: C_6  and  O_32 
DOCKED: REMARK    7  A    between atoms: O_7  and  P_8 
DOCKED: REMARK    8  A    between atoms: P_8  and  O_10 
DOCKED: REMARK    9  A    between atoms: P_8  and  O_11 
DOCKED: REMARK   10  A    between atoms: O_12  and  P_13 
DOCKED: REMARK   11  A    between atoms: P_13  and  O_15 
DOCKED: REMARK   12  A    between atoms: P_13  and  O_16 
DOCKED: REMARK   13  A    between atoms: O_17  and  P_18 
DOCKED: REMARK   14  A    between atoms: P_18  and  O_20 
DOCKED: REMARK   15  A    between atoms: P_18  and  O_21 
DOCKED: REMARK   16  A    between atoms: O_22  and  P_23 
DOCKED: REMARK   17  A    between atoms: P_23  and  O_25 
DOCKED: REMARK   18  A    between atoms: P_23  and  O_26 
DOCKED: REMARK   19  A    between atoms: O_27  and  P_28 
DOCKED: REMARK   20  A    between atoms: P_28  and  O_30 
DOCKED: REMARK   21  A    between atoms: P_28  and  O_31 
DOCKED: REMARK   22  A    between atoms: O_32  and  P_33 
DOCKED: REMARK   23  A    between atoms: P_33  and  O_35 
DOCKED: REMARK   24  A    between atoms: P_33  and  O_36 
DOCKED: USER                              x       y       z     vdW  Elec       q    Type
DOCKED: USER                           _______ _______ _______ _____ _____    ______ ____
DOCKED: ROOT
DOCKED: ATOM      1  C   UNL d   1      11.194  48.063  15.241 -0.04 -0.09    +0.194 C 
DOCKED: ATOM      2  C   UNL d   1      10.374  47.676  14.009 -0.10 -0.11    +0.194 C 
DOCKED: ATOM      3  C   UNL d   1       9.743  46.290  14.161 -0.15 -0.17    +0.194 C 
DOCKED: ATOM      4  C   UNL d   1       8.950  46.129  15.456 -0.12 -0.15    +0.194 C 
DOCKED: ATOM      5  C   UNL d   1       9.688  46.611  16.699 -0.04 -0.09    +0.194 C 
DOCKED: ATOM      6  C   UNL d   1      10.371  47.969  16.527 -0.01 -0.07    +0.194 C 
DOCKED: ENDROOT
DOCKED: BRANCH   1   7
DOCKED: ATOM      7  O   UNL d   1      11.603  49.425  15.095 -0.02 +0.09    -0.278 OA
DOCKED: BRANCH   7   8
DOCKED: ATOM      8  P   UNL d   1      12.176  49.898  13.682 -0.05 -0.16    +0.473 P 
DOCKED: ATOM      9  O   UNL d   1      12.517  48.798  12.739 -0.16 +0.09    -0.228 OA
DOCKED: BRANCH   8  10
DOCKED: ATOM     10  O   UNL d   1      11.054  50.883  13.119 -0.07 +0.09    -0.303 OA
DOCKED: ATOM     11  H   UNL d   1      10.175  50.577  13.409 +0.05 -0.06    +0.222 HD
DOCKED: ENDBRANCH   8  10
DOCKED: BRANCH   8  12
DOCKED: ATOM     12  O   UNL d   1      13.356  50.903  14.030 -0.04 +0.12    -0.303 OA
DOCKED: ATOM     13  H   UNL d   1      13.823  51.241  13.233 +0.07 -0.13    +0.222 HD
DOCKED: ENDBRANCH   8  12
DOCKED: ENDBRANCH   7   8
DOCKED: ENDBRANCH   1   7
DOCKED: BRANCH   2  14
DOCKED: ATOM     14  O   UNL d   1       9.327  48.637  13.825 -0.04 +0.10    -0.278 OA
DOCKED: BRANCH  14  15
DOCKED: ATOM     15  P   UNL d   1       8.840  48.884  12.319 -0.09 -0.16    +0.473 P 
DOCKED: ATOM     16  O   UNL d   1       8.827  50.302  11.841 -0.14 +0.04    -0.228 OA
DOCKED: BRANCH  15  17
DOCKED: ATOM     17  O   UNL d   1       9.787  47.946  11.447 -0.03 +0.17    -0.303 OA
DOCKED: ATOM     18  H   UNL d   1       9.337  47.112  11.212 -0.06 -0.15    +0.222 HD
DOCKED: ENDBRANCH  15  17
DOCKED: BRANCH  15  19
DOCKED: ATOM     19  O   UNL d   1       7.451  48.114  12.221 -0.13 +0.08    -0.303 OA
DOCKED: ATOM     20  H   UNL d   1       7.574  47.178  11.980 +0.10 -0.09    +0.222 HD
DOCKED: ENDBRANCH  15  19
DOCKED: ENDBRANCH  14  15
DOCKED: ENDBRANCH   2  14
DOCKED: BRANCH   6  21
DOCKED: ATOM     21  O   UNL d   1      11.279  48.115  17.616 -0.00 +0.07    -0.278 OA
DOCKED: BRANCH  21  22
DOCKED: ATOM     22  P   UNL d   1      12.646  47.292  17.624 +0.02 -0.14    +0.473 P 
DOCKED: ATOM     23  O   UNL d   1      13.885  47.980  17.159 -0.03 +0.06    -0.228 OA
DOCKED: BRANCH  22  24
DOCKED: ATOM     24  O   UNL d   1      12.699  46.762  19.124 -0.01 +0.06    -0.303 OA
DOCKED: ATOM     25  H   UNL d   1      11.954  47.181  19.625 +0.02 -0.04    +0.222 HD
DOCKED: ENDBRANCH  22  24
DOCKED: BRANCH  22  26
DOCKED: ATOM     26  O   UNL d   1      12.233  45.968  16.820 -0.08 +0.17    -0.303 OA
DOCKED: ATOM     27  H   UNL d   1      11.581  45.462  17.346 +0.06 -0.10    +0.222 HD
DOCKED: ENDBRANCH  22  26
DOCKED: ENDBRANCH  21  22
DOCKED: ENDBRANCH   6  21
DOCKED: BRANCH   3  28
DOCKED: ATOM     28  O   UNL d   1       8.792  46.136  13.115 -0.17 +0.25    -0.278 OA
DOCKED: BRANCH  28  29
DOCKED: ATOM     29  P   UNL d   1       9.056  45.100  11.935 -0.30 -0.38    +0.473 P 
DOCKED: ATOM     30  O   UNL d   1       8.126  45.193  10.780 -0.39 +0.10    -0.228 OA
DOCKED: BRANCH  29  31
DOCKED: ATOM     31  O   UNL d   1      10.603  45.392  11.647 -0.34 +0.29    -0.303 OA
DOCKED: ATOM     32  H   UNL d   1      10.667  46.132  11.001 +0.06 -0.16    +0.222 HD
DOCKED: ENDBRANCH  29  31
DOCKED: BRANCH  29  33
DOCKED: ATOM     33  O   UNL d   1       9.100  43.711  12.713 -0.38 +0.32    -0.303 OA
DOCKED: ATOM     34  H   UNL d   1       9.383  43.874  13.646 +0.06 -0.25    +0.222 HD
DOCKED: ENDBRANCH  29  33
DOCKED: ENDBRANCH  28  29
DOCKED: ENDBRANCH   3  28
DOCKED: BRANCH   5  35
DOCKED: ATOM     35  O   UNL d   1       8.689  46.768  17.705 -0.02 +0.09    -0.278 OA
DOCKED: BRANCH  35  36
DOCKED: ATOM     36  P   UNL d   1       8.808  45.980  19.087 +0.01 -0.10    +0.473 P 
DOCKED: ATOM     37  O   UNL d   1       8.149  46.633  20.260 -0.01 +0.03    -0.228 OA
DOCKED: BRANCH  36  38
DOCKED: ATOM     38  O   UNL d   1       8.202  44.558  18.704 -0.08 +0.07    -0.303 OA
DOCKED: ATOM     39  H   UNL d   1       8.177  44.472  17.726 +0.07 -0.08    +0.222 HD
DOCKED: ENDBRANCH  36  38
DOCKED: BRANCH  36  40
DOCKED: ATOM     40  O   UNL d   1      10.372  45.714  19.193 -0.02 +0.06    -0.303 OA
DOCKED: ATOM     41  H   UNL d   1      10.865  46.135  18.453 +0.04 -0.06    +0.222 HD
DOCKED: ENDBRANCH  36  40
DOCKED: ENDBRANCH  35  36
DOCKED: ENDBRANCH   5  35
DOCKED: BRANCH   4  42
DOCKED: ATOM     42  O   UNL d   1       8.712  44.728  15.625 -0.19 +0.26    -0.278 OA
DOCKED: BRANCH  42  43
DOCKED: ATOM     43  P   UNL d   1       9.958  43.751  15.820 -0.23 -0.32    +0.473 P 
DOCKED: ATOM     44  O   UNL d   1       9.865  42.392  15.217 -0.46 +0.13    -0.228 OA
DOCKED: BRANCH  43  45
DOCKED: ATOM     45  O   UNL d   1      11.173  44.623  15.276 +0.10 +0.43    -0.303 OA
DOCKED: ATOM     46  H   UNL d   1      12.034  44.238  15.535 -0.01 -0.37    +0.222 HD
DOCKED: ENDBRANCH  43  45
DOCKED: BRANCH  43  47
DOCKED: ATOM     47  O   UNL d   1      10.210  43.791  17.402 -0.60 +0.09    -0.303 OA
DOCKED: ATOM     48  H   UNL d   1      10.098  44.709  17.724 +0.07 -0.07    +0.222 HD
DOCKED: ENDBRANCH  43  47
DOCKED: ENDBRANCH  42  43
DOCKED: ENDBRANCH   4  42
DOCKED: TORSDOF 24
DOCKED: TER
DOCKED: ENDMDL
________________________________________________________________________________


	BEGINNING GENETIC ALGORITHM DOCKING 98 of 100
Run: 98 Seed: 1366423956 988689249 [ Run 98 of 100 GA/GALS ]
Beginning LAMARCKIAN GENETIC ALGORITHM (LGA), with a maximum of 25000000 energy evaluations.

Final-Value: -14.399


	FINAL GENETIC ALGORITHM DOCKED STATE
	_______________________________________________


Detailed state:  trans 2.596 47.142 -9.426 quatxyzw -0.687448 0.441683 -0.445744 -0.365573 center 0.035 0.082 -0.065 ntor 24 -148.6888 14.1482 148.7528 14.0680 -5.7562 -171.7721 -110.7722 -32.9705 -3.1101 -156.3228 -89.3312 -165.9632 31.9556 32.4847 -178.3737 71.4792 -87.5203 -9.3129 -131.5204 -28.3500 -176.7795 146.1311 -171.3754 147.1380
State:	  2.596  47.142  -9.426  -0.739  0.475 -0.479 -137.114   -148.69   14.15  148.75   14.07   -5.76 -171.77 -110.77  -32.97   -3.11 -156.32  -89.33 -165.96   31.96   32.48 -178.37   71.48  -87.52   -9.31 -131.52  -28.35 -176.78  146.13 -171.38  147.14

DOCKED: MODEL       98
DOCKED: USER    Run = 98
DOCKED: USER    DPF = D:/Protein_go_brrr/autodock/final/6BB5/IHP/dock.dpf
DOCKED: USER  
DOCKED: USER    Estimated Free Energy of Binding    =   +5.99 kcal/mol  [=(1)+(2)+(3)-(4)]
DOCKED: USER    
DOCKED: USER    (1) Final Intermolecular Energy     =   -1.17 kcal/mol
DOCKED: USER        vdW + Hbond + desolv Energy     =   -1.01 kcal/mol
DOCKED: USER        Electrostatic Energy            =   -0.16 kcal/mol
DOCKED: USER    (2) Final Total Internal Energy     =  -13.23 kcal/mol
DOCKED: USER    (3) Torsional Free Energy           =   +7.16 kcal/mol
DOCKED: USER    (4) Unbound System's Energy  [=(2)] =  -13.23 kcal/mol
DOCKED: USER    
DOCKED: USER    
DOCKED: USER    NEWDPF move IHP_ideal_opt.pdbqt
DOCKED: USER    NEWDPF about 0.035000 0.082000 -0.065000
DOCKED: USER    NEWDPF tran0 2.595542 47.142384 -9.425741
DOCKED: USER    NEWDPF quaternion0 -0.687448 0.441683 -0.445744 -0.365573
DOCKED: USER    NEWDPF axisangle0 -0.738570 0.474529 -0.478892 -137.114318
DOCKED: USER    NEWDPF quat0 -0.738570 0.474529 -0.478892 -137.114318
DOCKED: USER    NEWDPF dihe0 -148.69 14.15 148.75 14.07 -5.76 -171.77 -110.77 -32.97 -3.11 -156.32 -89.33 -165.96 31.96 32.48 -178.37 71.48 -87.52 -9.31 -131.52 -28.35 -176.78 146.13 -171.38 147.14 
DOCKED: USER  keepresnum = 1 
DOCKED: USER  
DOCKED: REMARK  24 active torsions:
DOCKED: REMARK  status: ('A' for Active; 'I' for Inactive)
DOCKED: REMARK    1  A    between atoms: C_1  and  O_7 
DOCKED: REMARK    2  A    between atoms: C_2  and  O_12 
DOCKED: REMARK    3  A    between atoms: C_3  and  O_17 
DOCKED: REMARK    4  A    between atoms: C_4  and  O_22 
DOCKED: REMARK    5  A    between atoms: C_5  and  O_27 
DOCKED: REMARK    6  A    between atoms: C_6  and  O_32 
DOCKED: REMARK    7  A    between atoms: O_7  and  P_8 
DOCKED: REMARK    8  A    between atoms: P_8  and  O_10 
DOCKED: REMARK    9  A    between atoms: P_8  and  O_11 
DOCKED: REMARK   10  A    between atoms: O_12  and  P_13 
DOCKED: REMARK   11  A    between atoms: P_13  and  O_15 
DOCKED: REMARK   12  A    between atoms: P_13  and  O_16 
DOCKED: REMARK   13  A    between atoms: O_17  and  P_18 
DOCKED: REMARK   14  A    between atoms: P_18  and  O_20 
DOCKED: REMARK   15  A    between atoms: P_18  and  O_21 
DOCKED: REMARK   16  A    between atoms: O_22  and  P_23 
DOCKED: REMARK   17  A    between atoms: P_23  and  O_25 
DOCKED: REMARK   18  A    between atoms: P_23  and  O_26 
DOCKED: REMARK   19  A    between atoms: O_27  and  P_28 
DOCKED: REMARK   20  A    between atoms: P_28  and  O_30 
DOCKED: REMARK   21  A    between atoms: P_28  and  O_31 
DOCKED: REMARK   22  A    between atoms: O_32  and  P_33 
DOCKED: REMARK   23  A    between atoms: P_33  and  O_35 
DOCKED: REMARK   24  A    between atoms: P_33  and  O_36 
DOCKED: USER                              x       y       z     vdW  Elec       q    Type
DOCKED: USER                           _______ _______ _______ _____ _____    ______ ____
DOCKED: ROOT
DOCKED: ATOM      1  C   UNL d   1       3.852  46.363  -8.532 -0.05 +0.05    +0.194 C 
DOCKED: ATOM      2  C   UNL d   1       3.468  47.763  -8.049 -0.05 +0.06    +0.194 C 
DOCKED: ATOM      3  C   UNL d   1       3.274  48.732  -9.218 -0.01 +0.03    +0.194 C 
DOCKED: ATOM      4  C   UNL d   1       2.315  48.205 -10.283 +0.00 +0.02    +0.194 C 
DOCKED: ATOM      5  C   UNL d   1       2.592  46.770 -10.711 +0.00 +0.02    +0.194 C 
DOCKED: ATOM      6  C   UNL d   1       2.847  45.813  -9.544 -0.01 +0.03    +0.194 C 
DOCKED: ENDROOT
DOCKED: BRANCH   1   7
DOCKED: ATOM      7  O   UNL d   1       3.844  45.485  -7.404 -0.04 -0.10    -0.278 OA
DOCKED: BRANCH   7   8
DOCKED: ATOM      8  P   UNL d   1       2.640  44.445  -7.260 -0.02 +0.12    +0.473 P 
DOCKED: ATOM      9  O   UNL d   1       2.801  43.182  -8.030 -0.01 -0.03    -0.228 OA
DOCKED: BRANCH   8  10
DOCKED: ATOM     10  O   UNL d   1       2.518  44.210  -5.686 -0.04 -0.11    -0.303 OA
DOCKED: ATOM     11  H   UNL d   1       2.430  45.070  -5.233 +0.05 +0.12    +0.222 HD
DOCKED: ENDBRANCH   8  10
DOCKED: BRANCH   8  12
DOCKED: ATOM     12  O   UNL d   1       1.329  45.286  -7.572 -0.00 -0.07    -0.303 OA
DOCKED: ATOM     13  H   UNL d   1       1.405  46.231  -7.310 +0.02 +0.06    +0.222 HD
DOCKED: ENDBRANCH   8  12
DOCKED: ENDBRANCH   7   8
DOCKED: ENDBRANCH   1   7
DOCKED: BRANCH   2  14
DOCKED: ATOM     14  O   UNL d   1       2.240  47.683  -7.314 -0.02 -0.11    -0.278 OA
DOCKED: BRANCH  14  15
DOCKED: ATOM     15  P   UNL d   1       2.355  47.758  -5.719 -0.04 +0.45    +0.473 P 
DOCKED: ATOM     16  O   UNL d   1       2.331  49.124  -5.107 -0.43 -0.34    -0.228 OA
DOCKED: BRANCH  15  17
DOCKED: ATOM     17  O   UNL d   1       1.169  46.829  -5.201 -0.04 -0.19    -0.303 OA
DOCKED: ATOM     18  H   UNL d   1       1.212  45.943  -5.610 +0.03 +0.10    +0.222 HD
DOCKED: ENDBRANCH  15  17
DOCKED: BRANCH  15  19
DOCKED: ATOM     19  O   UNL d   1       3.630  46.873  -5.371 -0.40 -0.39    -0.303 OA
DOCKED: ATOM     20  H   UNL d   1       3.625  46.027  -5.856 +0.05 +0.16    +0.222 HD
DOCKED: ENDBRANCH  15  19
DOCKED: ENDBRANCH  14  15
DOCKED: ENDBRANCH   2  14
DOCKED: BRANCH   6  21
DOCKED: ATOM     21  O   UNL d   1       3.416  44.630 -10.099 -0.01 -0.02    -0.278 OA
DOCKED: BRANCH  21  22
DOCKED: ATOM     22  P   UNL d   1       4.972  44.588 -10.448 -0.00 +0.01    +0.473 P 
DOCKED: ATOM     23  O   UNL d   1       5.414  43.751 -11.601 -0.00 +0.01    -0.228 OA
DOCKED: BRANCH  22  24
DOCKED: ATOM     24  O   UNL d   1       5.318  46.137 -10.577 -0.02 -0.01    -0.303 OA
DOCKED: ATOM     25  H   UNL d   1       4.909  46.475 -11.414 +0.01 +0.01    +0.222 HD
DOCKED: ENDBRANCH  22  24
DOCKED: BRANCH  22  26
DOCKED: ATOM     26  O   UNL d   1       5.616  44.223  -9.026 -0.06 -0.02    -0.303 OA
DOCKED: ATOM     27  H   UNL d   1       4.910  43.911  -8.424 +0.04 +0.03    +0.222 HD
DOCKED: ENDBRANCH  22  26
DOCKED: ENDBRANCH  21  22
DOCKED: ENDBRANCH   6  21
DOCKED: BRANCH   3  28
DOCKED: ATOM     28  O   UNL d   1       2.658  49.906  -8.703 -0.00 -0.06    -0.278 OA
DOCKED: BRANCH  28  29
DOCKED: ATOM     29  P   UNL d   1       1.105  50.168  -8.938 +0.01 +0.07    +0.473 P 
DOCKED: ATOM     30  O   UNL d   1       0.214  49.005  -8.695 +0.00 -0.04    -0.228 OA
DOCKED: BRANCH  29  31
DOCKED: ATOM     31  O   UNL d   1       0.894  51.452  -8.005 +0.00 -0.05    -0.303 OA
DOCKED: ATOM     32  H   UNL d   1       1.142  51.213  -7.082 +0.01 +0.05    +0.222 HD
DOCKED: ENDBRANCH  29  31
DOCKED: BRANCH  29  33
DOCKED: ATOM     33  O   UNL d   1       1.090  50.792 -10.403 +0.00 -0.03    -0.303 OA
DOCKED: ATOM     34  H   UNL d   1       1.882  50.470 -10.898 +0.00 +0.02    +0.222 HD
DOCKED: ENDBRANCH  29  33
DOCKED: ENDBRANCH  28  29
DOCKED: ENDBRANCH   3  28
DOCKED: BRANCH   5  35
DOCKED: ATOM     35  O   UNL d   1       1.405  46.326 -11.366 -0.00 -0.02    -0.278 OA
DOCKED: BRANCH  35  36
DOCKED: ATOM     36  P   UNL d   1      -0.028  46.709 -10.781 +0.00 +0.04    +0.473 P 
DOCKED: ATOM     37  O   UNL d   1      -0.172  46.589  -9.297 +0.00 -0.03    -0.228 OA
DOCKED: BRANCH  36  38
DOCKED: ATOM     38  O   UNL d   1      -0.225  48.187 -11.339 +0.00 -0.02    -0.303 OA
DOCKED: ATOM     39  H   UNL d   1       0.360  48.799 -10.843 +0.00 +0.02    +0.222 HD
DOCKED: ENDBRANCH  36  38
DOCKED: BRANCH  36  40
DOCKED: ATOM     40  O   UNL d   1      -1.006  45.829 -11.674 +0.00 -0.02    -0.303 OA
DOCKED: ATOM     41  H   UNL d   1      -1.893  45.735 -11.260 +0.00 +0.01    +0.222 HD
DOCKED: ENDBRANCH  36  40
DOCKED: ENDBRANCH  35  36
DOCKED: ENDBRANCH   5  35
DOCKED: BRANCH   4  42
DOCKED: ATOM     42  O   UNL d   1       2.488  49.031 -11.440 -0.00 -0.02    -0.278 OA
DOCKED: BRANCH  42  43
DOCKED: ATOM     43  P   UNL d   1       3.946  49.572 -11.791 +0.00 +0.03    +0.473 P 
DOCKED: ATOM     44  O   UNL d   1       5.098  48.665 -11.526 -0.01 -0.01    -0.228 OA
DOCKED: BRANCH  43  45
DOCKED: ATOM     45  O   UNL d   1       3.799  50.008 -13.314 -0.00 -0.01    -0.303 OA
DOCKED: ATOM     46  H   UNL d   1       4.672  50.102 -13.746 +0.00 +0.00    +0.222 HD
DOCKED: ENDBRANCH  43  45
DOCKED: BRANCH  43  47
DOCKED: ATOM     47  O   UNL d   1       3.999  50.992 -11.049 +0.00 -0.02    -0.303 OA
DOCKED: ATOM     48  H   UNL d   1       3.245  51.059 -10.427 +0.00 +0.02    +0.222 HD
DOCKED: ENDBRANCH  43  47
DOCKED: ENDBRANCH  42  43
DOCKED: ENDBRANCH   4  42
DOCKED: TORSDOF 24
DOCKED: TER
DOCKED: ENDMDL
________________________________________________________________________________


	BEGINNING GENETIC ALGORITHM DOCKING 99 of 100
Run: 99 Seed: 1834456052 323149612 [ Run 99 of 100 GA/GALS ]
Beginning LAMARCKIAN GENETIC ALGORITHM (LGA), with a maximum of 25000000 energy evaluations.

Final-Value: -18.066


	FINAL GENETIC ALGORITHM DOCKED STATE
	_______________________________________________


Detailed state:  trans 4.867 38.478 -5.759 quatxyzw -0.764447 0.098344 0.379025 -0.512141 center 0.035 0.082 -0.065 ntor 24 -1.1386 6.0357 36.5790 -42.5024 30.4762 -172.9452 -38.9062 -24.8233 47.3076 0.2022 31.9870 -119.1829 53.8866 -175.1576 -48.8150 171.3064 149.2920 -19.0771 25.4399 -32.5063 -178.8956 -24.0183 -12.7557 142.6470
State:	  4.867  38.478  -5.759  -0.890  0.114  0.441 -118.387     -1.14    6.04   36.58  -42.50   30.48 -172.95  -38.91  -24.82   47.31    0.20   31.99 -119.18   53.89 -175.16  -48.82  171.31  149.29  -19.08   25.44  -32.51 -178.90  -24.02  -12.76  142.65

DOCKED: MODEL       99
DOCKED: USER    Run = 99
DOCKED: USER    DPF = D:/Protein_go_brrr/autodock/final/6BB5/IHP/dock.dpf
DOCKED: USER  
DOCKED: USER    Estimated Free Energy of Binding    =   +3.25 kcal/mol  [=(1)+(2)+(3)-(4)]
DOCKED: USER    
DOCKED: USER    (1) Final Intermolecular Energy     =   -3.91 kcal/mol
DOCKED: USER        vdW + Hbond + desolv Energy     =   -3.51 kcal/mol
DOCKED: USER        Electrostatic Energy            =   -0.40 kcal/mol
DOCKED: USER    (2) Final Total Internal Energy     =  -14.16 kcal/mol
DOCKED: USER    (3) Torsional Free Energy           =   +7.16 kcal/mol
DOCKED: USER    (4) Unbound System's Energy  [=(2)] =  -14.16 kcal/mol
DOCKED: USER    
DOCKED: USER    
DOCKED: USER    NEWDPF move IHP_ideal_opt.pdbqt
DOCKED: USER    NEWDPF about 0.035000 0.082000 -0.065000
DOCKED: USER    NEWDPF tran0 4.867318 38.478074 -5.758988
DOCKED: USER    NEWDPF quaternion0 -0.764447 0.098344 0.379025 -0.512141
DOCKED: USER    NEWDPF axisangle0 -0.890030 0.114500 0.441290 -118.386856
DOCKED: USER    NEWDPF quat0 -0.890030 0.114500 0.441290 -118.386856
DOCKED: USER    NEWDPF dihe0 -1.14 6.04 36.58 -42.50 30.48 -172.95 -38.91 -24.82 47.31 0.20 31.99 -119.18 53.89 -175.16 -48.82 171.31 149.29 -19.08 25.44 -32.51 -178.90 -24.02 -12.76 142.65 
DOCKED: USER  keepresnum = 1 
DOCKED: USER  
DOCKED: REMARK  24 active torsions:
DOCKED: REMARK  status: ('A' for Active; 'I' for Inactive)
DOCKED: REMARK    1  A    between atoms: C_1  and  O_7 
DOCKED: REMARK    2  A    between atoms: C_2  and  O_12 
DOCKED: REMARK    3  A    between atoms: C_3  and  O_17 
DOCKED: REMARK    4  A    between atoms: C_4  and  O_22 
DOCKED: REMARK    5  A    between atoms: C_5  and  O_27 
DOCKED: REMARK    6  A    between atoms: C_6  and  O_32 
DOCKED: REMARK    7  A    between atoms: O_7  and  P_8 
DOCKED: REMARK    8  A    between atoms: P_8  and  O_10 
DOCKED: REMARK    9  A    between atoms: P_8  and  O_11 
DOCKED: REMARK   10  A    between atoms: O_12  and  P_13 
DOCKED: REMARK   11  A    between atoms: P_13  and  O_15 
DOCKED: REMARK   12  A    between atoms: P_13  and  O_16 
DOCKED: REMARK   13  A    between atoms: O_17  and  P_18 
DOCKED: REMARK   14  A    between atoms: P_18  and  O_20 
DOCKED: REMARK   15  A    between atoms: P_18  and  O_21 
DOCKED: REMARK   16  A    between atoms: O_22  and  P_23 
DOCKED: REMARK   17  A    between atoms: P_23  and  O_25 
DOCKED: REMARK   18  A    between atoms: P_23  and  O_26 
DOCKED: REMARK   19  A    between atoms: O_27  and  P_28 
DOCKED: REMARK   20  A    between atoms: P_28  and  O_30 
DOCKED: REMARK   21  A    between atoms: P_28  and  O_31 
DOCKED: REMARK   22  A    between atoms: O_32  and  P_33 
DOCKED: REMARK   23  A    between atoms: P_33  and  O_35 
DOCKED: REMARK   24  A    between atoms: P_33  and  O_36 
DOCKED: USER                              x       y       z     vdW  Elec       q    Type
DOCKED: USER                           _______ _______ _______ _____ _____    ______ ____
DOCKED: ROOT
DOCKED: ATOM      1  C   UNL d   1       5.836  39.859  -6.131 -0.06 +0.00    +0.194 C 
DOCKED: ATOM      2  C   UNL d   1       5.580  39.613  -4.643 -0.09 +0.02    +0.194 C 
DOCKED: ATOM      3  C   UNL d   1       4.124  39.227  -4.375 -0.04 +0.04    +0.194 C 
DOCKED: ATOM      4  C   UNL d   1       3.638  38.069  -5.243 -0.02 +0.03    +0.194 C 
DOCKED: ATOM      5  C   UNL d   1       3.974  38.220  -6.722 -0.02 +0.02    +0.194 C 
DOCKED: ATOM      6  C   UNL d   1       5.414  38.665  -6.988 -0.05 +0.00    +0.194 C 
DOCKED: ENDROOT
DOCKED: BRANCH   1   7
DOCKED: ATOM      7  O   UNL d   1       7.241  40.042  -6.318 -0.09 +0.05    -0.278 OA
DOCKED: BRANCH   7   8
DOCKED: ATOM      8  P   UNL d   1       7.810  41.533  -6.386 -0.19 -0.18    +0.473 P 
DOCKED: ATOM      9  O   UNL d   1       8.541  41.986  -5.171 -0.40 +0.11    -0.228 OA
DOCKED: BRANCH   8  10
DOCKED: ATOM     10  O   UNL d   1       8.713  41.543  -7.702 -0.20 +0.26    -0.303 OA
DOCKED: ATOM     11  H   UNL d   1       9.353  42.277  -7.654 -0.38 -0.39    +0.222 HD
DOCKED: ENDBRANCH   8  10
DOCKED: BRANCH   8  12
DOCKED: ATOM     12  O   UNL d   1       6.573  42.428  -6.826 -0.15 +0.00    -0.303 OA
DOCKED: ATOM     13  H   UNL d   1       6.005  41.995  -7.502 +0.06 -0.00    +0.222 HD
DOCKED: ENDBRANCH   8  12
DOCKED: ENDBRANCH   7   8
DOCKED: ENDBRANCH   1   7
DOCKED: BRANCH   2  14
DOCKED: ATOM     14  O   UNL d   1       6.425  38.546  -4.195 -0.10 -0.01    -0.278 OA
DOCKED: BRANCH  14  15
DOCKED: ATOM     15  P   UNL d   1       7.769  38.968  -3.434 -0.18 -0.02    +0.473 P 
DOCKED: ATOM     16  O   UNL d   1       9.059  38.530  -4.055 -0.34 +0.04    -0.228 OA
DOCKED: BRANCH  15  17
DOCKED: ATOM     17  O   UNL d   1       7.656  40.552  -3.299 -0.28 +0.02    -0.303 OA
DOCKED: ATOM     18  H   UNL d   1       7.582  40.975  -4.175 +0.11 -0.03    +0.222 HD
DOCKED: ENDBRANCH  15  17
DOCKED: BRANCH  15  19
DOCKED: ATOM     19  O   UNL d   1       7.538  38.502  -1.931 -0.14 -0.00    -0.303 OA
DOCKED: ATOM     20  H   UNL d   1       7.304  39.251  -1.353 +0.10 -0.01    +0.222 HD
DOCKED: ENDBRANCH  15  19
DOCKED: ENDBRANCH  14  15
DOCKED: ENDBRANCH   2  14
DOCKED: BRANCH   6  21
DOCKED: ATOM     21  O   UNL d   1       5.470  39.086  -8.349 -0.02 +0.00    -0.278 OA
DOCKED: BRANCH  21  22
DOCKED: ATOM     22  P   UNL d   1       4.917  40.526  -8.756 +0.01 +0.00    +0.473 P 
DOCKED: ATOM     23  O   UNL d   1       3.989  41.217  -7.814 -0.01 -0.02    -0.228 OA
DOCKED: BRANCH  22  24
DOCKED: ATOM     24  O   UNL d   1       6.264  41.316  -9.065 -0.01 +0.03    -0.303 OA
DOCKED: ATOM     25  H   UNL d   1       6.958  41.001  -8.432 +0.06 -0.05    +0.222 HD
DOCKED: ENDBRANCH  22  24
DOCKED: BRANCH  22  26
DOCKED: ATOM     26  O   UNL d   1       4.349  40.252 -10.230 +0.00 -0.01    -0.303 OA
DOCKED: ATOM     27  H   UNL d   1       4.302  39.286 -10.382 +0.01 +0.01    +0.222 HD
DOCKED: ENDBRANCH  22  26
DOCKED: ENDBRANCH  21  22
DOCKED: ENDBRANCH   6  21
DOCKED: BRANCH   3  28
DOCKED: ATOM     28  O   UNL d   1       4.046  38.753  -3.036 -0.07 -0.09    -0.278 OA
DOCKED: BRANCH  28  29
DOCKED: ATOM     29  P   UNL d   1       3.824  39.773  -1.833 -0.13 +0.29    +0.473 P 
DOCKED: ATOM     30  O   UNL d   1       3.001  39.265  -0.706 -0.69 -0.36    -0.228 OA
DOCKED: BRANCH  29  31
DOCKED: ATOM     31  O   UNL d   1       5.344  40.155  -1.508 -0.20 -0.09    -0.303 OA
DOCKED: ATOM     32  H   UNL d   1       5.914  39.832  -2.244 +0.09 +0.04    +0.222 HD
DOCKED: ENDBRANCH  29  31
DOCKED: BRANCH  29  33
DOCKED: ATOM     33  O   UNL d   1       3.290  41.069  -2.588 -0.07 -0.15    -0.303 OA
DOCKED: ATOM     34  H   UNL d   1       2.742  40.788  -3.361 +0.05 +0.09    +0.222 HD
DOCKED: ENDBRANCH  29  33
DOCKED: ENDBRANCH  28  29
DOCKED: ENDBRANCH   3  28
DOCKED: BRANCH   5  35
DOCKED: ATOM     35  O   UNL d   1       3.826  36.918  -7.286 -0.04 -0.02    -0.278 OA
DOCKED: BRANCH  35  36
DOCKED: ATOM     36  P   UNL d   1       2.739  36.653  -8.423 -0.02 +0.04    +0.473 P 
DOCKED: ATOM     37  O   UNL d   1       2.449  35.215  -8.714 -0.04 -0.03    -0.228 OA
DOCKED: BRANCH  36  38
DOCKED: ATOM     38  O   UNL d   1       1.490  37.476  -7.877 -0.00 -0.03    -0.303 OA
DOCKED: ATOM     39  H   UNL d   1       1.579  37.589  -6.906 +0.01 +0.03    +0.222 HD
DOCKED: ENDBRANCH  36  38
DOCKED: BRANCH  36  40
DOCKED: ATOM     40  O   UNL d   1       3.284  37.538  -9.627 -0.01 -0.02    -0.303 OA
DOCKED: ATOM     41  H   UNL d   1       3.614  38.410  -9.317 +0.01 +0.01    +0.222 HD
DOCKED: ENDBRANCH  36  40
DOCKED: ENDBRANCH  35  36
DOCKED: ENDBRANCH   5  35
DOCKED: BRANCH   4  42
DOCKED: ATOM     42  O   UNL d   1       2.211  38.041  -5.137 -0.00 -0.05    -0.278 OA
DOCKED: BRANCH  42  43
DOCKED: ATOM     43  P   UNL d   1       1.427  39.413  -4.917 +0.02 +0.11    +0.473 P 
DOCKED: ATOM     44  O   UNL d   1       2.068  40.659  -5.420 -0.00 -0.05    -0.228 OA
DOCKED: BRANCH  43  45
DOCKED: ATOM     45  O   UNL d   1       0.003  39.108  -5.560 +0.00 -0.06    -0.303 OA
DOCKED: ATOM     46  H   UNL d   1       0.088  38.602  -6.393 +0.00 +0.03    +0.222 HD
DOCKED: ENDBRANCH  43  45
DOCKED: BRANCH  43  47
DOCKED: ATOM     47  O   UNL d   1       1.087  39.394  -3.351 -0.01 -0.14    -0.303 OA
DOCKED: ATOM     48  H   UNL d   1       1.922  39.348  -2.840 +0.04 +0.13    +0.222 HD
DOCKED: ENDBRANCH  43  47
DOCKED: ENDBRANCH  42  43
DOCKED: ENDBRANCH   4  42
DOCKED: TORSDOF 24
DOCKED: TER
DOCKED: ENDMDL
________________________________________________________________________________


	BEGINNING GENETIC ALGORITHM DOCKING 100 of 100
Run: 100 Seed: 1943531327 1484644177 [ Run 100 of 100 GA/GALS ]
Beginning LAMARCKIAN GENETIC ALGORITHM (LGA), with a maximum of 25000000 energy evaluations.

Final-Value: -17.269


	FINAL GENETIC ALGORITHM DOCKED STATE
	_______________________________________________


Detailed state:  trans 37.480 50.124 1.632 quatxyzw -0.711824 -0.328958 -0.602322 -0.149335 center 0.035 0.082 -0.065 ntor 24 115.6456 180.0000 87.0527 -105.1180 102.7562 -92.6917 -16.8635 -93.8789 89.9583 93.2674 41.9488 -134.7154 128.4788 -133.5963 111.9873 -43.2857 110.7703 135.0152 -7.7503 -8.3961 5.8669 3.6093 -8.3789 -4.4394
State:	 37.480  50.124   1.632  -0.720 -0.333 -0.609 -162.823    115.65  180.00   87.05 -105.12  102.76  -92.69  -16.86  -93.88   89.96   93.27   41.95 -134.72  128.48 -133.60  111.99  -43.29  110.77  135.02   -7.75   -8.40    5.87    3.61   -8.38   -4.44

DOCKED: MODEL      100
DOCKED: USER    Run = 100
DOCKED: USER    DPF = D:/Protein_go_brrr/autodock/final/6BB5/IHP/dock.dpf
DOCKED: USER  
DOCKED: USER    Estimated Free Energy of Binding    =   +3.14 kcal/mol  [=(1)+(2)+(3)-(4)]
DOCKED: USER    
DOCKED: USER    (1) Final Intermolecular Energy     =   -4.02 kcal/mol
DOCKED: USER        vdW + Hbond + desolv Energy     =   -3.89 kcal/mol
DOCKED: USER        Electrostatic Energy            =   -0.13 kcal/mol
DOCKED: USER    (2) Final Total Internal Energy     =  -13.25 kcal/mol
DOCKED: USER    (3) Torsional Free Energy           =   +7.16 kcal/mol
DOCKED: USER    (4) Unbound System's Energy  [=(2)] =  -13.25 kcal/mol
DOCKED: USER    
DOCKED: USER    
DOCKED: USER    NEWDPF move IHP_ideal_opt.pdbqt
DOCKED: USER    NEWDPF about 0.035000 0.082000 -0.065000
DOCKED: USER    NEWDPF tran0 37.480398 50.123607 1.632315
DOCKED: USER    NEWDPF quaternion0 -0.711824 -0.328958 -0.602322 -0.149335
DOCKED: USER    NEWDPF axisangle0 -0.719896 -0.332689 -0.609153 -162.823172
DOCKED: USER    NEWDPF quat0 -0.719896 -0.332689 -0.609153 -162.823172
DOCKED: USER    NEWDPF dihe0 115.65 180.00 87.05 -105.12 102.76 -92.69 -16.86 -93.88 89.96 93.27 41.95 -134.72 128.48 -133.60 111.99 -43.29 110.77 135.02 -7.75 -8.40 5.87 3.61 -8.38 -4.44 
DOCKED: USER  keepresnum = 1 
DOCKED: USER  
DOCKED: REMARK  24 active torsions:
DOCKED: REMARK  status: ('A' for Active; 'I' for Inactive)
DOCKED: REMARK    1  A    between atoms: C_1  and  O_7 
DOCKED: REMARK    2  A    between atoms: C_2  and  O_12 
DOCKED: REMARK    3  A    between atoms: C_3  and  O_17 
DOCKED: REMARK    4  A    between atoms: C_4  and  O_22 
DOCKED: REMARK    5  A    between atoms: C_5  and  O_27 
DOCKED: REMARK    6  A    between atoms: C_6  and  O_32 
DOCKED: REMARK    7  A    between atoms: O_7  and  P_8 
DOCKED: REMARK    8  A    between atoms: P_8  and  O_10 
DOCKED: REMARK    9  A    between atoms: P_8  and  O_11 
DOCKED: REMARK   10  A    between atoms: O_12  and  P_13 
DOCKED: REMARK   11  A    between atoms: P_13  and  O_15 
DOCKED: REMARK   12  A    between atoms: P_13  and  O_16 
DOCKED: REMARK   13  A    between atoms: O_17  and  P_18 
DOCKED: REMARK   14  A    between atoms: P_18  and  O_20 
DOCKED: REMARK   15  A    between atoms: P_18  and  O_21 
DOCKED: REMARK   16  A    between atoms: O_22  and  P_23 
DOCKED: REMARK   17  A    between atoms: P_23  and  O_25 
DOCKED: REMARK   18  A    between atoms: P_23  and  O_26 
DOCKED: REMARK   19  A    between atoms: O_27  and  P_28 
DOCKED: REMARK   20  A    between atoms: P_28  and  O_30 
DOCKED: REMARK   21  A    between atoms: P_28  and  O_31 
DOCKED: REMARK   22  A    between atoms: O_32  and  P_33 
DOCKED: REMARK   23  A    between atoms: P_33  and  O_35 
DOCKED: REMARK   24  A    between atoms: P_33  and  O_36 
DOCKED: USER                              x       y       z     vdW  Elec       q    Type
DOCKED: USER                           _______ _______ _______ _____ _____    ______ ____
DOCKED: ROOT
DOCKED: ATOM      1  C   UNL d   1      37.578  51.623   2.485 -0.09 +0.08    +0.194 C 
DOCKED: ATOM      2  C   UNL d   1      36.704  51.632   1.229 -0.05 +0.07    +0.194 C 
DOCKED: ATOM      3  C   UNL d   1      37.369  50.885   0.071 -0.00 +0.05    +0.194 C 
DOCKED: ATOM      4  C   UNL d   1      37.825  49.478   0.446 -0.01 +0.07    +0.194 C 
DOCKED: ATOM      5  C   UNL d   1      38.603  49.405   1.754 -0.03 +0.08    +0.194 C 
DOCKED: ATOM      6  C   UNL d   1      37.970  50.203   2.896 -0.12 +0.11    +0.194 C 
DOCKED: ENDROOT
DOCKED: BRANCH   1   7
DOCKED: ATOM      7  O   UNL d   1      36.820  52.183   3.560 -0.17 -0.14    -0.278 OA
DOCKED: BRANCH   7   8
DOCKED: ATOM      8  P   UNL d   1      37.491  53.334   4.442 -0.13 +0.38    +0.473 P 
DOCKED: ATOM      9  O   UNL d   1      36.639  53.863   5.542 -0.58 -0.27    -0.228 OA
DOCKED: BRANCH   8  10
DOCKED: ATOM     10  O   UNL d   1      38.851  52.680   4.960 -0.24 -0.32    -0.303 OA
DOCKED: ATOM     11  H   UNL d   1      38.688  51.758   5.234 +0.06 +0.25    +0.222 HD
DOCKED: ENDBRANCH   8  10
DOCKED: BRANCH   8  12
DOCKED: ATOM     12  O   UNL d   1      38.015  54.406   3.394 -0.05 -0.11    -0.303 OA
DOCKED: ATOM     13  H   UNL d   1      37.799  55.331   3.648 +0.04 +0.08    +0.222 HD
DOCKED: ENDBRANCH   8  12
DOCKED: ENDBRANCH   7   8
DOCKED: ENDBRANCH   1   7
DOCKED: BRANCH   2  14
DOCKED: ATOM     14  O   UNL d   1      35.455  50.997   1.525 -0.11 -0.15    -0.278 OA
DOCKED: BRANCH  14  15
DOCKED: ATOM     15  P   UNL d   1      34.132  51.861   1.265 -0.10 +0.18    +0.473 P 
DOCKED: ATOM     16  O   UNL d   1      33.790  52.892   2.294 -0.20 -0.09    -0.228 OA
DOCKED: BRANCH  15  17
DOCKED: ATOM     17  O   UNL d   1      34.357  52.486  -0.184 -0.01 -0.06    -0.303 OA
DOCKED: ATOM     18  H   UNL d   1      35.265  52.321  -0.501 +0.02 +0.04    +0.222 HD
DOCKED: ENDBRANCH  15  17
DOCKED: BRANCH  15  19
DOCKED: ATOM     19  O   UNL d   1      33.002  50.780   0.975 -0.09 -0.12    -0.303 OA
DOCKED: ATOM     20  H   UNL d   1      32.211  51.185   0.572 +0.04 +0.06    +0.222 HD
DOCKED: ENDBRANCH  15  19
DOCKED: ENDBRANCH  14  15
DOCKED: ENDBRANCH   2  14
DOCKED: BRANCH   6  21
DOCKED: ATOM     21  O   UNL d   1      38.961  50.321   3.914 -0.11 -0.12    -0.278 OA
DOCKED: BRANCH  21  22
DOCKED: ATOM     22  P   UNL d   1      38.964  49.298   5.138 -0.22 +0.19    +0.473 P 
DOCKED: ATOM     23  O   UNL d   1      40.280  48.832   5.664 -0.30 +0.03    -0.228 OA
DOCKED: BRANCH  22  24
DOCKED: ATOM     24  O   UNL d   1      38.053  50.057   6.200 -0.40 -0.25    -0.303 OA
DOCKED: ATOM     25  H   UNL d   1      37.329  50.522   5.708 -0.45 +0.20    +0.222 HD
DOCKED: ENDBRANCH  22  24
DOCKED: BRANCH  22  26
DOCKED: ATOM     26  O   UNL d   1      37.973  48.154   4.609 -0.70 -0.38    -0.303 OA
DOCKED: ATOM     27  H   UNL d   1      38.496  47.452   4.172 +0.08 +0.19    +0.222 HD
DOCKED: ENDBRANCH  22  26
DOCKED: ENDBRANCH  21  22
DOCKED: ENDBRANCH   6  21
DOCKED: BRANCH   3  28
DOCKED: ATOM     28  O   UNL d   1      36.388  50.707  -0.942 +0.00 -0.06    -0.278 OA
DOCKED: BRANCH  28  29
DOCKED: ATOM     29  P   UNL d   1      36.545  51.432  -2.351 +0.01 +0.06    +0.473 P 
DOCKED: ATOM     30  O   UNL d   1      36.382  52.909  -2.333 +0.00 -0.02    -0.228 OA
DOCKED: BRANCH  29  31
DOCKED: ATOM     31  O   UNL d   1      37.972  50.865  -2.800 +0.00 -0.03    -0.303 OA
DOCKED: ATOM     32  H   UNL d   1      38.058  49.938  -2.476 +0.00 +0.03    +0.222 HD
DOCKED: ENDBRANCH  29  31
DOCKED: BRANCH  29  33
DOCKED: ATOM     33  O   UNL d   1      35.535  50.608  -3.266 +0.00 -0.03    -0.303 OA
DOCKED: ATOM     34  H   UNL d   1      35.542  49.662  -2.980 +0.00 +0.03    +0.222 HD
DOCKED: ENDBRANCH  29  33
DOCKED: ENDBRANCH  28  29
DOCKED: ENDBRANCH   3  28
DOCKED: BRANCH   5  35
DOCKED: ATOM     35  O   UNL d   1      38.584  48.032   2.140 -0.05 -0.16    -0.278 OA
DOCKED: BRANCH  35  36
DOCKED: ATOM     36  P   UNL d   1      39.951  47.240   2.361 +0.01 +0.12    +0.473 P 
DOCKED: ATOM     37  O   UNL d   1      39.872  46.063   3.281 -0.05 -0.06    -0.228 OA
DOCKED: BRANCH  36  38
DOCKED: ATOM     38  O   UNL d   1      40.361  46.875   0.866 +0.00 -0.05    -0.303 OA
DOCKED: ATOM     39  H   UNL d   1      39.888  47.473   0.248 +0.01 +0.04    +0.222 HD
DOCKED: ENDBRANCH  36  38
DOCKED: BRANCH  36  40
DOCKED: ATOM     40  O   UNL d   1      40.958  48.404   2.761 -0.01 -0.03    -0.303 OA
DOCKED: ATOM     41  H   UNL d   1      40.604  48.955   3.494 +0.06 +0.03    +0.222 HD
DOCKED: ENDBRANCH  36  40
DOCKED: ENDBRANCH  35  36
DOCKED: ENDBRANCH   5  35
DOCKED: BRANCH   4  42
DOCKED: ATOM     42  O   UNL d   1      38.706  49.037  -0.593 +0.00 -0.06    -0.278 OA
DOCKED: BRANCH  42  43
DOCKED: ATOM     43  P   UNL d   1      38.276  47.791  -1.491 +0.01 +0.09    +0.473 P 
DOCKED: ATOM     44  O   UNL d   1      39.225  47.349  -2.551 +0.00 -0.02    -0.228 OA
DOCKED: BRANCH  43  45
DOCKED: ATOM     45  O   UNL d   1      37.947  46.675  -0.406 +0.00 -0.09    -0.303 OA
DOCKED: ATOM     46  H   UNL d   1      38.500  46.780   0.395 +0.01 +0.07    +0.222 HD
DOCKED: ENDBRANCH  43  45
DOCKED: BRANCH  43  47
DOCKED: ATOM     47  O   UNL d   1      36.810  48.194  -1.999 +0.00 -0.06    -0.303 OA
DOCKED: ATOM     48  H   UNL d   1      36.814  49.130  -2.285 +0.00 +0.04    +0.222 HD
DOCKED: ENDBRANCH  43  47
DOCKED: ENDBRANCH  42  43
DOCKED: ENDBRANCH   4  42
DOCKED: TORSDOF 24
DOCKED: TER
DOCKED: ENDMDL
________________________________________________________________________________

DPF> analysis                             # perform a ranked cluster analysis


		CLUSTER ANALYSIS OF CONFORMATIONS
		_________________________________

Number of conformations = 100

RMSD cluster analysis will be performed using the ligand atoms only (48 / 48 total atoms).

Outputting structurally similar clusters, ranked in order of increasing energy.


________________________________________________________________________________

Number of distinct conformational clusters found = 98,  out of 100 runs,
Using an rmsd-tolerance of 2.0 A


	CLUSTERING HISTOGRAM
	____________________

________________________________________________________________________________
     |           |     |           |     |                                    
Clus | Lowest    | Run | Mean      | Num | Histogram                          
-ter | Binding   |     | Binding   | in  |                                    
Rank | Energy    |     | Energy    | Clus|    5    10   15   20   25   30   35
_____|___________|_____|___________|_____|____:____|____:____|____:____|____:___
   1 |     +0.93 |  96 |     +0.93 |   1 |#
   2 |     +1.97 |  27 |     +1.97 |   1 |#
   3 |     +2.02 |  36 |     +2.02 |   1 |#
   4 |     +2.11 |  76 |     +2.11 |   1 |#
   5 |     +2.17 |  10 |     +2.17 |   1 |#
   6 |     +2.19 |  31 |     +2.19 |   1 |#
   7 |     +2.20 |  75 |     +2.20 |   1 |#
   8 |     +2.46 |  41 |     +2.46 |   1 |#
   9 |     +2.58 |  88 |     +2.58 |   1 |#
  10 |     +2.62 |  26 |     +2.62 |   1 |#
  11 |     +2.69 |  82 |     +2.69 |   1 |#
  12 |     +2.69 |  67 |     +2.69 |   1 |#
  13 |     +2.73 |  50 |     +2.73 |   1 |#
  14 |     +2.74 |  92 |     +2.74 |   1 |#
  15 |     +2.74 |  35 |     +3.19 |   2 |##
  16 |     +2.78 |  51 |     +2.78 |   1 |#
  17 |     +2.83 |  18 |     +2.83 |   1 |#
  18 |     +2.91 |  28 |     +2.91 |   1 |#
  19 |     +3.05 |  15 |     +3.05 |   1 |#
  20 |     +3.10 |   4 |     +3.10 |   1 |#
  21 |     +3.10 |  97 |     +3.10 |   1 |#
  22 |     +3.11 |  60 |     +3.11 |   1 |#
  23 |     +3.11 |   8 |     +3.11 |   1 |#
  24 |     +3.13 |  13 |     +3.13 |   1 |#
  25 |     +3.14 | 100 |     +3.14 |   1 |#
  26 |     +3.23 |  20 |     +3.23 |   1 |#
  27 |     +3.25 |  99 |     +3.25 |   1 |#
  28 |     +3.27 |  56 |     +3.27 |   1 |#
  29 |     +3.29 |  38 |     +3.29 |   1 |#
  30 |     +3.30 |  91 |     +3.30 |   1 |#
  31 |     +3.36 |   2 |     +3.36 |   1 |#
  32 |     +3.38 |  66 |     +3.38 |   1 |#
  33 |     +3.43 |  49 |     +3.43 |   1 |#
  34 |     +3.44 |  63 |     +3.44 |   1 |#
  35 |     +3.46 |  59 |     +3.46 |   1 |#
  36 |     +3.56 |  90 |     +3.56 |   1 |#
  37 |     +3.60 |   7 |     +3.60 |   1 |#
  38 |     +3.62 |  19 |     +3.62 |   1 |#
  39 |     +3.73 |  30 |     +3.73 |   1 |#
  40 |     +3.76 |  40 |     +3.76 |   1 |#
  41 |     +3.76 |  84 |     +3.76 |   1 |#
  42 |     +3.77 |  32 |     +3.77 |   1 |#
  43 |     +3.79 |  70 |     +3.79 |   1 |#
  44 |     +3.89 |  73 |     +3.89 |   1 |#
  45 |     +3.92 |  24 |     +3.92 |   1 |#
  46 |     +3.99 |  21 |     +3.99 |   1 |#
  47 |     +4.06 |  44 |     +4.06 |   1 |#
  48 |     +4.07 |  23 |     +4.07 |   1 |#
  49 |     +4.09 |  78 |     +4.09 |   1 |#
  50 |     +4.10 |  52 |     +4.10 |   1 |#
  51 |     +4.14 |   6 |     +4.14 |   1 |#
  52 |     +4.17 |  77 |     +4.17 |   1 |#
  53 |     +4.22 |  12 |     +4.22 |   1 |#
  54 |     +4.22 |  95 |     +4.22 |   1 |#
  55 |     +4.23 |  39 |     +4.23 |   1 |#
  56 |     +4.23 |  85 |     +4.23 |   1 |#
  57 |     +4.23 |  37 |     +4.23 |   1 |#
  58 |     +4.27 |  89 |     +4.27 |   1 |#
  59 |     +4.32 |  81 |     +4.32 |   1 |#
  60 |     +4.32 |  65 |     +4.32 |   1 |#
  61 |     +4.38 |  47 |     +4.38 |   1 |#
  62 |     +4.39 |  61 |     +4.80 |   2 |##
  63 |     +4.39 |  33 |     +4.39 |   1 |#
  64 |     +4.41 |  46 |     +4.41 |   1 |#
  65 |     +4.54 |  58 |     +4.54 |   1 |#
  66 |     +4.63 |  68 |     +4.63 |   1 |#
  67 |     +4.64 |  94 |     +4.64 |   1 |#
  68 |     +4.66 |  71 |     +4.66 |   1 |#
  69 |     +4.67 |  53 |     +4.67 |   1 |#
  70 |     +4.69 |  16 |     +4.69 |   1 |#
  71 |     +4.78 |  86 |     +4.78 |   1 |#
  72 |     +4.78 |  74 |     +4.78 |   1 |#
  73 |     +4.79 |  43 |     +4.79 |   1 |#
  74 |     +4.79 |  54 |     +4.79 |   1 |#
  75 |     +4.87 |  22 |     +4.87 |   1 |#
  76 |     +4.89 |  48 |     +4.89 |   1 |#
  77 |     +4.97 |   9 |     +4.97 |   1 |#
  78 |     +4.98 |  14 |     +4.98 |   1 |#
  79 |     +5.01 |  69 |     +5.01 |   1 |#
  80 |     +5.03 |  57 |     +5.03 |   1 |#
  81 |     +5.15 |  83 |     +5.15 |   1 |#
  82 |     +5.19 |  62 |     +5.19 |   1 |#
  83 |     +5.22 |  64 |     +5.22 |   1 |#
  84 |     +5.23 |  87 |     +5.23 |   1 |#
  85 |     +5.25 |   3 |     +5.25 |   1 |#
  86 |     +5.33 |   1 |     +5.33 |   1 |#
  87 |     +5.34 |   5 |     +5.34 |   1 |#
  88 |     +5.36 |  11 |     +5.36 |   1 |#
  89 |     +5.38 |  55 |     +5.38 |   1 |#
  90 |     +5.40 |  79 |     +5.40 |   1 |#
  91 |     +5.42 |  72 |     +5.42 |   1 |#
  92 |     +5.45 |  17 |     +5.45 |   1 |#
  93 |     +5.54 |  42 |     +5.54 |   1 |#
  94 |     +5.68 |  93 |     +5.68 |   1 |#
  95 |     +5.78 |  25 |     +5.78 |   1 |#
  96 |     +5.94 |  45 |     +5.94 |   1 |#
  97 |     +5.96 |  29 |     +5.96 |   1 |#
  98 |     +5.99 |  98 |     +5.99 |   1 |#
_____|___________|_____|___________|_____|______________________________________


Number of multi-member conformational clusters found = 2, out of 100 runs.

	RMSD TABLE
	__________

_____________________________________________________________________
     |      |      |           |         |                 |
Rank | Sub- | Run  | Binding   | Cluster | Reference       | Grep
     | Rank |      | Energy    | RMSD    | RMSD            | Pattern
_____|______|______|___________|_________|_________________|___________
   1      1     96       +0.93      0.00     56.99           RANKING
   2      1     27       +1.97      0.00     52.15           RANKING
   3      1     36       +2.02      0.00     47.74           RANKING
   4      1     76       +2.11      0.00     38.23           RANKING
   5      1     10       +2.17      0.00     45.54           RANKING
   6      1     31       +2.19      0.00     15.39           RANKING
   7      1     75       +2.20      0.00     65.96           RANKING
   8      1     41       +2.46      0.00     49.31           RANKING
   9      1     88       +2.58      0.00     36.94           RANKING
  10      1     26       +2.62      0.00     47.98           RANKING
  11      1     82       +2.69      0.00     25.36           RANKING
  12      1     67       +2.69      0.00     44.33           RANKING
  13      1     50       +2.73      0.00     30.13           RANKING
  14      1     92       +2.74      0.00     17.71           RANKING
  15      1     35       +2.74      0.00     53.56           RANKING
  15      2     80       +3.64      2.00     52.41           RANKING
  16      1     51       +2.78      0.00     50.51           RANKING
  17      1     18       +2.83      0.00     39.21           RANKING
  18      1     28       +2.91      0.00     58.97           RANKING
  19      1     15       +3.05      0.00     44.86           RANKING
  20      1      4       +3.10      0.00     15.93           RANKING
  21      1     97       +3.10      0.00     46.47           RANKING
  22      1     60       +3.11      0.00     40.65           RANKING
  23      1      8       +3.11      0.00     47.35           RANKING
  24      1     13       +3.13      0.00     59.40           RANKING
  25      1    100       +3.14      0.00     58.50           RANKING
  26      1     20       +3.23      0.00     48.37           RANKING
  27      1     99       +3.25      0.00     36.17           RANKING
  28      1     56       +3.27      0.00     32.02           RANKING
  29      1     38       +3.29      0.00     35.95           RANKING
  30      1     91       +3.30      0.00     45.41           RANKING
  31      1      2       +3.36      0.00     29.55           RANKING
  32      1     66       +3.38      0.00     38.16           RANKING
  33      1     49       +3.43      0.00     61.59           RANKING
  34      1     63       +3.44      0.00     45.24           RANKING
  35      1     59       +3.46      0.00     28.14           RANKING
  36      1     90       +3.56      0.00     46.73           RANKING
  37      1      7       +3.60      0.00     46.86           RANKING
  38      1     19       +3.62      0.00     63.53           RANKING
  39      1     30       +3.73      0.00     38.70           RANKING
  40      1     40       +3.76      0.00     49.02           RANKING
  41      1     84       +3.76      0.00     63.08           RANKING
  42      1     32       +3.77      0.00     39.50           RANKING
  43      1     70       +3.79      0.00     66.73           RANKING
  44      1     73       +3.89      0.00     47.85           RANKING
  45      1     24       +3.92      0.00     57.45           RANKING
  46      1     21       +3.99      0.00     60.96           RANKING
  47      1     44       +4.06      0.00     56.48           RANKING
  48      1     23       +4.07      0.00     15.02           RANKING
  49      1     78       +4.09      0.00     26.16           RANKING
  50      1     52       +4.10      0.00     51.60           RANKING
  51      1      6       +4.14      0.00     43.32           RANKING
  52      1     77       +4.17      0.00     27.73           RANKING
  53      1     12       +4.22      0.00     40.83           RANKING
  54      1     95       +4.22      0.00     57.36           RANKING
  55      1     39       +4.23      0.00     26.58           RANKING
  56      1     85       +4.23      0.00     61.20           RANKING
  57      1     37       +4.23      0.00     58.85           RANKING
  58      1     89       +4.27      0.00     57.07           RANKING
  59      1     81       +4.32      0.00     62.28           RANKING
  60      1     65       +4.32      0.00     47.49           RANKING
  61      1     47       +4.38      0.00     47.28           RANKING
  62      1     61       +4.39      0.00     47.95           RANKING
  62      2     34       +5.20      1.75     48.71           RANKING
  63      1     33       +4.39      0.00     44.85           RANKING
  64      1     46       +4.41      0.00     47.99           RANKING
  65      1     58       +4.54      0.00     28.55           RANKING
  66      1     68       +4.63      0.00     56.86           RANKING
  67      1     94       +4.64      0.00     12.02           RANKING
  68      1     71       +4.66      0.00     58.49           RANKING
  69      1     53       +4.67      0.00     60.55           RANKING
  70      1     16       +4.69      0.00     64.27           RANKING
  71      1     86       +4.78      0.00     55.06           RANKING
  72      1     74       +4.78      0.00     40.02           RANKING
  73      1     43       +4.79      0.00     30.20           RANKING
  74      1     54       +4.79      0.00     63.05           RANKING
  75      1     22       +4.87      0.00     49.62           RANKING
  76      1     48       +4.89      0.00     11.10           RANKING
  77      1      9       +4.97      0.00     49.39           RANKING
  78      1     14       +4.98      0.00     64.42           RANKING
  79      1     69       +5.01      0.00     16.56           RANKING
  80      1     57       +5.03      0.00     47.96           RANKING
  81      1     83       +5.15      0.00     61.90           RANKING
  82      1     62       +5.19      0.00     30.48           RANKING
  83      1     64       +5.22      0.00     16.63           RANKING
  84      1     87       +5.23      0.00     37.47           RANKING
  85      1      3       +5.25      0.00     65.22           RANKING
  86      1      1       +5.33      0.00     50.44           RANKING
  87      1      5       +5.34      0.00     20.43           RANKING
  88      1     11       +5.36      0.00     29.07           RANKING
  89      1     55       +5.38      0.00     18.84           RANKING
  90      1     79       +5.40      0.00     23.47           RANKING
  91      1     72       +5.42      0.00     66.36           RANKING
  92      1     17       +5.45      0.00     22.77           RANKING
  93      1     42       +5.54      0.00     56.39           RANKING
  94      1     93       +5.68      0.00     45.06           RANKING
  95      1     25       +5.78      0.00     25.50           RANKING
  96      1     45       +5.94      0.00     63.45           RANKING
  97      1     29       +5.96      0.00     60.81           RANKING
  98      1     98       +5.99      0.00     44.16           RANKING
_______________________________________________________________________



	INFORMATION ENTROPY ANALYSIS FOR THIS CLUSTERING
	________________________________________________


Information entropy for this clustering = 0.99  (rmstol = 2.00 Angstrom)

_______________________________________________________________________


	STATISTICAL MECHANICAL ANALYSIS
	_______________________________


Partition function, Q =    99.33            at Temperature, T = 298.15 K
Free energy,        A ~ -2724.47 kcal/mol   at Temperature, T = 298.15 K
Internal energy,    U =     4.00 kcal/mol   at Temperature, T = 298.15 K
Entropy,            S =     9.15 kcal/mol/K at Temperature, T = 298.15 K

_______________________________________________________________________


	LOWEST ENERGY DOCKED CONFORMATION from EACH CLUSTER
	___________________________________________________



Keeping original residue number (specified in the input PDBQ file) for outputting.

MODEL       96
USER    Run = 96
USER    Cluster Rank = 1
USER    Number of conformations in this cluster = 1
USER  
USER    RMSD from reference structure       = 56.990 A
USER  
USER    Estimated Free Energy of Binding    =   +0.93 kcal/mol  [=(1)+(2)+(3)-(4)]
USER    
USER    (1) Final Intermolecular Energy     =   -6.23 kcal/mol
USER        vdW + Hbond + desolv Energy     =   -5.67 kcal/mol
USER        Electrostatic Energy            =   -0.55 kcal/mol
USER    (2) Final Total Internal Energy     =  -12.68 kcal/mol
USER    (3) Torsional Free Energy           =   +7.16 kcal/mol
USER    (4) Unbound System's Energy  [=(2)] =  -12.68 kcal/mol
USER    
USER    
USER  
USER    DPF = D:/Protein_go_brrr/autodock/final/6BB5/IHP/dock.dpf
USER    NEWDPF move	IHP_ideal_opt.pdbqt
USER    NEWDPF about	0.035000 0.082000 -0.065000
USER    NEWDPF tran0	39.642177 46.187615 3.014751
USER    NEWDPF axisangle0	-0.672019 0.174989 -0.719562 162.487038
USER    NEWDPF quaternion0	-0.664186 0.172949 -0.711175 0.152235
USER    NEWDPF dihe0	156.77 62.44 168.41 3.15 -7.00 -164.57 -11.00 -143.12 -36.54 87.21 29.75 -124.41 -89.09 175.68 178.22 106.77 -4.62 -62.75 -143.68 14.92 -175.11 2.24 -19.63 171.87 
USER  
USER                              x       y       z    vdW   Elec        q     RMS 
ATOM      1  C   UNL d   1      40.655  46.610   4.349 -0.16 +0.02    +0.194    56.990
ATOM      2  C   UNL d   1      40.773  47.511   3.118 -0.05 +0.03    +0.194    56.990
ATOM      3  C   UNL d   1      40.803  46.698   1.822 -0.01 +0.03    +0.194    56.990
ATOM      4  C   UNL d   1      39.645  45.710   1.705 -0.01 +0.05    +0.194    56.990
ATOM      5  C   UNL d   1      39.418  44.870   2.955 -0.06 +0.05    +0.194    56.990
ATOM      6  C   UNL d   1      39.449  45.674   4.256 -0.14 +0.06    +0.194    56.990
ATOM      7  O   UNL d   1      40.460  47.444   5.494 -0.24 +0.01    -0.278    56.990
ATOM      8  P   UNL d   1      38.964  47.741   5.971 -0.24 +0.13    +0.473    56.990
ATOM      9  O   UNL d   1      37.975  47.917   4.873 -0.67 -0.27    -0.228    56.990
ATOM     10  O   UNL d   1      38.617  46.521   6.939 -0.27 -0.04    -0.303    56.990
ATOM     11  H   UNL d   1      39.377  45.910   6.980 -0.33 -0.04    +0.222    56.990
ATOM     12  O   UNL d   1      39.090  48.951   6.993 -0.41 +0.03    -0.303    56.990
ATOM     13  H   UNL d   1      39.947  49.429   6.922 -0.40 -0.21    +0.222    56.990
ATOM     14  O   UNL d   1      39.647  48.395   3.076 -0.04 -0.09    -0.278    56.990
ATOM     15  P   UNL d   1      39.907  49.858   2.478 +0.02 +0.11    +0.473    56.990
ATOM     16  O   UNL d   1      39.448  51.015   3.309 -0.05 -0.07    -0.228    56.990
ATOM     17  O   UNL d   1      41.473  49.886   2.191 -0.00 -0.02    -0.303    56.990
ATOM     18  H   UNL d   1      41.699  49.334   1.417 +0.02 +0.01    +0.222    56.990
ATOM     19  O   UNL d   1      39.313  49.794   1.004 +0.00 -0.07    -0.303    56.990
ATOM     20  H   UNL d   1      39.719  49.078   0.482 +0.01 +0.04    +0.222    56.990
ATOM     21  O   UNL d   1      39.568  44.732   5.320 -0.18 -0.05    -0.278    56.990
ATOM     22  P   UNL d   1      41.004  44.154   5.709 -0.25 +0.05    +0.473    56.990
ATOM     23  O   UNL d   1      41.076  42.790   6.308 -0.30 -0.05    -0.228    56.990
ATOM     24  O   UNL d   1      41.805  44.328   4.345 -0.16 -0.03    -0.303    56.990
ATOM     25  H   UNL d   1      41.476  43.645   3.706 +0.09 +0.02    +0.222    56.990
ATOM     26  O   UNL d   1      41.604  45.345   6.599 -0.60 +0.03    -0.303    56.990
ATOM     27  H   UNL d   1      40.868  45.895   6.939 -0.39 -0.10    +0.222    56.990
ATOM     28  O   UNL d   1      40.634  47.607   0.742 +0.00 -0.04    -0.278    56.990
ATOM     29  P   UNL d   1      41.825  47.870  -0.282 +0.00 +0.03    +0.473    56.990
ATOM     30  O   UNL d   1      41.988  46.849  -1.350 +0.00 -0.01    -0.228    56.990
ATOM     31  O   UNL d   1      41.468  49.358  -0.749 +0.00 -0.02    -0.303    56.990
ATOM     32  H   UNL d   1      41.172  49.872   0.038 +0.00 +0.02    +0.222    56.990
ATOM     33  O   UNL d   1      43.062  48.094   0.694 -0.00 -0.00    -0.303    56.990
ATOM     34  H   UNL d   1      43.071  49.037   0.989 +0.01 -0.00    +0.222    56.990
ATOM     35  O   UNL d   1      38.103  44.332   2.826 -0.06 -0.11    -0.278    56.990
ATOM     36  P   UNL d   1      37.893  42.769   2.581 -0.06 +0.09    +0.473    56.990
ATOM     37  O   UNL d   1      38.806  41.868   3.351 -0.19 -0.03    -0.228    56.990
ATOM     38  O   UNL d   1      36.350  42.589   2.928 -0.09 -0.04    -0.303    56.990
ATOM     39  H   UNL d   1      36.266  42.133   3.793 -0.48 -0.04    +0.222    56.990
ATOM     40  O   UNL d   1      37.944  42.664   0.995 -0.01 -0.05    -0.303    56.990
ATOM     41  H   UNL d   1      38.691  43.181   0.619 +0.02 +0.03    +0.222    56.990
ATOM     42  O   UNL d   1      39.976  44.807   0.645 -0.00 -0.04    -0.278    56.990
ATOM     43  P   UNL d   1      41.291  43.913   0.776 -0.00 +0.04    +0.473    56.990
ATOM     44  O   UNL d   1      42.305  44.327   1.786 -0.05 -0.01    -0.228    56.990
ATOM     45  O   UNL d   1      40.701  42.454   1.006 -0.02 -0.03    -0.303    56.990
ATOM     46  H   UNL d   1      39.957  42.465   1.641 +0.05 +0.03    +0.222    56.990
ATOM     47  O   UNL d   1      41.820  43.816  -0.735 -0.00 -0.02    -0.303    56.990
ATOM     48  H   UNL d   1      41.925  44.719  -1.098 +0.00 +0.01    +0.222    56.990
TER
ENDMDL
MODEL       27
USER    Run = 27
USER    Cluster Rank = 2
USER    Number of conformations in this cluster = 1
USER  
USER    RMSD from reference structure       = 52.149 A
USER  
USER    Estimated Free Energy of Binding    =   +1.97 kcal/mol  [=(1)+(2)+(3)-(4)]
USER    
USER    (1) Final Intermolecular Energy     =   -5.19 kcal/mol
USER        vdW + Hbond + desolv Energy     =   -5.12 kcal/mol
USER        Electrostatic Energy            =   -0.07 kcal/mol
USER    (2) Final Total Internal Energy     =  -13.33 kcal/mol
USER    (3) Torsional Free Energy           =   +7.16 kcal/mol
USER    (4) Unbound System's Energy  [=(2)] =  -13.33 kcal/mol
USER    
USER    
USER  
USER    DPF = D:/Protein_go_brrr/autodock/final/6BB5/IHP/dock.dpf
USER    NEWDPF move	IHP_ideal_opt.pdbqt
USER    NEWDPF about	0.035000 0.082000 -0.065000
USER    NEWDPF tran0	23.019847 51.112066 4.446491
USER    NEWDPF axisangle0	-0.488442 -0.749928 -0.446131 137.320378
USER    NEWDPF quaternion0	-0.454954 -0.698512 -0.415544 0.363899
USER    NEWDPF dihe0	26.47 40.63 -170.71 120.50 7.73 159.20 -86.02 138.37 93.05 -49.99 26.33 -148.17 159.15 60.34 180.00 149.87 -124.22 141.36 49.50 11.28 -21.62 -2.85 -8.54 -8.62 
USER  
USER                              x       y       z    vdW   Elec        q     RMS 
ATOM      1  C   UNL d   1      23.023  52.271   3.165 -0.10 -0.01    +0.194    52.149
ATOM      2  C   UNL d   1      22.829  50.815   2.739 -0.09 -0.00    +0.194    52.149
ATOM      3  C   UNL d   1      23.778  49.875   3.485 -0.07 +0.01    +0.194    52.149
ATOM      4  C   UNL d   1      23.723  50.044   5.001 -0.11 +0.01    +0.194    52.149
ATOM      5  C   UNL d   1      23.798  51.493   5.467 -0.09 +0.00    +0.194    52.149
ATOM      6  C   UNL d   1      22.894  52.444   4.679 -0.13 +0.00    +0.194    52.149
ATOM      7  O   UNL d   1      21.993  53.055   2.558 -0.12 +0.06    -0.278    52.149
ATOM      8  P   UNL d   1      22.082  53.342   0.989 -0.01 -0.10    +0.473    52.149
ATOM      9  O   UNL d   1      21.497  54.638   0.551 -0.11 +0.05    -0.228    52.149
ATOM     10  O   UNL d   1      23.638  53.213   0.661 -0.02 +0.02    -0.303    52.149
ATOM     11  H   UNL d   1      23.927  53.983   0.138 +0.01 -0.01    +0.222    52.149
ATOM     12  O   UNL d   1      21.487  52.042   0.297 -0.10 +0.06    -0.303    52.149
ATOM     13  H   UNL d   1      21.265  51.330   0.939 +0.05 -0.05    +0.222    52.149
ATOM     14  O   UNL d   1      21.480  50.421   3.022 -0.18 +0.02    -0.278    52.149
ATOM     15  P   UNL d   1      20.782  49.446   1.961 -0.22 -0.05    +0.473    52.149
ATOM     16  O   UNL d   1      20.409  48.080   2.447 -0.55 +0.01    -0.228    52.149
ATOM     17  O   UNL d   1      19.528  50.277   1.437 -0.30 +0.11    -0.303    52.149
ATOM     18  H   UNL d   1      19.749  50.772   0.625 -0.02 -0.08    +0.222    52.149
ATOM     19  O   UNL d   1      21.743  49.484   0.694 -0.09 +0.02    -0.303    52.149
ATOM     20  H   UNL d   1      22.638  49.163   0.911 +0.08 +0.00    +0.222    52.149
ATOM     21  O   UNL d   1      23.322  53.768   4.987 -0.06 +0.00    -0.278    52.149
ATOM     22  P   UNL d   1      22.278  54.822   5.574 -0.09 -0.01    +0.473    52.149
ATOM     23  O   UNL d   1      22.484  56.266   5.263 -0.05 +0.01    -0.228    52.149
ATOM     24  O   UNL d   1      20.893  54.221   5.071 -0.15 -0.02    -0.303    52.149
ATOM     25  H   UNL d   1      20.922  54.165   4.082 -0.02 -0.02    +0.222    52.149
ATOM     26  O   UNL d   1      22.262  54.433   7.129 -0.09 +0.00    -0.303    52.149
ATOM     27  H   UNL d   1      22.677  53.554   7.245 +0.06 +0.00    +0.222    52.149
ATOM     28  O   UNL d   1      23.343  48.543   3.238 -0.10 -0.04    -0.278    52.149
ATOM     29  P   UNL d   1      24.184  47.587   2.281 -0.11 +0.15    +0.473    52.149
ATOM     30  O   UNL d   1      24.617  46.299   2.882 -0.67 -0.21    -0.228    52.149
ATOM     31  O   UNL d   1      23.193  47.506   1.027 -0.10 -0.05    -0.303    52.149
ATOM     32  H   UNL d   1      22.266  47.533   1.358 +0.10 +0.02    +0.222    52.149
ATOM     33  O   UNL d   1      25.332  48.560   1.761 -0.04 -0.07    -0.303    52.149
ATOM     34  H   UNL d   1      25.745  48.167   0.954 +0.04 +0.05    +0.222    52.149
ATOM     35  O   UNL d   1      23.332  51.490   6.815 -0.12 -0.01    -0.278    52.149
ATOM     36  P   UNL d   1      24.264  52.034   7.989 -0.08 +0.00    +0.473    52.149
ATOM     37  O   UNL d   1      25.310  51.082   8.476 -0.29 +0.02    -0.228    52.149
ATOM     38  O   UNL d   1      24.845  53.373   7.352 -0.05 +0.00    -0.303    52.149
ATOM     39  H   UNL d   1      24.237  53.682   6.645 +0.06 -0.00    +0.222    52.149
ATOM     40  O   UNL d   1      23.202  52.547   9.056 -0.11 -0.01    -0.303    52.149
ATOM     41  H   UNL d   1      22.987  53.498   8.927 +0.07 -0.00    +0.222    52.149
ATOM     42  O   UNL d   1      24.868  49.371   5.535 -0.09 -0.02    -0.278    52.149
ATOM     43  P   UNL d   1      24.648  48.163   6.554 -0.16 +0.09    +0.473    52.149
ATOM     44  O   UNL d   1      25.855  47.592   7.214 -0.57 -0.02    -0.228    52.149
ATOM     45  O   UNL d   1      23.571  48.754   7.566 -0.29 -0.03    -0.303    52.149
ATOM     46  H   UNL d   1      23.810  49.656   7.857 +0.13 +0.01    +0.222    52.149
ATOM     47  O   UNL d   1      23.765  47.127   5.708 -0.23 -0.13    -0.303    52.149
ATOM     48  H   UNL d   1      23.994  47.208   4.759 +0.09 +0.11    +0.222    52.149
TER
ENDMDL
MODEL       36
USER    Run = 36
USER    Cluster Rank = 3
USER    Number of conformations in this cluster = 1
USER  
USER    RMSD from reference structure       = 47.736 A
USER  
USER    Estimated Free Energy of Binding    =   +2.02 kcal/mol  [=(1)+(2)+(3)-(4)]
USER    
USER    (1) Final Intermolecular Energy     =   -5.14 kcal/mol
USER        vdW + Hbond + desolv Energy     =   -4.66 kcal/mol
USER        Electrostatic Energy            =   -0.48 kcal/mol
USER    (2) Final Total Internal Energy     =  -11.82 kcal/mol
USER    (3) Torsional Free Energy           =   +7.16 kcal/mol
USER    (4) Unbound System's Energy  [=(2)] =  -11.82 kcal/mol
USER    
USER    
USER  
USER    DPF = D:/Protein_go_brrr/autodock/final/6BB5/IHP/dock.dpf
USER    NEWDPF move	IHP_ideal_opt.pdbqt
USER    NEWDPF about	0.035000 0.082000 -0.065000
USER    NEWDPF tran0	31.191150 40.972237 1.809413
USER    NEWDPF axisangle0	0.114443 -0.046629 -0.992335 -155.061988
USER    NEWDPF quaternion0	0.111744 -0.045529 -0.968929 -0.215911
USER    NEWDPF dihe0	68.70 49.89 180.00 -29.45 110.64 -1.47 -118.59 -32.06 -2.51 5.78 -14.95 -151.87 148.82 -179.89 52.55 -144.00 -15.84 -179.85 50.88 14.90 -166.04 6.44 3.37 -30.99 
USER  
USER                              x       y       z    vdW   Elec        q     RMS 
ATOM      1  C   UNL d   1      29.537  41.268   2.209 -0.14 +0.02    +0.194    47.736
ATOM      2  C   UNL d   1      30.396  42.514   1.987 -0.12 +0.05    +0.194    47.736
ATOM      3  C   UNL d   1      31.768  42.382   2.652 -0.17 +0.04    +0.194    47.736
ATOM      4  C   UNL d   1      32.501  41.099   2.268 -0.13 +0.02    +0.194    47.736
ATOM      5  C   UNL d   1      31.646  39.843   2.365 -0.10 +0.01    +0.194    47.736
ATOM      6  C   UNL d   1      30.251  39.995   1.755 -0.07 +0.01    +0.194    47.736
ATOM      7  O   UNL d   1      28.352  41.397   1.420 -0.11 -0.04    -0.278    47.736
ATOM      8  P   UNL d   1      27.251  42.463   1.873 -0.21 +0.18    +0.473    47.736
ATOM      9  O   UNL d   1      25.886  42.229   1.329 -0.30 -0.06    -0.228    47.736
ATOM     10  O   UNL d   1      27.307  42.424   3.467 -0.40 -0.20    -0.303    47.736
ATOM     11  H   UNL d   1      26.691  41.745   3.799 -0.03 +0.02    +0.222    47.736
ATOM     12  O   UNL d   1      27.892  43.881   1.552 -0.09 -0.19    -0.303    47.736
ATOM     13  H   UNL d   1      28.760  43.817   1.093 +0.06 +0.09    +0.222    47.736
ATOM     14  O   UNL d   1      30.587  42.705   0.580 -0.02 -0.06    -0.278    47.736
ATOM     15  P   UNL d   1      30.685  44.219   0.069 -0.00 +0.12    +0.473    47.736
ATOM     16  O   UNL d   1      29.721  44.631  -1.000 -0.02 -0.04    -0.228    47.736
ATOM     17  O   UNL d   1      30.540  45.086   1.398 -0.07 -0.12    -0.303    47.736
ATOM     18  H   UNL d   1      31.400  45.181   1.851 +0.06 +0.10    +0.222    47.736
ATOM     19  O   UNL d   1      32.223  44.423  -0.279 -0.00 -0.07    -0.303    47.736
ATOM     20  H   UNL d   1      32.730  44.732   0.494 +0.04 +0.08    +0.222    47.736
ATOM     21  O   UNL d   1      29.475  38.892   2.219 -0.07 +0.01    -0.278    47.736
ATOM     22  P   UNL d   1      28.615  39.036   3.555 -0.12 -0.22    +0.473    47.736
ATOM     23  O   UNL d   1      27.271  39.677   3.462 -0.31 +0.12    -0.228    47.736
ATOM     24  O   UNL d   1      28.605  37.540   4.098 -0.16 +0.15    -0.303    47.736
ATOM     25  H   UNL d   1      29.524  37.177   4.019 +0.10 -0.05    +0.222    47.736
ATOM     26  O   UNL d   1      29.663  39.740   4.543 -0.26 +0.17    -0.303    47.736
ATOM     27  H   UNL d   1      29.263  39.818   5.433 -0.23 -0.32    +0.222    47.736
ATOM     28  O   UNL d   1      32.583  43.442   2.167 -0.08 -0.10    -0.278    47.736
ATOM     29  P   UNL d   1      33.141  44.549   3.166 -0.17 +0.35    +0.473    47.736
ATOM     30  O   UNL d   1      33.780  45.727   2.525 -0.19 -0.34    -0.228    47.736
ATOM     31  O   UNL d   1      31.830  44.822   4.042 -0.04 -0.17    -0.303    47.736
ATOM     32  H   UNL d   1      31.150  45.244   3.466 +0.09 +0.12    +0.222    47.736
ATOM     33  O   UNL d   1      34.047  43.686   4.150 -0.18 -0.14    -0.303    47.736
ATOM     34  H   UNL d   1      34.368  42.883   3.670 -0.10 +0.05    +0.222    47.736
ATOM     35  O   UNL d   1      32.330  38.849   1.605 -0.06 -0.02    -0.278    47.736
ATOM     36  P   UNL d   1      32.527  37.379   2.195 -0.03 +0.04    +0.473    47.736
ATOM     37  O   UNL d   1      31.475  36.923   3.155 -0.04 -0.02    -0.228    47.736
ATOM     38  O   UNL d   1      32.625  36.506   0.867 -0.03 -0.03    -0.303    47.736
ATOM     39  H   UNL d   1      31.736  36.445   0.456 +0.03 +0.03    +0.222    47.736
ATOM     40  O   UNL d   1      34.023  37.427   2.733 -0.04 -0.00    -0.303    47.736
ATOM     41  H   UNL d   1      34.601  37.973   2.154 -0.25 -0.04    +0.222    47.736
ATOM     42  O   UNL d   1      33.581  40.946   3.195 -0.23 -0.03    -0.278    47.736
ATOM     43  P   UNL d   1      34.976  40.380   2.668 -0.18 +0.02    +0.473    47.736
ATOM     44  O   UNL d   1      35.638  39.319   3.478 +0.03 +0.01    -0.228    47.736
ATOM     45  O   UNL d   1      34.634  39.942   1.177 -0.07 -0.01    -0.303    47.736
ATOM     46  H   UNL d   1      34.302  39.022   1.141 +0.04 -0.00    +0.222    47.736
ATOM     47  O   UNL d   1      35.842  41.707   2.426 -0.12 -0.03    -0.303    47.736
ATOM     48  H   UNL d   1      35.523  42.414   3.025 -0.14 +0.02    +0.222    47.736
TER
ENDMDL
MODEL       76
USER    Run = 76
USER    Cluster Rank = 4
USER    Number of conformations in this cluster = 1
USER  
USER    RMSD from reference structure       = 38.231 A
USER  
USER    Estimated Free Energy of Binding    =   +2.11 kcal/mol  [=(1)+(2)+(3)-(4)]
USER    
USER    (1) Final Intermolecular Energy     =   -5.04 kcal/mol
USER        vdW + Hbond + desolv Energy     =   -4.30 kcal/mol
USER        Electrostatic Energy            =   -0.75 kcal/mol
USER    (2) Final Total Internal Energy     =  -12.63 kcal/mol
USER    (3) Torsional Free Energy           =   +7.16 kcal/mol
USER    (4) Unbound System's Energy  [=(2)] =  -12.63 kcal/mol
USER    
USER    
USER  
USER    DPF = D:/Protein_go_brrr/autodock/final/6BB5/IHP/dock.dpf
USER    NEWDPF move	IHP_ideal_opt.pdbqt
USER    NEWDPF about	0.035000 0.082000 -0.065000
USER    NEWDPF tran0	27.715780 16.609438 26.118786
USER    NEWDPF axisangle0	-0.194770 -0.613111 -0.765610 -166.872028
USER    NEWDPF quaternion0	-0.193494 -0.609092 -0.760592 -0.114313
USER    NEWDPF dihe0	115.59 70.13 171.33 6.16 15.73 180.00 -50.59 13.18 84.97 59.79 -179.78 118.85 -179.26 86.52 -40.60 167.60 99.81 -20.46 16.62 -32.67 172.72 -32.10 -5.25 2.98 
USER  
USER                              x       y       z    vdW   Elec        q     RMS 
ATOM      1  C   UNL d   1      26.348  17.661  26.023 -0.05 +0.00    +0.194    38.231
ATOM      2  C   UNL d   1      27.084  17.412  24.705 -0.07 +0.02    +0.194    38.231
ATOM      3  C   UNL d   1      28.602  17.461  24.886 -0.15 +0.02    +0.194    38.231
ATOM      4  C   UNL d   1      29.104  16.554  26.007 -0.11 +0.00    +0.194    38.231
ATOM      5  C   UNL d   1      28.324  16.686  27.309 -0.09 +0.00    +0.194    38.231
ATOM      6  C   UNL d   1      26.805  16.700  27.122 -0.04 +0.00    +0.194    38.231
ATOM      7  O   UNL d   1      24.954  17.429  25.807 -0.02 +0.00    -0.278    38.231
ATOM      8  P   UNL d   1      23.979  18.691  25.725 -0.04 -0.03    +0.473    38.231
ATOM      9  O   UNL d   1      22.797  18.636  26.628 -0.03 +0.03    -0.228    38.231
ATOM     10  O   UNL d   1      24.932  19.937  26.013 -0.09 +0.04    -0.303    38.231
ATOM     11  H   UNL d   1      25.541  19.720  26.744 +0.08 -0.03    +0.222    38.231
ATOM     12  O   UNL d   1      23.661  18.867  24.178 -0.08 +0.01    -0.303    38.231
ATOM     13  H   UNL d   1      23.757  18.031  23.667 +0.04 +0.00    +0.222    38.231
ATOM     14  O   UNL d   1      26.725  16.117  24.208 -0.01 -0.05    -0.278    38.231
ATOM     15  P   UNL d   1      25.596  16.074  23.072 -0.01 +0.12    +0.473    38.231
ATOM     16  O   UNL d   1      25.779  15.067  21.980 -0.02 -0.09    -0.228    38.231
ATOM     17  O   UNL d   1      24.240  15.867  23.881 -0.01 -0.02    -0.303    38.231
ATOM     18  H   UNL d   1      23.961  16.695  24.318 +0.02 +0.01    +0.222    38.231
ATOM     19  O   UNL d   1      25.456  17.585  22.595 -0.06 -0.08    -0.303    38.231
ATOM     20  H   UNL d   1      25.291  18.186  23.345 +0.05 +0.03    +0.222    38.231
ATOM     21  O   UNL d   1      26.243  17.166  28.346 -0.02 +0.00    -0.278    38.231
ATOM     22  P   UNL d   1      26.423  18.694  28.768 -0.09 -0.00    +0.473    38.231
ATOM     23  O   UNL d   1      27.374  19.535  27.985 -0.66 -0.03    -0.228    38.231
ATOM     24  O   UNL d   1      24.918  19.211  28.766 -0.04 +0.02    -0.303    38.231
ATOM     25  H   UNL d   1      24.503  18.950  27.905 +0.05 -0.02    +0.222    38.231
ATOM     26  O   UNL d   1      26.726  18.565  30.337 -0.08 +0.00    -0.303    38.231
ATOM     27  H   UNL d   1      26.811  17.618  30.572 +0.04 -0.01    +0.222    38.231
ATOM     28  O   UNL d   1      29.192  16.951  23.696 -0.10 -0.08    -0.278    38.231
ATOM     29  P   UNL d   1      29.298  17.865  22.396 -0.19 +0.31    +0.473    38.231
ATOM     30  O   UNL d   1      30.549  17.715  21.609 -0.36 -0.21    -0.228    38.231
ATOM     31  O   UNL d   1      27.929  17.473  21.666 -0.24 -0.36    -0.303    38.231
ATOM     32  H   UNL d   1      27.448  16.824  22.230 +0.06 +0.17    +0.222    38.231
ATOM     33  O   UNL d   1      28.984  19.313  22.979 -0.24 -0.04    -0.303    38.231
ATOM     34  H   UNL d   1      29.756  19.618  23.515 -0.20 -0.06    +0.222    38.231
ATOM     35  O   UNL d   1      28.643  15.524  28.071 -0.04 +0.01    -0.278    38.231
ATOM     36  P   UNL d   1      29.216  15.667  29.553 -0.02 -0.04    +0.473    38.231
ATOM     37  O   UNL d   1      28.765  14.620  30.522 -0.01 +0.02    -0.228    38.231
ATOM     38  O   UNL d   1      30.787  15.687  29.295 -0.09 +0.08    -0.303    38.231
ATOM     39  H   UNL d   1      30.954  15.849  28.341 +0.05 -0.07    +0.222    38.231
ATOM     40  O   UNL d   1      28.867  17.177  29.909 -0.08 +0.01    -0.303    38.231
ATOM     41  H   UNL d   1      28.176  17.542  29.312 +0.05 +0.00    +0.222    38.231
ATOM     42  O   UNL d   1      30.453  16.944  26.284 -0.02 +0.02    -0.278    38.231
ATOM     43  P   UNL d   1      31.642  15.978  25.840 -0.17 -0.14    +0.473    38.231
ATOM     44  O   UNL d   1      31.386  15.051  24.703 -0.07 +0.01    -0.228    38.231
ATOM     45  O   UNL d   1      32.844  16.992  25.595 -0.36 +0.18    -0.303    38.231
ATOM     46  H   UNL d   1      33.515  16.930  26.304 -0.31 -0.40    +0.222    38.231
ATOM     47  O   UNL d   1      32.080  15.281  27.216 -0.14 +0.20    -0.303    38.231
ATOM     48  H   UNL d   1      32.404  15.966  27.836 -0.33 -0.30    +0.222    38.231
TER
ENDMDL
MODEL       10
USER    Run = 10
USER    Cluster Rank = 5
USER    Number of conformations in this cluster = 1
USER  
USER    RMSD from reference structure       = 45.538 A
USER  
USER    Estimated Free Energy of Binding    =   +2.17 kcal/mol  [=(1)+(2)+(3)-(4)]
USER    
USER    (1) Final Intermolecular Energy     =   -4.99 kcal/mol
USER        vdW + Hbond + desolv Energy     =   -4.92 kcal/mol
USER        Electrostatic Energy            =   -0.07 kcal/mol
USER    (2) Final Total Internal Energy     =  -12.34 kcal/mol
USER    (3) Torsional Free Energy           =   +7.16 kcal/mol
USER    (4) Unbound System's Energy  [=(2)] =  -12.34 kcal/mol
USER    
USER    
USER  
USER    DPF = D:/Protein_go_brrr/autodock/final/6BB5/IHP/dock.dpf
USER    NEWDPF move	IHP_ideal_opt.pdbqt
USER    NEWDPF about	0.035000 0.082000 -0.065000
USER    NEWDPF tran0	14.812048 35.482736 29.410277
USER    NEWDPF axisangle0	-0.125705 -0.270492 -0.954480 -146.527789
USER    NEWDPF quaternion0	-0.120381 -0.259034 -0.914050 -0.287964
USER    NEWDPF dihe0	87.43 91.58 20.74 -152.53 11.23 -119.01 -48.69 -8.24 53.24 30.77 -34.87 -174.31 -65.51 154.67 -27.49 113.90 151.58 -46.31 7.73 -25.55 -52.19 43.03 1.08 166.32 
USER  
USER                              x       y       z    vdW   Elec        q     RMS 
ATOM      1  C   UNL d   1      13.336  35.952  30.176 -0.08 -0.05    +0.194    45.538
ATOM      2  C   UNL d   1      13.842  36.894  29.081 -0.13 -0.05    +0.194    45.538
ATOM      3  C   UNL d   1      15.351  37.122  29.183 -0.17 -0.03    +0.194    45.538
ATOM      4  C   UNL d   1      16.153  35.824  29.243 -0.30 -0.01    +0.194    45.538
ATOM      5  C   UNL d   1      15.615  34.808  30.242 -0.23 -0.01    +0.194    45.538
ATOM      6  C   UNL d   1      14.097  34.625  30.182 -0.16 -0.05    +0.194    45.538
ATOM      7  O   UNL d   1      11.964  35.655  29.910 -0.08 +0.08    -0.278    45.538
ATOM      8  P   UNL d   1      10.862  36.161  30.951 +0.00 -0.02    +0.473    45.538
ATOM      9  O   UNL d   1      11.396  36.616  32.263 +0.00 +0.00    -0.228    45.538
ATOM     10  O   UNL d   1      10.079  37.305  30.160 -0.00 +0.01    -0.303    45.538
ATOM     11  H   UNL d   1      10.657  38.084  30.056 +0.02 -0.02    +0.222    45.538
ATOM     12  O   UNL d   1       9.782  34.997  31.007 -0.04 -0.04    -0.303    45.538
ATOM     13  H   UNL d   1      10.183  34.103  31.094 +0.03 +0.05    +0.222    45.538
ATOM     14  O   UNL d   1      13.552  36.319  27.801 -0.24 +0.18    -0.278    45.538
ATOM     15  P   UNL d   1      12.354  36.985  26.972 -0.19 -0.25    +0.473    45.538
ATOM     16  O   UNL d   1      11.588  36.083  26.057 -0.29 +0.17    -0.228    45.538
ATOM     17  O   UNL d   1      11.437  37.656  28.088 -0.04 +0.07    -0.303    45.538
ATOM     18  H   UNL d   1      10.920  36.983  28.570 +0.05 -0.05    +0.222    45.538
ATOM     19  O   UNL d   1      13.009  38.262  26.286 -0.19 +0.12    -0.303    45.538
ATOM     20  H   UNL d   1      12.602  38.455  25.421 -0.48 -0.13    +0.222    45.538
ATOM     21  O   UNL d   1      13.718  33.932  31.369 -0.06 +0.03    -0.278    45.538
ATOM     22  P   UNL d   1      12.386  33.055  31.383 -0.06 -0.03    +0.473    45.538
ATOM     23  O   UNL d   1      11.604  32.941  30.118 -0.15 +0.03    -0.228    45.538
ATOM     24  O   UNL d   1      12.912  31.672  31.969 -0.03 +0.00    -0.303    45.538
ATOM     25  H   UNL d   1      13.668  31.366  31.405 +0.04 -0.01    +0.222    45.538
ATOM     26  O   UNL d   1      11.603  33.670  32.639 -0.00 -0.01    -0.303    45.538
ATOM     27  H   UNL d   1      11.341  34.591  32.436 +0.02 +0.00    +0.222    45.538
ATOM     28  O   UNL d   1      15.768  37.768  27.987 -0.21 +0.05    -0.278    45.538
ATOM     29  P   UNL d   1      17.065  38.693  27.981 -0.15 -0.02    +0.473    45.538
ATOM     30  O   UNL d   1      18.349  37.994  27.717 -0.62 -0.04    -0.228    45.538
ATOM     31  O   UNL d   1      16.611  39.804  26.923 -0.14 +0.03    -0.303    45.538
ATOM     32  H   UNL d   1      15.686  39.613  26.645 +0.09 -0.04    +0.222    45.538
ATOM     33  O   UNL d   1      16.935  39.458  29.372 -0.03 +0.01    -0.303    45.538
ATOM     34  H   UNL d   1      16.784  38.795  30.090 +0.05 -0.00    +0.222    45.538
ATOM     35  O   UNL d   1      16.202  33.560  29.880 -0.29 -0.01    -0.278    45.538
ATOM     36  P   UNL d   1      16.886  32.641  30.989 -0.18 +0.07    +0.473    45.538
ATOM     37  O   UNL d   1      17.781  31.561  30.470 -0.29 -0.06    -0.228    45.538
ATOM     38  O   UNL d   1      17.622  33.720  31.899 -0.13 -0.08    -0.303    45.538
ATOM     39  H   UNL d   1      17.688  34.566  31.405 +0.05 +0.06    +0.222    45.538
ATOM     40  O   UNL d   1      15.640  32.185  31.868 -0.05 -0.02    -0.303    45.538
ATOM     41  H   UNL d   1      14.830  32.692  31.640 +0.05 -0.00    +0.222    45.538
ATOM     42  O   UNL d   1      17.475  36.173  29.669 -0.16 -0.04    -0.278    45.538
ATOM     43  P   UNL d   1      17.658  36.984  31.030 -0.08 +0.05    +0.473    45.538
ATOM     44  O   UNL d   1      16.426  37.348  31.784 -0.03 -0.01    -0.228    45.538
ATOM     45  O   UNL d   1      18.675  36.072  31.846 -0.08 -0.08    -0.303    45.538
ATOM     46  H   UNL d   1      18.230  35.617  32.589 +0.03 +0.05    +0.222    45.538
ATOM     47  O   UNL d   1      18.595  38.212  30.602 -0.07 -0.02    -0.303    45.538
ATOM     48  H   UNL d   1      18.740  38.185  29.633 +0.07 +0.02    +0.222    45.538
TER
ENDMDL
MODEL       31
USER    Run = 31
USER    Cluster Rank = 6
USER    Number of conformations in this cluster = 1
USER  
USER    RMSD from reference structure       = 15.395 A
USER  
USER    Estimated Free Energy of Binding    =   +2.19 kcal/mol  [=(1)+(2)+(3)-(4)]
USER    
USER    (1) Final Intermolecular Energy     =   -4.97 kcal/mol
USER        vdW + Hbond + desolv Energy     =   -4.84 kcal/mol
USER        Electrostatic Energy            =   -0.13 kcal/mol
USER    (2) Final Total Internal Energy     =  -13.18 kcal/mol
USER    (3) Torsional Free Energy           =   +7.16 kcal/mol
USER    (4) Unbound System's Energy  [=(2)] =  -13.18 kcal/mol
USER    
USER    
USER  
USER    DPF = D:/Protein_go_brrr/autodock/final/6BB5/IHP/dock.dpf
USER    NEWDPF move	IHP_ideal_opt.pdbqt
USER    NEWDPF about	0.035000 0.082000 -0.065000
USER    NEWDPF tran0	11.110894 15.131178 4.175179
USER    NEWDPF axisangle0	0.295463 0.928613 -0.224455 -101.736284
USER    NEWDPF quaternion0	0.229189 0.720321 -0.174109 -0.631107
USER    NEWDPF dihe0	145.96 78.52 120.46 111.33 -104.24 180.00 -142.53 -45.33 -113.83 121.10 102.58 155.92 128.72 94.86 15.94 -120.84 -37.76 55.43 41.43 -9.31 162.18 -17.97 -35.21 -2.07 
USER  
USER                              x       y       z    vdW   Elec        q     RMS 
ATOM      1  C   UNL d   1      11.155  14.101   2.789 -0.11 +0.05    +0.194    15.395
ATOM      2  C   UNL d   1      10.530  13.492   4.045 -0.09 +0.03    +0.194    15.395
ATOM      3  C   UNL d   1      11.342  13.822   5.299 -0.06 +0.03    +0.194    15.395
ATOM      4  C   UNL d   1      11.621  15.314   5.459 -0.13 +0.04    +0.194    15.395
ATOM      5  C   UNL d   1      12.139  15.988   4.195 -0.15 +0.04    +0.194    15.395
ATOM      6  C   UNL d   1      11.365  15.610   2.930 -0.17 +0.06    +0.194    15.395
ATOM      7  O   UNL d   1      10.254  13.897   1.698 -0.07 -0.12    -0.278    15.395
ATOM      8  P   UNL d   1      10.254  12.475   0.970 -0.03 +0.19    +0.473    15.395
ATOM      9  O   UNL d   1       9.294  12.345  -0.160 -0.08 -0.16    -0.228    15.395
ATOM     10  O   UNL d   1      11.773  12.264   0.532 -0.04 -0.10    -0.303    15.395
ATOM     11  H   UNL d   1      12.263  13.101   0.637 +0.04 +0.07    +0.222    15.395
ATOM     12  O   UNL d   1      10.095  11.412   2.141 -0.02 -0.06    -0.303    15.395
ATOM     13  H   UNL d   1       9.542  11.739   2.886 +0.04 +0.03    +0.222    15.395
ATOM     14  O   UNL d   1       9.205  14.015   4.208 -0.19 -0.03    -0.278    15.395
ATOM     15  P   UNL d   1       8.015  12.945   4.261 -0.14 +0.00    +0.473    15.395
ATOM     16  O   UNL d   1       6.812  13.318   5.068 -0.19 +0.03    -0.228    15.395
ATOM     17  O   UNL d   1       7.671  12.672   2.729 -0.10 -0.04    -0.303    15.395
ATOM     18  H   UNL d   1       8.438  12.864   2.157 +0.06 +0.06    +0.222    15.395
ATOM     19  O   UNL d   1       8.725  11.583   4.676 -0.04 -0.01    -0.303    15.395
ATOM     20  H   UNL d   1       9.275  11.691   5.473 +0.04 -0.00    +0.222    15.395
ATOM     21  O   UNL d   1      12.158  16.028   1.821 -0.16 -0.09    -0.278    15.395
ATOM     22  P   UNL d   1      13.626  15.435   1.630 -0.05 +0.10    +0.473    15.395
ATOM     23  O   UNL d   1      13.817  13.963   1.779 -0.03 -0.04    -0.228    15.395
ATOM     24  O   UNL d   1      14.029  16.019   0.205 -0.19 -0.06    -0.303    15.395
ATOM     25  H   UNL d   1      14.871  15.580  -0.081 +0.08 +0.02    +0.222    15.395
ATOM     26  O   UNL d   1      14.482  16.359   2.621 -0.19 -0.08    -0.303    15.395
ATOM     27  H   UNL d   1      13.876  16.942   3.122 +0.09 +0.07    +0.222    15.395
ATOM     28  O   UNL d   1      10.553  13.463   6.427 -0.10 -0.01    -0.278    15.395
ATOM     29  P   UNL d   1      10.698  12.019   7.082 -0.03 +0.02    +0.473    15.395
ATOM     30  O   UNL d   1       9.453  11.449   7.659 -0.09 +0.02    -0.228    15.395
ATOM     31  O   UNL d   1      11.364  11.224   5.863 -0.00 -0.02    -0.303    15.395
ATOM     32  H   UNL d   1      10.646  10.828   5.317 +0.02 +0.01    +0.222    15.395
ATOM     33  O   UNL d   1      11.923  12.226   8.078 -0.02 -0.06    -0.303    15.395
ATOM     34  H   UNL d   1      12.095  13.194   8.180 +0.05 +0.07    +0.222    15.395
ATOM     35  O   UNL d   1      11.953  17.387   4.398 -0.24 -0.07    -0.278    15.395
ATOM     36  P   UNL d   1      13.148  18.286   4.953 -0.21 +0.12    +0.473    15.395
ATOM     37  O   UNL d   1      14.468  17.594   5.083 -0.32 -0.06    -0.228    15.395
ATOM     38  O   UNL d   1      13.146  19.503   3.926 -0.81 -0.07    -0.303    15.395
ATOM     39  H   UNL d   1      13.814  20.164   4.210 -0.45 +0.02    +0.222    15.395
ATOM     40  O   UNL d   1      12.523  18.903   6.279 -0.10 -0.07    -0.303    15.395
ATOM     41  H   UNL d   1      12.544  18.262   7.024 +0.13 +0.06    +0.222    15.395
ATOM     42  O   UNL d   1      12.645  15.440   6.452 -0.04 -0.07    -0.278    15.395
ATOM     43  P   UNL d   1      12.285  16.125   7.848 -0.11 +0.18    +0.473    15.395
ATOM     44  O   UNL d   1      12.045  15.226   9.011 -0.41 -0.17    -0.228    15.395
ATOM     45  O   UNL d   1      13.486  17.149   8.054 -0.10 -0.14    -0.303    15.395
ATOM     46  H   UNL d   1      13.840  17.462   7.197 +0.10 +0.08    +0.222    15.395
ATOM     47  O   UNL d   1      11.078  17.109   7.473 -0.32 -0.04    -0.303    15.395
ATOM     48  H   UNL d   1      11.137  17.346   6.524 +0.12 +0.05    +0.222    15.395
TER
ENDMDL
MODEL       75
USER    Run = 75
USER    Cluster Rank = 7
USER    Number of conformations in this cluster = 1
USER  
USER    RMSD from reference structure       = 65.960 A
USER  
USER    Estimated Free Energy of Binding    =   +2.20 kcal/mol  [=(1)+(2)+(3)-(4)]
USER    
USER    (1) Final Intermolecular Energy     =   -4.96 kcal/mol
USER        vdW + Hbond + desolv Energy     =   -4.42 kcal/mol
USER        Electrostatic Energy            =   -0.54 kcal/mol
USER    (2) Final Total Internal Energy     =  -14.13 kcal/mol
USER    (3) Torsional Free Energy           =   +7.16 kcal/mol
USER    (4) Unbound System's Energy  [=(2)] =  -14.13 kcal/mol
USER    
USER    
USER  
USER    DPF = D:/Protein_go_brrr/autodock/final/6BB5/IHP/dock.dpf
USER    NEWDPF move	IHP_ideal_opt.pdbqt
USER    NEWDPF about	0.035000 0.082000 -0.065000
USER    NEWDPF tran0	44.937941 52.303190 14.905415
USER    NEWDPF axisangle0	-0.985002 -0.165438 -0.049008 92.489501
USER    NEWDPF quaternion0	-0.711467 -0.119496 -0.035398 0.691579
USER    NEWDPF dihe0	-104.23 22.65 48.62 -6.51 139.71 85.48 28.16 -92.54 -14.06 33.52 47.08 165.06 -157.82 158.67 180.00 87.23 167.84 -156.28 40.75 -5.36 8.63 -7.81 176.63 10.71 
USER  
USER                              x       y       z    vdW   Elec        q     RMS 
ATOM      1  C   UNL d   1      46.215  51.819  13.848 -0.07 -0.02    +0.194    65.960
ATOM      2  C   UNL d   1      44.829  51.918  13.208 -0.09 -0.04    +0.194    65.960
ATOM      3  C   UNL d   1      43.746  51.317  14.107 -0.11 -0.05    +0.194    65.960
ATOM      4  C   UNL d   1      43.767  51.874  15.528 -0.08 -0.02    +0.194    65.960
ATOM      5  C   UNL d   1      45.151  51.901  16.164 -0.07 -0.01    +0.194    65.960
ATOM      6  C   UNL d   1      46.245  52.445  15.243 -0.03 -0.01    +0.194    65.960
ATOM      7  O   UNL d   1      47.135  52.550  13.033 -0.01 +0.02    -0.278    65.960
ATOM      8  P   UNL d   1      47.734  51.835  11.736 +0.02 -0.06    +0.473    65.960
ATOM      9  O   UNL d   1      49.154  51.407  11.850 -0.01 +0.03    -0.228    65.960
ATOM     10  O   UNL d   1      46.732  50.623  11.466 -0.10 +0.05    -0.303    65.960
ATOM     11  H   UNL d   1      46.088  50.878  10.779 +0.08 -0.05    +0.222    65.960
ATOM     12  O   UNL d   1      47.400  52.817  10.532 -0.00 +0.04    -0.303    65.960
ATOM     13  H   UNL d   1      46.645  53.418  10.723 +0.03 -0.03    +0.222    65.960
ATOM     14  O   UNL d   1      44.518  53.298  12.979 -0.02 +0.04    -0.278    65.960
ATOM     15  P   UNL d   1      44.094  53.697  11.487 -0.01 -0.16    +0.473    65.960
ATOM     16  O   UNL d   1      44.513  55.052  11.010 -0.01 +0.04    -0.228    65.960
ATOM     17  O   UNL d   1      44.678  52.518  10.589 -0.09 +0.14    -0.303    65.960
ATOM     18  H   UNL d   1      45.605  52.322  10.826 +0.06 -0.06    +0.222    65.960
ATOM     19  O   UNL d   1      42.532  53.401  11.426 -0.03 +0.23    -0.303    65.960
ATOM     20  H   UNL d   1      42.342  52.449  11.508 -0.44 -0.27    +0.222    65.960
ATOM     21  O   UNL d   1      47.494  52.091  15.833 -0.02 +0.01    -0.278    65.960
ATOM     22  P   UNL d   1      48.234  53.124  16.798 +0.01 -0.00    +0.473    65.960
ATOM     23  O   UNL d   1      49.725  53.092  16.854 -0.00 +0.00    -0.228    65.960
ATOM     24  O   UNL d   1      47.614  54.512  16.327 +0.00 -0.00    -0.303    65.960
ATOM     25  H   UNL d   1      46.682  54.562  16.662 +0.00 +0.00    +0.222    65.960
ATOM     26  O   UNL d   1      47.473  52.874  18.186 -0.00 -0.01    -0.303    65.960
ATOM     27  H   UNL d   1      46.690  53.459  18.233 +0.01 +0.01    +0.222    65.960
ATOM     28  O   UNL d   1      42.485  51.697  13.571 -0.14 +0.06    -0.278    65.960
ATOM     29  P   UNL d   1      41.618  50.654  12.737 -0.22 -0.16    +0.473    65.960
ATOM     30  O   UNL d   1      41.199  49.434  13.474 -0.89 +0.03    -0.228    65.960
ATOM     31  O   UNL d   1      40.455  51.618  12.207 -0.18 +0.14    -0.303    65.960
ATOM     32  H   UNL d   1      40.794  52.121  11.432 -0.38 -0.27    +0.222    65.960
ATOM     33  O   UNL d   1      42.514  50.438  11.439 -0.53 +0.23    -0.303    65.960
ATOM     34  H   UNL d   1      42.979  51.283  11.225 -0.33 -0.27    +0.222    65.960
ATOM     35  O   UNL d   1      45.052  52.795  17.271 -0.01 -0.01    -0.278    65.960
ATOM     36  P   UNL d   1      44.475  54.268  17.066 +0.01 +0.04    +0.473    65.960
ATOM     37  O   UNL d   1      45.054  55.318  17.959 -0.00 -0.02    -0.228    65.960
ATOM     38  O   UNL d   1      44.741  54.509  15.514 +0.00 -0.01    -0.303    65.960
ATOM     39  H   UNL d   1      45.663  54.824  15.392 +0.00 +0.00    +0.222    65.960
ATOM     40  O   UNL d   1      42.904  54.033  17.152 -0.01 -0.06    -0.303    65.960
ATOM     41  H   UNL d   1      42.680  53.076  17.174 +0.03 +0.05    +0.222    65.960
ATOM     42  O   UNL d   1      42.955  51.006  16.326 -0.04 +0.02    -0.278    65.960
ATOM     43  P   UNL d   1      41.462  51.449  16.673 -0.11 +0.17    +0.473    65.960
ATOM     44  O   UNL d   1      41.164  51.810  18.087 -0.13 -0.18    -0.228    65.960
ATOM     45  O   UNL d   1      41.196  52.623  15.632 -0.06 -0.09    -0.303    65.960
ATOM     46  H   UNL d   1      42.030  53.055  15.358 +0.05 +0.03    +0.222    65.960
ATOM     47  O   UNL d   1      40.576  50.263  16.060 -0.27 -0.07    -0.303    65.960
ATOM     48  H   UNL d   1      41.122  49.741  15.437 -0.23 -0.02    +0.222    65.960
TER
ENDMDL
MODEL       41
USER    Run = 41
USER    Cluster Rank = 8
USER    Number of conformations in this cluster = 1
USER  
USER    RMSD from reference structure       = 49.308 A
USER  
USER    Estimated Free Energy of Binding    =   +2.46 kcal/mol  [=(1)+(2)+(3)-(4)]
USER    
USER    (1) Final Intermolecular Energy     =   -4.70 kcal/mol
USER        vdW + Hbond + desolv Energy     =   -4.62 kcal/mol
USER        Electrostatic Energy            =   -0.08 kcal/mol
USER    (2) Final Total Internal Energy     =  -11.11 kcal/mol
USER    (3) Torsional Free Energy           =   +7.16 kcal/mol
USER    (4) Unbound System's Energy  [=(2)] =  -11.11 kcal/mol
USER    
USER    
USER  
USER    DPF = D:/Protein_go_brrr/autodock/final/6BB5/IHP/dock.dpf
USER    NEWDPF move	IHP_ideal_opt.pdbqt
USER    NEWDPF about	0.035000 0.082000 -0.065000
USER    NEWDPF tran0	15.659985 50.692097 -6.483769
USER    NEWDPF axisangle0	-0.811603 -0.233116 0.535684 148.906422
USER    NEWDPF quaternion0	-0.781908 -0.224587 0.516085 0.268025
USER    NEWDPF dihe0	100.82 111.88 127.29 111.86 -72.31 -113.58 -77.05 -73.12 -112.24 111.60 62.08 -113.28 -48.04 -94.63 -98.80 76.58 2.16 107.96 -161.10 -1.25 142.00 136.08 -81.70 158.00 
USER  
USER                              x       y       z    vdW   Elec        q     RMS 
ATOM      1  C   UNL d   1      15.018  50.941  -8.068 -0.02 -0.01    +0.194    49.308
ATOM      2  C   UNL d   1      14.310  51.696  -6.942 -0.03 -0.02    +0.194    49.308
ATOM      3  C   UNL d   1      14.106  50.813  -5.709 -0.11 -0.03    +0.194    49.308
ATOM      4  C   UNL d   1      15.390  50.138  -5.233 -0.10 -0.03    +0.194    49.308
ATOM      5  C   UNL d   1      16.189  49.471  -6.345 -0.05 -0.02    +0.194    49.308
ATOM      6  C   UNL d   1      16.340  50.330  -7.602 -0.02 -0.01    +0.194    49.308
ATOM      7  O   UNL d   1      15.324  51.875  -9.107 -0.00 +0.01    -0.278    49.308
ATOM      8  P   UNL d   1      16.554  52.872  -8.895 -0.00 -0.02    +0.473    49.308
ATOM      9  O   UNL d   1      17.324  52.664  -7.638 -0.00 +0.01    -0.228    49.308
ATOM     10  O   UNL d   1      17.436  52.684 -10.211 +0.00 +0.01    -0.303    49.308
ATOM     11  H   UNL d   1      17.685  51.746 -10.306 +0.00 -0.01    +0.222    49.308
ATOM     12  O   UNL d   1      15.948  54.325  -9.105 +0.00 +0.01    -0.303    49.308
ATOM     13  H   UNL d   1      15.303  54.579  -8.407 +0.00 -0.01    +0.222    49.308
ATOM     14  O   UNL d   1      15.104  52.828  -6.566 -0.01 +0.03    -0.278    49.308
ATOM     15  P   UNL d   1      14.347  54.236  -6.479 +0.02 -0.04    +0.473    49.308
ATOM     16  O   UNL d   1      13.319  54.513  -7.530 -0.00 +0.01    -0.228    49.308
ATOM     17  O   UNL d   1      13.745  54.262  -5.004 -0.02 +0.05    -0.303    49.308
ATOM     18  H   UNL d   1      14.316  53.771  -4.383 +0.06 -0.04    +0.222    49.308
ATOM     19  O   UNL d   1      15.516  55.309  -6.365 +0.00 +0.03    -0.303    49.308
ATOM     20  H   UNL d   1      16.178  55.198  -7.073 +0.00 -0.01    +0.222    49.308
ATOM     21  O   UNL d   1      16.791  49.465  -8.641 -0.01 +0.02    -0.278    49.308
ATOM     22  P   UNL d   1      16.195  47.990  -8.758 -0.03 -0.04    +0.473    49.308
ATOM     23  O   UNL d   1      16.543  47.003  -7.695 -0.11 +0.02    -0.228    49.308
ATOM     24  O   UNL d   1      14.638  48.280  -8.916 -0.08 +0.03    -0.303    49.308
ATOM     25  H   UNL d   1      14.145  47.621  -8.363 +0.07 -0.02    +0.222    49.308
ATOM     26  O   UNL d   1      16.611  47.589 -10.254 -0.02 +0.02    -0.303    49.308
ATOM     27  H   UNL d   1      17.576  47.428 -10.287 +0.03 -0.01    +0.222    49.308
ATOM     28  O   UNL d   1      13.704  51.658  -4.639 -0.14 +0.07    -0.278    49.308
ATOM     29  P   UNL d   1      14.659  51.874  -3.382 -0.20 -0.11    +0.473    49.308
ATOM     30  O   UNL d   1      16.060  52.251  -3.700 -0.14 +0.04    -0.228    49.308
ATOM     31  O   UNL d   1      13.792  52.931  -2.551 -0.60 +0.11    -0.303    49.308
ATOM     32  H   UNL d   1      13.212  53.422  -3.177 +0.06 -0.08    +0.222    49.308
ATOM     33  O   UNL d   1      14.445  50.524  -2.565 -0.68 +0.07    -0.303    49.308
ATOM     34  H   UNL d   1      13.649  50.057  -2.918 -0.37 -0.12    +0.222    49.308
ATOM     35  O   UNL d   1      17.497  49.269  -5.814 -0.03 +0.03    -0.278    49.308
ATOM     36  P   UNL d   1      17.689  48.600  -4.379 -0.06 -0.11    +0.473    49.308
ATOM     37  O   UNL d   1      16.878  47.368  -4.128 -0.24 +0.06    -0.228    49.308
ATOM     38  O   UNL d   1      19.264  48.367  -4.335 -0.08 +0.05    -0.303    49.308
ATOM     39  H   UNL d   1      19.508  47.985  -3.465 -0.01 -0.06    +0.222    49.308
ATOM     40  O   UNL d   1      17.456  49.829  -3.397 -0.15 +0.08    -0.303    49.308
ATOM     41  H   UNL d   1      16.517  50.117  -3.390 +0.09 -0.05    +0.222    49.308
ATOM     42  O   UNL d   1      15.003  49.109  -4.316 -0.19 +0.06    -0.278    49.308
ATOM     43  P   UNL d   1      13.815  48.124  -4.719 -0.22 -0.12    +0.473    49.308
ATOM     44  O   UNL d   1      13.811  46.766  -4.107 -0.36 +0.09    -0.228    49.308
ATOM     45  O   UNL d   1      12.519  48.989  -4.394 -0.36 +0.13    -0.303    49.308
ATOM     46  H   UNL d   1      12.744  49.794  -3.887 -0.39 -0.13    +0.222    49.308
ATOM     47  O   UNL d   1      13.837  48.160  -6.322 -0.19 +0.04    -0.303    49.308
ATOM     48  H   UNL d   1      14.673  47.764  -6.642 +0.10 -0.03    +0.222    49.308
TER
ENDMDL
MODEL       88
USER    Run = 88
USER    Cluster Rank = 9
USER    Number of conformations in this cluster = 1
USER  
USER    RMSD from reference structure       = 36.940 A
USER  
USER    Estimated Free Energy of Binding    =   +2.58 kcal/mol  [=(1)+(2)+(3)-(4)]
USER    
USER    (1) Final Intermolecular Energy     =   -4.58 kcal/mol
USER        vdW + Hbond + desolv Energy     =   -3.94 kcal/mol
USER        Electrostatic Energy            =   -0.64 kcal/mol
USER    (2) Final Total Internal Energy     =  -13.33 kcal/mol
USER    (3) Torsional Free Energy           =   +7.16 kcal/mol
USER    (4) Unbound System's Energy  [=(2)] =  -13.33 kcal/mol
USER    
USER    
USER  
USER    DPF = D:/Protein_go_brrr/autodock/final/6BB5/IHP/dock.dpf
USER    NEWDPF move	IHP_ideal_opt.pdbqt
USER    NEWDPF about	0.035000 0.082000 -0.065000
USER    NEWDPF tran0	-2.538022 36.632491 16.159573
USER    NEWDPF axisangle0	0.913687 -0.062041 0.401656 172.880141
USER    NEWDPF quaternion0	0.911924 -0.061922 0.400881 0.062093
USER    NEWDPF dihe0	123.11 43.60 89.65 51.40 126.17 146.11 -66.98 -17.93 25.52 104.84 129.35 147.76 -7.55 116.68 180.00 -161.72 -46.95 90.06 -5.86 -19.95 -3.94 4.86 164.82 -7.51 
USER  
USER                              x       y       z    vdW   Elec        q     RMS 
ATOM      1  C   UNL d   1      -1.057  37.353  16.680 -0.08 -0.09    +0.194    36.940
ATOM      2  C   UNL d   1      -2.116  38.324  16.156 -0.03 -0.15    +0.194    36.940
ATOM      3  C   UNL d   1      -2.793  37.795  14.889 -0.11 -0.09    +0.194    36.940
ATOM      4  C   UNL d   1      -3.337  36.377  15.046 -0.04 -0.03    +0.194    36.940
ATOM      5  C   UNL d   1      -2.350  35.400  15.672 -0.05 -0.03    +0.194    36.940
ATOM      6  C   UNL d   1      -1.628  35.952  16.903 -0.05 -0.04    +0.194    36.940
ATOM      7  O   UNL d   1      -0.599  37.833  17.946 -0.12 +0.11    -0.278    36.940
ATOM      8  P   UNL d   1       0.974  37.993  18.175 -0.27 -0.14    +0.473    36.940
ATOM      9  O   UNL d   1       1.715  38.619  17.046 -0.73 +0.11    -0.228    36.940
ATOM     10  O   UNL d   1       1.086  38.819  19.535 -0.16 +0.07    -0.303    36.940
ATOM     11  H   UNL d   1       0.349  39.456  19.592 +0.07 -0.06    +0.222    36.940
ATOM     12  O   UNL d   1       1.474  36.552  18.619 -0.52 +0.06    -0.303    36.940
ATOM     13  H   UNL d   1       0.746  35.894  18.685 +0.07 -0.04    +0.222    36.940
ATOM     14  O   UNL d   1      -3.117  38.512  17.164 -0.04 +0.11    -0.278    36.940
ATOM     15  P   UNL d   1      -3.184  39.960  17.845 -0.01 -0.19    +0.473    36.940
ATOM     16  O   UNL d   1      -4.338  40.218  18.763 -0.00 +0.04    -0.228    36.940
ATOM     17  O   UNL d   1      -1.773  40.115  18.567 -0.04 +0.14    -0.303    36.940
ATOM     18  H   UNL d   1      -1.258  39.287  18.513 +0.05 -0.10    +0.222    36.940
ATOM     19  O   UNL d   1      -3.034  40.977  16.630 -0.04 +0.23    -0.303    36.940
ATOM     20  H   UNL d   1      -2.810  40.517  15.801 -0.41 -0.27    +0.222    36.940
ATOM     21  O   UNL d   1      -0.525  35.086  17.157 -0.02 +0.04    -0.278    36.940
ATOM     22  P   UNL d   1      -0.579  34.075  18.390 -0.04 -0.06    +0.473    36.940
ATOM     23  O   UNL d   1       0.704  33.704  19.054 -0.13 +0.05    -0.228    36.940
ATOM     24  O   UNL d   1      -1.644  34.778  19.341 -0.01 +0.03    -0.303    36.940
ATOM     25  H   UNL d   1      -2.500  34.848  18.846 +0.02 -0.02    +0.222    36.940
ATOM     26  O   UNL d   1      -1.430  32.862  17.779 -0.02 +0.02    -0.303    36.940
ATOM     27  H   UNL d   1      -2.029  33.206  17.085 +0.02 -0.02    +0.222    36.940
ATOM     28  O   UNL d   1      -3.930  38.611  14.639 -0.05 +0.07    -0.278    36.940
ATOM     29  P   UNL d   1      -4.002  39.511  13.327 -0.08 +0.05    +0.473    36.940
ATOM     30  O   UNL d   1      -5.305  40.181  13.081 -0.02 -0.03    -0.228    36.940
ATOM     31  O   UNL d   1      -2.734  40.456  13.567 -0.13 +0.14    -0.303    36.940
ATOM     32  H   UNL d   1      -2.460  40.381  14.511 -0.42 -0.38    +0.222    36.940
ATOM     33  O   UNL d   1      -3.486  38.507  12.205 -0.52 -0.22    -0.303    36.940
ATOM     34  H   UNL d   1      -3.878  37.614  12.367 +0.03 +0.06    +0.222    36.940
ATOM     35  O   UNL d   1      -3.131  34.288  16.107 -0.02 +0.02    -0.278    36.940
ATOM     36  P   UNL d   1      -4.221  34.471  17.257 +0.00 -0.03    +0.473    36.940
ATOM     37  O   UNL d   1      -4.304  35.840  17.855 -0.00 +0.02    -0.228    36.940
ATOM     38  O   UNL d   1      -5.552  33.996  16.523 -0.00 +0.01    -0.303    36.940
ATOM     39  H   UNL d   1      -5.582  34.392  15.625 +0.00 -0.01    +0.222    36.940
ATOM     40  O   UNL d   1      -3.879  33.272  18.244 -0.00 +0.02    -0.303    36.940
ATOM     41  H   UNL d   1      -2.981  33.364  18.631 +0.01 -0.01    +0.222    36.940
ATOM     42  O   UNL d   1      -3.626  35.897  13.729 -0.02 +0.01    -0.278    36.940
ATOM     43  P   UNL d   1      -5.128  35.503  13.364 +0.01 +0.01    +0.473    36.940
ATOM     44  O   UNL d   1      -5.660  35.963  12.051 -0.00 -0.02    -0.228    36.940
ATOM     45  O   UNL d   1      -5.130  33.923  13.550 +0.00 +0.00    -0.303    36.940
ATOM     46  H   UNL d   1      -4.841  33.668  14.449 +0.01 -0.00    +0.222    36.940
ATOM     47  O   UNL d   1      -5.955  35.983  14.651 +0.00 +0.00    -0.303    36.940
ATOM     48  H   UNL d   1      -5.399  35.874  15.451 +0.01 -0.01    +0.222    36.940
TER
ENDMDL
MODEL       26
USER    Run = 26
USER    Cluster Rank = 10
USER    Number of conformations in this cluster = 1
USER  
USER    RMSD from reference structure       = 47.980 A
USER  
USER    Estimated Free Energy of Binding    =   +2.62 kcal/mol  [=(1)+(2)+(3)-(4)]
USER    
USER    (1) Final Intermolecular Energy     =   -4.54 kcal/mol
USER        vdW + Hbond + desolv Energy     =   -4.41 kcal/mol
USER        Electrostatic Energy            =   -0.13 kcal/mol
USER    (2) Final Total Internal Energy     =  -12.50 kcal/mol
USER    (3) Torsional Free Energy           =   +7.16 kcal/mol
USER    (4) Unbound System's Energy  [=(2)] =  -12.50 kcal/mol
USER    
USER    
USER  
USER    DPF = D:/Protein_go_brrr/autodock/final/6BB5/IHP/dock.dpf
USER    NEWDPF move	IHP_ideal_opt.pdbqt
USER    NEWDPF about	0.035000 0.082000 -0.065000
USER    NEWDPF tran0	18.907098 47.424188 -5.694571
USER    NEWDPF axisangle0	-0.851016 0.174530 0.495288 -160.015306
USER    NEWDPF quaternion0	-0.838107 0.171883 0.487775 -0.173517
USER    NEWDPF dihe0	149.01 150.12 36.73 -25.88 94.31 151.73 75.92 -79.55 0.62 139.61 6.90 -133.29 63.59 163.54 -119.75 -117.87 -4.90 -18.94 66.42 4.61 -64.54 5.84 123.49 173.26 
USER  
USER                              x       y       z    vdW   Elec        q     RMS 
ATOM      1  C   UNL d   1      19.296  48.420  -7.051 -0.02 -0.01    +0.194    47.980
ATOM      2  C   UNL d   1      19.363  49.107  -5.686 -0.03 -0.02    +0.194    47.980
ATOM      3  C   UNL d   1      18.175  48.727  -4.801 -0.11 -0.03    +0.194    47.980
ATOM      4  C   UNL d   1      17.975  47.218  -4.679 -0.21 -0.04    +0.194    47.980
ATOM      5  C   UNL d   1      18.016  46.477  -6.009 -0.20 -0.02    +0.194    47.980
ATOM      6  C   UNL d   1      19.170  46.902  -6.920 -0.06 -0.01    +0.194    47.980
ATOM      7  O   UNL d   1      20.517  48.687  -7.745 -0.00 +0.00    -0.278    47.980
ATOM      8  P   UNL d   1      20.949  50.209  -7.964 +0.00 -0.01    +0.473    47.980
ATOM      9  O   UNL d   1      22.199  50.617  -7.267 -0.00 +0.00    -0.228    47.980
ATOM     10  O   UNL d   1      21.035  50.363  -9.550 +0.00 +0.00    -0.303    47.980
ATOM     11  H   UNL d   1      20.948  49.486  -9.968 +0.00 -0.00    +0.222    47.980
ATOM     12  O   UNL d   1      19.652  51.060  -7.618 -0.00 +0.01    -0.303    47.980
ATOM     13  H   UNL d   1      19.709  51.511  -6.746 +0.00 -0.01    +0.222    47.980
ATOM     14  O   UNL d   1      20.571  48.712  -5.023 -0.02 +0.02    -0.278    47.980
ATOM     15  P   UNL d   1      21.398  49.872  -4.291 +0.00 -0.03    +0.473    47.980
ATOM     16  O   UNL d   1      22.889  49.800  -4.392 -0.01 +0.00    -0.228    47.980
ATOM     17  O   UNL d   1      20.801  51.217  -4.901 -0.00 +0.02    -0.303    47.980
ATOM     18  H   UNL d   1      20.911  51.242  -5.871 +0.01 -0.01    +0.222    47.980
ATOM     19  O   UNL d   1      20.812  49.904  -2.813 -0.04 +0.04    -0.303    47.980
ATOM     20  H   UNL d   1      20.016  50.464  -2.752 +0.05 -0.03    +0.222    47.980
ATOM     21  O   UNL d   1      18.878  46.392  -8.219 -0.04 -0.00    -0.278    47.980
ATOM     22  P   UNL d   1      20.015  46.381  -9.339 -0.00 +0.02    +0.473    47.980
ATOM     23  O   UNL d   1      20.153  47.580 -10.215 -0.00 -0.00    -0.228    47.980
ATOM     24  O   UNL d   1      21.310  46.026  -8.484 -0.01 -0.01    -0.303    47.980
ATOM     25  H   UNL d   1      21.025  45.491  -7.700 +0.05 +0.01    +0.222    47.980
ATOM     26  O   UNL d   1      19.722  44.994 -10.087 -0.04 -0.03    -0.303    47.980
ATOM     27  H   UNL d   1      19.225  44.403  -9.485 +0.05 +0.04    +0.222    47.980
ATOM     28  O   UNL d   1      18.460  49.178  -3.483 -0.11 +0.08    -0.278    47.980
ATOM     29  P   UNL d   1      17.549  50.291  -2.799 -0.18 -0.13    +0.473    47.980
ATOM     30  O   UNL d   1      18.265  51.258  -1.929 -0.26 +0.05    -0.228    47.980
ATOM     31  O   UNL d   1      16.813  50.882  -4.091 -0.07 +0.05    -0.303    47.980
ATOM     32  H   UNL d   1      15.841  50.870  -3.932 +0.09 -0.04    +0.222    47.980
ATOM     33  O   UNL d   1      16.409  49.415  -2.115 -0.16 +0.11    -0.303    47.980
ATOM     34  H   UNL d   1      16.377  48.529  -2.554 -0.24 -0.10    +0.222    47.980
ATOM     35  O   UNL d   1      18.224  45.104  -5.681 -0.29 +0.01    -0.278    47.980
ATOM     36  P   UNL d   1      19.646  44.425  -5.925 -0.25 +0.02    +0.473    47.980
ATOM     37  O   UNL d   1      20.832  45.279  -5.603 -0.15 -0.00    -0.228    47.980
ATOM     38  O   UNL d   1      19.532  43.104  -5.044 -0.40 -0.02    -0.303    47.980
ATOM     39  H   UNL d   1      19.530  43.351  -4.094 -0.32 -0.03    +0.222    47.980
ATOM     40  O   UNL d   1      19.520  43.900  -7.421 -0.17 -0.05    -0.303    47.980
ATOM     41  H   UNL d   1      19.932  44.521  -8.061 +0.06 +0.03    +0.222    47.980
ATOM     42  O   UNL d   1      16.670  47.016  -4.125 -0.20 +0.06    -0.278    47.980
ATOM     43  P   UNL d   1      15.398  47.524  -4.942 -0.24 -0.10    +0.473    47.980
ATOM     44  O   UNL d   1      15.524  47.612  -6.423 -0.17 +0.03    -0.228    47.980
ATOM     45  O   UNL d   1      14.249  46.543  -4.443 -0.37 +0.11    -0.303    47.980
ATOM     46  H   UNL d   1      14.415  45.622  -4.728 -0.25 -0.15    +0.222    47.980
ATOM     47  O   UNL d   1      15.006  48.889  -4.198 -0.19 +0.07    -0.303    47.980
ATOM     48  H   UNL d   1      15.817  49.418  -4.047 +0.11 -0.05    +0.222    47.980
TER
ENDMDL
MODEL       82
USER    Run = 82
USER    Cluster Rank = 11
USER    Number of conformations in this cluster = 1
USER  
USER    RMSD from reference structure       = 25.359 A
USER  
USER    Estimated Free Energy of Binding    =   +2.69 kcal/mol  [=(1)+(2)+(3)-(4)]
USER    
USER    (1) Final Intermolecular Energy     =   -4.47 kcal/mol
USER        vdW + Hbond + desolv Energy     =   -3.91 kcal/mol
USER        Electrostatic Energy            =   -0.56 kcal/mol
USER    (2) Final Total Internal Energy     =  -13.63 kcal/mol
USER    (3) Torsional Free Energy           =   +7.16 kcal/mol
USER    (4) Unbound System's Energy  [=(2)] =  -13.63 kcal/mol
USER    
USER    
USER  
USER    DPF = D:/Protein_go_brrr/autodock/final/6BB5/IHP/dock.dpf
USER    NEWDPF move	IHP_ideal_opt.pdbqt
USER    NEWDPF about	0.035000 0.082000 -0.065000
USER    NEWDPF tran0	-0.480503 28.913262 2.336018
USER    NEWDPF axisangle0	-0.289563 0.887484 0.358504 -142.695781
USER    NEWDPF quaternion0	-0.274355 0.840872 0.339674 -0.319821
USER    NEWDPF dihe0	-128.67 -16.03 153.78 7.42 21.97 -147.08 88.11 -113.35 -156.93 -17.87 166.12 169.38 98.52 -141.81 -4.13 -44.84 164.19 0.53 -26.11 7.41 148.50 143.11 -179.96 135.45 
USER  
USER                              x       y       z    vdW   Elec        q     RMS 
ATOM      1  C   UNL d   1      -0.408  28.649   0.630 -0.05 -0.02    +0.194    25.359
ATOM      2  C   UNL d   1       0.813  28.180   1.424 -0.12 -0.04    +0.194    25.359
ATOM      3  C   UNL d   1       1.229  29.206   2.481 -0.12 -0.03    +0.194    25.359
ATOM      4  C   UNL d   1       0.080  29.635   3.389 -0.05 -0.03    +0.194    25.359
ATOM      5  C   UNL d   1      -1.197  30.001   2.643 -0.02 -0.02    +0.194    25.359
ATOM      6  C   UNL d   1      -1.580  29.007   1.545 -0.01 -0.02    +0.194    25.359
ATOM      7  O   UNL d   1      -0.835  27.572  -0.207 -0.05 +0.05    -0.278    25.359
ATOM      8  P   UNL d   1      -1.513  27.924  -1.610 -0.04 -0.05    +0.473    25.359
ATOM      9  O   UNL d   1      -1.307  26.913  -2.683 -0.09 +0.03    -0.228    25.359
ATOM     10  O   UNL d   1      -3.050  28.153  -1.250 -0.00 +0.02    -0.303    25.359
ATOM     11  H   UNL d   1      -3.154  29.005  -0.787 +0.01 -0.01    +0.222    25.359
ATOM     12  O   UNL d   1      -1.027  29.400  -1.945 -0.02 +0.02    -0.303    25.359
ATOM     13  H   UNL d   1      -1.313  30.061  -1.275 +0.02 -0.01    +0.222    25.359
ATOM     14  O   UNL d   1       0.496  26.948   2.085 -0.07 +0.10    -0.278    25.359
ATOM     15  P   UNL d   1       1.636  25.824   2.087 -0.11 -0.23    +0.473    25.359
ATOM     16  O   UNL d   1       1.686  24.915   0.899 -0.29 +0.08    -0.228    25.359
ATOM     17  O   UNL d   1       2.987  26.642   2.295 -0.16 +0.11    -0.303    25.359
ATOM     18  H   UNL d   1       2.960  27.161   3.121 +0.14 -0.08    +0.222    25.359
ATOM     19  O   UNL d   1       1.479  25.103   3.496 -0.19 +0.32    -0.303    25.359
ATOM     20  H   UNL d   1       1.483  25.744   4.231 -0.27 -0.35    +0.222    25.359
ATOM     21  O   UNL d   1      -2.563  29.646   0.734 -0.00 +0.01    -0.278    25.359
ATOM     22  P   UNL d   1      -2.336  31.151   0.254 +0.00 +0.01    +0.473    25.359
ATOM     23  O   UNL d   1      -0.936  31.650   0.138 -0.01 -0.01    -0.228    25.359
ATOM     24  O   UNL d   1      -3.173  31.190  -1.099 +0.00 -0.01    -0.303    25.359
ATOM     25  H   UNL d   1      -2.975  30.363  -1.608 +0.00 -0.00    +0.222    25.359
ATOM     26  O   UNL d   1      -3.291  31.960   1.257 -0.00 -0.01    -0.303    25.359
ATOM     27  H   UNL d   1      -3.236  31.557   2.148 +0.00 +0.00    +0.222    25.359
ATOM     28  O   UNL d   1       2.174  28.578   3.338 -0.17 +0.07    -0.278    25.359
ATOM     29  P   UNL d   1       1.756  28.140   4.811 -0.16 -0.26    +0.473    25.359
ATOM     30  O   UNL d   1       1.536  29.251   5.772 -0.28 +0.08    -0.228    25.359
ATOM     31  O   UNL d   1       0.498  27.208   4.479 -0.10 +0.27    -0.303    25.359
ATOM     32  H   UNL d   1       0.526  26.421   5.071 -0.46 -0.48    +0.222    25.359
ATOM     33  O   UNL d   1       2.889  27.084   5.180 -0.23 +0.23    -0.303    25.359
ATOM     34  H   UNL d   1       2.921  26.389   4.477 +0.08 -0.18    +0.222    25.359
ATOM     35  O   UNL d   1      -2.237  29.971   3.618 -0.00 +0.02    -0.278    25.359
ATOM     36  P   UNL d   1      -2.395  28.714   4.588 +0.01 -0.10    +0.473    25.359
ATOM     37  O   UNL d   1      -3.784  28.441   5.070 -0.00 +0.03    -0.228    25.359
ATOM     38  O   UNL d   1      -1.765  27.544   3.710 -0.01 +0.10    -0.303    25.359
ATOM     39  H   UNL d   1      -1.144  27.025   4.264 +0.03 -0.13    +0.222    25.359
ATOM     40  O   UNL d   1      -1.290  28.998   5.695 -0.03 +0.09    -0.303    25.359
ATOM     41  H   UNL d   1      -0.390  29.059   5.305 +0.06 -0.07    +0.222    25.359
ATOM     42  O   UNL d   1       0.514  30.810   4.082 -0.07 +0.02    -0.278    25.359
ATOM     43  P   UNL d   1       1.655  31.713   3.428 -0.16 -0.01    +0.473    25.359
ATOM     44  O   UNL d   1       1.523  32.045   1.981 -0.10 -0.01    -0.228    25.359
ATOM     45  O   UNL d   1       1.686  32.983   4.386 -0.22 -0.02    -0.303    25.359
ATOM     46  H   UNL d   1       2.352  32.880   5.096 -0.42 -0.05    +0.222    25.359
ATOM     47  O   UNL d   1       3.005  30.957   3.844 -0.25 +0.02    -0.303    25.359
ATOM     48  H   UNL d   1       2.800  30.279   4.521 +0.11 -0.03    +0.222    25.359
TER
ENDMDL
MODEL       67
USER    Run = 67
USER    Cluster Rank = 12
USER    Number of conformations in this cluster = 1
USER  
USER    RMSD from reference structure       = 44.326 A
USER  
USER    Estimated Free Energy of Binding    =   +2.69 kcal/mol  [=(1)+(2)+(3)-(4)]
USER    
USER    (1) Final Intermolecular Energy     =   -4.47 kcal/mol
USER        vdW + Hbond + desolv Energy     =   -3.86 kcal/mol
USER        Electrostatic Energy            =   -0.61 kcal/mol
USER    (2) Final Total Internal Energy     =  -13.68 kcal/mol
USER    (3) Torsional Free Energy           =   +7.16 kcal/mol
USER    (4) Unbound System's Energy  [=(2)] =  -13.68 kcal/mol
USER    
USER    
USER  
USER    DPF = D:/Protein_go_brrr/autodock/final/6BB5/IHP/dock.dpf
USER    NEWDPF move	IHP_ideal_opt.pdbqt
USER    NEWDPF about	0.035000 0.082000 -0.065000
USER    NEWDPF tran0	-2.262128 44.458887 16.636692
USER    NEWDPF axisangle0	0.158761 -0.388436 -0.907696 136.540101
USER    NEWDPF quaternion0	0.147479 -0.360833 -0.843195 0.370232
USER    NEWDPF dihe0	180.00 108.56 119.84 -18.58 29.69 -23.70 -129.36 -19.95 -179.95 6.82 46.86 114.36 132.43 165.19 -54.58 -172.16 -180.00 -174.31 41.06 0.85 -170.64 -11.89 -173.64 17.69 
USER  
USER                              x       y       z    vdW   Elec        q     RMS 
ATOM      1  C   UNL d   1      -2.454  46.089  16.098 +0.01 -0.01    +0.194    44.326
ATOM      2  C   UNL d   1      -1.021  45.552  16.083 -0.01 -0.02    +0.194    44.326
ATOM      3  C   UNL d   1      -0.702  44.755  17.350 -0.02 -0.04    +0.194    44.326
ATOM      4  C   UNL d   1      -1.725  43.662  17.647 -0.02 -0.06    +0.194    44.326
ATOM      5  C   UNL d   1      -3.173  44.127  17.559 -0.00 -0.03    +0.194    44.326
ATOM      6  C   UNL d   1      -3.478  44.976  16.323 +0.01 -0.02    +0.194    44.326
ATOM      7  O   UNL d   1      -2.726  46.666  14.818 +0.01 -0.01    -0.278    44.326
ATOM      8  P   UNL d   1      -2.214  48.152  14.531 +0.01 +0.03    +0.473    44.326
ATOM      9  O   UNL d   1      -2.619  48.715  13.215 +0.00 -0.02    -0.228    44.326
ATOM     10  O   UNL d   1      -2.760  48.996  15.770 +0.00 -0.01    -0.303    44.326
ATOM     11  H   UNL d   1      -2.935  48.398  16.521 +0.00 +0.00    +0.222    44.326
ATOM     12  O   UNL d   1      -0.652  48.113  14.819 -0.00 -0.04    -0.303    44.326
ATOM     13  H   UNL d   1      -0.163  47.513  14.211 +0.02 +0.07    +0.222    44.326
ATOM     14  O   UNL d   1      -0.857  44.691  14.949 -0.06 +0.03    -0.278    44.326
ATOM     15  P   UNL d   1       0.449  44.930  14.053 -0.06 +0.18    +0.473    44.326
ATOM     16  O   UNL d   1       0.271  44.840  12.569 -0.29 -0.15    -0.228    44.326
ATOM     17  O   UNL d   1       0.988  46.353  14.525 -0.36 -0.19    -0.303    44.326
ATOM     18  H   UNL d   1       0.687  46.560  15.430 +0.04 +0.04    +0.222    44.326
ATOM     19  O   UNL d   1       1.540  43.953  14.673 -0.44 +0.05    -0.303    44.326
ATOM     20  H   UNL d   1       1.927  44.318  15.491 -0.21 -0.13    +0.222    44.326
ATOM     21  O   UNL d   1      -4.736  45.605  16.555 +0.00 +0.01    -0.278    44.326
ATOM     22  P   UNL d   1      -4.793  46.999  17.328 +0.00 -0.01    +0.473    44.326
ATOM     23  O   UNL d   1      -3.671  47.340  18.251 +0.00 +0.01    -0.228    44.326
ATOM     24  O   UNL d   1      -5.009  48.027  16.132 +0.00 -0.00    -0.303    44.326
ATOM     25  H   UNL d   1      -4.491  47.704  15.352 +0.00 +0.00    +0.222    44.326
ATOM     26  O   UNL d   1      -6.253  46.946  17.987 +0.00 +0.00    -0.303    44.326
ATOM     27  H   UNL d   1      -6.304  47.604  18.710 +0.00 -0.00    +0.222    44.326
ATOM     28  O   UNL d   1       0.526  44.073  17.129 -0.09 +0.09    -0.278    44.326
ATOM     29  P   UNL d   1       1.890  44.669  17.693 -0.09 -0.15    +0.473    44.326
ATOM     30  O   UNL d   1       3.021  43.710  17.781 -0.71 +0.06    -0.228    44.326
ATOM     31  O   UNL d   1       2.075  45.921  16.713 -0.09 +0.11    -0.303    44.326
ATOM     32  H   UNL d   1       2.412  45.594  15.847 -0.46 -0.16    +0.222    44.326
ATOM     33  O   UNL d   1       1.420  45.353  19.052 -0.02 +0.04    -0.303    44.326
ATOM     34  H   UNL d   1       0.744  44.776  19.485 +0.03 -0.03    +0.222    44.326
ATOM     35  O   UNL d   1      -3.956  42.939  17.456 -0.00 +0.05    -0.278    44.326
ATOM     36  P   UNL d   1      -3.490  41.750  16.500 -0.01 -0.22    +0.473    44.326
ATOM     37  O   UNL d   1      -4.566  41.141  15.657 -0.02 +0.06    -0.228    44.326
ATOM     38  O   UNL d   1      -2.319  42.439  15.669 +0.01 +0.27    -0.303    44.326
ATOM     39  H   UNL d   1      -1.460  42.051  15.942 -0.41 -0.45    +0.222    44.326
ATOM     40  O   UNL d   1      -2.728  40.783  17.507 -0.04 +0.18    -0.303    44.326
ATOM     41  H   UNL d   1      -2.252  41.286  18.205 +0.02 -0.11    +0.222    44.326
ATOM     42  O   UNL d   1      -1.500  43.238  18.995 -0.01 +0.06    -0.278    44.326
ATOM     43  P   UNL d   1      -0.542  41.991  19.262 -0.03 -0.14    +0.473    44.326
ATOM     44  O   UNL d   1      -1.066  40.895  20.124 -0.02 +0.05    -0.228    44.326
ATOM     45  O   UNL d   1      -0.150  41.531  17.790 -0.13 +0.25    -0.303    44.326
ATOM     46  H   UNL d   1      -0.837  41.784  17.141 -0.40 -0.28    +0.222    44.326
ATOM     47  O   UNL d   1       0.818  42.674  19.764 -0.07 +0.06    -0.303    44.326
ATOM     48  H   UNL d   1       1.215  43.183  19.026 +0.05 -0.05    +0.222    44.326
TER
ENDMDL
MODEL       50
USER    Run = 50
USER    Cluster Rank = 13
USER    Number of conformations in this cluster = 1
USER  
USER    RMSD from reference structure       = 30.132 A
USER  
USER    Estimated Free Energy of Binding    =   +2.73 kcal/mol  [=(1)+(2)+(3)-(4)]
USER    
USER    (1) Final Intermolecular Energy     =   -4.43 kcal/mol
USER        vdW + Hbond + desolv Energy     =   -4.15 kcal/mol
USER        Electrostatic Energy            =   -0.28 kcal/mol
USER    (2) Final Total Internal Energy     =  -14.05 kcal/mol
USER    (3) Torsional Free Energy           =   +7.16 kcal/mol
USER    (4) Unbound System's Energy  [=(2)] =  -14.05 kcal/mol
USER    
USER    
USER  
USER    DPF = D:/Protein_go_brrr/autodock/final/6BB5/IHP/dock.dpf
USER    NEWDPF move	IHP_ideal_opt.pdbqt
USER    NEWDPF about	0.035000 0.082000 -0.065000
USER    NEWDPF tran0	21.758204 25.459204 -6.712929
USER    NEWDPF axisangle0	-0.170145 0.902771 0.395037 75.815821
USER    NEWDPF quaternion0	-0.104536 0.554657 0.242709 0.788999
USER    NEWDPF dihe0	96.96 -131.55 9.90 -14.54 119.31 -177.74 -99.81 -32.42 24.59 74.66 90.22 -93.37 -51.09 161.53 175.27 -162.59 -71.34 79.43 62.86 0.61 22.62 -8.66 180.00 24.31 
USER  
USER                              x       y       z    vdW   Elec        q     RMS 
ATOM      1  C   UNL d   1      21.123  24.153  -5.778 -0.16 -0.05    +0.194    30.132
ATOM      2  C   UNL d   1      20.917  24.045  -7.290 -0.15 -0.05    +0.194    30.132
ATOM      3  C   UNL d   1      20.487  25.381  -7.900 -0.20 -0.06    +0.194    30.132
ATOM      4  C   UNL d   1      21.410  26.538  -7.524 -0.17 -0.12    +0.194    30.132
ATOM      5  C   UNL d   1      21.735  26.615  -6.038 -0.07 -0.17    +0.194    30.132
ATOM      6  C   UNL d   1      22.105  25.267  -5.415 -0.14 -0.08    +0.194    30.132
ATOM      7  O   UNL d   1      21.685  22.922  -5.316 -0.06 +0.06    -0.278    30.132
ATOM      8  P   UNL d   1      20.859  21.575  -5.550 -0.12 -0.10    +0.473    30.132
ATOM      9  O   UNL d   1      19.560  21.746  -6.256 -0.52 +0.06    -0.228    30.132
ATOM     10  O   UNL d   1      21.877  20.627  -6.331 -0.03 +0.06    -0.303    30.132
ATOM     11  H   UNL d   1      22.126  21.042  -7.178 +0.04 -0.05    +0.222    30.132
ATOM     12  O   UNL d   1      20.787  20.881  -4.123 -0.12 +0.07    -0.303    30.132
ATOM     13  H   UNL d   1      20.340  20.005  -4.142 +0.06 -0.06    +0.222    30.132
ATOM     14  O   UNL d   1      22.148  23.639  -7.902 -0.02 +0.06    -0.278    30.132
ATOM     15  P   UNL d   1      22.060  22.441  -8.961 -0.00 -0.09    +0.473    30.132
ATOM     16  O   UNL d   1      23.196  21.467  -8.969 -0.01 +0.04    -0.228    30.132
ATOM     17  O   UNL d   1      20.658  21.752  -8.651 -0.08 +0.09    -0.303    30.132
ATOM     18  H   UNL d   1      20.742  21.088  -7.940 +0.05 -0.07    +0.222    30.132
ATOM     19  O   UNL d   1      21.763  23.160 -10.348 -0.01 +0.06    -0.303    30.132
ATOM     20  H   UNL d   1      20.841  23.473 -10.402 +0.03 -0.05    +0.222    30.132
ATOM     21  O   UNL d   1      22.041  25.435  -4.000 -0.14 +0.12    -0.278    30.132
ATOM     22  P   UNL d   1      23.252  26.132  -3.230 -0.14 -0.26    +0.473    30.132
ATOM     23  O   UNL d   1      23.455  25.802  -1.790 -0.13 +0.12    -0.228    30.132
ATOM     24  O   UNL d   1      24.483  25.782  -4.176 -0.03 +0.12    -0.303    30.132
ATOM     25  H   UNL d   1      24.258  26.071  -5.096 +0.04 -0.10    +0.222    30.132
ATOM     26  O   UNL d   1      23.005  27.680  -3.568 -0.21 +0.39    -0.303    30.132
ATOM     27  H   UNL d   1      22.142  27.777  -4.020 -0.41 -0.41    +0.222    30.132
ATOM     28  O   UNL d   1      20.591  25.260  -9.313 -0.07 +0.07    -0.278    30.132
ATOM     29  P   UNL d   1      19.287  25.026 -10.198 -0.09 -0.11    +0.473    30.132
ATOM     30  O   UNL d   1      19.486  25.112 -11.667 -0.04 +0.04    -0.228    30.132
ATOM     31  O   UNL d   1      18.801  23.618  -9.612 -0.19 +0.08    -0.303    30.132
ATOM     32  H   UNL d   1      19.573  23.007  -9.583 +0.05 -0.07    +0.222    30.132
ATOM     33  O   UNL d   1      18.255  26.051  -9.550 -0.08 +0.07    -0.303    30.132
ATOM     34  H   UNL d   1      18.758  26.796  -9.139 +0.09 -0.07    +0.222    30.132
ATOM     35  O   UNL d   1      22.884  27.454  -5.936 -0.03 +0.39    -0.278    30.132
ATOM     36  P   UNL d   1      24.156  27.192  -6.861 -0.04 -0.32    +0.473    30.132
ATOM     37  O   UNL d   1      24.343  25.779  -7.316 -0.02 +0.08    -0.228    30.132
ATOM     38  O   UNL d   1      23.921  28.234  -8.042 -0.05 +0.24    -0.303    30.132
ATOM     39  H   UNL d   1      22.984  28.185  -8.332 -0.09 -0.22    +0.222    30.132
ATOM     40  O   UNL d   1      25.334  27.838  -6.010 -0.04 +0.16    -0.303    30.132
ATOM     41  H   UNL d   1      25.178  27.746  -5.043 +0.04 -0.13    +0.222    30.132
ATOM     42  O   UNL d   1      20.721  27.746  -7.867 -0.19 +0.27    -0.278    30.132
ATOM     43  P   UNL d   1      20.857  28.316  -9.350 -0.06 -0.29    +0.473    30.132
ATOM     44  O   UNL d   1      19.598  28.567 -10.107 -0.10 +0.08    -0.228    30.132
ATOM     45  O   UNL d   1      21.763  29.608  -9.146 -0.06 +0.28    -0.303    30.132
ATOM     46  H   UNL d   1      22.222  29.590  -8.283 -0.51 -0.42    +0.222    30.132
ATOM     47  O   UNL d   1      21.888  27.301 -10.040 -0.02 +0.11    -0.303    30.132
ATOM     48  H   UNL d   1      21.396  26.528 -10.387 +0.04 -0.06    +0.222    30.132
TER
ENDMDL
MODEL       92
USER    Run = 92
USER    Cluster Rank = 14
USER    Number of conformations in this cluster = 1
USER  
USER    RMSD from reference structure       = 17.714 A
USER  
USER    Estimated Free Energy of Binding    =   +2.74 kcal/mol  [=(1)+(2)+(3)-(4)]
USER    
USER    (1) Final Intermolecular Energy     =   -4.42 kcal/mol
USER        vdW + Hbond + desolv Energy     =   -4.01 kcal/mol
USER        Electrostatic Energy            =   -0.41 kcal/mol
USER    (2) Final Total Internal Energy     =  -13.27 kcal/mol
USER    (3) Torsional Free Energy           =   +7.16 kcal/mol
USER    (4) Unbound System's Energy  [=(2)] =  -13.27 kcal/mol
USER    
USER    
USER  
USER    DPF = D:/Protein_go_brrr/autodock/final/6BB5/IHP/dock.dpf
USER    NEWDPF move	IHP_ideal_opt.pdbqt
USER    NEWDPF about	0.035000 0.082000 -0.065000
USER    NEWDPF tran0	-1.489963 21.736962 2.809717
USER    NEWDPF axisangle0	0.354271 -0.893573 -0.275717 -146.229982
USER    NEWDPF quaternion0	0.338998 -0.855051 -0.263831 -0.290452
USER    NEWDPF dihe0	-159.65 110.71 129.71 3.17 105.39 131.46 -99.58 147.84 -86.54 41.27 134.26 -132.43 -61.45 80.96 72.85 -172.09 8.00 115.13 -6.05 -51.41 -30.47 -44.57 165.82 -9.75 
USER  
USER                              x       y       z    vdW   Elec        q     RMS 
ATOM      1  C   UNL d   1      -2.399  20.459   2.085 -0.00 -0.03    +0.194    17.714
ATOM      2  C   UNL d   1      -1.056  20.773   1.423 -0.05 -0.03    +0.194    17.714
ATOM      3  C   UNL d   1      -0.826  22.280   1.295 -0.06 -0.04    +0.194    17.714
ATOM      4  C   UNL d   1      -1.009  23.030   2.612 -0.06 -0.07    +0.194    17.714
ATOM      5  C   UNL d   1      -2.282  22.663   3.364 -0.01 -0.06    +0.194    17.714
ATOM      6  C   UNL d   1      -2.544  21.157   3.438 -0.00 -0.04    +0.194    17.714
ATOM      7  O   UNL d   1      -2.461  19.051   2.323 -0.00 +0.03    -0.278    17.714
ATOM      8  P   UNL d   1      -3.745  18.250   1.811 +0.00 -0.03    +0.473    17.714
ATOM      9  O   UNL d   1      -4.868  19.100   1.329 +0.00 +0.01    -0.228    17.714
ATOM     10  O   UNL d   1      -3.170  17.274   0.689 +0.00 +0.01    -0.303    17.714
ATOM     11  H   UNL d   1      -2.329  16.884   0.994 +0.01 -0.01    +0.222    17.714
ATOM     12  O   UNL d   1      -4.095  17.238   2.985 +0.00 +0.01    -0.303    17.714
ATOM     13  H   UNL d   1      -4.380  17.690   3.811 +0.00 -0.01    +0.222    17.714
ATOM     14  O   UNL d   1      -0.002  20.216   2.218 -0.11 +0.06    -0.278    17.714
ATOM     15  P   UNL d   1       0.278  18.649   2.039 -0.07 -0.04    +0.473    17.714
ATOM     16  O   UNL d   1       1.711  18.229   1.947 -0.12 -0.01    -0.228    17.714
ATOM     17  O   UNL d   1      -0.486  17.977   3.264 -0.03 +0.02    -0.303    17.714
ATOM     18  H   UNL d   1      -1.301  18.468   3.483 +0.04 -0.02    +0.222    17.714
ATOM     19  O   UNL d   1      -0.642  18.219   0.814 -0.02 +0.02    -0.303    17.714
ATOM     20  H   UNL d   1      -1.579  18.436   0.974 +0.02 -0.01    +0.222    17.714
ATOM     21  O   UNL d   1      -3.900  20.995   3.849 +0.00 +0.04    -0.278    17.714
ATOM     22  P   UNL d   1      -4.256  19.965   5.015 +0.01 -0.06    +0.473    17.714
ATOM     23  O   UNL d   1      -4.548  20.511   6.372 -0.00 +0.03    -0.228    17.714
ATOM     24  O   UNL d   1      -5.443  19.131   4.361 +0.00 +0.02    -0.303    17.714
ATOM     25  H   UNL d   1      -5.226  18.982   3.406 +0.00 -0.01    +0.222    17.714
ATOM     26  O   UNL d   1      -3.034  18.932   4.921 +0.00 +0.04    -0.303    17.714
ATOM     27  H   UNL d   1      -2.852  18.734   3.980 +0.02 -0.02    +0.222    17.714
ATOM     28  O   UNL d   1       0.535  22.477   0.935 -0.18 +0.09    -0.278    17.714
ATOM     29  P   UNL d   1       1.073  21.981  -0.480 -0.21 -0.09    +0.473    17.714
ATOM     30  O   UNL d   1       2.355  22.585  -0.926 -0.94 -0.01    -0.228    17.714
ATOM     31  O   UNL d   1       1.060  20.398  -0.244 -0.12 +0.08    -0.303    17.714
ATOM     32  H   UNL d   1       1.493  20.205   0.620 -0.19 -0.12    +0.222    17.714
ATOM     33  O   UNL d   1      -0.194  22.207  -1.417 -0.07 +0.03    -0.303    17.714
ATOM     34  H   UNL d   1      -0.154  21.569  -2.171 +0.05 -0.02    +0.222    17.714
ATOM     35  O   UNL d   1      -2.088  23.121   4.700 -0.04 +0.15    -0.278    17.714
ATOM     36  P   UNL d   1      -0.930  22.500   5.604 -0.11 -0.44    +0.473    17.714
ATOM     37  O   UNL d   1       0.435  22.502   4.994 -0.28 +0.26    -0.228    17.714
ATOM     38  O   UNL d   1      -1.054  23.368   6.934 -0.11 +0.47    -0.303    17.714
ATOM     39  H   UNL d   1      -0.195  23.352   7.409 -0.43 -0.63    +0.222    17.714
ATOM     40  O   UNL d   1      -1.538  21.088   6.011 -0.09 +0.15    -0.303    17.714
ATOM     41  H   UNL d   1      -2.434  20.953   5.631 +0.04 -0.07    +0.222    17.714
ATOM     42  O   UNL d   1      -1.099  24.422   2.288 -0.03 +0.10    -0.278    17.714
ATOM     43  P   UNL d   1      -0.034  25.430   2.915 -0.06 -0.29    +0.473    17.714
ATOM     44  O   UNL d   1       0.134  26.752   2.249 -0.07 +0.08    -0.228    17.714
ATOM     45  O   UNL d   1      -0.493  25.521   4.436 +0.09 +0.39    -0.303    17.714
ATOM     46  H   UNL d   1      -0.449  24.648   4.876 -0.41 -0.41    +0.222    17.714
ATOM     47  O   UNL d   1       1.293  24.538   3.028 -0.14 +0.25    -0.303    17.714
ATOM     48  H   UNL d   1       1.429  24.055   2.187 -0.29 -0.16    +0.222    17.714
TER
ENDMDL
MODEL       35
USER    Run = 35
USER    Cluster Rank = 15
USER    Number of conformations in this cluster = 2
USER  
USER    RMSD from reference structure       = 53.562 A
USER  
USER    Estimated Free Energy of Binding    =   +2.74 kcal/mol  [=(1)+(2)+(3)-(4)]
USER    
USER    (1) Final Intermolecular Energy     =   -4.42 kcal/mol
USER        vdW + Hbond + desolv Energy     =   -4.39 kcal/mol
USER        Electrostatic Energy            =   -0.03 kcal/mol
USER    (2) Final Total Internal Energy     =  -15.55 kcal/mol
USER    (3) Torsional Free Energy           =   +7.16 kcal/mol
USER    (4) Unbound System's Energy  [=(2)] =  -15.55 kcal/mol
USER    
USER    
USER  
USER    DPF = D:/Protein_go_brrr/autodock/final/6BB5/IHP/dock.dpf
USER    NEWDPF move	IHP_ideal_opt.pdbqt
USER    NEWDPF about	0.035000 0.082000 -0.065000
USER    NEWDPF tran0	52.325897 23.642172 7.759966
USER    NEWDPF axisangle0	-0.605523 -0.685312 0.404587 -111.613049
USER    NEWDPF quaternion0	-0.500855 -0.566852 0.334652 -0.561989
USER    NEWDPF dihe0	154.40 72.61 104.47 106.15 -2.19 160.13 -10.22 -74.19 95.51 -38.72 131.59 115.13 -40.68 111.55 -179.87 -72.78 -125.18 -155.47 2.79 -10.08 -27.53 5.98 -2.52 4.94 
USER  
USER                              x       y       z    vdW   Elec        q     RMS 
ATOM      1  C   UNL d   1      51.554  24.727   8.861 -0.24 +0.06    +0.194    53.562
ATOM      2  C   UNL d   1      51.592  23.260   9.295 -0.17 +0.08    +0.194    53.562
ATOM      3  C   UNL d   1      51.261  22.317   8.136 -0.20 +0.06    +0.194    53.562
ATOM      4  C   UNL d   1      52.108  22.573   6.892 -0.12 +0.04    +0.194    53.562
ATOM      5  C   UNL d   1      52.192  24.040   6.489 -0.13 +0.04    +0.194    53.562
ATOM      6  C   UNL d   1      52.462  24.989   7.659 -0.14 +0.04    +0.194    53.562
ATOM      7  O   UNL d   1      52.038  25.525   9.943 -0.17 -0.08    -0.278    53.562
ATOM      8  P   UNL d   1      51.064  26.624  10.572 -0.27 +0.12    +0.473    53.562
ATOM      9  O   UNL d   1      49.646  26.537  10.129 -0.63 -0.06    -0.228    53.562
ATOM     10  O   UNL d   1      51.243  26.444  12.147 -0.21 -0.11    -0.303    53.562
ATOM     11  H   UNL d   1      51.841  25.694  12.324 +0.07 +0.10    +0.222    53.562
ATOM     12  O   UNL d   1      51.788  28.014  10.311 -0.20 -0.03    -0.303    53.562
ATOM     13  H   UNL d   1      52.372  28.003   9.520 +0.10 +0.01    +0.222    53.562
ATOM     14  O   UNL d   1      52.906  22.950   9.775 -0.08 -0.09    -0.278    53.562
ATOM     15  P   UNL d   1      53.010  22.417  11.282 -0.07 +0.23    +0.473    53.562
ATOM     16  O   UNL d   1      54.316  21.812  11.692 -0.03 -0.08    -0.228    53.562
ATOM     17  O   UNL d   1      52.608  23.678  12.168 -0.11 -0.19    -0.303    53.562
ATOM     18  H   UNL d   1      52.270  24.406  11.611 +0.06 +0.11    +0.222    53.562
ATOM     19  O   UNL d   1      51.735  21.482  11.461 -0.11 -0.23    -0.303    53.562
ATOM     20  H   UNL d   1      51.625  20.875  10.706 +0.05 +0.13    +0.222    53.562
ATOM     21  O   UNL d   1      52.172  26.306   7.196 -0.13 -0.05    -0.278    53.562
ATOM     22  P   UNL d   1      53.237  27.474   7.414 -0.07 +0.03    +0.473    53.562
ATOM     23  O   UNL d   1      52.731  28.867   7.582 -0.68 +0.02    -0.228    53.562
ATOM     24  O   UNL d   1      54.082  26.919   8.643 -0.03 -0.02    -0.303    53.562
ATOM     25  H   UNL d   1      53.498  26.921   9.444 +0.07 +0.02    +0.222    53.562
ATOM     26  O   UNL d   1      54.240  27.234   6.187 -0.07 -0.00    -0.303    53.562
ATOM     27  H   UNL d   1      54.069  26.351   5.800 +0.04 +0.01    +0.222    53.562
ATOM     28  O   UNL d   1      51.589  20.997   8.551 -0.09 -0.11    -0.278    53.562
ATOM     29  P   UNL d   1      50.452  19.890   8.682 -0.15 +0.27    +0.473    53.562
ATOM     30  O   UNL d   1      49.940  19.656  10.056 -0.21 -0.16    -0.228    53.562
ATOM     31  O   UNL d   1      49.406  20.434   7.599 -0.25 -0.21    -0.303    53.562
ATOM     32  H   UNL d   1      49.905  20.741   6.807 +0.02 +0.10    +0.222    53.562
ATOM     33  O   UNL d   1      51.112  18.645   7.939 -0.04 -0.15    -0.303    53.562
ATOM     34  H   UNL d   1      51.887  18.960   7.412 +0.03 +0.08    +0.222    53.562
ATOM     35  O   UNL d   1      53.307  24.136   5.605 -0.06 -0.03    -0.278    53.562
ATOM     36  P   UNL d   1      53.144  24.829   4.177 -0.07 +0.03    +0.473    53.562
ATOM     37  O   UNL d   1      52.548  23.970   3.108 -0.05 -0.02    -0.228    53.562
ATOM     38  O   UNL d   1      52.283  26.119   4.537 -0.05 +0.01    -0.303    53.562
ATOM     39  H   UNL d   1      52.437  26.356   5.477 +0.05 -0.00    +0.222    53.562
ATOM     40  O   UNL d   1      54.603  25.404   3.911 -0.01 -0.01    -0.303    53.562
ATOM     41  H   UNL d   1      54.752  26.252   4.386 +0.03 +0.00    +0.222    53.562
ATOM     42  O   UNL d   1      51.479  21.875   5.812 -0.09 -0.06    -0.278    53.562
ATOM     43  P   UNL d   1      52.152  20.537   5.263 +0.01 +0.11    +0.473    53.562
ATOM     44  O   UNL d   1      52.775  20.585   3.911 -0.01 -0.04    -0.228    53.562
ATOM     45  O   UNL d   1      53.160  20.149   6.432 -0.00 -0.06    -0.303    53.562
ATOM     46  H   UNL d   1      52.693  20.025   7.282 +0.03 +0.06    +0.222    53.562
ATOM     47  O   UNL d   1      50.997  19.442   5.454 -0.04 -0.11    -0.303    53.562
ATOM     48  H   UNL d   1      50.827  19.315   6.410 +0.04 +0.10    +0.222    53.562
TER
ENDMDL
MODEL       51
USER    Run = 51
USER    Cluster Rank = 16
USER    Number of conformations in this cluster = 1
USER  
USER    RMSD from reference structure       = 50.505 A
USER  
USER    Estimated Free Energy of Binding    =   +2.78 kcal/mol  [=(1)+(2)+(3)-(4)]
USER    
USER    (1) Final Intermolecular Energy     =   -4.38 kcal/mol
USER        vdW + Hbond + desolv Energy     =   -4.28 kcal/mol
USER        Electrostatic Energy            =   -0.09 kcal/mol
USER    (2) Final Total Internal Energy     =  -14.76 kcal/mol
USER    (3) Torsional Free Energy           =   +7.16 kcal/mol
USER    (4) Unbound System's Energy  [=(2)] =  -14.76 kcal/mol
USER    
USER    
USER  
USER    DPF = D:/Protein_go_brrr/autodock/final/6BB5/IHP/dock.dpf
USER    NEWDPF move	IHP_ideal_opt.pdbqt
USER    NEWDPF about	0.035000 0.082000 -0.065000
USER    NEWDPF tran0	23.502276 48.807934 0.981738
USER    NEWDPF axisangle0	-0.701232 -0.610726 0.367814 111.957325
USER    NEWDPF quaternion0	-0.581202 -0.506188 0.304855 0.559502
USER    NEWDPF dihe0	-126.42 -10.60 20.29 122.37 117.10 127.50 -104.46 15.64 125.07 114.78 60.48 -179.93 -133.77 -24.15 -169.79 14.27 61.28 162.91 36.28 -44.91 -10.00 178.34 169.61 8.46 
USER  
USER                              x       y       z    vdW   Elec        q     RMS 
ATOM      1  C   UNL d   1      23.223  48.236  -0.624 -0.10 +0.01    +0.194    50.505
ATOM      2  C   UNL d   1      22.021  48.170   0.320 -0.17 +0.00    +0.194    50.505
ATOM      3  C   UNL d   1      22.416  47.656   1.706 -0.19 +0.02    +0.194    50.505
ATOM      4  C   UNL d   1      23.589  48.418   2.317 -0.13 +0.03    +0.194    50.505
ATOM      5  C   UNL d   1      24.767  48.608   1.371 -0.07 +0.03    +0.194    50.505
ATOM      6  C   UNL d   1      24.366  49.063  -0.034 -0.05 +0.02    +0.194    50.505
ATOM      7  O   UNL d   1      22.808  48.882  -1.830 -0.05 +0.00    -0.278    50.505
ATOM      8  P   UNL d   1      22.145  47.992  -2.979 -0.08 -0.02    +0.473    50.505
ATOM      9  O   UNL d   1      23.110  47.276  -3.858 -0.06 -0.00    -0.228    50.505
ATOM     10  O   UNL d   1      21.165  47.011  -2.191 -0.22 +0.03    -0.303    50.505
ATOM     11  H   UNL d   1      20.367  47.499  -1.914 -0.06 -0.07    +0.222    50.505
ATOM     12  O   UNL d   1      21.124  48.962  -3.715 -0.03 +0.03    -0.303    50.505
ATOM     13  H   UNL d   1      20.467  49.365  -3.105 +0.05 -0.03    +0.222    50.505
ATOM     14  O   UNL d   1      21.465  49.484   0.461 -0.12 +0.02    -0.278    50.505
ATOM     15  P   UNL d   1      20.384  49.925  -0.635 -0.17 -0.10    +0.473    50.505
ATOM     16  O   UNL d   1      19.531  48.840  -1.213 -0.05 +0.10    -0.228    50.505
ATOM     17  O   UNL d   1      19.532  51.057   0.095 -0.16 +0.10    -0.303    50.505
ATOM     18  H   UNL d   1      18.916  50.668   0.745 -0.46 -0.13    +0.222    50.505
ATOM     19  O   UNL d   1      21.214  50.780  -1.689 -0.04 +0.03    -0.303    50.505
ATOM     20  H   UNL d   1      21.902  50.245  -2.125 +0.04 -0.02    +0.222    50.505
ATOM     21  O   UNL d   1      25.502  48.863  -0.872 -0.02 -0.03    -0.278    50.505
ATOM     22  P   UNL d   1      26.268  50.123  -1.482 +0.00 +0.03    +0.473    50.505
ATOM     23  O   UNL d   1      26.743  50.044  -2.893 -0.00 -0.01    -0.228    50.505
ATOM     24  O   UNL d   1      25.239  51.302  -1.188 -0.00 -0.01    -0.303    50.505
ATOM     25  H   UNL d   1      24.990  51.262  -0.230 +0.01 +0.00    +0.222    50.505
ATOM     26  O   UNL d   1      27.397  50.385  -0.374 +0.00 -0.03    -0.303    50.505
ATOM     27  H   UNL d   1      26.987  50.359   0.515 +0.02 +0.02    +0.222    50.505
ATOM     28  O   UNL d   1      21.318  47.890   2.578 -0.30 +0.00    -0.278    50.505
ATOM     29  P   UNL d   1      20.951  49.372   3.030 -0.25 -0.03    +0.473    50.505
ATOM     30  O   UNL d   1      21.965  50.409   2.710 -0.13 +0.01    -0.228    50.505
ATOM     31  O   UNL d   1      19.514  49.526   2.342 -0.42 +0.07    -0.303    50.505
ATOM     32  H   UNL d   1      19.597  49.299   1.387 +0.04 -0.06    +0.222    50.505
ATOM     33  O   UNL d   1      20.585  49.173   4.567 -0.33 -0.00    -0.303    50.505
ATOM     34  H   UNL d   1      21.419  49.037   5.080 +0.13 +0.01    +0.222    50.505
ATOM     35  O   UNL d   1      25.557  49.650   1.940 -0.01 -0.03    -0.278    50.505
ATOM     36  P   UNL d   1      24.931  51.099   2.172 +0.02 +0.01    +0.473    50.505
ATOM     37  O   UNL d   1      24.610  51.442   3.592 -0.02 -0.00    -0.228    50.505
ATOM     38  O   UNL d   1      26.028  52.039   1.503 +0.00 -0.01    -0.303    50.505
ATOM     39  H   UNL d   1      26.177  51.751   0.577 +0.01 +0.01    +0.222    50.505
ATOM     40  O   UNL d   1      23.726  51.118   1.134 -0.01 +0.00    -0.303    50.505
ATOM     41  H   UNL d   1      22.981  50.550   1.430 +0.06 -0.01    +0.222    50.505
ATOM     42  O   UNL d   1      24.058  47.639   3.423 -0.18 -0.10    -0.278    50.505
ATOM     43  P   UNL d   1      23.667  48.086   4.903 -0.14 +0.12    +0.473    50.505
ATOM     44  O   UNL d   1      24.613  47.735   5.999 -0.28 -0.10    -0.228    50.505
ATOM     45  O   UNL d   1      23.412  49.648   4.739 -0.08 -0.02    -0.303    50.505
ATOM     46  H   UNL d   1      23.736  49.976   3.877 +0.08 +0.01    +0.222    50.505
ATOM     47  O   UNL d   1      22.174  47.528   5.072 -0.07 -0.02    -0.303    50.505
ATOM     48  H   UNL d   1      21.899  47.087   4.242 -0.27 -0.02    +0.222    50.505
TER
ENDMDL
MODEL       18
USER    Run = 18
USER    Cluster Rank = 17
USER    Number of conformations in this cluster = 1
USER  
USER    RMSD from reference structure       = 39.213 A
USER  
USER    Estimated Free Energy of Binding    =   +2.83 kcal/mol  [=(1)+(2)+(3)-(4)]
USER    
USER    (1) Final Intermolecular Energy     =   -4.33 kcal/mol
USER        vdW + Hbond + desolv Energy     =   -4.12 kcal/mol
USER        Electrostatic Energy            =   -0.21 kcal/mol
USER    (2) Final Total Internal Energy     =  -14.17 kcal/mol
USER    (3) Torsional Free Energy           =   +7.16 kcal/mol
USER    (4) Unbound System's Energy  [=(2)] =  -14.17 kcal/mol
USER    
USER    
USER  
USER    DPF = D:/Protein_go_brrr/autodock/final/6BB5/IHP/dock.dpf
USER    NEWDPF move	IHP_ideal_opt.pdbqt
USER    NEWDPF about	0.035000 0.082000 -0.065000
USER    NEWDPF tran0	29.967131 16.058725 25.544930
USER    NEWDPF axisangle0	0.719809 -0.027149 0.693641 91.708674
USER    NEWDPF quaternion0	0.516514 -0.019482 0.497737 0.696485
USER    NEWDPF dihe0	123.95 50.17 -172.77 -31.25 47.86 -157.44 -33.63 -166.61 -21.39 81.19 38.08 -106.88 -14.22 70.66 -64.56 -54.80 -11.80 -78.77 -8.78 -46.29 -10.13 6.11 -17.23 -6.84 
USER  
USER                              x       y       z    vdW   Elec        q     RMS 
ATOM      1  C   UNL d   1      30.429  15.744  27.180 -0.08 -0.03    +0.194    39.213
ATOM      2  C   UNL d   1      29.059  16.400  26.994 -0.09 -0.00    +0.194    39.213
ATOM      3  C   UNL d   1      29.102  17.515  25.947 -0.07 +0.01    +0.194    39.213
ATOM      4  C   UNL d   1      29.714  17.071  24.621 -0.19 +0.02    +0.194    39.213
ATOM      5  C   UNL d   1      31.026  16.311  24.766 -0.22 -0.00    +0.194    39.213
ATOM      6  C   UNL d   1      31.002  15.237  25.856 -0.11 -0.03    +0.194    39.213
ATOM      7  O   UNL d   1      30.269  14.611  28.036 -0.04 +0.04    -0.278    39.213
ATOM      8  P   UNL d   1      31.271  14.444  29.269 -0.04 -0.14    +0.473    39.213
ATOM      9  O   UNL d   1      31.655  15.712  29.947 -0.15 +0.10    -0.228    39.213
ATOM     10  O   UNL d   1      30.527  13.416  30.236 -0.00 +0.04    -0.303    39.213
ATOM     11  H   UNL d   1      29.563  13.556  30.182 +0.01 -0.02    +0.222    39.213
ATOM     12  O   UNL d   1      32.470  13.565  28.710 -0.03 +0.11    -0.303    39.213
ATOM     13  H   UNL d   1      32.397  13.381  27.746 +0.03 -0.07    +0.222    39.213
ATOM     14  O   UNL d   1      28.120  15.406  26.565 -0.02 -0.00    -0.278    39.213
ATOM     15  P   UNL d   1      27.415  14.543  27.715 +0.01 -0.00    +0.473    39.213
ATOM     16  O   UNL d   1      25.919  14.509  27.708 -0.00 +0.00    -0.228    39.213
ATOM     17  O   UNL d   1      28.066  13.097  27.569 +0.00 +0.00    -0.303    39.213
ATOM     18  H   UNL d   1      28.856  13.007  28.136 +0.01 -0.01    +0.222    39.213
ATOM     19  O   UNL d   1      28.083  15.059  29.063 -0.01 +0.01    -0.303    39.213
ATOM     20  H   UNL d   1      28.871  14.535  29.299 +0.02 -0.02    +0.222    39.213
ATOM     21  O   UNL d   1      32.358  14.869  26.101 -0.11 +0.11    -0.278    39.213
ATOM     22  P   UNL d   1      32.865  13.409  25.707 +0.00 -0.09    +0.473    39.213
ATOM     23  O   UNL d   1      31.910  12.271  25.838 -0.00 +0.01    -0.228    39.213
ATOM     24  O   UNL d   1      33.423  13.645  24.235 -0.02 +0.03    -0.303    39.213
ATOM     25  H   UNL d   1      33.040  14.492  23.892 +0.07 -0.01    +0.222    39.213
ATOM     26  O   UNL d   1      34.218  13.293  26.559 -0.03 +0.10    -0.303    39.213
ATOM     27  H   UNL d   1      34.140  13.847  27.363 +0.02 -0.13    +0.222    39.213
ATOM     28  O   UNL d   1      27.758  17.868  25.643 -0.10 -0.01    -0.278    39.213
ATOM     29  P   UNL d   1      27.220  19.332  25.964 -0.16 -0.04    +0.473    39.213
ATOM     30  O   UNL d   1      26.818  19.572  27.374 -0.31 +0.01    -0.228    39.213
ATOM     31  O   UNL d   1      28.433  20.207  25.396 -0.28 +0.09    -0.303    39.213
ATOM     32  H   UNL d   1      28.968  19.645  24.788 -0.23 -0.06    +0.222    39.213
ATOM     33  O   UNL d   1      26.096  19.526  24.853 -0.10 +0.02    -0.303    39.213
ATOM     34  H   UNL d   1      26.422  20.167  24.175 +0.12 -0.02    +0.222    39.213
ATOM     35  O   UNL d   1      31.226  15.642  23.522 -0.09 -0.05    -0.278    39.213
ATOM     36  P   UNL d   1      32.436  16.059  22.570 -0.15 +0.11    +0.473    39.213
ATOM     37  O   UNL d   1      33.672  16.532  23.268 -0.70 -0.01    -0.228    39.213
ATOM     38  O   UNL d   1      32.639  14.738  21.704 -0.06 -0.08    -0.303    39.213
ATOM     39  H   UNL d   1      33.300  14.163  22.145 +0.07 +0.03    +0.222    39.213
ATOM     40  O   UNL d   1      31.742  17.075  21.563 -0.27 -0.19    -0.303    39.213
ATOM     41  H   UNL d   1      31.098  17.659  22.021 +0.10 +0.13    +0.222    39.213
ATOM     42  O   UNL d   1      29.996  18.260  23.876 -0.19 -0.01    -0.278    39.213
ATOM     43  P   UNL d   1      29.259  18.490  22.480 -0.22 +0.22    +0.473    39.213
ATOM     44  O   UNL d   1      28.945  17.285  21.663 -0.22 -0.33    -0.228    39.213
ATOM     45  O   UNL d   1      27.982  19.345  22.897 -0.15 -0.05    -0.303    39.213
ATOM     46  H   UNL d   1      27.643  19.077  23.774 +0.10 +0.02    +0.222    39.213
ATOM     47  O   UNL d   1      30.170  19.596  21.762 -0.38 -0.11    -0.303    39.213
ATOM     48  H   UNL d   1      31.014  19.185  21.480 +0.14 +0.11    +0.222    39.213
TER
ENDMDL
MODEL       28
USER    Run = 28
USER    Cluster Rank = 18
USER    Number of conformations in this cluster = 1
USER  
USER    RMSD from reference structure       = 58.965 A
USER  
USER    Estimated Free Energy of Binding    =   +2.91 kcal/mol  [=(1)+(2)+(3)-(4)]
USER    
USER    (1) Final Intermolecular Energy     =   -4.25 kcal/mol
USER        vdW + Hbond + desolv Energy     =   -4.24 kcal/mol
USER        Electrostatic Energy            =   -0.01 kcal/mol
USER    (2) Final Total Internal Energy     =  -14.07 kcal/mol
USER    (3) Torsional Free Energy           =   +7.16 kcal/mol
USER    (4) Unbound System's Energy  [=(2)] =  -14.07 kcal/mol
USER    
USER    
USER  
USER    DPF = D:/Protein_go_brrr/autodock/final/6BB5/IHP/dock.dpf
USER    NEWDPF move	IHP_ideal_opt.pdbqt
USER    NEWDPF about	0.035000 0.082000 -0.065000
USER    NEWDPF tran0	41.719597 48.094197 3.235799
USER    NEWDPF axisangle0	-0.755538 -0.319040 0.572167 138.253457
USER    NEWDPF quaternion0	-0.705953 -0.298102 0.534616 0.356302
USER    NEWDPF dihe0	144.44 107.53 81.45 96.97 51.32 -144.78 -104.36 -2.67 90.25 -18.25 -145.58 -179.92 -84.54 104.71 -59.63 167.83 172.68 160.39 -142.76 -8.67 -174.91 16.26 25.16 179.56 
USER  
USER                              x       y       z    vdW   Elec        q     RMS 
ATOM      1  C   UNL d   1      40.893  47.999   1.722 -0.00 +0.03    +0.194    58.965
ATOM      2  C   UNL d   1      40.135  48.709   2.845 -0.03 +0.04    +0.194    58.965
ATOM      3  C   UNL d   1      40.259  47.961   4.174 -0.14 +0.03    +0.194    58.965
ATOM      4  C   UNL d   1      41.705  47.652   4.558 -0.14 -0.02    +0.194    58.965
ATOM      5  C   UNL d   1      42.530  47.047   3.430 -0.11 -0.02    +0.194    58.965
ATOM      6  C   UNL d   1      42.358  47.759   2.086 -0.02 +0.00    +0.194    58.965
ATOM      7  O   UNL d   1      40.873  48.842   0.568 +0.00 -0.03    -0.278    58.965
ATOM      8  P   UNL d   1      42.114  49.816   0.318 +0.01 +0.02    +0.473    58.965
ATOM      9  O   UNL d   1      42.765  50.338   1.550 -0.01 -0.00    -0.228    58.965
ATOM     10  O   UNL d   1      43.100  48.958  -0.597 -0.00 -0.01    -0.303    58.965
ATOM     11  H   UNL d   1      42.819  48.024  -0.594 +0.00 +0.01    +0.222    58.965
ATOM     12  O   UNL d   1      41.581  50.911  -0.702 +0.00 -0.02    -0.303    58.965
ATOM     13  H   UNL d   1      40.840  51.447  -0.340 +0.00 +0.02    +0.222    58.965
ATOM     14  O   UNL d   1      40.674  50.027   3.012 -0.02 -0.03    -0.278    58.965
ATOM     15  P   UNL d   1      39.645  51.245   2.867 +0.00 +0.11    +0.473    58.965
ATOM     16  O   UNL d   1      40.059  52.550   3.470 -0.04 -0.05    -0.228    58.965
ATOM     17  O   UNL d   1      39.381  51.345   1.299 +0.00 -0.06    -0.303    58.965
ATOM     18  H   UNL d   1      40.044  50.833   0.797 +0.01 +0.03    +0.222    58.965
ATOM     19  O   UNL d   1      38.260  50.658   3.386 -0.10 -0.15    -0.303    58.965
ATOM     20  H   UNL d   1      38.386  50.053   4.141 +0.06 +0.13    +0.222    58.965
ATOM     21  O   UNL d   1      42.900  46.894   1.090 -0.01 -0.00    -0.278    58.965
ATOM     22  P   UNL d   1      42.012  45.706   0.504 +0.00 +0.03    +0.473    58.965
ATOM     23  O   UNL d   1      40.976  45.098   1.389 -0.01 -0.03    -0.228    58.965
ATOM     24  O   UNL d   1      41.449  46.351  -0.837 +0.00 -0.02    -0.303    58.965
ATOM     25  H   UNL d   1      41.599  47.329  -0.796 +0.00 +0.02    +0.222    58.965
ATOM     26  O   UNL d   1      43.134  44.706  -0.055 -0.01 -0.01    -0.303    58.965
ATOM     27  H   UNL d   1      43.875  44.665   0.583 +0.02 +0.00    +0.222    58.965
ATOM     28  O   UNL d   1      39.773  48.820   5.197 -0.21 -0.03    -0.278    58.965
ATOM     29  P   UNL d   1      38.646  48.316   6.203 -0.35 +0.17    +0.473    58.965
ATOM     30  O   UNL d   1      38.796  48.766   7.611 -0.53 +0.01    -0.228    58.965
ATOM     31  O   UNL d   1      37.337  48.800   5.422 -0.50 -0.40    -0.303    58.965
ATOM     32  H   UNL d   1      37.431  49.758   5.214 -0.39 +0.20    +0.222    58.965
ATOM     33  O   UNL d   1      38.648  46.744   5.946 -0.26 -0.12    -0.303    58.965
ATOM     34  H   UNL d   1      39.560  46.395   6.099 -0.06 +0.01    +0.222    58.965
ATOM     35  O   UNL d   1      43.893  47.208   3.818 -0.12 +0.08    -0.278    58.965
ATOM     36  P   UNL d   1      45.016  46.238   3.234 -0.11 -0.12    +0.473    58.965
ATOM     37  O   UNL d   1      46.102  45.858   4.190 -0.25 +0.14    -0.228    58.965
ATOM     38  O   UNL d   1      44.147  45.011   2.710 -0.09 +0.02    -0.303    58.965
ATOM     39  H   UNL d   1      43.219  45.305   2.584 +0.06 -0.00    +0.222    58.965
ATOM     40  O   UNL d   1      45.456  46.990   1.903 -0.02 +0.04    -0.303    58.965
ATOM     41  H   UNL d   1      44.703  47.101   1.281 +0.02 -0.02    +0.222    58.965
ATOM     42  O   UNL d   1      41.656  46.683   5.610 -0.26 +0.04    -0.278    58.965
ATOM     43  P   UNL d   1      41.147  45.208   5.278 -0.25 +0.02    +0.473    58.965
ATOM     44  O   UNL d   1      40.545  44.422   6.392 -0.36 -0.02    -0.228    58.965
ATOM     45  O   UNL d   1      40.168  45.446   4.047 -0.06 -0.06    -0.303    58.965
ATOM     46  H   UNL d   1      40.248  44.733   3.382 +0.08 +0.04    +0.222    58.965
ATOM     47  O   UNL d   1      42.413  44.536   4.562 -0.17 -0.02    -0.303    58.965
ATOM     48  H   UNL d   1      43.138  45.192   4.505 +0.09 -0.01    +0.222    58.965
TER
ENDMDL
MODEL       15
USER    Run = 15
USER    Cluster Rank = 19
USER    Number of conformations in this cluster = 1
USER  
USER    RMSD from reference structure       = 44.860 A
USER  
USER    Estimated Free Energy of Binding    =   +3.05 kcal/mol  [=(1)+(2)+(3)-(4)]
USER    
USER    (1) Final Intermolecular Energy     =   -4.11 kcal/mol
USER        vdW + Hbond + desolv Energy     =   -3.57 kcal/mol
USER        Electrostatic Energy            =   -0.54 kcal/mol
USER    (2) Final Total Internal Energy     =  -14.05 kcal/mol
USER    (3) Torsional Free Energy           =   +7.16 kcal/mol
USER    (4) Unbound System's Energy  [=(2)] =  -14.05 kcal/mol
USER    
USER    
USER  
USER    DPF = D:/Protein_go_brrr/autodock/final/6BB5/IHP/dock.dpf
USER    NEWDPF move	IHP_ideal_opt.pdbqt
USER    NEWDPF about	0.035000 0.082000 -0.065000
USER    NEWDPF tran0	30.480913 37.553265 1.155589
USER    NEWDPF axisangle0	0.710885 -0.436081 0.551794 95.290701
USER    NEWDPF quaternion0	0.525336 -0.322259 0.407770 0.673718
USER    NEWDPF dihe0	-95.18 10.76 -173.32 -15.44 28.65 -96.50 -11.58 -137.87 175.10 -31.78 -134.37 132.31 54.14 -179.77 -53.59 102.30 172.17 168.92 28.62 14.17 -175.88 6.78 29.05 -180.00 
USER  
USER                              x       y       z    vdW   Elec        q     RMS 
ATOM      1  C   UNL d   1      31.552  36.690   2.200 -0.08 +0.02    +0.194    44.860
ATOM      2  C   UNL d   1      30.490  37.541   2.899 +0.01 +0.00    +0.194    44.860
ATOM      3  C   UNL d   1      30.335  38.911   2.235 -0.08 -0.00    +0.194    44.860
ATOM      4  C   UNL d   1      30.107  38.826   0.728 -0.05 +0.01    +0.194    44.860
ATOM      5  C   UNL d   1      31.073  37.897   0.005 -0.02 +0.02    +0.194    44.860
ATOM      6  C   UNL d   1      31.275  36.550   0.703 -0.03 +0.03    +0.194    44.860
ATOM      7  O   UNL d   1      31.514  35.377   2.765 -0.09 -0.07    -0.278    44.860
ATOM      8  P   UNL d   1      32.509  35.040   3.969 -0.12 +0.10    +0.473    44.860
ATOM      9  O   UNL d   1      31.871  34.958   5.311 -0.26 -0.04    -0.228    44.860
ATOM     10  O   UNL d   1      33.209  33.678   3.522 -0.14 -0.09    -0.303    44.860
ATOM     11  H   UNL d   1      34.131  33.854   3.260 +0.13 +0.04    +0.222    44.860
ATOM     12  O   UNL d   1      33.697  36.085   3.828 -0.33 -0.04    -0.303    44.860
ATOM     13  H   UNL d   1      33.907  36.307   2.893 +0.04 +0.02    +0.222    44.860
ATOM     14  O   UNL d   1      29.231  36.859   2.839 -0.08 +0.00    -0.278    44.860
ATOM     15  P   UNL d   1      28.258  37.043   4.097 -0.13 -0.20    +0.473    44.860
ATOM     16  O   UNL d   1      27.794  35.792   4.776 -0.21 +0.05    -0.228    44.860
ATOM     17  O   UNL d   1      29.062  38.012   5.072 -0.20 +0.31    -0.303    44.860
ATOM     18  H   UNL d   1      28.846  38.948   4.895 -0.24 -0.31    +0.222    44.860
ATOM     19  O   UNL d   1      27.105  38.005   3.570 -0.21 +0.15    -0.303    44.860
ATOM     20  H   UNL d   1      27.411  38.928   3.500 +0.08 -0.13    +0.222    44.860
ATOM     21  O   UNL d   1      32.430  35.952   0.118 -0.01 -0.04    -0.278    44.860
ATOM     22  P   UNL d   1      33.883  36.384   0.616 -0.04 +0.01    +0.473    44.860
ATOM     23  O   UNL d   1      34.039  37.721   1.259 -0.12 +0.01    -0.228    44.860
ATOM     24  O   UNL d   1      34.293  35.151   1.534 -0.09 -0.01    -0.303    44.860
ATOM     25  H   UNL d   1      33.484  34.844   2.017 +0.08 +0.03    +0.222    44.860
ATOM     26  O   UNL d   1      34.767  36.128  -0.697 -0.03 -0.00    -0.303    44.860
ATOM     27  H   UNL d   1      34.774  36.940  -1.243 +0.02 +0.00    +0.222    44.860
ATOM     28  O   UNL d   1      29.159  39.511   2.762 -0.11 +0.04    -0.278    44.860
ATOM     29  P   UNL d   1      29.250  40.868   3.591 -0.17 -0.05    +0.473    44.860
ATOM     30  O   UNL d   1      29.456  42.099   2.785 -0.18 -0.06    -0.228    44.860
ATOM     31  O   UNL d   1      27.894  40.772   4.435 -0.27 +0.21    -0.303    44.860
ATOM     32  H   UNL d   1      27.772  39.839   4.728 -0.36 -0.42    +0.222    44.860
ATOM     33  O   UNL d   1      30.364  40.523   4.675 -0.22 +0.06    -0.303    44.860
ATOM     34  H   UNL d   1      29.956  39.981   5.394 -0.09 -0.17    +0.222    44.860
ATOM     35  O   UNL d   1      30.476  37.627  -1.262 -0.01 -0.02    -0.278    44.860
ATOM     36  P   UNL d   1      31.368  37.105  -2.476 +0.00 +0.04    +0.473    44.860
ATOM     37  O   UNL d   1      30.987  37.623  -3.827 -0.00 -0.01    -0.228    44.860
ATOM     38  O   UNL d   1      32.833  37.518  -2.007 -0.00 -0.02    -0.303    44.860
ATOM     39  H   UNL d   1      33.312  36.716  -1.705 +0.01 +0.01    +0.222    44.860
ATOM     40  O   UNL d   1      31.331  35.528  -2.272 +0.00 -0.04    -0.303    44.860
ATOM     41  H   UNL d   1      31.886  35.246  -1.511 +0.01 +0.03    +0.222    44.860
ATOM     42  O   UNL d   1      30.315  40.141   0.203 -0.02 -0.02    -0.278    44.860
ATOM     43  P   UNL d   1      31.790  40.748   0.206 +0.01 +0.05    +0.473    44.860
ATOM     44  O   UNL d   1      31.929  42.214   0.432 -0.02 -0.04    -0.228    44.860
ATOM     45  O   UNL d   1      32.535  39.850   1.288 -0.04 -0.02    -0.303    44.860
ATOM     46  H   UNL d   1      33.495  39.795   1.108 +0.05 +0.01    +0.222    44.860
ATOM     47  O   UNL d   1      32.417  40.197  -1.162 -0.00 -0.02    -0.303    44.860
ATOM     48  H   UNL d   1      32.250  39.234  -1.228 +0.01 +0.01    +0.222    44.860
TER
ENDMDL
MODEL        4
USER    Run = 4
USER    Cluster Rank = 20
USER    Number of conformations in this cluster = 1
USER  
USER    RMSD from reference structure       = 15.933 A
USER  
USER    Estimated Free Energy of Binding    =   +3.10 kcal/mol  [=(1)+(2)+(3)-(4)]
USER    
USER    (1) Final Intermolecular Energy     =   -4.06 kcal/mol
USER        vdW + Hbond + desolv Energy     =   -3.38 kcal/mol
USER        Electrostatic Energy            =   -0.69 kcal/mol
USER    (2) Final Total Internal Energy     =  -13.42 kcal/mol
USER    (3) Torsional Free Energy           =   +7.16 kcal/mol
USER    (4) Unbound System's Energy  [=(2)] =  -13.42 kcal/mol
USER    
USER    
USER  
USER    DPF = D:/Protein_go_brrr/autodock/final/6BB5/IHP/dock.dpf
USER    NEWDPF move	IHP_ideal_opt.pdbqt
USER    NEWDPF about	0.035000 0.082000 -0.065000
USER    NEWDPF tran0	14.762137 13.398558 -2.998154
USER    NEWDPF axisangle0	0.666422 0.745019 -0.028779 -106.969427
USER    NEWDPF quaternion0	0.535602 0.598770 -0.023130 -0.595037
USER    NEWDPF dihe0	-171.93 11.73 156.79 10.69 15.45 93.26 -77.92 0.76 -8.41 13.36 -48.02 157.88 45.70 174.90 -53.14 3.80 -129.77 57.16 36.26 13.60 -171.58 -8.40 153.67 -6.90 
USER  
USER                              x       y       z    vdW   Elec        q     RMS 
ATOM      1  C   UNL d   1      15.065  13.264  -4.693 -0.06 -0.05    +0.194    15.933
ATOM      2  C   UNL d   1      13.922  12.402  -4.156 -0.03 +0.01    +0.194    15.933
ATOM      3  C   UNL d   1      14.292  11.731  -2.832 -0.01 +0.02    +0.194    15.933
ATOM      4  C   UNL d   1      14.816  12.712  -1.786 -0.02 +0.02    +0.194    15.933
ATOM      5  C   UNL d   1      15.878  13.670  -2.310 -0.03 -0.01    +0.194    15.933
ATOM      6  C   UNL d   1      15.535  14.294  -3.665 -0.12 -0.04    +0.194    15.933
ATOM      7  O   UNL d   1      14.584  13.986  -5.830 -0.10 +0.16    -0.278    15.933
ATOM      8  P   UNL d   1      14.646  13.279  -7.261 -0.02 -0.25    +0.473    15.933
ATOM      9  O   UNL d   1      13.379  12.633  -7.701 -0.01 +0.04    -0.228    15.933
ATOM     10  O   UNL d   1      15.136  14.436  -8.243 -0.04 +0.39    -0.303    15.933
ATOM     11  H   UNL d   1      15.705  15.060  -7.755 -0.44 -0.67    +0.222    15.933
ATOM     12  O   UNL d   1      15.921  12.333  -7.199 -0.02 +0.11    -0.303    15.933
ATOM     13  H   UNL d   1      16.648  12.701  -6.647 +0.02 -0.10    +0.222    15.933
ATOM     14  O   UNL d   1      12.773  13.230  -3.942 -0.10 -0.10    -0.278    15.933
ATOM     15  P   UNL d   1      11.345  12.561  -4.224 -0.06 +0.35    +0.473    15.933
ATOM     16  O   UNL d   1      10.407  13.326  -5.105 -0.52 -0.28    -0.228    15.933
ATOM     17  O   UNL d   1      11.700  11.121  -4.804 -0.01 -0.08    -0.303    15.933
ATOM     18  H   UNL d   1      12.203  10.594  -4.153 +0.02 +0.04    +0.222    15.933
ATOM     19  O   UNL d   1      10.786  12.196  -2.781 -0.06 -0.30    -0.303    15.933
ATOM     20  H   UNL d   1      11.449  11.719  -2.247 +0.02 +0.12    +0.222    15.933
ATOM     21  O   UNL d   1      16.737  14.871  -4.169 -0.14 +0.14    -0.278    15.933
ATOM     22  P   UNL d   1      17.760  13.970  -4.999 -0.04 -0.23    +0.473    15.933
ATOM     23  O   UNL d   1      17.722  12.493  -4.797 -0.01 +0.05    -0.228    15.933
ATOM     24  O   UNL d   1      17.478  14.448  -6.491 +0.04 +0.36    -0.303    15.933
ATOM     25  H   UNL d   1      16.501  14.406  -6.648 -0.47 -0.36    +0.222    15.933
ATOM     26  O   UNL d   1      19.158  14.688  -4.680 -0.05 +0.10    -0.303    15.933
ATOM     27  H   UNL d   1      19.256  15.472  -5.258 +0.03 -0.11    +0.222    15.933
ATOM     28  O   UNL d   1      13.100  11.189  -2.278 -0.01 -0.05    -0.278    15.933
ATOM     29  P   UNL d   1      12.800   9.628  -2.384 +0.01 +0.06    +0.473    15.933
ATOM     30  O   UNL d   1      13.511   8.912  -3.474 +0.00 -0.02    -0.228    15.933
ATOM     31  O   UNL d   1      13.130   9.178  -0.884 +0.00 -0.03    -0.303    15.933
ATOM     32  H   UNL d   1      13.779   9.813  -0.501 +0.01 +0.02    +0.222    15.933
ATOM     33  O   UNL d   1      11.209   9.596  -2.418 -0.00 -0.06    -0.303    15.933
ATOM     34  H   UNL d   1      10.894  10.109  -3.202 +0.01 +0.06    +0.222    15.933
ATOM     35  O   UNL d   1      15.942  14.733  -1.363 -0.05 +0.00    -0.278    15.933
ATOM     36  P   UNL d   1      14.801  15.847  -1.325 -0.13 +0.04    +0.473    15.933
ATOM     37  O   UNL d   1      14.984  16.991  -2.272 -0.66 -0.01    -0.228    15.933
ATOM     38  O   UNL d   1      13.491  14.982  -1.591 -0.15 -0.09    -0.303    15.933
ATOM     39  H   UNL d   1      13.427  14.783  -2.550 +0.07 +0.07    +0.222    15.933
ATOM     40  O   UNL d   1      14.720  16.199   0.224 -0.33 -0.04    -0.303    15.933
ATOM     41  H   UNL d   1      14.982  15.435   0.785 +0.07 +0.03    +0.222    15.933
ATOM     42  O   UNL d   1      15.426  11.931  -0.753 +0.00 -0.02    -0.278    15.933
ATOM     43  P   UNL d   1      14.827  12.001   0.723 +0.01 +0.05    +0.473    15.933
ATOM     44  O   UNL d   1      13.983  10.860   1.177 -0.00 -0.02    -0.228    15.933
ATOM     45  O   UNL d   1      16.122  12.248   1.614 +0.00 -0.02    -0.303    15.933
ATOM     46  H   UNL d   1      16.241  11.539   2.277 +0.00 +0.01    +0.222    15.933
ATOM     47  O   UNL d   1      14.123  13.441   0.765 -0.01 -0.05    -0.303    15.933
ATOM     48  H   UNL d   1      14.532  14.020   0.089 +0.05 +0.03    +0.222    15.933
TER
ENDMDL
MODEL       97
USER    Run = 97
USER    Cluster Rank = 21
USER    Number of conformations in this cluster = 1
USER  
USER    RMSD from reference structure       = 46.468 A
USER  
USER    Estimated Free Energy of Binding    =   +3.10 kcal/mol  [=(1)+(2)+(3)-(4)]
USER    
USER    (1) Final Intermolecular Energy     =   -4.06 kcal/mol
USER        vdW + Hbond + desolv Energy     =   -3.85 kcal/mol
USER        Electrostatic Energy            =   -0.21 kcal/mol
USER    (2) Final Total Internal Energy     =  -14.42 kcal/mol
USER    (3) Torsional Free Energy           =   +7.16 kcal/mol
USER    (4) Unbound System's Energy  [=(2)] =  -14.42 kcal/mol
USER    
USER    
USER  
USER    DPF = D:/Protein_go_brrr/autodock/final/6BB5/IHP/dock.dpf
USER    NEWDPF move	IHP_ideal_opt.pdbqt
USER    NEWDPF about	0.035000 0.082000 -0.065000
USER    NEWDPF tran0	9.668881 47.319058 15.563760
USER    NEWDPF axisangle0	-0.830752 -0.212385 -0.514533 114.957633
USER    NEWDPF quaternion0	-0.700484 -0.179081 -0.433851 0.537611
USER    NEWDPF dihe0	124.26 -137.25 -164.90 -27.35 59.17 107.60 -138.75 -85.62 86.24 45.59 -120.97 140.52 -64.87 177.42 67.61 -143.54 108.35 169.67 77.78 18.85 177.07 0.37 -7.83 174.34 
USER  
USER                              x       y       z    vdW   Elec        q     RMS 
ATOM      1  C   UNL d   1      11.194  48.063  15.241 -0.04 -0.09    +0.194    46.468
ATOM      2  C   UNL d   1      10.374  47.676  14.009 -0.10 -0.11    +0.194    46.468
ATOM      3  C   UNL d   1       9.743  46.290  14.161 -0.15 -0.17    +0.194    46.468
ATOM      4  C   UNL d   1       8.950  46.129  15.456 -0.12 -0.15    +0.194    46.468
ATOM      5  C   UNL d   1       9.688  46.611  16.699 -0.04 -0.09    +0.194    46.468
ATOM      6  C   UNL d   1      10.371  47.969  16.527 -0.01 -0.07    +0.194    46.468
ATOM      7  O   UNL d   1      11.603  49.425  15.095 -0.02 +0.09    -0.278    46.468
ATOM      8  P   UNL d   1      12.176  49.898  13.682 -0.05 -0.16    +0.473    46.468
ATOM      9  O   UNL d   1      12.517  48.798  12.739 -0.16 +0.09    -0.228    46.468
ATOM     10  O   UNL d   1      11.054  50.883  13.119 -0.07 +0.09    -0.303    46.468
ATOM     11  H   UNL d   1      10.175  50.577  13.409 +0.05 -0.06    +0.222    46.468
ATOM     12  O   UNL d   1      13.356  50.903  14.030 -0.04 +0.12    -0.303    46.468
ATOM     13  H   UNL d   1      13.823  51.241  13.233 +0.07 -0.13    +0.222    46.468
ATOM     14  O   UNL d   1       9.327  48.637  13.825 -0.04 +0.10    -0.278    46.468
ATOM     15  P   UNL d   1       8.840  48.884  12.319 -0.09 -0.16    +0.473    46.468
ATOM     16  O   UNL d   1       8.827  50.302  11.841 -0.14 +0.04    -0.228    46.468
ATOM     17  O   UNL d   1       9.787  47.946  11.447 -0.03 +0.17    -0.303    46.468
ATOM     18  H   UNL d   1       9.337  47.112  11.212 -0.06 -0.15    +0.222    46.468
ATOM     19  O   UNL d   1       7.451  48.114  12.221 -0.13 +0.08    -0.303    46.468
ATOM     20  H   UNL d   1       7.574  47.178  11.980 +0.10 -0.09    +0.222    46.468
ATOM     21  O   UNL d   1      11.279  48.115  17.616 -0.00 +0.07    -0.278    46.468
ATOM     22  P   UNL d   1      12.646  47.292  17.624 +0.02 -0.14    +0.473    46.468
ATOM     23  O   UNL d   1      13.885  47.980  17.159 -0.03 +0.06    -0.228    46.468
ATOM     24  O   UNL d   1      12.699  46.762  19.124 -0.01 +0.06    -0.303    46.468
ATOM     25  H   UNL d   1      11.954  47.181  19.625 +0.02 -0.04    +0.222    46.468
ATOM     26  O   UNL d   1      12.233  45.968  16.820 -0.08 +0.17    -0.303    46.468
ATOM     27  H   UNL d   1      11.581  45.462  17.346 +0.06 -0.10    +0.222    46.468
ATOM     28  O   UNL d   1       8.792  46.136  13.115 -0.17 +0.25    -0.278    46.468
ATOM     29  P   UNL d   1       9.056  45.100  11.935 -0.30 -0.38    +0.473    46.468
ATOM     30  O   UNL d   1       8.126  45.193  10.780 -0.39 +0.10    -0.228    46.468
ATOM     31  O   UNL d   1      10.603  45.392  11.647 -0.34 +0.29    -0.303    46.468
ATOM     32  H   UNL d   1      10.667  46.132  11.001 +0.06 -0.16    +0.222    46.468
ATOM     33  O   UNL d   1       9.100  43.711  12.713 -0.38 +0.32    -0.303    46.468
ATOM     34  H   UNL d   1       9.383  43.874  13.646 +0.06 -0.25    +0.222    46.468
ATOM     35  O   UNL d   1       8.689  46.768  17.705 -0.02 +0.09    -0.278    46.468
ATOM     36  P   UNL d   1       8.808  45.980  19.087 +0.01 -0.10    +0.473    46.468
ATOM     37  O   UNL d   1       8.149  46.633  20.260 -0.01 +0.03    -0.228    46.468
ATOM     38  O   UNL d   1       8.202  44.558  18.704 -0.08 +0.07    -0.303    46.468
ATOM     39  H   UNL d   1       8.177  44.472  17.726 +0.07 -0.08    +0.222    46.468
ATOM     40  O   UNL d   1      10.372  45.714  19.193 -0.02 +0.06    -0.303    46.468
ATOM     41  H   UNL d   1      10.865  46.135  18.453 +0.04 -0.06    +0.222    46.468
ATOM     42  O   UNL d   1       8.712  44.728  15.625 -0.19 +0.26    -0.278    46.468
ATOM     43  P   UNL d   1       9.958  43.751  15.820 -0.23 -0.32    +0.473    46.468
ATOM     44  O   UNL d   1       9.865  42.392  15.217 -0.46 +0.13    -0.228    46.468
ATOM     45  O   UNL d   1      11.173  44.623  15.276 +0.10 +0.43    -0.303    46.468
ATOM     46  H   UNL d   1      12.034  44.238  15.535 -0.01 -0.37    +0.222    46.468
ATOM     47  O   UNL d   1      10.210  43.791  17.402 -0.60 +0.09    -0.303    46.468
ATOM     48  H   UNL d   1      10.098  44.709  17.724 +0.07 -0.07    +0.222    46.468
TER
ENDMDL
MODEL       60
USER    Run = 60
USER    Cluster Rank = 22
USER    Number of conformations in this cluster = 1
USER  
USER    RMSD from reference structure       = 40.648 A
USER  
USER    Estimated Free Energy of Binding    =   +3.11 kcal/mol  [=(1)+(2)+(3)-(4)]
USER    
USER    (1) Final Intermolecular Energy     =   -4.05 kcal/mol
USER        vdW + Hbond + desolv Energy     =   -4.03 kcal/mol
USER        Electrostatic Energy            =   -0.03 kcal/mol
USER    (2) Final Total Internal Energy     =  -15.08 kcal/mol
USER    (3) Torsional Free Energy           =   +7.16 kcal/mol
USER    (4) Unbound System's Energy  [=(2)] =  -15.08 kcal/mol
USER    
USER    
USER  
USER    DPF = D:/Protein_go_brrr/autodock/final/6BB5/IHP/dock.dpf
USER    NEWDPF move	IHP_ideal_opt.pdbqt
USER    NEWDPF about	0.035000 0.082000 -0.065000
USER    NEWDPF tran0	0.837264 44.504378 -1.752850
USER    NEWDPF axisangle0	0.147471 -0.781739 -0.605917 92.406612
USER    NEWDPF quaternion0	0.106445 -0.564260 -0.437351 0.692102
USER    NEWDPF dihe0	88.58 -145.01 146.73 -0.79 124.49 -180.00 -95.60 -7.71 3.67 48.06 25.09 180.00 134.29 176.85 28.85 11.57 154.64 138.78 -13.70 12.04 -8.07 -5.70 -21.30 -7.91 
USER  
USER                              x       y       z    vdW   Elec        q     RMS 
ATOM      1  C   UNL d   1       2.001  45.091  -2.886 -0.12 +0.14    +0.194    40.648
ATOM      2  C   UNL d   1       2.355  43.771  -2.199 -0.13 +0.11    +0.194    40.648
ATOM      3  C   UNL d   1       2.039  43.808  -0.703 -0.17 +0.13    +0.194    40.648
ATOM      4  C   UNL d   1       0.609  44.251  -0.401 -0.07 +0.11    +0.194    40.648
ATOM      5  C   UNL d   1       0.175  45.502  -1.155 -0.06 +0.10    +0.194    40.648
ATOM      6  C   UNL d   1       0.546  45.491  -2.639 -0.06 +0.10    +0.194    40.648
ATOM      7  O   UNL d   1       2.162  44.917  -4.296 -0.07 -0.16    -0.278    40.648
ATOM      8  P   UNL d   1       2.890  46.073  -5.125 -0.12 +0.42    +0.473    40.648
ATOM      9  O   UNL d   1       2.896  45.882  -6.601 -0.07 -0.11    -0.228    40.648
ATOM     10  O   UNL d   1       2.143  47.406  -4.667 -0.05 -0.43    -0.303    40.648
ATOM     11  H   UNL d   1       1.231  47.406  -5.013 +0.03 +0.17    +0.222    40.648
ATOM     12  O   UNL d   1       4.314  46.237  -4.441 -0.79 -0.45    -0.303    40.648
ATOM     13  H   UNL d   1       4.926  46.810  -4.957 -0.04 +0.32    +0.222    40.648
ATOM     14  O   UNL d   1       1.596  42.714  -2.800 -0.02 -0.14    -0.278    40.648
ATOM     15  P   UNL d   1       2.332  41.300  -2.950 -0.01 +0.24    +0.473    40.648
ATOM     16  O   UNL d   1       2.327  40.680  -4.312 -0.01 -0.07    -0.228    40.648
ATOM     17  O   UNL d   1       3.803  41.569  -2.400 -0.11 -0.14    -0.303    40.648
ATOM     18  H   UNL d   1       3.778  41.996  -1.522 +0.11 +0.13    +0.222    40.648
ATOM     19  O   UNL d   1       1.715  40.406  -1.787 -0.15 -0.33    -0.303    40.648
ATOM     20  H   UNL d   1       1.887  40.790  -0.908 +0.06 +0.37    +0.222    40.648
ATOM     21  O   UNL d   1       0.393  46.827  -3.112 -0.06 -0.18    -0.278    40.648
ATOM     22  P   UNL d   1      -0.789  47.178  -4.124 -0.01 +0.18    +0.473    40.648
ATOM     23  O   UNL d   1      -2.192  46.919  -3.686 -0.00 -0.05    -0.228    40.648
ATOM     24  O   UNL d   1      -0.472  48.696  -4.482 -0.02 -0.13    -0.303    40.648
ATOM     25  H   UNL d   1       0.439  48.737  -4.869 +0.02 +0.14    +0.222    40.648
ATOM     26  O   UNL d   1      -0.316  46.419  -5.454 -0.00 -0.10    -0.303    40.648
ATOM     27  H   UNL d   1       0.484  45.891  -5.256 +0.02 +0.09    +0.222    40.648
ATOM     28  O   UNL d   1       2.133  42.477  -0.212 -0.13 -0.28    -0.278    40.648
ATOM     29  P   UNL d   1       3.389  42.028   0.658 -0.27 +0.50    +0.473    40.648
ATOM     30  O   UNL d   1       4.554  42.949   0.626 -0.34 -0.11    -0.228    40.648
ATOM     31  O   UNL d   1       2.681  41.802   2.076 -0.58 -0.47    -0.303    40.648
ATOM     32  H   UNL d   1       2.065  42.552   2.242 +0.12 +0.26    +0.222    40.648
ATOM     33  O   UNL d   1       3.634  40.540   0.147 -0.59 -0.44    -0.303    40.648
ATOM     34  H   UNL d   1       3.681  40.544  -0.841 +0.09 +0.21    +0.222    40.648
ATOM     35  O   UNL d   1      -1.249  45.525  -1.079 -0.01 -0.10    -0.278    40.648
ATOM     36  P   UNL d   1      -1.989  46.611  -0.175 +0.00 +0.13    +0.473    40.648
ATOM     37  O   UNL d   1      -3.404  46.291   0.189 -0.00 -0.04    -0.228    40.648
ATOM     38  O   UNL d   1      -1.003  46.727   1.069 -0.02 -0.09    -0.303    40.648
ATOM     39  H   UNL d   1      -1.007  45.878   1.562 +0.04 +0.07    +0.222    40.648
ATOM     40  O   UNL d   1      -1.740  47.955  -0.988 -0.01 -0.08    -0.303    40.648
ATOM     41  H   UNL d   1      -1.307  47.783  -1.853 +0.01 +0.08    +0.222    40.648
ATOM     42  O   UNL d   1       0.557  44.562   0.995 -0.08 -0.15    -0.278    40.648
ATOM     43  P   UNL d   1      -0.432  43.734   1.933 -0.04 +0.29    +0.473    40.648
ATOM     44  O   UNL d   1      -0.537  44.151   3.359 -0.06 -0.11    -0.228    40.648
ATOM     45  O   UNL d   1      -1.807  43.798   1.134 -0.01 -0.13    -0.303    40.648
ATOM     46  H   UNL d   1      -2.011  44.710   0.846 +0.02 +0.07    +0.222    40.648
ATOM     47  O   UNL d   1       0.016  42.215   1.688 -0.35 -0.45    -0.303    40.648
ATOM     48  H   UNL d   1       0.746  42.195   1.035 +0.07 +0.39    +0.222    40.648
TER
ENDMDL
MODEL        8
USER    Run = 8
USER    Cluster Rank = 23
USER    Number of conformations in this cluster = 1
USER  
USER    RMSD from reference structure       = 47.346 A
USER  
USER    Estimated Free Energy of Binding    =   +3.11 kcal/mol  [=(1)+(2)+(3)-(4)]
USER    
USER    (1) Final Intermolecular Energy     =   -4.05 kcal/mol
USER        vdW + Hbond + desolv Energy     =   -4.00 kcal/mol
USER        Electrostatic Energy            =   -0.04 kcal/mol
USER    (2) Final Total Internal Energy     =  -12.39 kcal/mol
USER    (3) Torsional Free Energy           =   +7.16 kcal/mol
USER    (4) Unbound System's Energy  [=(2)] =  -12.39 kcal/mol
USER    
USER    
USER  
USER    DPF = D:/Protein_go_brrr/autodock/final/6BB5/IHP/dock.dpf
USER    NEWDPF move	IHP_ideal_opt.pdbqt
USER    NEWDPF about	0.035000 0.082000 -0.065000
USER    NEWDPF tran0	17.791685 47.806969 -6.157304
USER    NEWDPF axisangle0	-0.803421 0.594934 -0.023827 -166.728169
USER    NEWDPF quaternion0	-0.798039 0.590948 -0.023668 -0.115560
USER    NEWDPF dihe0	130.54 141.44 75.34 95.93 -75.26 -94.23 -123.91 -113.37 -129.32 39.67 -179.97 132.99 -86.47 -58.74 -97.46 -38.44 162.43 177.36 -147.91 -9.72 141.63 143.34 180.00 -177.20 
USER  
USER                              x       y       z    vdW   Elec        q     RMS 
ATOM      1  C   UNL d   1      19.139  46.986  -6.861 -0.06 -0.01    +0.194    47.346
ATOM      2  C   UNL d   1      19.453  48.333  -6.209 -0.03 -0.01    +0.194    47.346
ATOM      3  C   UNL d   1      18.401  49.389  -6.553 -0.02 -0.01    +0.194    47.346
ATOM      4  C   UNL d   1      16.973  48.930  -6.269 -0.05 -0.02    +0.194    47.346
ATOM      5  C   UNL d   1      16.650  47.540  -6.803 -0.13 -0.02    +0.194    47.346
ATOM      6  C   UNL d   1      17.732  46.498  -6.512 -0.18 -0.01    +0.194    47.346
ATOM      7  O   UNL d   1      20.063  46.019  -6.357 -0.07 +0.00    -0.278    47.346
ATOM      8  P   UNL d   1      19.671  45.213  -5.034 -0.25 -0.03    +0.473    47.346
ATOM      9  O   UNL d   1      18.891  45.988  -4.031 -0.30 +0.04    -0.228    47.346
ATOM     10  O   UNL d   1      18.895  43.930  -5.579 -0.28 -0.02    -0.303    47.346
ATOM     11  H   UNL d   1      18.479  44.140  -6.436 +0.12 +0.03    +0.222    47.346
ATOM     12  O   UNL d   1      21.034  44.582  -4.516 -0.25 +0.02    -0.303    47.346
ATOM     13  H   UNL d   1      21.470  45.124  -3.821 +0.03 -0.02    +0.222    47.346
ATOM     14  O   UNL d   1      19.485  48.167  -4.786 -0.07 +0.04    -0.278    47.346
ATOM     15  P   UNL d   1      20.849  48.567  -4.048 -0.04 -0.05    +0.473    47.346
ATOM     16  O   UNL d   1      21.982  49.005  -4.922 -0.01 +0.01    -0.228    47.346
ATOM     17  O   UNL d   1      20.409  49.685  -3.001 -0.06 +0.04    -0.303    47.346
ATOM     18  H   UNL d   1      19.556  50.086  -3.253 +0.05 -0.04    +0.222    47.346
ATOM     19  O   UNL d   1      21.158  47.336  -3.090 -0.16 +0.03    -0.303    47.346
ATOM     20  H   UNL d   1      20.902  46.488  -3.498 +0.07 -0.03    +0.222    47.346
ATOM     21  O   UNL d   1      17.459  45.376  -7.349 -0.20 +0.00    -0.278    47.346
ATOM     22  P   UNL d   1      16.956  45.608  -8.845 -0.12 -0.03    +0.473    47.346
ATOM     23  O   UNL d   1      15.605  46.204  -9.050 -0.14 +0.04    -0.228    47.346
ATOM     24  O   UNL d   1      18.158  46.447  -9.466 -0.03 +0.00    -0.303    47.346
ATOM     25  H   UNL d   1      17.774  47.136 -10.065 +0.03 -0.01    +0.222    47.346
ATOM     26  O   UNL d   1      17.192  44.161  -9.495 -0.14 -0.02    -0.303    47.346
ATOM     27  H   UNL d   1      16.376  43.629  -9.401 +0.05 -0.01    +0.222    47.346
ATOM     28  O   UNL d   1      18.616  50.503  -5.696 -0.01 +0.02    -0.278    47.346
ATOM     29  P   UNL d   1      17.626  50.787  -4.481 -0.02 -0.06    +0.473    47.346
ATOM     30  O   UNL d   1      16.228  51.123  -4.859 -0.06 +0.03    -0.228    47.346
ATOM     31  O   UNL d   1      17.846  49.454  -3.624 -0.12 +0.08    -0.303    47.346
ATOM     32  H   UNL d   1      17.416  48.703  -4.094 +0.05 -0.06    +0.222    47.346
ATOM     33  O   UNL d   1      18.427  51.880  -3.645 -0.06 +0.03    -0.303    47.346
ATOM     34  H   UNL d   1      19.328  51.530  -3.440 +0.05 -0.03    +0.222    47.346
ATOM     35  O   UNL d   1      15.472  47.125  -6.115 -0.23 +0.05    -0.278    47.346
ATOM     36  P   UNL d   1      15.385  47.240  -4.527 -0.25 -0.11    +0.473    47.346
ATOM     37  O   UNL d   1      14.464  46.268  -3.859 -0.40 +0.08    -0.228    47.346
ATOM     38  O   UNL d   1      16.913  47.090  -4.105 -0.16 +0.07    -0.303    47.346
ATOM     39  H   UNL d   1      17.032  47.447  -3.198 -0.47 -0.12    +0.222    47.346
ATOM     40  O   UNL d   1      15.079  48.786  -4.315 -0.18 +0.07    -0.303    47.346
ATOM     41  H   UNL d   1      15.052  49.273  -5.168 +0.11 -0.04    +0.222    47.346
ATOM     42  O   UNL d   1      16.101  49.850  -6.934 -0.02 +0.03    -0.278    47.346
ATOM     43  P   UNL d   1      16.007  49.809  -8.526 -0.00 -0.03    +0.473    47.346
ATOM     44  O   UNL d   1      16.001  51.113  -9.247 -0.01 +0.01    -0.228    47.346
ATOM     45  O   UNL d   1      17.216  48.853  -8.923 -0.01 +0.02    -0.303    47.346
ATOM     46  H   UNL d   1      16.896  47.977  -9.220 +0.04 -0.01    +0.222    47.346
ATOM     47  O   UNL d   1      14.741  48.864  -8.795 -0.06 +0.03    -0.303    47.346
ATOM     48  H   UNL d   1      14.822  48.054  -8.250 +0.06 -0.02    +0.222    47.346
TER
ENDMDL
MODEL       13
USER    Run = 13
USER    Cluster Rank = 24
USER    Number of conformations in this cluster = 1
USER  
USER    RMSD from reference structure       = 59.404 A
USER  
USER    Estimated Free Energy of Binding    =   +3.13 kcal/mol  [=(1)+(2)+(3)-(4)]
USER    
USER    (1) Final Intermolecular Energy     =   -4.03 kcal/mol
USER        vdW + Hbond + desolv Energy     =   -3.91 kcal/mol
USER        Electrostatic Energy            =   -0.11 kcal/mol
USER    (2) Final Total Internal Energy     =  -13.15 kcal/mol
USER    (3) Torsional Free Energy           =   +7.16 kcal/mol
USER    (4) Unbound System's Energy  [=(2)] =  -13.15 kcal/mol
USER    
USER    
USER  
USER    DPF = D:/Protein_go_brrr/autodock/final/6BB5/IHP/dock.dpf
USER    NEWDPF move	IHP_ideal_opt.pdbqt
USER    NEWDPF about	0.035000 0.082000 -0.065000
USER    NEWDPF tran0	48.990313 36.705074 17.934820
USER    NEWDPF axisangle0	-0.074431 -0.492986 -0.866848 155.720893
USER    NEWDPF quaternion0	-0.072767 -0.481962 -0.847463 0.210294
USER    NEWDPF dihe0	-140.76 -25.50 39.38 72.41 88.39 162.31 6.69 -86.34 98.63 -28.66 150.96 148.30 38.11 157.62 64.80 -41.78 105.23 -121.93 -140.75 -14.42 26.14 146.32 -49.58 152.49 
USER  
USER                              x       y       z    vdW   Elec        q     RMS 
ATOM      1  C   UNL d   1      48.374  38.258  17.498 -0.09 +0.00    +0.194    59.404
ATOM      2  C   UNL d   1      49.608  37.795  16.722 -0.06 +0.00    +0.194    59.404
ATOM      3  C   UNL d   1      50.647  37.152  17.642 -0.01 +0.01    +0.194    59.404
ATOM      4  C   UNL d   1      50.069  36.046  18.521 -0.01 +0.01    +0.194    59.404
ATOM      5  C   UNL d   1      48.773  36.426  19.226 -0.02 +0.01    +0.194    59.404
ATOM      6  C   UNL d   1      47.758  37.125  18.319 -0.07 +0.01    +0.194    59.404
ATOM      7  O   UNL d   1      47.388  38.685  16.555 -0.12 +0.00    -0.278    59.404
ATOM      8  P   UNL d   1      46.246  37.652  16.130 -0.14 +0.04    +0.473    59.404
ATOM      9  O   UNL d   1      45.022  37.681  16.976 -0.45 -0.04    -0.228    59.404
ATOM     10  O   UNL d   1      45.960  37.999  14.599 -0.39 +0.01    -0.303    59.404
ATOM     11  H   UNL d   1      46.770  37.857  14.075 -0.37 -0.07    +0.222    59.404
ATOM     12  O   UNL d   1      46.980  36.247  16.021 -0.17 -0.03    -0.303    59.404
ATOM     13  H   UNL d   1      47.586  36.188  15.247 +0.10 +0.02    +0.222    59.404
ATOM     14  O   UNL d   1      49.208  36.831  15.741 -0.10 -0.01    -0.278    59.404
ATOM     15  P   UNL d   1      49.448  37.227  14.208 -0.14 -0.00    +0.473    59.404
ATOM     16  O   UNL d   1      48.450  36.714  13.217 -0.70 -0.03    -0.228    59.404
ATOM     17  O   UNL d   1      49.536  38.818  14.228 -0.07 +0.07    -0.303    59.404
ATOM     18  H   UNL d   1      48.735  39.209  14.625 -0.45 -0.08    +0.222    59.404
ATOM     19  O   UNL d   1      50.961  36.827  13.927 -0.05 -0.03    -0.303    59.404
ATOM     20  H   UNL d   1      51.326  36.271  14.641 +0.06 +0.02    +0.222    59.404
ATOM     21  O   UNL d   1      46.778  37.711  19.173 -0.07 -0.01    -0.278    59.404
ATOM     22  P   UNL d   1      45.668  36.790  19.854 -0.12 +0.01    +0.473    59.404
ATOM     23  O   UNL d   1      45.918  36.288  21.235 -0.12 +0.00    -0.228    59.404
ATOM     24  O   UNL d   1      44.361  37.686  19.696 -0.26 +0.01    -0.303    59.404
ATOM     25  H   UNL d   1      44.512  38.323  18.952 +0.09 +0.01    +0.222    59.404
ATOM     26  O   UNL d   1      45.439  35.671  18.729 -0.15 -0.02    -0.303    59.404
ATOM     27  H   UNL d   1      45.875  35.954  17.900 +0.09 +0.02    +0.222    59.404
ATOM     28  O   UNL d   1      51.613  36.513  16.817 -0.02 -0.01    -0.278    59.404
ATOM     29  P   UNL d   1      51.591  34.931  16.631 -0.02 +0.04    +0.473    59.404
ATOM     30  O   UNL d   1      51.931  34.139  17.840 -0.01 -0.02    -0.228    59.404
ATOM     31  O   UNL d   1      50.120  34.741  16.028 -0.08 -0.03    -0.303    59.404
ATOM     32  H   UNL d   1      50.050  35.271  15.201 +0.07 +0.03    +0.222    59.404
ATOM     33  O   UNL d   1      52.522  34.732  15.355 -0.04 -0.02    -0.303    59.404
ATOM     34  H   UNL d   1      52.484  35.549  14.799 +0.03 +0.02    +0.222    59.404
ATOM     35  O   UNL d   1      48.185  35.196  19.644 -0.02 -0.03    -0.278    59.404
ATOM     36  P   UNL d   1      48.686  34.477  20.978 +0.00 +0.06    +0.473    59.404
ATOM     37  O   UNL d   1      47.653  33.676  21.705 -0.04 -0.04    -0.228    59.404
ATOM     38  O   UNL d   1      49.920  33.624  20.445 -0.00 -0.04    -0.303    59.404
ATOM     39  H   UNL d   1      50.311  34.077  19.667 +0.01 +0.03    +0.222    59.404
ATOM     40  O   UNL d   1      49.364  35.675  21.775 -0.00 -0.03    -0.303    59.404
ATOM     41  H   UNL d   1      50.201  35.967  21.351 +0.00 +0.02    +0.222    59.404
ATOM     42  O   UNL d   1      51.039  35.776  19.540 -0.00 -0.02    -0.278    59.404
ATOM     43  P   UNL d   1      51.797  37.001  20.226 +0.00 +0.03    +0.473    59.404
ATOM     44  O   UNL d   1      52.881  37.660  19.446 -0.00 -0.01    -0.228    59.404
ATOM     45  O   UNL d   1      50.601  37.971  20.627 +0.00 -0.01    -0.303    59.404
ATOM     46  H   UNL d   1      50.144  37.661  21.435 +0.00 +0.01    +0.222    59.404
ATOM     47  O   UNL d   1      52.230  36.411  21.652 +0.00 -0.02    -0.303    59.404
ATOM     48  H   UNL d   1      51.555  35.769  21.954 +0.00 +0.02    +0.222    59.404
TER
ENDMDL
MODEL      100
USER    Run = 100
USER    Cluster Rank = 25
USER    Number of conformations in this cluster = 1
USER  
USER    RMSD from reference structure       = 58.497 A
USER  
USER    Estimated Free Energy of Binding    =   +3.14 kcal/mol  [=(1)+(2)+(3)-(4)]
USER    
USER    (1) Final Intermolecular Energy     =   -4.02 kcal/mol
USER        vdW + Hbond + desolv Energy     =   -3.89 kcal/mol
USER        Electrostatic Energy            =   -0.13 kcal/mol
USER    (2) Final Total Internal Energy     =  -13.25 kcal/mol
USER    (3) Torsional Free Energy           =   +7.16 kcal/mol
USER    (4) Unbound System's Energy  [=(2)] =  -13.25 kcal/mol
USER    
USER    
USER  
USER    DPF = D:/Protein_go_brrr/autodock/final/6BB5/IHP/dock.dpf
USER    NEWDPF move	IHP_ideal_opt.pdbqt
USER    NEWDPF about	0.035000 0.082000 -0.065000
USER    NEWDPF tran0	37.480398 50.123607 1.632315
USER    NEWDPF axisangle0	-0.719896 -0.332689 -0.609153 -162.823172
USER    NEWDPF quaternion0	-0.711824 -0.328958 -0.602322 -0.149335
USER    NEWDPF dihe0	115.65 180.00 87.05 -105.12 102.76 -92.69 -16.86 -93.88 89.96 93.27 41.95 -134.72 128.48 -133.60 111.99 -43.29 110.77 135.02 -7.75 -8.40 5.87 3.61 -8.38 -4.44 
USER  
USER                              x       y       z    vdW   Elec        q     RMS 
ATOM      1  C   UNL d   1      37.578  51.623   2.485 -0.09 +0.08    +0.194    58.497
ATOM      2  C   UNL d   1      36.704  51.632   1.229 -0.05 +0.07    +0.194    58.497
ATOM      3  C   UNL d   1      37.369  50.885   0.071 -0.00 +0.05    +0.194    58.497
ATOM      4  C   UNL d   1      37.825  49.478   0.446 -0.01 +0.07    +0.194    58.497
ATOM      5  C   UNL d   1      38.603  49.405   1.754 -0.03 +0.08    +0.194    58.497
ATOM      6  C   UNL d   1      37.970  50.203   2.896 -0.12 +0.11    +0.194    58.497
ATOM      7  O   UNL d   1      36.820  52.183   3.560 -0.17 -0.14    -0.278    58.497
ATOM      8  P   UNL d   1      37.491  53.334   4.442 -0.13 +0.38    +0.473    58.497
ATOM      9  O   UNL d   1      36.639  53.863   5.542 -0.58 -0.27    -0.228    58.497
ATOM     10  O   UNL d   1      38.851  52.680   4.960 -0.24 -0.32    -0.303    58.497
ATOM     11  H   UNL d   1      38.688  51.758   5.234 +0.06 +0.25    +0.222    58.497
ATOM     12  O   UNL d   1      38.015  54.406   3.394 -0.05 -0.11    -0.303    58.497
ATOM     13  H   UNL d   1      37.799  55.331   3.648 +0.04 +0.08    +0.222    58.497
ATOM     14  O   UNL d   1      35.455  50.997   1.525 -0.11 -0.15    -0.278    58.497
ATOM     15  P   UNL d   1      34.132  51.861   1.265 -0.10 +0.18    +0.473    58.497
ATOM     16  O   UNL d   1      33.790  52.892   2.294 -0.20 -0.09    -0.228    58.497
ATOM     17  O   UNL d   1      34.357  52.486  -0.184 -0.01 -0.06    -0.303    58.497
ATOM     18  H   UNL d   1      35.265  52.321  -0.501 +0.02 +0.04    +0.222    58.497
ATOM     19  O   UNL d   1      33.002  50.780   0.975 -0.09 -0.12    -0.303    58.497
ATOM     20  H   UNL d   1      32.211  51.185   0.572 +0.04 +0.06    +0.222    58.497
ATOM     21  O   UNL d   1      38.961  50.321   3.914 -0.11 -0.12    -0.278    58.497
ATOM     22  P   UNL d   1      38.964  49.298   5.138 -0.22 +0.19    +0.473    58.497
ATOM     23  O   UNL d   1      40.280  48.832   5.664 -0.30 +0.03    -0.228    58.497
ATOM     24  O   UNL d   1      38.053  50.057   6.200 -0.40 -0.25    -0.303    58.497
ATOM     25  H   UNL d   1      37.329  50.522   5.708 -0.45 +0.20    +0.222    58.497
ATOM     26  O   UNL d   1      37.973  48.154   4.609 -0.70 -0.38    -0.303    58.497
ATOM     27  H   UNL d   1      38.496  47.452   4.172 +0.08 +0.19    +0.222    58.497
ATOM     28  O   UNL d   1      36.388  50.707  -0.942 +0.00 -0.06    -0.278    58.497
ATOM     29  P   UNL d   1      36.545  51.432  -2.351 +0.01 +0.06    +0.473    58.497
ATOM     30  O   UNL d   1      36.382  52.909  -2.333 +0.00 -0.02    -0.228    58.497
ATOM     31  O   UNL d   1      37.972  50.865  -2.800 +0.00 -0.03    -0.303    58.497
ATOM     32  H   UNL d   1      38.058  49.938  -2.476 +0.00 +0.03    +0.222    58.497
ATOM     33  O   UNL d   1      35.535  50.608  -3.266 +0.00 -0.03    -0.303    58.497
ATOM     34  H   UNL d   1      35.542  49.662  -2.980 +0.00 +0.03    +0.222    58.497
ATOM     35  O   UNL d   1      38.584  48.032   2.140 -0.05 -0.16    -0.278    58.497
ATOM     36  P   UNL d   1      39.951  47.240   2.361 +0.01 +0.12    +0.473    58.497
ATOM     37  O   UNL d   1      39.872  46.063   3.281 -0.05 -0.06    -0.228    58.497
ATOM     38  O   UNL d   1      40.361  46.875   0.866 +0.00 -0.05    -0.303    58.497
ATOM     39  H   UNL d   1      39.888  47.473   0.248 +0.01 +0.04    +0.222    58.497
ATOM     40  O   UNL d   1      40.958  48.404   2.761 -0.01 -0.03    -0.303    58.497
ATOM     41  H   UNL d   1      40.604  48.955   3.494 +0.06 +0.03    +0.222    58.497
ATOM     42  O   UNL d   1      38.706  49.037  -0.593 +0.00 -0.06    -0.278    58.497
ATOM     43  P   UNL d   1      38.276  47.791  -1.491 +0.01 +0.09    +0.473    58.497
ATOM     44  O   UNL d   1      39.225  47.349  -2.551 +0.00 -0.02    -0.228    58.497
ATOM     45  O   UNL d   1      37.947  46.675  -0.406 +0.00 -0.09    -0.303    58.497
ATOM     46  H   UNL d   1      38.500  46.780   0.395 +0.01 +0.07    +0.222    58.497
ATOM     47  O   UNL d   1      36.810  48.194  -1.999 +0.00 -0.06    -0.303    58.497
ATOM     48  H   UNL d   1      36.814  49.130  -2.285 +0.00 +0.04    +0.222    58.497
TER
ENDMDL
MODEL       20
USER    Run = 20
USER    Cluster Rank = 26
USER    Number of conformations in this cluster = 1
USER  
USER    RMSD from reference structure       = 48.373 A
USER  
USER    Estimated Free Energy of Binding    =   +3.23 kcal/mol  [=(1)+(2)+(3)-(4)]
USER    
USER    (1) Final Intermolecular Energy     =   -3.93 kcal/mol
USER        vdW + Hbond + desolv Energy     =   -3.85 kcal/mol
USER        Electrostatic Energy            =   -0.08 kcal/mol
USER    (2) Final Total Internal Energy     =  -14.79 kcal/mol
USER    (3) Torsional Free Energy           =   +7.16 kcal/mol
USER    (4) Unbound System's Energy  [=(2)] =  -14.79 kcal/mol
USER    
USER    
USER  
USER    DPF = D:/Protein_go_brrr/autodock/final/6BB5/IHP/dock.dpf
USER    NEWDPF move	IHP_ideal_opt.pdbqt
USER    NEWDPF about	0.035000 0.082000 -0.065000
USER    NEWDPF tran0	19.936601 48.669385 -3.808077
USER    NEWDPF axisangle0	0.501363 -0.469435 0.726819 -60.975362
USER    NEWDPF quaternion0	0.254368 -0.238169 0.368754 -0.861738
USER    NEWDPF dihe0	-169.07 -40.88 140.44 66.48 82.17 81.54 -82.88 -75.15 119.71 -0.66 152.83 129.81 -120.02 87.32 106.95 49.19 90.23 -172.12 41.54 -13.76 -50.75 -14.13 -33.78 24.38 
USER  
USER                              x       y       z    vdW   Elec        q     RMS 
ATOM      1  C   UNL d   1      21.202  48.297  -2.693 -0.15 -0.02    +0.194    48.373
ATOM      2  C   UNL d   1      21.126  47.400  -3.930 -0.14 -0.02    +0.194    48.373
ATOM      3  C   UNL d   1      19.684  47.006  -4.256 -0.20 -0.03    +0.194    48.373
ATOM      4  C   UNL d   1      18.741  48.203  -4.352 -0.12 -0.04    +0.194    48.373
ATOM      5  C   UNL d   1      18.865  49.185  -3.194 -0.04 -0.06    +0.194    48.373
ATOM      6  C   UNL d   1      20.310  49.531  -2.828 -0.11 -0.03    +0.194    48.373
ATOM      7  O   UNL d   1      22.549  48.757  -2.559 -0.04 +0.01    -0.278    48.373
ATOM      8  P   UNL d   1      23.621  47.783  -1.884 -0.05 +0.03    +0.473    48.373
ATOM      9  O   UNL d   1      23.417  47.530  -0.432 -0.11 -0.03    -0.228    48.373
ATOM     10  O   UNL d   1      23.549  46.457  -2.769 -0.12 -0.02    -0.303    48.373
ATOM     11  H   UNL d   1      23.350  46.693  -3.694 +0.05 +0.01    +0.222    48.373
ATOM     12  O   UNL d   1      25.035  48.380  -2.292 -0.02 -0.02    -0.303    48.373
ATOM     13  H   UNL d   1      25.352  48.057  -3.166 +0.02 +0.01    +0.222    48.373
ATOM     14  O   UNL d   1      21.672  48.105  -5.052 -0.02 +0.01    -0.278    48.373
ATOM     15  P   UNL d   1      22.969  47.464  -5.738 +0.00 +0.01    +0.473    48.373
ATOM     16  O   UNL d   1      23.063  47.568  -7.228 -0.00 -0.00    -0.228    48.373
ATOM     17  O   UNL d   1      24.189  48.167  -4.992 -0.00 -0.01    -0.303    48.373
ATOM     18  H   UNL d   1      24.042  48.195  -4.027 +0.02 +0.01    +0.222    48.373
ATOM     19  O   UNL d   1      23.042  45.988  -5.147 -0.04 -0.01    -0.303    48.373
ATOM     20  H   UNL d   1      22.256  45.776  -4.611 +0.08 +0.00    +0.222    48.373
ATOM     21  O   UNL d   1      20.271  50.161  -1.549 -0.13 +0.05    -0.278    48.373
ATOM     22  P   UNL d   1      21.415  51.196  -1.141 -0.05 -0.05    +0.473    48.373
ATOM     23  O   UNL d   1      21.012  52.455  -0.451 -0.13 +0.05    -0.228    48.373
ATOM     24  O   UNL d   1      22.411  50.271  -0.314 -0.03 +0.02    -0.303    48.373
ATOM     25  H   UNL d   1      22.189  49.325  -0.511 +0.06 -0.01    +0.222    48.373
ATOM     26  O   UNL d   1      22.202  51.374  -2.527 -0.01 +0.02    -0.303    48.373
ATOM     27  H   UNL d   1      22.941  50.733  -2.562 +0.02 -0.01    +0.222    48.373
ATOM     28  O   UNL d   1      19.682  46.421  -5.552 -0.10 +0.02    -0.278    48.373
ATOM     29  P   UNL d   1      19.738  44.838  -5.719 -0.24 +0.00    +0.473    48.373
ATOM     30  O   UNL d   1      19.258  44.053  -4.553 -0.46 +0.02    -0.228    48.373
ATOM     31  O   UNL d   1      18.926  44.673  -7.089 -0.18 -0.03    -0.303    48.373
ATOM     32  H   UNL d   1      18.253  45.391  -7.143 +0.09 +0.00    +0.222    48.373
ATOM     33  O   UNL d   1      21.245  44.602  -6.174 -0.11 -0.02    -0.303    48.373
ATOM     34  H   UNL d   1      21.629  45.463  -6.472 +0.06 +0.01    +0.222    48.373
ATOM     35  O   UNL d   1      18.245  50.390  -3.640 -0.09 +0.05    -0.278    48.373
ATOM     36  P   UNL d   1      16.731  50.707  -3.252 -0.19 -0.09    +0.473    48.373
ATOM     37  O   UNL d   1      16.465  52.099  -2.777 -0.26 +0.04    -0.228    48.373
ATOM     38  O   UNL d   1      15.962  50.314  -4.590 -0.07 +0.05    -0.303    48.373
ATOM     39  H   UNL d   1      16.252  49.421  -4.877 +0.09 -0.04    +0.222    48.373
ATOM     40  O   UNL d   1      16.382  49.522  -2.249 -0.22 +0.10    -0.303    48.373
ATOM     41  H   UNL d   1      16.733  48.661  -2.566 -0.32 -0.12    +0.222    48.373
ATOM     42  O   UNL d   1      17.407  47.684  -4.322 -0.18 +0.07    -0.278    48.373
ATOM     43  P   UNL d   1      16.727  47.226  -5.690 -0.15 -0.07    +0.473    48.373
ATOM     44  O   UNL d   1      15.398  47.810  -6.026 -0.18 +0.04    -0.228    48.373
ATOM     45  O   UNL d   1      17.862  47.531  -6.763 -0.04 +0.02    -0.303    48.373
ATOM     46  H   UNL d   1      18.542  46.828  -6.774 +0.07 -0.01    +0.222    48.373
ATOM     47  O   UNL d   1      16.778  45.626  -5.608 -0.24 +0.05    -0.303    48.373
ATOM     48  H   UNL d   1      17.691  45.343  -5.395 +0.12 -0.02    +0.222    48.373
TER
ENDMDL
MODEL       99
USER    Run = 99
USER    Cluster Rank = 27
USER    Number of conformations in this cluster = 1
USER  
USER    RMSD from reference structure       = 36.169 A
USER  
USER    Estimated Free Energy of Binding    =   +3.25 kcal/mol  [=(1)+(2)+(3)-(4)]
USER    
USER    (1) Final Intermolecular Energy     =   -3.91 kcal/mol
USER        vdW + Hbond + desolv Energy     =   -3.51 kcal/mol
USER        Electrostatic Energy            =   -0.40 kcal/mol
USER    (2) Final Total Internal Energy     =  -14.16 kcal/mol
USER    (3) Torsional Free Energy           =   +7.16 kcal/mol
USER    (4) Unbound System's Energy  [=(2)] =  -14.16 kcal/mol
USER    
USER    
USER  
USER    DPF = D:/Protein_go_brrr/autodock/final/6BB5/IHP/dock.dpf
USER    NEWDPF move	IHP_ideal_opt.pdbqt
USER    NEWDPF about	0.035000 0.082000 -0.065000
USER    NEWDPF tran0	4.867318 38.478074 -5.758988
USER    NEWDPF axisangle0	-0.890030 0.114500 0.441290 -118.386856
USER    NEWDPF quaternion0	-0.764447 0.098344 0.379025 -0.512141
USER    NEWDPF dihe0	-1.14 6.04 36.58 -42.50 30.48 -172.95 -38.91 -24.82 47.31 0.20 31.99 -119.18 53.89 -175.16 -48.82 171.31 149.29 -19.08 25.44 -32.51 -178.90 -24.02 -12.76 142.65 
USER  
USER                              x       y       z    vdW   Elec        q     RMS 
ATOM      1  C   UNL d   1       5.836  39.859  -6.131 -0.06 +0.00    +0.194    36.169
ATOM      2  C   UNL d   1       5.580  39.613  -4.643 -0.09 +0.02    +0.194    36.169
ATOM      3  C   UNL d   1       4.124  39.227  -4.375 -0.04 +0.04    +0.194    36.169
ATOM      4  C   UNL d   1       3.638  38.069  -5.243 -0.02 +0.03    +0.194    36.169
ATOM      5  C   UNL d   1       3.974  38.220  -6.722 -0.02 +0.02    +0.194    36.169
ATOM      6  C   UNL d   1       5.414  38.665  -6.988 -0.05 +0.00    +0.194    36.169
ATOM      7  O   UNL d   1       7.241  40.042  -6.318 -0.09 +0.05    -0.278    36.169
ATOM      8  P   UNL d   1       7.810  41.533  -6.386 -0.19 -0.18    +0.473    36.169
ATOM      9  O   UNL d   1       8.541  41.986  -5.171 -0.40 +0.11    -0.228    36.169
ATOM     10  O   UNL d   1       8.713  41.543  -7.702 -0.20 +0.26    -0.303    36.169
ATOM     11  H   UNL d   1       9.353  42.277  -7.654 -0.38 -0.39    +0.222    36.169
ATOM     12  O   UNL d   1       6.573  42.428  -6.826 -0.15 +0.00    -0.303    36.169
ATOM     13  H   UNL d   1       6.005  41.995  -7.502 +0.06 -0.00    +0.222    36.169
ATOM     14  O   UNL d   1       6.425  38.546  -4.195 -0.10 -0.01    -0.278    36.169
ATOM     15  P   UNL d   1       7.769  38.968  -3.434 -0.18 -0.02    +0.473    36.169
ATOM     16  O   UNL d   1       9.059  38.530  -4.055 -0.34 +0.04    -0.228    36.169
ATOM     17  O   UNL d   1       7.656  40.552  -3.299 -0.28 +0.02    -0.303    36.169
ATOM     18  H   UNL d   1       7.582  40.975  -4.175 +0.11 -0.03    +0.222    36.169
ATOM     19  O   UNL d   1       7.538  38.502  -1.931 -0.14 -0.00    -0.303    36.169
ATOM     20  H   UNL d   1       7.304  39.251  -1.353 +0.10 -0.01    +0.222    36.169
ATOM     21  O   UNL d   1       5.470  39.086  -8.349 -0.02 +0.00    -0.278    36.169
ATOM     22  P   UNL d   1       4.917  40.526  -8.756 +0.01 +0.00    +0.473    36.169
ATOM     23  O   UNL d   1       3.989  41.217  -7.814 -0.01 -0.02    -0.228    36.169
ATOM     24  O   UNL d   1       6.264  41.316  -9.065 -0.01 +0.03    -0.303    36.169
ATOM     25  H   UNL d   1       6.958  41.001  -8.432 +0.06 -0.05    +0.222    36.169
ATOM     26  O   UNL d   1       4.349  40.252 -10.230 +0.00 -0.01    -0.303    36.169
ATOM     27  H   UNL d   1       4.302  39.286 -10.382 +0.01 +0.01    +0.222    36.169
ATOM     28  O   UNL d   1       4.046  38.753  -3.036 -0.07 -0.09    -0.278    36.169
ATOM     29  P   UNL d   1       3.824  39.773  -1.833 -0.13 +0.29    +0.473    36.169
ATOM     30  O   UNL d   1       3.001  39.265  -0.706 -0.69 -0.36    -0.228    36.169
ATOM     31  O   UNL d   1       5.344  40.155  -1.508 -0.20 -0.09    -0.303    36.169
ATOM     32  H   UNL d   1       5.914  39.832  -2.244 +0.09 +0.04    +0.222    36.169
ATOM     33  O   UNL d   1       3.290  41.069  -2.588 -0.07 -0.15    -0.303    36.169
ATOM     34  H   UNL d   1       2.742  40.788  -3.361 +0.05 +0.09    +0.222    36.169
ATOM     35  O   UNL d   1       3.826  36.918  -7.286 -0.04 -0.02    -0.278    36.169
ATOM     36  P   UNL d   1       2.739  36.653  -8.423 -0.02 +0.04    +0.473    36.169
ATOM     37  O   UNL d   1       2.449  35.215  -8.714 -0.04 -0.03    -0.228    36.169
ATOM     38  O   UNL d   1       1.490  37.476  -7.877 -0.00 -0.03    -0.303    36.169
ATOM     39  H   UNL d   1       1.579  37.589  -6.906 +0.01 +0.03    +0.222    36.169
ATOM     40  O   UNL d   1       3.284  37.538  -9.627 -0.01 -0.02    -0.303    36.169
ATOM     41  H   UNL d   1       3.614  38.410  -9.317 +0.01 +0.01    +0.222    36.169
ATOM     42  O   UNL d   1       2.211  38.041  -5.137 -0.00 -0.05    -0.278    36.169
ATOM     43  P   UNL d   1       1.427  39.413  -4.917 +0.02 +0.11    +0.473    36.169
ATOM     44  O   UNL d   1       2.068  40.659  -5.420 -0.00 -0.05    -0.228    36.169
ATOM     45  O   UNL d   1       0.003  39.108  -5.560 +0.00 -0.06    -0.303    36.169
ATOM     46  H   UNL d   1       0.088  38.602  -6.393 +0.00 +0.03    +0.222    36.169
ATOM     47  O   UNL d   1       1.087  39.394  -3.351 -0.01 -0.14    -0.303    36.169
ATOM     48  H   UNL d   1       1.922  39.348  -2.840 +0.04 +0.13    +0.222    36.169
TER
ENDMDL
MODEL       56
USER    Run = 56
USER    Cluster Rank = 28
USER    Number of conformations in this cluster = 1
USER  
USER    RMSD from reference structure       = 32.020 A
USER  
USER    Estimated Free Energy of Binding    =   +3.27 kcal/mol  [=(1)+(2)+(3)-(4)]
USER    
USER    (1) Final Intermolecular Energy     =   -3.89 kcal/mol
USER        vdW + Hbond + desolv Energy     =   -3.82 kcal/mol
USER        Electrostatic Energy            =   -0.06 kcal/mol
USER    (2) Final Total Internal Energy     =  -14.19 kcal/mol
USER    (3) Torsional Free Energy           =   +7.16 kcal/mol
USER    (4) Unbound System's Energy  [=(2)] =  -14.19 kcal/mol
USER    
USER    
USER  
USER    DPF = D:/Protein_go_brrr/autodock/final/6BB5/IHP/dock.dpf
USER    NEWDPF move	IHP_ideal_opt.pdbqt
USER    NEWDPF about	0.035000 0.082000 -0.065000
USER    NEWDPF tran0	-1.237838 34.970543 8.433275
USER    NEWDPF axisangle0	-0.132313 -0.877827 -0.460339 -127.410389
USER    NEWDPF quaternion0	-0.118622 -0.786996 -0.412706 -0.442990
USER    NEWDPF dihe0	-180.00 6.58 101.39 143.83 -59.05 -167.61 -20.81 179.93 136.35 -35.85 106.99 -126.99 20.51 84.51 180.00 134.26 113.89 -7.06 -129.35 -15.51 180.00 -29.47 150.83 155.33 
USER  
USER                              x       y       z    vdW   Elec        q     RMS 
ATOM      1  C   UNL d   1      -2.928  34.783   8.735 -0.03 +0.03    +0.194    32.020
ATOM      2  C   UNL d   1      -2.428  34.220   7.403 -0.03 +0.02    +0.194    32.020
ATOM      3  C   UNL d   1      -1.448  35.174   6.717 -0.12 +0.04    +0.194    32.020
ATOM      4  C   UNL d   1      -0.302  35.614   7.625 -0.27 +0.05    +0.194    32.020
ATOM      5  C   UNL d   1      -0.747  36.076   9.007 -0.11 +0.07    +0.194    32.020
ATOM      6  C   UNL d   1      -1.774  35.153   9.667 -0.09 +0.04    +0.194    32.020
ATOM      7  O   UNL d   1      -3.695  33.768   9.388 -0.00 -0.02    -0.278    32.020
ATOM      8  P   UNL d   1      -3.070  33.054  10.674 +0.01 +0.01    +0.473    32.020
ATOM      9  O   UNL d   1      -3.018  33.895  11.900 -0.02 -0.01    -0.228    32.020
ATOM     10  O   UNL d   1      -3.952  31.737  10.852 +0.00 +0.00    -0.303    32.020
ATOM     11  H   UNL d   1      -4.374  31.509  10.002 +0.00 -0.00    +0.222    32.020
ATOM     12  O   UNL d   1      -1.681  32.460  10.181 -0.02 -0.00    -0.303    32.020
ATOM     13  H   UNL d   1      -1.721  32.090   9.271 +0.04 -0.00    +0.222    32.020
ATOM     14  O   UNL d   1      -1.760  32.975   7.644 -0.03 -0.01    -0.278    32.020
ATOM     15  P   UNL d   1      -2.424  31.670   6.995 +0.01 -0.01    +0.473    32.020
ATOM     16  O   UNL d   1      -1.486  30.660   6.411 -0.03 +0.02    -0.228    32.020
ATOM     17  O   UNL d   1      -3.327  31.072   8.163 -0.00 +0.01    -0.303    32.020
ATOM     18  H   UNL d   1      -3.337  31.666   8.938 +0.01 -0.00    +0.222    32.020
ATOM     19  O   UNL d   1      -3.525  32.239   5.998 -0.00 -0.01    -0.303    32.020
ATOM     20  H   UNL d   1      -3.142  32.475   5.133 +0.01 +0.01    +0.222    32.020
ATOM     21  O   UNL d   1      -2.335  35.876  10.760 -0.07 -0.08    -0.278    32.020
ATOM     22  P   UNL d   1      -3.436  36.997  10.487 -0.01 +0.25    +0.473    32.020
ATOM     23  O   UNL d   1      -3.513  38.154  11.425 -0.48 -0.22    -0.228    32.020
ATOM     24  O   UNL d   1      -3.137  37.385   8.972 -0.05 -0.19    -0.303    32.020
ATOM     25  H   UNL d   1      -2.990  38.364   8.928 +0.03 +0.24    +0.222    32.020
ATOM     26  O   UNL d   1      -4.769  36.117  10.346 -0.01 -0.06    -0.303    32.020
ATOM     27  H   UNL d   1      -4.615  35.235  10.741 +0.01 +0.03    +0.222    32.020
ATOM     28  O   UNL d   1      -0.833  34.463   5.651 -0.12 -0.05    -0.278    32.020
ATOM     29  P   UNL d   1      -1.584  34.297   4.256 -0.06 +0.09    +0.473    32.020
ATOM     30  O   UNL d   1      -1.028  35.091   3.131 -0.13 -0.09    -0.228    32.020
ATOM     31  O   UNL d   1      -1.548  32.704   4.108 -0.02 -0.02    -0.303    32.020
ATOM     32  H   UNL d   1      -1.573  32.304   5.008 +0.04 +0.01    +0.222    32.020
ATOM     33  O   UNL d   1      -3.099  34.578   4.657 -0.01 -0.05    -0.303    32.020
ATOM     34  H   UNL d   1      -3.644  33.785   4.430 +0.01 +0.02    +0.222    32.020
ATOM     35  O   UNL d   1       0.425  36.049   9.819 -0.18 -0.06    -0.278    32.020
ATOM     36  P   UNL d   1       0.966  34.668  10.406 -0.22 -0.00    +0.473    32.020
ATOM     37  O   UNL d   1       2.411  34.654  10.793 -0.49 +0.03    -0.228    32.020
ATOM     38  O   UNL d   1      -0.038  34.412  11.615 -0.13 -0.00    -0.303    32.020
ATOM     39  H   UNL d   1      -0.938  34.253  11.257 +0.08 +0.01    +0.222    32.020
ATOM     40  O   UNL d   1       0.505  33.625   9.298 -0.13 -0.02    -0.303    32.020
ATOM     41  H   UNL d   1      -0.452  33.414   9.372 +0.08 +0.01    +0.222    32.020
ATOM     42  O   UNL d   1       0.324  36.734   6.989 -0.34 -0.10    -0.278    32.020
ATOM     43  P   UNL d   1      -0.594  37.876   6.359 -0.20 +0.25    +0.473    32.020
ATOM     44  O   UNL d   1      -1.824  38.259   7.107 -0.14 -0.15    -0.228    32.020
ATOM     45  O   UNL d   1       0.435  39.071   6.143 -0.37 -0.17    -0.303    32.020
ATOM     46  H   UNL d   1       1.325  38.739   5.911 -0.24 +0.09    +0.222    32.020
ATOM     47  O   UNL d   1      -0.827  37.371   4.856 -0.09 -0.19    -0.303    32.020
ATOM     48  H   UNL d   1      -1.153  36.447   4.872 +0.06 +0.10    +0.222    32.020
TER
ENDMDL
MODEL       38
USER    Run = 38
USER    Cluster Rank = 29
USER    Number of conformations in this cluster = 1
USER  
USER    RMSD from reference structure       = 35.948 A
USER  
USER    Estimated Free Energy of Binding    =   +3.29 kcal/mol  [=(1)+(2)+(3)-(4)]
USER    
USER    (1) Final Intermolecular Energy     =   -3.87 kcal/mol
USER        vdW + Hbond + desolv Energy     =   -3.47 kcal/mol
USER        Electrostatic Energy            =   -0.40 kcal/mol
USER    (2) Final Total Internal Energy     =  -13.52 kcal/mol
USER    (3) Torsional Free Energy           =   +7.16 kcal/mol
USER    (4) Unbound System's Energy  [=(2)] =  -13.52 kcal/mol
USER    
USER    
USER  
USER    DPF = D:/Protein_go_brrr/autodock/final/6BB5/IHP/dock.dpf
USER    NEWDPF move	IHP_ideal_opt.pdbqt
USER    NEWDPF about	0.035000 0.082000 -0.065000
USER    NEWDPF tran0	18.687128 20.406322 27.391881
USER    NEWDPF axisangle0	0.843436 0.325856 0.427122 100.417996
USER    NEWDPF quaternion0	0.648083 0.250383 0.328194 0.639989
USER    NEWDPF dihe0	-163.65 24.89 53.15 -20.26 61.32 -101.41 -125.34 -63.73 9.18 -92.09 168.26 77.22 41.49 -85.85 -28.97 71.91 -74.03 179.51 7.25 0.19 -47.60 -13.13 45.13 26.56 
USER  
USER                              x       y       z    vdW   Elec        q     RMS 
ATOM      1  C   UNL d   1      18.935  21.122  28.945 -0.04 -0.04    +0.194    35.948
ATOM      2  C   UNL d   1      17.475  20.919  28.536 -0.05 -0.07    +0.194    35.948
ATOM      3  C   UNL d   1      17.235  21.313  27.077 -0.11 -0.06    +0.194    35.948
ATOM      4  C   UNL d   1      18.205  20.644  26.106 -0.15 -0.07    +0.194    35.948
ATOM      5  C   UNL d   1      19.664  20.722  26.534 -0.09 -0.04    +0.194    35.948
ATOM      6  C   UNL d   1      19.896  20.388  28.009 -0.06 -0.05    +0.194    35.948
ATOM      7  O   UNL d   1      19.112  20.574  30.253 -0.01 +0.06    -0.278    35.948
ATOM      8  P   UNL d   1      19.485  21.566  31.448 +0.01 -0.04    +0.473    35.948
ATOM      9  O   UNL d   1      18.326  22.087  32.221 +0.00 +0.02    -0.228    35.948
ATOM     10  O   UNL d   1      20.510  20.730  32.339 +0.00 +0.02    -0.303    35.948
ATOM     11  H   UNL d   1      21.098  20.210  31.760 +0.01 -0.02    +0.222    35.948
ATOM     12  O   UNL d   1      20.432  22.662  30.793 -0.01 +0.02    -0.303    35.948
ATOM     13  H   UNL d   1      20.843  22.364  29.951 +0.03 -0.02    +0.222    35.948
ATOM     14  O   UNL d   1      17.132  19.537  28.698 -0.09 +0.24    -0.278    35.948
ATOM     15  P   UNL d   1      15.768  19.224  29.476 -0.02 -0.43    +0.473    35.948
ATOM     16  O   UNL d   1      15.351  20.209  30.522 -0.02 +0.09    -0.228    35.948
ATOM     17  O   UNL d   1      14.689  19.061  28.316 -0.04 +0.39    -0.303    35.948
ATOM     18  H   UNL d   1      14.803  19.746  27.630 +0.06 -0.19    +0.222    35.948
ATOM     19  O   UNL d   1      15.932  17.722  29.974 -0.05 +0.41    -0.303    35.948
ATOM     20  H   UNL d   1      15.745  17.083  29.261 -0.52 -0.64    +0.222    35.948
ATOM     21  O   UNL d   1      21.213  20.832  28.330 -0.04 +0.04    -0.278    35.948
ATOM     22  P   UNL d   1      22.052  20.072  29.454 +0.00 -0.06    +0.473    35.948
ATOM     23  O   UNL d   1      21.431  18.890  30.120 -0.00 +0.03    -0.228    35.948
ATOM     24  O   UNL d   1      23.416  19.768  28.692 -0.02 +0.03    -0.303    35.948
ATOM     25  H   UNL d   1      23.314  20.059  27.750 +0.05 -0.03    +0.222    35.948
ATOM     26  O   UNL d   1      22.474  21.281  30.418 -0.02 +0.02    -0.303    35.948
ATOM     27  H   UNL d   1      21.747  21.457  31.050 +0.02 -0.02    +0.222    35.948
ATOM     28  O   UNL d   1      15.946  20.837  26.711 -0.14 +0.13    -0.278    35.948
ATOM     29  P   UNL d   1      14.688  21.813  26.748 -0.13 -0.13    +0.473    35.948
ATOM     30  O   UNL d   1      14.897  23.151  26.138 -0.19 +0.03    -0.228    35.948
ATOM     31  O   UNL d   1      13.584  20.871  26.072 -0.31 +0.12    -0.303    35.948
ATOM     32  H   UNL d   1      13.769  20.814  25.106 -0.41 -0.15    +0.222    35.948
ATOM     33  O   UNL d   1      14.284  21.779  28.287 -0.04 +0.08    -0.303    35.948
ATOM     34  H   UNL d   1      14.858  21.125  28.756 +0.05 -0.08    +0.222    35.948
ATOM     35  O   UNL d   1      20.346  19.732  25.767 -0.09 +0.06    -0.278    35.948
ATOM     36  P   UNL d   1      21.931  19.586  25.869 -0.07 -0.06    +0.473    35.948
ATOM     37  O   UNL d   1      22.676  20.843  26.186 -0.14 +0.02    -0.228    35.948
ATOM     38  O   UNL d   1      22.083  18.441  26.967 -0.02 +0.05    -0.303    35.948
ATOM     39  H   UNL d   1      21.678  18.747  27.807 +0.02 -0.04    +0.222    35.948
ATOM     40  O   UNL d   1      22.295  18.856  24.503 -0.06 +0.03    -0.303    35.948
ATOM     41  H   UNL d   1      22.915  18.107  24.645 +0.04 -0.01    +0.222    35.948
ATOM     42  O   UNL d   1      18.093  21.342  24.861 -0.14 +0.04    -0.278    35.948
ATOM     43  P   UNL d   1      16.937  20.924  23.844 -0.25 -0.11    +0.473    35.948
ATOM     44  O   UNL d   1      17.307  20.776  22.408 -0.42 +0.04    -0.228    35.948
ATOM     45  O   UNL d   1      16.351  19.601  24.505 -0.10 +0.14    -0.303    35.948
ATOM     46  H   UNL d   1      15.571  19.795  25.063 +0.06 -0.12    +0.222    35.948
ATOM     47  O   UNL d   1      15.776  21.985  24.153 +0.06 +0.06    -0.303    35.948
ATOM     48  H   UNL d   1      15.073  21.549  24.678 -0.02 -0.07    +0.222    35.948
TER
ENDMDL
MODEL       91
USER    Run = 91
USER    Cluster Rank = 30
USER    Number of conformations in this cluster = 1
USER  
USER    RMSD from reference structure       = 45.410 A
USER  
USER    Estimated Free Energy of Binding    =   +3.30 kcal/mol  [=(1)+(2)+(3)-(4)]
USER    
USER    (1) Final Intermolecular Energy     =   -3.86 kcal/mol
USER        vdW + Hbond + desolv Energy     =   -3.84 kcal/mol
USER        Electrostatic Energy            =   -0.02 kcal/mol
USER    (2) Final Total Internal Energy     =  -13.29 kcal/mol
USER    (3) Torsional Free Energy           =   +7.16 kcal/mol
USER    (4) Unbound System's Energy  [=(2)] =  -13.29 kcal/mol
USER    
USER    
USER  
USER    DPF = D:/Protein_go_brrr/autodock/final/6BB5/IHP/dock.dpf
USER    NEWDPF move	IHP_ideal_opt.pdbqt
USER    NEWDPF about	0.035000 0.082000 -0.065000
USER    NEWDPF tran0	20.373271 43.373794 -8.343311
USER    NEWDPF axisangle0	-0.594678 -0.250021 -0.764099 -147.465393
USER    NEWDPF quaternion0	-0.570870 -0.240012 -0.733509 -0.280119
USER    NEWDPF dihe0	178.51 -7.36 57.91 1.79 -87.51 -167.41 -98.00 -58.81 40.29 -2.42 8.82 180.00 64.76 165.25 177.61 -6.31 135.24 144.73 47.76 -4.99 -180.00 8.86 -6.45 -16.36 
USER  
USER                              x       y       z    vdW   Elec        q     RMS 
ATOM      1  C   UNL d   1      20.081  44.380  -6.970 -0.20 +0.02    +0.194    45.410
ATOM      2  C   UNL d   1      19.510  44.888  -8.295 -0.13 +0.02    +0.194    45.410
ATOM      3  C   UNL d   1      20.505  44.716  -9.444 -0.06 +0.02    +0.194    45.410
ATOM      4  C   UNL d   1      21.052  43.295  -9.558 -0.09 +0.05    +0.194    45.410
ATOM      5  C   UNL d   1      21.528  42.705  -8.237 -0.13 +0.04    +0.194    45.410
ATOM      6  C   UNL d   1      20.560  42.931  -7.073 -0.19 +0.04    +0.194    45.410
ATOM      7  O   UNL d   1      19.039  44.415  -5.992 -0.30 -0.01    -0.278    45.410
ATOM      8  P   UNL d   1      18.608  45.832  -5.394 -0.20 -0.03    +0.473    45.410
ATOM      9  O   UNL d   1      17.208  46.243  -5.691 -0.27 +0.03    -0.228    45.410
ATOM     10  O   UNL d   1      18.905  45.699  -3.832 -0.22 +0.06    -0.303    45.410
ATOM     11  H   UNL d   1      19.546  44.980  -3.681 -0.38 -0.08    +0.222    45.410
ATOM     12  O   UNL d   1      19.741  46.842  -5.863 -0.05 +0.02    -0.303    45.410
ATOM     13  H   UNL d   1      20.648  46.536  -5.636 +0.07 -0.01    +0.222    45.410
ATOM     14  O   UNL d   1      18.322  44.149  -8.605 -0.10 -0.05    -0.278    45.410
ATOM     15  P   UNL d   1      17.004  45.007  -8.909 -0.15 -0.01    +0.473    45.410
ATOM     16  O   UNL d   1      15.720  44.492  -8.338 -0.29 +0.06    -0.228    45.410
ATOM     17  O   UNL d   1      17.367  46.470  -8.392 -0.06 +0.01    -0.303    45.410
ATOM     18  H   UNL d   1      17.897  46.432  -7.573 +0.07 -0.01    +0.222    45.410
ATOM     19  O   UNL d   1      17.020  45.213 -10.486 -0.06 +0.01    -0.303    45.410
ATOM     20  H   UNL d   1      17.835  45.657 -10.784 +0.04 +0.00    +0.222    45.410
ATOM     21  O   UNL d   1      21.279  42.642  -5.877 -0.18 -0.06    -0.278    45.410
ATOM     22  P   UNL d   1      22.314  43.709  -5.297 -0.06 +0.06    +0.473    45.410
ATOM     23  O   UNL d   1      23.463  43.210  -4.489 -0.22 -0.04    -0.228    45.410
ATOM     24  O   UNL d   1      22.719  44.515  -6.608 -0.05 -0.02    -0.303    45.410
ATOM     25  H   UNL d   1      23.626  44.891  -6.471 +0.04 +0.01    +0.222    45.410
ATOM     26  O   UNL d   1      21.335  44.744  -4.561 -0.23 +0.01    -0.303    45.410
ATOM     27  H   UNL d   1      20.469  44.315  -4.408 -0.11 -0.03    +0.222    45.410
ATOM     28  O   UNL d   1      19.802  44.948 -10.658 -0.03 -0.03    -0.278    45.410
ATOM     29  P   UNL d   1      20.246  46.128 -11.632 +0.00 +0.02    +0.473    45.410
ATOM     30  O   UNL d   1      20.818  47.327 -10.967 -0.00 -0.01    -0.228    45.410
ATOM     31  O   UNL d   1      21.206  45.322 -12.627 -0.00 -0.02    -0.303    45.410
ATOM     32  H   UNL d   1      21.808  44.755 -12.091 +0.01 +0.02    +0.222    45.410
ATOM     33  O   UNL d   1      18.936  46.348 -12.509 -0.00 -0.01    -0.303    45.410
ATOM     34  H   UNL d   1      18.238  45.715 -12.209 +0.02 +0.01    +0.222    45.410
ATOM     35  O   UNL d   1      21.608  41.297  -8.448 -0.12 -0.09    -0.278    45.410
ATOM     36  P   UNL d   1      22.974  40.519  -8.178 -0.05 +0.10    +0.473    45.410
ATOM     37  O   UNL d   1      22.937  39.045  -8.425 -0.06 -0.05    -0.228    45.410
ATOM     38  O   UNL d   1      23.992  41.314  -9.111 -0.01 -0.04    -0.303    45.410
ATOM     39  H   UNL d   1      23.505  41.672  -9.885 +0.02 +0.03    +0.222    45.410
ATOM     40  O   UNL d   1      23.351  40.995  -6.708 -0.10 -0.06    -0.303    45.410
ATOM     41  H   UNL d   1      23.222  41.963  -6.594 +0.07 +0.04    +0.222    45.410
ATOM     42  O   UNL d   1      22.189  43.357 -10.426 -0.02 -0.04    -0.278    45.410
ATOM     43  P   UNL d   1      22.259  42.371 -11.678 -0.01 +0.09    +0.473    45.410
ATOM     44  O   UNL d   1      23.549  42.290 -12.418 -0.00 -0.03    -0.228    45.410
ATOM     45  O   UNL d   1      21.776  40.987 -11.059 -0.07 -0.11    -0.303    45.410
ATOM     46  H   UNL d   1      22.398  40.663 -10.378 +0.03 +0.06    +0.222    45.410
ATOM     47  O   UNL d   1      20.985  42.799 -12.552 -0.02 -0.07    -0.303    45.410
ATOM     48  H   UNL d   1      20.506  43.519 -12.093 +0.02 +0.04    +0.222    45.410
TER
ENDMDL
MODEL        2
USER    Run = 2
USER    Cluster Rank = 31
USER    Number of conformations in this cluster = 1
USER  
USER    RMSD from reference structure       = 29.554 A
USER  
USER    Estimated Free Energy of Binding    =   +3.36 kcal/mol  [=(1)+(2)+(3)-(4)]
USER    
USER    (1) Final Intermolecular Energy     =   -3.79 kcal/mol
USER        vdW + Hbond + desolv Energy     =   -3.58 kcal/mol
USER        Electrostatic Energy            =   -0.21 kcal/mol
USER    (2) Final Total Internal Energy     =  -14.54 kcal/mol
USER    (3) Torsional Free Energy           =   +7.16 kcal/mol
USER    (4) Unbound System's Energy  [=(2)] =  -14.54 kcal/mol
USER    
USER    
USER  
USER    DPF = D:/Protein_go_brrr/autodock/final/6BB5/IHP/dock.dpf
USER    NEWDPF move	IHP_ideal_opt.pdbqt
USER    NEWDPF about	0.035000 0.082000 -0.065000
USER    NEWDPF tran0	23.436824 24.526874 3.366645
USER    NEWDPF axisangle0	0.812119 0.567719 -0.134752 -126.149964
USER    NEWDPF quaternion0	0.724085 0.506178 -0.120145 -0.452824
USER    NEWDPF dihe0	113.29 38.39 113.67 150.87 145.46 130.32 -10.26 -121.29 23.34 99.08 52.98 -123.00 -90.31 67.45 -159.62 -110.14 -15.94 -51.16 55.74 20.96 18.05 18.56 -28.04 172.18 
USER  
USER                              x       y       z    vdW   Elec        q     RMS 
ATOM      1  C   UNL d   1      23.489  24.763   1.656 -0.09 -0.05    +0.194    29.554
ATOM      2  C   UNL d   1      22.135  24.333   2.223 -0.10 -0.02    +0.194    29.554
ATOM      3  C   UNL d   1      22.284  23.226   3.269 -0.05 +0.00    +0.194    29.554
ATOM      4  C   UNL d   1      23.287  23.568   4.368 -0.06 +0.02    +0.194    29.554
ATOM      5  C   UNL d   1      24.613  24.111   3.850 -0.07 +0.01    +0.194    29.554
ATOM      6  C   UNL d   1      24.465  25.174   2.760 -0.11 -0.01    +0.194    29.554
ATOM      7  O   UNL d   1      23.281  25.906   0.824 -0.15 +0.21    -0.278    29.554
ATOM      8  P   UNL d   1      22.448  25.721  -0.527 -0.14 -0.26    +0.473    29.554
ATOM      9  O   UNL d   1      22.709  24.452  -1.260 -0.06 +0.07    -0.228    29.554
ATOM     10  O   UNL d   1      20.929  25.882  -0.069 -0.27 +0.12    -0.303    29.554
ATOM     11  H   UNL d   1      20.779  25.374   0.751 +0.14 -0.06    +0.222    29.554
ATOM     12  O   UNL d   1      22.691  27.059  -1.348 -0.23 +0.28    -0.303    29.554
ATOM     13  H   UNL d   1      23.187  27.740  -0.839 -0.38 -0.40    +0.222    29.554
ATOM     14  O   UNL d   1      21.507  25.463   2.841 -0.16 +0.01    -0.278    29.554
ATOM     15  P   UNL d   1      19.906  25.458   2.885 -0.09 +0.00    +0.473    29.554
ATOM     16  O   UNL d   1      19.271  25.573   4.235 -0.15 -0.03    -0.228    29.554
ATOM     17  O   UNL d   1      19.488  26.640   1.903 -0.48 +0.04    -0.303    29.554
ATOM     18  H   UNL d   1      20.226  26.886   1.313 +0.04 -0.08    +0.222    29.554
ATOM     19  O   UNL d   1      19.491  24.177   2.038 -0.19 +0.02    -0.303    29.554
ATOM     20  H   UNL d   1      19.401  23.386   2.601 +0.13 -0.00    +0.222    29.554
ATOM     21  O   UNL d   1      25.746  25.322   2.152 -0.08 +0.03    -0.278    29.554
ATOM     22  P   UNL d   1      26.828  26.291   2.812 -0.14 +0.07    +0.473    29.554
ATOM     23  O   UNL d   1      27.493  27.302   1.940 -0.19 -0.06    -0.228    29.554
ATOM     24  O   UNL d   1      26.016  26.898   4.038 -0.03 -0.17    -0.303    29.554
ATOM     25  H   UNL d   1      26.013  26.227   4.768 +0.08 +0.11    +0.222    29.554
ATOM     26  O   UNL d   1      27.799  25.245   3.542 -0.08 -0.04    -0.303    29.554
ATOM     27  H   UNL d   1      27.258  24.569   3.999 +0.06 +0.02    +0.222    29.554
ATOM     28  O   UNL d   1      21.032  23.090   3.930 -0.07 -0.01    -0.278    29.554
ATOM     29  P   UNL d   1      20.352  21.658   4.077 -0.10 +0.02    +0.473    29.554
ATOM     30  O   UNL d   1      18.894  21.609   3.796 -0.23 -0.02    -0.228    29.554
ATOM     31  O   UNL d   1      21.305  20.796   3.123 -0.03 +0.00    -0.303    29.554
ATOM     32  H   UNL d   1      22.237  21.076   3.275 +0.03 +0.00    +0.222    29.554
ATOM     33  O   UNL d   1      20.819  21.214   5.533 -0.07 -0.02    -0.303    29.554
ATOM     34  H   UNL d   1      21.805  21.146   5.547 +0.04 +0.02    +0.222    29.554
ATOM     35  O   UNL d   1      25.237  24.740   4.968 -0.10 -0.06    -0.278    29.554
ATOM     36  P   UNL d   1      26.421  24.008   5.746 -0.07 +0.07    +0.473    29.554
ATOM     37  O   UNL d   1      27.242  23.062   4.928 -0.08 -0.01    -0.228    29.554
ATOM     38  O   UNL d   1      27.237  25.243   6.334 -0.16 -0.08    -0.303    29.554
ATOM     39  H   UNL d   1      27.365  25.910   5.625 +0.11 +0.08    +0.222    29.554
ATOM     40  O   UNL d   1      25.674  23.405   7.014 -0.09 -0.04    -0.303    29.554
ATOM     41  H   UNL d   1      24.936  22.810   6.753 +0.06 +0.03    +0.222    29.554
ATOM     42  O   UNL d   1      23.573  22.350   5.062 -0.02 -0.02    -0.278    29.554
ATOM     43  P   UNL d   1      24.225  21.137   4.257 +0.00 +0.01    +0.473    29.554
ATOM     44  O   UNL d   1      24.389  21.300   2.785 -0.00 +0.00    -0.228    29.554
ATOM     45  O   UNL d   1      25.588  20.891   5.040 -0.01 -0.01    -0.303    29.554
ATOM     46  H   UNL d   1      25.846  21.674   5.565 +0.03 +0.01    +0.222    29.554
ATOM     47  O   UNL d   1      23.350  19.877   4.720 -0.00 -0.01    -0.303    29.554
ATOM     48  H   UNL d   1      22.405  20.055   4.537 +0.02 +0.01    +0.222    29.554
TER
ENDMDL
MODEL       66
USER    Run = 66
USER    Cluster Rank = 32
USER    Number of conformations in this cluster = 1
USER  
USER    RMSD from reference structure       = 38.160 A
USER  
USER    Estimated Free Energy of Binding    =   +3.38 kcal/mol  [=(1)+(2)+(3)-(4)]
USER    
USER    (1) Final Intermolecular Energy     =   -3.78 kcal/mol
USER        vdW + Hbond + desolv Energy     =   -3.18 kcal/mol
USER        Electrostatic Energy            =   -0.60 kcal/mol
USER    (2) Final Total Internal Energy     =  -12.91 kcal/mol
USER    (3) Torsional Free Energy           =   +7.16 kcal/mol
USER    (4) Unbound System's Energy  [=(2)] =  -12.91 kcal/mol
USER    
USER    
USER  
USER    DPF = D:/Protein_go_brrr/autodock/final/6BB5/IHP/dock.dpf
USER    NEWDPF move	IHP_ideal_opt.pdbqt
USER    NEWDPF about	0.035000 0.082000 -0.065000
USER    NEWDPF tran0	36.561290 21.999476 1.138053
USER    NEWDPF axisangle0	-0.180046 -0.884145 -0.431127 -40.153739
USER    NEWDPF quaternion0	-0.061806 -0.303510 -0.147998 -0.939233
USER    NEWDPF dihe0	-175.92 75.63 127.17 28.20 150.35 161.15 -48.95 20.75 -33.41 79.24 93.86 167.85 96.64 -163.40 40.82 25.51 -17.88 108.94 -4.10 -15.50 -8.12 -31.96 179.59 -0.26 
USER  
USER                              x       y       z    vdW   Elec        q     RMS 
ATOM      1  C   UNL d   1      36.812  21.019   2.538 -0.06 -0.16    +0.194    38.160
ATOM      2  C   UNL d   1      35.798  20.480   1.526 -0.07 -0.13    +0.194    38.160
ATOM      3  C   UNL d   1      34.876  21.584   1.006 -0.11 -0.15    +0.194    38.160
ATOM      4  C   UNL d   1      35.632  22.799   0.474 -0.14 -0.10    +0.194    38.160
ATOM      5  C   UNL d   1      36.732  23.301   1.402 -0.04 -0.12    +0.194    38.160
ATOM      6  C   UNL d   1      37.616  22.189   1.971 -0.19 -0.10    +0.194    38.160
ATOM      7  O   UNL d   1      37.738  19.973   2.842 -0.08 +0.11    -0.278    38.160
ATOM      8  P   UNL d   1      37.973  19.588   4.374 -0.10 -0.16    +0.473    38.160
ATOM      9  O   UNL d   1      38.294  18.157   4.623 -0.04 +0.03    -0.228    38.160
ATOM     10  O   UNL d   1      39.126  20.583   4.850 -0.23 +0.09    -0.303    38.160
ATOM     11  H   UNL d   1      39.106  21.392   4.305 +0.11 -0.07    +0.222    38.160
ATOM     12  O   UNL d   1      36.704  20.158   5.142 -0.16 +0.23    -0.303    38.160
ATOM     13  H   UNL d   1      35.891  20.169   4.589 -0.37 -0.35    +0.222    38.160
ATOM     14  O   UNL d   1      36.504  19.913   0.415 -0.01 +0.07    -0.278    38.160
ATOM     15  P   UNL d   1      36.323  18.340   0.181 +0.01 -0.07    +0.473    38.160
ATOM     16  O   UNL d   1      37.499  17.472   0.507 +0.00 +0.02    -0.228    38.160
ATOM     17  O   UNL d   1      35.027  17.967   1.028 -0.00 +0.06    -0.303    38.160
ATOM     18  H   UNL d   1      34.400  18.715   1.058 +0.01 -0.07    +0.222    38.160
ATOM     19  O   UNL d   1      35.776  18.221  -1.308 +0.00 +0.02    -0.303    38.160
ATOM     20  H   UNL d   1      35.229  18.990  -1.554 +0.00 -0.02    +0.222    38.160
ATOM     21  O   UNL d   1      38.347  22.758   3.055 -0.30 +0.11    -0.278    38.160
ATOM     22  P   UNL d   1      39.920  22.986   2.917 -0.29 -0.07    +0.473    38.160
ATOM     23  O   UNL d   1      40.399  24.061   2.000 -0.32 +0.01    -0.228    38.160
ATOM     24  O   UNL d   1      40.358  23.160   4.437 -0.45 +0.06    -0.303    38.160
ATOM     25  H   UNL d   1      40.493  22.258   4.824 +0.05 -0.05    +0.222    38.160
ATOM     26  O   UNL d   1      40.436  21.503   2.591 -0.09 +0.02    -0.303    38.160
ATOM     27  H   UNL d   1      39.715  20.865   2.770 +0.08 -0.03    +0.222    38.160
ATOM     28  O   UNL d   1      34.169  21.061  -0.111 -0.03 +0.10    -0.278    38.160
ATOM     29  P   UNL d   1      32.919  20.098   0.106 -0.01 -0.13    +0.473    38.160
ATOM     30  O   UNL d   1      32.579  19.800   1.521 -0.04 +0.10    -0.228    38.160
ATOM     31  O   UNL d   1      31.817  20.872  -0.758 -0.00 +0.05    -0.303    38.160
ATOM     32  H   UNL d   1      32.242  21.653  -1.182 +0.01 -0.03    +0.222    38.160
ATOM     33  O   UNL d   1      33.288  18.858  -0.822 +0.00 +0.04    -0.303    38.160
ATOM     34  H   UNL d   1      33.934  18.281  -0.346 +0.01 -0.03    +0.222    38.160
ATOM     35  O   UNL d   1      37.567  24.132   0.598 -0.14 +0.06    -0.278    38.160
ATOM     36  P   UNL d   1      38.109  23.608  -0.808 -0.03 -0.05    +0.473    38.160
ATOM     37  O   UNL d   1      37.262  22.576  -1.482 -0.02 +0.03    -0.228    38.160
ATOM     38  O   UNL d   1      38.261  24.967  -1.625 -0.04 +0.01    -0.303    38.160
ATOM     39  H   UNL d   1      37.514  25.046  -2.257 +0.03 -0.01    +0.222    38.160
ATOM     40  O   UNL d   1      39.607  23.200  -0.463 -0.04 +0.01    -0.303    38.160
ATOM     41  H   UNL d   1      39.678  22.793   0.429 +0.07 -0.02    +0.222    38.160
ATOM     42  O   UNL d   1      34.677  23.858   0.343 -0.14 +0.14    -0.278    38.160
ATOM     43  P   UNL d   1      34.278  24.360  -1.117 -0.03 -0.08    +0.473    38.160
ATOM     44  O   UNL d   1      32.942  24.997  -1.283 -0.03 +0.02    -0.228    38.160
ATOM     45  O   UNL d   1      35.501  25.299  -1.510 -0.03 +0.03    -0.303    38.160
ATOM     46  H   UNL d   1      36.295  25.095  -0.976 +0.05 -0.03    +0.222    38.160
ATOM     47  O   UNL d   1      34.548  23.072  -2.034 -0.01 +0.04    -0.303    38.160
ATOM     48  H   UNL d   1      35.068  22.417  -1.524 +0.02 -0.04    +0.222    38.160
TER
ENDMDL
MODEL       49
USER    Run = 49
USER    Cluster Rank = 33
USER    Number of conformations in this cluster = 1
USER  
USER    RMSD from reference structure       = 61.588 A
USER  
USER    Estimated Free Energy of Binding    =   +3.43 kcal/mol  [=(1)+(2)+(3)-(4)]
USER    
USER    (1) Final Intermolecular Energy     =   -3.73 kcal/mol
USER        vdW + Hbond + desolv Energy     =   -3.56 kcal/mol
USER        Electrostatic Energy            =   -0.17 kcal/mol
USER    (2) Final Total Internal Energy     =  -14.68 kcal/mol
USER    (3) Torsional Free Energy           =   +7.16 kcal/mol
USER    (4) Unbound System's Energy  [=(2)] =  -14.68 kcal/mol
USER    
USER    
USER  
USER    DPF = D:/Protein_go_brrr/autodock/final/6BB5/IHP/dock.dpf
USER    NEWDPF move	IHP_ideal_opt.pdbqt
USER    NEWDPF about	0.035000 0.082000 -0.065000
USER    NEWDPF tran0	31.710220 48.918689 30.603977
USER    NEWDPF axisangle0	-0.682486 0.665494 -0.302208 -178.834153
USER    NEWDPF quaternion0	-0.682451 0.665460 -0.302192 -0.010174
USER    NEWDPF dihe0	-124.08 18.91 152.68 -25.73 30.24 -97.55 -76.54 5.86 90.23 102.64 -144.49 135.64 61.53 169.80 -50.44 141.50 109.58 174.17 25.27 15.99 178.02 16.03 -5.62 172.06 
USER  
USER                              x       y       z    vdW   Elec        q     RMS 
ATOM      1  C   UNL d   1      32.763  47.567  30.827 -0.04 +0.01    +0.194    61.588
ATOM      2  C   UNL d   1      33.416  48.943  30.965 -0.01 +0.01    +0.194    61.588
ATOM      3  C   UNL d   1      32.944  49.907  29.874 -0.02 +0.01    +0.194    61.588
ATOM      4  C   UNL d   1      31.423  49.998  29.769 -0.03 +0.01    +0.194    61.588
ATOM      5  C   UNL d   1      30.721  48.646  29.744 -0.06 +0.00    +0.194    61.588
ATOM      6  C   UNL d   1      31.237  47.661  30.796 -0.04 +0.00    +0.194    61.588
ATOM      7  O   UNL d   1      33.118  46.788  31.971 -0.03 -0.01    -0.278    61.588
ATOM      8  P   UNL d   1      34.342  45.768  31.845 -0.07 +0.05    +0.473    61.588
ATOM      9  O   UNL d   1      35.536  46.111  32.665 -0.05 -0.02    -0.228    61.588
ATOM     10  O   UNL d   1      33.707  44.354  32.221 -0.17 -0.03    -0.303    61.588
ATOM     11  H   UNL d   1      33.204  44.009  31.460 +0.06 +0.03    +0.222    61.588
ATOM     12  O   UNL d   1      34.593  45.616  30.284 -0.47 -0.07    -0.303    61.588
ATOM     13  H   UNL d   1      33.787  45.787  29.745 +0.07 +0.05    +0.222    61.588
ATOM     14  O   UNL d   1      33.074  49.496  32.242 -0.00 -0.01    -0.278    61.588
ATOM     15  P   UNL d   1      34.172  50.436  32.933 +0.00 +0.02    +0.473    61.588
ATOM     16  O   UNL d   1      34.438  50.202  34.387 +0.00 -0.01    -0.228    61.588
ATOM     17  O   UNL d   1      35.470  50.244  32.029 +0.00 -0.01    -0.303    61.588
ATOM     18  H   UNL d   1      35.285  50.468  31.096 +0.00 +0.01    +0.222    61.588
ATOM     19  O   UNL d   1      33.729  51.914  32.546 +0.00 -0.01    -0.303    61.588
ATOM     20  H   UNL d   1      34.080  52.179  31.675 +0.00 +0.01    +0.222    61.588
ATOM     21  O   UNL d   1      30.746  46.373  30.430 -0.07 +0.01    -0.278    61.588
ATOM     22  P   UNL d   1      31.418  45.585  29.217 -0.22 -0.04    +0.473    61.588
ATOM     23  O   UNL d   1      32.208  46.365  28.220 -0.22 +0.02    -0.228    61.588
ATOM     24  O   UNL d   1      32.238  44.453  29.979 -0.58 -0.02    -0.303    61.588
ATOM     25  H   UNL d   1      32.588  44.840  30.821 +0.07 +0.02    +0.222    61.588
ATOM     26  O   UNL d   1      30.174  44.758  28.636 -0.26 +0.11    -0.303    61.588
ATOM     27  H   UNL d   1      29.707  45.304  27.970 -0.33 -0.16    +0.222    61.588
ATOM     28  O   UNL d   1      33.375  51.212  30.239 -0.00 -0.01    -0.278    61.588
ATOM     29  P   UNL d   1      34.218  52.095  29.217 +0.00 +0.03    +0.473    61.588
ATOM     30  O   UNL d   1      33.557  53.341  28.750 -0.00 -0.02    -0.228    61.588
ATOM     31  O   UNL d   1      35.577  52.262  30.046 -0.00 -0.02    -0.303    61.588
ATOM     32  H   UNL d   1      35.374  52.160  31.005 +0.00 +0.01    +0.222    61.588
ATOM     33  O   UNL d   1      34.615  51.030  28.102 -0.01 -0.02    -0.303    61.588
ATOM     34  H   UNL d   1      33.793  50.716  27.651 +0.04 +0.02    +0.222    61.588
ATOM     35  O   UNL d   1      29.355  48.914  30.054 -0.02 -0.01    -0.278    61.588
ATOM     36  P   UNL d   1      28.197  48.431  29.069 -0.07 +0.01    +0.473    61.588
ATOM     37  O   UNL d   1      26.864  48.200  29.705 -0.03 +0.01    -0.228    61.588
ATOM     38  O   UNL d   1      28.206  49.581  27.967 -0.10 -0.06    -0.303    61.588
ATOM     39  H   UNL d   1      29.068  50.048  27.998 +0.04 +0.05    +0.222    61.588
ATOM     40  O   UNL d   1      28.871  47.192  28.334 -0.16 +0.04    -0.303    61.588
ATOM     41  H   UNL d   1      29.116  46.482  28.968 +0.04 -0.04    +0.222    61.588
ATOM     42  O   UNL d   1      31.132  50.646  28.527 -0.05 -0.03    -0.278    61.588
ATOM     43  P   UNL d   1      31.612  49.963  27.168 -0.11 +0.04    +0.473    61.588
ATOM     44  O   UNL d   1      32.149  50.855  26.103 -0.17 -0.04    -0.228    61.588
ATOM     45  O   UNL d   1      32.644  48.863  27.677 -0.12 +0.02    -0.303    61.588
ATOM     46  H   UNL d   1      32.581  48.042  27.149 -0.35 -0.08    +0.222    61.588
ATOM     47  O   UNL d   1      30.355  49.061  26.748 -0.07 -0.05    -0.303    61.588
ATOM     48  H   UNL d   1      30.030  48.574  27.533 +0.06 +0.02    +0.222    61.588
TER
ENDMDL
MODEL       63
USER    Run = 63
USER    Cluster Rank = 34
USER    Number of conformations in this cluster = 1
USER  
USER    RMSD from reference structure       = 45.237 A
USER  
USER    Estimated Free Energy of Binding    =   +3.44 kcal/mol  [=(1)+(2)+(3)-(4)]
USER    
USER    (1) Final Intermolecular Energy     =   -3.72 kcal/mol
USER        vdW + Hbond + desolv Energy     =   -3.59 kcal/mol
USER        Electrostatic Energy            =   -0.13 kcal/mol
USER    (2) Final Total Internal Energy     =  -13.85 kcal/mol
USER    (3) Torsional Free Energy           =   +7.16 kcal/mol
USER    (4) Unbound System's Energy  [=(2)] =  -13.85 kcal/mol
USER    
USER    
USER  
USER    DPF = D:/Protein_go_brrr/autodock/final/6BB5/IHP/dock.dpf
USER    NEWDPF move	IHP_ideal_opt.pdbqt
USER    NEWDPF about	0.035000 0.082000 -0.065000
USER    NEWDPF tran0	40.899014 27.784636 -3.000190
USER    NEWDPF axisangle0	-0.329985 0.451183 -0.829183 -138.978107
USER    NEWDPF quaternion0	-0.309066 0.422580 -0.776617 -0.350386
USER    NEWDPF dihe0	-94.30 -2.76 105.08 136.23 69.54 83.57 20.09 -81.45 75.43 -28.67 -130.57 -79.31 30.27 85.10 175.42 -120.83 52.51 -48.94 -136.91 -12.83 18.69 16.40 -177.87 164.42 
USER  
USER                              x       y       z    vdW   Elec        q     RMS 
ATOM      1  C   UNL d   1      40.556  26.780  -1.637 -0.15 +0.00    +0.194    45.237
ATOM      2  C   UNL d   1      40.745  28.267  -1.332 -0.16 +0.00    +0.194    45.237
ATOM      3  C   UNL d   1      41.931  28.857  -2.097 -0.18 -0.00    +0.194    45.237
ATOM      4  C   UNL d   1      41.878  28.578  -3.597 -0.06 -0.00    +0.194    45.237
ATOM      5  C   UNL d   1      41.577  27.126  -3.948 -0.04 +0.00    +0.194    45.237
ATOM      6  C   UNL d   1      40.430  26.518  -3.139 -0.05 +0.00    +0.194    45.237
ATOM      7  O   UNL d   1      39.337  26.351  -1.026 -0.13 +0.00    -0.278    45.237
ATOM      8  P   UNL d   1      38.036  26.210  -1.943 -0.04 -0.01    +0.473    45.237
ATOM      9  O   UNL d   1      37.942  24.939  -2.713 -0.02 +0.01    -0.228    45.237
ATOM     10  O   UNL d   1      36.823  26.421  -0.928 -0.09 +0.01    -0.303    45.237
ATOM     11  H   UNL d   1      36.410  27.289  -1.090 +0.05 -0.00    +0.222    45.237
ATOM     12  O   UNL d   1      37.989  27.546  -2.801 -0.02 +0.00    -0.303    45.237
ATOM     13  H   UNL d   1      38.114  28.357  -2.258 +0.04 +0.00    +0.222    45.237
ATOM     14  O   UNL d   1      39.559  28.977  -1.711 -0.08 +0.00    -0.278    45.237
ATOM     15  P   UNL d   1      38.780  29.746  -0.543 -0.14 -0.02    +0.473    45.237
ATOM     16  O   UNL d   1      38.212  31.088  -0.884 -0.08 +0.01    -0.228    45.237
ATOM     17  O   UNL d   1      37.669  28.707  -0.069 -0.14 -0.00    -0.303    45.237
ATOM     18  H   UNL d   1      37.811  27.830  -0.475 +0.07 +0.00    +0.222    45.237
ATOM     19  O   UNL d   1      39.786  29.720   0.689 -0.15 +0.05    -0.303    45.237
ATOM     20  H   UNL d   1      40.504  30.371   0.581 -0.35 -0.08    +0.222    45.237
ATOM     21  O   UNL d   1      40.497  25.106  -3.324 -0.02 -0.00    -0.278    45.237
ATOM     22  P   UNL d   1      39.829  24.444  -4.612 -0.00 +0.00    +0.473    45.237
ATOM     23  O   UNL d   1      39.395  23.019  -4.527 -0.00 +0.00    -0.228    45.237
ATOM     24  O   UNL d   1      38.665  25.477  -4.942 -0.00 +0.00    -0.303    45.237
ATOM     25  H   UNL d   1      38.733  26.233  -4.305 +0.01 +0.00    +0.222    45.237
ATOM     26  O   UNL d   1      40.906  24.784  -5.749 -0.00 -0.00    -0.303    45.237
ATOM     27  H   UNL d   1      40.678  25.641  -6.163 +0.00 +0.00    +0.222    45.237
ATOM     28  O   UNL d   1      41.861  30.271  -1.973 -0.11 +0.01    -0.278    45.237
ATOM     29  P   UNL d   1      43.119  31.097  -1.451 -0.25 -0.04    +0.473    45.237
ATOM     30  O   UNL d   1      42.803  32.309  -0.653 -0.26 +0.01    -0.228    45.237
ATOM     31  O   UNL d   1      43.930  29.932  -0.712 -0.32 +0.04    -0.303    45.237
ATOM     32  H   UNL d   1      44.311  29.333  -1.394 -0.32 -0.06    +0.222    45.237
ATOM     33  O   UNL d   1      43.955  31.313  -2.788 -0.08 +0.02    -0.303    45.237
ATOM     34  H   UNL d   1      43.698  30.620  -3.444 +0.04 -0.01    +0.222    45.237
ATOM     35  O   UNL d   1      41.167  27.136  -5.314 -0.00 -0.00    -0.278    45.237
ATOM     36  P   UNL d   1      40.091  28.197  -5.825 -0.00 +0.00    +0.473    45.237
ATOM     37  O   UNL d   1      40.652  29.424  -6.470 -0.00 -0.00    -0.228    45.237
ATOM     38  O   UNL d   1      39.187  27.307  -6.787 +0.00 -0.00    -0.303    45.237
ATOM     39  H   UNL d   1      39.479  26.372  -6.729 +0.00 +0.00    +0.222    45.237
ATOM     40  O   UNL d   1      39.185  28.409  -4.535 -0.00 -0.00    -0.303    45.237
ATOM     41  H   UNL d   1      38.639  27.616  -4.339 +0.01 +0.00    +0.222    45.237
ATOM     42  O   UNL d   1      43.176  28.877  -4.121 -0.04 +0.01    -0.278    45.237
ATOM     43  P   UNL d   1      44.453  28.193  -3.455 -0.03 -0.05    +0.473    45.237
ATOM     44  O   UNL d   1      44.226  27.327  -2.264 +0.01 +0.01    -0.228    45.237
ATOM     45  O   UNL d   1      45.129  27.444  -4.685 -0.04 +0.01    -0.303    45.237
ATOM     46  H   UNL d   1      46.084  27.295  -4.533 +0.02 -0.01    +0.222    45.237
ATOM     47  O   UNL d   1      45.455  29.425  -3.233 -0.07 +0.07    -0.303    45.237
ATOM     48  H   UNL d   1      45.405  29.717  -2.300 -0.41 -0.10    +0.222    45.237
TER
ENDMDL
MODEL       59
USER    Run = 59
USER    Cluster Rank = 35
USER    Number of conformations in this cluster = 1
USER  
USER    RMSD from reference structure       = 28.138 A
USER  
USER    Estimated Free Energy of Binding    =   +3.46 kcal/mol  [=(1)+(2)+(3)-(4)]
USER    
USER    (1) Final Intermolecular Energy     =   -3.70 kcal/mol
USER        vdW + Hbond + desolv Energy     =   -3.29 kcal/mol
USER        Electrostatic Energy            =   -0.41 kcal/mol
USER    (2) Final Total Internal Energy     =  -11.09 kcal/mol
USER    (3) Torsional Free Energy           =   +7.16 kcal/mol
USER    (4) Unbound System's Energy  [=(2)] =  -11.09 kcal/mol
USER    
USER    
USER  
USER    DPF = D:/Protein_go_brrr/autodock/final/6BB5/IHP/dock.dpf
USER    NEWDPF move	IHP_ideal_opt.pdbqt
USER    NEWDPF about	0.035000 0.082000 -0.065000
USER    NEWDPF tran0	11.669632 26.016868 -14.951709
USER    NEWDPF axisangle0	-0.395697 -0.274822 -0.876297 -61.233947
USER    NEWDPF quaternion0	-0.201527 -0.139966 -0.446295 -0.860591
USER    NEWDPF dihe0	-161.39 -29.98 33.50 54.09 -5.75 133.70 -69.42 -33.97 -5.54 101.56 -109.15 -172.46 29.58 168.50 -65.88 -161.93 -9.27 27.56 -133.69 -29.24 179.04 -28.74 171.29 0.52 
USER  
USER                              x       y       z    vdW   Elec        q     RMS 
ATOM      1  C   UNL d   1      11.594  25.036 -13.532 -0.10 -0.13    +0.194    28.138
ATOM      2  C   UNL d   1      10.252  25.332 -14.203 -0.10 -0.08    +0.194    28.138
ATOM      3  C   UNL d   1      10.145  26.796 -14.636 -0.15 -0.05    +0.194    28.138
ATOM      4  C   UNL d   1      11.328  27.260 -15.482 -0.13 -0.03    +0.194    28.138
ATOM      5  C   UNL d   1      12.688  26.885 -14.907 -0.11 -0.04    +0.194    28.138
ATOM      6  C   UNL d   1      12.775  25.438 -14.417 -0.10 -0.06    +0.194    28.138
ATOM      7  O   UNL d   1      11.683  23.626 -13.316 -0.11 +0.20    -0.278    28.138
ATOM      8  P   UNL d   1      12.613  22.766 -14.290 -0.00 -0.15    +0.473    28.138
ATOM      9  O   UNL d   1      14.064  22.789 -13.960 -0.02 +0.07    -0.228    28.138
ATOM     10  O   UNL d   1      11.980  21.303 -14.238 -0.01 +0.06    -0.303    28.138
ATOM     11  H   UNL d   1      11.006  21.368 -14.246 +0.03 -0.04    +0.222    28.138
ATOM     12  O   UNL d   1      12.228  23.243 -15.756 -0.00 +0.05    -0.303    28.138
ATOM     13  H   UNL d   1      11.364  22.886 -16.063 +0.02 -0.03    +0.222    28.138
ATOM     14  O   UNL d   1      10.117  24.501 -15.363 -0.04 +0.06    -0.278    28.138
ATOM     15  P   UNL d   1       9.167  23.220 -15.219 -0.02 -0.08    +0.473    28.138
ATOM     16  O   UNL d   1       9.679  21.937 -15.794 -0.00 +0.02    -0.228    28.138
ATOM     17  O   UNL d   1       8.879  23.125 -13.656 -0.12 +0.14    -0.303    28.138
ATOM     18  H   UNL d   1       9.703  22.976 -13.154 +0.05 -0.15    +0.222    28.138
ATOM     19  O   UNL d   1       7.758  23.707 -15.775 -0.01 +0.02    -0.303    28.138
ATOM     20  H   UNL d   1       7.762  24.659 -15.983 +0.03 -0.01    +0.222    28.138
ATOM     21  O   UNL d   1      13.950  25.344 -13.614 -0.07 +0.10    -0.278    28.138
ATOM     22  P   UNL d   1      13.943  25.927 -12.129 -0.23 -0.24    +0.473    28.138
ATOM     23  O   UNL d   1      13.160  27.169 -11.863 -0.34 +0.14    -0.228    28.138
ATOM     24  O   UNL d   1      13.489  24.658 -11.283 -0.27 +0.28    -0.303    28.138
ATOM     25  H   UNL d   1      12.528  24.495 -11.464 -0.39 -0.38    +0.222    28.138
ATOM     26  O   UNL d   1      15.510  26.001 -11.801 -0.16 +0.09    -0.303    28.138
ATOM     27  H   UNL d   1      15.951  25.202 -12.156 +0.08 -0.06    +0.222    28.138
ATOM     28  O   UNL d   1       9.008  26.910 -15.482 -0.09 +0.01    -0.278    28.138
ATOM     29  P   UNL d   1       7.550  27.049 -14.857 -0.10 +0.10    +0.473    28.138
ATOM     30  O   UNL d   1       6.463  27.344 -15.825 -0.06 -0.10    -0.228    28.138
ATOM     31  O   UNL d   1       7.456  25.666 -14.058 -0.11 +0.04    -0.303    28.138
ATOM     32  H   UNL d   1       8.144  25.053 -14.408 +0.05 -0.05    +0.222    28.138
ATOM     33  O   UNL d   1       7.786  28.111 -13.694 -0.11 -0.11    -0.303    28.138
ATOM     34  H   UNL d   1       8.572  28.666 -13.920 -0.18 -0.01    +0.222    28.138
ATOM     35  O   UNL d   1      13.614  27.020 -15.982 -0.04 +0.04    -0.278    28.138
ATOM     36  P   UNL d   1      13.413  26.186 -17.327 +0.01 -0.04    +0.473    28.138
ATOM     37  O   UNL d   1      11.993  25.967 -17.744 -0.01 +0.01    -0.228    28.138
ATOM     38  O   UNL d   1      14.278  27.028 -18.366 -0.00 +0.02    -0.303    28.138
ATOM     39  H   UNL d   1      13.787  27.842 -18.608 +0.01 -0.01    +0.222    28.138
ATOM     40  O   UNL d   1      14.294  24.889 -17.057 +0.00 +0.03    -0.303    28.138
ATOM     41  H   UNL d   1      13.982  24.395 -16.266 +0.02 -0.03    +0.222    28.138
ATOM     42  O   UNL d   1      11.270  28.690 -15.526 -0.13 +0.04    -0.278    28.138
ATOM     43  P   UNL d   1      10.899  29.404 -16.904 -0.05 +0.00    +0.473    28.138
ATOM     44  O   UNL d   1       9.482  29.332 -17.355 -0.03 -0.03    -0.228    28.138
ATOM     45  O   UNL d   1      11.438  30.885 -16.684 -0.22 -0.01    -0.303    28.138
ATOM     46  H   UNL d   1      11.305  31.436 -17.481 +0.03 +0.01    +0.222    28.138
ATOM     47  O   UNL d   1      11.982  28.812 -17.926 -0.02 +0.01    -0.303    28.138
ATOM     48  H   UNL d   1      12.500  28.111 -17.478 +0.02 -0.01    +0.222    28.138
TER
ENDMDL
MODEL       90
USER    Run = 90
USER    Cluster Rank = 36
USER    Number of conformations in this cluster = 1
USER  
USER    RMSD from reference structure       = 46.727 A
USER  
USER    Estimated Free Energy of Binding    =   +3.56 kcal/mol  [=(1)+(2)+(3)-(4)]
USER    
USER    (1) Final Intermolecular Energy     =   -3.60 kcal/mol
USER        vdW + Hbond + desolv Energy     =   -3.58 kcal/mol
USER        Electrostatic Energy            =   -0.02 kcal/mol
USER    (2) Final Total Internal Energy     =  -15.25 kcal/mol
USER    (3) Torsional Free Energy           =   +7.16 kcal/mol
USER    (4) Unbound System's Energy  [=(2)] =  -15.25 kcal/mol
USER    
USER    
USER  
USER    DPF = D:/Protein_go_brrr/autodock/final/6BB5/IHP/dock.dpf
USER    NEWDPF move	IHP_ideal_opt.pdbqt
USER    NEWDPF about	0.035000 0.082000 -0.065000
USER    NEWDPF tran0	26.530548 29.701401 31.713527
USER    NEWDPF axisangle0	0.980168 0.121603 0.156469 -118.636882
USER    NEWDPF quaternion0	0.842961 0.104581 0.134566 -0.510266
USER    NEWDPF dihe0	-177.92 29.86 76.74 87.85 19.49 -111.38 -11.81 -177.34 21.48 44.87 52.61 -124.49 57.30 109.14 -50.24 -62.65 135.04 -82.13 27.60 -6.45 -179.89 8.93 -16.52 -9.39 
USER  
USER                              x       y       z    vdW   Elec        q     RMS 
ATOM      1  C   UNL d   1      27.940  29.842  30.725 -0.07 -0.01    +0.194    46.727
ATOM      2  C   UNL d   1      26.610  30.126  30.024 -0.08 -0.01    +0.194    46.727
ATOM      3  C   UNL d   1      25.536  29.108  30.414 -0.09 +0.04    +0.194    46.727
ATOM      4  C   UNL d   1      25.372  28.955  31.924 -0.07 +0.07    +0.194    46.727
ATOM      5  C   UNL d   1      26.685  28.785  32.677 -0.06 +0.04    +0.194    46.727
ATOM      6  C   UNL d   1      27.779  29.764  32.243 -0.03 +0.02    +0.194    46.727
ATOM      7  O   UNL d   1      28.830  30.926  30.446 -0.07 +0.05    -0.278    46.727
ATOM      8  P   UNL d   1      29.848  30.777  29.224 -0.11 -0.11    +0.473    46.727
ATOM      9  O   UNL d   1      29.542  31.628  28.042 -0.36 +0.14    -0.228    46.727
ATOM     10  O   UNL d   1      31.274  31.086  29.868 -0.19 -0.01    -0.303    46.727
ATOM     11  H   UNL d   1      31.247  30.904  30.826 +0.09 +0.04    +0.222    46.727
ATOM     12  O   UNL d   1      29.938  29.215  28.949 -0.13 +0.04    -0.303    46.727
ATOM     13  H   UNL d   1      29.580  28.672  29.688 +0.12 -0.01    +0.222    46.727
ATOM     14  O   UNL d   1      26.156  31.433  30.395 -0.09 -0.05    -0.278    46.727
ATOM     15  P   UNL d   1      25.839  32.448  29.197 -0.14 -0.13    +0.473    46.727
ATOM     16  O   UNL d   1      25.041  33.666  29.542 -0.25 -0.01    -0.228    46.727
ATOM     17  O   UNL d   1      27.272  32.797  28.596 -0.25 +0.36    -0.303    46.727
ATOM     18  H   UNL d   1      27.981  32.589  29.233 -0.03 -0.23    +0.222    46.727
ATOM     19  O   UNL d   1      25.227  31.529  28.051 -0.17 +0.11    -0.303    46.727
ATOM     20  H   UNL d   1      24.781  30.744  28.419 +0.12 +0.02    +0.222    46.727
ATOM     21  O   UNL d   1      29.008  29.267  32.769 -0.03 -0.07    -0.278    46.727
ATOM     22  P   UNL d   1      29.741  28.047  32.050 -0.12 +0.20    +0.473    46.727
ATOM     23  O   UNL d   1      28.936  27.172  31.149 -0.18 -0.02    -0.228    46.727
ATOM     24  O   UNL d   1      30.972  28.773  31.349 -0.10 -0.20    -0.303    46.727
ATOM     25  H   UNL d   1      30.631  29.583  30.892 +0.09 +0.07    +0.222    46.727
ATOM     26  O   UNL d   1      30.450  27.317  33.289 -0.28 -0.29    -0.303    46.727
ATOM     27  H   UNL d   1      29.774  26.835  33.808 +0.05 +0.12    +0.222    46.727
ATOM     28  O   UNL d   1      24.288  29.602  29.947 -0.09 -0.16    -0.278    46.727
ATOM     29  P   UNL d   1      23.433  28.765  28.895 -0.12 +0.12    +0.473    46.727
ATOM     30  O   UNL d   1      23.737  29.031  27.466 -0.17 -0.01    -0.228    46.727
ATOM     31  O   UNL d   1      23.706  27.282  29.432 -0.13 -0.00    -0.303    46.727
ATOM     32  H   UNL d   1      23.693  27.297  30.417 +0.05 +0.03    +0.222    46.727
ATOM     33  O   UNL d   1      21.942  29.045  29.378 -0.14 -0.17    -0.303    46.727
ATOM     34  H   UNL d   1      21.524  28.189  29.642 +0.08 +0.08    +0.222    46.727
ATOM     35  O   UNL d   1      26.387  29.067  34.043 -0.01 -0.06    -0.278    46.727
ATOM     36  P   UNL d   1      26.488  27.916  35.142 +0.01 +0.07    +0.473    46.727
ATOM     37  O   UNL d   1      26.166  28.332  36.543 +0.00 -0.03    -0.228    46.727
ATOM     38  O   UNL d   1      25.510  26.809  34.547 -0.04 -0.04    -0.303    46.727
ATOM     39  H   UNL d   1      24.662  27.234  34.293 +0.02 +0.04    +0.222    46.727
ATOM     40  O   UNL d   1      27.941  27.323  34.882 -0.01 -0.06    -0.303    46.727
ATOM     41  H   UNL d   1      28.416  27.820  34.179 +0.04 +0.06    +0.222    46.727
ATOM     42  O   UNL d   1      24.606  27.765  32.140 -0.58 -0.10    -0.278    46.727
ATOM     43  P   UNL d   1      23.214  27.874  32.911 -0.03 +0.16    +0.473    46.727
ATOM     44  O   UNL d   1      23.121  28.857  34.026 -0.02 -0.09    -0.228    46.727
ATOM     45  O   UNL d   1      22.179  28.131  31.729 -0.05 -0.14    -0.303    46.727
ATOM     46  H   UNL d   1      22.627  28.474  30.930 +0.05 +0.12    +0.222    46.727
ATOM     47  O   UNL d   1      22.891  26.353  33.300 -0.03 -0.04    -0.303    46.727
ATOM     48  H   UNL d   1      23.650  25.978  33.794 +0.02 +0.03    +0.222    46.727
TER
ENDMDL
MODEL        7
USER    Run = 7
USER    Cluster Rank = 37
USER    Number of conformations in this cluster = 1
USER  
USER    RMSD from reference structure       = 46.861 A
USER  
USER    Estimated Free Energy of Binding    =   +3.60 kcal/mol  [=(1)+(2)+(3)-(4)]
USER    
USER    (1) Final Intermolecular Energy     =   -3.56 kcal/mol
USER        vdW + Hbond + desolv Energy     =   -3.22 kcal/mol
USER        Electrostatic Energy            =   -0.34 kcal/mol
USER    (2) Final Total Internal Energy     =  -14.94 kcal/mol
USER    (3) Torsional Free Energy           =   +7.16 kcal/mol
USER    (4) Unbound System's Energy  [=(2)] =  -14.94 kcal/mol
USER    
USER    
USER  
USER    DPF = D:/Protein_go_brrr/autodock/final/6BB5/IHP/dock.dpf
USER    NEWDPF move	IHP_ideal_opt.pdbqt
USER    NEWDPF about	0.035000 0.082000 -0.065000
USER    NEWDPF tran0	44.877475 17.329185 16.056454
USER    NEWDPF axisangle0	-0.692524 -0.539853 0.478507 -79.711780
USER    NEWDPF quaternion0	-0.443810 -0.345970 0.306655 -0.767659
USER    NEWDPF dihe0	113.70 113.99 154.91 16.85 105.83 92.09 179.47 -102.94 87.48 107.53 64.85 -77.88 -76.38 -143.19 178.22 -47.88 50.46 -93.68 -148.31 4.29 13.01 143.81 -178.46 -125.85 
USER  
USER                              x       y       z    vdW   Elec        q     RMS 
ATOM      1  C   UNL d   1      45.105  18.304  17.464 -0.12 +0.05    +0.194    46.861
ATOM      2  C   UNL d   1      44.818  16.824  17.724 -0.18 +0.05    +0.194    46.861
ATOM      3  C   UNL d   1      43.703  16.295  16.820 -0.16 +0.05    +0.194    46.861
ATOM      4  C   UNL d   1      43.941  16.586  15.340 -0.10 +0.05    +0.194    46.861
ATOM      5  C   UNL d   1      44.342  18.026  15.047 -0.10 +0.06    +0.194    46.861
ATOM      6  C   UNL d   1      45.413  18.575  15.991 -0.09 +0.08    +0.194    46.861
ATOM      7  O   UNL d   1      46.263  18.673  18.217 -0.11 -0.10    -0.278    46.861
ATOM      8  P   UNL d   1      47.698  18.500  17.537 -0.02 +0.27    +0.473    46.861
ATOM      9  O   UNL d   1      47.765  17.476  16.459 -0.02 -0.11    -0.228    46.861
ATOM     10  O   UNL d   1      48.066  19.968  17.033 -0.03 -0.38    -0.303    46.861
ATOM     11  H   UNL d   1      47.288  20.372  16.605 +0.04 +0.27    +0.222    46.861
ATOM     12  O   UNL d   1      48.707  18.300  18.747 -0.01 -0.13    -0.303    46.861
ATOM     13  H   UNL d   1      48.585  17.443  19.214 +0.02 +0.07    +0.222    46.861
ATOM     14  O   UNL d   1      46.009  16.067  17.472 -0.04 -0.07    -0.278    46.861
ATOM     15  P   UNL d   1      46.379  14.938  18.546 -0.01 +0.09    +0.473    46.861
ATOM     16  O   UNL d   1      47.206  15.369  19.716 -0.03 -0.04    -0.228    46.861
ATOM     17  O   UNL d   1      44.970  14.333  18.975 -0.07 -0.05    -0.303    46.861
ATOM     18  H   UNL d   1      44.495  13.966  18.204 +0.05 +0.04    +0.222    46.861
ATOM     19  O   UNL d   1      46.986  13.750  17.678 -0.00 -0.05    -0.303    46.861
ATOM     20  H   UNL d   1      46.467  13.593  16.868 +0.01 +0.04    +0.222    46.861
ATOM     21  O   UNL d   1      45.428  19.990  15.821 -0.10 -0.15    -0.278    46.861
ATOM     22  P   UNL d   1      46.373  20.645  14.714 +0.01 +0.50    +0.473    46.861
ATOM     23  O   UNL d   1      46.872  22.031  14.945 -0.31 -0.35    -0.228    46.861
ATOM     24  O   UNL d   1      47.511  19.542  14.565 -0.51 -0.42    -0.303    46.861
ATOM     25  H   UNL d   1      47.081  18.649  14.602 +0.05 +0.17    +0.222    46.861
ATOM     26  O   UNL d   1      45.515  20.419  13.379 -0.15 -0.18    -0.303    46.861
ATOM     27  H   UNL d   1      45.662  19.508  13.052 +0.09 +0.12    +0.222    46.861
ATOM     28  O   UNL d   1      43.699  14.878  16.930 -0.11 -0.06    -0.278    46.861
ATOM     29  P   UNL d   1      44.270  13.977  15.747 -0.03 +0.08    +0.473    46.861
ATOM     30  O   UNL d   1      43.410  13.884  14.539 -0.04 -0.04    -0.228    46.861
ATOM     31  O   UNL d   1      45.714  14.643  15.562 -0.01 -0.06    -0.303    46.861
ATOM     32  H   UNL d   1      45.840  14.857  14.608 +0.01 +0.05    +0.222    46.861
ATOM     33  O   UNL d   1      44.606  12.614  16.497 -0.01 -0.04    -0.303    46.861
ATOM     34  H   UNL d   1      45.054  12.820  17.354 +0.02 +0.03    +0.222    46.861
ATOM     35  O   UNL d   1      44.905  18.012  13.737 -0.04 -0.10    -0.278    46.861
ATOM     36  P   UNL d   1      45.996  16.918  13.341 +0.02 +0.18    +0.473    46.861
ATOM     37  O   UNL d   1      45.466  15.693  12.666 -0.00 -0.07    -0.228    46.861
ATOM     38  O   UNL d   1      47.005  17.771  12.452 -0.05 -0.17    -0.303    46.861
ATOM     39  H   UNL d   1      46.854  18.726  12.621 +0.06 +0.15    +0.222    46.861
ATOM     40  O   UNL d   1      46.777  16.706  14.710 +0.00 -0.12    -0.303    46.861
ATOM     41  H   UNL d   1      46.203  16.303  15.398 +0.03 +0.07    +0.222    46.861
ATOM     42  O   UNL d   1      42.700  16.349  14.666 -0.12 -0.05    -0.278    46.861
ATOM     43  P   UNL d   1      42.049  17.528  13.811 -0.16 +0.06    +0.473    46.861
ATOM     44  O   UNL d   1      41.957  18.871  14.451 -0.31 -0.02    -0.228    46.861
ATOM     45  O   UNL d   1      42.908  17.503  12.472 -0.05 -0.06    -0.303    46.861
ATOM     46  H   UNL d   1      43.671  16.896  12.547 +0.06 +0.05    +0.222    46.861
ATOM     47  O   UNL d   1      40.659  16.900  13.319 -0.15 +0.03    -0.303    46.861
ATOM     48  H   UNL d   1      39.934  17.241  13.882 -0.46 -0.11    +0.222    46.861
TER
ENDMDL
MODEL       19
USER    Run = 19
USER    Cluster Rank = 38
USER    Number of conformations in this cluster = 1
USER  
USER    RMSD from reference structure       = 63.526 A
USER  
USER    Estimated Free Energy of Binding    =   +3.62 kcal/mol  [=(1)+(2)+(3)-(4)]
USER    
USER    (1) Final Intermolecular Energy     =   -3.54 kcal/mol
USER        vdW + Hbond + desolv Energy     =   -3.21 kcal/mol
USER        Electrostatic Energy            =   -0.34 kcal/mol
USER    (2) Final Total Internal Energy     =  -14.44 kcal/mol
USER    (3) Torsional Free Energy           =   +7.16 kcal/mol
USER    (4) Unbound System's Energy  [=(2)] =  -14.44 kcal/mol
USER    
USER    
USER  
USER    DPF = D:/Protein_go_brrr/autodock/final/6BB5/IHP/dock.dpf
USER    NEWDPF move	IHP_ideal_opt.pdbqt
USER    NEWDPF about	0.035000 0.082000 -0.065000
USER    NEWDPF tran0	34.681893 51.829608 25.296520
USER    NEWDPF axisangle0	0.737649 -0.409780 0.536613 -91.652002
USER    NEWDPF quaternion0	0.529062 -0.293905 0.384873 -0.696840
USER    NEWDPF dihe0	-165.66 17.07 120.46 -38.51 115.23 139.26 21.45 -150.04 59.40 88.53 2.53 -144.22 47.87 84.06 70.35 163.83 135.71 -2.88 -4.62 -49.96 -30.94 -51.60 -4.26 -8.34 
USER  
USER                              x       y       z    vdW   Elec        q     RMS 
ATOM      1  C   UNL d   1      36.098  51.222  26.078 -0.01 +0.03    +0.194    63.526
ATOM      2  C   UNL d   1      36.117  51.181  24.549 -0.04 +0.05    +0.194    63.526
ATOM      3  C   UNL d   1      34.782  50.697  23.978 -0.09 +0.05    +0.194    63.526
ATOM      4  C   UNL d   1      33.582  51.470  24.519 -0.11 +0.05    +0.194    63.526
ATOM      5  C   UNL d   1      33.582  51.635  26.034 -0.07 +0.03    +0.194    63.526
ATOM      6  C   UNL d   1      34.934  52.059  26.611 -0.01 +0.02    +0.194    63.526
ATOM      7  O   UNL d   1      37.307  51.842  26.523 -0.00 -0.04    -0.278    63.526
ATOM      8  P   UNL d   1      38.203  51.073  27.599 +0.00 +0.04    +0.473    63.526
ATOM      9  O   UNL d   1      39.370  50.339  27.040 -0.00 -0.02    -0.228    63.526
ATOM     10  O   UNL d   1      38.615  52.208  28.641 +0.00 -0.02    -0.303    63.526
ATOM     11  H   UNL d   1      37.873  52.831  28.757 +0.00 +0.02    +0.222    63.526
ATOM     12  O   UNL d   1      37.176  50.203  28.444 -0.00 -0.02    -0.303    63.526
ATOM     13  H   UNL d   1      36.275  50.595  28.479 +0.01 +0.02    +0.222    63.526
ATOM     14  O   UNL d   1      36.377  52.498  24.049 -0.01 -0.09    -0.278    63.526
ATOM     15  P   UNL d   1      37.909  52.963  24.020 +0.00 +0.16    +0.473    63.526
ATOM     16  O   UNL d   1      38.354  53.737  22.819 -0.02 -0.12    -0.228    63.526
ATOM     17  O   UNL d   1      38.094  53.774  25.379 +0.00 -0.06    -0.303    63.526
ATOM     18  H   UNL d   1      37.443  53.490  26.049 +0.00 +0.03    +0.222    63.526
ATOM     19  O   UNL d   1      38.732  51.637  24.325 -0.00 -0.08    -0.303    63.526
ATOM     20  H   UNL d   1      38.992  51.581  25.263 +0.01 +0.04    +0.222    63.526
ATOM     21  O   UNL d   1      34.869  51.837  28.018 -0.01 -0.02    -0.278    63.526
ATOM     22  P   UNL d   1      35.374  52.970  29.022 +0.00 +0.03    +0.473    63.526
ATOM     23  O   UNL d   1      34.353  53.837  29.677 -0.00 -0.01    -0.228    63.526
ATOM     24  O   UNL d   1      36.282  52.133  30.026 -0.00 -0.02    -0.303    63.526
ATOM     25  H   UNL d   1      36.899  51.573  29.489 +0.00 +0.01    +0.222    63.526
ATOM     26  O   UNL d   1      36.473  53.726  28.133 -0.00 -0.03    -0.303    63.526
ATOM     27  H   UNL d   1      36.929  53.075  27.561 +0.00 +0.02    +0.222    63.526
ATOM     28  O   UNL d   1      34.797  50.954  22.579 -0.14 -0.11    -0.278    63.526
ATOM     29  P   UNL d   1      35.921  50.308  21.655 -0.17 +0.28    +0.473    63.526
ATOM     30  O   UNL d   1      35.450  49.774  20.351 -0.32 -0.13    -0.228    63.526
ATOM     31  O   UNL d   1      36.972  51.514  21.609 -0.64 -0.37    -0.303    63.526
ATOM     32  H   UNL d   1      37.422  51.572  22.483 +0.03 +0.17    +0.222    63.526
ATOM     33  O   UNL d   1      36.616  49.274  22.646 -0.10 -0.10    -0.303    63.526
ATOM     34  H   UNL d   1      37.368  49.724  23.104 +0.06 +0.08    +0.222    63.526
ATOM     35  O   UNL d   1      32.660  52.688  26.308 -0.02 -0.05    -0.278    63.526
ATOM     36  P   UNL d   1      31.466  52.463  27.342 -0.02 +0.08    +0.473    63.526
ATOM     37  O   UNL d   1      30.562  53.637  27.548 -0.02 -0.04    -0.228    63.526
ATOM     38  O   UNL d   1      30.745  51.180  26.733 -0.12 -0.08    -0.303    63.526
ATOM     39  H   UNL d   1      31.109  51.001  25.840 +0.06 +0.07    +0.222    63.526
ATOM     40  O   UNL d   1      32.226  51.904  28.622 -0.01 -0.03    -0.303    63.526
ATOM     41  H   UNL d   1      33.022  52.440  28.837 +0.01 +0.02    +0.222    63.526
ATOM     42  O   UNL d   1      32.415  50.715  24.178 -0.19 -0.09    -0.278    63.526
ATOM     43  P   UNL d   1      31.307  51.386  23.246 -0.24 +0.19    +0.473    63.526
ATOM     44  O   UNL d   1      31.781  52.166  22.069 -0.22 -0.07    -0.228    63.526
ATOM     45  O   UNL d   1      30.368  50.155  22.878 -0.27 -0.14    -0.303    63.526
ATOM     46  H   UNL d   1      30.816  49.533  22.270 -0.47 +0.00    +0.222    63.526
ATOM     47  O   UNL d   1      30.393  52.193  24.287 -0.13 -0.17    -0.303    63.526
ATOM     48  H   UNL d   1      30.956  52.541  25.009 +0.05 +0.08    +0.222    63.526
TER
ENDMDL
MODEL       30
USER    Run = 30
USER    Cluster Rank = 39
USER    Number of conformations in this cluster = 1
USER  
USER    RMSD from reference structure       = 38.700 A
USER  
USER    Estimated Free Energy of Binding    =   +3.73 kcal/mol  [=(1)+(2)+(3)-(4)]
USER    
USER    (1) Final Intermolecular Energy     =   -3.43 kcal/mol
USER        vdW + Hbond + desolv Energy     =   -3.25 kcal/mol
USER        Electrostatic Energy            =   -0.18 kcal/mol
USER    (2) Final Total Internal Energy     =  -14.78 kcal/mol
USER    (3) Torsional Free Energy           =   +7.16 kcal/mol
USER    (4) Unbound System's Energy  [=(2)] =  -14.78 kcal/mol
USER    
USER    
USER  
USER    DPF = D:/Protein_go_brrr/autodock/final/6BB5/IHP/dock.dpf
USER    NEWDPF move	IHP_ideal_opt.pdbqt
USER    NEWDPF about	0.035000 0.082000 -0.065000
USER    NEWDPF tran0	37.152813 19.851636 2.540863
USER    NEWDPF axisangle0	-0.684828 -0.017341 -0.728499 127.232102
USER    NEWDPF quaternion0	-0.613494 -0.015534 -0.652615 0.444384
USER    NEWDPF dihe0	-97.59 20.90 35.88 -26.32 12.24 -156.03 -28.16 -85.00 86.68 7.80 -134.35 -171.93 -173.08 163.83 172.34 77.31 179.21 157.68 55.15 3.15 -179.37 -7.58 20.80 -177.28 
USER  
USER                              x       y       z    vdW   Elec        q     RMS 
ATOM      1  C   UNL d   1      38.480  20.724   3.220 -0.16 -0.06    +0.194    38.700
ATOM      2  C   UNL d   1      38.446  20.656   1.692 -0.06 -0.04    +0.194    38.700
ATOM      3  C   UNL d   1      38.082  19.255   1.195 -0.01 -0.03    +0.194    38.700
ATOM      4  C   UNL d   1      36.805  18.707   1.826 -0.02 -0.05    +0.194    38.700
ATOM      5  C   UNL d   1      36.746  18.858   3.340 -0.06 -0.08    +0.194    38.700
ATOM      6  C   UNL d   1      37.169  20.241   3.841 -0.05 -0.14    +0.194    38.700
ATOM      7  O   UNL d   1      38.655  22.090   3.602 -0.29 +0.10    -0.278    38.700
ATOM      8  P   UNL d   1      40.044  22.802   3.263 -0.31 -0.07    +0.473    38.700
ATOM      9  O   UNL d   1      40.781  23.340   4.438 -0.51 +0.03    -0.228    38.700
ATOM     10  O   UNL d   1      40.863  21.690   2.463 -0.10 +0.01    -0.303    38.700
ATOM     11  H   UNL d   1      40.868  21.908   1.513 +0.08 -0.00    +0.222    38.700
ATOM     12  O   UNL d   1      39.703  23.850   2.119 -0.28 +0.04    -0.303    38.700
ATOM     13  H   UNL d   1      38.899  23.612   1.604 +0.09 -0.04    +0.222    38.700
ATOM     14  O   UNL d   1      37.467  21.582   1.205 -0.08 +0.10    -0.278    38.700
ATOM     15  P   UNL d   1      37.903  22.499  -0.033 -0.03 -0.09    +0.473    38.700
ATOM     16  O   UNL d   1      37.444  23.924  -0.009 -0.11 +0.04    -0.228    38.700
ATOM     17  O   UNL d   1      39.490  22.363  -0.077 -0.03 +0.02    -0.303    38.700
ATOM     18  H   UNL d   1      39.893  22.672   0.757 +0.07 -0.01    +0.222    38.700
ATOM     19  O   UNL d   1      37.475  21.663  -1.316 -0.00 +0.03    -0.303    38.700
ATOM     20  H   UNL d   1      38.167  21.029  -1.581 +0.01 -0.02    +0.222    38.700
ATOM     21  O   UNL d   1      37.391  20.120   5.245 -0.22 +0.14    -0.278    38.700
ATOM     22  P   UNL d   1      38.744  19.467   5.779 -0.16 -0.12    +0.473    38.700
ATOM     23  O   UNL d   1      38.753  18.891   7.155 -0.20 +0.05    -0.228    38.700
ATOM     24  O   UNL d   1      39.086  18.431   4.620 -0.03 +0.03    -0.303    38.700
ATOM     25  H   UNL d   1      38.294  17.852   4.481 +0.04 -0.03    +0.222    38.700
ATOM     26  O   UNL d   1      39.804  20.638   5.500 -0.16 +0.11    -0.303    38.700
ATOM     27  H   UNL d   1      39.350  21.503   5.560 -0.09 -0.11    +0.222    38.700
ATOM     28  O   UNL d   1      37.804  19.353  -0.196 -0.00 +0.03    -0.278    38.700
ATOM     29  P   UNL d   1      38.878  18.866  -1.267 +0.00 -0.01    +0.473    38.700
ATOM     30  O   UNL d   1      39.410  17.494  -1.062 +0.00 +0.00    -0.228    38.700
ATOM     31  O   UNL d   1      38.065  19.135  -2.619 +0.00 +0.01    -0.303    38.700
ATOM     32  H   UNL d   1      37.383  19.824  -2.443 +0.00 -0.01    +0.222    38.700
ATOM     33  O   UNL d   1      39.933  20.058  -1.248 +0.00 +0.00    -0.303    38.700
ATOM     34  H   UNL d   1      39.478  20.886  -0.959 +0.01 -0.01    +0.222    38.700
ATOM     35  O   UNL d   1      35.375  18.686   3.693 -0.06 +0.17    -0.278    38.700
ATOM     36  P   UNL d   1      34.980  18.107   5.126 -0.02 -0.18    +0.473    38.700
ATOM     37  O   UNL d   1      33.893  17.079   5.129 -0.01 +0.04    -0.228    38.700
ATOM     38  O   UNL d   1      36.383  17.577   5.662 -0.02 +0.05    -0.303    38.700
ATOM     39  H   UNL d   1      37.102  17.976   5.126 +0.05 -0.05    +0.222    38.700
ATOM     40  O   UNL d   1      34.723  19.431   5.969 -0.10 +0.23    -0.303    38.700
ATOM     41  H   UNL d   1      35.319  20.161   5.691 -0.46 -0.28    +0.222    38.700
ATOM     42  O   UNL d   1      36.771  17.304   1.541 -0.00 +0.03    -0.278    38.700
ATOM     43  P   UNL d   1      37.794  16.340   2.295 +0.01 -0.02    +0.473    38.700
ATOM     44  O   UNL d   1      38.122  15.042   1.642 +0.00 +0.00    -0.228    38.700
ATOM     45  O   UNL d   1      39.052  17.284   2.535 +0.00 +0.01    -0.303    38.700
ATOM     46  H   UNL d   1      39.563  17.007   3.321 +0.02 +0.00    +0.222    38.700
ATOM     47  O   UNL d   1      37.179  16.236   3.772 +0.00 +0.02    -0.303    38.700
ATOM     48  H   UNL d   1      36.307  16.681   3.790 +0.01 -0.03    +0.222    38.700
TER
ENDMDL
MODEL       40
USER    Run = 40
USER    Cluster Rank = 40
USER    Number of conformations in this cluster = 1
USER  
USER    RMSD from reference structure       = 49.023 A
USER  
USER    Estimated Free Energy of Binding    =   +3.76 kcal/mol  [=(1)+(2)+(3)-(4)]
USER    
USER    (1) Final Intermolecular Energy     =   -3.40 kcal/mol
USER        vdW + Hbond + desolv Energy     =   -3.28 kcal/mol
USER        Electrostatic Energy            =   -0.12 kcal/mol
USER    (2) Final Total Internal Energy     =  -13.93 kcal/mol
USER    (3) Torsional Free Energy           =   +7.16 kcal/mol
USER    (4) Unbound System's Energy  [=(2)] =  -13.93 kcal/mol
USER    
USER    
USER  
USER    DPF = D:/Protein_go_brrr/autodock/final/6BB5/IHP/dock.dpf
USER    NEWDPF move	IHP_ideal_opt.pdbqt
USER    NEWDPF about	0.035000 0.082000 -0.065000
USER    NEWDPF tran0	1.985183 52.522787 -0.686958
USER    NEWDPF axisangle0	0.309990 0.398998 0.862964 -146.495037
USER    NEWDPF quaternion0	0.296834 0.382064 0.826339 -0.288238
USER    NEWDPF dihe0	133.22 81.60 72.80 68.13 19.57 180.00 -152.34 38.72 -19.13 55.15 -2.54 -121.94 -24.93 126.05 169.53 13.12 -162.11 -11.49 -7.16 -22.44 -14.91 -13.77 -42.38 159.37 
USER  
USER                              x       y       z    vdW   Elec        q     RMS 
ATOM      1  C   UNL d   1       1.945  54.249  -0.640 -0.00 +0.03    +0.194    49.023
ATOM      2  C   UNL d   1       2.704  53.637  -1.819 -0.01 +0.05    +0.194    49.023
ATOM      3  C   UNL d   1       3.581  52.463  -1.380 -0.08 +0.09    +0.194    49.023
ATOM      4  C   UNL d   1       2.820  51.412  -0.576 -0.09 +0.12    +0.194    49.023
ATOM      5  C   UNL d   1       1.958  51.988   0.540 -0.07 +0.06    +0.194    49.023
ATOM      6  C   UNL d   1       1.127  53.202   0.117 -0.01 +0.04    +0.194    49.023
ATOM      7  O   UNL d   1       1.027  55.217  -1.155 +0.00 -0.03    -0.278    49.023
ATOM      8  P   UNL d   1       1.017  56.675  -0.504 +0.00 +0.02    +0.473    49.023
ATOM      9  O   UNL d   1       2.304  57.101   0.110 +0.00 -0.01    -0.228    49.023
ATOM     10  O   UNL d   1       0.544  57.627  -1.694 +0.00 -0.01    -0.303    49.023
ATOM     11  H   UNL d   1       0.755  57.209  -2.550 +0.00 +0.01    +0.222    49.023
ATOM     12  O   UNL d   1      -0.248  56.690   0.457 +0.00 -0.01    -0.303    49.023
ATOM     13  H   UNL d   1      -0.401  55.828   0.906 +0.00 +0.01    +0.222    49.023
ATOM     14  O   UNL d   1       1.760  53.165  -2.788 -0.01 -0.08    -0.278    49.023
ATOM     15  P   UNL d   1       1.665  53.991  -4.157 +0.01 +0.09    +0.473    49.023
ATOM     16  O   UNL d   1       0.654  53.522  -5.156 +0.00 -0.04    -0.228    49.023
ATOM     17  O   UNL d   1       1.417  55.493  -3.687 +0.00 -0.03    -0.303    49.023
ATOM     18  H   UNL d   1       1.029  55.522  -2.791 +0.00 +0.02    +0.222    49.023
ATOM     19  O   UNL d   1       3.165  54.064  -4.681 +0.00 -0.06    -0.303    49.023
ATOM     20  H   UNL d   1       3.759  53.501  -4.152 +0.02 +0.06    +0.222    49.023
ATOM     21  O   UNL d   1       0.661  53.820   1.314 -0.01 -0.03    -0.278    49.023
ATOM     22  P   UNL d   1      -0.906  53.904   1.604 -0.00 +0.04    +0.473    49.023
ATOM     23  O   UNL d   1      -1.387  54.912   2.592 -0.00 -0.01    -0.228    49.023
ATOM     24  O   UNL d   1      -1.500  54.071   0.137 +0.00 -0.03    -0.303    49.023
ATOM     25  H   UNL d   1      -0.968  54.762  -0.334 +0.00 +0.02    +0.222    49.023
ATOM     26  O   UNL d   1      -1.258  52.375   1.932 -0.00 -0.04    -0.303    49.023
ATOM     27  H   UNL d   1      -0.430  51.852   1.958 +0.02 +0.03    +0.222    49.023
ATOM     28  O   UNL d   1       4.020  51.793  -2.555 -0.12 -0.25    -0.278    49.023
ATOM     29  P   UNL d   1       5.452  52.112  -3.175 -0.13 +0.27    +0.473    49.023
ATOM     30  O   UNL d   1       6.129  53.320  -2.637 -0.08 -0.05    -0.228    49.023
ATOM     31  O   UNL d   1       6.179  50.706  -2.935 -0.85 -0.27    -0.303    49.023
ATOM     32  H   UNL d   1       6.756  50.782  -2.140 -0.07 +0.10    +0.222    49.023
ATOM     33  O   UNL d   1       5.152  52.090  -4.738 -0.07 -0.14    -0.303    49.023
ATOM     34  H   UNL d   1       5.023  53.018  -5.053 +0.03 +0.06    +0.222    49.023
ATOM     35  O   UNL d   1       1.041  50.955   0.894 -0.05 -0.09    -0.278    49.023
ATOM     36  P   UNL d   1       1.435  49.874   1.999 -0.14 +0.15    +0.473    49.023
ATOM     37  O   UNL d   1       1.497  48.458   1.522 -0.19 -0.10    -0.228    49.023
ATOM     38  O   UNL d   1       2.821  50.446   2.535 -0.22 -0.10    -0.303    49.023
ATOM     39  H   UNL d   1       3.551  50.078   1.992 +0.08 +0.09    +0.222    49.023
ATOM     40  O   UNL d   1       0.409  50.196   3.171 -0.07 -0.06    -0.303    49.023
ATOM     41  H   UNL d   1      -0.315  50.788   2.868 +0.03 +0.04    +0.222    49.023
ATOM     42  O   UNL d   1       3.801  50.572   0.042 +0.01 -0.20    -0.278    49.023
ATOM     43  P   UNL d   1       5.020  51.250   0.816 -0.24 +0.14    +0.473    49.023
ATOM     44  O   UNL d   1       4.752  52.528   1.532 -0.14 -0.04    -0.228    49.023
ATOM     45  O   UNL d   1       5.535  50.073   1.755 -0.65 -0.05    -0.303    49.023
ATOM     46  H   UNL d   1       4.939  49.937   2.519 +0.01 +0.07    +0.222    49.023
ATOM     47  O   UNL d   1       6.173  51.308  -0.296 -0.28 -0.07    -0.303    49.023
ATOM     48  H   UNL d   1       5.846  51.805  -1.074 +0.07 +0.08    +0.222    49.023
TER
ENDMDL
MODEL       84
USER    Run = 84
USER    Cluster Rank = 41
USER    Number of conformations in this cluster = 1
USER  
USER    RMSD from reference structure       = 63.075 A
USER  
USER    Estimated Free Energy of Binding    =   +3.76 kcal/mol  [=(1)+(2)+(3)-(4)]
USER    
USER    (1) Final Intermolecular Energy     =   -3.40 kcal/mol
USER        vdW + Hbond + desolv Energy     =   -3.33 kcal/mol
USER        Electrostatic Energy            =   -0.07 kcal/mol
USER    (2) Final Total Internal Energy     =  -15.45 kcal/mol
USER    (3) Torsional Free Energy           =   +7.16 kcal/mol
USER    (4) Unbound System's Energy  [=(2)] =  -15.45 kcal/mol
USER    
USER    
USER  
USER    DPF = D:/Protein_go_brrr/autodock/final/6BB5/IHP/dock.dpf
USER    NEWDPF move	IHP_ideal_opt.pdbqt
USER    NEWDPF about	0.035000 0.082000 -0.065000
USER    NEWDPF tran0	50.138973 41.948061 18.461458
USER    NEWDPF axisangle0	-0.787844 -0.200688 0.582259 150.408310
USER    NEWDPF quaternion0	-0.761721 -0.194033 0.562953 0.255376
USER    NEWDPF dihe0	-112.92 -24.71 168.66 13.78 -9.07 -110.62 -32.23 -0.07 -18.61 29.42 26.70 -155.91 91.42 174.76 -13.25 -0.19 178.74 -33.63 -11.24 14.01 157.18 -7.85 -35.32 12.44 
USER  
USER                              x       y       z    vdW   Elec        q     RMS 
ATOM      1  C   UNL d   1      49.386  42.183  16.925 -0.13 -0.02    +0.194    63.075
ATOM      2  C   UNL d   1      48.834  43.036  18.069 -0.13 -0.03    +0.194    63.075
ATOM      3  C   UNL d   1      48.670  42.222  19.354 -0.08 -0.01    +0.194    63.075
ATOM      4  C   UNL d   1      49.936  41.468  19.754 -0.01 -0.00    +0.194    63.075
ATOM      5  C   UNL d   1      50.585  40.695  18.614 -0.01 -0.00    +0.194    63.075
ATOM      6  C   UNL d   1      50.693  41.489  17.310 -0.02 -0.01    +0.194    63.075
ATOM      7  O   UNL d   1      49.671  43.047  15.822 -0.12 +0.04    -0.278    63.075
ATOM      8  P   UNL d   1      49.186  42.604  14.366 -0.09 -0.07    +0.473    63.075
ATOM      9  O   UNL d   1      48.711  43.713  13.494 -0.32 +0.05    -0.228    63.075
ATOM     10  O   UNL d   1      50.439  41.823  13.762 -0.16 +0.06    -0.303    63.075
ATOM     11  H   UNL d   1      50.379  40.878  13.995 +0.07 -0.04    +0.222    63.075
ATOM     12  O   UNL d   1      48.150  41.426  14.616 -0.74 +0.02    -0.303    63.075
ATOM     13  H   UNL d   1      48.575  40.602  14.945 -0.09 -0.03    +0.222    63.075
ATOM     14  O   UNL d   1      49.740  44.116  18.325 -0.07 +0.02    -0.278    63.075
ATOM     15  P   UNL d   1      49.086  45.505  18.780 -0.01 -0.00    +0.473    63.075
ATOM     16  O   UNL d   1      49.523  46.729  18.037 -0.24 -0.00    -0.228    63.075
ATOM     17  O   UNL d   1      47.518  45.248  18.678 -0.52 -0.00    -0.303    63.075
ATOM     18  H   UNL d   1      47.209  44.665  19.399 +0.05 -0.02    +0.222    63.075
ATOM     19  O   UNL d   1      49.301  45.547  20.356 -0.01 +0.00    -0.303    63.075
ATOM     20  H   UNL d   1      49.065  44.699  20.775 +0.02 -0.00    +0.222    63.075
ATOM     21  O   UNL d   1      50.988  40.550  16.279 -0.02 +0.01    -0.278    63.075
ATOM     22  P   UNL d   1      50.035  39.289  16.060 -0.03 -0.02    +0.473    63.075
ATOM     23  O   UNL d   1      48.673  39.321  16.667 -0.13 +0.01    -0.228    63.075
ATOM     24  O   UNL d   1      50.056  39.137  14.476 -0.13 +0.04    -0.303    63.075
ATOM     25  H   UNL d   1      49.488  39.852  14.089 -0.22 -0.06    +0.222    63.075
ATOM     26  O   UNL d   1      50.983  38.081  16.521 -0.01 -0.00    -0.303    63.075
ATOM     27  H   UNL d   1      51.042  38.074  17.498 +0.02 +0.00    +0.222    63.075
ATOM     28  O   UNL d   1      48.425  43.138  20.413 -0.03 +0.01    -0.278    63.075
ATOM     29  P   UNL d   1      46.951  43.335  20.983 -0.04 -0.01    +0.473    63.075
ATOM     30  O   UNL d   1      45.851  43.032  20.031 -0.19 +0.01    -0.228    63.075
ATOM     31  O   UNL d   1      47.039  42.433  22.302 -0.01 +0.00    -0.303    63.075
ATOM     32  H   UNL d   1      47.988  42.305  22.532 +0.02 +0.00    +0.222    63.075
ATOM     33  O   UNL d   1      47.012  44.816  21.564 -0.01 -0.00    -0.303    63.075
ATOM     34  H   UNL d   1      47.248  45.438  20.833 +0.04 -0.00    +0.222    63.075
ATOM     35  O   UNL d   1      51.915  40.413  19.045 +0.00 -0.00    -0.278    63.075
ATOM     36  P   UNL d   1      52.258  39.016  19.733 +0.00 +0.01    +0.473    63.075
ATOM     37  O   UNL d   1      53.145  39.090  20.935 +0.00 -0.01    -0.228    63.075
ATOM     38  O   UNL d   1      50.806  38.431  20.026 +0.00 -0.01    -0.303    63.075
ATOM     39  H   UNL d   1      50.507  38.741  20.908 +0.00 +0.01    +0.222    63.075
ATOM     40  O   UNL d   1      52.778  38.150  18.504 -0.00 -0.01    -0.303    63.075
ATOM     41  H   UNL d   1      52.584  38.586  17.644 +0.00 +0.00    +0.222    63.075
ATOM     42  O   UNL d   1      49.552  40.511  20.747 -0.00 -0.00    -0.278    63.075
ATOM     43  P   UNL d   1      49.784  40.859  22.286 +0.00 +0.01    +0.473    63.075
ATOM     44  O   UNL d   1      50.133  42.267  22.626 -0.00 -0.00    -0.228    63.075
ATOM     45  O   UNL d   1      48.445  40.337  22.969 -0.00 -0.00    -0.303    63.075
ATOM     46  H   UNL d   1      47.654  40.623  22.470 +0.02 -0.00    +0.222    63.075
ATOM     47  O   UNL d   1      50.843  39.752  22.756 -0.00 -0.01    -0.303    63.075
ATOM     48  H   UNL d   1      51.333  39.421  21.975 +0.00 +0.01    +0.222    63.075
TER
ENDMDL
MODEL       32
USER    Run = 32
USER    Cluster Rank = 42
USER    Number of conformations in this cluster = 1
USER  
USER    RMSD from reference structure       = 39.498 A
USER  
USER    Estimated Free Energy of Binding    =   +3.77 kcal/mol  [=(1)+(2)+(3)-(4)]
USER    
USER    (1) Final Intermolecular Energy     =   -3.39 kcal/mol
USER        vdW + Hbond + desolv Energy     =   -3.41 kcal/mol
USER        Electrostatic Energy            =   +0.02 kcal/mol
USER    (2) Final Total Internal Energy     =  -13.34 kcal/mol
USER    (3) Torsional Free Energy           =   +7.16 kcal/mol
USER    (4) Unbound System's Energy  [=(2)] =  -13.34 kcal/mol
USER    
USER    
USER  
USER    DPF = D:/Protein_go_brrr/autodock/final/6BB5/IHP/dock.dpf
USER    NEWDPF move	IHP_ideal_opt.pdbqt
USER    NEWDPF about	0.035000 0.082000 -0.065000
USER    NEWDPF tran0	22.055828 36.338063 -9.064727
USER    NEWDPF axisangle0	0.494662 -0.146770 0.856603 -147.774916
USER    NEWDPF quaternion0	0.475231 -0.141005 0.822954 -0.277525
USER    NEWDPF dihe0	-165.42 13.92 129.52 1.12 -6.76 -161.49 165.75 -1.26 121.99 170.20 56.56 -129.84 32.75 39.01 173.08 107.81 180.00 -80.99 -131.80 -29.31 178.25 67.60 12.15 -174.85 
USER  
USER                              x       y       z    vdW   Elec        q     RMS 
ATOM      1  C   UNL d   1      22.643  37.066  -7.612 -0.06 +0.02    +0.194    39.498
ATOM      2  C   UNL d   1      23.351  37.495  -8.899 -0.02 +0.03    +0.194    39.498
ATOM      3  C   UNL d   1      23.624  36.303  -9.819 +0.00 +0.01    +0.194    39.498
ATOM      4  C   UNL d   1      22.382  35.459 -10.096 -0.01 +0.02    +0.194    39.498
ATOM      5  C   UNL d   1      21.582  35.105  -8.850 -0.04 +0.02    +0.194    39.498
ATOM      6  C   UNL d   1      21.361  36.284  -7.900 -0.10 +0.04    +0.194    39.498
ATOM      7  O   UNL d   1      22.271  38.245  -6.894 -0.14 -0.05    -0.278    39.498
ATOM      8  P   UNL d   1      20.733  38.676  -6.887 -0.21 +0.17    +0.473    39.498
ATOM      9  O   UNL d   1      19.896  38.006  -5.855 -0.41 -0.06    -0.228    39.498
ATOM     10  O   UNL d   1      20.777  40.263  -6.727 -0.26 -0.10    -0.303    39.498
ATOM     11  H   UNL d   1      21.534  40.621  -7.226 +0.08 +0.07    +0.222    39.498
ATOM     12  O   UNL d   1      20.249  38.506  -8.390 -0.01 -0.25    -0.303    39.498
ATOM     13  H   UNL d   1      20.964  38.671  -9.046 +0.05 +0.14    +0.222    39.498
ATOM     14  O   UNL d   1      22.521  38.430  -9.599 -0.05 -0.08    -0.278    39.498
ATOM     15  P   UNL d   1      22.926  39.975  -9.481 -0.03 +0.11    +0.473    39.498
ATOM     16  O   UNL d   1      23.789  40.528 -10.572 -0.01 -0.03    -0.228    39.498
ATOM     17  O   UNL d   1      21.531  40.733  -9.353 -0.09 -0.13    -0.303    39.498
ATOM     18  H   UNL d   1      20.881  40.193  -8.863 +0.07 +0.14    +0.222    39.498
ATOM     19  O   UNL d   1      23.506  40.121  -8.008 -0.04 -0.05    -0.303    39.498
ATOM     20  H   UNL d   1      22.850  39.861  -7.334 +0.07 +0.05    +0.222    39.498
ATOM     21  O   UNL d   1      20.918  35.737  -6.660 -0.13 -0.03    -0.278    39.498
ATOM     22  P   UNL d   1      21.966  35.028  -5.688 -0.13 -0.03    +0.473    39.498
ATOM     23  O   UNL d   1      21.451  34.034  -4.702 -0.58 +0.02    -0.228    39.498
ATOM     24  O   UNL d   1      23.031  34.454  -6.721 -0.05 +0.05    -0.303    39.498
ATOM     25  H   UNL d   1      22.623  33.681  -7.187 +0.06 -0.06    +0.222    39.498
ATOM     26  O   UNL d   1      22.745  36.288  -5.074 -0.15 +0.01    -0.303    39.498
ATOM     27  H   UNL d   1      22.168  37.077  -5.122 +0.11 +0.01    +0.222    39.498
ATOM     28  O   UNL d   1      24.019  36.819 -11.084 +0.00 -0.02    -0.278    39.498
ATOM     29  P   UNL d   1      24.421  35.831 -12.267 +0.01 +0.02    +0.473    39.498
ATOM     30  O   UNL d   1      23.286  35.258 -13.035 +0.00 -0.01    -0.228    39.498
ATOM     31  O   UNL d   1      25.447  36.760 -13.070 +0.00 -0.01    -0.303    39.498
ATOM     32  H   UNL d   1      25.326  36.600 -14.035 +0.00 +0.01    +0.222    39.498
ATOM     33  O   UNL d   1      25.384  34.800 -11.528 +0.00 +0.00    -0.303    39.498
ATOM     34  H   UNL d   1      24.893  34.381 -10.780 +0.00 -0.01    +0.222    39.498
ATOM     35  O   UNL d   1      20.298  34.697  -9.317 -0.07 -0.04    -0.278    39.498
ATOM     36  P   UNL d   1      19.522  33.502  -8.599 -0.16 -0.04    +0.473    39.498
ATOM     37  O   UNL d   1      18.886  32.504  -9.513 -0.21 +0.06    -0.228    39.498
ATOM     38  O   UNL d   1      20.655  32.898  -7.656 -0.08 +0.08    -0.303    39.498
ATOM     39  H   UNL d   1      21.050  33.622  -7.124 +0.09 -0.04    +0.222    39.498
ATOM     40  O   UNL d   1      18.562  34.276  -7.595 -0.47 -0.03    -0.303    39.498
ATOM     41  H   UNL d   1      17.628  33.982  -7.684 -0.43 -0.04    +0.222    39.498
ATOM     42  O   UNL d   1      22.836  34.228 -10.669 +0.00 +0.00    -0.278    39.498
ATOM     43  P   UNL d   1      23.535  33.150  -9.724 +0.01 -0.08    +0.473    39.498
ATOM     44  O   UNL d   1      24.386  33.659  -8.612 -0.01 +0.04    -0.228    39.498
ATOM     45  O   UNL d   1      22.308  32.256  -9.248 -0.05 +0.11    -0.303    39.498
ATOM     46  H   UNL d   1      21.454  32.705  -9.408 +0.05 -0.05    +0.222    39.498
ATOM     47  O   UNL d   1      24.267  32.172 -10.762 -0.00 +0.04    -0.303    39.498
ATOM     48  H   UNL d   1      24.781  32.707 -11.402 +0.00 -0.02    +0.222    39.498
TER
ENDMDL
MODEL       70
USER    Run = 70
USER    Cluster Rank = 43
USER    Number of conformations in this cluster = 1
USER  
USER    RMSD from reference structure       = 66.732 A
USER  
USER    Estimated Free Energy of Binding    =   +3.79 kcal/mol  [=(1)+(2)+(3)-(4)]
USER    
USER    (1) Final Intermolecular Energy     =   -3.37 kcal/mol
USER        vdW + Hbond + desolv Energy     =   -3.32 kcal/mol
USER        Electrostatic Energy            =   -0.04 kcal/mol
USER    (2) Final Total Internal Energy     =  -13.83 kcal/mol
USER    (3) Torsional Free Energy           =   +7.16 kcal/mol
USER    (4) Unbound System's Energy  [=(2)] =  -13.83 kcal/mol
USER    
USER    
USER  
USER    DPF = D:/Protein_go_brrr/autodock/final/6BB5/IHP/dock.dpf
USER    NEWDPF move	IHP_ideal_opt.pdbqt
USER    NEWDPF about	0.035000 0.082000 -0.065000
USER    NEWDPF tran0	51.860805 45.961904 16.069294
USER    NEWDPF axisangle0	-0.886214 -0.430637 -0.170812 83.535193
USER    NEWDPF quaternion0	-0.590317 -0.286852 -0.113780 0.745853
USER    NEWDPF dihe0	170.17 -151.68 -70.53 10.97 -19.66 159.62 -20.70 -89.50 -6.39 110.18 32.92 169.70 73.11 36.66 -177.06 -51.31 -13.72 166.67 9.65 -18.33 -33.19 0.81 165.59 -7.71 
USER  
USER                              x       y       z    vdW   Elec        q     RMS 
ATOM      1  C   UNL d   1      53.170  45.708  14.971 -0.00 -0.01    +0.194    66.732
ATOM      2  C   UNL d   1      51.816  45.151  14.526 -0.05 -0.02    +0.194    66.732
ATOM      3  C   UNL d   1      51.085  44.454  15.675 -0.06 -0.02    +0.194    66.732
ATOM      4  C   UNL d   1      50.969  45.320  16.927 -0.06 -0.01    +0.194    66.732
ATOM      5  C   UNL d   1      52.274  45.988  17.342 -0.01 -0.01    +0.194    66.732
ATOM      6  C   UNL d   1      53.036  46.632  16.182 -0.00 -0.01    +0.194    66.732
ATOM      7  O   UNL d   1      53.707  46.486  13.899 +0.00 +0.02    -0.278    66.732
ATOM      8  P   UNL d   1      55.022  45.957  13.161 +0.01 -0.03    +0.473    66.732
ATOM      9  O   UNL d   1      54.898  45.802  11.686 -0.01 +0.02    -0.228    66.732
ATOM     10  O   UNL d   1      56.151  46.998  13.591 +0.00 +0.01    -0.303    66.732
ATOM     11  H   UNL d   1      55.823  47.554  14.323 +0.00 -0.01    +0.222    66.732
ATOM     12  O   UNL d   1      55.448  44.653  13.963 +0.00 +0.01    -0.303    66.732
ATOM     13  H   UNL d   1      56.079  44.085  13.466 +0.01 -0.01    +0.222    66.732
ATOM     14  O   UNL d   1      51.000  46.231  14.053 -0.08 +0.05    -0.278    66.732
ATOM     15  P   UNL d   1      50.647  46.229  12.491 -0.09 -0.15    +0.473    66.732
ATOM     16  O   UNL d   1      49.375  45.551  12.091 -0.39 +0.12    -0.228    66.732
ATOM     17  O   UNL d   1      50.679  47.770  12.085 -0.06 +0.09    -0.303    66.732
ATOM     18  H   UNL d   1      50.271  47.911  11.210 +0.05 -0.11    +0.222    66.732
ATOM     19  O   UNL d   1      51.965  45.686  11.787 -0.29 +0.06    -0.303    66.732
ATOM     20  H   UNL d   1      52.762  46.148  12.107 +0.03 -0.04    +0.222    66.732
ATOM     21  O   UNL d   1      54.355  46.898  16.653 +0.00 +0.01    -0.278    66.732
ATOM     22  P   UNL d   1      55.042  48.302  16.333 +0.00 -0.01    +0.473    66.732
ATOM     23  O   UNL d   1      56.519  48.334  16.130 +0.00 +0.00    -0.228    66.732
ATOM     24  O   UNL d   1      54.186  48.807  15.090 +0.00 +0.01    -0.303    66.732
ATOM     25  H   UNL d   1      54.581  48.421  14.267 +0.00 -0.01    +0.222    66.732
ATOM     26  O   UNL d   1      54.476  49.219  17.520 +0.00 +0.00    -0.303    66.732
ATOM     27  H   UNL d   1      53.722  48.764  17.947 +0.00 -0.00    +0.222    66.732
ATOM     28  O   UNL d   1      49.747  44.222  15.252 -0.15 +0.05    -0.278    66.732
ATOM     29  P   UNL d   1      49.234  42.738  14.986 -0.18 -0.07    +0.473    66.732
ATOM     30  O   UNL d   1      49.672  42.129  13.704 -0.23 +0.04    -0.228    66.732
ATOM     31  O   UNL d   1      49.725  42.027  16.333 -0.08 +0.03    -0.303    66.732
ATOM     32  H   UNL d   1      49.709  42.689  17.062 +0.05 -0.02    +0.222    66.732
ATOM     33  O   UNL d   1      47.665  42.881  15.217 -0.21 +0.09    -0.303    66.732
ATOM     34  H   UNL d   1      47.502  43.591  15.884 -0.50 -0.12    +0.222    66.732
ATOM     35  O   UNL d   1      51.904  47.037  18.235 -0.01 +0.00    -0.278    66.732
ATOM     36  P   UNL d   1      51.015  48.257  17.720 -0.03 -0.01    +0.473    66.732
ATOM     37  O   UNL d   1      50.055  47.935  16.619 -0.05 +0.01    -0.228    66.732
ATOM     38  O   UNL d   1      50.325  48.749  19.068 -0.01 +0.00    -0.303    66.732
ATOM     39  H   UNL d   1      49.601  48.129  19.303 +0.02 -0.00    +0.222    66.732
ATOM     40  O   UNL d   1      52.109  49.372  17.421 -0.00 +0.00    -0.303    66.732
ATOM     41  H   UNL d   1      52.672  49.133  16.651 +0.01 -0.01    +0.222    66.732
ATOM     42  O   UNL d   1      50.582  44.451  17.997 -0.04 +0.01    -0.278    66.732
ATOM     43  P   UNL d   1      49.198  44.716  18.744 -0.06 -0.02    +0.473    66.732
ATOM     44  O   UNL d   1      49.123  44.377  20.193 -0.03 +0.00    -0.228    66.732
ATOM     45  O   UNL d   1      48.914  46.248  18.419 -0.52 -0.01    -0.303    66.732
ATOM     46  H   UNL d   1      49.732  46.781  18.464 +0.02 -0.00    +0.222    66.732
ATOM     47  O   UNL d   1      48.128  43.980  17.805 -0.30 +0.06    -0.303    66.732
ATOM     48  H   UNL d   1      48.557  43.732  16.960 -0.03 -0.05    +0.222    66.732
TER
ENDMDL
MODEL       73
USER    Run = 73
USER    Cluster Rank = 44
USER    Number of conformations in this cluster = 1
USER  
USER    RMSD from reference structure       = 47.850 A
USER  
USER    Estimated Free Energy of Binding    =   +3.89 kcal/mol  [=(1)+(2)+(3)-(4)]
USER    
USER    (1) Final Intermolecular Energy     =   -3.27 kcal/mol
USER        vdW + Hbond + desolv Energy     =   -3.42 kcal/mol
USER        Electrostatic Energy            =   +0.16 kcal/mol
USER    (2) Final Total Internal Energy     =  -15.54 kcal/mol
USER    (3) Torsional Free Energy           =   +7.16 kcal/mol
USER    (4) Unbound System's Energy  [=(2)] =  -15.54 kcal/mol
USER    
USER    
USER  
USER    DPF = D:/Protein_go_brrr/autodock/final/6BB5/IHP/dock.dpf
USER    NEWDPF move	IHP_ideal_opt.pdbqt
USER    NEWDPF about	0.035000 0.082000 -0.065000
USER    NEWDPF tran0	26.940916 30.658866 31.611936
USER    NEWDPF axisangle0	-0.835341 0.380157 0.397097 -162.069233
USER    NEWDPF quaternion0	-0.825136 0.375512 0.392245 -0.155838
USER    NEWDPF dihe0	-154.41 -22.14 180.00 -7.30 11.01 -111.93 25.24 -113.33 -7.77 25.14 148.72 132.22 97.33 -180.00 -11.22 -73.00 -178.83 58.86 -17.12 17.60 155.23 20.94 -29.76 -11.51 
USER  
USER                              x       y       z    vdW   Elec        q     RMS 
ATOM      1  C   UNL d   1      27.694  31.066  30.112 -0.09 -0.05    +0.194    47.850
ATOM      2  C   UNL d   1      27.975  32.022  31.273 -0.08 -0.06    +0.194    47.850
ATOM      3  C   UNL d   1      26.709  32.319  32.080 -0.07 +0.01    +0.194    47.850
ATOM      4  C   UNL d   1      25.974  31.060  32.533 -0.04 +0.09    +0.194    47.850
ATOM      5  C   UNL d   1      25.775  30.028  31.431 -0.07 +0.08    +0.194    47.850
ATOM      6  C   UNL d   1      27.024  29.776  30.584 -0.07 +0.00    +0.194    47.850
ATOM      7  O   UNL d   1      28.945  30.705  29.520 -0.11 +0.08    -0.278    47.850
ATOM      8  P   UNL d   1      29.030  30.607  27.928 -0.17 -0.23    +0.473    47.850
ATOM      9  O   UNL d   1      30.357  30.946  27.345 -0.39 +0.10    -0.228    47.850
ATOM     10  O   UNL d   1      28.566  29.114  27.607 -0.23 +0.18    -0.303    47.850
ATOM     11  H   UNL d   1      27.747  28.914  28.098 +0.10 -0.14    +0.222    47.850
ATOM     12  O   UNL d   1      27.800  31.459  27.394 -0.19 +0.29    -0.303    47.850
ATOM     13  H   UNL d   1      26.929  31.056  27.610 +0.08 -0.18    +0.222    47.850
ATOM     14  O   UNL d   1      28.942  31.425  32.146 -0.04 +0.02    -0.278    47.850
ATOM     15  P   UNL d   1      29.918  32.428  32.924 -0.04 -0.06    +0.473    47.850
ATOM     16  O   UNL d   1      31.388  32.207  32.749 -0.09 -0.02    -0.228    47.850
ATOM     17  O   UNL d   1      29.450  33.874  32.446 -0.10 +0.22    -0.303    47.850
ATOM     18  H   UNL d   1      28.695  34.192  32.977 +0.04 -0.13    +0.222    47.850
ATOM     19  O   UNL d   1      29.395  32.404  34.426 -0.00 -0.00    -0.303    47.850
ATOM     20  H   UNL d   1      28.509  32.801  34.506 +0.02 -0.01    +0.222    47.850
ATOM     21  O   UNL d   1      26.598  29.075  29.418 -0.10 +0.05    -0.278    47.850
ATOM     22  P   UNL d   1      25.414  29.666  28.527 -0.09 -0.07    +0.473    47.850
ATOM     23  O   UNL d   1      25.076  31.112  28.674 -0.16 -0.01    -0.228    47.850
ATOM     24  O   UNL d   1      25.860  29.231  27.063 -0.25 +0.19    -0.303    47.850
ATOM     25  H   UNL d   1      26.776  29.573  26.905 +0.11 -0.17    +0.222    47.850
ATOM     26  O   UNL d   1      24.228  28.632  28.834 -0.13 -0.02    -0.303    47.850
ATOM     27  H   UNL d   1      23.881  28.798  29.734 +0.08 +0.08    +0.222    47.850
ATOM     28  O   UNL d   1      27.108  32.974  33.277 -0.03 +0.01    -0.278    47.850
ATOM     29  P   UNL d   1      26.377  34.309  33.746 -0.02 -0.01    +0.473    47.850
ATOM     30  O   UNL d   1      27.081  35.575  33.417 -0.06 +0.09    -0.228    47.850
ATOM     31  O   UNL d   1      24.937  34.086  33.085 -0.06 -0.15    -0.303    47.850
ATOM     32  H   UNL d   1      24.438  33.436  33.632 +0.02 +0.16    +0.222    47.850
ATOM     33  O   UNL d   1      26.105  34.017  35.288 -0.00 -0.02    -0.303    47.850
ATOM     34  H   UNL d   1      25.615  33.162  35.371 +0.01 +0.04    +0.222    47.850
ATOM     35  O   UNL d   1      25.465  28.805  32.097 -0.21 -0.09    -0.278    47.850
ATOM     36  P   UNL d   1      23.954  28.303  32.195 -0.06 +0.20    +0.473    47.850
ATOM     37  O   UNL d   1      23.524  27.814  33.541 -0.03 -0.06    -0.228    47.850
ATOM     38  O   UNL d   1      23.153  29.577  31.674 -0.07 -0.38    -0.303    47.850
ATOM     39  H   UNL d   1      23.110  30.245  32.392 +0.02 +0.41    +0.222    47.850
ATOM     40  O   UNL d   1      23.860  27.271  30.988 -0.28 -0.07    -0.303    47.850
ATOM     41  H   UNL d   1      24.601  27.385  30.353 +0.05 +0.03    +0.222    47.850
ATOM     42  O   UNL d   1      24.673  31.472  32.965 -0.52 -0.34    -0.278    47.850
ATOM     43  P   UNL d   1      24.212  31.132  34.454 -0.03 +0.27    +0.473    47.850
ATOM     44  O   UNL d   1      24.207  32.247  35.442 -0.03 -0.08    -0.228    47.850
ATOM     45  O   UNL d   1      22.790  30.452  34.232 -0.06 -0.22    -0.303    47.850
ATOM     46  H   UNL d   1      22.879  29.537  33.899 +0.02 +0.13    +0.222    47.850
ATOM     47  O   UNL d   1      25.120  29.869  34.840 -0.00 -0.09    -0.303    47.850
ATOM     48  H   UNL d   1      25.076  29.208  34.119 +0.02 +0.07    +0.222    47.850
TER
ENDMDL
MODEL       24
USER    Run = 24
USER    Cluster Rank = 45
USER    Number of conformations in this cluster = 1
USER  
USER    RMSD from reference structure       = 57.450 A
USER  
USER    Estimated Free Energy of Binding    =   +3.92 kcal/mol  [=(1)+(2)+(3)-(4)]
USER    
USER    (1) Final Intermolecular Energy     =   -3.23 kcal/mol
USER        vdW + Hbond + desolv Energy     =   -2.99 kcal/mol
USER        Electrostatic Energy            =   -0.24 kcal/mol
USER    (2) Final Total Internal Energy     =  -13.68 kcal/mol
USER    (3) Torsional Free Energy           =   +7.16 kcal/mol
USER    (4) Unbound System's Energy  [=(2)] =  -13.68 kcal/mol
USER    
USER    
USER  
USER    DPF = D:/Protein_go_brrr/autodock/final/6BB5/IHP/dock.dpf
USER    NEWDPF move	IHP_ideal_opt.pdbqt
USER    NEWDPF about	0.035000 0.082000 -0.065000
USER    NEWDPF tran0	24.501790 47.855337 28.759876
USER    NEWDPF axisangle0	0.794184 -0.114048 -0.596879 107.944022
USER    NEWDPF quaternion0	0.642280 -0.092234 -0.482714 0.588180
USER    NEWDPF dihe0	-121.37 1.39 50.10 59.68 15.31 159.04 -95.02 45.44 99.04 87.37 1.37 173.74 -114.28 -133.42 -52.42 15.03 102.52 160.03 36.60 -36.21 -179.99 -179.95 -7.17 -17.66 
USER  
USER                              x       y       z    vdW   Elec        q     RMS 
ATOM      1  C   UNL d   1      25.354  49.345  28.564 -0.06 -0.00    +0.194    57.450
ATOM      2  C   UNL d   1      25.450  48.707  29.951 -0.01 -0.01    +0.194    57.450
ATOM      3  C   UNL d   1      24.096  48.172  30.423 -0.00 -0.01    +0.194    57.450
ATOM      4  C   UNL d   1      23.426  47.250  29.407 -0.02 -0.02    +0.194    57.450
ATOM      5  C   UNL d   1      23.411  47.798  27.986 -0.06 -0.04    +0.194    57.450
ATOM      6  C   UNL d   1      24.749  48.388  27.536 -0.14 -0.04    +0.194    57.450
ATOM      7  O   UNL d   1      26.678  49.659  28.125 -0.09 -0.04    -0.278    57.450
ATOM      8  P   UNL d   1      27.313  51.057  28.568 -0.03 +0.10    +0.473    57.450
ATOM      9  O   UNL d   1      26.596  52.262  28.068 -0.06 -0.06    -0.228    57.450
ATOM     10  O   UNL d   1      27.363  50.972  30.161 -0.01 -0.02    -0.303    57.450
ATOM     11  H   UNL d   1      28.144  50.457  30.436 +0.02 +0.01    +0.222    57.450
ATOM     12  O   UNL d   1      28.850  50.954  28.181 -0.07 -0.08    -0.303    57.450
ATOM     13  H   UNL d   1      29.251  50.088  28.423 +0.04 +0.04    +0.222    57.450
ATOM     14  O   UNL d   1      26.378  47.616  29.900 -0.02 +0.02    -0.278    57.450
ATOM     15  P   UNL d   1      27.884  47.937  30.341 -0.00 -0.01    +0.473    57.450
ATOM     16  O   UNL d   1      28.741  48.647  29.340 -0.07 -0.00    -0.228    57.450
ATOM     17  O   UNL d   1      27.724  48.748  31.703 -0.00 +0.00    -0.303    57.450
ATOM     18  H   UNL d   1      27.035  49.435  31.624 +0.01 +0.00    +0.222    57.450
ATOM     19  O   UNL d   1      28.450  46.545  30.863 -0.02 +0.02    -0.303    57.450
ATOM     20  H   UNL d   1      27.781  45.838  30.800 +0.05 -0.02    +0.222    57.450
ATOM     21  O   UNL d   1      24.489  49.149  26.359 -0.19 +0.12    -0.278    57.450
ATOM     22  P   UNL d   1      23.829  50.596  26.481 -0.09 -0.03    +0.473    57.450
ATOM     23  O   UNL d   1      23.052  50.915  27.714 -0.02 +0.01    -0.228    57.450
ATOM     24  O   UNL d   1      25.077  51.547  26.214 -0.02 -0.15    -0.303    57.450
ATOM     25  H   UNL d   1      25.816  51.260  26.809 +0.03 +0.12    +0.222    57.450
ATOM     26  O   UNL d   1      23.027  50.706  25.097 -0.14 +0.10    -0.303    57.450
ATOM     27  H   UNL d   1      23.343  50.011  24.486 -0.44 -0.29    +0.222    57.450
ATOM     28  O   UNL d   1      24.330  47.365  31.569 +0.00 +0.01    -0.278    57.450
ATOM     29  P   UNL d   1      25.082  45.968  31.429 +0.01 -0.03    +0.473    57.450
ATOM     30  O   UNL d   1      25.274  45.480  30.039 -0.02 +0.03    -0.228    57.450
ATOM     31  O   UNL d   1      26.403  46.275  32.279 -0.00 +0.01    -0.303    57.450
ATOM     32  H   UNL d   1      26.728  47.173  32.040 +0.01 -0.01    +0.222    57.450
ATOM     33  O   UNL d   1      24.241  45.036  32.409 +0.00 +0.02    -0.303    57.450
ATOM     34  H   UNL d   1      23.664  44.441  31.871 +0.01 -0.02    +0.222    57.450
ATOM     35  O   UNL d   1      23.141  46.680  27.143 -0.12 +0.11    -0.278    57.450
ATOM     36  P   UNL d   1      21.893  46.705  26.149 -0.25 -0.17    +0.473    57.450
ATOM     37  O   UNL d   1      22.082  45.972  24.859 -0.99 +0.11    -0.228    57.450
ATOM     38  O   UNL d   1      20.732  46.122  27.069 -0.18 +0.04    -0.303    57.450
ATOM     39  H   UNL d   1      20.921  46.345  28.006 +0.05 -0.03    +0.222    57.450
ATOM     40  O   UNL d   1      21.564  48.258  26.056 -0.13 +0.09    -0.303    57.450
ATOM     41  H   UNL d   1      22.377  48.795  25.924 +0.05 -0.11    +0.222    57.450
ATOM     42  O   UNL d   1      22.062  47.103  29.817 -0.00 +0.02    -0.278    57.450
ATOM     43  P   UNL d   1      21.452  45.636  29.958 -0.00 -0.04    +0.473    57.450
ATOM     44  O   UNL d   1      19.979  45.487  29.800 -0.03 +0.01    -0.228    57.450
ATOM     45  O   UNL d   1      22.308  44.800  28.909 -0.05 +0.05    -0.303    57.450
ATOM     46  H   UNL d   1      22.068  45.029  27.988 +0.07 -0.04    +0.222    57.450
ATOM     47  O   UNL d   1      22.054  45.122  31.352 -0.00 +0.02    -0.303    57.450
ATOM     48  H   UNL d   1      22.709  45.773  31.680 +0.00 -0.01    +0.222    57.450
TER
ENDMDL
MODEL       21
USER    Run = 21
USER    Cluster Rank = 46
USER    Number of conformations in this cluster = 1
USER  
USER    RMSD from reference structure       = 60.962 A
USER  
USER    Estimated Free Energy of Binding    =   +3.99 kcal/mol  [=(1)+(2)+(3)-(4)]
USER    
USER    (1) Final Intermolecular Energy     =   -3.17 kcal/mol
USER        vdW + Hbond + desolv Energy     =   -3.10 kcal/mol
USER        Electrostatic Energy            =   -0.07 kcal/mol
USER    (2) Final Total Internal Energy     =  -13.36 kcal/mol
USER    (3) Torsional Free Energy           =   +7.16 kcal/mol
USER    (4) Unbound System's Energy  [=(2)] =  -13.36 kcal/mol
USER    
USER    
USER  
USER    DPF = D:/Protein_go_brrr/autodock/final/6BB5/IHP/dock.dpf
USER    NEWDPF move	IHP_ideal_opt.pdbqt
USER    NEWDPF about	0.035000 0.082000 -0.065000
USER    NEWDPF tran0	41.258315 43.497851 24.208616
USER    NEWDPF axisangle0	0.260878 -0.216461 0.940791 100.874241
USER    NEWDPF quaternion0	0.201118 -0.166875 0.725280 0.636925
USER    NEWDPF dihe0	88.88 92.42 175.55 105.65 14.82 -147.36 -13.33 -65.27 121.24 -62.61 154.67 116.43 1.57 99.55 -24.66 -68.11 91.59 -171.10 32.83 -24.89 -180.00 -17.64 -53.53 24.22 
USER  
USER                              x       y       z    vdW   Elec        q     RMS 
ATOM      1  C   UNL d   1      40.761  42.385  25.433 -0.12 -0.04    +0.194    60.962
ATOM      2  C   UNL d   1      40.021  43.724  25.416 -0.08 -0.01    +0.194    60.962
ATOM      3  C   UNL d   1      40.978  44.898  25.204 -0.04 +0.00    +0.194    60.962
ATOM      4  C   UNL d   1      41.883  44.724  23.987 -0.01 +0.00    +0.194    60.962
ATOM      5  C   UNL d   1      42.554  43.359  23.902 -0.08 -0.01    +0.194    60.962
ATOM      6  C   UNL d   1      41.609  42.187  24.176 -0.16 -0.06    +0.194    60.962
ATOM      7  O   UNL d   1      39.789  41.338  25.461 -0.16 +0.12    -0.278    60.962
ATOM      8  P   UNL d   1      39.281  40.812  26.882 -0.13 -0.07    +0.473    60.962
ATOM      9  O   UNL d   1      38.775  41.867  27.801 -0.17 +0.00    -0.228    60.962
ATOM     10  O   UNL d   1      38.180  39.716  26.517 -0.30 +0.04    -0.303    60.962
ATOM     11  H   UNL d   1      37.400  40.153  26.129 +0.14 -0.02    +0.222    60.962
ATOM     12  O   UNL d   1      40.469  39.917  27.439 -0.10 -0.02    -0.303    60.962
ATOM     13  H   UNL d   1      41.349  40.350  27.360 +0.06 +0.00    +0.222    60.962
ATOM     14  O   UNL d   1      39.065  43.715  24.349 -0.08 +0.03    -0.278    60.962
ATOM     15  P   UNL d   1      37.525  43.580  24.768 -0.17 -0.07    +0.473    60.962
ATOM     16  O   UNL d   1      36.517  44.128  23.807 -0.38 +0.03    -0.228    60.962
ATOM     17  O   UNL d   1      37.334  42.022  25.042 -0.15 +0.08    -0.303    60.962
ATOM     18  H   UNL d   1      37.670  41.777  25.925 +0.02 -0.05    +0.222    60.962
ATOM     19  O   UNL d   1      37.462  44.174  26.242 -0.16 +0.02    -0.303    60.962
ATOM     20  H   UNL d   1      37.948  45.016  26.313 +0.07 +0.00    +0.222    60.962
ATOM     21  O   UNL d   1      42.427  41.041  24.400 -0.18 +0.16    -0.278    60.962
ATOM     22  P   UNL d   1      43.157  40.852  25.806 -0.07 -0.14    +0.473    60.962
ATOM     23  O   UNL d   1      42.857  41.828  26.893 -0.03 +0.01    -0.228    60.962
ATOM     24  O   UNL d   1      42.809  39.338  26.153 -0.02 +0.20    -0.303    60.962
ATOM     25  H   UNL d   1      41.829  39.219  26.063 -0.32 -0.29    +0.222    60.962
ATOM     26  O   UNL d   1      44.694  40.744  25.363 -0.05 +0.05    -0.303    60.962
ATOM     27  H   UNL d   1      44.863  41.372  24.630 +0.04 -0.03    +0.222    60.962
ATOM     28  O   UNL d   1      40.190  46.049  24.926 -0.03 -0.01    -0.278    60.962
ATOM     29  P   UNL d   1      39.750  47.026  26.105 +0.01 +0.03    +0.473    60.962
ATOM     30  O   UNL d   1      38.414  46.755  26.696 -0.04 -0.01    -0.228    60.962
ATOM     31  O   UNL d   1      41.016  46.883  27.073 -0.00 -0.02    -0.303    60.962
ATOM     32  H   UNL d   1      41.829  46.829  26.521 +0.00 +0.01    +0.222    60.962
ATOM     33  O   UNL d   1      39.969  48.460  25.449 -0.00 -0.03    -0.303    60.962
ATOM     34  H   UNL d   1      40.398  48.347  24.565 +0.02 +0.03    +0.222    60.962
ATOM     35  O   UNL d   1      43.003  43.231  22.555 -0.13 +0.01    -0.278    60.962
ATOM     36  P   UNL d   1      44.316  43.993  22.068 -0.07 +0.00    +0.473    60.962
ATOM     37  O   UNL d   1      45.255  43.189  21.227 -0.13 +0.00    -0.228    60.962
ATOM     38  O   UNL d   1      43.701  45.264  21.331 -0.12 -0.01    -0.303    60.962
ATOM     39  H   UNL d   1      43.057  45.701  21.928 +0.07 +0.01    +0.222    60.962
ATOM     40  O   UNL d   1      44.891  44.582  23.429 -0.01 -0.00    -0.303    60.962
ATOM     41  H   UNL d   1      44.722  45.547  23.509 +0.02 +0.01    +0.222    60.962
ATOM     42  O   UNL d   1      42.926  45.699  24.102 -0.03 -0.01    -0.278    60.962
ATOM     43  P   UNL d   1      42.680  47.163  23.520 -0.01 +0.04    +0.473    60.962
ATOM     44  O   UNL d   1      43.672  47.689  22.542 -0.03 -0.02    -0.228    60.962
ATOM     45  O   UNL d   1      41.195  47.070  22.955 -0.04 -0.03    -0.303    60.962
ATOM     46  H   UNL d   1      40.533  47.185  23.666 +0.03 +0.02    +0.222    60.962
ATOM     47  O   UNL d   1      42.471  48.051  24.839 -0.00 -0.02    -0.303    60.962
ATOM     48  H   UNL d   1      41.658  47.757  25.300 +0.01 +0.02    +0.222    60.962
TER
ENDMDL
MODEL       44
USER    Run = 44
USER    Cluster Rank = 47
USER    Number of conformations in this cluster = 1
USER  
USER    RMSD from reference structure       = 56.479 A
USER  
USER    Estimated Free Energy of Binding    =   +4.06 kcal/mol  [=(1)+(2)+(3)-(4)]
USER    
USER    (1) Final Intermolecular Energy     =   -3.10 kcal/mol
USER        vdW + Hbond + desolv Energy     =   -2.97 kcal/mol
USER        Electrostatic Energy            =   -0.12 kcal/mol
USER    (2) Final Total Internal Energy     =  -15.32 kcal/mol
USER    (3) Torsional Free Energy           =   +7.16 kcal/mol
USER    (4) Unbound System's Energy  [=(2)] =  -15.32 kcal/mol
USER    
USER    
USER  
USER    DPF = D:/Protein_go_brrr/autodock/final/6BB5/IHP/dock.dpf
USER    NEWDPF move	IHP_ideal_opt.pdbqt
USER    NEWDPF about	0.035000 0.082000 -0.065000
USER    NEWDPF tran0	20.965340 49.704486 26.917833
USER    NEWDPF axisangle0	-0.368932 -0.914977 0.163420 -176.516537
USER    NEWDPF quaternion0	-0.368761 -0.914554 0.163345 -0.030394
USER    NEWDPF dihe0	-138.46 17.10 -172.33 -12.76 123.99 154.81 7.31 -112.06 38.56 93.11 58.91 -145.15 46.97 -180.00 61.27 -96.65 -76.40 111.68 -10.31 15.92 -25.02 19.46 -9.22 -11.17 
USER  
USER                              x       y       z    vdW   Elec        q     RMS 
ATOM      1  C   UNL d   1      19.326  49.744  26.374 -0.03 -0.01    +0.194    56.479
ATOM      2  C   UNL d   1      19.763  48.450  27.062 -0.08 -0.02    +0.194    56.479
ATOM      3  C   UNL d   1      21.151  48.003  26.600 -0.12 -0.04    +0.194    56.479
ATOM      4  C   UNL d   1      22.206  49.102  26.714 -0.11 -0.05    +0.194    56.479
ATOM      5  C   UNL d   1      21.767  50.444  26.142 -0.07 -0.03    +0.194    56.479
ATOM      6  C   UNL d   1      20.354  50.862  26.556 -0.03 -0.01    +0.194    56.479
ATOM      7  O   UNL d   1      18.109  50.183  26.982 -0.02 +0.01    -0.278    56.479
ATOM      8  P   UNL d   1      16.902  50.625  26.032 -0.01 -0.02    +0.473    56.479
ATOM      9  O   UNL d   1      15.859  49.587  25.814 -0.02 +0.01    -0.228    56.479
ATOM     10  O   UNL d   1      16.337  51.950  26.717 -0.00 +0.01    -0.303    56.479
ATOM     11  H   UNL d   1      17.022  52.644  26.701 +0.00 -0.01    +0.222    56.479
ATOM     12  O   UNL d   1      17.596  51.197  24.722 -0.03 +0.01    -0.303    56.479
ATOM     13  H   UNL d   1      18.489  51.574  24.892 +0.02 -0.01    +0.222    56.479
ATOM     14  O   UNL d   1      19.800  48.663  28.479 -0.01 +0.02    -0.278    56.479
ATOM     15  P   UNL d   1      19.438  47.406  29.402 -0.00 -0.02    +0.473    56.479
ATOM     16  O   UNL d   1      18.332  47.596  30.392 -0.01 +0.01    -0.228    56.479
ATOM     17  O   UNL d   1      19.142  46.235  28.363 -0.05 +0.02    -0.303    56.479
ATOM     18  H   UNL d   1      19.949  45.719  28.176 +0.05 -0.02    +0.222    56.479
ATOM     19  O   UNL d   1      20.833  46.947  30.012 -0.00 +0.02    -0.303    56.479
ATOM     20  H   UNL d   1      21.395  46.515  29.343 +0.03 -0.02    +0.222    56.479
ATOM     21  O   UNL d   1      19.970  51.928  25.691 -0.03 +0.01    -0.278    56.479
ATOM     22  P   UNL d   1      19.437  53.298  26.311 +0.00 -0.01    +0.473    56.479
ATOM     23  O   UNL d   1      20.426  54.380  26.584 -0.00 -0.00    -0.228    56.479
ATOM     24  O   UNL d   1      18.282  53.690  25.289 -0.00 +0.01    -0.303    56.479
ATOM     25  H   UNL d   1      17.626  52.948  25.265 +0.01 -0.01    +0.222    56.479
ATOM     26  O   UNL d   1      18.598  52.778  27.575 -0.00 +0.01    -0.303    56.479
ATOM     27  H   UNL d   1      18.383  51.831  27.450 +0.01 -0.01    +0.222    56.479
ATOM     28  O   UNL d   1      21.584  46.972  27.478 -0.09 +0.05    -0.278    56.479
ATOM     29  P   UNL d   1      22.146  45.601  26.894 -0.20 -0.13    +0.473    56.479
ATOM     30  O   UNL d   1      21.434  44.375  27.339 -0.16 +0.03    -0.228    56.479
ATOM     31  O   UNL d   1      22.114  45.931  25.328 -0.85 +0.14    -0.303    56.479
ATOM     32  H   UNL d   1      22.679  46.720  25.162 -0.10 -0.22    +0.222    56.479
ATOM     33  O   UNL d   1      23.696  45.700  27.242 -0.13 +0.12    -0.303    56.479
ATOM     34  H   UNL d   1      24.050  46.554  26.894 +0.09 -0.12    +0.222    56.479
ATOM     35  O   UNL d   1      22.666  51.408  26.687 -0.03 +0.01    -0.278    56.479
ATOM     36  P   UNL d   1      23.552  52.317  25.721 -0.06 +0.08    +0.473    56.479
ATOM     37  O   UNL d   1      23.967  51.678  24.434 -0.19 -0.07    -0.228    56.479
ATOM     38  O   UNL d   1      22.629  53.603  25.546 -0.01 -0.03    -0.303    56.479
ATOM     39  H   UNL d   1      21.687  53.331  25.596 +0.02 +0.01    +0.222    56.479
ATOM     40  O   UNL d   1      24.714  52.809  26.689 -0.05 -0.09    -0.303    56.479
ATOM     41  H   UNL d   1      25.138  52.058  27.160 +0.02 +0.07    +0.222    56.479
ATOM     42  O   UNL d   1      23.339  48.670  25.953 -0.16 +0.22    -0.278    56.479
ATOM     43  P   UNL d   1      24.752  48.540  26.680 -0.13 -0.20    +0.473    56.479
ATOM     44  O   UNL d   1      25.762  47.636  26.062 -0.32 +0.14    -0.228    56.479
ATOM     45  O   UNL d   1      25.223  50.055  26.801 -0.14 -0.03    -0.303    56.479
ATOM     46  H   UNL d   1      24.686  50.643  26.233 +0.02 +0.03    +0.222    56.479
ATOM     47  O   UNL d   1      24.355  48.200  28.195 -0.04 +0.05    -0.303    56.479
ATOM     48  H   UNL d   1      23.541  47.655  28.201 +0.06 -0.05    +0.222    56.479
TER
ENDMDL
MODEL       23
USER    Run = 23
USER    Cluster Rank = 48
USER    Number of conformations in this cluster = 1
USER  
USER    RMSD from reference structure       = 15.018 A
USER  
USER    Estimated Free Energy of Binding    =   +4.07 kcal/mol  [=(1)+(2)+(3)-(4)]
USER    
USER    (1) Final Intermolecular Energy     =   -3.09 kcal/mol
USER        vdW + Hbond + desolv Energy     =   -2.86 kcal/mol
USER        Electrostatic Energy            =   -0.23 kcal/mol
USER    (2) Final Total Internal Energy     =  -13.95 kcal/mol
USER    (3) Torsional Free Energy           =   +7.16 kcal/mol
USER    (4) Unbound System's Energy  [=(2)] =  -13.95 kcal/mol
USER    
USER    
USER  
USER    DPF = D:/Protein_go_brrr/autodock/final/6BB5/IHP/dock.dpf
USER    NEWDPF move	IHP_ideal_opt.pdbqt
USER    NEWDPF about	0.035000 0.082000 -0.065000
USER    NEWDPF tran0	0.426066 14.230544 10.523104
USER    NEWDPF axisangle0	-0.853380 0.488859 -0.180997 116.421141
USER    NEWDPF quaternion0	-0.725364 0.415525 -0.153846 0.526799
USER    NEWDPF dihe0	171.26 5.86 -173.77 -27.35 61.87 -175.25 -74.73 168.67 166.21 127.64 107.63 -109.28 25.50 78.33 133.96 12.54 47.03 97.46 1.89 -46.51 -21.03 -5.48 -180.00 10.10 
USER  
USER                              x       y       z    vdW   Elec        q     RMS 
ATOM      1  C   UNL d   1       1.697  13.061  10.472 -0.02 -0.02    +0.194    15.018
ATOM      2  C   UNL d   1       1.633  14.020   9.282 -0.06 -0.01    +0.194    15.018
ATOM      3  C   UNL d   1       0.196  14.228   8.798 -0.03 -0.01    +0.194    15.018
ATOM      4  C   UNL d   1      -0.763  14.630   9.915 -0.02 -0.01    +0.194    15.018
ATOM      5  C   UNL d   1      -0.653  13.769  11.167 -0.00 -0.01    +0.194    15.018
ATOM      6  C   UNL d   1       0.787  13.511  11.616 -0.01 -0.02    +0.194    15.018
ATOM      7  O   UNL d   1       3.037  13.056  10.969 -0.07 +0.06    -0.278    15.018
ATOM      8  P   UNL d   1       3.834  11.672  10.990 -0.05 -0.12    +0.473    15.018
ATOM      9  O   UNL d   1       4.360  11.226   9.671 -0.08 +0.03    -0.228    15.018
ATOM     10  O   UNL d   1       4.978  11.901  12.078 -0.04 +0.25    -0.303    15.018
ATOM     11  H   UNL d   1       4.783  12.705  12.593 -0.46 -0.30    +0.222    15.018
ATOM     12  O   UNL d   1       2.868  10.651  11.733 -0.01 +0.04    -0.303    15.018
ATOM     13  H   UNL d   1       2.394  11.054  12.494 +0.01 -0.03    +0.222    15.018
ATOM     14  O   UNL d   1       2.169  15.290   9.676 -0.13 +0.02    -0.278    15.018
ATOM     15  P   UNL d   1       3.759  15.457   9.576 -0.23 -0.01    +0.473    15.018
ATOM     16  O   UNL d   1       4.263  16.715   8.941 -0.41 -0.04    -0.228    15.018
ATOM     17  O   UNL d   1       4.263  15.277  11.076 -0.31 +0.09    -0.303    15.018
ATOM     18  H   UNL d   1       4.467  14.342  11.268 -0.03 -0.13    +0.222    15.018
ATOM     19  O   UNL d   1       4.259  14.104   8.906 -0.25 +0.00    -0.303    15.018
ATOM     20  H   UNL d   1       4.419  13.410   9.572 +0.07 -0.03    +0.222    15.018
ATOM     21  O   UNL d   1       0.740  12.441  12.558 -0.00 +0.02    -0.278    15.018
ATOM     22  P   UNL d   1       1.339  12.648  14.022 +0.01 -0.05    +0.473    15.018
ATOM     23  O   UNL d   1       0.963  11.668  15.082 -0.00 +0.01    -0.228    15.018
ATOM     24  O   UNL d   1       2.900  12.743  13.724 -0.03 +0.09    -0.303    15.018
ATOM     25  H   UNL d   1       3.040  12.580  12.756 +0.02 -0.07    +0.222    15.018
ATOM     26  O   UNL d   1       0.964  14.179  14.314 -0.00 +0.03    -0.303    15.018
ATOM     27  H   UNL d   1       0.347  14.496  13.623 +0.02 -0.02    +0.222    15.018
ATOM     28  O   UNL d   1       0.203  15.325   7.893 -0.06 +0.01    -0.278    15.018
ATOM     29  P   UNL d   1       0.073  15.077   6.326 -0.03 +0.02    +0.473    15.018
ATOM     30  O   UNL d   1       0.260  13.671   5.882 -0.06 -0.01    -0.228    15.018
ATOM     31  O   UNL d   1      -1.359  15.739   6.056 -0.01 +0.01    -0.303    15.018
ATOM     32  H   UNL d   1      -1.866  15.745   6.901 +0.02 -0.01    +0.222    15.018
ATOM     33  O   UNL d   1       1.078  16.159   5.731 -0.60 -0.05    -0.303    15.018
ATOM     34  H   UNL d   1       0.628  16.647   4.999 +0.06 +0.01    +0.222    15.018
ATOM     35  O   UNL d   1      -1.289  14.512  12.205 -0.00 +0.02    -0.278    15.018
ATOM     36  P   UNL d   1      -0.916  16.045  12.442 -0.01 -0.05    +0.473    15.018
ATOM     37  O   UNL d   1      -1.758  17.035  11.702 -0.05 +0.02    -0.228    15.018
ATOM     38  O   UNL d   1      -1.008  16.162  14.027 -0.01 +0.03    -0.303    15.018
ATOM     39  H   UNL d   1      -0.111  16.054  14.410 +0.02 -0.02    +0.222    15.018
ATOM     40  O   UNL d   1       0.647  16.064  12.147 -0.06 +0.05    -0.303    15.018
ATOM     41  H   UNL d   1       0.835  16.182  11.189 +0.06 -0.03    +0.222    15.018
ATOM     42  O   UNL d   1      -2.090  14.460   9.404 -0.00 +0.01    -0.278    15.018
ATOM     43  P   UNL d   1      -2.894  15.745   8.905 -0.00 -0.02    +0.473    15.018
ATOM     44  O   UNL d   1      -3.772  15.585   7.713 -0.00 +0.01    -0.228    15.018
ATOM     45  O   UNL d   1      -3.660  16.209  10.220 -0.00 +0.01    -0.303    15.018
ATOM     46  H   UNL d   1      -3.126  16.044  11.023 +0.01 -0.01    +0.222    15.018
ATOM     47  O   UNL d   1      -1.754  16.865   8.780 -0.07 +0.02    -0.303    15.018
ATOM     48  H   UNL d   1      -1.166  16.644   8.028 +0.03 -0.02    +0.222    15.018
TER
ENDMDL
MODEL       78
USER    Run = 78
USER    Cluster Rank = 49
USER    Number of conformations in this cluster = 1
USER  
USER    RMSD from reference structure       = 26.163 A
USER  
USER    Estimated Free Energy of Binding    =   +4.09 kcal/mol  [=(1)+(2)+(3)-(4)]
USER    
USER    (1) Final Intermolecular Energy     =   -3.07 kcal/mol
USER        vdW + Hbond + desolv Energy     =   -3.08 kcal/mol
USER        Electrostatic Energy            =   +0.01 kcal/mol
USER    (2) Final Total Internal Energy     =  -14.92 kcal/mol
USER    (3) Torsional Free Energy           =   +7.16 kcal/mol
USER    (4) Unbound System's Energy  [=(2)] =  -14.92 kcal/mol
USER    
USER    
USER  
USER    DPF = D:/Protein_go_brrr/autodock/final/6BB5/IHP/dock.dpf
USER    NEWDPF move	IHP_ideal_opt.pdbqt
USER    NEWDPF about	0.035000 0.082000 -0.065000
USER    NEWDPF tran0	20.588909 20.897097 -2.591906
USER    NEWDPF axisangle0	-0.566386 0.418997 -0.709682 -139.225706
USER    NEWDPF quaternion0	-0.530908 0.392751 -0.665227 -0.348362
USER    NEWDPF dihe0	-174.20 17.09 108.02 99.37 50.54 15.26 -85.25 -8.62 135.00 21.84 121.48 -112.17 -125.62 96.04 130.75 2.53 90.17 106.91 44.43 -5.34 155.36 -14.18 -36.99 160.94 
USER  
USER                              x       y       z    vdW   Elec        q     RMS 
ATOM      1  C   UNL d   1      21.080  20.072  -1.156 -0.11 -0.03    +0.194    26.163
ATOM      2  C   UNL d   1      20.923  21.588  -1.026 -0.11 -0.03    +0.194    26.163
ATOM      3  C   UNL d   1      21.517  22.324  -2.228 -0.09 -0.03    +0.194    26.163
ATOM      4  C   UNL d   1      21.001  21.803  -3.567 -0.10 -0.04    +0.194    26.163
ATOM      5  C   UNL d   1      21.033  20.286  -3.697 -0.10 -0.04    +0.194    26.163
ATOM      6  C   UNL d   1      20.495  19.548  -2.469 +0.04 -0.05    +0.194    26.163
ATOM      7  O   UNL d   1      20.354  19.455  -0.090 -0.13 +0.05    -0.278    26.163
ATOM      8  P   UNL d   1      21.012  19.436   1.365 -0.04 -0.04    +0.473    26.163
ATOM      9  O   UNL d   1      22.136  18.476   1.538 -0.01 +0.01    -0.228    26.163
ATOM     10  O   UNL d   1      21.438  20.953   1.616 -0.03 +0.02    -0.303    26.163
ATOM     11  H   UNL d   1      20.850  21.546   1.112 +0.06 -0.02    +0.222    26.163
ATOM     12  O   UNL d   1      19.792  19.264   2.368 -0.10 +0.03    -0.303    26.163
ATOM     13  H   UNL d   1      18.950  19.632   2.017 -0.20 -0.07    +0.222    26.163
ATOM     14  O   UNL d   1      19.528  21.907  -0.938 -0.08 +0.04    -0.278    26.163
ATOM     15  P   UNL d   1      19.075  22.795   0.314 -0.21 -0.04    +0.473    26.163
ATOM     16  O   UNL d   1      17.872  23.664   0.121 -0.40 +0.03    -0.228    26.163
ATOM     17  O   UNL d   1      18.890  21.738   1.492 -0.22 +0.02    -0.303    26.163
ATOM     18  H   UNL d   1      19.268  20.871   1.250 -0.17 -0.04    +0.222    26.163
ATOM     19  O   UNL d   1      20.400  23.549   0.767 -0.08 +0.03    -0.303    26.163
ATOM     20  H   UNL d   1      20.927  23.842   0.001 +0.10 -0.04    +0.222    26.163
ATOM     21  O   UNL d   1      20.902  18.188  -2.595 -0.09 +0.05    -0.278    26.163
ATOM     22  P   UNL d   1      22.440  17.840  -2.840 -0.00 -0.06    +0.473    26.163
ATOM     23  O   UNL d   1      22.905  16.455  -2.540 -0.00 +0.02    -0.228    26.163
ATOM     24  O   UNL d   1      22.641  18.300  -4.350 -0.01 +0.04    -0.303    26.163
ATOM     25  H   UNL d   1      21.745  18.415  -4.759 +0.04 -0.04    +0.222    26.163
ATOM     26  O   UNL d   1      23.172  19.017  -2.034 -0.00 +0.03    -0.303    26.163
ATOM     27  H   UNL d   1      24.084  19.119  -2.373 +0.01 -0.02    +0.222    26.163
ATOM     28  O   UNL d   1      21.085  23.677  -2.158 -0.12 +0.05    -0.278    26.163
ATOM     29  P   UNL d   1      22.023  24.789  -1.509 -0.09 -0.15    +0.473    26.163
ATOM     30  O   UNL d   1      23.040  24.288  -0.549 -0.05 +0.06    -0.228    26.163
ATOM     31  O   UNL d   1      22.566  25.504  -2.834 -0.13 +0.13    -0.303    26.163
ATOM     32  H   UNL d   1      22.653  24.826  -3.543 +0.06 -0.07    +0.222    26.163
ATOM     33  O   UNL d   1      20.962  25.838  -0.953 -0.27 +0.11    -0.303    26.163
ATOM     34  H   UNL d   1      20.287  25.357  -0.415 +0.14 -0.06    +0.222    26.163
ATOM     35  O   UNL d   1      20.168  19.972  -4.787 -0.18 +0.08    -0.278    26.163
ATOM     36  P   UNL d   1      20.757  19.808  -6.260 -0.14 -0.14    +0.473    26.163
ATOM     37  O   UNL d   1      20.264  18.619  -7.022 -0.17 +0.10    -0.228    26.163
ATOM     38  O   UNL d   1      20.383  21.208  -6.919 -0.18 +0.09    -0.303    26.163
ATOM     39  H   UNL d   1      20.874  21.922  -6.457 +0.07 -0.05    +0.222    26.163
ATOM     40  O   UNL d   1      22.325  19.907  -6.012 -0.02 +0.06    -0.303    26.163
ATOM     41  H   UNL d   1      22.531  20.339  -5.153 +0.03 -0.04    +0.222    26.163
ATOM     42  O   UNL d   1      21.867  22.330  -4.578 -0.05 +0.05    -0.278    26.163
ATOM     43  P   UNL d   1      23.445  22.178  -4.399 +0.01 -0.07    +0.473    26.163
ATOM     44  O   UNL d   1      24.276  22.136  -5.634 -0.00 +0.03    -0.228    26.163
ATOM     45  O   UNL d   1      23.801  23.377  -3.415 -0.00 +0.06    -0.303    26.163
ATOM     46  H   UNL d   1      23.199  23.399  -2.644 +0.04 -0.04    +0.222    26.163
ATOM     47  O   UNL d   1      23.582  20.909  -3.429 -0.00 +0.04    -0.303    26.163
ATOM     48  H   UNL d   1      23.274  20.108  -3.901 +0.02 -0.03    +0.222    26.163
TER
ENDMDL
MODEL       52
USER    Run = 52
USER    Cluster Rank = 50
USER    Number of conformations in this cluster = 1
USER  
USER    RMSD from reference structure       = 51.597 A
USER  
USER    Estimated Free Energy of Binding    =   +4.10 kcal/mol  [=(1)+(2)+(3)-(4)]
USER    
USER    (1) Final Intermolecular Energy     =   -3.06 kcal/mol
USER        vdW + Hbond + desolv Energy     =   -2.91 kcal/mol
USER        Electrostatic Energy            =   -0.15 kcal/mol
USER    (2) Final Total Internal Energy     =  -15.30 kcal/mol
USER    (3) Torsional Free Energy           =   +7.16 kcal/mol
USER    (4) Unbound System's Energy  [=(2)] =  -15.30 kcal/mol
USER    
USER    
USER  
USER    DPF = D:/Protein_go_brrr/autodock/final/6BB5/IHP/dock.dpf
USER    NEWDPF move	IHP_ideal_opt.pdbqt
USER    NEWDPF about	0.035000 0.082000 -0.065000
USER    NEWDPF tran0	37.314543 41.769904 0.587355
USER    NEWDPF axisangle0	0.610431 0.649844 -0.452854 -47.585010
USER    NEWDPF quaternion0	0.246263 0.262164 -0.182693 -0.915012
USER    NEWDPF dihe0	-158.43 26.46 125.31 122.76 144.96 132.86 -93.10 -60.19 52.18 94.33 96.91 152.53 -136.51 90.25 -153.25 -138.98 -38.58 58.43 51.29 1.53 12.49 0.93 -31.83 -5.55 
USER  
USER                              x       y       z    vdW   Elec        q     RMS 
ATOM      1  C   UNL d   1      38.208  40.360   0.145 -0.05 +0.01    +0.194    51.597
ATOM      2  C   UNL d   1      36.699  40.164   0.297 -0.08 +0.01    +0.194    51.597
ATOM      3  C   UNL d   1      36.157  40.880   1.536 -0.14 +0.01    +0.194    51.597
ATOM      4  C   UNL d   1      36.559  42.352   1.604 -0.08 +0.03    +0.194    51.597
ATOM      5  C   UNL d   1      38.038  42.604   1.344 -0.04 +0.03    +0.194    51.597
ATOM      6  C   UNL d   1      38.595  41.839   0.141 -0.03 +0.02    +0.194    51.597
ATOM      7  O   UNL d   1      38.604  39.813  -1.115 -0.04 -0.02    -0.278    51.597
ATOM      8  P   UNL d   1      38.597  38.225  -1.290 -0.02 +0.02    +0.473    51.597
ATOM      9  O   UNL d   1      39.829  37.533  -0.823 -0.07 -0.01    -0.228    51.597
ATOM     10  O   UNL d   1      37.282  37.757  -0.516 -0.03 +0.00    -0.303    51.597
ATOM     11  H   UNL d   1      36.543  38.353  -0.738 +0.03 -0.00    +0.222    51.597
ATOM     12  O   UNL d   1      38.195  37.977  -2.807 -0.01 -0.01    -0.303    51.597
ATOM     13  H   UNL d   1      37.763  38.757  -3.223 +0.01 +0.01    +0.222    51.597
ATOM     14  O   UNL d   1      36.041  40.694  -0.861 -0.01 -0.02    -0.278    51.597
ATOM     15  P   UNL d   1      34.918  39.769  -1.531 -0.00 +0.02    +0.473    51.597
ATOM     16  O   UNL d   1      33.744  40.471  -2.138 -0.00 -0.02    -0.228    51.597
ATOM     17  O   UNL d   1      35.722  38.887  -2.586 -0.00 -0.01    -0.303    51.597
ATOM     18  H   UNL d   1      36.642  38.741  -2.293 +0.01 +0.01    +0.222    51.597
ATOM     19  O   UNL d   1      34.571  38.693  -0.413 -0.03 -0.00    -0.303    51.597
ATOM     20  H   UNL d   1      34.191  39.110   0.383 +0.04 +0.00    +0.222    51.597
ATOM     21  O   UNL d   1      40.016  41.901   0.235 -0.02 -0.02    -0.278    51.597
ATOM     22  P   UNL d   1      40.804  43.105  -0.454 -0.00 +0.04    +0.473    51.597
ATOM     23  O   UNL d   1      41.860  42.776  -1.454 -0.00 -0.01    -0.228    51.597
ATOM     24  O   UNL d   1      39.610  43.997  -1.013 +0.00 -0.03    -0.303    51.597
ATOM     25  H   UNL d   1      39.237  44.520  -0.258 +0.01 +0.03    +0.222    51.597
ATOM     26  O   UNL d   1      41.282  43.952   0.820 -0.01 -0.03    -0.303    51.597
ATOM     27  H   UNL d   1      40.555  43.986   1.475 +0.03 +0.03    +0.222    51.597
ATOM     28  O   UNL d   1      34.738  40.881   1.444 -0.07 -0.02    -0.278    51.597
ATOM     29  P   UNL d   1      33.867  40.015   2.458 -0.17 +0.03    +0.473    51.597
ATOM     30  O   UNL d   1      32.448  39.808   2.068 -0.10 -0.02    -0.228    51.597
ATOM     31  O   UNL d   1      34.786  38.710   2.572 -0.02 +0.04    -0.303    51.597
ATOM     32  H   UNL d   1      35.125  38.485   1.675 -0.30 -0.05    +0.222    51.597
ATOM     33  O   UNL d   1      34.132  40.754   3.843 -0.25 -0.03    -0.303    51.597
ATOM     34  H   UNL d   1      34.756  41.506   3.691 -0.28 +0.00    +0.222    51.597
ATOM     35  O   UNL d   1      38.147  43.994   1.044 -0.01 -0.07    -0.278    51.597
ATOM     36  P   UNL d   1      38.603  45.026   2.172 -0.01 +0.17    +0.473    51.597
ATOM     37  O   UNL d   1      39.022  44.418   3.472 -0.08 -0.07    -0.228    51.597
ATOM     38  O   UNL d   1      39.754  45.836   1.427 -0.00 -0.07    -0.303    51.597
ATOM     39  H   UNL d   1      40.055  45.322   0.647 +0.01 +0.03    +0.222    51.597
ATOM     40  O   UNL d   1      37.382  46.046   2.212 -0.06 -0.28    -0.303    51.597
ATOM     41  H   UNL d   1      36.524  45.582   2.329 +0.03 +0.27    +0.222    51.597
ATOM     42  O   UNL d   1      36.284  42.795   2.937 -0.10 -0.05    -0.278    51.597
ATOM     43  P   UNL d   1      35.193  43.937   3.161 -0.07 +0.30    +0.473    51.597
ATOM     44  O   UNL d   1      33.862  43.521   3.686 -0.26 -0.10    -0.228    51.597
ATOM     45  O   UNL d   1      35.962  44.978   4.087 -0.64 -0.45    -0.303    51.597
ATOM     46  H   UNL d   1      36.931  44.900   3.985 +0.06 +0.21    +0.222    51.597
ATOM     47  O   UNL d   1      35.172  44.705   1.754 -0.10 -0.23    -0.303    51.597
ATOM     48  H   UNL d   1      36.052  44.627   1.331 +0.04 +0.12    +0.222    51.597
TER
ENDMDL
MODEL        6
USER    Run = 6
USER    Cluster Rank = 51
USER    Number of conformations in this cluster = 1
USER  
USER    RMSD from reference structure       = 43.325 A
USER  
USER    Estimated Free Energy of Binding    =   +4.14 kcal/mol  [=(1)+(2)+(3)-(4)]
USER    
USER    (1) Final Intermolecular Energy     =   -3.02 kcal/mol
USER        vdW + Hbond + desolv Energy     =   -2.70 kcal/mol
USER        Electrostatic Energy            =   -0.32 kcal/mol
USER    (2) Final Total Internal Energy     =  -14.17 kcal/mol
USER    (3) Torsional Free Energy           =   +7.16 kcal/mol
USER    (4) Unbound System's Energy  [=(2)] =  -14.17 kcal/mol
USER    
USER    
USER  
USER    DPF = D:/Protein_go_brrr/autodock/final/6BB5/IHP/dock.dpf
USER    NEWDPF move	IHP_ideal_opt.pdbqt
USER    NEWDPF about	0.035000 0.082000 -0.065000
USER    NEWDPF tran0	35.864513 31.510218 -0.204801
USER    NEWDPF axisangle0	0.438407 0.869546 0.227351 151.084992
USER    NEWDPF quaternion0	0.424524 0.842010 0.220152 0.249662
USER    NEWDPF dihe0	88.53 33.77 163.79 -56.80 95.76 172.17 -110.39 -19.32 54.48 -16.20 158.86 153.33 175.42 -147.09 28.45 35.72 160.90 -137.09 28.08 -31.90 167.46 -52.71 -5.07 162.04 
USER  
USER                              x       y       z    vdW   Elec        q     RMS 
ATOM      1  C   UNL d   1      34.302  32.247  -0.200 -0.03 +0.03    +0.194    43.325
ATOM      2  C   UNL d   1      34.368  30.841  -0.799 -0.03 +0.03    +0.194    43.325
ATOM      3  C   UNL d   1      35.590  30.666  -1.702 -0.02 +0.01    +0.194    43.325
ATOM      4  C   UNL d   1      36.899  31.068  -1.027 -0.06 +0.00    +0.194    43.325
ATOM      5  C   UNL d   1      36.844  32.415  -0.318 -0.08 -0.00    +0.194    43.325
ATOM      6  C   UNL d   1      35.591  32.614   0.537 -0.09 +0.01    +0.194    43.325
ATOM      7  O   UNL d   1      33.241  32.276   0.757 -0.05 -0.10    -0.278    43.325
ATOM      8  P   UNL d   1      31.802  32.782   0.281 -0.01 +0.31    +0.473    43.325
ATOM      9  O   UNL d   1      31.151  33.769   1.184 -0.09 -0.17    -0.228    43.325
ATOM     10  O   UNL d   1      32.058  33.347  -1.189 -0.01 -0.09    -0.303    43.325
ATOM     11  H   UNL d   1      32.590  34.163  -1.137 +0.01 +0.04    +0.222    43.325
ATOM     12  O   UNL d   1      30.975  31.457  -0.012 -0.27 -0.38    -0.303    43.325
ATOM     13  H   UNL d   1      31.534  30.648  -0.023 +0.03 +0.19    +0.222    43.325
ATOM     14  O   UNL d   1      34.446  29.884   0.265 -0.08 -0.04    -0.278    43.325
ATOM     15  P   UNL d   1      33.082  29.148   0.667 -0.12 +0.14    +0.473    43.325
ATOM     16  O   UNL d   1      32.268  29.785   1.750 -0.21 -0.16    -0.228    43.325
ATOM     17  O   UNL d   1      32.289  29.023  -0.709 -0.03 -0.09    -0.303    43.325
ATOM     18  H   UNL d   1      32.733  28.401  -1.316 +0.03 +0.03    +0.222    43.325
ATOM     19  O   UNL d   1      33.508  27.638   0.928 -0.19 -0.02    -0.303    43.325
ATOM     20  H   UNL d   1      33.084  27.029   0.295 +0.06 +0.01    +0.222    43.325
ATOM     21  O   UNL d   1      35.517  34.005   0.842 -0.10 -0.00    -0.278    43.325
ATOM     22  P   UNL d   1      35.287  35.062  -0.331 -0.04 +0.00    +0.473    43.325
ATOM     23  O   UNL d   1      34.059  34.930  -1.168 -0.01 -0.02    -0.228    43.325
ATOM     24  O   UNL d   1      35.418  36.444   0.447 -0.05 +0.05    -0.303    43.325
ATOM     25  H   UNL d   1      36.037  36.311   1.210 -0.49 -0.12    +0.222    43.325
ATOM     26  O   UNL d   1      36.683  34.988  -1.114 -0.04 +0.00    -0.303    43.325
ATOM     27  H   UNL d   1      37.278  34.362  -0.653 +0.05 -0.00    +0.222    43.325
ATOM     28  O   UNL d   1      35.721  29.278  -1.983 -0.02 -0.01    -0.278    43.325
ATOM     29  P   UNL d   1      34.527  28.482  -2.674 +0.00 +0.02    +0.473    43.325
ATOM     30  O   UNL d   1      33.414  29.318  -3.191 -0.00 -0.02    -0.228    43.325
ATOM     31  O   UNL d   1      35.349  27.623  -3.746 -0.00 -0.00    -0.303    43.325
ATOM     32  H   UNL d   1      35.840  28.243  -4.334 +0.00 +0.00    +0.222    43.325
ATOM     33  O   UNL d   1      34.161  27.400  -1.565 -0.02 -0.01    -0.303    43.325
ATOM     34  H   UNL d   1      34.208  27.826  -0.674 +0.05 +0.01    +0.222    43.325
ATOM     35  O   UNL d   1      37.963  32.433   0.566 -0.17 +0.04    -0.278    43.325
ATOM     36  P   UNL d   1      39.019  33.627   0.503 -0.21 -0.07    +0.473    43.325
ATOM     37  O   UNL d   1      40.392  33.300   0.996 -0.27 +0.05    -0.228    43.325
ATOM     38  O   UNL d   1      38.955  34.038  -1.034 -0.06 +0.01    -0.303    43.325
ATOM     39  H   UNL d   1      38.513  33.323  -1.540 +0.05 -0.00    +0.222    43.325
ATOM     40  O   UNL d   1      38.247  34.803   1.246 -0.18 +0.02    -0.303    43.325
ATOM     41  H   UNL d   1      37.389  35.008   0.810 +0.01 -0.02    +0.222    43.325
ATOM     42  O   UNL d   1      37.883  31.177  -2.062 -0.02 +0.00    -0.278    43.325
ATOM     43  P   UNL d   1      37.554  32.059  -3.349 +0.00 +0.01    +0.473    43.325
ATOM     44  O   UNL d   1      36.929  31.371  -4.513 -0.00 -0.00    -0.228    43.325
ATOM     45  O   UNL d   1      36.678  33.243  -2.746 -0.00 -0.01    -0.303    43.325
ATOM     46  H   UNL d   1      37.240  33.969  -2.409 +0.02 +0.00    +0.222    43.325
ATOM     47  O   UNL d   1      38.942  32.802  -3.649 -0.00 -0.00    -0.303    43.325
ATOM     48  H   UNL d   1      39.443  32.901  -2.812 +0.03 -0.00    +0.222    43.325
TER
ENDMDL
MODEL       77
USER    Run = 77
USER    Cluster Rank = 52
USER    Number of conformations in this cluster = 1
USER  
USER    RMSD from reference structure       = 27.725 A
USER  
USER    Estimated Free Energy of Binding    =   +4.17 kcal/mol  [=(1)+(2)+(3)-(4)]
USER    
USER    (1) Final Intermolecular Energy     =   -2.99 kcal/mol
USER        vdW + Hbond + desolv Energy     =   -2.98 kcal/mol
USER        Electrostatic Energy            =   -0.01 kcal/mol
USER    (2) Final Total Internal Energy     =  -14.07 kcal/mol
USER    (3) Torsional Free Energy           =   +7.16 kcal/mol
USER    (4) Unbound System's Energy  [=(2)] =  -14.07 kcal/mol
USER    
USER    
USER  
USER    DPF = D:/Protein_go_brrr/autodock/final/6BB5/IHP/dock.dpf
USER    NEWDPF move	IHP_ideal_opt.pdbqt
USER    NEWDPF about	0.035000 0.082000 -0.065000
USER    NEWDPF tran0	2.822242 22.983819 19.962831
USER    NEWDPF axisangle0	0.588989 -0.228130 -0.775273 -173.619842
USER    NEWDPF quaternion0	0.588077 -0.227777 -0.774072 -0.055649
USER    NEWDPF dihe0	76.55 112.10 -165.91 42.36 65.28 -79.11 -42.08 42.10 12.93 20.83 18.36 -150.35 -80.11 169.81 74.01 176.89 -140.99 -25.70 -147.44 -18.62 34.37 -17.52 -39.61 169.51 
USER  
USER                              x       y       z    vdW   Elec        q     RMS 
ATOM      1  C   UNL d   1       1.865  23.558  18.644 -0.05 -0.00    +0.194    27.725
ATOM      2  C   UNL d   1       2.733  24.609  19.337 -0.11 +0.00    +0.194    27.725
ATOM      3  C   UNL d   1       2.686  24.469  20.860 -0.12 +0.00    +0.194    27.725
ATOM      4  C   UNL d   1       2.995  23.055  21.344 -0.11 +0.01    +0.194    27.725
ATOM      5  C   UNL d   1       2.235  21.964  20.601 -0.05 +0.01    +0.194    27.725
ATOM      6  C   UNL d   1       2.231  22.138  19.080 -0.05 +0.00    +0.194    27.725
ATOM      7  O   UNL d   1       2.098  23.644  17.237 -0.06 +0.01    -0.278    27.725
ATOM      8  P   UNL d   1       3.263  22.754  16.604 -0.15 -0.02    +0.473    27.725
ATOM      9  O   UNL d   1       4.389  22.441  17.525 -0.15 -0.00    -0.228    27.725
ATOM     10  O   UNL d   1       2.509  21.453  16.069 -0.15 +0.02    -0.303    27.725
ATOM     11  H   UNL d   1       2.362  20.834  16.809 +0.05 -0.01    +0.222    27.725
ATOM     12  O   UNL d   1       3.657  23.489  15.251 -0.16 +0.04    -0.303    27.725
ATOM     13  H   UNL d   1       4.075  24.367  15.397 +0.12 -0.02    +0.222    27.725
ATOM     14  O   UNL d   1       4.091  24.451  18.907 -0.12 -0.03    -0.278    27.725
ATOM     15  P   UNL d   1       4.704  25.636  18.021 -0.21 +0.03    +0.473    27.725
ATOM     16  O   UNL d   1       5.476  25.235  16.803 -0.40 -0.01    -0.228    27.725
ATOM     17  O   UNL d   1       3.448  26.555  17.681 -0.15 +0.01    -0.303    27.725
ATOM     18  H   UNL d   1       3.398  27.320  18.285 +0.11 -0.01    +0.222    27.725
ATOM     19  O   UNL d   1       5.490  26.544  19.064 -0.30 -0.03    -0.303    27.725
ATOM     20  H   UNL d   1       5.214  26.363  19.981 -0.25 -0.01    +0.222    27.725
ATOM     21  O   UNL d   1       1.222  21.270  18.569 -0.01 +0.00    -0.278    27.725
ATOM     22  P   UNL d   1       1.419  19.690  18.657 +0.00 -0.00    +0.473    27.725
ATOM     23  O   UNL d   1       0.649  18.940  19.692 -0.00 -0.00    -0.228    27.725
ATOM     24  O   UNL d   1       1.131  19.242  17.157 -0.01 +0.01    -0.303    27.725
ATOM     25  H   UNL d   1       0.908  20.052  16.631 +0.03 -0.02    +0.222    27.725
ATOM     26  O   UNL d   1       3.015  19.564  18.739 -0.02 -0.01    -0.303    27.725
ATOM     27  H   UNL d   1       3.271  19.317  19.651 +0.04 +0.01    +0.222    27.725
ATOM     28  O   UNL d   1       3.718  25.286  21.398 -0.19 +0.00    -0.278    27.725
ATOM     29  P   UNL d   1       3.409  26.785  21.841 -0.07 -0.03    +0.473    27.725
ATOM     30  O   UNL d   1       4.255  27.315  22.941 -0.27 +0.03    -0.228    27.725
ATOM     31  O   UNL d   1       3.514  27.522  20.424 -0.19 +0.01    -0.303    27.725
ATOM     32  H   UNL d   1       3.575  26.838  19.718 +0.09 -0.01    +0.222    27.725
ATOM     33  O   UNL d   1       1.838  26.740  22.099 -0.05 +0.01    -0.303    27.725
ATOM     34  H   UNL d   1       1.674  26.679  23.072 +0.05 -0.00    +0.222    27.725
ATOM     35  O   UNL d   1       2.927  20.749  20.882 -0.04 -0.02    -0.278    27.725
ATOM     36  P   UNL d   1       2.505  19.854  22.133 -0.00 +0.02    +0.473    27.725
ATOM     37  O   UNL d   1       3.311  20.061  23.376 -0.03 -0.01    -0.228    27.725
ATOM     38  O   UNL d   1       0.962  20.214  22.286 -0.00 -0.00    -0.303    27.725
ATOM     39  H   UNL d   1       0.869  21.184  22.405 +0.01 +0.00    +0.222    27.725
ATOM     40  O   UNL d   1       2.497  18.389  21.514 -0.00 -0.01    -0.303    27.725
ATOM     41  H   UNL d   1       2.412  18.407  20.535 +0.01 +0.01    +0.222    27.725
ATOM     42  O   UNL d   1       2.592  22.988  22.716 -0.05 -0.01    -0.278    27.725
ATOM     43  P   UNL d   1       1.072  23.298  23.089 +0.00 -0.00    +0.473    27.725
ATOM     44  O   UNL d   1       0.062  23.192  22.000 -0.00 +0.00    -0.228    27.725
ATOM     45  O   UNL d   1       0.809  22.322  24.318 -0.00 +0.00    -0.303    27.725
ATOM     46  H   UNL d   1       1.020  21.394  24.090 +0.01 +0.00    +0.222    27.725
ATOM     47  O   UNL d   1       1.157  24.723  23.818 -0.00 +0.00    -0.303    27.725
ATOM     48  H   UNL d   1       1.924  25.220  23.466 +0.04 -0.00    +0.222    27.725
TER
ENDMDL
MODEL       12
USER    Run = 12
USER    Cluster Rank = 53
USER    Number of conformations in this cluster = 1
USER  
USER    RMSD from reference structure       = 40.830 A
USER  
USER    Estimated Free Energy of Binding    =   +4.22 kcal/mol  [=(1)+(2)+(3)-(4)]
USER    
USER    (1) Final Intermolecular Energy     =   -2.94 kcal/mol
USER        vdW + Hbond + desolv Energy     =   -2.75 kcal/mol
USER        Electrostatic Energy            =   -0.20 kcal/mol
USER    (2) Final Total Internal Energy     =  -14.98 kcal/mol
USER    (3) Torsional Free Energy           =   +7.16 kcal/mol
USER    (4) Unbound System's Energy  [=(2)] =  -14.98 kcal/mol
USER    
USER    
USER  
USER    DPF = D:/Protein_go_brrr/autodock/final/6BB5/IHP/dock.dpf
USER    NEWDPF move	IHP_ideal_opt.pdbqt
USER    NEWDPF about	0.035000 0.082000 -0.065000
USER    NEWDPF tran0	-1.937764 43.958907 6.574822
USER    NEWDPF axisangle0	-0.673778 0.678503 0.292671 71.863726
USER    NEWDPF quaternion0	-0.395388 0.398161 0.171746 0.809715
USER    NEWDPF dihe0	180.00 11.99 94.21 113.48 30.36 -153.01 -129.65 39.22 62.79 108.58 -166.04 104.72 -120.98 103.92 157.88 38.28 117.86 52.97 41.07 -7.96 -17.55 168.80 -0.79 -21.43 
USER  
USER                              x       y       z    vdW   Elec        q     RMS 
ATOM      1  C   UNL d   1      -1.741  42.260   6.815 -0.11 +0.11    +0.194    40.830
ATOM      2  C   UNL d   1      -2.202  42.680   5.419 -0.05 +0.08    +0.194    40.830
ATOM      3  C   UNL d   1      -3.278  43.766   5.481 -0.01 +0.05    +0.194    40.830
ATOM      4  C   UNL d   1      -2.877  44.962   6.341 -0.01 +0.05    +0.194    40.830
ATOM      5  C   UNL d   1      -2.303  44.584   7.700 -0.02 +0.06    +0.194    40.830
ATOM      6  C   UNL d   1      -1.272  43.455   7.645 -0.10 +0.10    +0.194    40.830
ATOM      7  O   UNL d   1      -0.625  41.378   6.670 -0.20 -0.18    -0.278    40.830
ATOM      8  P   UNL d   1      -0.910  39.840   6.343 -0.18 +0.31    +0.473    40.830
ATOM      9  O   UNL d   1      -1.530  39.064   7.451 +0.00 -0.21    -0.228    40.830
ATOM     10  O   UNL d   1      -1.810  39.885   5.027 -0.09 -0.18    -0.303    40.830
ATOM     11  H   UNL d   1      -1.673  40.733   4.566 +0.06 +0.14    +0.222    40.830
ATOM     12  O   UNL d   1       0.466  39.275   5.786 -0.36 -0.17    -0.303    40.830
ATOM     13  H   UNL d   1       0.981  39.943   5.279 -0.30 +0.11    +0.222    40.830
ATOM     14  O   UNL d   1      -1.079  43.192   4.690 -0.07 -0.13    -0.278    40.830
ATOM     15  P   UNL d   1      -0.750  42.484   3.292 -0.04 +0.35    +0.473    40.830
ATOM     16  O   UNL d   1       0.075  43.267   2.320 -0.12 -0.18    -0.228    40.830
ATOM     17  O   UNL d   1      -0.071  41.104   3.706 -0.16 -0.36    -0.303    40.830
ATOM     18  H   UNL d   1       0.007  41.027   4.677 +0.06 +0.18    +0.222    40.830
ATOM     19  O   UNL d   1      -2.164  41.994   2.753 -0.05 -0.18    -0.303    40.830
ATOM     20  H   UNL d   1      -2.811  42.724   2.723 +0.02 +0.09    +0.222    40.830
ATOM     21  O   UNL d   1      -1.095  42.993   8.982 -0.21 -0.23    -0.278    40.830
ATOM     22  P   UNL d   1       0.346  43.070   9.663 -0.17 +0.32    +0.473    40.830
ATOM     23  O   UNL d   1       0.535  42.414  10.989 -0.41 -0.15    -0.228    40.830
ATOM     24  O   UNL d   1       1.284  42.514   8.503 -0.31 -0.16    -0.303    40.830
ATOM     25  H   UNL d   1       0.790  41.802   8.022 +0.10 +0.15    +0.222    40.830
ATOM     26  O   UNL d   1       0.648  44.643   9.608 -0.13 -0.16    -0.303    40.830
ATOM     27  H   UNL d   1      -0.192  45.136   9.703 +0.07 +0.10    +0.222    40.830
ATOM     28  O   UNL d   1      -3.440  44.284   4.166 -0.00 -0.07    -0.278    40.830
ATOM     29  P   UNL d   1      -2.420  45.366   3.597 +0.00 +0.12    +0.473    40.830
ATOM     30  O   UNL d   1      -1.181  45.560   4.393 -0.05 -0.06    -0.228    40.830
ATOM     31  O   UNL d   1      -2.244  44.825   2.101 -0.01 -0.09    -0.303    40.830
ATOM     32  H   UNL d   1      -1.631  44.054   2.116 +0.03 +0.09    +0.222    40.830
ATOM     33  O   UNL d   1      -3.357  46.639   3.402 -0.00 -0.05    -0.303    40.830
ATOM     34  H   UNL d   1      -3.248  47.240   4.180 +0.01 +0.03    +0.222    40.830
ATOM     35  O   UNL d   1      -1.627  45.748   8.172 -0.01 -0.08    -0.278    40.830
ATOM     36  P   UNL d   1      -1.909  46.303   9.641 +0.02 +0.12    +0.473    40.830
ATOM     37  O   UNL d   1      -0.882  47.244  10.183 -0.02 -0.07    -0.228    40.830
ATOM     38  O   UNL d   1      -3.359  46.941   9.475 +0.00 -0.05    -0.303    40.830
ATOM     39  H   UNL d   1      -3.611  46.923   8.527 +0.00 +0.03    +0.222    40.830
ATOM     40  O   UNL d   1      -2.171  44.967  10.464 -0.01 -0.10    -0.303    40.830
ATOM     41  H   UNL d   1      -1.359  44.417  10.533 +0.05 +0.10    +0.222    40.830
ATOM     42  O   UNL d   1      -4.068  45.718   6.582 +0.00 -0.05    -0.278    40.830
ATOM     43  P   UNL d   1      -4.036  47.299   6.369 -0.00 +0.06    +0.473    40.830
ATOM     44  O   UNL d   1      -4.568  47.830   5.083 -0.00 -0.03    -0.228    40.830
ATOM     45  O   UNL d   1      -4.792  47.840   7.660 +0.00 -0.03    -0.303    40.830
ATOM     46  H   UNL d   1      -4.222  48.438   8.184 +0.00 +0.02    +0.222    40.830
ATOM     47  O   UNL d   1      -2.514  47.681   6.698 -0.00 -0.05    -0.303    40.830
ATOM     48  H   UNL d   1      -2.381  47.668   7.669 +0.01 +0.03    +0.222    40.830
TER
ENDMDL
MODEL       95
USER    Run = 95
USER    Cluster Rank = 54
USER    Number of conformations in this cluster = 1
USER  
USER    RMSD from reference structure       = 57.358 A
USER  
USER    Estimated Free Energy of Binding    =   +4.22 kcal/mol  [=(1)+(2)+(3)-(4)]
USER    
USER    (1) Final Intermolecular Energy     =   -2.94 kcal/mol
USER        vdW + Hbond + desolv Energy     =   -2.65 kcal/mol
USER        Electrostatic Energy            =   -0.29 kcal/mol
USER    (2) Final Total Internal Energy     =  -13.84 kcal/mol
USER    (3) Torsional Free Energy           =   +7.16 kcal/mol
USER    (4) Unbound System's Energy  [=(2)] =  -13.84 kcal/mol
USER    
USER    
USER  
USER    DPF = D:/Protein_go_brrr/autodock/final/6BB5/IHP/dock.dpf
USER    NEWDPF move	IHP_ideal_opt.pdbqt
USER    NEWDPF about	0.035000 0.082000 -0.065000
USER    NEWDPF tran0	22.281991 53.336152 18.952922
USER    NEWDPF axisangle0	-0.148397 0.599856 0.786226 122.138096
USER    NEWDPF quaternion0	-0.129878 0.524996 0.688107 0.483755
USER    NEWDPF dihe0	-169.91 24.87 10.16 -94.50 -4.08 -128.98 -9.89 -59.07 141.57 -47.87 9.43 -132.51 45.05 -87.35 5.53 72.52 85.41 -69.47 -1.27 3.70 147.15 -12.64 -46.17 13.88 
USER  
USER                              x       y       z    vdW   Elec        q     RMS 
ATOM      1  C   UNL d   1      20.644  52.786  18.941 -0.07 -0.02    +0.194    57.358
ATOM      2  C   UNL d   1      21.094  53.551  17.695 -0.04 -0.01    +0.194    57.358
ATOM      3  C   UNL d   1      21.924  54.785  18.056 -0.01 -0.01    +0.194    57.358
ATOM      4  C   UNL d   1      23.089  54.472  18.993 -0.01 +0.00    +0.194    57.358
ATOM      5  C   UNL d   1      22.707  53.613  20.191 -0.02 +0.01    +0.194    57.358
ATOM      6  C   UNL d   1      21.825  52.413  19.838 -0.09 -0.01    +0.194    57.358
ATOM      7  O   UNL d   1      20.029  51.567  18.517 -0.10 +0.04    -0.278    57.358
ATOM      8  P   UNL d   1      18.536  51.264  18.996 -0.05 -0.07    +0.473    57.358
ATOM      9  O   UNL d   1      17.474  51.626  18.017 -0.05 +0.03    -0.228    57.358
ATOM     10  O   UNL d   1      18.553  49.711  19.358 -0.08 +0.08    -0.303    57.358
ATOM     11  H   UNL d   1      19.433  49.464  19.698 -0.51 -0.16    +0.222    57.358
ATOM     12  O   UNL d   1      18.416  51.939  20.429 -0.05 +0.03    -0.303    57.358
ATOM     13  H   UNL d   1      19.289  52.099  20.854 +0.04 -0.02    +0.222    57.358
ATOM     14  O   UNL d   1      21.893  52.686  16.878 -0.07 +0.01    -0.278    57.358
ATOM     15  P   UNL d   1      21.585  52.699  15.307 -0.06 -0.02    +0.473    57.358
ATOM     16  O   UNL d   1      20.168  52.957  14.902 -0.08 +0.04    -0.228    57.358
ATOM     17  O   UNL d   1      22.601  53.778  14.721 -0.03 +0.02    -0.303    57.358
ATOM     18  H   UNL d   1      22.230  54.679  14.783 +0.03 -0.02    +0.222    57.358
ATOM     19  O   UNL d   1      22.216  51.342  14.768 -0.73 -0.08    -0.303    57.358
ATOM     20  H   UNL d   1      22.455  51.405  13.825 +0.10 +0.03    +0.222    57.358
ATOM     21  O   UNL d   1      21.282  51.926  21.063 -0.12 +0.03    -0.278    57.358
ATOM     22  P   UNL d   1      20.693  52.952  22.132 -0.02 -0.02    +0.473    57.358
ATOM     23  O   UNL d   1      19.984  54.164  21.629 -0.01 +0.01    -0.228    57.358
ATOM     24  O   UNL d   1      19.811  51.996  23.049 -0.06 +0.02    -0.303    57.358
ATOM     25  H   UNL d   1      19.024  51.704  22.523 +0.03 -0.01    +0.222    57.358
ATOM     26  O   UNL d   1      21.969  53.220  23.064 -0.02 -0.01    -0.303    57.358
ATOM     27  H   UNL d   1      22.706  53.553  22.512 +0.04 +0.02    +0.222    57.358
ATOM     28  O   UNL d   1      22.522  55.265  16.859 -0.00 +0.01    -0.278    57.358
ATOM     29  P   UNL d   1      21.861  56.472  16.057 +0.01 -0.04    +0.473    57.358
ATOM     30  O   UNL d   1      21.450  57.638  16.880 +0.00 +0.01    -0.228    57.358
ATOM     31  O   UNL d   1      22.990  56.724  14.951 +0.00 +0.02    -0.303    57.358
ATOM     32  H   UNL d   1      23.311  55.852  14.626 +0.01 -0.02    +0.222    57.358
ATOM     33  O   UNL d   1      20.716  55.736  15.230 +0.00 +0.05    -0.303    57.358
ATOM     34  H   UNL d   1      20.738  54.770  15.440 +0.02 -0.04    +0.222    57.358
ATOM     35  O   UNL d   1      23.934  53.095  20.703 -0.04 -0.05    -0.278    57.358
ATOM     36  P   UNL d   1      24.812  53.960  21.716 -0.02 +0.19    +0.473    57.358
ATOM     37  O   UNL d   1      25.239  53.254  22.963 -0.60 -0.27    -0.228    57.358
ATOM     38  O   UNL d   1      26.015  54.431  20.785 -0.02 -0.10    -0.303    57.358
ATOM     39  H   UNL d   1      25.686  55.101  20.148 +0.02 +0.04    +0.222    57.358
ATOM     40  O   UNL d   1      23.931  55.272  21.895 -0.00 -0.05    -0.303    57.358
ATOM     41  H   UNL d   1      24.156  55.956  21.226 +0.01 +0.02    +0.222    57.358
ATOM     42  O   UNL d   1      23.556  55.725  19.505 +0.00 -0.01    -0.278    57.358
ATOM     43  P   UNL d   1      24.813  56.420  18.813 +0.00 +0.02    +0.473    57.358
ATOM     44  O   UNL d   1      25.756  55.544  18.062 -0.01 -0.01    -0.228    57.358
ATOM     45  O   UNL d   1      24.139  57.559  17.929 -0.00 -0.00    -0.303    57.358
ATOM     46  H   UNL d   1      23.565  57.180  17.233 +0.00 -0.00    +0.222    57.358
ATOM     47  O   UNL d   1      25.462  57.274  20.004 +0.00 -0.02    -0.303    57.358
ATOM     48  H   UNL d   1      25.520  56.716  20.807 +0.01 +0.03    +0.222    57.358
TER
ENDMDL
MODEL       39
USER    Run = 39
USER    Cluster Rank = 55
USER    Number of conformations in this cluster = 1
USER  
USER    RMSD from reference structure       = 26.581 A
USER  
USER    Estimated Free Energy of Binding    =   +4.23 kcal/mol  [=(1)+(2)+(3)-(4)]
USER    
USER    (1) Final Intermolecular Energy     =   -2.93 kcal/mol
USER        vdW + Hbond + desolv Energy     =   -2.88 kcal/mol
USER        Electrostatic Energy            =   -0.05 kcal/mol
USER    (2) Final Total Internal Energy     =  -14.74 kcal/mol
USER    (3) Torsional Free Energy           =   +7.16 kcal/mol
USER    (4) Unbound System's Energy  [=(2)] =  -14.74 kcal/mol
USER    
USER    
USER  
USER    DPF = D:/Protein_go_brrr/autodock/final/6BB5/IHP/dock.dpf
USER    NEWDPF move	IHP_ideal_opt.pdbqt
USER    NEWDPF about	0.035000 0.082000 -0.065000
USER    NEWDPF tran0	22.524846 14.440518 14.053455
USER    NEWDPF axisangle0	0.770875 0.451455 0.449377 111.655292
USER    NEWDPF quaternion0	0.637785 0.373512 0.371793 0.561684
USER    NEWDPF dihe0	64.83 128.40 90.53 108.49 -27.24 -121.53 -157.40 -64.04 124.02 61.54 48.91 -81.82 -78.33 108.82 -50.51 -157.05 113.54 -63.74 -143.66 -9.98 18.61 -5.47 -30.25 166.77 
USER  
USER                              x       y       z    vdW   Elec        q     RMS 
ATOM      1  C   UNL d   1      22.331  15.381  15.490 -0.09 +0.11    +0.194    26.581
ATOM      2  C   UNL d   1      21.037  15.013  14.761 -0.08 +0.15    +0.194    26.581
ATOM      3  C   UNL d   1      21.172  15.182  13.246 -0.07 +0.10    +0.194    26.581
ATOM      4  C   UNL d   1      22.387  14.461  12.667 -0.02 +0.06    +0.194    26.581
ATOM      5  C   UNL d   1      23.680  14.708  13.432 -0.05 +0.06    +0.194    26.581
ATOM      6  C   UNL d   1      23.531  14.600  14.951 -0.05 +0.07    +0.194    26.581
ATOM      7  O   UNL d   1      22.181  15.033  16.868 -0.07 -0.14    -0.278    26.581
ATOM      8  P   UNL d   1      22.700  13.602  17.352 +0.01 +0.15    +0.473    26.581
ATOM      9  O   UNL d   1      22.716  12.549  16.300 -0.00 -0.06    -0.228    26.581
ATOM     10  O   UNL d   1      24.143  13.901  17.964 -0.00 -0.11    -0.303    26.581
ATOM     11  H   UNL d   1      24.822  13.774  17.276 +0.03 +0.09    +0.222    26.581
ATOM     12  O   UNL d   1      21.849  13.271  18.652 -0.00 -0.07    -0.303    26.581
ATOM     13  H   UNL d   1      20.967  12.886  18.448 +0.02 +0.05    +0.222    26.581
ATOM     14  O   UNL d   1      20.717  13.644  15.041 -0.03 -0.14    -0.278    26.581
ATOM     15  P   UNL d   1      19.296  13.367  15.725 -0.06 +0.28    +0.473    26.581
ATOM     16  O   UNL d   1      18.797  11.956  15.691 -0.03 -0.07    -0.228    26.581
ATOM     17  O   UNL d   1      19.463  13.927  17.206 -0.12 -0.20    -0.303    26.581
ATOM     18  H   UNL d   1      20.380  14.218  17.371 +0.04 +0.14    +0.222    26.581
ATOM     19  O   UNL d   1      18.327  14.452  15.080 -0.56 -0.32    -0.303    26.581
ATOM     20  H   UNL d   1      18.406  14.474  14.109 -0.06 +0.18    +0.222    26.581
ATOM     21  O   UNL d   1      24.700  15.182  15.523 -0.07 -0.11    -0.278    26.581
ATOM     22  P   UNL d   1      26.026  14.308  15.676 -0.05 +0.21    +0.473    26.581
ATOM     23  O   UNL d   1      25.897  12.823  15.657 -0.02 -0.07    -0.228    26.581
ATOM     24  O   UNL d   1      26.948  14.913  14.528 -0.04 -0.13    -0.303    26.581
ATOM     25  H   UNL d   1      26.822  14.366  13.712 +0.05 +0.07    +0.222    26.581
ATOM     26  O   UNL d   1      26.682  14.940  16.995 -0.27 -0.28    -0.303    26.581
ATOM     27  H   UNL d   1      26.092  14.774  17.759 +0.04 +0.19    +0.222    26.581
ATOM     28  O   UNL d   1      20.043  14.563  12.644 -0.04 -0.13    -0.278    26.581
ATOM     29  P   UNL d   1      18.863  15.451  12.047 -0.10 +0.26    +0.473    26.581
ATOM     30  O   UNL d   1      17.769  14.698  11.381 -0.10 -0.14    -0.228    26.581
ATOM     31  O   UNL d   1      18.472  16.305  13.343 -0.38 -0.32    -0.303    26.581
ATOM     32  H   UNL d   1      17.621  15.961  13.701 -0.46 +0.21    +0.222    26.581
ATOM     33  O   UNL d   1      19.656  16.506  11.157 -0.05 -0.12    -0.303    26.581
ATOM     34  H   UNL d   1      20.626  16.370  11.286 +0.04 +0.08    +0.222    26.581
ATOM     35  O   UNL d   1      24.575  13.677  13.024 -0.02 -0.06    -0.278    26.581
ATOM     36  P   UNL d   1      25.701  13.974  11.934 -0.03 +0.09    +0.473    26.581
ATOM     37  O   UNL d   1      26.872  13.043  11.946 -0.03 -0.04    -0.228    26.581
ATOM     38  O   UNL d   1      24.861  13.950  10.581 -0.01 -0.05    -0.303    26.581
ATOM     39  H   UNL d   1      24.108  14.575  10.660 +0.02 +0.04    +0.222    26.581
ATOM     40  O   UNL d   1      26.004  15.518  12.169 -0.11 -0.08    -0.303    26.581
ATOM     41  H   UNL d   1      25.708  15.815  13.058 +0.08 +0.08    +0.222    26.581
ATOM     42  O   UNL d   1      22.578  14.970  11.342 -0.01 -0.06    -0.278    26.581
ATOM     43  P   UNL d   1      22.747  16.543  11.137 -0.02 +0.11    +0.473    26.581
ATOM     44  O   UNL d   1      22.298  17.432  12.245 -0.10 -0.07    -0.228    26.581
ATOM     45  O   UNL d   1      24.290  16.683  10.775 -0.06 -0.06    -0.303    26.581
ATOM     46  H   UNL d   1      24.809  15.930  11.122 +0.04 +0.05    +0.222    26.581
ATOM     47  O   UNL d   1      22.054  16.804   9.716 -0.01 -0.06    -0.303    26.581
ATOM     48  H   UNL d   1      21.134  17.109   9.857 +0.03 +0.05    +0.222    26.581
TER
ENDMDL
MODEL       85
USER    Run = 85
USER    Cluster Rank = 56
USER    Number of conformations in this cluster = 1
USER  
USER    RMSD from reference structure       = 61.202 A
USER  
USER    Estimated Free Energy of Binding    =   +4.23 kcal/mol  [=(1)+(2)+(3)-(4)]
USER    
USER    (1) Final Intermolecular Energy     =   -2.93 kcal/mol
USER        vdW + Hbond + desolv Energy     =   -2.86 kcal/mol
USER        Electrostatic Energy            =   -0.07 kcal/mol
USER    (2) Final Total Internal Energy     =  -12.71 kcal/mol
USER    (3) Torsional Free Energy           =   +7.16 kcal/mol
USER    (4) Unbound System's Energy  [=(2)] =  -12.71 kcal/mol
USER    
USER    
USER  
USER    DPF = D:/Protein_go_brrr/autodock/final/6BB5/IHP/dock.dpf
USER    NEWDPF move	IHP_ideal_opt.pdbqt
USER    NEWDPF about	0.035000 0.082000 -0.065000
USER    NEWDPF tran0	39.298787 52.201785 1.856570
USER    NEWDPF axisangle0	-0.266295 -0.956539 -0.118825 100.269543
USER    NEWDPF quaternion0	-0.204396 -0.734196 -0.091205 0.640984
USER    NEWDPF dihe0	25.35 86.46 160.75 8.27 16.99 -126.36 -35.63 -180.00 -11.35 106.96 -26.53 -152.40 29.90 -173.35 7.73 -39.57 -87.00 -99.01 -5.88 6.00 145.14 129.93 -165.55 -179.97 
USER  
USER                              x       y       z    vdW   Elec        q     RMS 
ATOM      1  C   UNL d   1      39.791  51.824   0.244 +0.01 +0.03    +0.194    61.202
ATOM      2  C   UNL d   1      39.401  50.627   1.114 +0.00 +0.04    +0.194    61.202
ATOM      3  C   UNL d   1      39.973  50.744   2.528 -0.01 +0.04    +0.194    61.202
ATOM      4  C   UNL d   1      39.648  52.076   3.200 -0.04 +0.05    +0.194    61.202
ATOM      5  C   UNL d   1      39.915  53.294   2.325 -0.00 +0.03    +0.194    61.202
ATOM      6  C   UNL d   1      39.397  53.152   0.892 +0.01 +0.03    +0.194    61.202
ATOM      7  O   UNL d   1      39.083  51.726  -0.993 +0.00 -0.03    -0.278    61.202
ATOM      8  P   UNL d   1      39.913  51.830  -2.354 +0.00 +0.04    +0.473    61.202
ATOM      9  O   UNL d   1      40.583  50.572  -2.782 +0.00 -0.01    -0.228    61.202
ATOM     10  O   UNL d   1      38.850  52.369  -3.415 +0.00 -0.02    -0.303    61.202
ATOM     11  H   UNL d   1      38.898  51.832  -4.227 +0.00 +0.01    +0.222    61.202
ATOM     12  O   UNL d   1      40.861  53.091  -2.163 +0.00 -0.02    -0.303    61.202
ATOM     13  H   UNL d   1      41.257  53.143  -1.264 +0.00 +0.01    +0.222    61.202
ATOM     14  O   UNL d   1      37.972  50.561   1.203 -0.01 -0.10    -0.278    61.202
ATOM     15  P   UNL d   1      37.314  49.107   1.076 -0.04 +0.28    +0.473    61.202
ATOM     16  O   UNL d   1      36.390  48.887  -0.081 -0.02 -0.10    -0.228    61.202
ATOM     17  O   UNL d   1      38.561  48.116   1.067 -0.01 -0.13    -0.303    61.202
ATOM     18  H   UNL d   1      39.038  48.143   1.918 +0.03 +0.09    +0.222    61.202
ATOM     19  O   UNL d   1      36.693  48.825   2.513 -0.08 -0.52    -0.303    61.202
ATOM     20  H   UNL d   1      37.346  48.971   3.222 +0.03 +0.34    +0.222    61.202
ATOM     21  O   UNL d   1      40.009  54.188   0.128 +0.00 -0.03    -0.278    61.202
ATOM     22  P   UNL d   1      41.558  54.512   0.330 +0.00 +0.03    +0.473    61.202
ATOM     23  O   UNL d   1      42.492  53.372   0.561 +0.00 -0.01    -0.228    61.202
ATOM     24  O   UNL d   1      41.879  55.388  -0.959 +0.00 -0.01    -0.303    61.202
ATOM     25  H   UNL d   1      41.526  54.910  -1.752 +0.00 +0.01    +0.222    61.202
ATOM     26  O   UNL d   1      41.510  55.625   1.483 +0.00 -0.02    -0.303    61.202
ATOM     27  H   UNL d   1      41.080  55.247   2.277 +0.01 +0.02    +0.222    61.202
ATOM     28  O   UNL d   1      39.341  49.754   3.329 -0.05 -0.10    -0.278    61.202
ATOM     29  P   UNL d   1      38.481  50.176   4.601 -0.15 +0.27    +0.473    61.202
ATOM     30  O   UNL d   1      39.242  50.809   5.708 -0.44 -0.10    -0.228    61.202
ATOM     31  O   UNL d   1      37.354  51.066   3.893 -0.14 -0.18    -0.303    61.202
ATOM     32  H   UNL d   1      37.367  50.878   2.926 +0.04 +0.12    +0.222    61.202
ATOM     33  O   UNL d   1      37.703  48.829   4.940 -0.61 -0.38    -0.303    61.202
ATOM     34  H   UNL d   1      36.730  49.001   4.898 -0.36 +0.48    +0.222    61.202
ATOM     35  O   UNL d   1      39.195  54.368   2.927 -0.01 -0.07    -0.278    61.202
ATOM     36  P   UNL d   1      37.792  54.099   3.636 -0.07 +0.21    +0.473    61.202
ATOM     37  O   UNL d   1      36.865  53.182   2.904 -0.11 -0.09    -0.228    61.202
ATOM     38  O   UNL d   1      38.246  53.565   5.066 -0.57 -0.37    -0.303    61.202
ATOM     39  H   UNL d   1      38.473  52.613   4.996 +0.06 +0.28    +0.222    61.202
ATOM     40  O   UNL d   1      37.269  55.573   3.926 -0.08 -0.11    -0.303    61.202
ATOM     41  H   UNL d   1      37.089  56.066   3.094 +0.03 +0.05    +0.222    61.202
ATOM     42  O   UNL d   1      40.504  52.184   4.343 -0.09 -0.04    -0.278    61.202
ATOM     43  P   UNL d   1      42.070  52.385   4.117 -0.04 -0.02    +0.473    61.202
ATOM     44  O   UNL d   1      42.768  51.408   3.235 -0.03 +0.01    -0.228    61.202
ATOM     45  O   UNL d   1      42.160  53.893   3.616 -0.00 -0.01    -0.303    61.202
ATOM     46  H   UNL d   1      42.244  53.942   2.643 +0.01 +0.01    +0.222    61.202
ATOM     47  O   UNL d   1      42.644  52.502   5.609 -0.12 +0.09    -0.303    61.202
ATOM     48  H   UNL d   1      42.048  52.023   6.222 -0.05 -0.17    +0.222    61.202
TER
ENDMDL
MODEL       37
USER    Run = 37
USER    Cluster Rank = 57
USER    Number of conformations in this cluster = 1
USER  
USER    RMSD from reference structure       = 58.848 A
USER  
USER    Estimated Free Energy of Binding    =   +4.23 kcal/mol  [=(1)+(2)+(3)-(4)]
USER    
USER    (1) Final Intermolecular Energy     =   -2.93 kcal/mol
USER        vdW + Hbond + desolv Energy     =   -2.81 kcal/mol
USER        Electrostatic Energy            =   -0.11 kcal/mol
USER    (2) Final Total Internal Energy     =  -15.54 kcal/mol
USER    (3) Torsional Free Energy           =   +7.16 kcal/mol
USER    (4) Unbound System's Energy  [=(2)] =  -15.54 kcal/mol
USER    
USER    
USER  
USER    DPF = D:/Protein_go_brrr/autodock/final/6BB5/IHP/dock.dpf
USER    NEWDPF move	IHP_ideal_opt.pdbqt
USER    NEWDPF about	0.035000 0.082000 -0.065000
USER    NEWDPF tran0	26.392450 54.055772 18.073722
USER    NEWDPF axisangle0	0.055920 -0.793160 0.606441 144.494101
USER    NEWDPF quaternion0	0.053257 -0.755389 0.577562 0.304913
USER    NEWDPF dihe0	-156.14 77.75 103.12 102.84 108.28 107.80 -27.19 -91.58 155.13 41.07 127.47 117.23 -67.07 114.31 81.87 -68.28 165.57 -156.48 7.39 -11.52 -39.41 3.35 175.65 10.62 
USER  
USER                              x       y       z    vdW   Elec        q     RMS 
ATOM      1  C   UNL d   1      25.551  52.559  18.261 -0.11 +0.02    +0.194    58.848
ATOM      2  C   UNL d   1      26.149  53.146  19.541 -0.09 +0.06    +0.194    58.848
ATOM      3  C   UNL d   1      27.561  53.688  19.310 -0.00 +0.06    +0.194    58.848
ATOM      4  C   UNL d   1      27.648  54.658  18.135 -0.08 +0.03    +0.194    58.848
ATOM      5  C   UNL d   1      26.964  54.161  16.868 -0.13 +0.01    +0.194    58.848
ATOM      6  C   UNL d   1      25.576  53.562  17.108 -0.09 +0.01    +0.194    58.848
ATOM      7  O   UNL d   1      24.182  52.236  18.516 -0.07 -0.02    -0.278    58.848
ATOM      8  P   UNL d   1      23.742  50.701  18.463 -0.22 -0.02    +0.473    58.848
ATOM      9  O   UNL d   1      24.716  49.787  17.807 -0.32 +0.01    -0.228    58.848
ATOM     10  O   UNL d   1      23.459  50.328  19.989 -0.23 +0.03    -0.303    58.848
ATOM     11  H   UNL d   1      22.923  51.029  20.403 +0.08 -0.03    +0.222    58.848
ATOM     12  O   UNL d   1      22.277  50.712  17.847 -0.21 +0.03    -0.303    58.848
ATOM     13  H   UNL d   1      22.139  51.436  17.196 +0.09 -0.01    +0.222    58.848
ATOM     14  O   UNL d   1      25.316  54.220  19.995 -0.02 -0.06    -0.278    58.848
ATOM     15  P   UNL d   1      24.678  54.062  21.455 -0.02 +0.16    +0.473    58.848
ATOM     16  O   UNL d   1      24.006  55.270  22.029 -0.01 -0.04    -0.228    58.848
ATOM     17  O   UNL d   1      23.694  52.817  21.315 -0.06 -0.06    -0.303    58.848
ATOM     18  H   UNL d   1      23.795  52.385  20.446 +0.07 +0.03    +0.222    58.848
ATOM     19  O   UNL d   1      25.850  53.445  22.337 -0.39 -0.34    -0.303    58.848
ATOM     20  H   UNL d   1      26.704  53.878  22.153 +0.03 +0.19    +0.222    58.848
ATOM     21  O   UNL d   1      25.225  52.849  15.924 -0.12 +0.02    -0.278    58.848
ATOM     22  P   UNL d   1      23.719  52.881  15.398 -0.08 -0.02    +0.473    58.848
ATOM     23  O   UNL d   1      23.435  53.590  14.117 -0.07 +0.02    -0.228    58.848
ATOM     24  O   UNL d   1      23.340  51.335  15.403 -0.46 -0.02    -0.303    58.848
ATOM     25  H   UNL d   1      23.697  50.933  16.235 +0.12 +0.00    +0.222    58.848
ATOM     26  O   UNL d   1      22.934  53.419  16.688 -0.03 +0.01    -0.303    58.848
ATOM     27  H   UNL d   1      22.988  52.749  17.400 +0.07 -0.00    +0.222    58.848
ATOM     28  O   UNL d   1      27.920  54.449  20.456 -0.05 -0.09    -0.278    58.848
ATOM     29  P   UNL d   1      29.102  53.964  21.407 -0.06 +0.21    +0.473    58.848
ATOM     30  O   UNL d   1      28.687  53.156  22.582 -0.13 -0.22    -0.228    58.848
ATOM     31  O   UNL d   1      30.050  53.251  20.333 -0.12 -0.11    -0.303    58.848
ATOM     32  H   UNL d   1      29.869  53.641  19.447 +0.08 +0.07    +0.222    58.848
ATOM     33  O   UNL d   1      29.871  55.326  21.706 -0.01 -0.08    -0.303    58.848
ATOM     34  H   UNL d   1      29.801  55.914  20.914 +0.02 +0.04    +0.222    58.848
ATOM     35  O   UNL d   1      26.788  55.313  16.046 -0.06 -0.00    -0.278    58.848
ATOM     36  P   UNL d   1      26.048  56.605  16.619 -0.01 +0.01    +0.473    58.848
ATOM     37  O   UNL d   1      25.308  57.425  15.610 -0.01 +0.00    -0.228    58.848
ATOM     38  O   UNL d   1      25.125  55.975  17.754 -0.00 -0.01    -0.303    58.848
ATOM     39  H   UNL d   1      25.647  55.892  18.582 +0.01 +0.02    +0.222    58.848
ATOM     40  O   UNL d   1      27.209  57.331  17.428 -0.01 -0.01    -0.303    58.848
ATOM     41  H   UNL d   1      28.052  56.827  17.386 +0.03 +0.02    +0.222    58.848
ATOM     42  O   UNL d   1      29.038  54.815  17.829 -0.11 -0.04    -0.278    58.848
ATOM     43  P   UNL d   1      29.801  56.114  18.352 -0.03 +0.06    +0.473    58.848
ATOM     44  O   UNL d   1      30.229  57.115  17.335 -0.05 -0.02    -0.228    58.848
ATOM     45  O   UNL d   1      28.802  56.687  19.450 -0.01 -0.04    -0.303    58.848
ATOM     46  H   UNL d   1      28.580  56.010  20.120 +0.02 +0.04    +0.222    58.848
ATOM     47  O   UNL d   1      30.974  55.508  19.262 -0.04 -0.06    -0.303    58.848
ATOM     48  H   UNL d   1      30.579  55.036  20.024 +0.05 +0.05    +0.222    58.848
TER
ENDMDL
MODEL       89
USER    Run = 89
USER    Cluster Rank = 58
USER    Number of conformations in this cluster = 1
USER  
USER    RMSD from reference structure       = 57.075 A
USER  
USER    Estimated Free Energy of Binding    =   +4.27 kcal/mol  [=(1)+(2)+(3)-(4)]
USER    
USER    (1) Final Intermolecular Energy     =   -2.89 kcal/mol
USER        vdW + Hbond + desolv Energy     =   -2.80 kcal/mol
USER        Electrostatic Energy            =   -0.09 kcal/mol
USER    (2) Final Total Internal Energy     =  -13.17 kcal/mol
USER    (3) Torsional Free Energy           =   +7.16 kcal/mol
USER    (4) Unbound System's Energy  [=(2)] =  -13.17 kcal/mol
USER    
USER    
USER  
USER    DPF = D:/Protein_go_brrr/autodock/final/6BB5/IHP/dock.dpf
USER    NEWDPF move	IHP_ideal_opt.pdbqt
USER    NEWDPF about	0.035000 0.082000 -0.065000
USER    NEWDPF tran0	19.380431 57.159156 8.693124
USER    NEWDPF axisangle0	-0.926788 0.338087 0.163589 101.345775
USER    NEWDPF quaternion0	-0.716908 0.261524 0.126543 0.633747
USER    NEWDPF dihe0	-131.83 18.77 -49.76 73.70 58.31 -129.59 -107.19 -42.99 132.66 111.06 136.05 154.26 16.39 -21.85 -60.47 37.43 46.30 -161.34 -133.31 -13.08 -172.06 3.98 39.96 10.85 
USER  
USER                              x       y       z    vdW   Elec        q     RMS 
ATOM      1  C   UNL d   1      20.207  55.875   7.885 -0.15 -0.03    +0.194    57.075
ATOM      2  C   UNL d   1      19.531  56.902   6.975 -0.10 -0.03    +0.194    57.075
ATOM      3  C   UNL d   1      18.137  57.277   7.481 -0.14 -0.05    +0.194    57.075
ATOM      4  C   UNL d   1      18.124  57.707   8.946 -0.09 -0.10    +0.194    57.075
ATOM      5  C   UNL d   1      18.885  56.770   9.874 -0.07 -0.14    +0.194    57.075
ATOM      6  C   UNL d   1      20.255  56.346   9.339 -0.08 -0.06    +0.194    57.075
ATOM      7  O   UNL d   1      21.557  55.710   7.446 -0.07 +0.02    -0.278    57.075
ATOM      8  P   UNL d   1      22.722  56.393   8.299 +0.00 -0.03    +0.473    57.075
ATOM      9  O   UNL d   1      22.938  55.811   9.652 -0.02 +0.02    -0.228    57.075
ATOM     10  O   UNL d   1      24.005  56.287   7.357 -0.01 +0.01    -0.303    57.075
ATOM     11  H   UNL d   1      23.904  56.890   6.598 +0.02 -0.01    +0.222    57.075
ATOM     12  O   UNL d   1      22.406  57.950   8.256 -0.00 +0.02    -0.303    57.075
ATOM     13  H   UNL d   1      21.898  58.218   7.458 +0.02 -0.02    +0.222    57.075
ATOM     14  O   UNL d   1      20.335  58.088   6.931 -0.03 +0.03    -0.278    57.075
ATOM     15  P   UNL d   1      20.914  58.508   5.499 -0.01 -0.04    +0.473    57.075
ATOM     16  O   UNL d   1      20.053  58.208   4.312 -0.05 +0.02    -0.228    57.075
ATOM     17  O   UNL d   1      21.235  60.061   5.651 -0.00 +0.02    -0.303    57.075
ATOM     18  H   UNL d   1      21.071  60.538   4.815 +0.01 -0.01    +0.222    57.075
ATOM     19  O   UNL d   1      22.375  57.882   5.461 -0.01 +0.02    -0.303    57.075
ATOM     20  H   UNL d   1      22.506  57.228   6.173 +0.02 -0.01    +0.222    57.075
ATOM     21  O   UNL d   1      20.678  55.234  10.125 -0.06 +0.09    -0.278    57.075
ATOM     22  P   UNL d   1      20.210  53.761   9.731 -0.16 -0.16    +0.473    57.075
ATOM     23  O   UNL d   1      18.887  53.599   9.060 -0.79 +0.10    -0.228    57.075
ATOM     24  O   UNL d   1      21.455  53.239   8.888 -0.13 +0.01    -0.303    57.075
ATOM     25  H   UNL d   1      22.075  53.999   8.751 +0.07 -0.01    +0.222    57.075
ATOM     26  O   UNL d   1      20.395  52.978  11.117 -0.16 +0.10    -0.303    57.075
ATOM     27  H   UNL d   1      19.877  53.430  11.814 +0.08 -0.13    +0.222    57.075
ATOM     28  O   UNL d   1      17.708  58.419   6.749 -0.06 +0.05    -0.278    57.075
ATOM     29  P   UNL d   1      16.460  58.321   5.764 -0.04 -0.09    +0.473    57.075
ATOM     30  O   UNL d   1      15.651  57.080   5.877 -0.52 +0.04    -0.228    57.075
ATOM     31  O   UNL d   1      15.725  59.700   6.108 -0.01 +0.06    -0.303    57.075
ATOM     32  H   UNL d   1      15.551  59.731   7.077 +0.02 -0.04    +0.222    57.075
ATOM     33  O   UNL d   1      17.126  58.620   4.350 -0.05 +0.06    -0.303    57.075
ATOM     34  H   UNL d   1      18.106  58.520   4.429 +0.04 -0.03    +0.222    57.075
ATOM     35  O   UNL d   1      19.114  57.512  11.071 -0.05 +0.16    -0.278    57.075
ATOM     36  P   UNL d   1      19.691  56.787  12.369 -0.02 -0.23    +0.473    57.075
ATOM     37  O   UNL d   1      21.181  56.779  12.494 -0.01 +0.05    -0.228    57.075
ATOM     38  O   UNL d   1      18.940  57.566  13.538 -0.01 +0.12    -0.303    57.075
ATOM     39  H   UNL d   1      17.974  57.419  13.453 +0.01 -0.13    +0.222    57.075
ATOM     40  O   UNL d   1      18.963  55.374  12.321 -0.08 +0.31    -0.303    57.075
ATOM     41  H   UNL d   1      19.289  54.821  11.578 +0.01 -0.22    +0.222    57.075
ATOM     42  O   UNL d   1      16.756  57.699   9.368 -0.10 +0.22    -0.278    57.075
ATOM     43  P   UNL d   1      15.962  59.080   9.437 -0.02 -0.18    +0.473    57.075
ATOM     44  O   UNL d   1      15.502  59.543  10.776 -0.02 +0.08    -0.228    57.075
ATOM     45  O   UNL d   1      16.951  60.089   8.705 -0.00 +0.07    -0.303    57.075
ATOM     46  H   UNL d   1      17.089  59.839   7.769 +0.02 -0.04    +0.222    57.075
ATOM     47  O   UNL d   1      14.811  58.896   8.336 -0.02 +0.09    -0.303    57.075
ATOM     48  H   UNL d   1      15.115  58.262   7.654 +0.05 -0.07    +0.222    57.075
TER
ENDMDL
MODEL       81
USER    Run = 81
USER    Cluster Rank = 59
USER    Number of conformations in this cluster = 1
USER  
USER    RMSD from reference structure       = 62.277 A
USER  
USER    Estimated Free Energy of Binding    =   +4.32 kcal/mol  [=(1)+(2)+(3)-(4)]
USER    
USER    (1) Final Intermolecular Energy     =   -2.84 kcal/mol
USER        vdW + Hbond + desolv Energy     =   -2.89 kcal/mol
USER        Electrostatic Energy            =   +0.05 kcal/mol
USER    (2) Final Total Internal Energy     =  -14.32 kcal/mol
USER    (3) Torsional Free Energy           =   +7.16 kcal/mol
USER    (4) Unbound System's Energy  [=(2)] =  -14.32 kcal/mol
USER    
USER    
USER  
USER    DPF = D:/Protein_go_brrr/autodock/final/6BB5/IHP/dock.dpf
USER    NEWDPF move	IHP_ideal_opt.pdbqt
USER    NEWDPF about	0.035000 0.082000 -0.065000
USER    NEWDPF tran0	35.135289 45.425855 32.041256
USER    NEWDPF axisangle0	0.671512 -0.092559 -0.735190 90.404292
USER    NEWDPF quaternion0	0.476503 -0.065679 -0.521689 0.704608
USER    NEWDPF dihe0	149.46 180.00 119.55 117.58 4.43 -134.60 -41.03 -138.82 86.29 -24.53 50.01 -131.13 -96.18 65.95 -58.39 117.50 41.50 129.48 49.57 15.54 179.90 -2.44 -21.92 -1.59 
USER  
USER                              x       y       z    vdW   Elec        q     RMS 
ATOM      1  C   UNL d   1      36.084  46.853  32.263 -0.03 +0.01    +0.194    62.277
ATOM      2  C   UNL d   1      36.317  45.739  33.285 -0.04 +0.01    +0.194    62.277
ATOM      3  C   UNL d   1      35.000  45.110  33.748 -0.04 +0.01    +0.194    62.277
ATOM      4  C   UNL d   1      34.112  44.657  32.592 -0.02 +0.02    +0.194    62.277
ATOM      5  C   UNL d   1      33.945  45.697  31.492 -0.13 +0.02    +0.194    62.277
ATOM      6  C   UNL d   1      35.254  46.370  31.073 -0.11 +0.02    +0.194    62.277
ATOM      7  O   UNL d   1      37.355  47.266  31.756 -0.01 -0.02    -0.278    62.277
ATOM      8  P   UNL d   1      38.308  48.126  32.707 +0.00 +0.02    +0.473    62.277
ATOM      9  O   UNL d   1      37.633  49.225  33.448 -0.00 -0.01    -0.228    62.277
ATOM     10  O   UNL d   1      38.979  47.041  33.665 -0.00 -0.01    -0.303    62.277
ATOM     11  H   UNL d   1      38.553  46.175  33.527 +0.01 +0.01    +0.222    62.277
ATOM     12  O   UNL d   1      39.529  48.557  31.786 -0.00 -0.01    -0.303    62.277
ATOM     13  H   UNL d   1      39.773  49.505  31.888 +0.00 +0.01    +0.222    62.277
ATOM     14  O   UNL d   1      37.125  44.718  32.687 -0.04 -0.03    -0.278    62.277
ATOM     15  P   UNL d   1      38.130  43.939  33.661 -0.02 +0.03    +0.473    62.277
ATOM     16  O   UNL d   1      37.962  42.455  33.753 -0.05 -0.02    -0.228    62.277
ATOM     17  O   UNL d   1      39.576  44.365  33.147 -0.01 -0.02    -0.303    62.277
ATOM     18  H   UNL d   1      39.544  45.219  32.674 +0.01 +0.01    +0.222    62.277
ATOM     19  O   UNL d   1      38.036  44.726  35.040 -0.01 -0.02    -0.303    62.277
ATOM     20  H   UNL d   1      37.123  44.749  35.381 +0.01 +0.01    +0.222    62.277
ATOM     21  O   UNL d   1      34.899  47.524  30.314 -0.05 -0.02    -0.278    62.277
ATOM     22  P   UNL d   1      34.396  48.839  31.063 +0.01 +0.02    +0.473    62.277
ATOM     23  O   UNL d   1      33.710  48.683  32.378 -0.00 -0.01    -0.228    62.277
ATOM     24  O   UNL d   1      35.722  49.719  31.102 -0.00 -0.01    -0.303    62.277
ATOM     25  H   UNL d   1      36.403  49.227  31.627 +0.01 +0.01    +0.222    62.277
ATOM     26  O   UNL d   1      33.550  49.566  29.911 -0.01 -0.01    -0.303    62.277
ATOM     27  H   UNL d   1      32.910  48.930  29.532 +0.05 +0.01    +0.222    62.277
ATOM     28  O   UNL d   1      35.321  43.925  34.465 -0.04 -0.01    -0.278    62.277
ATOM     29  P   UNL d   1      35.146  43.871  36.048 -0.00 +0.01    +0.473    62.277
ATOM     30  O   UNL d   1      33.829  43.381  36.530 -0.01 -0.00    -0.228    62.277
ATOM     31  O   UNL d   1      36.431  43.003  36.441 -0.01 -0.01    -0.303    62.277
ATOM     32  H   UNL d   1      37.009  42.920  35.648 +0.01 +0.01    +0.222    62.277
ATOM     33  O   UNL d   1      35.569  45.343  36.481 -0.00 -0.01    -0.303    62.277
ATOM     34  H   UNL d   1      36.556  45.402  36.496 +0.00 +0.01    +0.222    62.277
ATOM     35  O   UNL d   1      33.457  44.985  30.357 -0.69 -0.09    -0.278    62.277
ATOM     36  P   UNL d   1      31.948  45.175  29.876 -0.21 +0.01    +0.473    62.277
ATOM     37  O   UNL d   1      31.706  46.328  28.954 -0.27 +0.01    -0.228    62.277
ATOM     38  O   UNL d   1      31.625  43.751  29.242 -0.47 +0.04    -0.303    62.277
ATOM     39  H   UNL d   1      32.299  43.105  29.544 -0.06 +0.01    +0.222    62.277
ATOM     40  O   UNL d   1      31.149  45.171  31.252 -0.11 +0.01    -0.303    62.277
ATOM     41  H   UNL d   1      31.196  44.296  31.697 +0.06 -0.01    +0.222    62.277
ATOM     42  O   UNL d   1      32.812  44.412  33.140 -0.07 -0.00    -0.278    62.277
ATOM     43  P   UNL d   1      32.260  42.916  33.176 -0.14 -0.03    +0.473    62.277
ATOM     44  O   UNL d   1      30.952  42.682  33.851 -0.11 +0.02    -0.228    62.277
ATOM     45  O   UNL d   1      32.283  42.498  31.641 -0.30 +0.04    -0.303    62.277
ATOM     46  H   UNL d   1      32.256  43.282  31.056 +0.06 -0.00    +0.222    62.277
ATOM     47  O   UNL d   1      33.498  42.082  33.760 -0.10 +0.01    -0.303    62.277
ATOM     48  H   UNL d   1      33.849  42.537  34.553 +0.04 +0.00    +0.222    62.277
TER
ENDMDL
MODEL       65
USER    Run = 65
USER    Cluster Rank = 60
USER    Number of conformations in this cluster = 1
USER  
USER    RMSD from reference structure       = 47.485 A
USER  
USER    Estimated Free Energy of Binding    =   +4.32 kcal/mol  [=(1)+(2)+(3)-(4)]
USER    
USER    (1) Final Intermolecular Energy     =   -2.84 kcal/mol
USER        vdW + Hbond + desolv Energy     =   -2.46 kcal/mol
USER        Electrostatic Energy            =   -0.38 kcal/mol
USER    (2) Final Total Internal Energy     =  -15.29 kcal/mol
USER    (3) Torsional Free Energy           =   +7.16 kcal/mol
USER    (4) Unbound System's Energy  [=(2)] =  -15.29 kcal/mol
USER    
USER    
USER  
USER    DPF = D:/Protein_go_brrr/autodock/final/6BB5/IHP/dock.dpf
USER    NEWDPF move	IHP_ideal_opt.pdbqt
USER    NEWDPF about	0.035000 0.082000 -0.065000
USER    NEWDPF tran0	7.508828 47.767825 14.983094
USER    NEWDPF axisangle0	0.436471 -0.694592 0.571870 -136.500067
USER    NEWDPF quaternion0	0.405398 -0.645143 0.531159 -0.370557
USER    NEWDPF dihe0	-101.99 12.83 24.78 22.71 141.28 151.89 180.00 -2.49 -25.56 135.12 51.18 109.70 -160.49 178.73 175.29 54.76 -54.59 -129.45 43.34 -12.77 0.10 152.21 158.46 -42.61 
USER  
USER                              x       y       z    vdW   Elec        q     RMS 
ATOM      1  C   UNL d   1       7.788  46.731  16.336 -0.08 -0.12    +0.194    47.485
ATOM      2  C   UNL d   1       9.038  47.170  15.571 -0.06 -0.10    +0.194    47.485
ATOM      3  C   UNL d   1       8.826  47.107  14.057 -0.11 -0.13    +0.194    47.485
ATOM      4  C   UNL d   1       7.575  47.849  13.593 -0.12 -0.09    +0.194    47.485
ATOM      5  C   UNL d   1       6.326  47.527  14.404 -0.12 -0.11    +0.194    47.485
ATOM      6  C   UNL d   1       6.553  47.529  15.917 -0.09 -0.11    +0.194    47.485
ATOM      7  O   UNL d   1       8.006  46.981  17.727 -0.03 +0.09    -0.278    47.485
ATOM      8  P   UNL d   1       8.894  45.943  18.555 -0.00 -0.12    +0.473    47.485
ATOM      9  O   UNL d   1       8.142  45.103  19.526 -0.04 +0.04    -0.228    47.485
ATOM     10  O   UNL d   1       9.640  45.090  17.432 -0.08 +0.12    -0.303    47.485
ATOM     11  H   UNL d   1      10.551  45.419  17.323 +0.06 -0.09    +0.222    47.485
ATOM     12  O   UNL d   1      10.083  46.807  19.160 -0.00 +0.06    -0.303    47.485
ATOM     13  H   UNL d   1      10.350  47.554  18.579 +0.02 -0.05    +0.222    47.485
ATOM     14  O   UNL d   1       9.356  48.520  15.932 -0.01 +0.09    -0.278    47.485
ATOM     15  P   UNL d   1      10.780  48.759  16.624 +0.02 -0.13    +0.473    47.485
ATOM     16  O   UNL d   1      10.776  49.469  17.941 +0.00 +0.04    -0.228    47.485
ATOM     17  O   UNL d   1      11.419  47.302  16.710 -0.01 +0.12    -0.303    47.485
ATOM     18  H   UNL d   1      10.960  46.756  17.376 +0.04 -0.08    +0.222    47.485
ATOM     19  O   UNL d   1      11.666  49.430  15.486 -0.01 +0.09    -0.303    47.485
ATOM     20  H   UNL d   1      11.470  49.055  14.608 +0.05 -0.08    +0.222    47.485
ATOM     21  O   UNL d   1       5.422  46.889  16.505 -0.12 +0.20    -0.278    47.485
ATOM     22  P   UNL d   1       4.282  47.769  17.190 -0.04 -0.13    +0.473    47.485
ATOM     23  O   UNL d   1       3.452  47.140  18.258 -0.04 +0.05    -0.228    47.485
ATOM     24  O   UNL d   1       5.096  49.057  17.650 -0.00 +0.05    -0.303    47.485
ATOM     25  H   UNL d   1       5.281  49.608  16.847 +0.02 -0.03    +0.222    47.485
ATOM     26  O   UNL d   1       3.484  48.320  15.913 -0.06 +0.02    -0.303    47.485
ATOM     27  H   UNL d   1       4.070  48.289  15.130 +0.02 +0.01    +0.222    47.485
ATOM     28  O   UNL d   1       9.916  47.785  13.444 -0.08 +0.15    -0.278    47.485
ATOM     29  P   UNL d   1       9.766  49.305  12.991 -0.07 -0.15    +0.473    47.485
ATOM     30  O   UNL d   1       8.805  50.116  13.782 -0.03 +0.05    -0.228    47.485
ATOM     31  O   UNL d   1      11.300  49.759  13.025 -0.11 +0.10    -0.303    47.485
ATOM     32  H   UNL d   1      11.372  50.581  13.563 +0.06 -0.07    +0.222    47.485
ATOM     33  O   UNL d   1       9.476  49.162  11.432 -0.14 +0.11    -0.303    47.485
ATOM     34  H   UNL d   1       8.680  48.589  11.305 -0.03 -0.09    +0.222    47.485
ATOM     35  O   UNL d   1       5.398  48.571  14.117 -0.12 -0.00    -0.278    47.485
ATOM     36  P   UNL d   1       5.645  50.043  14.679 +0.00 -0.03    +0.473    47.485
ATOM     37  O   UNL d   1       6.742  50.174  15.687 -0.00 +0.03    -0.228    47.485
ATOM     38  O   UNL d   1       5.887  50.868  13.338 -0.00 +0.01    -0.303    47.485
ATOM     39  H   UNL d   1       6.852  50.937  13.173 +0.03 -0.02    +0.222    47.485
ATOM     40  O   UNL d   1       4.186  50.480  15.139 -0.00 -0.00    -0.303    47.485
ATOM     41  H   UNL d   1       4.031  50.286  16.090 +0.01 -0.01    +0.222    47.485
ATOM     42  O   UNL d   1       7.322  47.433  12.247 -0.18 +0.10    -0.278    47.485
ATOM     43  P   UNL d   1       6.532  48.417  11.271 -0.09 -0.01    +0.473    47.485
ATOM     44  O   UNL d   1       5.044  48.402  11.338 -0.09 -0.10    -0.228    47.485
ATOM     45  O   UNL d   1       7.184  49.831  11.599 -0.11 +0.04    -0.303    47.485
ATOM     46  H   UNL d   1       7.604  49.835  12.483 +0.06 -0.04    +0.222    47.485
ATOM     47  O   UNL d   1       7.164  48.093   9.834 -0.32 +0.07    -0.303    47.485
ATOM     48  H   UNL d   1       8.078  48.442   9.797 -0.43 -0.12    +0.222    47.485
TER
ENDMDL
MODEL       47
USER    Run = 47
USER    Cluster Rank = 61
USER    Number of conformations in this cluster = 1
USER  
USER    RMSD from reference structure       = 47.278 A
USER  
USER    Estimated Free Energy of Binding    =   +4.38 kcal/mol  [=(1)+(2)+(3)-(4)]
USER    
USER    (1) Final Intermolecular Energy     =   -2.78 kcal/mol
USER        vdW + Hbond + desolv Energy     =   -2.83 kcal/mol
USER        Electrostatic Energy            =   +0.05 kcal/mol
USER    (2) Final Total Internal Energy     =  -14.94 kcal/mol
USER    (3) Torsional Free Energy           =   +7.16 kcal/mol
USER    (4) Unbound System's Energy  [=(2)] =  -14.94 kcal/mol
USER    
USER    
USER  
USER    DPF = D:/Protein_go_brrr/autodock/final/6BB5/IHP/dock.dpf
USER    NEWDPF move	IHP_ideal_opt.pdbqt
USER    NEWDPF about	0.035000 0.082000 -0.065000
USER    NEWDPF tran0	45.650541 23.692873 0.019562
USER    NEWDPF axisangle0	-0.177196 0.634604 0.752250 -165.119376
USER    NEWDPF quaternion0	-0.175704 0.629261 0.745916 -0.129493
USER    NEWDPF dihe0	-123.14 30.33 172.95 13.51 11.00 179.96 -97.71 122.56 39.06 134.08 15.65 161.60 -144.59 77.02 146.05 24.73 -49.03 -147.44 21.80 -36.99 -26.22 32.51 -180.00 -16.46 
USER  
USER                              x       y       z    vdW   Elec        q     RMS 
ATOM      1  C   UNL d   1      44.806  24.591  -1.191 -0.10 +0.03    +0.194    47.278
ATOM      2  C   UNL d   1      46.305  24.403  -1.432 -0.08 +0.03    +0.194    47.278
ATOM      3  C   UNL d   1      47.116  24.616  -0.152 -0.03 +0.04    +0.194    47.278
ATOM      4  C   UNL d   1      46.613  23.784   1.024 -0.18 +0.03    +0.194    47.278
ATOM      5  C   UNL d   1      45.105  23.851   1.231 -0.21 +0.04    +0.194    47.278
ATOM      6  C   UNL d   1      44.295  23.700  -0.058 -0.15 +0.03    +0.194    47.278
ATOM      7  O   UNL d   1      44.112  24.210  -2.380 -0.07 -0.02    -0.278    47.278
ATOM      8  P   UNL d   1      43.601  25.360  -3.364 -0.06 +0.02    +0.473    47.278
ATOM      9  O   UNL d   1      42.205  25.818  -3.129 -0.06 -0.01    -0.228    47.278
ATOM     10  O   UNL d   1      44.681  26.523  -3.192 -0.11 +0.00    -0.303    47.278
ATOM     11  H   UNL d   1      45.478  26.307  -3.710 +0.02 -0.00    +0.222    47.278
ATOM     12  O   UNL d   1      43.919  24.825  -4.825 -0.01 -0.01    -0.303    47.278
ATOM     13  H   UNL d   1      44.542  24.063  -4.830 +0.01 +0.01    +0.222    47.278
ATOM     14  O   UNL d   1      46.538  23.071  -1.905 -0.03 -0.02    -0.278    47.278
ATOM     15  P   UNL d   1      46.607  22.876  -3.493 -0.00 +0.02    +0.473    47.278
ATOM     16  O   UNL d   1      47.752  22.072  -4.022 -0.00 -0.01    -0.228    47.278
ATOM     17  O   UNL d   1      45.189  22.252  -3.868 -0.00 -0.01    -0.303    47.278
ATOM     18  H   UNL d   1      44.493  22.937  -3.870 +0.01 +0.01    +0.222    47.278
ATOM     19  O   UNL d   1      46.473  24.348  -4.079 -0.02 -0.01    -0.303    47.278
ATOM     20  H   UNL d   1      45.751  24.844  -3.649 +0.02 +0.01    +0.222    47.278
ATOM     21  O   UNL d   1      42.966  24.121   0.238 -0.14 -0.04    -0.278    47.278
ATOM     22  P   UNL d   1      41.735  23.176  -0.130 -0.09 +0.02    +0.473    47.278
ATOM     23  O   UNL d   1      40.366  23.612   0.272 -0.13 +0.00    -0.228    47.278
ATOM     24  O   UNL d   1      41.937  22.974  -1.696 -0.03 -0.01    -0.303    47.278
ATOM     25  H   UNL d   1      41.979  23.869  -2.120 +0.03 +0.01    +0.222    47.278
ATOM     26  O   UNL d   1      42.223  21.764   0.452 -0.04 -0.02    -0.303    47.278
ATOM     27  H   UNL d   1      43.063  21.890   0.938 +0.06 +0.02    +0.222    47.278
ATOM     28  O   UNL d   1      48.438  24.155  -0.402 -0.06 -0.03    -0.278    47.278
ATOM     29  P   UNL d   1      49.688  24.920   0.223 -0.06 +0.03    +0.473    47.278
ATOM     30  O   UNL d   1      49.364  26.124   1.030 -0.22 -0.00    -0.228    47.278
ATOM     31  O   UNL d   1      50.406  23.708   0.982 -0.02 -0.02    -0.303    47.278
ATOM     32  H   UNL d   1      49.724  23.202   1.481 +0.05 +0.02    +0.222    47.278
ATOM     33  O   UNL d   1      50.618  25.137  -1.052 -0.02 -0.01    -0.303    47.278
ATOM     34  H   UNL d   1      51.450  25.589  -0.769 +0.03 +0.01    +0.222    47.278
ATOM     35  O   UNL d   1      44.779  22.740   2.064 -0.18 -0.05    -0.278    47.278
ATOM     36  P   UNL d   1      45.315  21.281   1.707 -0.06 +0.10    +0.473    47.278
ATOM     37  O   UNL d   1      46.063  21.168   0.416 -0.03 -0.03    -0.228    47.278
ATOM     38  O   UNL d   1      46.179  20.926   2.997 -0.08 -0.13    -0.303    47.278
ATOM     39  H   UNL d   1      46.556  21.752   3.368 +0.09 +0.08    +0.222    47.278
ATOM     40  O   UNL d   1      44.008  20.390   1.864 -0.07 -0.06    -0.303    47.278
ATOM     41  H   UNL d   1      43.526  20.295   1.012 +0.04 +0.03    +0.222    47.278
ATOM     42  O   UNL d   1      47.224  24.319   2.203 -0.25 -0.04    -0.278    47.278
ATOM     43  P   UNL d   1      48.002  23.332   3.185 -0.20 +0.08    +0.473    47.278
ATOM     44  O   UNL d   1      47.302  22.908   4.429 -0.32 -0.04    -0.228    47.278
ATOM     45  O   UNL d   1      48.405  22.130   2.223 -0.05 -0.06    -0.303    47.278
ATOM     46  H   UNL d   1      47.620  21.733   1.797 +0.06 +0.04    +0.222    47.278
ATOM     47  O   UNL d   1      49.412  24.065   3.399 -0.19 -0.05    -0.303    47.278
ATOM     48  H   UNL d   1      49.553  24.710   2.676 +0.08 +0.02    +0.222    47.278
TER
ENDMDL
MODEL       61
USER    Run = 61
USER    Cluster Rank = 62
USER    Number of conformations in this cluster = 2
USER  
USER    RMSD from reference structure       = 47.951 A
USER  
USER    Estimated Free Energy of Binding    =   +4.39 kcal/mol  [=(1)+(2)+(3)-(4)]
USER    
USER    (1) Final Intermolecular Energy     =   -2.77 kcal/mol
USER        vdW + Hbond + desolv Energy     =   -2.57 kcal/mol
USER        Electrostatic Energy            =   -0.20 kcal/mol
USER    (2) Final Total Internal Energy     =  -13.39 kcal/mol
USER    (3) Torsional Free Energy           =   +7.16 kcal/mol
USER    (4) Unbound System's Energy  [=(2)] =  -13.39 kcal/mol
USER    
USER    
USER  
USER    DPF = D:/Protein_go_brrr/autodock/final/6BB5/IHP/dock.dpf
USER    NEWDPF move	IHP_ideal_opt.pdbqt
USER    NEWDPF about	0.035000 0.082000 -0.065000
USER    NEWDPF tran0	8.433736 50.054727 -9.555402
USER    NEWDPF axisangle0	0.174299 -0.703197 0.689299 165.423589
USER    NEWDPF quaternion0	0.172891 -0.697516 0.683730 0.126860
USER    NEWDPF dihe0	66.07 138.49 152.95 84.37 -71.46 -136.51 -42.14 -15.83 -5.50 101.76 -10.49 116.31 -35.24 66.60 0.06 -180.00 -38.46 -154.41 -164.19 26.11 -33.06 22.53 -180.00 -9.62 
USER  
USER                              x       y       z    vdW   Elec        q     RMS 
ATOM      1  C   UNL d   1       7.683  48.811  -8.621 -0.13 +0.01    +0.194    47.951
ATOM      2  C   UNL d   1       8.718  49.660  -7.881 -0.11 -0.01    +0.194    47.951
ATOM      3  C   UNL d   1       9.963  49.909  -8.736 -0.13 -0.02    +0.194    47.951
ATOM      4  C   UNL d   1       9.640  50.468 -10.119 -0.04 -0.01    +0.194    47.951
ATOM      5  C   UNL d   1       8.531  49.720 -10.848 -0.02 -0.00    +0.194    47.951
ATOM      6  C   UNL d   1       7.311  49.417  -9.975 -0.04 +0.01    +0.194    47.951
ATOM      7  O   UNL d   1       6.493  48.770  -7.831 -0.13 -0.07    -0.278    47.951
ATOM      8  P   UNL d   1       5.584  50.082  -7.759 -0.06 +0.11    +0.473    47.951
ATOM      9  O   UNL d   1       5.854  51.095  -8.815 -0.02 -0.02    -0.228    47.951
ATOM     10  O   UNL d   1       4.091  49.520  -7.796 -0.03 -0.10    -0.303    47.951
ATOM     11  H   UNL d   1       3.778  49.484  -8.719 +0.02 +0.05    +0.222    47.951
ATOM     12  O   UNL d   1       5.710  50.591  -6.259 -0.12 -0.11    -0.303    47.951
ATOM     13  H   UNL d   1       6.421  51.260  -6.138 +0.05 +0.05    +0.222    47.951
ATOM     14  O   UNL d   1       8.133  50.925  -7.548 -0.10 -0.01    -0.278    47.951
ATOM     15  P   UNL d   1       8.804  51.727  -6.335 -0.11 +0.01    +0.473    47.951
ATOM     16  O   UNL d   1       9.311  53.102  -6.639 -0.05 -0.00    -0.228    47.951
ATOM     17  O   UNL d   1       7.687  51.718  -5.199 -0.15 -0.05    -0.303    47.951
ATOM     18  H   UNL d   1       7.427  50.805  -4.970 -0.01 +0.04    +0.222    47.951
ATOM     19  O   UNL d   1       9.877  50.717  -5.737 -0.24 +0.05    -0.303    47.951
ATOM     20  H   UNL d   1      10.168  50.065  -6.401 -0.41 -0.09    +0.222    47.951
ATOM     21  O   UNL d   1       6.538  48.442 -10.671 -0.02 -0.01    -0.278    47.951
ATOM     22  P   UNL d   1       4.954  48.610 -10.768 +0.01 +0.03    +0.473    47.951
ATOM     23  O   UNL d   1       4.391  49.991 -10.773 -0.00 -0.02    -0.228    47.951
ATOM     24  O   UNL d   1       4.614  47.746 -12.061 -0.00 -0.01    -0.303    47.951
ATOM     25  H   UNL d   1       3.952  48.248 -12.601 +0.00 +0.01    +0.222    47.951
ATOM     26  O   UNL d   1       4.452  47.650  -9.587 -0.02 -0.05    -0.303    47.951
ATOM     27  H   UNL d   1       4.951  47.856  -8.771 +0.03 +0.05    +0.222    47.951
ATOM     28  O   UNL d   1      10.731  50.917  -8.091 -0.08 +0.03    -0.278    47.951
ATOM     29  P   UNL d   1      12.301  50.732  -7.898 -0.06 -0.05    +0.473    47.951
ATOM     30  O   UNL d   1      13.085  51.989  -7.790 -0.02 +0.02    -0.228    47.951
ATOM     31  O   UNL d   1      12.313  49.757  -6.629 -0.10 +0.07    -0.303    47.951
ATOM     32  H   UNL d   1      11.392  49.453  -6.458 -0.45 -0.12    +0.222    47.951
ATOM     33  O   UNL d   1      12.672  49.752  -9.097 -0.07 +0.03    -0.303    47.951
ATOM     34  H   UNL d   1      12.200  50.051  -9.913 +0.03 -0.02    +0.222    47.951
ATOM     35  O   UNL d   1       8.095  50.592 -11.889 -0.00 +0.00    -0.278    47.951
ATOM     36  P   UNL d   1       7.743  52.114 -11.569 +0.00 +0.00    +0.473    47.951
ATOM     37  O   UNL d   1       8.034  52.564 -10.173 -0.00 -0.00    -0.228    47.951
ATOM     38  O   UNL d   1       8.572  52.883 -12.691 -0.00 +0.00    -0.303    47.951
ATOM     39  H   UNL d   1       9.522  52.883 -12.444 +0.00 -0.00    +0.222    47.951
ATOM     40  O   UNL d   1       6.236  52.226 -12.064 +0.00 -0.01    -0.303    47.951
ATOM     41  H   UNL d   1       5.647  51.604 -11.581 +0.00 +0.01    +0.222    47.951
ATOM     42  O   UNL d   1      10.827  50.334 -10.908 -0.01 +0.02    -0.278    47.951
ATOM     43  P   UNL d   1      11.490  51.643 -11.534 +0.00 -0.02    +0.473    47.951
ATOM     44  O   UNL d   1      11.379  51.832 -13.007 -0.00 +0.01    -0.228    47.951
ATOM     45  O   UNL d   1      10.831  52.811 -10.676 -0.00 +0.01    -0.303    47.951
ATOM     46  H   UNL d   1       9.953  53.061 -11.028 +0.00 -0.00    +0.222    47.951
ATOM     47  O   UNL d   1      12.982  51.612 -10.950 -0.00 +0.01    -0.303    47.951
ATOM     48  H   UNL d   1      12.950  51.715  -9.976 +0.01 -0.01    +0.222    47.951
TER
ENDMDL
MODEL       33
USER    Run = 33
USER    Cluster Rank = 63
USER    Number of conformations in this cluster = 1
USER  
USER    RMSD from reference structure       = 44.848 A
USER  
USER    Estimated Free Energy of Binding    =   +4.39 kcal/mol  [=(1)+(2)+(3)-(4)]
USER    
USER    (1) Final Intermolecular Energy     =   -2.77 kcal/mol
USER        vdW + Hbond + desolv Energy     =   -2.64 kcal/mol
USER        Electrostatic Energy            =   -0.12 kcal/mol
USER    (2) Final Total Internal Energy     =  -12.67 kcal/mol
USER    (3) Torsional Free Energy           =   +7.16 kcal/mol
USER    (4) Unbound System's Energy  [=(2)] =  -12.67 kcal/mol
USER    
USER    
USER  
USER    DPF = D:/Protein_go_brrr/autodock/final/6BB5/IHP/dock.dpf
USER    NEWDPF move	IHP_ideal_opt.pdbqt
USER    NEWDPF about	0.035000 0.082000 -0.065000
USER    NEWDPF tran0	22.360630 42.554242 -8.590331
USER    NEWDPF axisangle0	-0.371596 -0.283061 0.884190 -161.555614
USER    NEWDPF quaternion0	-0.366793 -0.279402 0.872762 -0.160264
USER    NEWDPF dihe0	-171.67 123.97 107.56 -51.82 1.04 -136.36 85.32 -30.83 -7.61 89.02 -4.38 118.34 -38.77 -146.63 -54.33 41.81 -8.26 -59.70 -39.66 -34.79 0.00 -49.03 -19.36 -177.71 
USER  
USER                              x       y       z    vdW   Elec        q     RMS 
ATOM      1  C   UNL d   1      20.998  43.573  -8.288 -0.11 +0.04    +0.194    44.848
ATOM      2  C   UNL d   1      22.176  43.741  -7.326 -0.10 +0.02    +0.194    44.848
ATOM      3  C   UNL d   1      22.760  42.392  -6.904 -0.13 +0.03    +0.194    44.848
ATOM      4  C   UNL d   1      23.105  41.489  -8.086 -0.08 +0.03    +0.194    44.848
ATOM      5  C   UNL d   1      22.000  41.383  -9.129 -0.09 +0.06    +0.194    44.848
ATOM      6  C   UNL d   1      21.373  42.727  -9.506 -0.08 +0.05    +0.194    44.848
ATOM      7  O   UNL d   1      20.624  44.867  -8.767 -0.04 -0.03    -0.278    44.848
ATOM      8  P   UNL d   1      19.182  45.043  -9.431 -0.06 +0.05    +0.473    44.848
ATOM      9  O   UNL d   1      18.247  43.904  -9.220 -0.11 -0.05    -0.228    44.848
ATOM     10  O   UNL d   1      18.644  46.418  -8.828 -0.03 -0.00    -0.303    44.848
ATOM     11  H   UNL d   1      19.396  47.012  -8.646 +0.03 +0.00    +0.222    44.848
ATOM     12  O   UNL d   1      19.470  45.433 -10.944 -0.01 -0.02    -0.303    44.848
ATOM     13  H   UNL d   1      19.710  44.660 -11.503 +0.02 +0.03    +0.222    44.848
ATOM     14  O   UNL d   1      23.203  44.501  -7.975 -0.01 -0.02    -0.278    44.848
ATOM     15  P   UNL d   1      23.236  46.072  -7.665 +0.00 +0.02    +0.473    44.848
ATOM     16  O   UNL d   1      22.454  46.955  -8.587 -0.00 -0.01    -0.228    44.848
ATOM     17  O   UNL d   1      22.754  46.178  -6.151 -0.02 -0.01    -0.303    44.848
ATOM     18  H   UNL d   1      22.738  45.300  -5.724 +0.06 +0.01    +0.222    44.848
ATOM     19  O   UNL d   1      24.783  46.417  -7.533 -0.00 -0.01    -0.303    44.848
ATOM     20  H   UNL d   1      25.023  46.652  -6.618 +0.01 +0.01    +0.222    44.848
ATOM     21  O   UNL d   1      20.164  42.437 -10.203 -0.04 -0.13    -0.278    44.848
ATOM     22  P   UNL d   1      20.118  42.553 -11.793 -0.06 +0.18    +0.473    44.848
ATOM     23  O   UNL d   1      21.103  43.451 -12.463 -0.02 -0.04    -0.228    44.848
ATOM     24  O   UNL d   1      20.201  41.026 -12.233 -0.30 -0.20    -0.303    44.848
ATOM     25  H   UNL d   1      21.085  40.673 -11.958 +0.02 +0.11    +0.222    44.848
ATOM     26  O   UNL d   1      18.572  42.889 -12.051 -0.22 -0.12    -0.303    44.848
ATOM     27  H   UNL d   1      18.301  43.625 -11.466 +0.04 +0.06    +0.222    44.848
ATOM     28  O   UNL d   1      23.997  42.646  -6.250 -0.09 -0.04    -0.278    44.848
ATOM     29  P   UNL d   1      24.037  43.514  -4.915 -0.11 +0.06    +0.473    44.848
ATOM     30  O   UNL d   1      22.731  43.702  -4.233 -0.25 -0.03    -0.228    44.848
ATOM     31  O   UNL d   1      25.172  42.728  -4.105 -0.15 -0.04    -0.303    44.848
ATOM     32  H   UNL d   1      25.771  43.387  -3.685 +0.06 +0.03    +0.222    44.848
ATOM     33  O   UNL d   1      24.795  44.830  -5.395 -0.03 -0.02    -0.303    44.848
ATOM     34  H   UNL d   1      24.623  44.966  -6.358 +0.03 +0.01    +0.222    44.848
ATOM     35  O   UNL d   1      22.624  40.867 -10.303 -0.04 -0.07    -0.278    44.848
ATOM     36  P   UNL d   1      22.284  39.394 -10.813 -0.05 +0.16    +0.473    44.848
ATOM     37  O   UNL d   1      20.866  38.958 -10.627 -0.10 -0.18    -0.228    44.848
ATOM     38  O   UNL d   1      22.755  39.459 -12.333 -0.01 -0.07    -0.303    44.848
ATOM     39  H   UNL d   1      22.078  39.936 -12.859 +0.02 +0.06    +0.222    44.848
ATOM     40  O   UNL d   1      23.407  38.521 -10.102 -0.01 -0.05    -0.303    44.848
ATOM     41  H   UNL d   1      23.490  38.741  -9.147 +0.03 +0.04    +0.222    44.848
ATOM     42  O   UNL d   1      23.312  40.175  -7.557 -0.08 -0.05    -0.278    44.848
ATOM     43  P   UNL d   1      22.055  39.350  -7.026 -0.13 +0.12    +0.473    44.848
ATOM     44  O   UNL d   1      20.784  40.097  -6.811 -0.31 -0.08    -0.228    44.848
ATOM     45  O   UNL d   1      21.942  38.166  -8.083 -0.08 -0.09    -0.303    44.848
ATOM     46  H   UNL d   1      21.536  38.469  -8.919 +0.05 +0.10    +0.222    44.848
ATOM     47  O   UNL d   1      22.634  38.586  -5.741 -0.12 -0.05    -0.303    44.848
ATOM     48  H   UNL d   1      23.346  37.976  -6.022 +0.07 +0.02    +0.222    44.848
TER
ENDMDL
MODEL       46
USER    Run = 46
USER    Cluster Rank = 64
USER    Number of conformations in this cluster = 1
USER  
USER    RMSD from reference structure       = 47.991 A
USER  
USER    Estimated Free Energy of Binding    =   +4.41 kcal/mol  [=(1)+(2)+(3)-(4)]
USER    
USER    (1) Final Intermolecular Energy     =   -2.75 kcal/mol
USER        vdW + Hbond + desolv Energy     =   -2.48 kcal/mol
USER        Electrostatic Energy            =   -0.27 kcal/mol
USER    (2) Final Total Internal Energy     =  -12.17 kcal/mol
USER    (3) Torsional Free Energy           =   +7.16 kcal/mol
USER    (4) Unbound System's Energy  [=(2)] =  -12.17 kcal/mol
USER    
USER    
USER  
USER    DPF = D:/Protein_go_brrr/autodock/final/6BB5/IHP/dock.dpf
USER    NEWDPF move	IHP_ideal_opt.pdbqt
USER    NEWDPF about	0.035000 0.082000 -0.065000
USER    NEWDPF tran0	0.575958 51.169839 8.553802
USER    NEWDPF axisangle0	-0.831973 0.351792 -0.429026 137.917478
USER    NEWDPF quaternion0	-0.776499 0.328335 -0.400420 0.359040
USER    NEWDPF dihe0	-158.72 -171.49 14.61 -162.85 12.32 -118.72 -124.57 -73.58 52.16 157.85 107.94 140.43 119.16 -86.56 -42.61 37.09 -114.02 -149.37 38.25 19.69 -174.95 13.54 -9.55 2.48 
USER  
USER                              x       y       z    vdW   Elec        q     RMS 
ATOM      1  C   UNL d   1       2.171  50.710   9.033 -0.10 +0.03    +0.194    47.991
ATOM      2  C   UNL d   1       2.090  51.713   7.882 -0.03 +0.02    +0.194    47.991
ATOM      3  C   UNL d   1       1.003  51.334   6.874 -0.07 +0.03    +0.194    47.991
ATOM      4  C   UNL d   1      -0.358  51.089   7.522 -0.04 +0.02    +0.194    47.991
ATOM      5  C   UNL d   1      -0.308  50.184   8.746 -0.03 +0.03    +0.194    47.991
ATOM      6  C   UNL d   1       0.818  50.525   9.723 -0.04 +0.03    +0.194    47.991
ATOM      7  O   UNL d   1       3.080  51.223  10.009 -0.05 -0.03    -0.278    47.991
ATOM      8  P   UNL d   1       4.642  50.955   9.806 -0.12 +0.00    +0.473    47.991
ATOM      9  O   UNL d   1       5.536  51.696  10.738 -0.08 +0.01    -0.228    47.991
ATOM     10  O   UNL d   1       4.782  49.371   9.928 -0.18 -0.05    -0.303    47.991
ATOM     11  H   UNL d   1       4.062  48.940   9.431 +0.09 +0.06    +0.222    47.991
ATOM     12  O   UNL d   1       4.904  51.194   8.257 -0.23 +0.03    -0.303    47.991
ATOM     13  H   UNL d   1       5.772  51.618   8.074 -0.37 -0.10    +0.222    47.991
ATOM     14  O   UNL d   1       1.789  53.010   8.412 -0.04 -0.01    -0.278    47.991
ATOM     15  P   UNL d   1       2.333  54.267   7.583 -0.03 +0.01    +0.473    47.991
ATOM     16  O   UNL d   1       3.611  54.072   6.829 -0.08 -0.00    -0.228    47.991
ATOM     17  O   UNL d   1       1.113  54.665   6.638 -0.02 -0.01    -0.303    47.991
ATOM     18  H   UNL d   1       1.080  54.094   5.847 +0.02 +0.01    +0.222    47.991
ATOM     19  O   UNL d   1       2.330  55.465   8.630 -0.01 +0.00    -0.303    47.991
ATOM     20  H   UNL d   1       3.138  56.006   8.560 +0.01 -0.00    +0.222    47.991
ATOM     21  O   UNL d   1       0.948  49.413  10.607 -0.03 -0.08    -0.278    47.991
ATOM     22  P   UNL d   1       1.803  48.142  10.160 -0.07 +0.27    +0.473    47.991
ATOM     23  O   UNL d   1       2.206  48.032   8.728 -0.21 -0.08    -0.228    47.991
ATOM     24  O   UNL d   1       3.013  48.184  11.193 -0.49 -0.37    -0.303    47.991
ATOM     25  H   UNL d   1       3.427  49.083  11.146 +0.05 +0.13    +0.222    47.991
ATOM     26  O   UNL d   1       0.917  46.936  10.735 -0.10 -0.24    -0.303    47.991
ATOM     27  H   UNL d   1       0.070  46.897  10.246 +0.05 +0.10    +0.222    47.991
ATOM     28  O   UNL d   1       0.814  52.447   6.009 -0.06 -0.03    -0.278    47.991
ATOM     29  P   UNL d   1       0.958  52.273   4.432 -0.05 +0.06    +0.473    47.991
ATOM     30  O   UNL d   1       1.036  50.871   3.947 -0.11 -0.05    -0.228    47.991
ATOM     31  O   UNL d   1      -0.291  53.144   3.940 -0.01 -0.03    -0.303    47.991
ATOM     32  H   UNL d   1      -1.118  52.645   4.137 +0.01 +0.02    +0.222    47.991
ATOM     33  O   UNL d   1       2.197  53.218   4.104 -0.08 -0.03    -0.303    47.991
ATOM     34  H   UNL d   1       2.368  53.805   4.881 +0.03 +0.02    +0.222    47.991
ATOM     35  O   UNL d   1      -1.539  50.395   9.434 -0.00 -0.03    -0.278    47.991
ATOM     36  P   UNL d   1      -2.535  49.177   9.695 +0.01 +0.05    +0.473    47.991
ATOM     37  O   UNL d   1      -3.215  48.628   8.481 -0.00 -0.03    -0.228    47.991
ATOM     38  O   UNL d   1      -1.588  48.136  10.441 +0.00 -0.06    -0.303    47.991
ATOM     39  H   UNL d   1      -0.651  48.381  10.280 +0.02 +0.05    +0.222    47.991
ATOM     40  O   UNL d   1      -3.469  49.742  10.852 +0.00 -0.02    -0.303    47.991
ATOM     41  H   UNL d   1      -4.403  49.825  10.558 +0.00 +0.01    +0.222    47.991
ATOM     42  O   UNL d   1      -1.170  50.431   6.544 -0.02 -0.03    -0.278    47.991
ATOM     43  P   UNL d   1      -2.367  51.237   5.866 -0.00 +0.04    +0.473    47.991
ATOM     44  O   UNL d   1      -3.749  50.935   6.332 -0.00 -0.02    -0.228    47.991
ATOM     45  O   UNL d   1      -1.928  52.753   6.072 -0.00 -0.02    -0.303    47.991
ATOM     46  H   UNL d   1      -0.957  52.856   6.010 +0.01 +0.02    +0.222    47.991
ATOM     47  O   UNL d   1      -2.105  51.033   4.298 -0.01 -0.03    -0.303    47.991
ATOM     48  H   UNL d   1      -1.145  51.103   4.119 +0.02 +0.03    +0.222    47.991
TER
ENDMDL
MODEL       58
USER    Run = 58
USER    Cluster Rank = 65
USER    Number of conformations in this cluster = 1
USER  
USER    RMSD from reference structure       = 28.554 A
USER  
USER    Estimated Free Energy of Binding    =   +4.54 kcal/mol  [=(1)+(2)+(3)-(4)]
USER    
USER    (1) Final Intermolecular Energy     =   -2.62 kcal/mol
USER        vdW + Hbond + desolv Energy     =   -2.45 kcal/mol
USER        Electrostatic Energy            =   -0.17 kcal/mol
USER    (2) Final Total Internal Energy     =  -14.49 kcal/mol
USER    (3) Torsional Free Energy           =   +7.16 kcal/mol
USER    (4) Unbound System's Energy  [=(2)] =  -14.49 kcal/mol
USER    
USER    
USER  
USER    DPF = D:/Protein_go_brrr/autodock/final/6BB5/IHP/dock.dpf
USER    NEWDPF move	IHP_ideal_opt.pdbqt
USER    NEWDPF about	0.035000 0.082000 -0.065000
USER    NEWDPF tran0	15.039019 10.809972 25.216974
USER    NEWDPF axisangle0	0.812928 0.581257 -0.035905 134.564389
USER    NEWDPF quaternion0	0.749859 0.536162 -0.033120 0.386193
USER    NEWDPF dihe0	123.78 94.57 108.32 -8.98 12.44 -139.19 4.11 -115.53 30.68 25.04 131.40 145.98 -72.83 40.47 13.58 116.41 166.82 -120.15 -148.30 -22.20 163.12 -38.76 -22.39 159.92 
USER  
USER                              x       y       z    vdW   Elec        q     RMS 
ATOM      1  C   UNL d   1      14.511  12.392  25.666 -0.16 -0.03    +0.194    28.554
ATOM      2  C   UNL d   1      13.528  11.258  25.964 -0.08 -0.01    +0.194    28.554
ATOM      3  C   UNL d   1      13.438  10.267  24.801 -0.08 +0.01    +0.194    28.554
ATOM      4  C   UNL d   1      14.800   9.747  24.348 -0.04 +0.01    +0.194    28.554
ATOM      5  C   UNL d   1      15.846  10.836  24.149 -0.06 +0.00    +0.194    28.554
ATOM      6  C   UNL d   1      15.893  11.863  25.283 -0.09 -0.02    +0.194    28.554
ATOM      7  O   UNL d   1      14.667  13.170  26.855 -0.13 +0.14    -0.278    28.554
ATOM      8  P   UNL d   1      15.805  12.750  27.894 -0.05 -0.23    +0.473    28.554
ATOM      9  O   UNL d   1      16.265  11.338  27.788 -0.02 +0.04    -0.228    28.554
ATOM     10  O   UNL d   1      16.970  13.810  27.642 -0.11 +0.25    -0.303    28.554
ATOM     11  H   UNL d   1      16.996  14.049  26.697 +0.04 -0.19    +0.222    28.554
ATOM     12  O   UNL d   1      15.252  13.195  29.315 -0.06 +0.17    -0.303    28.554
ATOM     13  H   UNL d   1      14.331  12.893  29.482 +0.02 -0.10    +0.222    28.554
ATOM     14  O   UNL d   1      13.968  10.553  27.131 -0.01 +0.02    -0.278    28.554
ATOM     15  P   UNL d   1      13.088  10.743  28.456 +0.00 -0.05    +0.473    28.554
ATOM     16  O   UNL d   1      12.056   9.694  28.733 -0.00 +0.01    -0.228    28.554
ATOM     17  O   UNL d   1      14.165  10.872  29.622 -0.00 +0.04    -0.303    28.554
ATOM     18  H   UNL d   1      15.062  11.007  29.259 +0.01 -0.04    +0.222    28.554
ATOM     19  O   UNL d   1      12.541  12.233  28.359 -0.02 +0.06    -0.303    28.554
ATOM     20  H   UNL d   1      13.257  12.887  28.464 +0.03 -0.09    +0.222    28.554
ATOM     21  O   UNL d   1      16.648  12.973  24.802 -0.11 +0.05    -0.278    28.554
ATOM     22  P   UNL d   1      16.139  13.783  23.525 -0.16 +0.01    +0.473    28.554
ATOM     23  O   UNL d   1      14.689  14.120  23.437 -0.72 -0.06    -0.228    28.554
ATOM     24  O   UNL d   1      17.117  15.038  23.525 -0.31 +0.03    -0.303    28.554
ATOM     25  H   UNL d   1      17.071  15.465  24.418 +0.03 -0.11    +0.222    28.554
ATOM     26  O   UNL d   1      16.731  12.901  22.324 -0.04 -0.05    -0.303    28.554
ATOM     27  H   UNL d   1      16.540  11.956  22.494 +0.06 +0.03    +0.222    28.554
ATOM     28  O   UNL d   1      12.734   9.123  25.267 -0.02 -0.01    -0.278    28.554
ATOM     29  P   UNL d   1      11.166   9.200  25.541 -0.02 +0.02    +0.473    28.554
ATOM     30  O   UNL d   1      10.297   8.853  24.388 -0.03 -0.02    -0.228    28.554
ATOM     31  O   UNL d   1      11.063   8.266  26.836 -0.00 -0.00    -0.303    28.554
ATOM     32  H   UNL d   1      11.671   8.618  27.527 +0.01 -0.00    +0.222    28.554
ATOM     33  O   UNL d   1      11.005  10.663  26.149 -0.04 -0.01    -0.303    28.554
ATOM     34  H   UNL d   1      11.592  10.749  26.939 +0.03 -0.00    +0.222    28.554
ATOM     35  O   UNL d   1      17.105  10.167  24.136 -0.01 -0.00    -0.278    28.554
ATOM     36  P   UNL d   1      17.923  10.018  22.775 -0.01 +0.02    +0.473    28.554
ATOM     37  O   UNL d   1      18.764   8.786  22.660 -0.00 -0.01    -0.228    28.554
ATOM     38  O   UNL d   1      16.766  10.124  21.686 -0.04 -0.03    -0.303    28.554
ATOM     39  H   UNL d   1      15.976   9.640  22.009 +0.03 +0.02    +0.222    28.554
ATOM     40  O   UNL d   1      18.673  11.417  22.675 -0.02 -0.01    -0.303    28.554
ATOM     41  H   UNL d   1      18.274  12.088  23.272 +0.04 -0.00    +0.222    28.554
ATOM     42  O   UNL d   1      14.601   9.118  23.077 -0.03 -0.02    -0.278    28.554
ATOM     43  P   UNL d   1      13.787   9.898  21.949 -0.06 +0.08    +0.473    28.554
ATOM     44  O   UNL d   1      12.309   9.993  22.110 -0.10 -0.05    -0.228    28.554
ATOM     45  O   UNL d   1      14.527  11.306  21.896 -0.12 -0.08    -0.303    28.554
ATOM     46  H   UNL d   1      15.477  11.203  21.687 +0.05 +0.04    +0.222    28.554
ATOM     47  O   UNL d   1      14.293   9.213  20.591 -0.04 -0.05    -0.303    28.554
ATOM     48  H   UNL d   1      15.239   8.976  20.683 +0.03 +0.03    +0.222    28.554
TER
ENDMDL
MODEL       68
USER    Run = 68
USER    Cluster Rank = 66
USER    Number of conformations in this cluster = 1
USER  
USER    RMSD from reference structure       = 56.864 A
USER  
USER    Estimated Free Energy of Binding    =   +4.63 kcal/mol  [=(1)+(2)+(3)-(4)]
USER    
USER    (1) Final Intermolecular Energy     =   -2.53 kcal/mol
USER        vdW + Hbond + desolv Energy     =   -2.45 kcal/mol
USER        Electrostatic Energy            =   -0.07 kcal/mol
USER    (2) Final Total Internal Energy     =  -15.13 kcal/mol
USER    (3) Torsional Free Energy           =   +7.16 kcal/mol
USER    (4) Unbound System's Energy  [=(2)] =  -15.13 kcal/mol
USER    
USER    
USER  
USER    DPF = D:/Protein_go_brrr/autodock/final/6BB5/IHP/dock.dpf
USER    NEWDPF move	IHP_ideal_opt.pdbqt
USER    NEWDPF about	0.035000 0.082000 -0.065000
USER    NEWDPF tran0	53.308276 31.253091 -0.101297
USER    NEWDPF axisangle0	-0.714523 0.065406 0.696548 39.634082
USER    NEWDPF quaternion0	-0.242236 0.022174 0.236142 0.940780
USER    NEWDPF dihe0	141.55 101.89 74.89 74.55 -16.14 -136.68 16.73 67.24 34.20 13.33 61.18 -84.00 133.76 145.48 2.86 132.04 170.08 104.92 12.22 -17.64 163.50 3.31 -11.96 171.90 
USER  
USER                              x       y       z    vdW   Elec        q     RMS 
ATOM      1  C   UNL d   1      53.912  29.646   0.091 -0.00 -0.00    +0.194    56.864
ATOM      2  C   UNL d   1      52.513  29.758  -0.519 -0.02 -0.00    +0.194    56.864
ATOM      3  C   UNL d   1      51.658  30.796   0.212 -0.06 -0.00    +0.194    56.864
ATOM      4  C   UNL d   1      52.342  32.154   0.343 -0.02 +0.01    +0.194    56.864
ATOM      5  C   UNL d   1      53.780  32.080   0.839 -0.00 +0.00    +0.194    56.864
ATOM      6  C   UNL d   1      54.618  31.001   0.151 +0.00 +0.00    +0.194    56.864
ATOM      7  O   UNL d   1      54.696  28.793  -0.746 +0.00 -0.00    -0.278    56.864
ATOM      8  P   UNL d   1      55.105  27.352  -0.192 +0.01 +0.01    +0.473    56.864
ATOM      9  O   UNL d   1      56.024  26.576  -1.068 +0.00 -0.01    -0.228    56.864
ATOM     10  O   UNL d   1      55.718  27.652   1.251 +0.00 -0.00    -0.303    56.864
ATOM     11  H   UNL d   1      55.929  28.601   1.325 +0.01 +0.00    +0.222    56.864
ATOM     12  O   UNL d   1      53.730  26.644   0.172 -0.00 -0.00    -0.303    56.864
ATOM     13  H   UNL d   1      53.108  26.595  -0.589 +0.01 +0.00    +0.222    56.864
ATOM     14  O   UNL d   1      52.632  30.151  -1.892 -0.00 -0.00    -0.278    56.864
ATOM     15  P   UNL d   1      52.167  29.078  -2.986 +0.00 +0.00    +0.473    56.864
ATOM     16  O   UNL d   1      52.712  29.248  -4.369 -0.00 -0.00    -0.228    56.864
ATOM     17  O   UNL d   1      52.551  27.673  -2.339 -0.00 -0.00    -0.303    56.864
ATOM     18  H   UNL d   1      53.235  27.779  -1.650 +0.01 +0.00    +0.222    56.864
ATOM     19  O   UNL d   1      50.580  29.058  -2.872 -0.01 +0.01    -0.303    56.864
ATOM     20  H   UNL d   1      50.245  29.825  -2.371 +0.03 -0.01    +0.222    56.864
ATOM     21  O   UNL d   1      55.793  30.826   0.939 +0.00 -0.00    -0.278    56.864
ATOM     22  P   UNL d   1      55.665  30.343   2.454 +0.01 -0.01    +0.473    56.864
ATOM     23  O   UNL d   1      54.553  29.412   2.806 -0.03 +0.01    -0.228    56.864
ATOM     24  O   UNL d   1      57.125  29.777   2.740 +0.00 -0.00    -0.303    56.864
ATOM     25  H   UNL d   1      57.172  28.853   2.385 +0.00 +0.00    +0.222    56.864
ATOM     26  O   UNL d   1      55.690  31.738   3.244 +0.00 +0.01    -0.303    56.864
ATOM     27  H   UNL d   1      55.049  32.352   2.832 +0.02 -0.01    +0.222    56.864
ATOM     28  O   UNL d   1      50.500  31.030  -0.579 -0.05 +0.00    -0.278    56.864
ATOM     29  P   UNL d   1      49.061  30.608  -0.043 -0.20 -0.04    +0.473    56.864
ATOM     30  O   UNL d   1      48.191  31.726   0.405 -0.30 +0.01    -0.228    56.864
ATOM     31  O   UNL d   1      48.545  29.738  -1.283 -0.07 +0.07    -0.303    56.864
ATOM     32  H   UNL d   1      49.083  28.914  -1.333 -0.02 -0.04    +0.222    56.864
ATOM     33  O   UNL d   1      49.420  29.498   1.041 -0.62 +0.03    -0.303    56.864
ATOM     34  H   UNL d   1      48.996  29.738   1.900 -0.30 -0.03    +0.222    56.864
ATOM     35  O   UNL d   1      54.367  33.339   0.514 +0.00 -0.01    -0.278    56.864
ATOM     36  P   UNL d   1      54.922  34.290   1.667 +0.02 +0.01    +0.473    56.864
ATOM     37  O   UNL d   1      54.766  35.758   1.424 +0.00 -0.01    -0.228    56.864
ATOM     38  O   UNL d   1      54.134  33.751   2.942 -0.00 -0.01    -0.303    56.864
ATOM     39  H   UNL d   1      53.229  33.484   2.671 +0.04 +0.01    +0.222    56.864
ATOM     40  O   UNL d   1      56.402  33.746   1.874 +0.00 -0.00    -0.303    56.864
ATOM     41  H   UNL d   1      56.474  32.792   1.648 +0.00 +0.00    +0.222    56.864
ATOM     42  O   UNL d   1      51.600  32.901   1.313 -0.06 -0.03    -0.278    56.864
ATOM     43  P   UNL d   1      51.485  32.334   2.800 -0.11 +0.02    +0.473    56.864
ATOM     44  O   UNL d   1      51.337  33.324   3.903 -0.56 -0.11    -0.228    56.864
ATOM     45  O   UNL d   1      50.282  31.299   2.687 -0.22 +0.01    -0.303    56.864
ATOM     46  H   UNL d   1      49.803  31.397   1.840 +0.08 +0.01    +0.222    56.864
ATOM     47  O   UNL d   1      52.748  31.353   2.916 -0.08 +0.04    -0.303    56.864
ATOM     48  H   UNL d   1      53.497  31.838   3.321 +0.05 -0.03    +0.222    56.864
TER
ENDMDL
MODEL       94
USER    Run = 94
USER    Cluster Rank = 67
USER    Number of conformations in this cluster = 1
USER  
USER    RMSD from reference structure       = 12.020 A
USER  
USER    Estimated Free Energy of Binding    =   +4.64 kcal/mol  [=(1)+(2)+(3)-(4)]
USER    
USER    (1) Final Intermolecular Energy     =   -2.52 kcal/mol
USER        vdW + Hbond + desolv Energy     =   -2.46 kcal/mol
USER        Electrostatic Energy            =   -0.06 kcal/mol
USER    (2) Final Total Internal Energy     =  -12.93 kcal/mol
USER    (3) Torsional Free Energy           =   +7.16 kcal/mol
USER    (4) Unbound System's Energy  [=(2)] =  -12.93 kcal/mol
USER    
USER    
USER  
USER    DPF = D:/Protein_go_brrr/autodock/final/6BB5/IHP/dock.dpf
USER    NEWDPF move	IHP_ideal_opt.pdbqt
USER    NEWDPF about	0.035000 0.082000 -0.065000
USER    NEWDPF tran0	7.109563 10.080956 8.524290
USER    NEWDPF axisangle0	0.724298 0.565892 -0.393902 -154.436913
USER    NEWDPF quaternion0	0.706350 0.551869 -0.384142 -0.221234
USER    NEWDPF dihe0	-161.10 -44.44 101.11 173.68 76.21 180.00 -47.39 -8.51 40.63 86.62 -179.77 103.86 77.41 90.32 64.66 177.07 -83.07 -169.23 -35.77 -23.26 10.91 -12.26 173.06 26.33 
USER  
USER                              x       y       z    vdW   Elec        q     RMS 
ATOM      1  C   UNL d   1       6.150  10.522   7.157 -0.07 -0.01    +0.194    12.020
ATOM      2  C   UNL d   1       5.377  10.269   8.453 -0.06 -0.02    +0.194    12.020
ATOM      3  C   UNL d   1       5.891   9.028   9.185 -0.02 -0.01    +0.194    12.020
ATOM      4  C   UNL d   1       7.402   9.043   9.408 -0.02 -0.01    +0.194    12.020
ATOM      5  C   UNL d   1       8.208   9.405   8.167 -0.03 -0.01    +0.194    12.020
ATOM      6  C   UNL d   1       7.658  10.609   7.400 -0.08 -0.02    +0.194    12.020
ATOM      7  O   UNL d   1       5.731  11.782   6.627 -0.14 +0.03    -0.278    12.020
ATOM      8  P   UNL d   1       5.954  12.063   5.070 -0.10 -0.02    +0.473    12.020
ATOM      9  O   UNL d   1       4.751  12.542   4.337 -0.14 +0.00    -0.228    12.020
ATOM     10  O   UNL d   1       7.166  13.100   5.034 -0.21 +0.03    -0.303    12.020
ATOM     11  H   UNL d   1       7.838  12.841   5.693 -0.30 -0.05    +0.222    12.020
ATOM     12  O   UNL d   1       6.631  10.741   4.505 -0.03 -0.00    -0.303    12.020
ATOM     13  H   UNL d   1       7.613  10.760   4.553 +0.03 +0.00    +0.222    12.020
ATOM     14  O   UNL d   1       5.527  11.403   9.316 -0.12 +0.05    -0.278    12.020
ATOM     15  P   UNL d   1       4.238  12.333   9.506 -0.08 -0.07    +0.473    12.020
ATOM     16  O   UNL d   1       4.057  12.963  10.851 -0.13 +0.08    -0.228    12.020
ATOM     17  O   UNL d   1       4.356  13.405   8.333 -0.20 +0.01    -0.303    12.020
ATOM     18  H   UNL d   1       5.108  13.200   7.744 -0.03 -0.03    +0.222    12.020
ATOM     19  O   UNL d   1       3.025  11.438   8.999 -0.02 +0.02    -0.303    12.020
ATOM     20  H   UNL d   1       2.415  11.212   9.726 +0.02 -0.02    +0.222    12.020
ATOM     21  O   UNL d   1       8.288  10.606   6.121 -0.04 +0.01    -0.278    12.020
ATOM     22  P   UNL d   1       9.643  11.421   5.904 -0.02 +0.00    +0.473    12.020
ATOM     23  O   UNL d   1      10.935  10.690   6.046 -0.01 -0.01    -0.228    12.020
ATOM     24  O   UNL d   1       9.401  12.079   4.476 -0.04 -0.02    -0.303    12.020
ATOM     25  H   UNL d   1       8.453  11.935   4.226 +0.05 +0.01    +0.222    12.020
ATOM     26  O   UNL d   1       9.431  12.671   6.885 -0.02 +0.05    -0.303    12.020
ATOM     27  H   UNL d   1       8.607  12.542   7.397 -0.49 -0.10    +0.222    12.020
ATOM     28  O   UNL d   1       5.318   9.031  10.487 -0.01 +0.03    -0.278    12.020
ATOM     29  P   UNL d   1       4.030   8.148  10.800 +0.01 -0.02    +0.473    12.020
ATOM     30  O   UNL d   1       3.900   7.681  12.204 -0.00 +0.01    -0.228    12.020
ATOM     31  O   UNL d   1       2.885   9.121  10.250 -0.00 +0.02    -0.303    12.020
ATOM     32  H   UNL d   1       3.312   9.907   9.837 +0.02 -0.02    +0.222    12.020
ATOM     33  O   UNL d   1       4.111   7.027   9.673 -0.00 +0.00    -0.303    12.020
ATOM     34  H   UNL d   1       5.017   6.632   9.677 +0.00 -0.00    +0.222    12.020
ATOM     35  O   UNL d   1       9.505   9.765   8.639 -0.02 +0.00    -0.278    12.020
ATOM     36  P   UNL d   1       9.673  10.925   9.721 -0.06 -0.03    +0.473    12.020
ATOM     37  O   UNL d   1       8.766  12.102   9.551 -0.10 +0.05    -0.228    12.020
ATOM     38  O   UNL d   1       9.467  10.131  11.086 -0.03 +0.02    -0.303    12.020
ATOM     39  H   UNL d   1       8.868   9.369  10.927 +0.02 -0.01    +0.222    12.020
ATOM     40  O   UNL d   1      11.238  11.208   9.675 -0.02 -0.04    -0.303    12.020
ATOM     41  H   UNL d   1      11.572  11.259   8.752 +0.03 +0.03    +0.222    12.020
ATOM     42  O   UNL d   1       7.779   7.714   9.782 -0.00 +0.00    -0.278    12.020
ATOM     43  P   UNL d   1       7.661   7.281  11.313 +0.01 -0.01    +0.473    12.020
ATOM     44  O   UNL d   1       8.892   6.773  11.980 -0.00 -0.00    -0.228    12.020
ATOM     45  O   UNL d   1       7.038   8.577  11.995 -0.01 +0.02    -0.303    12.020
ATOM     46  H   UNL d   1       6.101   8.438  12.239 +0.01 -0.02    +0.222    12.020
ATOM     47  O   UNL d   1       6.410   6.279  11.315 +0.00 +0.00    -0.303    12.020
ATOM     48  H   UNL d   1       5.580   6.798  11.266 +0.00 -0.00    +0.222    12.020
TER
ENDMDL
MODEL       71
USER    Run = 71
USER    Cluster Rank = 68
USER    Number of conformations in this cluster = 1
USER  
USER    RMSD from reference structure       = 58.492 A
USER  
USER    Estimated Free Energy of Binding    =   +4.66 kcal/mol  [=(1)+(2)+(3)-(4)]
USER    
USER    (1) Final Intermolecular Energy     =   -2.50 kcal/mol
USER        vdW + Hbond + desolv Energy     =   -2.56 kcal/mol
USER        Electrostatic Energy            =   +0.06 kcal/mol
USER    (2) Final Total Internal Energy     =  -15.05 kcal/mol
USER    (3) Torsional Free Energy           =   +7.16 kcal/mol
USER    (4) Unbound System's Energy  [=(2)] =  -15.05 kcal/mol
USER    
USER    
USER  
USER    DPF = D:/Protein_go_brrr/autodock/final/6BB5/IHP/dock.dpf
USER    NEWDPF move	IHP_ideal_opt.pdbqt
USER    NEWDPF about	0.035000 0.082000 -0.065000
USER    NEWDPF tran0	51.191629 36.369253 2.161617
USER    NEWDPF axisangle0	0.719202 0.222842 0.658096 149.285985
USER    NEWDPF quaternion0	0.693522 0.214886 0.634598 0.264833
USER    NEWDPF dihe0	-124.51 -24.45 152.69 28.39 140.15 119.52 -17.97 -168.77 109.62 0.33 143.56 141.98 -169.87 -178.55 -120.41 119.98 57.59 62.19 54.28 1.50 -5.49 -14.24 -16.21 -17.88 
USER  
USER                              x       y       z    vdW   Elec        q     RMS 
ATOM      1  C   UNL d   1      51.363  37.509   3.448 -0.08 +0.06    +0.194    58.492
ATOM      2  C   UNL d   1      50.443  37.938   2.304 -0.05 +0.04    +0.194    58.492
ATOM      3  C   UNL d   1      51.042  37.598   0.937 -0.01 +0.02    +0.194    58.492
ATOM      4  C   UNL d   1      51.473  36.138   0.816 -0.03 +0.03    +0.194    58.492
ATOM      5  C   UNL d   1      52.298  35.635   1.994 -0.04 +0.04    +0.194    58.492
ATOM      6  C   UNL d   1      51.731  36.028   3.360 -0.07 +0.10    +0.194    58.492
ATOM      7  O   UNL d   1      50.662  37.701   4.679 -0.20 -0.14    -0.278    58.492
ATOM      8  P   UNL d   1      50.346  39.195   5.148 -0.16 +0.06    +0.473    58.492
ATOM      9  O   UNL d   1      50.968  39.596   6.439 -0.28 -0.01    -0.228    58.492
ATOM     10  O   UNL d   1      50.818  40.095   3.918 -0.05 -0.01    -0.303    58.492
ATOM     11  H   UNL d   1      50.148  40.056   3.209 +0.06 +0.01    +0.222    58.492
ATOM     12  O   UNL d   1      48.765  39.327   5.070 -0.24 -0.02    -0.303    58.492
ATOM     13  H   UNL d   1      48.423  39.326   4.147 +0.09 +0.03    +0.222    58.492
ATOM     14  O   UNL d   1      49.188  37.257   2.434 -0.07 -0.10    -0.278    58.492
ATOM     15  P   UNL d   1      47.869  38.153   2.281 -0.07 +0.08    +0.473    58.492
ATOM     16  O   UNL d   1      46.909  38.136   3.429 -0.23 -0.04    -0.228    58.492
ATOM     17  O   UNL d   1      48.426  39.611   1.963 -0.04 -0.02    -0.303    58.492
ATOM     18  H   UNL d   1      48.995  39.605   1.170 +0.03 +0.01    +0.222    58.492
ATOM     19  O   UNL d   1      47.262  37.728   0.873 -0.05 -0.02    -0.303    58.492
ATOM     20  H   UNL d   1      47.960  37.469   0.244 +0.04 +0.02    +0.222    58.492
ATOM     21  O   UNL d   1      52.763  35.795   4.316 -0.08 -0.08    -0.278    58.492
ATOM     22  P   UNL d   1      52.641  34.570   5.330 -0.08 +0.07    +0.473    58.492
ATOM     23  O   UNL d   1      51.969  34.803   6.640 -0.29 +0.03    -0.228    58.492
ATOM     24  O   UNL d   1      51.958  33.459   4.417 -0.73 -0.07    -0.303    58.492
ATOM     25  H   UNL d   1      52.640  33.117   3.785 +0.05 -0.00    +0.222    58.492
ATOM     26  O   UNL d   1      54.158  34.053   5.399 -0.04 +0.04    -0.303    58.492
ATOM     27  H   UNL d   1      54.477  33.870   4.492 +0.03 -0.01    +0.222    58.492
ATOM     28  O   UNL d   1      50.018  37.771  -0.034 -0.01 -0.02    -0.278    58.492
ATOM     29  P   UNL d   1      49.910  39.132  -0.855 +0.00 +0.02    +0.473    58.492
ATOM     30  O   UNL d   1      50.599  39.143  -2.171 -0.00 -0.01    -0.228    58.492
ATOM     31  O   UNL d   1      48.321  39.326  -0.865 -0.00 -0.01    -0.303    58.492
ATOM     32  H   UNL d   1      47.957  38.975  -0.020 +0.02 +0.01    +0.222    58.492
ATOM     33  O   UNL d   1      50.388  40.207   0.217 -0.00 -0.01    -0.303    58.492
ATOM     34  H   UNL d   1      49.612  40.752   0.495 +0.02 +0.00    +0.222    58.492
ATOM     35  O   UNL d   1      52.256  34.212   1.915 -0.05 -0.05    -0.278    58.492
ATOM     36  P   UNL d   1      53.586  33.382   1.619 +0.01 +0.02    +0.473    58.492
ATOM     37  O   UNL d   1      54.218  32.730   2.808 -0.01 +0.01    -0.228    58.492
ATOM     38  O   UNL d   1      53.093  32.364   0.499 -0.00 -0.01    -0.303    58.492
ATOM     39  H   UNL d   1      52.487  32.831  -0.116 +0.02 +0.01    +0.222    58.492
ATOM     40  O   UNL d   1      54.471  34.434   0.818 +0.00 -0.01    -0.303    58.492
ATOM     41  H   UNL d   1      53.934  34.943   0.171 +0.01 +0.01    +0.222    58.492
ATOM     42  O   UNL d   1      52.301  36.046  -0.348 -0.00 -0.02    -0.278    58.492
ATOM     43  P   UNL d   1      51.977  34.928  -1.439 +0.00 +0.02    +0.473    58.492
ATOM     44  O   UNL d   1      51.397  35.380  -2.734 -0.00 -0.01    -0.228    58.492
ATOM     45  O   UNL d   1      53.367  34.165  -1.579 -0.00 -0.01    -0.303    58.492
ATOM     46  H   UNL d   1      53.568  33.638  -0.780 +0.01 +0.01    +0.222    58.492
ATOM     47  O   UNL d   1      51.101  33.863  -0.622 -0.01 -0.02    -0.303    58.492
ATOM     48  H   UNL d   1      51.469  33.768   0.281 +0.03 +0.02    +0.222    58.492
TER
ENDMDL
MODEL       53
USER    Run = 53
USER    Cluster Rank = 69
USER    Number of conformations in this cluster = 1
USER  
USER    RMSD from reference structure       = 60.552 A
USER  
USER    Estimated Free Energy of Binding    =   +4.67 kcal/mol  [=(1)+(2)+(3)-(4)]
USER    
USER    (1) Final Intermolecular Energy     =   -2.49 kcal/mol
USER        vdW + Hbond + desolv Energy     =   -2.54 kcal/mol
USER        Electrostatic Energy            =   +0.05 kcal/mol
USER    (2) Final Total Internal Energy     =  -14.34 kcal/mol
USER    (3) Torsional Free Energy           =   +7.16 kcal/mol
USER    (4) Unbound System's Energy  [=(2)] =  -14.34 kcal/mol
USER    
USER    
USER  
USER    DPF = D:/Protein_go_brrr/autodock/final/6BB5/IHP/dock.dpf
USER    NEWDPF move	IHP_ideal_opt.pdbqt
USER    NEWDPF about	0.035000 0.082000 -0.065000
USER    NEWDPF tran0	40.621979 40.755870 29.527070
USER    NEWDPF axisangle0	0.872332 0.075063 0.483118 -114.870298
USER    NEWDPF quaternion0	0.735186 0.063262 0.407163 -0.538254
USER    NEWDPF dihe0	120.40 63.90 28.66 90.26 171.79 145.92 -91.59 28.10 92.98 -60.33 149.28 97.22 169.49 -171.54 -169.31 59.78 45.91 87.47 34.10 -11.86 179.60 157.52 17.44 -45.27 
USER  
USER                              x       y       z    vdW   Elec        q     RMS 
ATOM      1  C   UNL d   1      42.284  41.203  29.373 -0.03 +0.05    +0.194    60.552
ATOM      2  C   UNL d   1      41.491  41.144  28.066 -0.07 +0.02    +0.194    60.552
ATOM      3  C   UNL d   1      40.588  39.911  28.006 +0.05 +0.06    +0.194    60.552
ATOM      4  C   UNL d   1      39.691  39.762  29.232 -0.13 +0.08    +0.194    60.552
ATOM      5  C   UNL d   1      40.421  39.927  30.559 -0.07 +0.08    +0.194    60.552
ATOM      6  C   UNL d   1      41.371  41.126  30.597 -0.02 +0.05    +0.194    60.552
ATOM      7  O   UNL d   1      42.963  42.459  29.426 -0.00 -0.03    -0.278    60.552
ATOM      8  P   UNL d   1      44.418  42.563  28.774 +0.01 +0.04    +0.473    60.552
ATOM      9  O   UNL d   1      45.406  43.353  29.559 +0.00 -0.02    -0.228    60.552
ATOM     10  O   UNL d   1      44.856  41.044  28.561 -0.00 -0.04    -0.303    60.552
ATOM     11  H   UNL d   1      44.540  40.505  29.309 +0.02 +0.05    +0.222    60.552
ATOM     12  O   UNL d   1      44.168  43.050  27.283 +0.00 -0.01    -0.303    60.552
ATOM     13  H   UNL d   1      43.282  43.458  27.154 +0.02 +0.00    +0.222    60.552
ATOM     14  O   UNL d   1      40.671  42.316  27.964 -0.02 -0.01    -0.278    60.552
ATOM     15  P   UNL d   1      40.935  43.266  26.703 +0.01 -0.02    +0.473    60.552
ATOM     16  O   UNL d   1      41.430  44.648  26.995 -0.01 -0.00    -0.228    60.552
ATOM     17  O   UNL d   1      41.939  42.431  25.791 -0.04 +0.04    -0.303    60.552
ATOM     18  H   UNL d   1      42.808  42.331  26.225 +0.04 -0.02    +0.222    60.552
ATOM     19  O   UNL d   1      39.591  43.184  25.856 -0.06 +0.03    -0.303    60.552
ATOM     20  H   UNL d   1      38.814  43.035  26.426 +0.09 -0.02    +0.222    60.552
ATOM     21  O   UNL d   1      42.211  40.949  31.735 -0.00 -0.06    -0.278    60.552
ATOM     22  P   UNL d   1      43.421  39.911  31.673 -0.00 +0.15    +0.473    60.552
ATOM     23  O   UNL d   1      43.680  39.058  32.868 -0.00 -0.06    -0.228    60.552
ATOM     24  O   UNL d   1      43.092  39.108  30.339 -0.28 -0.25    -0.303    60.552
ATOM     25  H   UNL d   1      43.723  39.407  29.635 +0.02 +0.14    +0.222    60.552
ATOM     26  O   UNL d   1      44.632  40.850  31.204 +0.00 -0.06    -0.303    60.552
ATOM     27  H   UNL d   1      44.277  41.594  30.675 +0.01 +0.04    +0.222    60.552
ATOM     28  O   UNL d   1      39.701  40.083  26.908 -0.18 +0.05    -0.278    60.552
ATOM     29  P   UNL d   1      38.276  40.762  27.123 -0.21 -0.03    +0.473    60.552
ATOM     30  O   UNL d   1      38.224  41.827  28.158 -0.21 -0.01    -0.228    60.552
ATOM     31  O   UNL d   1      37.942  41.194  25.619 -0.17 +0.07    -0.303    60.552
ATOM     32  H   UNL d   1      38.767  41.532  25.199 +0.13 -0.07    +0.222    60.552
ATOM     33  O   UNL d   1      37.333  39.498  27.344 -0.60 -0.03    -0.303    60.552
ATOM     34  H   UNL d   1      37.338  39.257  28.302 +0.07 +0.03    +0.222    60.552
ATOM     35  O   UNL d   1      39.405  40.164  31.532 -0.05 -0.06    -0.278    60.552
ATOM     36  P   UNL d   1      39.595  39.658  33.032 -0.00 +0.09    +0.473    60.552
ATOM     37  O   UNL d   1      40.249  40.629  33.963 -0.01 -0.03    -0.228    60.552
ATOM     38  O   UNL d   1      38.105  39.267  33.436 -0.03 -0.03    -0.303    60.552
ATOM     39  H   UNL d   1      37.589  39.086  32.621 +0.04 +0.02    +0.222    60.552
ATOM     40  O   UNL d   1      40.317  38.255  32.829 -0.01 -0.10    -0.303    60.552
ATOM     41  H   UNL d   1      39.691  37.505  32.934 +0.02 +0.07    +0.222    60.552
ATOM     42  O   UNL d   1      39.167  38.429  29.203 -0.14 -0.19    -0.278    60.552
ATOM     43  P   UNL d   1      37.803  38.120  29.970 -0.13 +0.12    +0.473    60.552
ATOM     44  O   UNL d   1      36.768  37.335  29.242 -0.53 -0.05    -0.228    60.552
ATOM     45  O   UNL d   1      38.307  37.440  31.318 -0.07 -0.10    -0.303    60.552
ATOM     46  H   UNL d   1      38.663  38.104  31.942 +0.05 +0.06    +0.222    60.552
ATOM     47  O   UNL d   1      37.338  39.564  30.488 -0.03 +0.00    -0.303    60.552
ATOM     48  H   UNL d   1      37.794  39.767  31.331 +0.00 +0.02    +0.222    60.552
TER
ENDMDL
MODEL       16
USER    Run = 16
USER    Cluster Rank = 70
USER    Number of conformations in this cluster = 1
USER  
USER    RMSD from reference structure       = 64.272 A
USER  
USER    Estimated Free Energy of Binding    =   +4.69 kcal/mol  [=(1)+(2)+(3)-(4)]
USER    
USER    (1) Final Intermolecular Energy     =   -2.47 kcal/mol
USER        vdW + Hbond + desolv Energy     =   -2.37 kcal/mol
USER        Electrostatic Energy            =   -0.10 kcal/mol
USER    (2) Final Total Internal Energy     =  -14.20 kcal/mol
USER    (3) Torsional Free Energy           =   +7.16 kcal/mol
USER    (4) Unbound System's Energy  [=(2)] =  -14.20 kcal/mol
USER    
USER    
USER  
USER    DPF = D:/Protein_go_brrr/autodock/final/6BB5/IHP/dock.dpf
USER    NEWDPF move	IHP_ideal_opt.pdbqt
USER    NEWDPF about	0.035000 0.082000 -0.065000
USER    NEWDPF tran0	38.552465 51.748590 23.466087
USER    NEWDPF axisangle0	-0.963116 -0.266498 -0.037221 151.808990
USER    NEWDPF quaternion0	-0.934118 -0.258474 -0.036100 0.243539
USER    NEWDPF dihe0	103.07 112.91 121.97 166.52 7.15 -142.27 -7.80 -174.89 129.17 -54.06 31.56 -121.75 -53.43 80.34 -55.56 -84.16 167.35 -17.60 30.18 -16.45 176.49 -23.45 22.25 142.46 
USER  
USER                              x       y       z    vdW   Elec        q     RMS 
ATOM      1  C   UNL d   1      39.375  52.695  22.277 -0.05 +0.14    +0.194    64.272
ATOM      2  C   UNL d   1      37.851  52.832  22.294 -0.06 +0.17    +0.194    64.272
ATOM      3  C   UNL d   1      37.161  51.476  22.456 -0.09 +0.14    +0.194    64.272
ATOM      4  C   UNL d   1      37.682  50.675  23.647 -0.03 +0.07    +0.194    64.272
ATOM      5  C   UNL d   1      39.201  50.609  23.734 -0.01 +0.06    +0.194    64.272
ATOM      6  C   UNL d   1      39.894  51.955  23.511 -0.01 +0.07    +0.194    64.272
ATOM      7  O   UNL d   1      39.941  54.007  22.298 -0.01 -0.14    -0.278    64.272
ATOM      8  P   UNL d   1      40.282  54.708  20.903 -0.03 +0.31    +0.473    64.272
ATOM      9  O   UNL d   1      40.005  53.882  19.697 -0.51 -0.36    -0.228    64.272
ATOM     10  O   UNL d   1      39.448  56.067  20.940 -0.01 -0.14    -0.303    64.272
ATOM     11  H   UNL d   1      38.508  55.869  21.108 +0.01 +0.12    +0.222    64.272
ATOM     12  O   UNL d   1      41.775  55.230  21.058 +0.00 -0.09    -0.303    64.272
ATOM     13  H   UNL d   1      42.434  54.502  21.118 +0.01 +0.06    +0.222    64.272
ATOM     14  O   UNL d   1      37.470  53.672  23.390 -0.01 -0.12    -0.278    64.272
ATOM     15  P   UNL d   1      36.780  55.068  23.017 +0.00 +0.17    +0.473    64.272
ATOM     16  O   UNL d   1      35.574  55.457  23.814 +0.00 -0.05    -0.228    64.272
ATOM     17  O   UNL d   1      37.964  56.128  23.131 +0.00 -0.08    -0.303    64.272
ATOM     18  H   UNL d   1      38.831  55.705  22.980 +0.01 +0.07    +0.222    64.272
ATOM     19  O   UNL d   1      36.567  54.996  21.442 -0.03 -0.20    -0.303    64.272
ATOM     20  H   UNL d   1      35.629  54.865  21.211 +0.03 +0.13    +0.222    64.272
ATOM     21  O   UNL d   1      41.273  51.676  23.282 -0.00 -0.07    -0.278    64.272
ATOM     22  P   UNL d   1      41.734  51.055  21.886 -0.01 +0.15    +0.473    64.272
ATOM     23  O   UNL d   1      40.740  50.265  21.103 -0.07 -0.12    -0.228    64.272
ATOM     24  O   UNL d   1      42.310  52.334  21.135 -0.01 -0.10    -0.303    64.272
ATOM     25  H   UNL d   1      41.584  53.005  21.068 +0.02 +0.11    +0.222    64.272
ATOM     26  O   UNL d   1      43.076  50.282  22.301 -0.00 -0.05    -0.303    64.272
ATOM     27  H   UNL d   1      42.924  49.800  23.139 +0.01 +0.03    +0.222    64.272
ATOM     28  O   UNL d   1      35.790  51.724  22.737 -0.07 -0.14    -0.278    64.272
ATOM     29  P   UNL d   1      34.746  51.912  21.550 -0.16 +0.27    +0.473    64.272
ATOM     30  O   UNL d   1      34.211  53.288  21.379 -0.09 -0.11    -0.228    64.272
ATOM     31  O   UNL d   1      35.593  51.306  20.335 -0.34 -0.38    -0.303    64.272
ATOM     32  H   UNL d   1      36.026  50.475  20.638 +0.06 +0.22    +0.222    64.272
ATOM     33  O   UNL d   1      33.688  50.761  21.849 -0.16 -0.08    -0.303    64.272
ATOM     34  H   UNL d   1      33.705  50.108  21.107 -0.25 -0.03    +0.222    64.272
ATOM     35  O   UNL d   1      39.494  50.202  25.069 +0.00 -0.05    -0.278    64.272
ATOM     36  P   UNL d   1      40.843  49.414  25.392 +0.00 +0.05    +0.473    64.272
ATOM     37  O   UNL d   1      40.762  48.431  26.517 -0.00 -0.02    -0.228    64.272
ATOM     38  O   UNL d   1      41.187  48.764  23.979 -0.00 -0.04    -0.303    64.272
ATOM     39  H   UNL d   1      41.290  49.478  23.314 +0.02 +0.04    +0.222    64.272
ATOM     40  O   UNL d   1      41.900  50.593  25.539 +0.00 -0.03    -0.303    64.272
ATOM     41  H   UNL d   1      42.389  50.750  24.701 +0.00 +0.03    +0.222    64.272
ATOM     42  O   UNL d   1      37.210  49.334  23.482 -0.05 -0.07    -0.278    64.272
ATOM     43  P   UNL d   1      37.014  48.761  22.007 -0.13 +0.17    +0.473    64.272
ATOM     44  O   UNL d   1      37.877  49.324  20.931 -0.17 -0.16    -0.228    64.272
ATOM     45  O   UNL d   1      37.177  47.192  22.217 -0.18 -0.04    -0.303    64.272
ATOM     46  H   UNL d   1      37.908  46.987  22.833 +0.10 +0.03    +0.222    64.272
ATOM     47  O   UNL d   1      35.435  48.895  21.768 -0.16 -0.09    -0.303    64.272
ATOM     48  H   UNL d   1      35.169  49.831  21.888 +0.06 +0.09    +0.222    64.272
TER
ENDMDL
MODEL       86
USER    Run = 86
USER    Cluster Rank = 71
USER    Number of conformations in this cluster = 1
USER  
USER    RMSD from reference structure       = 55.057 A
USER  
USER    Estimated Free Energy of Binding    =   +4.78 kcal/mol  [=(1)+(2)+(3)-(4)]
USER    
USER    (1) Final Intermolecular Energy     =   -2.38 kcal/mol
USER        vdW + Hbond + desolv Energy     =   -2.35 kcal/mol
USER        Electrostatic Energy            =   -0.03 kcal/mol
USER    (2) Final Total Internal Energy     =  -13.64 kcal/mol
USER    (3) Torsional Free Energy           =   +7.16 kcal/mol
USER    (4) Unbound System's Energy  [=(2)] =  -13.64 kcal/mol
USER    
USER    
USER  
USER    DPF = D:/Protein_go_brrr/autodock/final/6BB5/IHP/dock.dpf
USER    NEWDPF move	IHP_ideal_opt.pdbqt
USER    NEWDPF about	0.035000 0.082000 -0.065000
USER    NEWDPF tran0	35.836634 31.643065 33.511265
USER    NEWDPF axisangle0	-0.841868 -0.331939 0.425528 -81.938915
USER    NEWDPF quaternion0	-0.551977 -0.217638 0.279000 -0.755059
USER    NEWDPF dihe0	-170.56 179.34 133.79 -4.21 78.21 115.88 4.02 -158.54 134.46 -31.55 141.46 -30.02 -107.58 -179.31 60.21 123.88 -179.96 97.47 51.08 7.73 180.00 -10.67 12.95 158.12 
USER  
USER                              x       y       z    vdW   Elec        q     RMS 
ATOM      1  C   UNL d   1      36.433  32.827  34.619 -0.01 +0.04    +0.194    55.057
ATOM      2  C   UNL d   1      35.878  31.549  35.252 -0.03 +0.07    +0.194    55.057
ATOM      3  C   UNL d   1      34.575  31.106  34.584 -0.08 +0.12    +0.194    55.057
ATOM      4  C   UNL d   1      34.685  30.997  33.065 -0.06 +0.14    +0.194    55.057
ATOM      5  C   UNL d   1      35.339  32.202  32.402 -0.11 +0.07    +0.194    55.057
ATOM      6  C   UNL d   1      36.609  32.684  33.107 -0.04 +0.05    +0.194    55.057
ATOM      7  O   UNL d   1      37.726  33.075  35.177 -0.00 -0.05    -0.278    55.057
ATOM      8  P   UNL d   1      37.817  33.563  36.695 +0.00 +0.06    +0.473    55.057
ATOM      9  O   UNL d   1      37.041  34.794  37.010 +0.00 -0.02    -0.228    55.057
ATOM     10  O   UNL d   1      37.348  32.293  37.538 +0.00 -0.05    -0.303    55.057
ATOM     11  H   UNL d   1      37.604  31.477  37.070 +0.00 +0.04    +0.222    55.057
ATOM     12  O   UNL d   1      39.371  33.621  37.018 +0.00 -0.04    -0.303    55.057
ATOM     13  H   UNL d   1      39.638  34.446  37.483 +0.00 +0.02    +0.222    55.057
ATOM     14  O   UNL d   1      36.844  30.500  35.110 -0.03 -0.12    -0.278    55.057
ATOM     15  P   UNL d   1      37.038  29.531  36.370 -0.01 +0.17    +0.473    55.057
ATOM     16  O   UNL d   1      38.425  29.414  36.920 -0.00 -0.05    -0.228    55.057
ATOM     17  O   UNL d   1      35.992  30.075  37.442 -0.00 -0.09    -0.303    55.057
ATOM     18  H   UNL d   1      35.163  30.358  37.012 +0.01 +0.08    +0.222    55.057
ATOM     19  O   UNL d   1      36.358  28.163  35.927 -0.05 -0.21    -0.303    55.057
ATOM     20  H   UNL d   1      35.400  28.268  35.779 +0.02 +0.24    +0.222    55.057
ATOM     21  O   UNL d   1      36.897  33.983  32.595 -0.02 -0.05    -0.278    55.057
ATOM     22  P   UNL d   1      36.065  35.241  33.114 +0.01 +0.04    +0.473    55.057
ATOM     23  O   UNL d   1      36.581  35.986  34.299 -0.01 -0.02    -0.228    55.057
ATOM     24  O   UNL d   1      35.927  36.110  31.788 -0.07 -0.01    -0.303    55.057
ATOM     25  H   UNL d   1      36.206  35.548  31.021 +0.09 +0.03    +0.222    55.057
ATOM     26  O   UNL d   1      34.594  34.622  33.259 -0.02 -0.01    -0.303    55.057
ATOM     27  H   UNL d   1      34.307  34.268  32.392 +0.07 +0.00    +0.222    55.057
ATOM     28  O   UNL d   1      34.288  29.789  35.037 -0.55 -0.37    -0.278    55.057
ATOM     29  P   UNL d   1      33.223  29.552  36.197 -0.03 +0.37    +0.473    55.057
ATOM     30  O   UNL d   1      31.859  29.172  35.747 -0.08 -0.19    -0.228    55.057
ATOM     31  O   UNL d   1      34.015  28.486  37.090 -0.03 -0.19    -0.303    55.057
ATOM     32  H   UNL d   1      34.890  28.869  37.334 +0.01 +0.10    +0.222    55.057
ATOM     33  O   UNL d   1      33.353  30.890  37.049 -0.00 -0.10    -0.303    55.057
ATOM     34  H   UNL d   1      33.925  30.715  37.836 +0.01 +0.06    +0.222    55.057
ATOM     35  O   UNL d   1      35.721  31.767  31.099 -0.17 -0.10    -0.278    55.057
ATOM     36  P   UNL d   1      35.620  32.762  29.856 -0.21 +0.09    +0.473    55.057
ATOM     37  O   UNL d   1      35.031  32.180  28.611 -0.45 -0.02    -0.228    55.057
ATOM     38  O   UNL d   1      34.784  33.970  30.473 -0.19 -0.02    -0.303    55.057
ATOM     39  H   UNL d   1      35.309  34.392  31.187 +0.09 +0.02    +0.222    55.057
ATOM     40  O   UNL d   1      37.101  33.333  29.756 -0.21 -0.08    -0.303    55.057
ATOM     41  H   UNL d   1      37.296  33.969  30.480 +0.10 +0.06    +0.222    55.057
ATOM     42  O   UNL d   1      33.349  30.911  32.558 -0.13 -0.21    -0.278    55.057
ATOM     43  P   UNL d   1      32.252  31.936  33.096 -0.07 +0.13    +0.473    55.057
ATOM     44  O   UNL d   1      31.241  32.434  32.122 -0.13 +0.01    -0.228    55.057
ATOM     45  O   UNL d   1      31.631  31.161  34.340 -0.04 -0.12    -0.303    55.057
ATOM     46  H   UNL d   1      32.277  31.082  35.071 +0.02 +0.10    +0.222    55.057
ATOM     47  O   UNL d   1      33.130  33.065  33.820 -0.02 -0.04    -0.303    55.057
ATOM     48  H   UNL d   1      32.670  33.927  33.747 +0.04 -0.01    +0.222    55.057
TER
ENDMDL
MODEL       74
USER    Run = 74
USER    Cluster Rank = 72
USER    Number of conformations in this cluster = 1
USER  
USER    RMSD from reference structure       = 40.025 A
USER  
USER    Estimated Free Energy of Binding    =   +4.78 kcal/mol  [=(1)+(2)+(3)-(4)]
USER    
USER    (1) Final Intermolecular Energy     =   -2.38 kcal/mol
USER        vdW + Hbond + desolv Energy     =   -2.34 kcal/mol
USER        Electrostatic Energy            =   -0.04 kcal/mol
USER    (2) Final Total Internal Energy     =  -16.67 kcal/mol
USER    (3) Torsional Free Energy           =   +7.16 kcal/mol
USER    (4) Unbound System's Energy  [=(2)] =  -16.67 kcal/mol
USER    
USER    
USER  
USER    DPF = D:/Protein_go_brrr/autodock/final/6BB5/IHP/dock.dpf
USER    NEWDPF move	IHP_ideal_opt.pdbqt
USER    NEWDPF about	0.035000 0.082000 -0.065000
USER    NEWDPF tran0	3.191892 43.213596 -7.001535
USER    NEWDPF axisangle0	-0.680088 0.585125 0.441712 155.160132
USER    NEWDPF quaternion0	-0.664172 0.571431 0.431375 0.215075
USER    NEWDPF dihe0	104.10 125.88 76.86 61.78 105.09 94.07 -98.88 8.12 2.71 67.19 140.69 112.33 -71.82 122.32 179.99 168.21 -55.20 -150.04 -149.08 -11.62 12.10 20.01 174.80 0.91 
USER  
USER                              x       y       z    vdW   Elec        q     RMS 
ATOM      1  C   UNL d   1       3.022  42.420  -8.526 -0.01 +0.02    +0.194    40.025
ATOM      2  C   UNL d   1       3.817  43.727  -8.547 -0.03 +0.03    +0.194    40.025
ATOM      3  C   UNL d   1       3.149  44.809  -7.696 -0.04 +0.05    +0.194    40.025
ATOM      4  C   UNL d   1       2.832  44.348  -6.276 -0.07 +0.07    +0.194    40.025
ATOM      5  C   UNL d   1       2.141  42.992  -6.203 -0.01 +0.05    +0.194    40.025
ATOM      6  C   UNL d   1       2.772  41.926  -7.101 -0.01 +0.03    +0.194    40.025
ATOM      7  O   UNL d   1       3.793  41.419  -9.195 -0.00 -0.01    -0.278    40.025
ATOM      8  P   UNL d   1       4.836  40.565  -8.337 +0.01 +0.01    +0.473    40.025
ATOM      9  O   UNL d   1       5.249  41.184  -7.048 -0.05 -0.01    -0.228    40.025
ATOM     10  O   UNL d   1       4.120  39.151  -8.154 -0.01 -0.02    -0.303    40.025
ATOM     11  H   UNL d   1       3.230  39.282  -7.776 +0.01 +0.02    +0.222    40.025
ATOM     12  O   UNL d   1       6.011  40.214  -9.347 -0.00 +0.02    -0.303    40.025
ATOM     13  H   UNL d   1       6.651  40.952  -9.466 +0.03 -0.03    +0.222    40.025
ATOM     14  O   UNL d   1       5.130  43.483  -8.027 -0.07 -0.04    -0.278    40.025
ATOM     15  P   UNL d   1       6.357  43.786  -9.010 -0.03 -0.02    +0.473    40.025
ATOM     16  O   UNL d   1       7.730  43.581  -8.453 -0.24 +0.09    -0.228    40.025
ATOM     17  O   UNL d   1       6.065  42.877 -10.285 -0.01 +0.03    -0.303    40.025
ATOM     18  H   UNL d   1       5.433  42.164 -10.072 +0.02 -0.01    +0.222    40.025
ATOM     19  O   UNL d   1       6.058  45.241  -9.580 -0.06 -0.01    -0.303    40.025
ATOM     20  H   UNL d   1       5.247  45.620  -9.194 +0.04 +0.03    +0.222    40.025
ATOM     21  O   UNL d   1       1.837  40.854  -7.187 +0.00 -0.04    -0.278    40.025
ATOM     22  P   UNL d   1       1.899  39.662  -6.129 +0.01 +0.08    +0.473    40.025
ATOM     23  O   UNL d   1       1.456  38.307  -6.567 -0.00 -0.03    -0.228    40.025
ATOM     24  O   UNL d   1       3.409  39.743  -5.635 -0.00 -0.05    -0.303    40.025
ATOM     25  H   UNL d   1       3.657  40.699  -5.558 +0.03 +0.04    +0.222    40.025
ATOM     26  O   UNL d   1       1.109  40.291  -4.883 +0.00 -0.08    -0.303    40.025
ATOM     27  H   UNL d   1       1.710  40.884  -4.388 +0.02 +0.07    +0.222    40.025
ATOM     28  O   UNL d   1       4.080  45.873  -7.549 -0.04 -0.11    -0.278    40.025
ATOM     29  P   UNL d   1       3.637  47.376  -7.837 -0.04 +0.17    +0.473    40.025
ATOM     30  O   UNL d   1       4.214  48.399  -6.928 -0.14 -0.13    -0.228    40.025
ATOM     31  O   UNL d   1       4.016  47.486  -9.388 -0.02 -0.05    -0.303    40.025
ATOM     32  H   UNL d   1       4.924  47.126  -9.515 +0.03 +0.03    +0.222    40.025
ATOM     33  O   UNL d   1       2.050  47.256  -7.870 -0.01 -0.09    -0.303    40.025
ATOM     34  H   UNL d   1       1.726  47.030  -6.964 +0.02 +0.09    +0.222    40.025
ATOM     35  O   UNL d   1       2.295  42.551  -4.855 -0.01 -0.08    -0.278    40.025
ATOM     36  P   UNL d   1       3.746  42.464  -4.198 -0.07 +0.16    +0.473    40.025
ATOM     37  O   UNL d   1       4.893  42.622  -5.145 -0.60 -0.09    -0.228    40.025
ATOM     38  O   UNL d   1       3.664  43.590  -3.076 -0.15 -0.15    -0.303    40.025
ATOM     39  H   UNL d   1       3.600  44.470  -3.507 +0.08 +0.14    +0.222    40.025
ATOM     40  O   UNL d   1       3.668  41.102  -3.381 -0.06 -0.11    -0.303    40.025
ATOM     41  H   UNL d   1       3.004  40.485  -3.763 +0.04 +0.08    +0.222    40.025
ATOM     42  O   UNL d   1       1.931  45.311  -5.718 -0.03 -0.13    -0.278    40.025
ATOM     43  P   UNL d   1       2.451  46.270  -4.555 -0.03 +0.50    +0.473    40.025
ATOM     44  O   UNL d   1       2.006  45.969  -3.165 -0.12 -0.23    -0.228    40.025
ATOM     45  O   UNL d   1       4.029  46.238  -4.755 -0.65 -0.40    -0.303    40.025
ATOM     46  H   UNL d   1       4.293  46.675  -5.589 +0.05 +0.24    +0.222    40.025
ATOM     47  O   UNL d   1       2.084  47.734  -5.096 -0.15 -0.37    -0.303    40.025
ATOM     48  H   UNL d   1       2.649  47.943  -5.868 +0.04 +0.22    +0.222    40.025
TER
ENDMDL
MODEL       43
USER    Run = 43
USER    Cluster Rank = 73
USER    Number of conformations in this cluster = 1
USER  
USER    RMSD from reference structure       = 30.202 A
USER  
USER    Estimated Free Energy of Binding    =   +4.79 kcal/mol  [=(1)+(2)+(3)-(4)]
USER    
USER    (1) Final Intermolecular Energy     =   -2.37 kcal/mol
USER        vdW + Hbond + desolv Energy     =   -2.36 kcal/mol
USER        Electrostatic Energy            =   -0.01 kcal/mol
USER    (2) Final Total Internal Energy     =  -14.79 kcal/mol
USER    (3) Torsional Free Energy           =   +7.16 kcal/mol
USER    (4) Unbound System's Energy  [=(2)] =  -14.79 kcal/mol
USER    
USER    
USER  
USER    DPF = D:/Protein_go_brrr/autodock/final/6BB5/IHP/dock.dpf
USER    NEWDPF move	IHP_ideal_opt.pdbqt
USER    NEWDPF about	0.035000 0.082000 -0.065000
USER    NEWDPF tran0	1.357512 23.333408 22.696925
USER    NEWDPF axisangle0	0.801945 -0.545020 0.244618 -166.242117
USER    NEWDPF quaternion0	0.796172 -0.541096 0.242857 -0.119772
USER    NEWDPF dihe0	-158.69 -2.90 93.58 141.58 21.96 179.92 -80.47 -17.79 20.16 130.04 27.67 170.25 21.55 -108.09 157.84 36.73 -52.09 -163.58 -4.62 -9.09 -23.53 11.61 -178.74 1.19 
USER  
USER                              x       y       z    vdW   Elec        q     RMS 
ATOM      1  C   UNL d   1       2.749  22.310  22.733 -0.07 +0.01    +0.194    30.202
ATOM      2  C   UNL d   1       3.024  23.791  22.461 -0.12 +0.00    +0.194    30.202
ATOM      3  C   UNL d   1       2.016  24.382  21.473 -0.06 +0.00    +0.194    30.202
ATOM      4  C   UNL d   1       0.564  24.128  21.871 -0.01 -0.00    +0.194    30.202
ATOM      5  C   UNL d   1       0.271  22.685  22.261 -0.00 -0.00    +0.194    30.202
ATOM      6  C   UNL d   1       1.313  22.074  23.201 -0.01 +0.00    +0.194    30.202
ATOM      7  O   UNL d   1       3.616  21.882  23.786 -0.07 -0.01    -0.278    30.202
ATOM      8  P   UNL d   1       4.524  20.590  23.543 -0.06 +0.03    +0.473    30.202
ATOM      9  O   UNL d   1       5.674  20.792  22.619 -0.57 -0.05    -0.228    30.202
ATOM     10  O   UNL d   1       4.967  20.147  25.010 -0.03 -0.00    -0.303    30.202
ATOM     11  H   UNL d   1       4.202  20.198  25.612 +0.03 +0.00    +0.222    30.202
ATOM     12  O   UNL d   1       3.506  19.439  23.141 -0.01 -0.01    -0.303    30.202
ATOM     13  H   UNL d   1       2.733  19.379  23.747 +0.01 +0.01    +0.222    30.202
ATOM     14  O   UNL d   1       2.934  24.516  23.694 -0.06 +0.01    -0.278    30.202
ATOM     15  P   UNL d   1       4.230  25.348  24.131 -0.16 -0.03    +0.473    30.202
ATOM     16  O   UNL d   1       5.527  24.602  24.169 -0.27 +0.04    -0.228    30.202
ATOM     17  O   UNL d   1       4.257  26.581  23.122 -0.23 +0.05    -0.303    30.202
ATOM     18  H   UNL d   1       3.527  26.524  22.477 +0.06 -0.02    +0.222    30.202
ATOM     19  O   UNL d   1       3.807  26.058  25.490 -0.07 +0.00    -0.303    30.202
ATOM     20  H   UNL d   1       3.894  25.456  26.253 +0.04 -0.00    +0.222    30.202
ATOM     21  O   UNL d   1       1.098  20.664  23.194 -0.00 -0.00    -0.278    30.202
ATOM     22  P   UNL d   1       0.878  19.890  24.571 +0.00 +0.00    +0.473    30.202
ATOM     23  O   UNL d   1       0.838  18.399  24.543 +0.00 -0.00    -0.228    30.202
ATOM     24  O   UNL d   1       2.029  20.509  25.479 +0.00 -0.00    -0.303    30.202
ATOM     25  H   UNL d   1       2.860  20.548  24.940 +0.02 +0.00    +0.222    30.202
ATOM     26  O   UNL d   1      -0.428  20.617  25.149 +0.00 -0.00    -0.303    30.202
ATOM     27  H   UNL d   1      -0.771  21.243  24.479 +0.00 -0.00    +0.222    30.202
ATOM     28  O   UNL d   1       2.172  25.795  21.497 -0.06 +0.00    -0.278    30.202
ATOM     29  P   UNL d   1       2.518  26.589  20.160 -0.10 -0.01    +0.473    30.202
ATOM     30  O   UNL d   1       2.414  25.803  18.904 -0.08 +0.00    -0.228    30.202
ATOM     31  O   UNL d   1       1.536  27.842  20.317 -0.06 +0.01    -0.303    30.202
ATOM     32  H   UNL d   1       0.751  27.562  20.841 +0.04 -0.01    +0.222    30.202
ATOM     33  O   UNL d   1       3.943  27.213  20.502 -0.23 +0.03    -0.303    30.202
ATOM     34  H   UNL d   1       4.484  26.537  20.979 -0.26 -0.05    +0.222    30.202
ATOM     35  O   UNL d   1      -0.966  22.719  22.970 +0.00 +0.00    -0.278    30.202
ATOM     36  P   UNL d   1      -1.195  23.784  24.135 +0.00 -0.00    +0.473    30.202
ATOM     37  O   UNL d   1       0.008  24.581  24.527 -0.00 +0.00    -0.228    30.202
ATOM     38  O   UNL d   1      -2.394  24.654  23.550 +0.00 +0.00    -0.303    30.202
ATOM     39  H   UNL d   1      -2.175  24.927  22.633 +0.00 -0.00    +0.222    30.202
ATOM     40  O   UNL d   1      -1.879  22.904  25.270 +0.00 +0.00    -0.303    30.202
ATOM     41  H   UNL d   1      -1.212  22.485  25.858 +0.00 -0.00    +0.222    30.202
ATOM     42  O   UNL d   1      -0.238  24.424  20.722 -0.00 +0.00    -0.278    30.202
ATOM     43  P   UNL d   1      -1.171  25.718  20.747 +0.00 -0.01    +0.473    30.202
ATOM     44  O   UNL d   1      -2.641  25.506  20.631 -0.00 +0.00    -0.228    30.202
ATOM     45  O   UNL d   1      -0.722  26.447  22.088 -0.00 +0.01    -0.303    30.202
ATOM     46  H   UNL d   1      -0.647  25.815  22.831 +0.01 -0.00    +0.222    30.202
ATOM     47  O   UNL d   1      -0.518  26.662  19.629 -0.00 +0.01    -0.303    30.202
ATOM     48  H   UNL d   1       0.349  26.293  19.360 +0.03 -0.01    +0.222    30.202
TER
ENDMDL
MODEL       54
USER    Run = 54
USER    Cluster Rank = 74
USER    Number of conformations in this cluster = 1
USER  
USER    RMSD from reference structure       = 63.049 A
USER  
USER    Estimated Free Energy of Binding    =   +4.79 kcal/mol  [=(1)+(2)+(3)-(4)]
USER    
USER    (1) Final Intermolecular Energy     =   -2.37 kcal/mol
USER        vdW + Hbond + desolv Energy     =   -2.24 kcal/mol
USER        Electrostatic Energy            =   -0.13 kcal/mol
USER    (2) Final Total Internal Energy     =  -13.99 kcal/mol
USER    (3) Torsional Free Energy           =   +7.16 kcal/mol
USER    (4) Unbound System's Energy  [=(2)] =  -13.99 kcal/mol
USER    
USER    
USER  
USER    DPF = D:/Protein_go_brrr/autodock/final/6BB5/IHP/dock.dpf
USER    NEWDPF move	IHP_ideal_opt.pdbqt
USER    NEWDPF about	0.035000 0.082000 -0.065000
USER    NEWDPF tran0	31.642085 53.415456 25.929311
USER    NEWDPF axisangle0	0.627319 0.450440 -0.635275 -116.294035
USER    NEWDPF quaternion0	0.532848 0.382606 -0.539606 -0.527741
USER    NEWDPF dihe0	81.73 -98.19 116.01 -34.38 115.95 137.83 -59.12 -26.15 78.98 93.21 158.57 -180.00 -178.29 -143.02 61.80 40.61 122.50 31.48 -27.64 -37.86 -13.66 -49.74 -7.64 -14.02 
USER  
USER                              x       y       z    vdW   Elec        q     RMS 
ATOM      1  C   UNL d   1      30.795  52.575  24.680 -0.11 +0.08    +0.194    63.049
ATOM      2  C   UNL d   1      29.917  53.257  25.730 -0.06 +0.08    +0.194    63.049
ATOM      3  C   UNL d   1      30.455  53.041  27.146 -0.05 +0.05    +0.194    63.049
ATOM      4  C   UNL d   1      31.928  53.416  27.294 -0.02 +0.03    +0.194    63.049
ATOM      5  C   UNL d   1      32.824  52.850  26.200 -0.03 +0.03    +0.194    63.049
ATOM      6  C   UNL d   1      32.257  53.011  24.788 -0.05 +0.05    +0.194    63.049
ATOM      7  O   UNL d   1      30.329  52.965  23.387 -0.11 -0.14    -0.278    63.049
ATOM      8  P   UNL d   1      30.514  51.943  22.173 -0.19 +0.24    +0.473    63.049
ATOM      9  O   UNL d   1      31.204  52.501  20.978 -0.20 -0.08    -0.228    63.049
ATOM     10  O   UNL d   1      31.283  50.706  22.823 -0.36 -0.11    -0.303    63.049
ATOM     11  H   UNL d   1      32.223  50.935  22.950 +0.10 +0.07    +0.222    63.049
ATOM     12  O   UNL d   1      29.067  51.338  21.918 -0.61 -0.34    -0.303    63.049
ATOM     13  H   UNL d   1      29.085  50.387  21.666 -0.14 +0.17    +0.222    63.049
ATOM     14  O   UNL d   1      29.881  54.665  25.465 -0.03 -0.08    -0.278    63.049
ATOM     15  P   UNL d   1      28.663  55.194  24.570 -0.02 +0.16    +0.473    63.049
ATOM     16  O   UNL d   1      28.861  55.174  23.087 -0.02 -0.08    -0.228    63.049
ATOM     17  O   UNL d   1      27.424  54.311  25.041 -0.07 -0.18    -0.303    63.049
ATOM     18  H   UNL d   1      27.585  53.920  25.921 +0.02 +0.12    +0.222    63.049
ATOM     19  O   UNL d   1      28.300  56.612  25.194 -0.00 -0.05    -0.303    63.049
ATOM     20  H   UNL d   1      27.584  56.543  25.853 +0.01 +0.04    +0.222    63.049
ATOM     21  O   UNL d   1      33.014  52.152  23.939 -0.07 -0.07    -0.278    63.049
ATOM     22  P   UNL d   1      33.906  52.777  22.773 -0.03 +0.15    +0.473    63.049
ATOM     23  O   UNL d   1      35.333  53.094  23.071 -0.03 -0.09    -0.228    63.049
ATOM     24  O   UNL d   1      33.687  51.726  21.598 -0.19 -0.10    -0.303    63.049
ATOM     25  H   UNL d   1      32.713  51.574  21.498 +0.04 +0.05    +0.222    63.049
ATOM     26  O   UNL d   1      32.998  54.007  22.292 -0.02 -0.09    -0.303    63.049
ATOM     27  H   UNL d   1      32.055  53.749  22.341 +0.06 +0.06    +0.222    63.049
ATOM     28  O   UNL d   1      29.752  53.925  28.011 -0.01 -0.05    -0.278    63.049
ATOM     29  P   UNL d   1      28.172  53.810  28.167 -0.02 +0.09    +0.473    63.049
ATOM     30  O   UNL d   1      27.566  52.557  27.647 -0.06 -0.08    -0.228    63.049
ATOM     31  O   UNL d   1      28.025  54.091  29.735 -0.00 -0.03    -0.303    63.049
ATOM     32  H   UNL d   1      28.925  54.123  30.134 +0.01 +0.02    +0.222    63.049
ATOM     33  O   UNL d   1      27.672  55.175  27.517 -0.01 -0.05    -0.303    63.049
ATOM     34  H   UNL d   1      28.286  55.426  26.784 +0.01 +0.04    +0.222    63.049
ATOM     35  O   UNL d   1      34.030  53.609  26.257 -0.00 -0.04    -0.278    63.049
ATOM     36  P   UNL d   1      35.431  52.878  26.476 +0.01 +0.06    +0.473    63.049
ATOM     37  O   UNL d   1      36.643  53.716  26.216 +0.00 -0.03    -0.228    63.049
ATOM     38  O   UNL d   1      35.301  52.365  27.977 -0.00 -0.03    -0.303    63.049
ATOM     39  H   UNL d   1      34.379  52.505  28.285 +0.01 +0.02    +0.222    63.049
ATOM     40  O   UNL d   1      35.266  51.559  25.604 -0.02 -0.05    -0.303    63.049
ATOM     41  H   UNL d   1      34.972  51.762  24.688 +0.04 +0.05    +0.222    63.049
ATOM     42  O   UNL d   1      32.375  52.859  28.535 -0.01 -0.03    -0.278    63.049
ATOM     43  P   UNL d   1      33.051  53.822  29.612 +0.00 +0.03    +0.473    63.049
ATOM     44  O   UNL d   1      32.149  54.694  30.416 -0.00 -0.01    -0.228    63.049
ATOM     45  O   UNL d   1      33.925  52.815  30.480 -0.00 -0.02    -0.303    63.049
ATOM     46  H   UNL d   1      34.803  52.664  30.077 +0.00 +0.01    +0.222    63.049
ATOM     47  O   UNL d   1      34.177  54.585  28.766 +0.00 -0.02    -0.303    63.049
ATOM     48  H   UNL d   1      34.165  54.257  27.843 +0.00 +0.02    +0.222    63.049
TER
ENDMDL
MODEL       22
USER    Run = 22
USER    Cluster Rank = 75
USER    Number of conformations in this cluster = 1
USER  
USER    RMSD from reference structure       = 49.619 A
USER  
USER    Estimated Free Energy of Binding    =   +4.87 kcal/mol  [=(1)+(2)+(3)-(4)]
USER    
USER    (1) Final Intermolecular Energy     =   -2.29 kcal/mol
USER        vdW + Hbond + desolv Energy     =   -2.27 kcal/mol
USER        Electrostatic Energy            =   -0.02 kcal/mol
USER    (2) Final Total Internal Energy     =  -15.31 kcal/mol
USER    (3) Torsional Free Energy           =   +7.16 kcal/mol
USER    (4) Unbound System's Energy  [=(2)] =  -15.31 kcal/mol
USER    
USER    
USER  
USER    DPF = D:/Protein_go_brrr/autodock/final/6BB5/IHP/dock.dpf
USER    NEWDPF move	IHP_ideal_opt.pdbqt
USER    NEWDPF about	0.035000 0.082000 -0.065000
USER    NEWDPF tran0	4.624014 52.215661 10.753644
USER    NEWDPF axisangle0	-0.336525 0.204114 0.919287 -159.310341
USER    NEWDPF quaternion0	-0.331055 0.200796 0.904344 -0.179572
USER    NEWDPF dihe0	108.58 124.66 87.42 25.69 123.36 87.98 -112.21 -21.80 111.25 120.13 -95.04 -140.86 -72.48 27.43 -176.06 61.76 41.13 -7.79 -153.75 -15.33 12.41 154.90 -172.70 133.51 
USER  
USER                              x       y       z    vdW   Elec        q     RMS 
ATOM      1  C   UNL d   1       3.716  53.596  10.250 -0.03 -0.00    +0.194    49.619
ATOM      2  C   UNL d   1       5.173  53.866  10.632 -0.03 -0.01    +0.194    49.619
ATOM      3  C   UNL d   1       5.574  53.114  11.903 -0.02 -0.01    +0.194    49.619
ATOM      4  C   UNL d   1       5.260  51.621  11.843 -0.04 -0.00    +0.194    49.619
ATOM      5  C   UNL d   1       3.852  51.302  11.355 -0.03 +0.02    +0.194    49.619
ATOM      6  C   UNL d   1       3.429  52.100  10.120 -0.06 +0.01    +0.194    49.619
ATOM      7  O   UNL d   1       3.474  54.190   8.972 -0.03 +0.00    -0.278    49.619
ATOM      8  P   UNL d   1       3.875  53.365   7.664 -0.06 -0.00    +0.473    49.619
ATOM      9  O   UNL d   1       4.885  52.293   7.879 -0.14 +0.02    -0.228    49.619
ATOM     10  O   UNL d   1       2.483  52.816   7.111 -0.06 -0.02    -0.303    49.619
ATOM     11  H   UNL d   1       1.986  52.395   7.837 +0.03 +0.02    +0.222    49.619
ATOM     12  O   UNL d   1       4.252  54.466   6.582 -0.07 +0.00    -0.303    49.619
ATOM     13  H   UNL d   1       5.157  54.831   6.702 +0.04 -0.01    +0.222    49.619
ATOM     14  O   UNL d   1       6.024  53.439   9.561 -0.09 +0.04    -0.278    49.619
ATOM     15  P   UNL d   1       6.879  54.578   8.829 -0.06 -0.07    +0.473    49.619
ATOM     16  O   UNL d   1       8.163  54.980   9.485 -0.06 +0.04    -0.228    49.619
ATOM     17  O   UNL d   1       7.089  54.016   7.353 -0.13 +0.08    -0.303    49.619
ATOM     18  H   UNL d   1       6.780  53.093   7.281 -0.37 -0.11    +0.222    49.619
ATOM     19  O   UNL d   1       5.839  55.755   8.578 -0.01 +0.03    -0.303    49.619
ATOM     20  H   UNL d   1       4.945  55.413   8.395 +0.02 -0.01    +0.222    49.619
ATOM     21  O   UNL d   1       2.016  51.955  10.000 -0.02 -0.02    -0.278    49.619
ATOM     22  P   UNL d   1       1.414  50.749   9.145 -0.04 +0.07    +0.473    49.619
ATOM     23  O   UNL d   1       0.147  50.983   8.393 -0.03 -0.03    -0.228    49.619
ATOM     24  O   UNL d   1       2.659  50.335   8.245 -0.11 -0.05    -0.303    49.619
ATOM     25  H   UNL d   1       3.413  50.108   8.847 +0.07 +0.04    +0.222    49.619
ATOM     26  O   UNL d   1       1.380  49.568  10.228 -0.04 -0.09    -0.303    49.619
ATOM     27  H   UNL d   1       2.250  49.119  10.242 +0.06 +0.09    +0.222    49.619
ATOM     28  O   UNL d   1       6.988  53.198  12.022 -0.02 +0.03    -0.278    49.619
ATOM     29  P   UNL d   1       7.914  52.033  11.455 -0.04 -0.05    +0.473    49.619
ATOM     30  O   UNL d   1       7.439  51.390  10.203 +0.02 +0.03    -0.228    49.619
ATOM     31  O   UNL d   1       9.318  52.797  11.393 -0.08 +0.05    -0.303    49.619
ATOM     32  H   UNL d   1       9.230  53.566  10.784 +0.05 -0.03    +0.222    49.619
ATOM     33  O   UNL d   1       8.082  51.091  12.728 -0.04 +0.04    -0.303    49.619
ATOM     34  H   UNL d   1       7.230  51.072  13.229 +0.03 -0.02    +0.222    49.619
ATOM     35  O   UNL d   1       3.876  49.927  10.978 -0.08 -0.07    -0.278    49.619
ATOM     36  P   UNL d   1       5.118  49.335  10.171 -0.18 +0.06    +0.473    49.619
ATOM     37  O   UNL d   1       6.274  48.883  11.006 -0.19 -0.00    -0.228    49.619
ATOM     38  O   UNL d   1       4.432  48.175   9.322 -0.23 -0.10    -0.303    49.619
ATOM     39  H   UNL d   1       3.569  48.495   8.980 +0.09 +0.07    +0.222    49.619
ATOM     40  O   UNL d   1       5.403  50.476   9.101 -0.25 +0.03    -0.303    49.619
ATOM     41  H   UNL d   1       5.891  51.232   9.496 -0.08 -0.04    +0.222    49.619
ATOM     42  O   UNL d   1       5.366  51.121  13.180 -0.01 +0.00    -0.278    49.619
ATOM     43  P   UNL d   1       5.214  52.138  14.398 +0.01 -0.02    +0.473    49.619
ATOM     44  O   UNL d   1       4.203  53.225  14.264 +0.00 +0.00    -0.228    49.619
ATOM     45  O   UNL d   1       4.965  51.168  15.635 +0.00 +0.01    -0.303    49.619
ATOM     46  H   UNL d   1       4.668  51.663  16.424 +0.00 -0.01    +0.222    49.619
ATOM     47  O   UNL d   1       6.719  52.622  14.662 +0.00 +0.02    -0.303    49.619
ATOM     48  H   UNL d   1       7.180  52.724  13.804 +0.01 -0.02    +0.222    49.619
TER
ENDMDL
MODEL       48
USER    Run = 48
USER    Cluster Rank = 76
USER    Number of conformations in this cluster = 1
USER  
USER    RMSD from reference structure       = 11.100 A
USER  
USER    Estimated Free Energy of Binding    =   +4.89 kcal/mol  [=(1)+(2)+(3)-(4)]
USER    
USER    (1) Final Intermolecular Energy     =   -2.27 kcal/mol
USER        vdW + Hbond + desolv Energy     =   -2.12 kcal/mol
USER        Electrostatic Energy            =   -0.15 kcal/mol
USER    (2) Final Total Internal Energy     =  -14.36 kcal/mol
USER    (3) Torsional Free Energy           =   +7.16 kcal/mol
USER    (4) Unbound System's Energy  [=(2)] =  -14.36 kcal/mol
USER    
USER    
USER  
USER    DPF = D:/Protein_go_brrr/autodock/final/6BB5/IHP/dock.dpf
USER    NEWDPF move	IHP_ideal_opt.pdbqt
USER    NEWDPF about	0.035000 0.082000 -0.065000
USER    NEWDPF tran0	2.677501 13.703759 -2.361487
USER    NEWDPF axisangle0	0.255776 0.778002 0.573839 159.584677
USER    NEWDPF quaternion0	0.251728 0.765688 0.564756 0.177216
USER    NEWDPF dihe0	-132.39 -31.77 -36.70 150.09 24.02 167.88 -113.49 -82.16 103.24 -47.05 141.22 152.16 50.71 77.24 176.81 -138.77 -123.20 29.67 -12.52 16.48 -24.54 5.09 -2.54 176.16 
USER  
USER                              x       y       z    vdW   Elec        q     RMS 
ATOM      1  C   UNL d   1       1.152  14.482  -2.591 +0.00 +0.01    +0.194    11.100
ATOM      2  C   UNL d   1       1.688  13.709  -3.797 +0.00 +0.02    +0.194    11.100
ATOM      3  C   UNL d   1       3.184  13.954  -4.008 -0.00 +0.03    +0.194    11.100
ATOM      4  C   UNL d   1       4.016  13.711  -2.751 -0.02 +0.06    +0.194    11.100
ATOM      5  C   UNL d   1       3.454  14.370  -1.498 -0.04 +0.04    +0.194    11.100
ATOM      6  C   UNL d   1       1.946  14.177  -1.320 -0.01 +0.02    +0.194    11.100
ATOM      7  O   UNL d   1      -0.197  14.068  -2.360 +0.00 -0.01    -0.278    11.100
ATOM      8  P   UNL d   1      -1.295  15.191  -2.067 +0.00 +0.00    +0.473    11.100
ATOM      9  O   UNL d   1      -2.180  15.522  -3.217 +0.00 +0.00    -0.228    11.100
ATOM     10  O   UNL d   1      -2.091  14.633  -0.802 +0.00 -0.00    -0.303    11.100
ATOM     11  H   UNL d   1      -1.517  14.664  -0.015 +0.01 +0.00    +0.222    11.100
ATOM     12  O   UNL d   1      -0.486  16.407  -1.441 -0.00 -0.00    -0.303    11.100
ATOM     13  H   UNL d   1      -0.242  16.263  -0.499 +0.02 +0.00    +0.222    11.100
ATOM     14  O   UNL d   1       1.480  12.307  -3.584 +0.00 -0.02    -0.278    11.100
ATOM     15  P   UNL d   1       1.209  11.417  -4.887 +0.00 +0.03    +0.473    11.100
ATOM     16  O   UNL d   1       1.990  10.146  -5.008 +0.00 -0.01    -0.228    11.100
ATOM     17  O   UNL d   1      -0.365  11.175  -4.870 +0.00 -0.01    -0.303    11.100
ATOM     18  H   UNL d   1      -0.578  10.234  -5.022 +0.00 +0.01    +0.222    11.100
ATOM     19  O   UNL d   1       1.363  12.434  -6.101 +0.00 -0.02    -0.303    11.100
ATOM     20  H   UNL d   1       2.279  12.466  -6.431 +0.00 +0.02    +0.222    11.100
ATOM     21  O   UNL d   1       1.525  15.112  -0.329 -0.03 -0.03    -0.278    11.100
ATOM     22  P   UNL d   1       0.700  14.604   0.938 -0.02 +0.03    +0.473    11.100
ATOM     23  O   UNL d   1      -0.226  15.564   1.606 -0.03 -0.01    -0.228    11.100
ATOM     24  O   UNL d   1       0.004  13.291   0.369 +0.00 -0.01    -0.303    11.100
ATOM     25  H   UNL d   1      -0.322  13.487  -0.547 +0.01 +0.01    +0.222    11.100
ATOM     26  O   UNL d   1       1.861  13.991   1.859 -0.33 -0.05    -0.303    11.100
ATOM     27  H   UNL d   1       2.705  14.005   1.363 +0.04 +0.04    +0.222    11.100
ATOM     28  O   UNL d   1       3.644  12.999  -4.956 +0.00 -0.05    -0.278    11.100
ATOM     29  P   UNL d   1       4.197  13.474  -6.372 +0.01 +0.08    +0.473    11.100
ATOM     30  O   UNL d   1       4.317  12.411  -7.403 +0.00 -0.03    -0.228    11.100
ATOM     31  O   UNL d   1       3.182  14.673  -6.680 +0.00 -0.03    -0.303    11.100
ATOM     32  H   UNL d   1       2.270  14.306  -6.733 +0.00 +0.01    +0.222    11.100
ATOM     33  O   UNL d   1       5.534  14.240  -5.970 -0.01 -0.12    -0.303    11.100
ATOM     34  H   UNL d   1       5.465  14.533  -5.028 +0.03 +0.12    +0.222    11.100
ATOM     35  O   UNL d   1       4.093  13.721  -0.400 -0.05 -0.06    -0.278    11.100
ATOM     36  P   UNL d   1       4.817  14.581   0.731 -0.11 +0.10    +0.473    11.100
ATOM     37  O   UNL d   1       6.175  15.100   0.377 -0.24 -0.10    -0.228    11.100
ATOM     38  O   UNL d   1       3.738  15.715   1.020 -0.35 -0.08    -0.303    11.100
ATOM     39  H   UNL d   1       2.838  15.340   0.902 +0.05 +0.05    +0.222    11.100
ATOM     40  O   UNL d   1       4.718  13.626   1.999 -0.03 -0.00    -0.303    11.100
ATOM     41  H   UNL d   1       3.886  13.773   2.501 -0.07 +0.01    +0.222    11.100
ATOM     42  O   UNL d   1       5.304  14.289  -2.989 -0.07 -0.18    -0.278    11.100
ATOM     43  P   UNL d   1       5.418  15.869  -3.173 -0.10 +0.31    +0.473    11.100
ATOM     44  O   UNL d   1       5.311  16.712  -1.950 -0.26 -0.11    -0.228    11.100
ATOM     45  O   UNL d   1       6.794  16.031  -3.956 -0.57 -0.44    -0.303    11.100
ATOM     46  H   UNL d   1       6.733  15.675  -4.865 +0.05 +0.24    +0.222    11.100
ATOM     47  O   UNL d   1       4.349  16.182  -4.326 -0.02 -0.08    -0.303    11.100
ATOM     48  H   UNL d   1       4.264  15.399  -4.908 +0.03 +0.06    +0.222    11.100
TER
ENDMDL
MODEL        9
USER    Run = 9
USER    Cluster Rank = 77
USER    Number of conformations in this cluster = 1
USER  
USER    RMSD from reference structure       = 49.391 A
USER  
USER    Estimated Free Energy of Binding    =   +4.97 kcal/mol  [=(1)+(2)+(3)-(4)]
USER    
USER    (1) Final Intermolecular Energy     =   -2.19 kcal/mol
USER        vdW + Hbond + desolv Energy     =   -2.03 kcal/mol
USER        Electrostatic Energy            =   -0.15 kcal/mol
USER    (2) Final Total Internal Energy     =  -13.50 kcal/mol
USER    (3) Torsional Free Energy           =   +7.16 kcal/mol
USER    (4) Unbound System's Energy  [=(2)] =  -13.50 kcal/mol
USER    
USER    
USER  
USER    DPF = D:/Protein_go_brrr/autodock/final/6BB5/IHP/dock.dpf
USER    NEWDPF move	IHP_ideal_opt.pdbqt
USER    NEWDPF about	0.035000 0.082000 -0.065000
USER    NEWDPF tran0	1.711778 51.618130 10.695528
USER    NEWDPF axisangle0	-0.525338 0.169636 -0.833813 177.242526
USER    NEWDPF quaternion0	-0.525186 0.169587 -0.833571 0.024061
USER    NEWDPF dihe0	147.16 129.00 55.38 31.90 149.54 102.35 -110.78 -32.32 24.57 -0.56 102.01 91.15 126.03 146.13 102.87 179.17 -176.19 44.98 22.11 -14.44 -41.54 7.65 16.34 -174.39 
USER  
USER                              x       y       z    vdW   Elec        q     RMS 
ATOM      1  C   UNL d   1       2.031  52.037  12.341 +0.00 +0.01    +0.194    49.391
ATOM      2  C   UNL d   1       2.445  53.080  11.300 -0.01 +0.01    +0.194    49.391
ATOM      3  C   UNL d   1       3.125  52.435  10.091 -0.04 +0.01    +0.194    49.391
ATOM      4  C   UNL d   1       2.310  51.299   9.477 -0.07 +0.02    +0.194    49.391
ATOM      5  C   UNL d   1       1.780  50.297  10.494 -0.05 +0.04    +0.194    49.391
ATOM      6  C   UNL d   1       1.154  50.942  11.733 -0.01 +0.03    +0.194    49.391
ATOM      7  O   UNL d   1       1.257  52.694  13.347 +0.00 -0.01    -0.278    49.391
ATOM      8  P   UNL d   1       1.970  53.081  14.723 +0.01 +0.01    +0.473    49.391
ATOM      9  O   UNL d   1       1.112  53.809  15.696 +0.00 +0.00    -0.228    49.391
ATOM     10  O   UNL d   1       2.512  51.689  15.282 +0.00 -0.01    -0.303    49.391
ATOM     11  H   UNL d   1       2.137  50.957  14.757 +0.01 +0.02    +0.222    49.391
ATOM     12  O   UNL d   1       3.315  53.814  14.298 +0.00 +0.00    -0.303    49.391
ATOM     13  H   UNL d   1       3.187  54.770  14.103 +0.00 -0.00    +0.222    49.391
ATOM     14  O   UNL d   1       1.277  53.778  10.849 -0.00 -0.01    -0.278    49.391
ATOM     15  P   UNL d   1       1.222  55.350  11.151 -0.00 +0.00    +0.473    49.391
ATOM     16  O   UNL d   1      -0.133  55.986  11.154 +0.00 -0.00    -0.228    49.391
ATOM     17  O   UNL d   1       1.979  55.504  12.544 -0.00 +0.00    -0.303    49.391
ATOM     18  H   UNL d   1       1.743  54.780  13.155 +0.00 +0.00    +0.222    49.391
ATOM     19  O   UNL d   1       2.275  55.985  10.143 -0.00 +0.00    -0.303    49.391
ATOM     20  H   UNL d   1       2.984  55.354   9.917 +0.01 -0.00    +0.222    49.391
ATOM     21  O   UNL d   1       1.028  49.915  12.713 -0.02 -0.07    -0.278    49.391
ATOM     22  P   UNL d   1      -0.234  49.903  13.689 +0.01 +0.07    +0.473    49.391
ATOM     23  O   UNL d   1      -0.960  48.614  13.887 -0.00 -0.04    -0.228    49.391
ATOM     24  O   UNL d   1       0.374  50.537  15.016 +0.00 -0.02    -0.303    49.391
ATOM     25  H   UNL d   1       0.348  51.524  14.925 +0.00 +0.01    +0.222    49.391
ATOM     26  O   UNL d   1      -1.105  51.118  13.110 +0.00 -0.02    -0.303    49.391
ATOM     27  H   UNL d   1      -0.665  51.964  13.332 +0.00 +0.01    +0.222    49.391
ATOM     28  O   UNL d   1       3.219  53.425   9.074 -0.04 -0.00    -0.278    49.391
ATOM     29  P   UNL d   1       4.643  53.891   8.534 -0.07 -0.03    +0.473    49.391
ATOM     30  O   UNL d   1       4.662  54.406   7.141 -0.09 +0.01    -0.228    49.391
ATOM     31  O   UNL d   1       5.060  54.913   9.693 -0.01 +0.02    -0.303    49.391
ATOM     32  H   UNL d   1       4.380  55.624   9.743 +0.01 -0.01    +0.222    49.391
ATOM     33  O   UNL d   1       5.550  52.620   8.844 -0.14 +0.06    -0.303    49.391
ATOM     34  H   UNL d   1       4.980  51.812   8.851 +0.01 -0.03    +0.222    49.391
ATOM     35  O   UNL d   1       0.743  49.580   9.826 -0.03 -0.06    -0.278    49.391
ATOM     36  P   UNL d   1       0.480  48.043  10.165 -0.04 +0.19    +0.473    49.391
ATOM     37  O   UNL d   1       0.354  47.135   8.984 -0.07 -0.08    -0.228    49.391
ATOM     38  O   UNL d   1       1.708  47.706  11.122 -0.30 -0.33    -0.303    49.391
ATOM     39  H   UNL d   1       2.530  48.071  10.729 +0.05 +0.21    +0.222    49.391
ATOM     40  O   UNL d   1      -0.764  48.122  11.153 -0.01 -0.08    -0.303    49.391
ATOM     41  H   UNL d   1      -0.668  48.854  11.802 +0.01 +0.05    +0.222    49.391
ATOM     42  O   UNL d   1       3.188  50.586   8.601 -0.14 -0.04    -0.278    49.391
ATOM     43  P   UNL d   1       4.297  49.629   9.232 -0.19 +0.07    +0.473    49.391
ATOM     44  O   UNL d   1       3.928  48.203   9.456 -0.24 -0.09    -0.228    49.391
ATOM     45  O   UNL d   1       5.534  49.834   8.251 -0.31 +0.04    -0.303    49.391
ATOM     46  H   UNL d   1       5.528  50.725   7.849 -0.27 -0.06    +0.222    49.391
ATOM     47  O   UNL d   1       4.777  50.432  10.533 -0.08 -0.02    -0.303    49.391
ATOM     48  H   UNL d   1       5.523  51.019  10.293 +0.06 -0.01    +0.222    49.391
TER
ENDMDL
MODEL       14
USER    Run = 14
USER    Cluster Rank = 78
USER    Number of conformations in this cluster = 1
USER  
USER    RMSD from reference structure       = 64.418 A
USER  
USER    Estimated Free Energy of Binding    =   +4.98 kcal/mol  [=(1)+(2)+(3)-(4)]
USER    
USER    (1) Final Intermolecular Energy     =   -2.18 kcal/mol
USER        vdW + Hbond + desolv Energy     =   -2.16 kcal/mol
USER        Electrostatic Energy            =   -0.02 kcal/mol
USER    (2) Final Total Internal Energy     =  -13.42 kcal/mol
USER    (3) Torsional Free Energy           =   +7.16 kcal/mol
USER    (4) Unbound System's Energy  [=(2)] =  -13.42 kcal/mol
USER    
USER    
USER  
USER    DPF = D:/Protein_go_brrr/autodock/final/6BB5/IHP/dock.dpf
USER    NEWDPF move	IHP_ideal_opt.pdbqt
USER    NEWDPF about	0.035000 0.082000 -0.065000
USER    NEWDPF tran0	45.985030 46.836786 20.151071
USER    NEWDPF axisangle0	-0.346715 -0.853566 0.388863 -152.930657
USER    NEWDPF quaternion0	-0.337086 -0.829861 0.378064 -0.234034
USER    NEWDPF dihe0	23.34 96.35 19.19 140.75 125.90 89.40 3.28 -176.15 91.43 124.22 22.29 84.06 103.35 -30.76 -180.00 144.41 52.84 170.32 46.14 -33.73 10.13 -47.45 179.41 32.46 
USER  
USER                              x       y       z    vdW   Elec        q     RMS 
ATOM      1  C   UNL d   1      44.306  46.956  20.537 -0.02 +0.01    +0.194    64.418
ATOM      2  C   UNL d   1      45.063  45.818  21.225 -0.09 +0.00    +0.194    64.418
ATOM      3  C   UNL d   1      46.006  45.099  20.258 -0.15 -0.00    +0.194    64.418
ATOM      4  C   UNL d   1      46.941  46.048  19.513 -0.13 -0.00    +0.194    64.418
ATOM      5  C   UNL d   1      46.243  47.260  18.908 -0.09 -0.01    +0.194    64.418
ATOM      6  C   UNL d   1      45.254  47.942  19.855 -0.09 +0.01    +0.194    64.418
ATOM      7  O   UNL d   1      43.585  47.680  21.537 -0.05 -0.03    -0.278    64.418
ATOM      8  P   UNL d   1      42.244  47.037  22.122 -0.04 +0.05    +0.473    64.418
ATOM      9  O   UNL d   1      41.871  47.492  23.489 -0.03 -0.02    -0.228    64.418
ATOM     10  O   UNL d   1      41.140  47.379  21.023 -0.12 -0.05    -0.303    64.418
ATOM     11  H   UNL d   1      40.333  47.709  21.462 +0.08 +0.05    +0.222    64.418
ATOM     12  O   UNL d   1      42.423  45.469  21.937 -0.10 -0.02    -0.303    64.418
ATOM     13  H   UNL d   1      43.275  45.133  22.296 +0.06 +0.01    +0.222    64.418
ATOM     14  O   UNL d   1      45.839  46.359  22.302 -0.01 -0.01    -0.278    64.418
ATOM     15  P   UNL d   1      45.199  46.256  23.767 +0.00 +0.02    +0.473    64.418
ATOM     16  O   UNL d   1      44.199  45.165  23.988 -0.02 -0.00    -0.228    64.418
ATOM     17  O   UNL d   1      46.461  46.143  24.733 -0.00 -0.01    -0.303    64.418
ATOM     18  H   UNL d   1      46.845  45.245  24.707 +0.00 +0.01    +0.222    64.418
ATOM     19  O   UNL d   1      44.688  47.729  24.080 -0.00 -0.02    -0.303    64.418
ATOM     20  H   UNL d   1      43.824  47.907  23.664 +0.01 +0.02    +0.222    64.418
ATOM     21  O   UNL d   1      44.452  48.810  19.058 -0.09 -0.02    -0.278    64.418
ATOM     22  P   UNL d   1      44.885  50.334  18.866 -0.06 +0.02    +0.473    64.418
ATOM     23  O   UNL d   1      43.813  51.351  18.661 -0.06 -0.03    -0.228    64.418
ATOM     24  O   UNL d   1      45.800  50.576  20.145 -0.01 -0.02    -0.303    64.418
ATOM     25  H   UNL d   1      46.556  49.937  20.109 +0.02 +0.01    +0.222    64.418
ATOM     26  O   UNL d   1      45.976  50.217  17.696 -0.11 +0.02    -0.303    64.418
ATOM     27  H   UNL d   1      46.846  50.000  18.088 +0.04 -0.01    +0.222    64.418
ATOM     28  O   UNL d   1      46.856  44.262  21.032 -0.04 +0.00    -0.278    64.418
ATOM     29  P   UNL d   1      46.245  43.061  21.881 -0.01 -0.00    +0.473    64.418
ATOM     30  O   UNL d   1      46.716  41.704  21.503 -0.05 +0.00    -0.228    64.418
ATOM     31  O   UNL d   1      46.590  43.563  23.361 -0.00 -0.00    -0.303    64.418
ATOM     32  H   UNL d   1      46.216  44.466  23.482 +0.02 +0.00    +0.222    64.418
ATOM     33  O   UNL d   1      44.681  43.337  21.772 -0.09 +0.00    -0.303    64.418
ATOM     34  H   UNL d   1      44.323  43.517  22.676 +0.06 -0.00    +0.222    64.418
ATOM     35  O   UNL d   1      47.276  48.202  18.629 -0.14 +0.01    -0.278    64.418
ATOM     36  P   UNL d   1      48.344  48.582  19.752 -0.03 +0.00    +0.473    64.418
ATOM     37  O   UNL d   1      49.645  47.848  19.679 -0.03 -0.00    -0.228    64.418
ATOM     38  O   UNL d   1      48.470  50.158  19.563 -0.01 -0.00    -0.303    64.418
ATOM     39  H   UNL d   1      47.669  50.491  19.104 +0.02 +0.00    +0.222    64.418
ATOM     40  O   UNL d   1      47.500  48.423  21.091 -0.01 -0.01    -0.303    64.418
ATOM     41  H   UNL d   1      47.462  47.487  21.389 +0.02 +0.00    +0.222    64.418
ATOM     42  O   UNL d   1      47.509  45.305  18.429 -0.57 -0.01    -0.278    64.418
ATOM     43  P   UNL d   1      48.708  44.296  18.731 -0.09 -0.03    +0.473    64.418
ATOM     44  O   UNL d   1      49.777  44.173  17.701 -0.11 +0.02    -0.228    64.418
ATOM     45  O   UNL d   1      49.227  44.786  20.153 -0.02 +0.00    -0.303    64.418
ATOM     46  H   UNL d   1      49.393  45.750  20.161 +0.02 -0.00    +0.222    64.418
ATOM     47  O   UNL d   1      47.953  42.934  19.111 -0.11 +0.03    -0.303    64.418
ATOM     48  H   UNL d   1      47.890  42.861  20.086 +0.04 -0.01    +0.222    64.418
TER
ENDMDL
MODEL       69
USER    Run = 69
USER    Cluster Rank = 79
USER    Number of conformations in this cluster = 1
USER  
USER    RMSD from reference structure       = 16.562 A
USER  
USER    Estimated Free Energy of Binding    =   +5.01 kcal/mol  [=(1)+(2)+(3)-(4)]
USER    
USER    (1) Final Intermolecular Energy     =   -2.15 kcal/mol
USER        vdW + Hbond + desolv Energy     =   -1.98 kcal/mol
USER        Electrostatic Energy            =   -0.17 kcal/mol
USER    (2) Final Total Internal Energy     =  -15.54 kcal/mol
USER    (3) Torsional Free Energy           =   +7.16 kcal/mol
USER    (4) Unbound System's Energy  [=(2)] =  -15.54 kcal/mol
USER    
USER    
USER  
USER    DPF = D:/Protein_go_brrr/autodock/final/6BB5/IHP/dock.dpf
USER    NEWDPF move	IHP_ideal_opt.pdbqt
USER    NEWDPF about	0.035000 0.082000 -0.065000
USER    NEWDPF tran0	16.287824 12.353872 0.220145
USER    NEWDPF axisangle0	0.919536 -0.365045 -0.145587 -164.160971
USER    NEWDPF quaternion0	0.910766 -0.361564 -0.144198 -0.137782
USER    NEWDPF dihe0	-134.93 -38.99 -156.52 59.52 11.31 152.99 45.95 -70.74 108.46 56.53 11.80 -155.04 52.00 159.64 -178.21 92.32 136.32 -11.98 -14.68 -16.24 -22.23 -26.17 -11.93 169.50 
USER  
USER                              x       y       z    vdW   Elec        q     RMS 
ATOM      1  C   UNL d   1      17.424  11.985  -1.028 +0.00 -0.00    +0.194    16.562
ATOM      2  C   UNL d   1      17.186  13.474  -0.770 -0.01 -0.00    +0.194    16.562
ATOM      3  C   UNL d   1      15.700  13.785  -0.578 -0.02 +0.01    +0.194    16.562
ATOM      4  C   UNL d   1      15.032  12.903   0.474 -0.01 +0.02    +0.194    16.562
ATOM      5  C   UNL d   1      15.337  11.418   0.323 +0.00 +0.01    +0.194    16.562
ATOM      6  C   UNL d   1      16.814  11.112   0.070 +0.00 +0.01    +0.194    16.562
ATOM      7  O   UNL d   1      18.835  11.752  -1.023 +0.00 +0.00    -0.278    16.562
ATOM      8  P   UNL d   1      19.449  10.794  -2.144 +0.00 -0.01    +0.473    16.562
ATOM      9  O   UNL d   1      20.155  11.492  -3.253 +0.00 +0.01    -0.228    16.562
ATOM     10  O   UNL d   1      20.391   9.798  -1.327 +0.00 +0.00    -0.303    16.562
ATOM     11  H   UNL d   1      19.845   9.225  -0.758 +0.00 +0.00    +0.222    16.562
ATOM     12  O   UNL d   1      18.253   9.841  -2.574 +0.00 +0.01    -0.303    16.562
ATOM     13  H   UNL d   1      18.148   9.062  -1.983 +0.00 +0.00    +0.222    16.562
ATOM     14  O   UNL d   1      17.890  13.861   0.416 -0.00 +0.00    -0.278    16.562
ATOM     15  P   UNL d   1      19.078  14.919   0.230 -0.00 -0.02    +0.473    16.562
ATOM     16  O   UNL d   1      20.269  14.755   1.121 -0.01 +0.00    -0.228    16.562
ATOM     17  O   UNL d   1      19.445  14.821  -1.317 -0.01 +0.03    -0.303    16.562
ATOM     18  H   UNL d   1      19.142  15.612  -1.802 +0.04 -0.03    +0.222    16.562
ATOM     19  O   UNL d   1      18.361  16.337   0.298 -0.09 +0.04    -0.303    16.562
ATOM     20  H   UNL d   1      17.398  16.249   0.429 +0.03 -0.02    +0.222    16.562
ATOM     21  O   UNL d   1      16.884   9.762  -0.383 +0.00 -0.01    -0.278    16.562
ATOM     22  P   UNL d   1      17.815   8.716   0.382 +0.00 +0.01    +0.473    16.562
ATOM     23  O   UNL d   1      18.447   7.623  -0.412 +0.00 -0.00    -0.228    16.562
ATOM     24  O   UNL d   1      18.840   9.679   1.127 +0.00 -0.01    -0.303    16.562
ATOM     25  H   UNL d   1      19.257  10.269   0.450 +0.00 +0.00    +0.222    16.562
ATOM     26  O   UNL d   1      16.862   8.251   1.585 +0.00 -0.01    -0.303    16.562
ATOM     27  H   UNL d   1      16.170   8.929   1.727 +0.00 +0.01    +0.222    16.562
ATOM     28  O   UNL d   1      15.601  15.111  -0.076 -0.06 -0.02    -0.278    16.562
ATOM     29  P   UNL d   1      15.612  16.352  -1.075 -0.11 -0.00    +0.473    16.562
ATOM     30  O   UNL d   1      14.439  16.457  -1.979 -0.72 -0.03    -0.228    16.562
ATOM     31  O   UNL d   1      15.835  17.547  -0.033 -0.33 +0.04    -0.303    16.562
ATOM     32  H   UNL d   1      16.793  17.776  -0.018 -0.46 -0.09    +0.222    16.562
ATOM     33  O   UNL d   1      17.042  16.214  -1.762 -0.12 +0.04    -0.303    16.562
ATOM     34  H   UNL d   1      17.575  15.548  -1.264 +0.05 -0.02    +0.222    16.562
ATOM     35  O   UNL d   1      14.993  10.823   1.573 +0.00 -0.02    -0.278    16.562
ATOM     36  P   UNL d   1      13.857   9.706   1.648 +0.00 +0.04    +0.473    16.562
ATOM     37  O   UNL d   1      13.572   9.167   3.013 -0.00 -0.02    -0.228    16.562
ATOM     38  O   UNL d   1      12.624  10.449   0.967 -0.00 -0.04    -0.303    16.562
ATOM     39  H   UNL d   1      12.950  10.990   0.215 +0.01 +0.04    +0.222    16.562
ATOM     40  O   UNL d   1      14.333   8.664   0.545 +0.00 -0.02    -0.303    16.562
ATOM     41  H   UNL d   1      15.267   8.816   0.278 +0.00 +0.01    +0.222    16.562
ATOM     42  O   UNL d   1      13.618  13.061   0.311 -0.02 -0.06    -0.278    16.562
ATOM     43  P   UNL d   1      12.960  12.705  -1.098 -0.04 +0.15    +0.473    16.562
ATOM     44  O   UNL d   1      13.562  11.586  -1.874 -0.01 -0.04    -0.228    16.562
ATOM     45  O   UNL d   1      11.429  12.487  -0.722 -0.08 -0.17    -0.303    16.562
ATOM     46  H   UNL d   1      11.317  11.750  -0.089 +0.02 +0.08    +0.222    16.562
ATOM     47  O   UNL d   1      12.913  14.121  -1.848 -0.12 -0.14    -0.303    16.562
ATOM     48  H   UNL d   1      13.597  14.710  -1.468 +0.07 +0.06    +0.222    16.562
TER
ENDMDL
MODEL       57
USER    Run = 57
USER    Cluster Rank = 80
USER    Number of conformations in this cluster = 1
USER  
USER    RMSD from reference structure       = 47.957 A
USER  
USER    Estimated Free Energy of Binding    =   +5.03 kcal/mol  [=(1)+(2)+(3)-(4)]
USER    
USER    (1) Final Intermolecular Energy     =   -2.13 kcal/mol
USER        vdW + Hbond + desolv Energy     =   -2.24 kcal/mol
USER        Electrostatic Energy            =   +0.11 kcal/mol
USER    (2) Final Total Internal Energy     =  -14.76 kcal/mol
USER    (3) Torsional Free Energy           =   +7.16 kcal/mol
USER    (4) Unbound System's Energy  [=(2)] =  -14.76 kcal/mol
USER    
USER    
USER  
USER    DPF = D:/Protein_go_brrr/autodock/final/6BB5/IHP/dock.dpf
USER    NEWDPF move	IHP_ideal_opt.pdbqt
USER    NEWDPF about	0.035000 0.082000 -0.065000
USER    NEWDPF tran0	2.982549 50.053826 12.644587
USER    NEWDPF axisangle0	-0.093311 -0.574092 0.813456 133.634313
USER    NEWDPF quaternion0	-0.085777 -0.527736 0.747772 0.393667
USER    NEWDPF dihe0	-104.23 19.34 -159.74 19.11 34.58 -162.21 0.34 -133.52 28.50 79.83 -2.76 -146.91 -179.99 47.32 168.81 -119.45 -8.36 -57.10 62.22 14.23 -12.01 29.72 -15.16 -180.00 
USER  
USER                              x       y       z    vdW   Elec        q     RMS 
ATOM      1  C   UNL d   1       1.760  48.870  12.943 -0.05 +0.13    +0.194    47.957
ATOM      2  C   UNL d   1       1.951  49.915  14.044 -0.02 +0.04    +0.194    47.957
ATOM      3  C   UNL d   1       3.432  50.181  14.322 -0.02 +0.03    +0.194    47.957
ATOM      4  C   UNL d   1       4.229  50.516  13.063 -0.03 +0.03    +0.194    47.957
ATOM      5  C   UNL d   1       3.981  49.565  11.900 -0.10 +0.07    +0.194    47.957
ATOM      6  C   UNL d   1       2.503  49.250  11.661 -0.07 +0.11    +0.194    47.957
ATOM      7  O   UNL d   1       0.368  48.806  12.625 -0.03 -0.11    -0.278    47.957
ATOM      8  P   UNL d   1      -0.656  48.397  13.781 +0.00 +0.10    +0.473    47.957
ATOM      9  O   UNL d   1      -1.590  47.291  13.434 -0.00 -0.04    -0.228    47.957
ATOM     10  O   UNL d   1       0.281  48.060  15.027 -0.01 -0.06    -0.303    47.957
ATOM     11  H   UNL d   1       0.327  48.833  15.620 +0.01 +0.02    +0.222    47.957
ATOM     12  O   UNL d   1      -1.334  49.760  14.234 +0.00 -0.03    -0.303    47.957
ATOM     13  H   UNL d   1      -0.768  50.547  14.066 +0.00 +0.02    +0.222    47.957
ATOM     14  O   UNL d   1       1.335  51.142  13.634 +0.00 -0.03    -0.278    47.957
ATOM     15  P   UNL d   1       0.668  52.029  14.789 +0.01 +0.02    +0.473    47.957
ATOM     16  O   UNL d   1       1.439  53.228  15.245 +0.00 -0.00    -0.228    47.957
ATOM     17  O   UNL d   1      -0.768  52.402  14.211 +0.00 -0.01    -0.303    47.957
ATOM     18  H   UNL d   1      -1.468  51.872  14.639 +0.00 +0.01    +0.222    47.957
ATOM     19  O   UNL d   1       0.293  50.982  15.926 +0.00 -0.01    -0.303    47.957
ATOM     20  H   UNL d   1      -0.068  50.157  15.552 +0.01 +0.01    +0.222    47.957
ATOM     21  O   UNL d   1       2.457  48.115  10.799 -0.45 -0.26    -0.278    47.957
ATOM     22  P   UNL d   1       1.861  48.262   9.327 -0.12 +0.19    +0.473    47.957
ATOM     23  O   UNL d   1       1.428  47.025   8.615 -0.18 -0.09    -0.228    47.957
ATOM     24  O   UNL d   1       0.712  49.342   9.548 -0.03 -0.07    -0.303    47.957
ATOM     25  H   UNL d   1       0.354  49.228  10.465 +0.03 +0.06    +0.222    47.957
ATOM     26  O   UNL d   1       2.996  49.131   8.601 -0.17 -0.08    -0.303    47.957
ATOM     27  H   UNL d   1       3.845  49.008   9.072 +0.09 +0.06    +0.222    47.957
ATOM     28  O   UNL d   1       3.512  51.342  15.139 +0.00 -0.00    -0.278    47.957
ATOM     29  P   UNL d   1       4.569  51.416  16.329 +0.02 -0.02    +0.473    47.957
ATOM     30  O   UNL d   1       4.124  52.160  17.535 +0.00 +0.01    -0.228    47.957
ATOM     31  O   UNL d   1       4.892  49.860  16.513 -0.00 +0.03    -0.303    47.957
ATOM     32  H   UNL d   1       5.135  49.483  15.636 +0.02 -0.02    +0.222    47.957
ATOM     33  O   UNL d   1       5.869  51.960  15.587 +0.00 +0.02    -0.303    47.957
ATOM     34  H   UNL d   1       6.259  51.229  15.047 +0.01 -0.02    +0.222    47.957
ATOM     35  O   UNL d   1       4.459  50.240  10.739 -0.08 -0.04    -0.278    47.957
ATOM     36  P   UNL d   1       5.699  49.657   9.921 -0.21 -0.01    +0.473    47.957
ATOM     37  O   UNL d   1       5.774  48.165   9.842 -0.28 -0.02    -0.228    47.957
ATOM     38  O   UNL d   1       5.529  50.379   8.512 -0.23 +0.06    -0.303    47.957
ATOM     39  H   UNL d   1       4.579  50.383   8.266 +0.06 +0.00    +0.222    47.957
ATOM     40  O   UNL d   1       6.931  50.408  10.590 -0.14 +0.04    -0.303    47.957
ATOM     41  H   UNL d   1       6.815  50.504  11.561 +0.06 -0.02    +0.222    47.957
ATOM     42  O   UNL d   1       5.614  50.408  13.409 -0.01 +0.00    -0.278    47.957
ATOM     43  P   UNL d   1       6.220  48.966  13.722 -0.07 -0.05    +0.473    47.957
ATOM     44  O   UNL d   1       5.260  47.839  13.891 -0.30 -0.02    -0.228    47.957
ATOM     45  O   UNL d   1       7.262  48.760  12.536 -0.08 +0.06    -0.303    47.957
ATOM     46  H   UNL d   1       6.810  48.542  11.696 +0.09 -0.02    +0.222    47.957
ATOM     47  O   UNL d   1       7.192  49.239  14.966 -0.01 +0.07    -0.303    47.957
ATOM     48  H   UNL d   1       6.823  49.964  15.511 +0.02 -0.03    +0.222    47.957
TER
ENDMDL
MODEL       83
USER    Run = 83
USER    Cluster Rank = 81
USER    Number of conformations in this cluster = 1
USER  
USER    RMSD from reference structure       = 61.899 A
USER  
USER    Estimated Free Energy of Binding    =   +5.15 kcal/mol  [=(1)+(2)+(3)-(4)]
USER    
USER    (1) Final Intermolecular Energy     =   -2.01 kcal/mol
USER        vdW + Hbond + desolv Energy     =   -1.70 kcal/mol
USER        Electrostatic Energy            =   -0.32 kcal/mol
USER    (2) Final Total Internal Energy     =  -15.14 kcal/mol
USER    (3) Torsional Free Energy           =   +7.16 kcal/mol
USER    (4) Unbound System's Energy  [=(2)] =  -15.14 kcal/mol
USER    
USER    
USER  
USER    DPF = D:/Protein_go_brrr/autodock/final/6BB5/IHP/dock.dpf
USER    NEWDPF move	IHP_ideal_opt.pdbqt
USER    NEWDPF about	0.035000 0.082000 -0.065000
USER    NEWDPF tran0	41.589260 40.269826 32.052218
USER    NEWDPF axisangle0	-0.011918 -0.776312 0.630236 -94.422801
USER    NEWDPF quaternion0	-0.008746 -0.569708 0.462508 -0.679295
USER    NEWDPF dihe0	64.29 3.88 134.03 134.10 -32.19 179.86 -10.83 179.07 71.97 10.65 147.99 79.61 -156.56 90.06 27.30 145.92 161.33 -136.42 21.45 -29.80 168.75 -42.22 -13.74 160.14 
USER  
USER                              x       y       z    vdW   Elec        q     RMS 
ATOM      1  C   UNL d   1      41.423  40.154  33.768 +0.00 +0.03    +0.194    61.899
ATOM      2  C   UNL d   1      42.305  39.088  33.116 -0.00 +0.05    +0.194    61.899
ATOM      3  C   UNL d   1      41.681  38.546  31.828 -0.05 +0.12    +0.194    61.899
ATOM      4  C   UNL d   1      41.280  39.644  30.846 -0.05 +0.10    +0.194    61.899
ATOM      5  C   UNL d   1      40.496  40.787  31.478 -0.03 +0.04    +0.194    61.899
ATOM      6  C   UNL d   1      41.087  41.287  32.798 -0.01 +0.03    +0.194    61.899
ATOM      7  O   UNL d   1      42.149  40.728  34.858 +0.00 -0.03    -0.278    61.899
ATOM      8  P   UNL d   1      41.802  40.243  36.340 +0.00 +0.04    +0.473    61.899
ATOM      9  O   UNL d   1      41.013  41.209  37.151 -0.00 -0.01    -0.228    61.899
ATOM     10  O   UNL d   1      41.059  38.848  36.126 +0.00 -0.03    -0.303    61.899
ATOM     11  H   UNL d   1      40.095  38.993  36.093 +0.00 +0.02    +0.222    61.899
ATOM     12  O   UNL d   1      43.192  39.788  36.961 +0.00 -0.03    -0.303    61.899
ATOM     13  H   UNL d   1      43.751  39.284  36.328 +0.00 +0.02    +0.222    61.899
ATOM     14  O   UNL d   1      43.578  39.665  32.798 +0.00 -0.07    -0.278    61.899
ATOM     15  P   UNL d   1      44.786  39.324  33.793 +0.01 +0.08    +0.473    61.899
ATOM     16  O   UNL d   1      46.144  39.187  33.178 +0.00 -0.03    -0.228    61.899
ATOM     17  O   UNL d   1      44.719  40.476  34.892 +0.00 -0.03    -0.303    61.899
ATOM     18  H   UNL d   1      43.795  40.698  35.112 +0.00 +0.02    +0.222    61.899
ATOM     19  O   UNL d   1      44.277  38.064  34.619 +0.00 -0.05    -0.303    61.899
ATOM     20  H   UNL d   1      44.295  37.250  34.083 +0.00 +0.05    +0.222    61.899
ATOM     21  O   UNL d   1      40.085  42.088  33.420 -0.01 -0.03    -0.278    61.899
ATOM     22  P   UNL d   1      38.735  41.409  33.932 -0.02 +0.04    +0.473    61.899
ATOM     23  O   UNL d   1      38.835  40.296  34.920 -0.01 -0.02    -0.228    61.899
ATOM     24  O   UNL d   1      37.905  42.672  34.431 -0.03 -0.02    -0.303    61.899
ATOM     25  H   UNL d   1      38.011  42.741  35.414 +0.01 +0.01    +0.222    61.899
ATOM     26  O   UNL d   1      38.003  41.058  32.549 -0.05 -0.03    -0.303    61.899
ATOM     27  H   UNL d   1      38.605  41.262  31.805 +0.03 +0.03    +0.222    61.899
ATOM     28  O   UNL d   1      42.676  37.784  31.157 -0.17 -0.30    -0.278    61.899
ATOM     29  P   UNL d   1      43.187  36.407  31.774 -0.03 +0.36    +0.473    61.899
ATOM     30  O   UNL d   1      42.981  35.208  30.922 -0.03 -0.26    -0.228    61.899
ATOM     31  O   UNL d   1      44.698  36.801  32.122 -0.01 -0.12    -0.303    61.899
ATOM     32  H   UNL d   1      44.708  37.713  32.494 +0.01 +0.07    +0.222    61.899
ATOM     33  O   UNL d   1      42.487  36.402  33.205 -0.01 -0.12    -0.303    61.899
ATOM     34  H   UNL d   1      43.184  36.337  33.903 +0.01 +0.06    +0.222    61.899
ATOM     35  O   UNL d   1      40.569  41.866  30.549 -0.02 -0.04    -0.278    61.899
ATOM     36  P   UNL d   1      39.244  42.427  29.861 -0.05 +0.06    +0.473    61.899
ATOM     37  O   UNL d   1      39.437  43.088  28.533 -0.08 -0.01    -0.228    61.899
ATOM     38  O   UNL d   1      38.325  41.127  29.817 -0.07 -0.05    -0.303    61.899
ATOM     39  H   UNL d   1      38.803  40.381  30.240 +0.06 +0.05    +0.222    61.899
ATOM     40  O   UNL d   1      38.606  43.308  31.020 -0.07 -0.04    -0.303    61.899
ATOM     41  H   UNL d   1      38.818  42.949  31.910 +0.02 +0.03    +0.222    61.899
ATOM     42  O   UNL d   1      40.426  39.036  29.871 -0.08 -0.24    -0.278    61.899
ATOM     43  P   UNL d   1      39.211  38.130  30.367 -0.07 +0.31    +0.473    61.899
ATOM     44  O   UNL d   1      39.468  36.673  30.542 -0.51 -0.25    -0.228    61.899
ATOM     45  O   UNL d   1      38.742  38.872  31.694 -0.05 -0.08    -0.303    61.899
ATOM     46  H   UNL d   1      38.248  39.691  31.491 +0.04 +0.03    +0.222    61.899
ATOM     47  O   UNL d   1      38.033  38.507  29.349 -0.24 -0.09    -0.303    61.899
ATOM     48  H   UNL d   1      37.416  39.130  29.786 -0.15 +0.01    +0.222    61.899
TER
ENDMDL
MODEL       62
USER    Run = 62
USER    Cluster Rank = 82
USER    Number of conformations in this cluster = 1
USER  
USER    RMSD from reference structure       = 30.475 A
USER  
USER    Estimated Free Energy of Binding    =   +5.19 kcal/mol  [=(1)+(2)+(3)-(4)]
USER    
USER    (1) Final Intermolecular Energy     =   -1.97 kcal/mol
USER        vdW + Hbond + desolv Energy     =   -1.74 kcal/mol
USER        Electrostatic Energy            =   -0.22 kcal/mol
USER    (2) Final Total Internal Energy     =  -14.86 kcal/mol
USER    (3) Torsional Free Energy           =   +7.16 kcal/mol
USER    (4) Unbound System's Energy  [=(2)] =  -14.86 kcal/mol
USER    
USER    
USER  
USER    DPF = D:/Protein_go_brrr/autodock/final/6BB5/IHP/dock.dpf
USER    NEWDPF move	IHP_ideal_opt.pdbqt
USER    NEWDPF about	0.035000 0.082000 -0.065000
USER    NEWDPF tran0	28.988916 10.965001 14.688805
USER    NEWDPF axisangle0	-0.830788 0.022161 0.556148 176.256328
USER    NEWDPF quaternion0	-0.830344 0.022150 0.555851 0.032664
USER    NEWDPF dihe0	179.90 13.04 105.73 -9.79 121.51 101.37 -110.06 1.69 23.14 55.15 170.28 117.86 44.69 81.81 79.54 52.68 157.39 170.74 3.24 -41.21 -32.54 -46.99 -10.66 28.25 
USER  
USER                              x       y       z    vdW   Elec        q     RMS 
ATOM      1  C   UNL d   1      28.736  11.735  13.163 -0.01 +0.03    +0.194    30.475
ATOM      2  C   UNL d   1      28.601  12.639  14.390 -0.04 +0.05    +0.194    30.475
ATOM      3  C   UNL d   1      27.820  11.956  15.514 -0.01 +0.05    +0.194    30.475
ATOM      4  C   UNL d   1      28.363  10.574  15.871 +0.00 +0.04    +0.194    30.475
ATOM      5  C   UNL d   1      28.621   9.678  14.667 +0.00 +0.03    +0.194    30.475
ATOM      6  C   UNL d   1      29.348  10.380  13.518 -0.00 +0.03    +0.194    30.475
ATOM      7  O   UNL d   1      29.617  12.372  12.235 -0.02 -0.04    -0.278    30.475
ATOM      8  P   UNL d   1      29.054  12.746  10.788 -0.01 +0.06    +0.473    30.475
ATOM      9  O   UNL d   1      28.581  14.149  10.638 -0.07 -0.04    -0.228    30.475
ATOM     10  O   UNL d   1      30.251  12.377   9.800 -0.01 -0.03    -0.303    30.475
ATOM     11  H   UNL d   1      30.839  11.728  10.227 +0.01 +0.02    +0.222    30.475
ATOM     12  O   UNL d   1      27.988  11.615  10.455 -0.00 -0.03    -0.303    30.475
ATOM     13  H   UNL d   1      28.217  10.742  10.846 +0.00 +0.02    +0.222    30.475
ATOM     14  O   UNL d   1      29.910  12.964  14.876 -0.04 -0.08    -0.278    30.475
ATOM     15  P   UNL d   1      30.588  14.285  14.279 -0.14 +0.14    +0.473    30.475
ATOM     16  O   UNL d   1      31.298  15.175  15.250 -0.31 -0.09    -0.228    30.475
ATOM     17  O   UNL d   1      31.544  13.743  13.125 -0.08 -0.06    -0.303    30.475
ATOM     18  H   UNL d   1      31.381  12.797  12.950 +0.05 +0.04    +0.222    30.475
ATOM     19  O   UNL d   1      29.431  14.978  13.435 -0.22 -0.09    -0.303    30.475
ATOM     20  H   UNL d   1      29.212  14.465  12.635 +0.07 +0.05    +0.222    30.475
ATOM     21  O   UNL d   1      29.208   9.545  12.371 -0.00 -0.03    -0.278    30.475
ATOM     22  P   UNL d   1      30.474   9.254  11.444 -0.00 +0.04    +0.473    30.475
ATOM     23  O   UNL d   1      31.058   7.882  11.458 +0.00 -0.02    -0.228    30.475
ATOM     24  O   UNL d   1      29.954   9.743  10.021 -0.00 -0.02    -0.303    30.475
ATOM     25  H   UNL d   1      29.654  10.683  10.109 +0.00 +0.02    +0.222    30.475
ATOM     26  O   UNL d   1      31.464  10.444  11.862 -0.00 -0.03    -0.303    30.475
ATOM     27  H   UNL d   1      31.129  11.286  11.491 +0.01 +0.02    +0.222    30.475
ATOM     28  O   UNL d   1      27.984  12.741  16.689 -0.04 -0.13    -0.278    30.475
ATOM     29  P   UNL d   1      27.426  14.231  16.744 -0.08 +0.39    +0.473    30.475
ATOM     30  O   UNL d   1      26.270  14.516  15.856 -0.11 -0.12    -0.228    30.475
ATOM     31  O   UNL d   1      27.186  14.381  18.319 -0.57 -0.42    -0.303    30.475
ATOM     32  H   UNL d   1      26.558  13.680  18.609 +0.02 +0.16    +0.222    30.475
ATOM     33  O   UNL d   1      28.745  15.091  16.506 -0.29 -0.36    -0.303    30.475
ATOM     34  H   UNL d   1      29.123  14.861  15.622 +0.07 +0.15    +0.222    30.475
ATOM     35  O   UNL d   1      29.478   8.639  15.134 +0.00 -0.03    -0.278    30.475
ATOM     36  P   UNL d   1      29.011   7.115  15.055 +0.00 +0.04    +0.473    30.475
ATOM     37  O   UNL d   1      29.707   6.178  15.991 +0.00 -0.02    -0.228    30.475
ATOM     38  O   UNL d   1      27.443   7.241  15.300 +0.00 -0.03    -0.303    30.475
ATOM     39  H   UNL d   1      27.284   7.830  16.069 +0.00 +0.02    +0.222    30.475
ATOM     40  O   UNL d   1      29.132   6.803  13.500 +0.00 -0.02    -0.303    30.475
ATOM     41  H   UNL d   1      29.641   7.499  13.027 +0.00 +0.02    +0.222    30.475
ATOM     42  O   UNL d   1      27.364   9.930  16.670 +0.00 -0.05    -0.278    30.475
ATOM     43  P   UNL d   1      27.303  10.246  18.232 +0.01 +0.09    +0.473    30.475
ATOM     44  O   UNL d   1      26.948   9.125  19.146 +0.00 -0.03    -0.228    30.475
ATOM     45  O   UNL d   1      28.731  10.889  18.514 +0.00 -0.08    -0.303    30.475
ATOM     46  H   UNL d   1      28.692  11.866  18.509 +0.02 +0.09    +0.222    30.475
ATOM     47  O   UNL d   1      26.347  11.531  18.308 +0.00 -0.09    -0.303    30.475
ATOM     48  H   UNL d   1      26.771  12.276  17.834 +0.02 +0.09    +0.222    30.475
TER
ENDMDL
MODEL       64
USER    Run = 64
USER    Cluster Rank = 83
USER    Number of conformations in this cluster = 1
USER  
USER    RMSD from reference structure       = 16.628 A
USER  
USER    Estimated Free Energy of Binding    =   +5.22 kcal/mol  [=(1)+(2)+(3)-(4)]
USER    
USER    (1) Final Intermolecular Energy     =   -1.94 kcal/mol
USER        vdW + Hbond + desolv Energy     =   -1.34 kcal/mol
USER        Electrostatic Energy            =   -0.60 kcal/mol
USER    (2) Final Total Internal Energy     =  -13.76 kcal/mol
USER    (3) Torsional Free Energy           =   +7.16 kcal/mol
USER    (4) Unbound System's Energy  [=(2)] =  -13.76 kcal/mol
USER    
USER    
USER  
USER    DPF = D:/Protein_go_brrr/autodock/final/6BB5/IHP/dock.dpf
USER    NEWDPF move	IHP_ideal_opt.pdbqt
USER    NEWDPF about	0.035000 0.082000 -0.065000
USER    NEWDPF tran0	12.302403 12.189968 -9.672602
USER    NEWDPF axisangle0	0.311149 0.770038 0.556980 -117.322265
USER    NEWDPF quaternion0	0.265755 0.657695 0.475720 -0.520099
USER    NEWDPF dihe0	-180.00 -18.63 50.94 83.16 -80.68 76.26 -125.27 -33.97 22.54 30.99 90.35 125.78 18.42 113.83 45.64 -156.12 144.21 36.93 -137.77 -17.91 168.91 0.63 -12.97 -13.30 
USER  
USER                              x       y       z    vdW   Elec        q     RMS 
ATOM      1  C   UNL d   1      12.774  13.164 -11.019 +0.00 -0.03    +0.194    16.628
ATOM      2  C   UNL d   1      12.942  11.654 -11.204 +0.00 -0.02    +0.194    16.628
ATOM      3  C   UNL d   1      13.534  10.993  -9.958 +0.00 -0.02    +0.194    16.628
ATOM      4  C   UNL d   1      12.777  11.338  -8.677 +0.01 -0.01    +0.194    16.628
ATOM      5  C   UNL d   1      12.487  12.823  -8.508 -0.00 -0.02    +0.194    16.628
ATOM      6  C   UNL d   1      11.953  13.498  -9.773 +0.01 -0.02    +0.194    16.628
ATOM      7  O   UNL d   1      12.063  13.675 -12.149 +0.00 +0.03    -0.278    16.628
ATOM      8  P   UNL d   1      10.496  13.950 -11.998 +0.01 -0.01    +0.473    16.628
ATOM      9  O   UNL d   1      10.139  15.098 -11.121 +0.00 -0.00    -0.228    16.628
ATOM     10  O   UNL d   1       9.988  14.126 -13.500 +0.00 +0.00    -0.303    16.628
ATOM     11  H   UNL d   1      10.615  13.694 -14.110 +0.00 -0.01    +0.222    16.628
ATOM     12  O   UNL d   1       9.867  12.548 -11.596 +0.00 -0.00    -0.303    16.628
ATOM     13  H   UNL d   1       9.971  11.864 -12.296 +0.00 -0.00    +0.222    16.628
ATOM     14  O   UNL d   1      11.659  11.071 -11.465 +0.00 +0.01    -0.278    16.628
ATOM     15  P   UNL d   1      11.444  10.437 -12.920 +0.00 -0.01    +0.473    16.628
ATOM     16  O   UNL d   1      10.210   9.614 -13.118 +0.00 +0.00    -0.228    16.628
ATOM     17  O   UNL d   1      11.515  11.689 -13.902 +0.00 +0.01    -0.303    16.628
ATOM     18  H   UNL d   1      10.994  12.439 -13.555 +0.00 -0.01    +0.222    16.628
ATOM     19  O   UNL d   1      12.817   9.701 -13.239 +0.00 +0.01    -0.303    16.628
ATOM     20  H   UNL d   1      13.302   9.473 -12.425 +0.00 -0.01    +0.222    16.628
ATOM     21  O   UNL d   1      12.059  14.905  -9.567 -0.01 +0.07    -0.278    16.628
ATOM     22  P   UNL d   1      13.500  15.581  -9.453 -0.01 -0.41    +0.473    16.628
ATOM     23  O   UNL d   1      14.288  15.776 -10.705 -0.07 +0.17    -0.228    16.628
ATOM     24  O   UNL d   1      13.169  16.920  -8.658 -0.09 +0.41    -0.303    16.628
ATOM     25  H   UNL d   1      13.785  17.627  -8.976 -0.38 -0.57    +0.222    16.628
ATOM     26  O   UNL d   1      14.192  14.685  -8.319 -0.08 +0.32    -0.303    16.628
ATOM     27  H   UNL d   1      14.118  15.143  -7.457 -0.17 -0.31    +0.222    16.628
ATOM     28  O   UNL d   1      13.395   9.587 -10.112 +0.00 +0.01    -0.278    16.628
ATOM     29  P   UNL d   1      14.679   8.670 -10.327 +0.00 -0.02    +0.473    16.628
ATOM     30  O   UNL d   1      14.416   7.211 -10.428 +0.00 +0.00    -0.228    16.628
ATOM     31  O   UNL d   1      15.319   9.382 -11.609 +0.00 +0.02    -0.303    16.628
ATOM     32  H   UNL d   1      14.773   9.158 -12.398 +0.00 -0.01    +0.222    16.628
ATOM     33  O   UNL d   1      15.634   9.149  -9.146 +0.00 +0.02    -0.303    16.628
ATOM     34  H   UNL d   1      15.080   9.523  -8.417 +0.00 -0.01    +0.222    16.628
ATOM     35  O   UNL d   1      11.460  12.908  -7.522 -0.01 -0.02    -0.278    16.628
ATOM     36  P   UNL d   1      11.731  13.657  -6.140 -0.04 +0.13    +0.473    16.628
ATOM     37  O   UNL d   1      10.660  13.512  -5.107 -0.60 -0.27    -0.228    16.628
ATOM     38  O   UNL d   1      13.140  13.052  -5.711 -0.04 +0.00    -0.303    16.628
ATOM     39  H   UNL d   1      13.113  12.075  -5.808 +0.03 +0.01    +0.222    16.628
ATOM     40  O   UNL d   1      12.079  15.134  -6.618 -0.03 +0.03    -0.303    16.628
ATOM     41  H   UNL d   1      12.209  15.181  -7.591 +0.06 -0.07    +0.222    16.628
ATOM     42  O   UNL d   1      13.613  10.945  -7.583 +0.00 +0.02    -0.278    16.628
ATOM     43  P   UNL d   1      13.031   9.940  -6.490 +0.01 +0.01    +0.473    16.628
ATOM     44  O   UNL d   1      13.074   8.484  -6.804 +0.00 -0.00    -0.228    16.628
ATOM     45  O   UNL d   1      13.835  10.346  -5.178 +0.00 -0.01    -0.303    16.628
ATOM     46  H   UNL d   1      14.247  11.229  -5.270 +0.02 -0.01    +0.222    16.628
ATOM     47  O   UNL d   1      11.577  10.538  -6.179 +0.00 -0.04    -0.303    16.628
ATOM     48  H   UNL d   1      11.665  11.476  -5.911 +0.02 +0.04    +0.222    16.628
TER
ENDMDL
MODEL       87
USER    Run = 87
USER    Cluster Rank = 84
USER    Number of conformations in this cluster = 1
USER  
USER    RMSD from reference structure       = 37.470 A
USER  
USER    Estimated Free Energy of Binding    =   +5.23 kcal/mol  [=(1)+(2)+(3)-(4)]
USER    
USER    (1) Final Intermolecular Energy     =   -1.93 kcal/mol
USER        vdW + Hbond + desolv Energy     =   -1.81 kcal/mol
USER        Electrostatic Energy            =   -0.12 kcal/mol
USER    (2) Final Total Internal Energy     =  -14.67 kcal/mol
USER    (3) Torsional Free Energy           =   +7.16 kcal/mol
USER    (4) Unbound System's Energy  [=(2)] =  -14.67 kcal/mol
USER    
USER    
USER  
USER    DPF = D:/Protein_go_brrr/autodock/final/6BB5/IHP/dock.dpf
USER    NEWDPF move	IHP_ideal_opt.pdbqt
USER    NEWDPF about	0.035000 0.082000 -0.065000
USER    NEWDPF tran0	-3.709064 40.450201 6.722693
USER    NEWDPF axisangle0	-0.513210 -0.052580 0.856651 98.677038
USER    NEWDPF quaternion0	-0.389307 -0.039886 0.649832 0.651589
USER    NEWDPF dihe0	-130.85 20.62 176.62 5.07 34.74 -171.79 -10.40 -137.74 154.05 123.79 68.10 86.49 -142.57 77.64 134.16 143.51 43.35 172.74 21.01 -35.98 -21.64 -41.58 -179.24 26.98 
USER  
USER                              x       y       z    vdW   Elec        q     RMS 
ATOM      1  C   UNL d   1      -4.657  39.117   6.168 -0.01 +0.06    +0.194    37.470
ATOM      2  C   UNL d   1      -5.385  40.460   6.242 +0.00 +0.05    +0.194    37.470
ATOM      3  C   UNL d   1      -5.048  41.217   7.528 -0.01 +0.07    +0.194    37.470
ATOM      4  C   UNL d   1      -3.547  41.361   7.766 -0.06 +0.13    +0.194    37.470
ATOM      5  C   UNL d   1      -2.764  40.066   7.589 -0.08 +0.17    +0.194    37.470
ATOM      6  C   UNL d   1      -3.145  39.278   6.334 -0.07 +0.09    +0.194    37.470
ATOM      7  O   UNL d   1      -4.886  38.556   4.873 -0.00 -0.07    -0.278    37.470
ATOM      8  P   UNL d   1      -5.977  37.399   4.729 +0.01 +0.07    +0.473    37.470
ATOM      9  O   UNL d   1      -5.453  36.014   4.883 -0.00 -0.03    -0.228    37.470
ATOM     10  O   UNL d   1      -7.085  37.775   5.813 +0.00 -0.04    -0.303    37.470
ATOM     11  H   UNL d   1      -7.579  38.562   5.517 +0.00 +0.03    +0.222    37.470
ATOM     12  O   UNL d   1      -6.729  37.708   3.364 +0.00 -0.04    -0.303    37.470
ATOM     13  H   UNL d   1      -6.684  38.656   3.105 +0.00 +0.03    +0.222    37.470
ATOM     14  O   UNL d   1      -4.995  41.265   5.123 +0.00 -0.07    -0.278    37.470
ATOM     15  P   UNL d   1      -5.959  41.229   3.844 +0.00 +0.09    +0.473    37.470
ATOM     16  O   UNL d   1      -6.318  42.549   3.236 +0.00 -0.03    -0.228    37.470
ATOM     17  O   UNL d   1      -5.211  40.262   2.823 +0.00 -0.07    -0.303    37.470
ATOM     18  H   UNL d   1      -5.375  39.325   3.041 +0.01 +0.05    +0.222    37.470
ATOM     19  O   UNL d   1      -7.187  40.326   4.299 +0.00 -0.04    -0.303    37.470
ATOM     20  H   UNL d   1      -6.893  39.456   4.625 +0.00 +0.03    +0.222    37.470
ATOM     21  O   UNL d   1      -2.600  37.970   6.487 -0.07 -0.13    -0.278    37.470
ATOM     22  P   UNL d   1      -1.619  37.386   5.373 -0.10 +0.22    +0.473    37.470
ATOM     23  O   UNL d   1      -0.794  36.191   5.716 -0.20 -0.08    -0.228    37.470
ATOM     24  O   UNL d   1      -2.608  37.183   4.143 -0.06 -0.13    -0.303    37.470
ATOM     25  H   UNL d   1      -3.506  36.967   4.501 +0.03 +0.06    +0.222    37.470
ATOM     26  O   UNL d   1      -0.808  38.697   4.933 -0.13 -0.22    -0.303    37.470
ATOM     27  H   UNL d   1      -0.959  39.405   5.592 +0.08 +0.14    +0.222    37.470
ATOM     28  O   UNL d   1      -5.536  42.545   7.384 +0.00 -0.07    -0.278    37.470
ATOM     29  P   UNL d   1      -7.103  42.828   7.359 +0.01 +0.07    +0.473    37.470
ATOM     30  O   UNL d   1      -7.619  43.678   8.463 +0.00 -0.03    -0.228    37.470
ATOM     31  O   UNL d   1      -7.261  43.396   5.871 +0.00 -0.04    -0.303    37.470
ATOM     32  H   UNL d   1      -6.702  42.854   5.267 +0.00 +0.03    +0.222    37.470
ATOM     33  O   UNL d   1      -7.706  41.359   7.240 +0.00 -0.04    -0.303    37.470
ATOM     34  H   UNL d   1      -7.631  41.056   6.302 +0.00 +0.03    +0.222    37.470
ATOM     35  O   UNL d   1      -1.400  40.455   7.442 -0.18 -0.28    -0.278    37.470
ATOM     36  P   UNL d   1      -0.999  41.611   6.418 -0.13 +0.29    +0.473    37.470
ATOM     37  O   UNL d   1      -1.046  43.002   6.966 -0.11 -0.12    -0.228    37.470
ATOM     38  O   UNL d   1       0.447  41.141   5.947 -0.25 -0.18    -0.303    37.470
ATOM     39  H   UNL d   1       0.352  40.489   5.219 -0.02 +0.15    +0.222    37.470
ATOM     40  O   UNL d   1      -1.931  41.296   5.168 -0.05 -0.16    -0.303    37.470
ATOM     41  H   UNL d   1      -2.837  41.656   5.289 +0.03 +0.09    +0.222    37.470
ATOM     42  O   UNL d   1      -3.380  41.771   9.127 -0.40 -0.31    -0.278    37.470
ATOM     43  P   UNL d   1      -3.497  43.321   9.485 -0.02 +0.25    +0.473    37.470
ATOM     44  O   UNL d   1      -2.560  43.862  10.509 -0.05 -0.11    -0.228    37.470
ATOM     45  O   UNL d   1      -3.377  44.018   8.060 -0.01 -0.10    -0.303    37.470
ATOM     46  H   UNL d   1      -3.188  43.365   7.357 +0.02 +0.09    +0.222    37.470
ATOM     47  O   UNL d   1      -5.056  43.506   9.808 +0.00 -0.08    -0.303    37.470
ATOM     48  H   UNL d   1      -5.519  43.807   8.999 +0.01 +0.05    +0.222    37.470
TER
ENDMDL
MODEL        3
USER    Run = 3
USER    Cluster Rank = 85
USER    Number of conformations in this cluster = 1
USER  
USER    RMSD from reference structure       = 65.222 A
USER  
USER    Estimated Free Energy of Binding    =   +5.25 kcal/mol  [=(1)+(2)+(3)-(4)]
USER    
USER    (1) Final Intermolecular Energy     =   -1.91 kcal/mol
USER        vdW + Hbond + desolv Energy     =   -1.85 kcal/mol
USER        Electrostatic Energy            =   -0.06 kcal/mol
USER    (2) Final Total Internal Energy     =  -15.23 kcal/mol
USER    (3) Torsional Free Energy           =   +7.16 kcal/mol
USER    (4) Unbound System's Energy  [=(2)] =  -15.23 kcal/mol
USER    
USER    
USER  
USER    DPF = D:/Protein_go_brrr/autodock/final/6BB5/IHP/dock.dpf
USER    NEWDPF move	IHP_ideal_opt.pdbqt
USER    NEWDPF about	0.035000 0.082000 -0.065000
USER    NEWDPF tran0	48.694077 43.686759 22.891743
USER    NEWDPF axisangle0	-0.306570 -0.645390 -0.699633 -139.995653
USER    NEWDPF quaternion0	-0.288078 -0.606460 -0.657431 -0.342056
USER    NEWDPF dihe0	159.84 -149.30 165.48 11.19 6.28 -170.88 -73.20 5.07 171.55 -26.30 95.50 168.82 98.03 177.45 168.54 -0.41 40.93 28.56 -0.98 11.46 -19.90 -8.60 -21.99 -5.75 
USER  
USER                              x       y       z    vdW   Elec        q     RMS 
ATOM      1  C   UNL d   1      47.204  44.375  23.431 -0.01 +0.00    +0.194    65.222
ATOM      2  C   UNL d   1      47.324  44.157  21.921 -0.02 +0.00    +0.194    65.222
ATOM      3  C   UNL d   1      48.698  44.577  21.396 -0.01 +0.00    +0.194    65.222
ATOM      4  C   UNL d   1      49.855  43.943  22.164 -0.00 +0.00    +0.194    65.222
ATOM      5  C   UNL d   1      49.719  44.035  23.678 +0.00 +0.00    +0.194    65.222
ATOM      6  C   UNL d   1      48.326  43.675  24.199 +0.00 +0.00    +0.194    65.222
ATOM      7  O   UNL d   1      45.969  43.803  23.867 -0.01 -0.00    -0.278    65.222
ATOM      8  P   UNL d   1      44.929  44.740  24.638 +0.01 +0.01    +0.473    65.222
ATOM      9  O   UNL d   1      43.497  44.381  24.449 -0.03 +0.00    -0.228    65.222
ATOM     10  O   UNL d   1      45.399  44.669  26.161 -0.00 -0.01    -0.303    65.222
ATOM     11  H   UNL d   1      46.198  44.114  26.230 +0.00 +0.01    +0.222    65.222
ATOM     12  O   UNL d   1      45.332  46.223  24.234 -0.00 -0.01    -0.303    65.222
ATOM     13  H   UNL d   1      44.638  46.885  24.456 +0.01 +0.01    +0.222    65.222
ATOM     14  O   UNL d   1      47.130  42.767  21.633 -0.02 +0.00    -0.278    65.222
ATOM     15  P   UNL d   1      46.335  42.420  20.287 -0.07 -0.01    +0.473    65.222
ATOM     16  O   UNL d   1      45.158  41.504  20.419 -0.22 -0.01    -0.228    65.222
ATOM     17  O   UNL d   1      45.945  43.844  19.689 -0.18 +0.02    -0.303    65.222
ATOM     18  H   UNL d   1      46.735  44.316  19.363 +0.03 -0.02    +0.222    65.222
ATOM     19  O   UNL d   1      47.463  41.945  19.271 -0.12 +0.03    -0.303    65.222
ATOM     20  H   UNL d   1      48.215  42.565  19.252 +0.04 -0.02    +0.222    65.222
ATOM     21  O   UNL d   1      48.259  44.132  25.547 +0.00 -0.01    -0.278    65.222
ATOM     22  P   UNL d   1      47.935  43.099  26.719 +0.00 +0.02    +0.473    65.222
ATOM     23  O   UNL d   1      47.457  43.640  28.024 +0.00 -0.01    -0.228    65.222
ATOM     24  O   UNL d   1      46.926  42.099  26.001 +0.00 -0.01    -0.303    65.222
ATOM     25  H   UNL d   1      46.140  42.619  25.697 +0.01 +0.00    +0.222    65.222
ATOM     26  O   UNL d   1      49.282  42.231  26.769 +0.00 -0.01    -0.303    65.222
ATOM     27  H   UNL d   1      49.986  42.700  26.275 +0.00 +0.01    +0.222    65.222
ATOM     28  O   UNL d   1      48.815  44.089  20.066 -0.03 +0.01    -0.278    65.222
ATOM     29  P   UNL d   1      48.616  45.070  18.828 -0.00 -0.01    +0.473    65.222
ATOM     30  O   UNL d   1      47.751  46.252  19.079 -0.55 -0.01    -0.228    65.222
ATOM     31  O   UNL d   1      50.144  45.357  18.449 -0.06 +0.01    -0.303    65.222
ATOM     32  H   UNL d   1      50.704  45.166  19.237 +0.02 -0.00    +0.222    65.222
ATOM     33  O   UNL d   1      48.151  44.070  17.679 -0.31 +0.06    -0.303    65.222
ATOM     34  H   UNL d   1      47.281  43.674  17.931 -0.32 -0.10    +0.222    65.222
ATOM     35  O   UNL d   1      50.628  43.072  24.208 +0.00 -0.01    -0.278    65.222
ATOM     36  P   UNL d   1      51.962  43.543  24.943 +0.00 +0.02    +0.473    65.222
ATOM     37  O   UNL d   1      51.818  43.865  26.397 +0.00 -0.01    -0.228    65.222
ATOM     38  O   UNL d   1      52.949  42.331  24.637 +0.00 -0.01    -0.303    65.222
ATOM     39  H   UNL d   1      53.555  42.587  23.908 +0.00 +0.01    +0.222    65.222
ATOM     40  O   UNL d   1      52.480  44.709  23.993 +0.00 -0.01    -0.303    65.222
ATOM     41  H   UNL d   1      52.776  44.364  23.121 +0.00 +0.01    +0.222    65.222
ATOM     42  O   UNL d   1      51.038  44.664  21.802 +0.00 -0.00    -0.278    65.222
ATOM     43  P   UNL d   1      52.210  43.893  21.043 +0.00 +0.01    +0.473    65.222
ATOM     44  O   UNL d   1      51.996  43.560  19.607 -0.00 +0.00    -0.228    65.222
ATOM     45  O   UNL d   1      53.472  44.822  21.315 +0.00 -0.00    -0.303    65.222
ATOM     46  H   UNL d   1      53.342  45.379  22.109 +0.00 +0.00    +0.222    65.222
ATOM     47  O   UNL d   1      52.510  42.646  22.005 +0.00 -0.01    -0.303    65.222
ATOM     48  H   UNL d   1      52.060  42.785  22.864 +0.00 +0.01    +0.222    65.222
TER
ENDMDL
MODEL        1
USER    Run = 1
USER    Cluster Rank = 86
USER    Number of conformations in this cluster = 1
USER  
USER    RMSD from reference structure       = 50.441 A
USER  
USER    Estimated Free Energy of Binding    =   +5.33 kcal/mol  [=(1)+(2)+(3)-(4)]
USER    
USER    (1) Final Intermolecular Energy     =   -1.83 kcal/mol
USER        vdW + Hbond + desolv Energy     =   -1.77 kcal/mol
USER        Electrostatic Energy            =   -0.06 kcal/mol
USER    (2) Final Total Internal Energy     =  -14.99 kcal/mol
USER    (3) Torsional Free Energy           =   +7.16 kcal/mol
USER    (4) Unbound System's Energy  [=(2)] =  -14.99 kcal/mol
USER    
USER    
USER  
USER    DPF = D:/Protein_go_brrr/autodock/final/6BB5/IHP/dock.dpf
USER    NEWDPF move	IHP_ideal_opt.pdbqt
USER    NEWDPF about	0.035000 0.082000 -0.065000
USER    NEWDPF tran0	50.777048 21.283785 0.880905
USER    NEWDPF axisangle0	0.615162 0.788102 0.021714 135.773367
USER    NEWDPF quaternion0	0.569911 0.730130 0.020116 0.376440
USER    NEWDPF dihe0	174.30 -11.96 132.96 89.81 119.55 111.78 -26.01 -179.86 169.11 0.90 80.63 -115.65 -116.73 87.09 -117.70 130.40 40.32 112.39 42.32 -10.88 -9.62 -26.27 -16.10 -1.76 
USER  
USER                              x       y       z    vdW   Elec        q     RMS 
ATOM      1  C   UNL d   1      49.524  22.360   1.387 -0.03 +0.03    +0.194    50.441
ATOM      2  C   UNL d   1      49.121  20.890   1.258 -0.01 +0.03    +0.194    50.441
ATOM      3  C   UNL d   1      49.693  20.255  -0.011 +0.00 +0.02    +0.194    50.441
ATOM      4  C   UNL d   1      51.199  20.455  -0.157 +0.00 +0.02    +0.194    50.441
ATOM      5  C   UNL d   1      51.660  21.888   0.077 -0.00 +0.02    +0.194    50.441
ATOM      6  C   UNL d   1      51.040  22.544   1.313 -0.02 +0.02    +0.194    50.441
ATOM      7  O   UNL d   1      49.101  22.827   2.670 -0.09 -0.05    -0.278    50.441
ATOM      8  P   UNL d   1      47.570  23.241   2.860 -0.19 +0.08    +0.473    50.441
ATOM      9  O   UNL d   1      47.131  24.420   2.063 -0.28 -0.03    -0.228    50.441
ATOM     10  O   UNL d   1      46.763  21.910   2.509 -0.11 -0.08    -0.303    50.441
ATOM     11  H   UNL d   1      47.368  21.146   2.530 +0.07 +0.07    +0.222    50.441
ATOM     12  O   UNL d   1      47.363  23.351   4.432 -0.23 -0.03    -0.303    50.441
ATOM     13  H   UNL d   1      47.588  22.520   4.909 -0.35 +0.03    +0.222    50.441
ATOM     14  O   UNL d   1      49.616  20.168   2.393 -0.02 -0.07    -0.278    50.441
ATOM     15  P   UNL d   1      48.526  19.425   3.300 -0.05 +0.23    +0.473    50.441
ATOM     16  O   UNL d   1      48.914  18.094   3.863 -0.12 -0.13    -0.228    50.441
ATOM     17  O   UNL d   1      48.169  20.492   4.428 -0.12 -0.20    -0.303    50.441
ATOM     18  H   UNL d   1      48.156  21.398   4.064 +0.06 +0.09    +0.222    50.441
ATOM     19  O   UNL d   1      47.202  19.437   2.419 -0.09 -0.12    -0.303    50.441
ATOM     20  H   UNL d   1      47.403  19.418   1.465 +0.02 +0.06    +0.222    50.441
ATOM     21  O   UNL d   1      51.287  23.944   1.204 -0.02 -0.02    -0.278    50.441
ATOM     22  P   UNL d   1      52.285  24.654   2.226 -0.04 +0.02    +0.473    50.441
ATOM     23  O   UNL d   1      51.732  25.158   3.516 -0.18 -0.01    -0.228    50.441
ATOM     24  O   UNL d   1      53.432  23.560   2.373 -0.01 -0.02    -0.303    50.441
ATOM     25  H   UNL d   1      53.752  23.325   1.465 +0.01 +0.01    +0.222    50.441
ATOM     26  O   UNL d   1      52.988  25.747   1.287 -0.02 -0.01    -0.303    50.441
ATOM     27  H   UNL d   1      53.477  25.291   0.572 +0.02 +0.01    +0.222    50.441
ATOM     28  O   UNL d   1      49.507  18.849   0.092 +0.00 -0.04    -0.278    50.441
ATOM     29  P   UNL d   1      48.124  18.186  -0.336 +0.01 +0.06    +0.473    50.441
ATOM     30  O   UNL d   1      48.133  17.470  -1.638 +0.00 -0.02    -0.228    50.441
ATOM     31  O   UNL d   1      47.815  17.315   0.970 +0.00 -0.06    -0.303    50.441
ATOM     32  H   UNL d   1      48.269  17.730   1.739 +0.02 +0.06    +0.222    50.441
ATOM     33  O   UNL d   1      47.111  19.406  -0.193 -0.00 -0.04    -0.303    50.441
ATOM     34  H   UNL d   1      46.408  19.165   0.460 +0.02 +0.04    +0.222    50.441
ATOM     35  O   UNL d   1      53.066  21.810   0.304 -0.00 -0.02    -0.278    50.441
ATOM     36  P   UNL d   1      54.086  22.467  -0.731 +0.00 +0.03    +0.473    50.441
ATOM     37  O   UNL d   1      54.356  23.925  -0.533 -0.00 -0.01    -0.228    50.441
ATOM     38  O   UNL d   1      55.367  21.535  -0.563 +0.00 -0.02    -0.303    50.441
ATOM     39  H   UNL d   1      55.382  20.875  -1.289 +0.00 +0.01    +0.222    50.441
ATOM     40  O   UNL d   1      53.477  22.029  -2.133 +0.00 -0.02    -0.303    50.441
ATOM     41  H   UNL d   1      53.157  21.100  -2.117 +0.00 +0.01    +0.222    50.441
ATOM     42  O   UNL d   1      51.532  20.121  -1.509 +0.00 -0.02    -0.278    50.441
ATOM     43  P   UNL d   1      52.430  18.832  -1.787 +0.00 +0.03    +0.473    50.441
ATOM     44  O   UNL d   1      52.354  18.222  -3.143 +0.00 -0.01    -0.228    50.441
ATOM     45  O   UNL d   1      53.885  19.325  -1.374 +0.00 -0.02    -0.303    50.441
ATOM     46  H   UNL d   1      53.859  20.208  -0.956 +0.00 +0.01    +0.222    50.441
ATOM     47  O   UNL d   1      52.058  17.858  -0.569 +0.00 -0.03    -0.303    50.441
ATOM     48  H   UNL d   1      51.110  17.619  -0.624 +0.00 +0.02    +0.222    50.441
TER
ENDMDL
MODEL        5
USER    Run = 5
USER    Cluster Rank = 87
USER    Number of conformations in this cluster = 1
USER  
USER    RMSD from reference structure       = 20.427 A
USER  
USER    Estimated Free Energy of Binding    =   +5.34 kcal/mol  [=(1)+(2)+(3)-(4)]
USER    
USER    (1) Final Intermolecular Energy     =   -1.82 kcal/mol
USER        vdW + Hbond + desolv Energy     =   -1.80 kcal/mol
USER        Electrostatic Energy            =   -0.03 kcal/mol
USER    (2) Final Total Internal Energy     =  -15.59 kcal/mol
USER    (3) Torsional Free Energy           =   +7.16 kcal/mol
USER    (4) Unbound System's Energy  [=(2)] =  -15.59 kcal/mol
USER    
USER    
USER  
USER    DPF = D:/Protein_go_brrr/autodock/final/6BB5/IHP/dock.dpf
USER    NEWDPF move	IHP_ideal_opt.pdbqt
USER    NEWDPF about	0.035000 0.082000 -0.065000
USER    NEWDPF tran0	-3.918470 18.772984 14.564788
USER    NEWDPF axisangle0	0.893742 -0.371447 0.251500 -107.441272
USER    NEWDPF quaternion0	0.720483 -0.299439 0.202744 -0.591723
USER    NEWDPF dihe0	93.03 106.93 149.89 -4.89 121.49 177.87 -47.42 16.52 54.24 11.12 166.77 142.66 -27.61 74.66 25.00 169.52 154.08 -127.59 33.22 -29.89 174.16 -31.09 -8.31 162.07 
USER  
USER                              x       y       z    vdW   Elec        q     RMS 
ATOM      1  C   UNL d   1      -2.446  17.869  14.553 -0.01 -0.01    +0.194    20.427
ATOM      2  C   UNL d   1      -2.805  18.565  13.239 -0.03 -0.02    +0.194    20.427
ATOM      3  C   UNL d   1      -4.290  18.410  12.903 -0.00 -0.01    +0.194    20.427
ATOM      4  C   UNL d   1      -5.212  18.826  14.047 +0.00 -0.01    +0.194    20.427
ATOM      5  C   UNL d   1      -4.822  18.247  15.401 +0.00 -0.01    +0.194    20.427
ATOM      6  C   UNL d   1      -3.327  18.346  15.710 -0.00 -0.01    +0.194    20.427
ATOM      7  O   UNL d   1      -1.095  18.204  14.881 -0.02 +0.03    -0.278    20.427
ATOM      8  P   UNL d   1       0.074  17.269  14.324 -0.03 -0.07    +0.473    20.427
ATOM      9  O   UNL d   1      -0.266  16.493  13.101 -0.04 +0.03    -0.228    20.427
ATOM     10  O   UNL d   1       1.300  18.268  14.113 -0.09 +0.10    -0.303    20.427
ATOM     11  H   UNL d   1       1.079  18.916  13.419 -0.49 -0.12    +0.222    20.427
ATOM     12  O   UNL d   1       0.552  16.416  15.576 -0.01 +0.02    -0.303    20.427
ATOM     13  H   UNL d   1      -0.158  15.843  15.946 +0.01 -0.01    +0.222    20.427
ATOM     14  O   UNL d   1      -2.506  19.962  13.353 -0.03 +0.03    -0.278    20.427
ATOM     15  P   UNL d   1      -1.153  20.463  12.658 -0.12 -0.11    +0.473    20.427
ATOM     16  O   UNL d   1      -1.259  21.658  11.763 -0.12 +0.07    -0.228    20.427
ATOM     17  O   UNL d   1      -0.152  20.691  13.876 -0.14 +0.06    -0.303    20.427
ATOM     18  H   UNL d   1      -0.083  19.889  14.429 +0.03 -0.04    +0.222    20.427
ATOM     19  O   UNL d   1      -0.544  19.155  11.986 -0.13 +0.10    -0.303    20.427
ATOM     20  H   UNL d   1      -0.294  18.490  12.653 +0.02 -0.06    +0.222    20.427
ATOM     21  O   UNL d   1      -3.075  17.478  16.812 -0.00 +0.01    -0.278    20.427
ATOM     22  P   UNL d   1      -3.116  15.897  16.601 +0.00 -0.01    +0.473    20.427
ATOM     23  O   UNL d   1      -2.245  15.305  15.545 -0.00 +0.01    -0.228    20.427
ATOM     24  O   UNL d   1      -2.835  15.365  18.074 +0.00 +0.00    -0.303    20.427
ATOM     25  H   UNL d   1      -3.509  15.766  18.681 +0.00 -0.00    +0.222    20.427
ATOM     26  O   UNL d   1      -4.689  15.630  16.446 +0.00 +0.01    -0.303    20.427
ATOM     27  H   UNL d   1      -5.164  16.486  16.461 +0.00 -0.00    +0.222    20.427
ATOM     28  O   UNL d   1      -4.583  19.304  11.837 -0.01 +0.02    -0.278    20.427
ATOM     29  P   UNL d   1      -4.209  18.919  10.338 -0.02 -0.03    +0.473    20.427
ATOM     30  O   UNL d   1      -5.177  19.361   9.302 -0.01 +0.02    -0.228    20.427
ATOM     31  O   UNL d   1      -2.730  19.526  10.255 -0.61 +0.01    -0.303    20.427
ATOM     32  H   UNL d   1      -2.484  19.876  11.142 +0.03 -0.02    +0.222    20.427
ATOM     33  O   UNL d   1      -3.941  17.354  10.452 -0.01 +0.02    -0.303    20.427
ATOM     34  H   UNL d   1      -4.807  16.884  10.526 +0.01 -0.01    +0.222    20.427
ATOM     35  O   UNL d   1      -5.505  19.038  16.371 +0.00 +0.01    -0.278    20.427
ATOM     36  P   UNL d   1      -6.505  18.353  17.408 +0.00 -0.01    +0.473    20.427
ATOM     37  O   UNL d   1      -7.473  19.276  18.077 +0.00 +0.00    -0.228    20.427
ATOM     38  O   UNL d   1      -7.186  17.229  16.509 +0.00 +0.00    -0.303    20.427
ATOM     39  H   UNL d   1      -7.014  17.425  15.563 +0.00 -0.00    +0.222    20.427
ATOM     40  O   UNL d   1      -5.513  17.540  18.350 +0.00 +0.00    -0.303    20.427
ATOM     41  H   UNL d   1      -4.711  17.244  17.866 +0.00 -0.00    +0.222    20.427
ATOM     42  O   UNL d   1      -6.515  18.324  13.733 +0.00 +0.01    -0.278    20.427
ATOM     43  P   UNL d   1      -6.674  16.786  13.339 +0.00 -0.01    +0.473    20.427
ATOM     44  O   UNL d   1      -6.372  16.403  11.931 +0.00 +0.01    -0.228    20.427
ATOM     45  O   UNL d   1      -5.768  16.053  14.422 +0.00 +0.01    -0.303    20.427
ATOM     46  H   UNL d   1      -6.294  15.768  15.195 +0.00 -0.00    +0.222    20.427
ATOM     47  O   UNL d   1      -8.150  16.428  13.852 +0.00 +0.01    -0.303    20.427
ATOM     48  H   UNL d   1      -8.314  16.882  14.704 +0.00 -0.00    +0.222    20.427
TER
ENDMDL
MODEL       11
USER    Run = 11
USER    Cluster Rank = 88
USER    Number of conformations in this cluster = 1
USER  
USER    RMSD from reference structure       = 29.074 A
USER  
USER    Estimated Free Energy of Binding    =   +5.36 kcal/mol  [=(1)+(2)+(3)-(4)]
USER    
USER    (1) Final Intermolecular Energy     =   -1.80 kcal/mol
USER        vdW + Hbond + desolv Energy     =   -1.54 kcal/mol
USER        Electrostatic Energy            =   -0.25 kcal/mol
USER    (2) Final Total Internal Energy     =  -14.45 kcal/mol
USER    (3) Torsional Free Energy           =   +7.16 kcal/mol
USER    (4) Unbound System's Energy  [=(2)] =  -14.45 kcal/mol
USER    
USER    
USER  
USER    DPF = D:/Protein_go_brrr/autodock/final/6BB5/IHP/dock.dpf
USER    NEWDPF move	IHP_ideal_opt.pdbqt
USER    NEWDPF about	0.035000 0.082000 -0.065000
USER    NEWDPF tran0	26.736628 13.561716 13.450531
USER    NEWDPF axisangle0	-0.220097 0.839037 -0.497568 105.343653
USER    NEWDPF quaternion0	-0.175015 0.667182 -0.395654 0.606379
USER    NEWDPF dihe0	114.78 92.58 124.93 32.27 102.24 139.08 -119.59 0.01 -9.48 122.39 145.62 -115.67 -82.28 -133.54 37.10 42.71 -97.04 89.24 -146.71 -11.87 167.73 165.85 4.77 -28.00 
USER  
USER                              x       y       z    vdW   Elec        q     RMS 
ATOM      1  C   UNL d   1      26.585  12.729  14.957 -0.03 +0.05    +0.194    29.074
ATOM      2  C   UNL d   1      27.660  12.192  14.010 -0.02 +0.04    +0.194    29.074
ATOM      3  C   UNL d   1      27.160  12.124  12.565 -0.02 +0.03    +0.194    29.074
ATOM      4  C   UNL d   1      26.562  13.439  12.073 -0.04 +0.04    +0.194    29.074
ATOM      5  C   UNL d   1      25.569  14.070  13.040 -0.07 +0.05    +0.194    29.074
ATOM      6  C   UNL d   1      26.043  14.083  14.495 -0.08 +0.06    +0.194    29.074
ATOM      7  O   UNL d   1      27.180  12.924  16.242 -0.03 -0.12    -0.278    29.074
ATOM      8  P   UNL d   1      27.822  14.349  16.573 -0.09 +0.41    +0.473    29.074
ATOM      9  O   UNL d   1      28.383  15.076  15.401 -0.18 -0.15    -0.228    29.074
ATOM     10  O   UNL d   1      26.645  15.144  17.300 -0.34 -0.33    -0.303    29.074
ATOM     11  H   UNL d   1      25.806  14.991  16.827 +0.05 +0.14    +0.222    29.074
ATOM     12  O   UNL d   1      28.831  14.079  17.770 -0.36 -0.42    -0.303    29.074
ATOM     13  H   UNL d   1      29.413  13.302  17.616 +0.04 +0.17    +0.222    29.074
ATOM     14  O   UNL d   1      28.800  13.059  14.058 -0.04 -0.07    -0.278    29.074
ATOM     15  P   UNL d   1      30.179  12.401  14.536 -0.00 +0.11    +0.473    29.074
ATOM     16  O   UNL d   1      30.347  12.186  16.007 -0.02 -0.07    -0.228    29.074
ATOM     17  O   UNL d   1      30.274  11.049  13.699 -0.00 -0.05    -0.303    29.074
ATOM     18  H   UNL d   1      29.815  11.133  12.842 +0.01 +0.03    +0.222    29.074
ATOM     19  O   UNL d   1      31.303  13.287  13.840 -0.06 -0.07    -0.303    29.074
ATOM     20  H   UNL d   1      30.983  13.690  13.012 +0.07 +0.05    +0.222    29.074
ATOM     21  O   UNL d   1      24.902  14.373  15.298 -0.06 -0.10    -0.278    29.074
ATOM     22  P   UNL d   1      23.693  13.333  15.361 +0.00 +0.13    +0.473    29.074
ATOM     23  O   UNL d   1      23.932  12.014  16.014 -0.00 -0.05    -0.228    29.074
ATOM     24  O   UNL d   1      22.544  14.210  16.028 -0.02 -0.12    -0.303    29.074
ATOM     25  H   UNL d   1      22.628  15.137  15.690 +0.04 +0.11    +0.222    29.074
ATOM     26  O   UNL d   1      23.225  13.285  13.829 -0.01 -0.08    -0.303    29.074
ATOM     27  H   UNL d   1      23.333  14.173  13.431 +0.02 +0.06    +0.222    29.074
ATOM     28  O   UNL d   1      28.287  11.886  11.733 -0.01 -0.04    -0.278    29.074
ATOM     29  P   UNL d   1      29.206  13.098  11.257 -0.02 +0.07    +0.473    29.074
ATOM     30  O   UNL d   1      29.050  14.359  12.026 -0.13 -0.05    -0.228    29.074
ATOM     31  O   UNL d   1      30.642  12.393  11.301 -0.02 -0.04    -0.303    29.074
ATOM     32  H   UNL d   1      30.871  12.206  12.240 +0.03 +0.03    +0.222    29.074
ATOM     33  O   UNL d   1      28.892  13.162   9.698 -0.02 -0.04    -0.303    29.074
ATOM     34  H   UNL d   1      27.924  13.318   9.570 +0.02 +0.03    +0.222    29.074
ATOM     35  O   UNL d   1      25.439  15.430  12.629 -0.09 -0.08    -0.278    29.074
ATOM     36  P   UNL d   1      23.998  16.108  12.537 +0.00 +0.13    +0.473    29.074
ATOM     37  O   UNL d   1      22.986  15.365  11.723 -0.03 -0.06    -0.228    29.074
ATOM     38  O   UNL d   1      23.612  16.266  14.074 -0.04 -0.12    -0.303    29.074
ATOM     39  H   UNL d   1      23.294  15.403  14.415 +0.04 +0.09    +0.222    29.074
ATOM     40  O   UNL d   1      24.348  17.589  12.076 -0.08 -0.08    -0.303    29.074
ATOM     41  H   UNL d   1      24.508  17.641  11.107 +0.06 +0.05    +0.222    29.074
ATOM     42  O   UNL d   1      25.847  13.145  10.868 -0.01 -0.04    -0.278    29.074
ATOM     43  P   UNL d   1      25.946  14.163   9.644 -0.01 +0.06    +0.473    29.074
ATOM     44  O   UNL d   1      26.166  13.588   8.288 -0.01 -0.02    -0.228    29.074
ATOM     45  O   UNL d   1      24.604  15.007   9.783 -0.01 -0.04    -0.303    29.074
ATOM     46  H   UNL d   1      24.645  15.622  10.543 +0.03 +0.04    +0.222    29.074
ATOM     47  O   UNL d   1      27.047  15.220  10.135 -0.07 -0.05    -0.303    29.074
ATOM     48  H   UNL d   1      27.904  14.760  10.253 +0.04 +0.04    +0.222    29.074
TER
ENDMDL
MODEL       55
USER    Run = 55
USER    Cluster Rank = 89
USER    Number of conformations in this cluster = 1
USER  
USER    RMSD from reference structure       = 18.843 A
USER  
USER    Estimated Free Energy of Binding    =   +5.38 kcal/mol  [=(1)+(2)+(3)-(4)]
USER    
USER    (1) Final Intermolecular Energy     =   -1.78 kcal/mol
USER        vdW + Hbond + desolv Energy     =   -1.83 kcal/mol
USER        Electrostatic Energy            =   +0.05 kcal/mol
USER    (2) Final Total Internal Energy     =  -15.06 kcal/mol
USER    (3) Torsional Free Energy           =   +7.16 kcal/mol
USER    (4) Unbound System's Energy  [=(2)] =  -15.06 kcal/mol
USER    
USER    
USER  
USER    DPF = D:/Protein_go_brrr/autodock/final/6BB5/IHP/dock.dpf
USER    NEWDPF move	IHP_ideal_opt.pdbqt
USER    NEWDPF about	0.035000 0.082000 -0.065000
USER    NEWDPF tran0	-2.858680 22.628577 -2.096293
USER    NEWDPF axisangle0	-0.695779 -0.150633 0.702283 -47.585087
USER    NEWDPF quaternion0	-0.280696 -0.060769 0.283319 -0.915012
USER    NEWDPF dihe0	-122.49 7.64 168.25 -2.91 10.34 -45.79 -95.53 -26.90 109.45 -30.27 83.82 -165.11 46.95 176.33 -52.14 2.24 -114.70 124.39 36.68 15.90 -171.45 5.70 166.51 -6.88 
USER  
USER                              x       y       z    vdW   Elec        q     RMS 
ATOM      1  C   UNL d   1      -1.600  23.095  -1.009 -0.06 -0.02    +0.194    18.843
ATOM      2  C   UNL d   1      -2.149  21.680  -0.817 -0.02 -0.02    +0.194    18.843
ATOM      3  C   UNL d   1      -3.676  21.647  -0.913 -0.00 -0.01    +0.194    18.843
ATOM      4  C   UNL d   1      -4.212  22.307  -2.181 -0.01 -0.01    +0.194    18.843
ATOM      5  C   UNL d   1      -3.605  23.673  -2.474 -0.02 -0.01    +0.194    18.843
ATOM      6  C   UNL d   1      -2.084  23.721  -2.317 -0.05 -0.02    +0.194    18.843
ATOM      7  O   UNL d   1      -0.174  23.014  -1.077 -0.07 +0.03    -0.278    18.843
ATOM      8  P   UNL d   1       0.654  23.030   0.289 -0.18 -0.11    +0.473    18.843
ATOM      9  O   UNL d   1       1.080  21.693   0.784 -0.23 +0.08    -0.228    18.843
ATOM     10  O   UNL d   1       1.878  24.008  -0.012 -0.68 +0.03    -0.303    18.843
ATOM     11  H   UNL d   1       1.582  24.935   0.062 +0.01 -0.02    +0.222    18.843
ATOM     12  O   UNL d   1      -0.224  23.895   1.293 -0.07 +0.09    -0.303    18.843
ATOM     13  H   UNL d   1      -0.666  24.659   0.859 +0.06 -0.06    +0.222    18.843
ATOM     14  O   UNL d   1      -1.609  20.827  -1.834 -0.02 +0.02    -0.278    18.843
ATOM     15  P   UNL d   1      -1.359  19.298  -1.427 +0.00 -0.03    +0.473    18.843
ATOM     16  O   UNL d   1       0.004  18.743  -1.703 -0.04 +0.01    -0.228    18.843
ATOM     17  O   UNL d   1      -1.748  19.239   0.116 -0.00 +0.02    -0.303    18.843
ATOM     18  H   UNL d   1      -2.715  19.302   0.237 +0.01 -0.01    +0.222    18.843
ATOM     19  O   UNL d   1      -2.569  18.508  -2.093 -0.00 +0.01    -0.303    18.843
ATOM     20  H   UNL d   1      -3.428  18.793  -1.730 +0.00 -0.01    +0.222    18.843
ATOM     21  O   UNL d   1      -1.717  25.099  -2.282 -0.07 +0.03    -0.278    18.843
ATOM     22  P   UNL d   1      -1.743  25.890  -0.897 -0.05 -0.07    +0.473    18.843
ATOM     23  O   UNL d   1      -2.596  25.356   0.204 -0.01 +0.03    -0.228    18.843
ATOM     24  O   UNL d   1      -0.193  25.992  -0.551 -0.08 +0.09    -0.303    18.843
ATOM     25  H   UNL d   1       0.182  25.075  -0.544 -0.16 -0.05    +0.222    18.843
ATOM     26  O   UNL d   1      -2.073  27.383  -1.381 -0.03 +0.03    -0.303    18.843
ATOM     27  H   UNL d   1      -2.700  27.793  -0.753 +0.01 -0.02    +0.222    18.843
ATOM     28  O   UNL d   1      -4.070  20.284  -1.002 -0.00 +0.01    -0.278    18.843
ATOM     29  P   UNL d   1      -4.954  19.625   0.147 +0.00 -0.02    +0.473    18.843
ATOM     30  O   UNL d   1      -4.866  20.280   1.478 +0.00 +0.02    -0.228    18.843
ATOM     31  O   UNL d   1      -6.386  19.624  -0.568 +0.00 +0.01    -0.303    18.843
ATOM     32  H   UNL d   1      -6.516  20.493  -1.012 +0.00 -0.01    +0.222    18.843
ATOM     33  O   UNL d   1      -4.520  18.095   0.068 -0.00 +0.01    -0.303    18.843
ATOM     34  H   UNL d   1      -3.573  18.044  -0.211 +0.00 -0.01    +0.222    18.843
ATOM     35  O   UNL d   1      -3.895  23.939  -3.845 -0.01 +0.02    -0.278    18.843
ATOM     36  P   UNL d   1      -3.301  23.000  -4.990 -0.01 -0.04    +0.473    18.843
ATOM     37  O   UNL d   1      -1.826  23.107  -5.210 -0.05 +0.03    -0.228    18.843
ATOM     38  O   UNL d   1      -3.790  21.560  -4.516 -0.00 +0.02    -0.303    18.843
ATOM     39  H   UNL d   1      -4.702  21.632  -4.161 +0.00 -0.01    +0.222    18.843
ATOM     40  O   UNL d   1      -4.242  23.336  -6.227 -0.00 +0.02    -0.303    18.843
ATOM     41  H   UNL d   1      -5.144  22.962  -6.110 +0.00 -0.01    +0.222    18.843
ATOM     42  O   UNL d   1      -5.617  22.504  -1.983 -0.00 +0.01    -0.278    18.843
ATOM     43  P   UNL d   1      -6.643  21.767  -2.957 +0.00 -0.01    +0.473    18.843
ATOM     44  O   UNL d   1      -8.087  21.809  -2.591 +0.00 +0.00    -0.228    18.843
ATOM     45  O   UNL d   1      -6.311  22.417  -4.371 -0.00 +0.01    -0.303    18.843
ATOM     46  H   UNL d   1      -5.489  22.947  -4.337 +0.00 -0.01    +0.222    18.843
ATOM     47  O   UNL d   1      -6.012  20.303  -3.115 -0.00 +0.01    -0.303    18.843
ATOM     48  H   UNL d   1      -5.324  20.172  -2.429 +0.00 -0.01    +0.222    18.843
TER
ENDMDL
MODEL       79
USER    Run = 79
USER    Cluster Rank = 90
USER    Number of conformations in this cluster = 1
USER  
USER    RMSD from reference structure       = 23.465 A
USER  
USER    Estimated Free Energy of Binding    =   +5.40 kcal/mol  [=(1)+(2)+(3)-(4)]
USER    
USER    (1) Final Intermolecular Energy     =   -1.76 kcal/mol
USER        vdW + Hbond + desolv Energy     =   -1.36 kcal/mol
USER        Electrostatic Energy            =   -0.40 kcal/mol
USER    (2) Final Total Internal Energy     =  -15.69 kcal/mol
USER    (3) Torsional Free Energy           =   +7.16 kcal/mol
USER    (4) Unbound System's Energy  [=(2)] =  -15.69 kcal/mol
USER    
USER    
USER  
USER    DPF = D:/Protein_go_brrr/autodock/final/6BB5/IHP/dock.dpf
USER    NEWDPF move	IHP_ideal_opt.pdbqt
USER    NEWDPF about	0.035000 0.082000 -0.065000
USER    NEWDPF tran0	-5.136082 25.830625 4.636932
USER    NEWDPF axisangle0	-0.844091 0.534677 0.040382 -147.683370
USER    NEWDPF quaternion0	-0.810746 0.513556 0.038787 -0.278292
USER    NEWDPF dihe0	-129.87 -5.36 154.11 78.75 155.39 114.35 -38.77 -165.99 42.04 100.14 17.72 -102.48 -115.55 87.20 -161.71 141.62 -21.92 -69.33 36.86 -16.19 22.35 -29.76 -39.61 12.37 
USER  
USER                              x       y       z    vdW   Elec        q     RMS 
ATOM      1  C   UNL d   1      -3.613  25.485   3.899 -0.00 -0.05    +0.194    23.465
ATOM      2  C   UNL d   1      -3.594  26.571   4.976 -0.01 -0.05    +0.194    23.465
ATOM      3  C   UNL d   1      -4.784  27.523   4.841 +0.00 -0.02    +0.194    23.465
ATOM      4  C   UNL d   1      -6.128  26.801   4.773 +0.00 -0.02    +0.194    23.465
ATOM      5  C   UNL d   1      -6.156  25.635   3.793 +0.00 -0.02    +0.194    23.465
ATOM      6  C   UNL d   1      -4.935  24.717   3.886 +0.00 -0.03    +0.194    23.465
ATOM      7  O   UNL d   1      -2.578  24.545   4.196 -0.02 +0.12    -0.278    23.465
ATOM      8  P   UNL d   1      -1.101  24.850   3.669 -0.02 -0.32    +0.473    23.465
ATOM      9  O   UNL d   1      -0.953  24.882   2.188 -0.04 +0.08    -0.228    23.465
ATOM     10  O   UNL d   1      -0.719  26.232   4.368 -0.05 +0.29    -0.303    23.465
ATOM     11  H   UNL d   1      -0.557  26.084   5.318 -0.32 -0.40    +0.222    23.465
ATOM     12  O   UNL d   1      -0.167  23.820   4.437 -0.08 +0.39    -0.303    23.465
ATOM     13  H   UNL d   1      -0.312  23.819   5.410 -0.43 -0.46    +0.222    23.465
ATOM     14  O   UNL d   1      -3.650  25.951   6.266 -0.01 +0.09    -0.278    23.465
ATOM     15  P   UNL d   1      -2.369  26.141   7.208 -0.04 -0.29    +0.473    23.465
ATOM     16  O   UNL d   1      -2.631  26.317   8.672 -0.04 +0.09    -0.228    23.465
ATOM     17  O   UNL d   1      -1.463  24.870   6.891 -0.08 +0.42    -0.303    23.465
ATOM     18  H   UNL d   1      -1.232  24.830   5.943 -0.23 -0.36    +0.222    23.465
ATOM     19  O   UNL d   1      -1.538  27.307   6.516 -0.07 +0.20    -0.303    23.465
ATOM     20  H   UNL d   1      -2.089  27.828   5.903 +0.03 -0.09    +0.222    23.465
ATOM     21  O   UNL d   1      -4.938  23.907   2.713 +0.00 +0.03    -0.278    23.465
ATOM     22  P   UNL d   1      -5.892  22.632   2.633 +0.00 -0.04    +0.473    23.465
ATOM     23  O   UNL d   1      -5.303  21.338   2.180 +0.00 +0.02    -0.228    23.465
ATOM     24  O   UNL d   1      -6.520  22.603   4.095 +0.00 +0.02    -0.303    23.465
ATOM     25  H   UNL d   1      -7.343  23.155   4.088 +0.00 -0.01    +0.222    23.465
ATOM     26  O   UNL d   1      -7.113  23.193   1.759 +0.00 +0.02    -0.303    23.465
ATOM     27  H   UNL d   1      -7.517  23.955   2.223 +0.00 -0.01    +0.222    23.465
ATOM     28  O   UNL d   1      -4.839  28.311   6.023 +0.00 +0.03    -0.278    23.465
ATOM     29  P   UNL d   1      -3.889  29.578   6.190 +0.01 -0.05    +0.473    23.465
ATOM     30  O   UNL d   1      -4.579  30.890   6.275 +0.00 +0.01    -0.228    23.465
ATOM     31  O   UNL d   1      -3.037  29.122   7.466 -0.00 +0.05    -0.303    23.465
ATOM     32  H   UNL d   1      -3.195  28.162   7.622 +0.02 -0.05    +0.222    23.465
ATOM     33  O   UNL d   1      -2.859  29.383   4.992 -0.00 +0.04    -0.303    23.465
ATOM     34  H   UNL d   1      -1.987  29.099   5.361 +0.02 -0.05    +0.222    23.465
ATOM     35  O   UNL d   1      -7.296  24.856   4.152 +0.00 +0.02    -0.278    23.465
ATOM     36  P   UNL d   1      -8.712  25.143   3.477 +0.00 -0.02    +0.473    23.465
ATOM     37  O   UNL d   1      -8.667  25.844   2.157 +0.00 +0.01    -0.228    23.465
ATOM     38  O   UNL d   1      -9.349  23.684   3.422 +0.00 +0.01    -0.303    23.465
ATOM     39  H   UNL d   1      -8.627  23.021   3.365 +0.00 -0.01    +0.222    23.465
ATOM     40  O   UNL d   1      -9.508  25.864   4.651 +0.00 +0.01    -0.303    23.465
ATOM     41  H   UNL d   1      -9.050  26.679   4.954 +0.00 -0.01    +0.222    23.465
ATOM     42  O   UNL d   1      -7.090  27.758   4.317 +0.00 +0.01    -0.278    23.465
ATOM     43  P   UNL d   1      -8.021  28.486   5.389 +0.00 -0.01    +0.473    23.465
ATOM     44  O   UNL d   1      -8.240  27.795   6.690 +0.00 +0.01    -0.228    23.465
ATOM     45  O   UNL d   1      -7.345  29.921   5.519 +0.00 +0.01    -0.303    23.465
ATOM     46  H   UNL d   1      -6.398  29.851   5.754 +0.00 -0.01    +0.222    23.465
ATOM     47  O   UNL d   1      -9.346  28.825   4.553 +0.00 +0.00    -0.303    23.465
ATOM     48  H   UNL d   1      -9.876  28.009   4.444 +0.00 -0.00    +0.222    23.465
TER
ENDMDL
MODEL       72
USER    Run = 72
USER    Cluster Rank = 91
USER    Number of conformations in this cluster = 1
USER  
USER    RMSD from reference structure       = 66.360 A
USER  
USER    Estimated Free Energy of Binding    =   +5.42 kcal/mol  [=(1)+(2)+(3)-(4)]
USER    
USER    (1) Final Intermolecular Energy     =   -1.74 kcal/mol
USER        vdW + Hbond + desolv Energy     =   -1.74 kcal/mol
USER        Electrostatic Energy            =   +0.01 kcal/mol
USER    (2) Final Total Internal Energy     =  -15.24 kcal/mol
USER    (3) Torsional Free Energy           =   +7.16 kcal/mol
USER    (4) Unbound System's Energy  [=(2)] =  -15.24 kcal/mol
USER    
USER    
USER  
USER    DPF = D:/Protein_go_brrr/autodock/final/6BB5/IHP/dock.dpf
USER    NEWDPF move	IHP_ideal_opt.pdbqt
USER    NEWDPF about	0.035000 0.082000 -0.065000
USER    NEWDPF tran0	48.401066 46.532606 20.744673
USER    NEWDPF axisangle0	-0.830739 0.364420 0.420798 -158.458013
USER    NEWDPF quaternion0	-0.816103 0.358000 0.413384 -0.186884
USER    NEWDPF dihe0	-156.36 16.61 -179.70 132.07 11.47 -179.87 -2.91 -77.48 165.82 -19.99 52.60 -141.44 -138.86 84.78 -179.99 -49.03 40.23 137.15 54.30 5.42 -20.47 9.14 -20.97 -6.95 
USER  
USER                              x       y       z    vdW   Elec        q     RMS 
ATOM      1  C   UNL d   1      49.133  47.068  19.274 -0.07 +0.00    +0.194    66.360
ATOM      2  C   UNL d   1      49.425  47.924  20.508 -0.01 +0.00    +0.194    66.360
ATOM      3  C   UNL d   1      48.169  48.147  21.353 -0.01 +0.00    +0.194    66.360
ATOM      4  C   UNL d   1      47.445  46.851  21.708 -0.01 +0.00    +0.194    66.360
ATOM      5  C   UNL d   1      47.235  45.913  20.526 -0.07 -0.00    +0.194    66.360
ATOM      6  C   UNL d   1      48.474  45.739  19.646 -0.08 -0.00    +0.194    66.360
ATOM      7  O   UNL d   1      50.376  46.764  18.638 -0.05 +0.00    -0.278    66.360
ATOM      8  P   UNL d   1      51.183  47.953  17.941 -0.02 -0.01    +0.473    66.360
ATOM      9  O   UNL d   1      50.806  48.229  16.528 -0.06 +0.01    -0.228    66.360
ATOM     10  O   UNL d   1      50.947  49.200  18.909 -0.00 +0.00    -0.303    66.360
ATOM     11  H   UNL d   1      51.079  48.924  19.835 +0.01 +0.00    +0.222    66.360
ATOM     12  O   UNL d   1      52.715  47.619  18.198 -0.00 +0.00    -0.303    66.360
ATOM     13  H   UNL d   1      52.865  47.105  19.023 +0.01 -0.00    +0.222    66.360
ATOM     14  O   UNL d   1      50.407  47.261  21.314 -0.00 -0.00    -0.278    66.360
ATOM     15  P   UNL d   1      51.572  48.177  21.920 +0.00 +0.01    +0.473    66.360
ATOM     16  O   UNL d   1      52.000  47.880  23.323 +0.00 -0.01    -0.228    66.360
ATOM     17  O   UNL d   1      52.761  48.037  20.869 +0.00 -0.00    -0.303    66.360
ATOM     18  H   UNL d   1      52.653  48.665  20.130 +0.00 +0.00    +0.222    66.360
ATOM     19  O   UNL d   1      51.085  49.668  21.653 +0.00 -0.01    -0.303    66.360
ATOM     20  H   UNL d   1      50.344  49.915  22.238 +0.00 +0.01    +0.222    66.360
ATOM     21  O   UNL d   1      48.035  45.136  18.431 -0.66 -0.00    -0.278    66.360
ATOM     22  P   UNL d   1      48.673  43.753  17.957 -0.06 -0.07    +0.473    66.360
ATOM     23  O   UNL d   1      48.759  43.480  16.493 -0.21 +0.05    -0.228    66.360
ATOM     24  O   UNL d   1      50.072  43.763  18.717 -0.03 +0.01    -0.303    66.360
ATOM     25  H   UNL d   1      50.543  44.603  18.484 +0.02 -0.01    +0.222    66.360
ATOM     26  O   UNL d   1      47.835  42.694  18.821 -0.09 +0.05    -0.303    66.360
ATOM     27  H   UNL d   1      47.126  43.164  19.305 +0.00 -0.03    +0.222    66.360
ATOM     28  O   UNL d   1      48.582  48.702  22.595 +0.00 -0.01    -0.278    66.360
ATOM     29  P   UNL d   1      48.055  50.134  23.052 +0.00 +0.02    +0.473    66.360
ATOM     30  O   UNL d   1      48.670  51.294  22.357 +0.00 -0.01    -0.228    66.360
ATOM     31  O   UNL d   1      46.480  49.925  22.862 -0.00 -0.02    -0.303    66.360
ATOM     32  H   UNL d   1      46.221  49.079  23.294 +0.00 +0.01    +0.222    66.360
ATOM     33  O   UNL d   1      48.231  50.066  24.633 +0.00 -0.01    -0.303    66.360
ATOM     34  H   UNL d   1      48.315  49.120  24.906 +0.00 +0.01    +0.222    66.360
ATOM     35  O   UNL d   1      46.939  44.638  21.092 -0.03 +0.00    -0.278    66.360
ATOM     36  P   UNL d   1      45.468  44.030  20.981 -0.09 -0.00    +0.473    66.360
ATOM     37  O   UNL d   1      45.168  43.297  19.712 -0.24 -0.00    -0.228    66.360
ATOM     38  O   UNL d   1      45.387  43.131  22.292 -0.03 +0.00    -0.303    66.360
ATOM     39  H   UNL d   1      44.951  43.644  23.007 +0.05 -0.00    +0.222    66.360
ATOM     40  O   UNL d   1      44.555  45.287  21.321 -0.08 -0.01    -0.303    66.360
ATOM     41  H   UNL d   1      44.722  45.624  22.230 +0.04 +0.01    +0.222    66.360
ATOM     42  O   UNL d   1      46.149  47.218  22.190 -0.01 -0.01    -0.278    66.360
ATOM     43  P   UNL d   1      45.750  46.849  23.690 +0.00 +0.02    +0.473    66.360
ATOM     44  O   UNL d   1      44.370  47.188  24.137 -0.01 -0.01    -0.228    66.360
ATOM     45  O   UNL d   1      46.098  45.299  23.772 -0.00 -0.01    -0.303    66.360
ATOM     46  H   UNL d   1      46.142  44.894  22.883 +0.03 +0.00    +0.222    66.360
ATOM     47  O   UNL d   1      46.935  47.495  24.554 -0.00 -0.01    -0.303    66.360
ATOM     48  H   UNL d   1      47.198  48.350  24.153 +0.00 +0.01    +0.222    66.360
TER
ENDMDL
MODEL       17
USER    Run = 17
USER    Cluster Rank = 92
USER    Number of conformations in this cluster = 1
USER  
USER    RMSD from reference structure       = 22.766 A
USER  
USER    Estimated Free Energy of Binding    =   +5.45 kcal/mol  [=(1)+(2)+(3)-(4)]
USER    
USER    (1) Final Intermolecular Energy     =   -1.71 kcal/mol
USER        vdW + Hbond + desolv Energy     =   -1.38 kcal/mol
USER        Electrostatic Energy            =   -0.33 kcal/mol
USER    (2) Final Total Internal Energy     =  -14.66 kcal/mol
USER    (3) Torsional Free Energy           =   +7.16 kcal/mol
USER    (4) Unbound System's Energy  [=(2)] =  -14.66 kcal/mol
USER    
USER    
USER  
USER    DPF = D:/Protein_go_brrr/autodock/final/6BB5/IHP/dock.dpf
USER    NEWDPF move	IHP_ideal_opt.pdbqt
USER    NEWDPF about	0.035000 0.082000 -0.065000
USER    NEWDPF tran0	21.337750 14.382250 -4.939524
USER    NEWDPF axisangle0	0.736729 -0.156007 -0.657946 85.168715
USER    NEWDPF quaternion0	0.498526 -0.105566 -0.445216 0.736282
USER    NEWDPF dihe0	102.67 112.99 155.73 23.22 136.79 177.20 -173.85 -100.45 153.58 133.85 -132.18 178.65 -35.46 74.06 34.70 91.43 74.26 162.29 33.08 -33.77 -176.68 -37.44 22.10 -173.61 
USER  
USER                              x       y       z    vdW   Elec        q     RMS 
ATOM      1  C   UNL d   1      22.514  15.632  -4.742 -0.00 -0.02    +0.194    22.766
ATOM      2  C   UNL d   1      22.506  14.554  -3.657 -0.00 -0.02    +0.194    22.766
ATOM      3  C   UNL d   1      21.083  14.191  -3.228 -0.01 -0.02    +0.194    22.766
ATOM      4  C   UNL d   1      20.174  13.835  -4.402 -0.01 -0.03    +0.194    22.766
ATOM      5  C   UNL d   1      20.236  14.825  -5.558 -0.04 -0.06    +0.194    22.766
ATOM      6  C   UNL d   1      21.658  15.235  -5.946 -0.01 -0.04    +0.194    22.766
ATOM      7  O   UNL d   1      23.857  15.789  -5.206 +0.00 +0.03    -0.278    22.766
ATOM      8  P   UNL d   1      24.797  16.846  -4.466 +0.00 -0.03    +0.473    22.766
ATOM      9  O   UNL d   1      24.312  17.298  -3.133 -0.00 +0.02    -0.228    22.766
ATOM     10  O   UNL d   1      26.218  16.123  -4.404 +0.00 +0.01    -0.303    22.766
ATOM     11  H   UNL d   1      26.125  15.254  -3.972 +0.00 -0.01    +0.222    22.766
ATOM     12  O   UNL d   1      25.053  17.992  -5.536 +0.00 +0.02    -0.303    22.766
ATOM     13  H   UNL d   1      24.245  18.511  -5.746 +0.01 -0.02    +0.222    22.766
ATOM     14  O   UNL d   1      23.145  13.376  -4.165 +0.00 +0.02    -0.278    22.766
ATOM     15  P   UNL d   1      24.683  13.169  -3.771 +0.00 -0.02    +0.473    22.766
ATOM     16  O   UNL d   1      25.059  11.836  -3.204 +0.00 +0.00    -0.228    22.766
ATOM     17  O   UNL d   1      25.475  13.516  -5.110 +0.00 +0.01    -0.303    22.766
ATOM     18  H   UNL d   1      25.299  14.433  -5.395 +0.00 -0.01    +0.222    22.766
ATOM     19  O   UNL d   1      25.032  14.426  -2.860 +0.00 +0.01    -0.303    22.766
ATOM     20  H   UNL d   1      24.578  15.232  -3.168 +0.00 -0.01    +0.222    22.766
ATOM     21  O   UNL d   1      21.543  16.389  -6.776 -0.01 +0.07    -0.278    22.766
ATOM     22  P   UNL d   1      21.332  17.824  -6.111 -0.04 -0.12    +0.473    22.766
ATOM     23  O   UNL d   1      22.429  18.376  -5.264 -0.02 +0.04    -0.228    22.766
ATOM     24  O   UNL d   1      20.952  18.714  -7.374 -0.07 +0.10    -0.303    22.766
ATOM     25  H   UNL d   1      20.044  18.451  -7.675 +0.04 -0.12    +0.222    22.766
ATOM     26  O   UNL d   1      19.911  17.644  -5.392 -0.17 +0.12    -0.303    22.766
ATOM     27  H   UNL d   1      19.603  16.723  -5.513 +0.04 -0.11    +0.222    22.766
ATOM     28  O   UNL d   1      21.161  13.011  -2.439 -0.00 +0.02    -0.278    22.766
ATOM     29  P   UNL d   1      21.739  13.071  -0.956 +0.00 -0.01    +0.473    22.766
ATOM     30  O   UNL d   1      20.933  13.855   0.014 -0.00 +0.01    -0.228    22.766
ATOM     31  O   UNL d   1      21.913  11.508  -0.661 +0.00 +0.00    -0.303    22.766
ATOM     32  H   UNL d   1      21.386  11.279   0.139 +0.00 +0.00    +0.222    22.766
ATOM     33  O   UNL d   1      23.237  13.551  -1.201 +0.00 +0.01    -0.303    22.766
ATOM     34  H   UNL d   1      23.602  13.078  -1.989 +0.00 -0.01    +0.222    22.766
ATOM     35  O   UNL d   1      19.675  14.146  -6.679 -0.03 +0.11    -0.278    22.766
ATOM     36  P   UNL d   1      18.973  14.971  -7.850 -0.04 -0.34    +0.473    22.766
ATOM     37  O   UNL d   1      19.598  14.831  -9.202 -0.03 +0.10    -0.228    22.766
ATOM     38  O   UNL d   1      17.472  14.446  -7.765 +0.04 +0.38    -0.303    22.766
ATOM     39  H   UNL d   1      16.994  14.951  -7.073 -0.42 -0.59    +0.222    22.766
ATOM     40  O   UNL d   1      18.901  16.437  -7.237 -0.13 +0.31    -0.303    22.766
ATOM     41  H   UNL d   1      19.687  16.974  -7.483 +0.04 -0.14    +0.222    22.766
ATOM     42  O   UNL d   1      18.831  13.851  -3.906 -0.02 +0.06    -0.278    22.766
ATOM     43  P   UNL d   1      18.126  15.256  -3.635 -0.07 -0.15    +0.473    22.766
ATOM     44  O   UNL d   1      17.072  15.304  -2.583 -0.12 +0.04    -0.228    22.766
ATOM     45  O   UNL d   1      19.362  16.220  -3.362 -0.11 +0.08    -0.303    22.766
ATOM     46  H   UNL d   1      19.142  17.151  -3.568 +0.05 -0.07    +0.222    22.766
ATOM     47  O   UNL d   1      17.665  15.723  -5.098 -0.06 +0.30    -0.303    22.766
ATOM     48  H   UNL d   1      17.964  15.062  -5.756 -0.18 -0.23    +0.222    22.766
TER
ENDMDL
MODEL       42
USER    Run = 42
USER    Cluster Rank = 93
USER    Number of conformations in this cluster = 1
USER  
USER    RMSD from reference structure       = 56.390 A
USER  
USER    Estimated Free Energy of Binding    =   +5.54 kcal/mol  [=(1)+(2)+(3)-(4)]
USER    
USER    (1) Final Intermolecular Energy     =   -1.62 kcal/mol
USER        vdW + Hbond + desolv Energy     =   -1.31 kcal/mol
USER        Electrostatic Energy            =   -0.31 kcal/mol
USER    (2) Final Total Internal Energy     =  -16.27 kcal/mol
USER    (3) Torsional Free Energy           =   +7.16 kcal/mol
USER    (4) Unbound System's Energy  [=(2)] =  -16.27 kcal/mol
USER    
USER    
USER  
USER    DPF = D:/Protein_go_brrr/autodock/final/6BB5/IHP/dock.dpf
USER    NEWDPF move	IHP_ideal_opt.pdbqt
USER    NEWDPF about	0.035000 0.082000 -0.065000
USER    NEWDPF tran0	52.727280 22.168834 19.789845
USER    NEWDPF axisangle0	-0.142427 -0.454270 0.879405 -84.520244
USER    NEWDPF quaternion0	-0.095782 -0.305496 0.591398 -0.740099
USER    NEWDPF dihe0	-174.99 92.81 124.28 101.45 22.95 -119.29 -16.81 -118.81 60.81 72.22 113.03 116.33 118.32 96.94 -50.51 -66.56 121.78 -145.16 44.48 -6.12 -170.73 6.79 -9.03 3.29 
USER  
USER                              x       y       z    vdW   Elec        q     RMS 
ATOM      1  C   UNL d   1      53.148  22.915  21.290 +0.00 +0.04    +0.194    56.390
ATOM      2  C   UNL d   1      53.871  21.603  20.978 +0.00 +0.04    +0.194    56.390
ATOM      3  C   UNL d   1      52.917  20.552  20.407 +0.01 +0.05    +0.194    56.390
ATOM      4  C   UNL d   1      52.105  21.060  19.218 -0.01 +0.09    +0.194    56.390
ATOM      5  C   UNL d   1      51.459  22.421  19.444 -0.01 +0.09    +0.194    56.390
ATOM      6  C   UNL d   1      52.396  23.455  20.073 +0.00 +0.06    +0.194    56.390
ATOM      7  O   UNL d   1      54.129  23.890  21.652 +0.00 -0.05    -0.278    56.390
ATOM      8  P   UNL d   1      54.747  23.835  23.124 +0.00 +0.07    +0.473    56.390
ATOM      9  O   UNL d   1      55.919  24.724  23.350 +0.00 -0.03    -0.228    56.390
ATOM     10  O   UNL d   1      53.511  24.171  24.075 +0.00 -0.05    -0.303    56.390
ATOM     11  H   UNL d   1      52.681  23.903  23.639 +0.00 +0.04    +0.222    56.390
ATOM     12  O   UNL d   1      54.981  22.291  23.416 +0.00 -0.04    -0.303    56.390
ATOM     13  H   UNL d   1      55.433  21.823  22.678 +0.00 +0.03    +0.222    56.390
ATOM     14  O   UNL d   1      54.902  21.856  20.015 +0.00 -0.06    -0.278    56.390
ATOM     15  P   UNL d   1      56.382  21.390  20.411 +0.00 +0.07    +0.473    56.390
ATOM     16  O   UNL d   1      57.303  21.047  19.283 +0.00 -0.03    -0.228    56.390
ATOM     17  O   UNL d   1      56.932  22.577  21.319 +0.00 -0.04    -0.303    56.390
ATOM     18  H   UNL d   1      56.204  23.032  21.784 +0.00 +0.03    +0.222    56.390
ATOM     19  O   UNL d   1      56.160  20.240  21.488 +0.00 -0.04    -0.303    56.390
ATOM     20  H   UNL d   1      55.429  19.646  21.237 +0.00 +0.03    +0.222    56.390
ATOM     21  O   UNL d   1      51.578  24.529  20.530 +0.00 -0.09    -0.278    56.390
ATOM     22  P   UNL d   1      50.928  24.466  21.985 +0.01 +0.14    +0.473    56.390
ATOM     23  O   UNL d   1      50.800  23.133  22.643 +0.00 -0.06    -0.228    56.390
ATOM     24  O   UNL d   1      51.812  25.522  22.783 +0.00 -0.07    -0.303    56.390
ATOM     25  H   UNL d   1      52.761  25.381  22.532 +0.00 +0.05    +0.222    56.390
ATOM     26  O   UNL d   1      49.561  25.276  21.767 +0.01 -0.12    -0.303    56.390
ATOM     27  H   UNL d   1      48.980  24.770  21.163 +0.01 +0.10    +0.222    56.390
ATOM     28  O   UNL d   1      53.710  19.488  19.895 +0.00 -0.07    -0.278    56.390
ATOM     29  P   UNL d   1      53.591  18.026  20.517 +0.00 +0.09    +0.473    56.390
ATOM     30  O   UNL d   1      54.550  17.715  21.608 +0.00 -0.03    -0.228    56.390
ATOM     31  O   UNL d   1      52.035  18.006  20.889 +0.00 -0.06    -0.303    56.390
ATOM     32  H   UNL d   1      51.543  18.519  20.207 +0.00 +0.06    +0.222    56.390
ATOM     33  O   UNL d   1      53.654  17.106  19.219 +0.00 -0.06    -0.303    56.390
ATOM     34  H   UNL d   1      52.903  17.341  18.622 +0.00 +0.06    +0.222    56.390
ATOM     35  O   UNL d   1      51.110  22.904  18.148 -0.06 -0.23    -0.278    56.390
ATOM     36  P   UNL d   1      49.595  23.263  17.804 -0.01 +0.55    +0.473    56.390
ATOM     37  O   UNL d   1      49.387  24.052  16.551 -0.51 -0.34    -0.228    56.390
ATOM     38  O   UNL d   1      48.914  21.823  17.791 -0.29 -0.44    -0.303    56.390
ATOM     39  H   UNL d   1      49.613  21.136  17.843 +0.01 +0.31    +0.222    56.390
ATOM     40  O   UNL d   1      49.083  23.915  19.162 -0.02 -0.18    -0.303    56.390
ATOM     41  H   UNL d   1      49.809  24.373  19.642 +0.02 +0.10    +0.222    56.390
ATOM     42  O   UNL d   1      51.045  20.121  19.009 -0.01 -0.15    -0.278    56.390
ATOM     43  P   UNL d   1      51.110  19.155  17.741 -0.03 +0.34    +0.473    56.390
ATOM     44  O   UNL d   1      50.304  19.536  16.547 -0.46 -0.39    -0.228    56.390
ATOM     45  O   UNL d   1      52.673  19.047  17.463 -0.01 -0.15    -0.303    56.390
ATOM     46  H   UNL d   1      53.181  18.981  18.297 +0.01 +0.08    +0.222    56.390
ATOM     47  O   UNL d   1      50.788  17.713  18.361 +0.00 -0.12    -0.303    56.390
ATOM     48  H   UNL d   1      51.504  17.461  18.980 +0.00 +0.07    +0.222    56.390
TER
ENDMDL
MODEL       93
USER    Run = 93
USER    Cluster Rank = 94
USER    Number of conformations in this cluster = 1
USER  
USER    RMSD from reference structure       = 45.055 A
USER  
USER    Estimated Free Energy of Binding    =   +5.68 kcal/mol  [=(1)+(2)+(3)-(4)]
USER    
USER    (1) Final Intermolecular Energy     =   -1.48 kcal/mol
USER        vdW + Hbond + desolv Energy     =   -1.38 kcal/mol
USER        Electrostatic Energy            =   -0.09 kcal/mol
USER    (2) Final Total Internal Energy     =  -13.73 kcal/mol
USER    (3) Torsional Free Energy           =   +7.16 kcal/mol
USER    (4) Unbound System's Energy  [=(2)] =  -13.73 kcal/mol
USER    
USER    
USER  
USER    DPF = D:/Protein_go_brrr/autodock/final/6BB5/IHP/dock.dpf
USER    NEWDPF move	IHP_ideal_opt.pdbqt
USER    NEWDPF about	0.035000 0.082000 -0.065000
USER    NEWDPF tran0	20.856686 41.292782 -16.651669
USER    NEWDPF axisangle0	-0.568969 -0.808035 -0.152820 23.729669
USER    NEWDPF quaternion0	-0.116982 -0.166135 -0.031420 0.978635
USER    NEWDPF dihe0	120.02 67.97 164.06 -3.45 -5.25 -158.33 -138.76 -110.49 -66.88 86.35 58.88 -60.02 -25.75 82.00 -38.43 -155.16 46.25 41.77 22.22 -41.09 160.06 17.13 22.05 -174.09 
USER  
USER                              x       y       z    vdW   Elec        q     RMS 
ATOM      1  C   UNL d   1      22.321  40.384 -16.537 +0.00 +0.02    +0.194    45.055
ATOM      2  C   UNL d   1      21.040  39.559 -16.671 +0.01 +0.02    +0.194    45.055
ATOM      3  C   UNL d   1      19.917  40.108 -15.789 -0.00 +0.04    +0.194    45.055
ATOM      4  C   UNL d   1      19.667  41.600 -15.994 +0.00 +0.03    +0.194    45.055
ATOM      5  C   UNL d   1      20.932  42.449 -15.982 +0.01 +0.02    +0.194    45.055
ATOM      6  C   UNL d   1      22.076  41.867 -16.815 +0.00 +0.01    +0.194    45.055
ATOM      7  O   UNL d   1      23.257  39.917 -17.511 +0.00 -0.01    -0.278    45.055
ATOM      8  P   UNL d   1      24.415  38.924 -17.037 +0.00 +0.02    +0.473    45.055
ATOM      9  O   UNL d   1      24.097  38.115 -15.829 +0.00 -0.01    -0.228    45.055
ATOM     10  O   UNL d   1      24.715  38.035 -18.328 +0.00 -0.01    -0.303    45.055
ATOM     11  H   UNL d   1      23.880  37.844 -18.794 +0.00 +0.01    +0.222    45.055
ATOM     12  O   UNL d   1      25.720  39.826 -16.944 +0.00 -0.01    -0.303    45.055
ATOM     13  H   UNL d   1      25.520  40.782 -16.831 +0.00 +0.01    +0.222    45.055
ATOM     14  O   UNL d   1      20.605  39.591 -18.036 +0.00 -0.02    -0.278    45.055
ATOM     15  P   UNL d   1      21.160  38.431 -18.991 +0.00 +0.02    +0.473    45.055
ATOM     16  O   UNL d   1      20.177  37.810 -19.934 +0.00 -0.01    -0.228    45.055
ATOM     17  O   UNL d   1      22.394  39.104 -19.741 +0.00 -0.01    -0.303    45.055
ATOM     18  H   UNL d   1      23.129  39.278 -19.122 +0.00 +0.01    +0.222    45.055
ATOM     19  O   UNL d   1      21.896  37.423 -18.005 +0.00 -0.01    -0.303    45.055
ATOM     20  H   UNL d   1      22.655  37.843 -17.561 +0.00 +0.01    +0.222    45.055
ATOM     21  O   UNL d   1      23.259  42.566 -16.435 +0.00 -0.01    -0.278    45.055
ATOM     22  P   UNL d   1      23.726  42.560 -14.909 +0.00 +0.03    +0.473    45.055
ATOM     23  O   UNL d   1      22.804  41.977 -13.892 -0.00 -0.03    -0.228    45.055
ATOM     24  O   UNL d   1      25.147  41.850 -15.006 +0.00 -0.01    -0.303    45.055
ATOM     25  H   UNL d   1      25.000  40.891 -15.207 +0.00 +0.01    +0.222    45.055
ATOM     26  O   UNL d   1      24.137  44.094 -14.689 +0.00 -0.01    -0.303    45.055
ATOM     27  H   UNL d   1      23.617  44.657 -15.298 +0.00 +0.01    +0.222    45.055
ATOM     28  O   UNL d   1      18.711  39.466 -16.181 -0.00 -0.05    -0.278    45.055
ATOM     29  P   UNL d   1      17.790  38.751 -15.096 -0.01 +0.19    +0.473    45.055
ATOM     30  O   UNL d   1      16.543  38.137 -15.619 -0.02 -0.05    -0.228    45.055
ATOM     31  O   UNL d   1      18.860  37.767 -14.427 -0.09 -0.16    -0.303    45.055
ATOM     32  H   UNL d   1      18.883  36.930 -14.946 +0.01 +0.07    +0.222    45.055
ATOM     33  O   UNL d   1      17.625  39.890 -13.996 -0.64 -0.22    -0.303    45.055
ATOM     34  H   UNL d   1      18.519  40.232 -13.750 +0.01 +0.17    +0.222    45.055
ATOM     35  O   UNL d   1      20.569  43.693 -16.577 +0.00 -0.02    -0.278    45.055
ATOM     36  P   UNL d   1      21.350  45.029 -16.190 +0.00 +0.02    +0.473    45.055
ATOM     37  O   UNL d   1      22.535  45.353 -17.043 +0.00 -0.01    -0.228    45.055
ATOM     38  O   UNL d   1      20.186  46.114 -16.246 +0.00 -0.01    -0.303    45.055
ATOM     39  H   UNL d   1      20.520  46.920 -16.695 +0.00 +0.00    +0.222    45.055
ATOM     40  O   UNL d   1      21.613  44.829 -14.634 +0.00 -0.02    -0.303    45.055
ATOM     41  H   UNL d   1      21.931  43.921 -14.432 +0.01 +0.02    +0.222    45.055
ATOM     42  O   UNL d   1      18.856  42.039 -14.899 -0.01 -0.06    -0.278    45.055
ATOM     43  P   UNL d   1      19.529  42.218 -13.464 -0.05 +0.15    +0.473    45.055
ATOM     44  O   UNL d   1      20.154  43.535 -13.159 -0.02 -0.04    -0.228    45.055
ATOM     45  O   UNL d   1      18.351  41.812 -12.473 -0.60 -0.22    -0.303    45.055
ATOM     46  H   UNL d   1      17.490  41.781 -12.934 +0.02 +0.12    +0.222    45.055
ATOM     47  O   UNL d   1      20.500  40.948 -13.353 -0.06 -0.12    -0.303    45.055
ATOM     48  H   UNL d   1      21.425  41.257 -13.259 +0.02 +0.06    +0.222    45.055
TER
ENDMDL
MODEL       25
USER    Run = 25
USER    Cluster Rank = 95
USER    Number of conformations in this cluster = 1
USER  
USER    RMSD from reference structure       = 25.496 A
USER  
USER    Estimated Free Energy of Binding    =   +5.78 kcal/mol  [=(1)+(2)+(3)-(4)]
USER    
USER    (1) Final Intermolecular Energy     =   -1.38 kcal/mol
USER        vdW + Hbond + desolv Energy     =   -1.40 kcal/mol
USER        Electrostatic Energy            =   +0.02 kcal/mol
USER    (2) Final Total Internal Energy     =  -14.74 kcal/mol
USER    (3) Torsional Free Energy           =   +7.16 kcal/mol
USER    (4) Unbound System's Energy  [=(2)] =  -14.74 kcal/mol
USER    
USER    
USER  
USER    DPF = D:/Protein_go_brrr/autodock/final/6BB5/IHP/dock.dpf
USER    NEWDPF move	IHP_ideal_opt.pdbqt
USER    NEWDPF about	0.035000 0.082000 -0.065000
USER    NEWDPF tran0	-1.464486 23.403149 15.553639
USER    NEWDPF axisangle0	0.005991 0.464429 0.885590 164.042424
USER    NEWDPF quaternion0	0.005933 0.459933 0.877017 0.138806
USER    NEWDPF dihe0	-175.98 7.71 160.46 149.18 -5.43 -134.81 -19.29 171.36 -4.30 -64.37 133.56 -179.92 -113.18 90.97 5.06 135.48 -166.00 44.32 34.47 -19.21 147.32 -35.98 -43.92 -1.06 
USER  
USER                              x       y       z    vdW   Elec        q     RMS 
ATOM      1  C   UNL d   1      -2.983  24.222  15.468 -0.01 -0.01    +0.194    25.496
ATOM      2  C   UNL d   1      -1.940  24.654  14.436 -0.02 -0.02    +0.194    25.496
ATOM      3  C   UNL d   1      -0.551  24.801  15.060 -0.05 -0.02    +0.194    25.496
ATOM      4  C   UNL d   1      -0.111  23.567  15.844 -0.06 -0.01    +0.194    25.496
ATOM      5  C   UNL d   1      -1.166  23.033  16.805 -0.02 -0.01    +0.194    25.496
ATOM      6  C   UNL d   1      -2.568  22.944  16.198 -0.01 -0.01    +0.194    25.496
ATOM      7  O   UNL d   1      -4.204  23.942  14.779 -0.00 +0.02    -0.278    25.496
ATOM      8  P   UNL d   1      -5.228  25.143  14.530 +0.00 -0.03    +0.473    25.496
ATOM      9  O   UNL d   1      -5.761  25.783  15.764 +0.00 +0.01    -0.228    25.496
ATOM     10  O   UNL d   1      -4.420  26.153  13.597 -0.00 +0.02    -0.303    25.496
ATOM     11  H   UNL d   1      -3.748  25.663  13.089 +0.01 -0.02    +0.222    25.496
ATOM     12  O   UNL d   1      -6.313  24.559  13.527 +0.00 +0.02    -0.303    25.496
ATOM     13  H   UNL d   1      -5.928  23.957  12.850 +0.00 -0.01    +0.222    25.496
ATOM     14  O   UNL d   1      -1.872  23.667  13.399 -0.04 +0.04    -0.278    25.496
ATOM     15  P   UNL d   1      -2.392  24.112  11.951 -0.02 -0.11    +0.473    25.496
ATOM     16  O   UNL d   1      -1.690  23.515  10.772 -0.14 +0.10    -0.228    25.496
ATOM     17  O   UNL d   1      -3.949  23.776  11.978 -0.00 +0.04    -0.303    25.496
ATOM     18  H   UNL d   1      -4.416  24.325  12.638 +0.01 -0.02    +0.222    25.496
ATOM     19  O   UNL d   1      -2.407  25.702  12.007 -0.01 +0.06    -0.303    25.496
ATOM     20  H   UNL d   1      -1.554  26.080  11.727 +0.05 -0.05    +0.222    25.496
ATOM     21  O   UNL d   1      -3.476  22.768  17.283 -0.00 +0.01    -0.278    25.496
ATOM     22  P   UNL d   1      -3.326  23.664  18.594 -0.00 -0.01    +0.473    25.496
ATOM     23  O   UNL d   1      -2.876  25.077  18.435 -0.00 +0.01    -0.228    25.496
ATOM     24  O   UNL d   1      -4.756  23.491  19.271 +0.00 +0.01    -0.303    25.496
ATOM     25  H   UNL d   1      -5.417  23.991  18.727 +0.00 -0.00    +0.222    25.496
ATOM     26  O   UNL d   1      -2.407  22.733  19.521 -0.00 +0.01    -0.303    25.496
ATOM     27  H   UNL d   1      -1.620  22.450  19.012 +0.00 -0.01    +0.222    25.496
ATOM     28  O   UNL d   1       0.386  24.926  13.998 -0.08 +0.04    -0.278    25.496
ATOM     29  P   UNL d   1       0.495  26.288  13.179 -0.11 -0.09    +0.473    25.496
ATOM     30  O   UNL d   1       1.731  27.078  13.412 -0.23 +0.03    -0.228    25.496
ATOM     31  O   UNL d   1       0.251  25.742  11.695 -0.22 +0.11    -0.303    25.496
ATOM     32  H   UNL d   1      -0.364  24.974  11.740 +0.09 -0.08    +0.222    25.496
ATOM     33  O   UNL d   1      -0.888  26.997  13.524 -0.02 +0.03    -0.303    25.496
ATOM     34  H   UNL d   1      -1.320  27.286  12.683 +0.05 -0.03    +0.222    25.496
ATOM     35  O   UNL d   1      -0.762  21.702  17.123 -0.01 +0.01    -0.278    25.496
ATOM     36  P   UNL d   1       0.258  21.436  18.320 -0.00 -0.01    +0.473    25.496
ATOM     37  O   UNL d   1       1.520  20.726  17.946 -0.03 +0.01    -0.228    25.496
ATOM     38  O   UNL d   1       0.479  22.905  18.893 -0.01 +0.01    -0.303    25.496
ATOM     39  H   UNL d   1       1.054  23.408  18.276 +0.03 -0.01    +0.222    25.496
ATOM     40  O   UNL d   1      -0.668  20.737  19.407 -0.00 +0.00    -0.303    25.496
ATOM     41  H   UNL d   1      -0.878  21.343  20.152 +0.00 -0.00    +0.222    25.496
ATOM     42  O   UNL d   1       1.018  23.957  16.634 -0.05 +0.02    -0.278    25.496
ATOM     43  P   UNL d   1       2.450  23.348  16.287 -0.08 -0.03    +0.473    25.496
ATOM     44  O   UNL d   1       3.296  24.092  15.313 -0.29 +0.02    -0.228    25.496
ATOM     45  O   UNL d   1       3.112  23.172  17.723 -0.09 +0.00    -0.303    25.496
ATOM     46  H   UNL d   1       2.591  22.565  18.286 +0.05 +0.00    +0.222    25.496
ATOM     47  O   UNL d   1       2.117  21.830  15.894 -0.14 +0.02    -0.303    25.496
ATOM     48  H   UNL d   1       1.153  21.678  15.983 +0.05 -0.02    +0.222    25.496
TER
ENDMDL
MODEL       45
USER    Run = 45
USER    Cluster Rank = 96
USER    Number of conformations in this cluster = 1
USER  
USER    RMSD from reference structure       = 63.451 A
USER  
USER    Estimated Free Energy of Binding    =   +5.94 kcal/mol  [=(1)+(2)+(3)-(4)]
USER    
USER    (1) Final Intermolecular Energy     =   -1.22 kcal/mol
USER        vdW + Hbond + desolv Energy     =   -1.30 kcal/mol
USER        Electrostatic Energy            =   +0.07 kcal/mol
USER    (2) Final Total Internal Energy     =  -13.80 kcal/mol
USER    (3) Torsional Free Energy           =   +7.16 kcal/mol
USER    (4) Unbound System's Energy  [=(2)] =  -13.80 kcal/mol
USER    
USER    
USER  
USER    DPF = D:/Protein_go_brrr/autodock/final/6BB5/IHP/dock.dpf
USER    NEWDPF move	IHP_ideal_opt.pdbqt
USER    NEWDPF about	0.035000 0.082000 -0.065000
USER    NEWDPF tran0	30.069773 53.295852 27.955320
USER    NEWDPF axisangle0	-0.099418 0.989506 0.104848 121.986213
USER    NEWDPF quaternion0	-0.086947 0.865384 0.091696 0.484915
USER    NEWDPF dihe0	69.62 79.81 -169.04 57.58 -10.27 -25.59 -4.38 -124.24 13.63 4.36 -167.78 -112.43 -30.85 172.33 -83.79 -70.99 -179.98 83.32 -164.80 20.97 -5.10 7.34 -177.40 18.90 
USER  
USER                              x       y       z    vdW   Elec        q     RMS 
ATOM      1  C   UNL d   1      28.803  52.195  28.365 -0.05 +0.04    +0.194    63.451
ATOM      2  C   UNL d   1      29.810  51.688  27.332 -0.07 +0.06    +0.194    63.451
ATOM      3  C   UNL d   1      30.154  52.764  26.300 -0.06 +0.07    +0.194    63.451
ATOM      4  C   UNL d   1      30.588  54.085  26.930 -0.03 +0.04    +0.194    63.451
ATOM      5  C   UNL d   1      29.673  54.571  28.047 -0.01 +0.03    +0.194    63.451
ATOM      6  C   UNL d   1      29.280  53.479  29.045 -0.02 +0.03    +0.194    63.451
ATOM      7  O   UNL d   1      28.669  51.200  29.383 -0.03 -0.03    -0.278    63.451
ATOM      8  P   UNL d   1      29.872  51.001  30.414 -0.00 +0.03    +0.473    63.451
ATOM      9  O   UNL d   1      30.799  52.160  30.533 -0.01 -0.01    -0.228    63.451
ATOM     10  O   UNL d   1      29.148  50.633  31.787 -0.00 -0.01    -0.303    63.451
ATOM     11  H   UNL d   1      28.935  51.450  32.274 +0.00 +0.01    +0.222    63.451
ATOM     12  O   UNL d   1      30.540  49.618  30.008 -0.02 -0.01    -0.303    63.451
ATOM     13  H   UNL d   1      30.522  49.451  29.039 +0.05 +0.01    +0.222    63.451
ATOM     14  O   UNL d   1      31.015  51.300  28.005 -0.05 -0.04    -0.278    63.451
ATOM     15  P   UNL d   1      31.897  50.167  27.297 -0.11 +0.04    +0.473    63.451
ATOM     16  O   UNL d   1      32.363  49.039  28.163 -0.13 +0.00    -0.228    63.451
ATOM     17  O   UNL d   1      30.995  49.678  26.078 -0.19 -0.06    -0.303    63.451
ATOM     18  H   UNL d   1      31.233  50.144  25.254 +0.07 +0.07    +0.222    63.451
ATOM     19  O   UNL d   1      33.044  50.971  26.542 -0.08 -0.03    -0.303    63.451
ATOM     20  H   UNL d   1      32.937  51.934  26.646 +0.04 +0.03    +0.222    63.451
ATOM     21  O   UNL d   1      28.182  53.987  29.799 -0.00 -0.03    -0.278    63.451
ATOM     22  P   UNL d   1      28.399  54.420  31.319 +0.00 +0.02    +0.473    63.451
ATOM     23  O   UNL d   1      29.008  53.430  32.254 -0.00 -0.01    -0.228    63.451
ATOM     24  O   UNL d   1      29.215  55.777  31.158 -0.00 -0.02    -0.303    63.451
ATOM     25  H   UNL d   1      30.151  55.548  30.928 +0.00 +0.01    +0.222    63.451
ATOM     26  O   UNL d   1      26.941  54.956  31.716 +0.00 -0.01    -0.303    63.451
ATOM     27  H   UNL d   1      26.853  54.958  32.691 +0.00 +0.01    +0.222    63.451
ATOM     28  O   UNL d   1      31.281  52.308  25.564 -0.09 -0.09    -0.278    63.451
ATOM     29  P   UNL d   1      31.170  52.057  23.995 -0.14 +0.20    +0.473    63.451
ATOM     30  O   UNL d   1      30.920  50.651  23.587 -0.35 -0.11    -0.228    63.451
ATOM     31  O   UNL d   1      30.047  53.134  23.619 -0.09 -0.17    -0.303    63.451
ATOM     32  H   UNL d   1      30.280  53.992  24.043 +0.04 +0.08    +0.222    63.451
ATOM     33  O   UNL d   1      32.504  52.737  23.453 -0.05 -0.09    -0.303    63.451
ATOM     34  H   UNL d   1      32.461  53.710  23.622 +0.04 +0.06    +0.222    63.451
ATOM     35  O   UNL d   1      30.425  55.547  28.766 -0.00 -0.03    -0.278    63.451
ATOM     36  P   UNL d   1      31.933  55.247  29.192 +0.00 +0.04    +0.473    63.451
ATOM     37  O   UNL d   1      32.295  55.628  30.592 +0.00 -0.01    -0.228    63.451
ATOM     38  O   UNL d   1      32.055  53.689  28.885 -0.00 -0.03    -0.303    63.451
ATOM     39  H   UNL d   1      31.358  53.209  29.382 +0.01 +0.02    +0.222    63.451
ATOM     40  O   UNL d   1      32.760  55.934  28.020 -0.00 -0.03    -0.303    63.451
ATOM     41  H   UNL d   1      32.316  55.827  27.149 +0.00 +0.02    +0.222    63.451
ATOM     42  O   UNL d   1      30.549  55.072  25.894 -0.01 -0.06    -0.278    63.451
ATOM     43  P   UNL d   1      31.871  55.357  25.049 +0.01 +0.08    +0.473    63.451
ATOM     44  O   UNL d   1      31.757  55.333  23.564 -0.01 -0.05    -0.228    63.451
ATOM     45  O   UNL d   1      32.370  56.748  25.640 -0.00 -0.04    -0.303    63.451
ATOM     46  H   UNL d   1      33.259  56.669  26.040 +0.00 +0.02    +0.222    63.451
ATOM     47  O   UNL d   1      32.935  54.336  25.678 -0.00 -0.05    -0.303    63.451
ATOM     48  H   UNL d   1      32.660  53.418  25.475 +0.03 +0.04    +0.222    63.451
TER
ENDMDL
MODEL       29
USER    Run = 29
USER    Cluster Rank = 97
USER    Number of conformations in this cluster = 1
USER  
USER    RMSD from reference structure       = 60.806 A
USER  
USER    Estimated Free Energy of Binding    =   +5.96 kcal/mol  [=(1)+(2)+(3)-(4)]
USER    
USER    (1) Final Intermolecular Energy     =   -1.20 kcal/mol
USER        vdW + Hbond + desolv Energy     =   -0.99 kcal/mol
USER        Electrostatic Energy            =   -0.20 kcal/mol
USER    (2) Final Total Internal Energy     =  -15.06 kcal/mol
USER    (3) Torsional Free Energy           =   +7.16 kcal/mol
USER    (4) Unbound System's Energy  [=(2)] =  -15.06 kcal/mol
USER    
USER    
USER  
USER    DPF = D:/Protein_go_brrr/autodock/final/6BB5/IHP/dock.dpf
USER    NEWDPF move	IHP_ideal_opt.pdbqt
USER    NEWDPF about	0.035000 0.082000 -0.065000
USER    NEWDPF tran0	21.177031 55.111928 25.352461
USER    NEWDPF axisangle0	-0.514689 -0.636797 0.574095 -149.895897
USER    NEWDPF quaternion0	-0.497030 -0.614949 0.554398 -0.259696
USER    NEWDPF dihe0	38.47 92.69 163.16 11.95 91.34 180.00 -33.60 1.61 19.76 10.72 -43.12 153.19 -34.29 172.65 113.43 3.75 179.38 84.63 -164.03 15.42 -7.67 -8.77 -178.13 16.94 
USER  
USER                              x       y       z    vdW   Elec        q     RMS 
ATOM      1  C   UNL d   1      19.736  56.000  25.699 -0.00 +0.00    +0.194    60.806
ATOM      2  C   UNL d   1      20.261  55.122  26.836 +0.00 +0.00    +0.194    60.806
ATOM      3  C   UNL d   1      20.711  53.749  26.331 -0.00 +0.00    +0.194    60.806
ATOM      4  C   UNL d   1      21.693  53.831  25.164 -0.00 +0.01    +0.194    60.806
ATOM      5  C   UNL d   1      21.264  54.785  24.057 +0.00 +0.01    +0.194    60.806
ATOM      6  C   UNL d   1      20.755  56.136  24.567 +0.00 +0.00    +0.194    60.806
ATOM      7  O   UNL d   1      19.501  57.311  26.219 +0.00 -0.00    -0.278    60.806
ATOM      8  P   UNL d   1      20.763  58.235  26.546 +0.00 +0.01    +0.473    60.806
ATOM      9  O   UNL d   1      22.039  57.809  25.910 +0.00 -0.01    -0.228    60.806
ATOM     10  O   UNL d   1      20.297  59.695  26.102 +0.00 -0.00    -0.303    60.806
ATOM     11  H   UNL d   1      20.889  60.028  25.402 +0.00 +0.00    +0.222    60.806
ATOM     12  O   UNL d   1      20.784  58.360  28.130 +0.00 -0.00    -0.303    60.806
ATOM     13  H   UNL d   1      20.679  57.495  28.586 +0.00 +0.00    +0.222    60.806
ATOM     14  O   UNL d   1      21.380  55.772  27.450 +0.00 -0.01    -0.278    60.806
ATOM     15  P   UNL d   1      21.570  55.537  29.023 +0.00 +0.01    +0.473    60.806
ATOM     16  O   UNL d   1      21.810  56.755  29.860 +0.00 -0.00    -0.228    60.806
ATOM     17  O   UNL d   1      20.262  54.738  29.456 +0.00 -0.00    -0.303    60.806
ATOM     18  H   UNL d   1      20.250  53.844  29.065 +0.00 -0.00    +0.222    60.806
ATOM     19  O   UNL d   1      22.683  54.405  29.124 +0.00 -0.01    -0.303    60.806
ATOM     20  H   UNL d   1      22.493  53.659  28.526 +0.01 +0.01    +0.222    60.806
ATOM     21  O   UNL d   1      20.087  56.763  23.475 +0.00 -0.00    -0.278    60.806
ATOM     22  P   UNL d   1      20.735  58.043  22.779 +0.00 +0.00    +0.473    60.806
ATOM     23  O   UNL d   1      20.584  58.196  21.303 +0.00 +0.00    -0.228    60.806
ATOM     24  O   UNL d   1      20.115  59.230  23.639 +0.00 +0.00    -0.303    60.806
ATOM     25  H   UNL d   1      19.884  58.873  24.534 +0.00 +0.00    +0.222    60.806
ATOM     26  O   UNL d   1      22.240  57.986  23.330 +0.00 -0.01    -0.303    60.806
ATOM     27  H   UNL d   1      22.364  57.160  23.840 +0.00 +0.01    +0.222    60.806
ATOM     28  O   UNL d   1      21.428  53.119  27.384 -0.00 -0.00    -0.278    60.806
ATOM     29  P   UNL d   1      20.732  51.994  28.270 +0.01 -0.01    +0.473    60.806
ATOM     30  O   UNL d   1      19.247  52.020  28.289 -0.00 +0.01    -0.228    60.806
ATOM     31  O   UNL d   1      21.428  50.688  27.661 -0.01 +0.02    -0.303    60.806
ATOM     32  H   UNL d   1      22.239  50.963  27.174 +0.03 -0.01    +0.222    60.806
ATOM     33  O   UNL d   1      21.472  52.165  29.670 +0.00 +0.00    -0.303    60.806
ATOM     34  H   UNL d   1      21.303  53.077  30.013 +0.00 +0.00    +0.222    60.806
ATOM     35  O   UNL d   1      22.439  55.041  23.290 +0.00 -0.02    -0.278    60.806
ATOM     36  P   UNL d   1      23.808  55.419  24.017 +0.01 +0.08    +0.473    60.806
ATOM     37  O   UNL d   1      24.576  56.544  23.400 +0.00 -0.03    -0.228    60.806
ATOM     38  O   UNL d   1      23.319  55.700  25.507 +0.00 -0.03    -0.303    60.806
ATOM     39  H   UNL d   1      22.561  56.322  25.484 +0.00 +0.01    +0.222    60.806
ATOM     40  O   UNL d   1      24.541  54.011  24.113 -0.12 -0.15    -0.303    60.806
ATOM     41  H   UNL d   1      23.899  53.271  24.198 +0.03 +0.09    +0.222    60.806
ATOM     42  O   UNL d   1      21.761  52.522  24.588 -0.04 +0.00    -0.278    60.806
ATOM     43  P   UNL d   1      22.912  51.527  25.069 -0.09 -0.02    +0.473    60.806
ATOM     44  O   UNL d   1      22.508  50.149  25.464 -0.15 +0.09    -0.228    60.806
ATOM     45  O   UNL d   1      23.947  51.581  23.860 -0.17 -0.08    -0.303    60.806
ATOM     46  H   UNL d   1      24.030  50.711  23.421 -0.48 -0.14    +0.222    60.806
ATOM     47  O   UNL d   1      23.681  52.372  26.193 -0.05 -0.05    -0.303    60.806
ATOM     48  H   UNL d   1      23.586  53.328  26.000 +0.02 +0.04    +0.222    60.806
TER
ENDMDL
MODEL       98
USER    Run = 98
USER    Cluster Rank = 98
USER    Number of conformations in this cluster = 1
USER  
USER    RMSD from reference structure       = 44.160 A
USER  
USER    Estimated Free Energy of Binding    =   +5.99 kcal/mol  [=(1)+(2)+(3)-(4)]
USER    
USER    (1) Final Intermolecular Energy     =   -1.17 kcal/mol
USER        vdW + Hbond + desolv Energy     =   -1.01 kcal/mol
USER        Electrostatic Energy            =   -0.16 kcal/mol
USER    (2) Final Total Internal Energy     =  -13.23 kcal/mol
USER    (3) Torsional Free Energy           =   +7.16 kcal/mol
USER    (4) Unbound System's Energy  [=(2)] =  -13.23 kcal/mol
USER    
USER    
USER  
USER    DPF = D:/Protein_go_brrr/autodock/final/6BB5/IHP/dock.dpf
USER    NEWDPF move	IHP_ideal_opt.pdbqt
USER    NEWDPF about	0.035000 0.082000 -0.065000
USER    NEWDPF tran0	2.595542 47.142384 -9.425741
USER    NEWDPF axisangle0	-0.738570 0.474529 -0.478892 -137.114318
USER    NEWDPF quaternion0	-0.687448 0.441683 -0.445744 -0.365573
USER    NEWDPF dihe0	-148.69 14.15 148.75 14.07 -5.76 -171.77 -110.77 -32.97 -3.11 -156.32 -89.33 -165.96 31.96 32.48 -178.37 71.48 -87.52 -9.31 -131.52 -28.35 -176.78 146.13 -171.38 147.14 
USER  
USER                              x       y       z    vdW   Elec        q     RMS 
ATOM      1  C   UNL d   1       3.852  46.363  -8.532 -0.05 +0.05    +0.194    44.160
ATOM      2  C   UNL d   1       3.468  47.763  -8.049 -0.05 +0.06    +0.194    44.160
ATOM      3  C   UNL d   1       3.274  48.732  -9.218 -0.01 +0.03    +0.194    44.160
ATOM      4  C   UNL d   1       2.315  48.205 -10.283 +0.00 +0.02    +0.194    44.160
ATOM      5  C   UNL d   1       2.592  46.770 -10.711 +0.00 +0.02    +0.194    44.160
ATOM      6  C   UNL d   1       2.847  45.813  -9.544 -0.01 +0.03    +0.194    44.160
ATOM      7  O   UNL d   1       3.844  45.485  -7.404 -0.04 -0.10    -0.278    44.160
ATOM      8  P   UNL d   1       2.640  44.445  -7.260 -0.02 +0.12    +0.473    44.160
ATOM      9  O   UNL d   1       2.801  43.182  -8.030 -0.01 -0.03    -0.228    44.160
ATOM     10  O   UNL d   1       2.518  44.210  -5.686 -0.04 -0.11    -0.303    44.160
ATOM     11  H   UNL d   1       2.430  45.070  -5.233 +0.05 +0.12    +0.222    44.160
ATOM     12  O   UNL d   1       1.329  45.286  -7.572 -0.00 -0.07    -0.303    44.160
ATOM     13  H   UNL d   1       1.405  46.231  -7.310 +0.02 +0.06    +0.222    44.160
ATOM     14  O   UNL d   1       2.240  47.683  -7.314 -0.02 -0.11    -0.278    44.160
ATOM     15  P   UNL d   1       2.355  47.758  -5.719 -0.04 +0.45    +0.473    44.160
ATOM     16  O   UNL d   1       2.331  49.124  -5.107 -0.43 -0.34    -0.228    44.160
ATOM     17  O   UNL d   1       1.169  46.829  -5.201 -0.04 -0.19    -0.303    44.160
ATOM     18  H   UNL d   1       1.212  45.943  -5.610 +0.03 +0.10    +0.222    44.160
ATOM     19  O   UNL d   1       3.630  46.873  -5.371 -0.40 -0.39    -0.303    44.160
ATOM     20  H   UNL d   1       3.625  46.027  -5.856 +0.05 +0.16    +0.222    44.160
ATOM     21  O   UNL d   1       3.416  44.630 -10.099 -0.01 -0.02    -0.278    44.160
ATOM     22  P   UNL d   1       4.972  44.588 -10.448 -0.00 +0.01    +0.473    44.160
ATOM     23  O   UNL d   1       5.414  43.751 -11.601 -0.00 +0.01    -0.228    44.160
ATOM     24  O   UNL d   1       5.318  46.137 -10.577 -0.02 -0.01    -0.303    44.160
ATOM     25  H   UNL d   1       4.909  46.475 -11.414 +0.01 +0.01    +0.222    44.160
ATOM     26  O   UNL d   1       5.616  44.223  -9.026 -0.06 -0.02    -0.303    44.160
ATOM     27  H   UNL d   1       4.910  43.911  -8.424 +0.04 +0.03    +0.222    44.160
ATOM     28  O   UNL d   1       2.658  49.906  -8.703 -0.00 -0.06    -0.278    44.160
ATOM     29  P   UNL d   1       1.105  50.168  -8.938 +0.01 +0.07    +0.473    44.160
ATOM     30  O   UNL d   1       0.214  49.005  -8.695 +0.00 -0.04    -0.228    44.160
ATOM     31  O   UNL d   1       0.894  51.452  -8.005 +0.00 -0.05    -0.303    44.160
ATOM     32  H   UNL d   1       1.142  51.213  -7.082 +0.01 +0.05    +0.222    44.160
ATOM     33  O   UNL d   1       1.090  50.792 -10.403 +0.00 -0.03    -0.303    44.160
ATOM     34  H   UNL d   1       1.882  50.470 -10.898 +0.00 +0.02    +0.222    44.160
ATOM     35  O   UNL d   1       1.405  46.326 -11.366 -0.00 -0.02    -0.278    44.160
ATOM     36  P   UNL d   1      -0.028  46.709 -10.781 +0.00 +0.04    +0.473    44.160
ATOM     37  O   UNL d   1      -0.172  46.589  -9.297 +0.00 -0.03    -0.228    44.160
ATOM     38  O   UNL d   1      -0.225  48.187 -11.339 +0.00 -0.02    -0.303    44.160
ATOM     39  H   UNL d   1       0.360  48.799 -10.843 +0.00 +0.02    +0.222    44.160
ATOM     40  O   UNL d   1      -1.006  45.829 -11.674 +0.00 -0.02    -0.303    44.160
ATOM     41  H   UNL d   1      -1.893  45.735 -11.260 +0.00 +0.01    +0.222    44.160
ATOM     42  O   UNL d   1       2.488  49.031 -11.440 -0.00 -0.02    -0.278    44.160
ATOM     43  P   UNL d   1       3.946  49.572 -11.791 +0.00 +0.03    +0.473    44.160
ATOM     44  O   UNL d   1       5.098  48.665 -11.526 -0.01 -0.01    -0.228    44.160
ATOM     45  O   UNL d   1       3.799  50.008 -13.314 -0.00 -0.01    -0.303    44.160
ATOM     46  H   UNL d   1       4.672  50.102 -13.746 +0.00 +0.00    +0.222    44.160
ATOM     47  O   UNL d   1       3.999  50.992 -11.049 +0.00 -0.02    -0.303    44.160
ATOM     48  H   UNL d   1       3.245  51.059 -10.427 +0.00 +0.02    +0.222    44.160
TER
ENDMDL


AVSFLD: # AVS field file
AVSFLD: #
AVSFLD: # Created by AutoDock
AVSFLD: #
AVSFLD: ndim=2           # number of dimensions in the field
AVSFLD: nspace=1         # number of physical coordinates
AVSFLD: veclen=7         # vector size
AVSFLD: dim1=48          # atoms
AVSFLD: dim2=98          # conformations
AVSFLD: data=Real       # data type (byte,integer,Real,double)
AVSFLD: field=uniform    # field coordinate layout
AVSFLD: label= x y z vdW Elec q RMS
AVSFLD: variable 1 file = D:/Protein_go_brrr/autodock/final/6BB5/IHP/dock.dlg.pdb filetype = ascii offset = 5 stride = 12
AVSFLD: variable 2 file = D:/Protein_go_brrr/autodock/final/6BB5/IHP/dock.dlg.pdb filetype = ascii offset = 6 stride = 12
AVSFLD: variable 3 file = D:/Protein_go_brrr/autodock/final/6BB5/IHP/dock.dlg.pdb filetype = ascii offset = 7 stride = 12
AVSFLD: variable 4 file = D:/Protein_go_brrr/autodock/final/6BB5/IHP/dock.dlg.pdb filetype = ascii offset = 8 stride = 12
AVSFLD: variable 5 file = D:/Protein_go_brrr/autodock/final/6BB5/IHP/dock.dlg.pdb filetype = ascii offset = 9 stride = 12
AVSFLD: variable 6 file = D:/Protein_go_brrr/autodock/final/6BB5/IHP/dock.dlg.pdb filetype = ascii offset = 10 stride = 12
AVSFLD: variable 7 file = D:/Protein_go_brrr/autodock/final/6BB5/IHP/dock.dlg.pdb filetype = ascii offset = 11 stride = 12
AVSFLD: # end of file

>>> Closing the docking parameter file (DPF)...
This docking finished at:			4:05 45" p.m., 09/29/2025


________________________________________________________________________________

D:/autodockScripts/autodock4.exe: Successful Completion on "ACER"

Real= 15h 26m 24.71s,  CPU= 4m 42.31s,  System= 2m 17.55s
________________________________________________________________________________

