          AutoDock 4.2 Release 4.2.6   
         (C) 1989-2012 The Scripps Research Institute
        AutoDock comes with ABSOLUTELY NO WARRANTY.
        AutoDock is free software, and you are welcome
        to redistribute it under certain conditions;
        for details type 'autodock4 -C'

                     main.cc  $Revision: 1.213 $

                   Compiled on Jul 18 2014 at 15:34:58


This file was created at:			4:16 37" p.m., 09/29/2025
                   on host:		"ACER"
Current Working Directory = "D:\Protein_go_brrr\autodock\final\AncA\IHP"

      ________________________________________________________________

                   SETTING UP DEFAULT PARAMETER LIBRARY
      ________________________________________________________________


Random number generator was seeded with values 113532, 1759155397.
Docking parameter file (DPF) used for this docking:		D:/Protein_go_brrr/autodock/final/AncA/IHP/dock.dpf
DPF> autodock_parameter_version 4.2       # used by autodock to validate parameter set

	Autodock parameter version 4.2.
DPF> outlev 1                             # diagnostic output level

Output Level = 1  ADT-COMPATIBLE OUTPUT DURING DOCKING.
DPF> intelec                              # calculate internal electrostatics

Electrostatic energies will be calculated for all non-bonds between moving atoms.
DPF> seed pid time                        # seeds for random generator

Random number generator was seeded with values 113532, 1759155397.
DPF> ligand_types P C HD OA               # atoms types in ligand

DPF> fld opt_AncA.maps.fld                # grid_data_file

Opening Grid Map Dimensions file:		opt_AncA.maps.fld
Grid Point Spacing =				0.408 Angstroms

Even Number of User-specified Grid Points =	126 x-points
						126 y-points
						126 z-points

Coordinates of Central Grid Point of Maps =	(-0.462, -1.415, -1.889)
Macromolecule file used to create Grid Maps =	opt_AncA.pdbqt
Grid Parameter file used to create Grid Maps =	D:/Protein_go_brrr/autodock/final/AncA/IHP/grid.gpf
Minimum coordinates in grid = (-26.166, -27.119, -27.593)
Maximum coordinates in grid = (25.242, 24.289, 23.815)

DPF> map opt_AncA.P.map                   # atom-specific affinity map

DPF> map opt_AncA.C.map                   # atom-specific affinity map

DPF> map opt_AncA.HD.map                  # atom-specific affinity map

DPF> map opt_AncA.OA.map                  # atom-specific affinity map

DPF> elecmap opt_AncA.e.map               # electrostatics map

DPF> desolvmap opt_AncA.d.map             # desolvation map

DPF> move IHP_ideal_opt.pdbqt             # small molecule

1,4-interactions will be _ignored_ in the non-bonded internal energy calculation.

Ligand PDBQT file = "IHP_ideal_opt.pdbqt"

INPUT LIGAND PDBQT FILE:
________________________

INPUT-LIGAND-PDBQT: REMARK  24 active torsions:
INPUT-LIGAND-PDBQT: REMARK  status: ('A' for Active; 'I' for Inactive)
INPUT-LIGAND-PDBQT: REMARK    1  A    between atoms: C_1  and  O_7 
INPUT-LIGAND-PDBQT: REMARK    2  A    between atoms: C_2  and  O_12 
INPUT-LIGAND-PDBQT: REMARK    3  A    between atoms: C_3  and  O_17 
INPUT-LIGAND-PDBQT: REMARK    4  A    between atoms: C_4  and  O_22 
INPUT-LIGAND-PDBQT: REMARK    5  A    between atoms: C_5  and  O_27 
INPUT-LIGAND-PDBQT: REMARK    6  A    between atoms: C_6  and  O_32 
INPUT-LIGAND-PDBQT: REMARK    7  A    between atoms: O_7  and  P_8 
INPUT-LIGAND-PDBQT: REMARK    8  A    between atoms: P_8  and  O_10 
INPUT-LIGAND-PDBQT: REMARK    9  A    between atoms: P_8  and  O_11 
INPUT-LIGAND-PDBQT: REMARK   10  A    between atoms: O_12  and  P_13 
INPUT-LIGAND-PDBQT: REMARK   11  A    between atoms: P_13  and  O_15 
INPUT-LIGAND-PDBQT: REMARK   12  A    between atoms: P_13  and  O_16 
INPUT-LIGAND-PDBQT: REMARK   13  A    between atoms: O_17  and  P_18 
INPUT-LIGAND-PDBQT: REMARK   14  A    between atoms: P_18  and  O_20 
INPUT-LIGAND-PDBQT: REMARK   15  A    between atoms: P_18  and  O_21 
INPUT-LIGAND-PDBQT: REMARK   16  A    between atoms: O_22  and  P_23 
INPUT-LIGAND-PDBQT: REMARK   17  A    between atoms: P_23  and  O_25 
INPUT-LIGAND-PDBQT: REMARK   18  A    between atoms: P_23  and  O_26 
INPUT-LIGAND-PDBQT: REMARK   19  A    between atoms: O_27  and  P_28 
INPUT-LIGAND-PDBQT: REMARK   20  A    between atoms: P_28  and  O_30 
INPUT-LIGAND-PDBQT: REMARK   21  A    between atoms: P_28  and  O_31 
INPUT-LIGAND-PDBQT: REMARK   22  A    between atoms: O_32  and  P_33 
INPUT-LIGAND-PDBQT: REMARK   23  A    between atoms: P_33  and  O_35 
INPUT-LIGAND-PDBQT: REMARK   24  A    between atoms: P_33  and  O_36 
INPUT-LIGAND-PDBQT: ROOT
INPUT-LIGAND-PDBQT: ATOM      1  C   UNL d   1       1.288  -0.806   0.726  0.00  0.00     0.194 C 
INPUT-LIGAND-PDBQT: ATOM      2  C   UNL d   1       0.040  -1.610   0.357  0.00  0.00     0.194 C 
INPUT-LIGAND-PDBQT: ATOM      3  C   UNL d   1      -1.244  -0.840   0.673  0.00  0.00     0.194 C 
INPUT-LIGAND-PDBQT: ATOM      4  C   UNL d   1      -1.265   0.565   0.076  0.00  0.00     0.194 C 
INPUT-LIGAND-PDBQT: ATOM      5  C   UNL d   1       0.009   1.363   0.322  0.00  0.00     0.194 C 
INPUT-LIGAND-PDBQT: ATOM      6  C   UNL d   1       1.294   0.573   0.065  0.00  0.00     0.194 C 
INPUT-LIGAND-PDBQT: ENDROOT
INPUT-LIGAND-PDBQT: BRANCH   1   7
INPUT-LIGAND-PDBQT: ATOM      7  O   UNL d   1       2.433  -1.514   0.245  0.00  0.00    -0.278 OA
INPUT-LIGAND-PDBQT: BRANCH   7   8
INPUT-LIGAND-PDBQT: ATOM      8  P   UNL d   1       3.563  -1.932   1.294  0.00  0.00     0.473 P 
INPUT-LIGAND-PDBQT: ATOM      9  O   UNL d   1       3.071  -2.662   2.494  0.00  0.00    -0.228 OA
INPUT-LIGAND-PDBQT: BRANCH   8  10
INPUT-LIGAND-PDBQT: ATOM     10  O   UNL d   1       4.602  -2.777   0.427  0.00  0.00    -0.303 OA
INPUT-LIGAND-PDBQT: ATOM     11  H   UNL d   1       5.122  -3.357   1.014  0.00  0.00     0.222 HD
INPUT-LIGAND-PDBQT: ENDBRANCH   8  10
INPUT-LIGAND-PDBQT: BRANCH   8  12
INPUT-LIGAND-PDBQT: ATOM     12  O   UNL d   1       4.376  -0.597   1.579  0.00  0.00    -0.303 OA
INPUT-LIGAND-PDBQT: ATOM     13  H   UNL d   1       4.592  -0.095   0.761  0.00  0.00     0.222 HD
INPUT-LIGAND-PDBQT: ENDBRANCH   8  12
INPUT-LIGAND-PDBQT: ENDBRANCH   7   8
INPUT-LIGAND-PDBQT: ENDBRANCH   1   7
INPUT-LIGAND-PDBQT: BRANCH   2  14
INPUT-LIGAND-PDBQT: ATOM     14  O   UNL d   1       0.067  -1.896  -1.047  0.00  0.00    -0.278 OA
INPUT-LIGAND-PDBQT: BRANCH  14  15
INPUT-LIGAND-PDBQT: ATOM     15  P   UNL d   1      -0.217  -3.413  -1.474  0.00  0.00     0.473 P 
INPUT-LIGAND-PDBQT: ATOM     16  O   UNL d   1      -1.497  -4.019  -0.990  0.00  0.00    -0.228 OA
INPUT-LIGAND-PDBQT: BRANCH  15  17
INPUT-LIGAND-PDBQT: ATOM     17  O   UNL d   1      -0.104  -3.396  -3.063  0.00  0.00    -0.303 OA
INPUT-LIGAND-PDBQT: ATOM     18  H   UNL d   1      -0.983  -3.299  -3.477  0.00  0.00     0.222 HD
INPUT-LIGAND-PDBQT: ENDBRANCH  15  17
INPUT-LIGAND-PDBQT: BRANCH  15  19
INPUT-LIGAND-PDBQT: ATOM     19  O   UNL d   1       1.108  -4.194  -1.068  0.00  0.00    -0.303 OA
INPUT-LIGAND-PDBQT: ATOM     20  H   UNL d   1       1.891  -3.839  -1.528  0.00  0.00     0.222 HD
INPUT-LIGAND-PDBQT: ENDBRANCH  15  19
INPUT-LIGAND-PDBQT: ENDBRANCH  14  15
INPUT-LIGAND-PDBQT: ENDBRANCH   2  14
INPUT-LIGAND-PDBQT: BRANCH   6  21
INPUT-LIGAND-PDBQT: ATOM     21  O   UNL d   1       2.359   1.315   0.655  0.00  0.00    -0.278 OA
INPUT-LIGAND-PDBQT: BRANCH  21  22
INPUT-LIGAND-PDBQT: ATOM     22  P   UNL d   1       3.322   2.189  -0.269  0.00  0.00     0.473 P 
INPUT-LIGAND-PDBQT: ATOM     23  O   UNL d   1       2.760   2.769  -1.523  0.00  0.00    -0.228 OA
INPUT-LIGAND-PDBQT: BRANCH  22  24
INPUT-LIGAND-PDBQT: ATOM     24  O   UNL d   1       3.885   3.258   0.767  0.00  0.00    -0.303 OA
INPUT-LIGAND-PDBQT: ATOM     25  H   UNL d   1       3.131   3.831   1.059  0.00  0.00     0.222 HD
INPUT-LIGAND-PDBQT: ENDBRANCH  22  24
INPUT-LIGAND-PDBQT: BRANCH  22  26
INPUT-LIGAND-PDBQT: ATOM     26  O   UNL d   1       4.578   1.209  -0.449  0.00  0.00    -0.303 OA
INPUT-LIGAND-PDBQT: ATOM     27  H   UNL d   1       5.288   1.681  -0.930  0.00  0.00     0.222 HD
INPUT-LIGAND-PDBQT: ENDBRANCH  22  26
INPUT-LIGAND-PDBQT: ENDBRANCH  21  22
INPUT-LIGAND-PDBQT: ENDBRANCH   6  21
INPUT-LIGAND-PDBQT: BRANCH   3  28
INPUT-LIGAND-PDBQT: ATOM     28  O   UNL d   1      -2.321  -1.530   0.052  0.00  0.00    -0.278 OA
INPUT-LIGAND-PDBQT: BRANCH  28  29
INPUT-LIGAND-PDBQT: ATOM     29  P   UNL d   1      -3.402  -2.296   0.936  0.00  0.00     0.473 P 
INPUT-LIGAND-PDBQT: ATOM     30  O   UNL d   1      -2.932  -2.753   2.269  0.00  0.00    -0.228 OA
INPUT-LIGAND-PDBQT: BRANCH  29  31
INPUT-LIGAND-PDBQT: ATOM     31  O   UNL d   1      -4.591  -1.225   0.913  0.00  0.00    -0.303 OA
INPUT-LIGAND-PDBQT: ATOM     32  H   UNL d   1      -4.772  -0.977  -0.023  0.00  0.00     0.222 HD
INPUT-LIGAND-PDBQT: ENDBRANCH  29  31
INPUT-LIGAND-PDBQT: BRANCH  29  33
INPUT-LIGAND-PDBQT: ATOM     33  O   UNL d   1      -3.920  -3.418  -0.068  0.00  0.00    -0.303 OA
INPUT-LIGAND-PDBQT: ATOM     34  H   UNL d   1      -3.155  -3.980  -0.344  0.00  0.00     0.222 HD
INPUT-LIGAND-PDBQT: ENDBRANCH  29  33
INPUT-LIGAND-PDBQT: ENDBRANCH  28  29
INPUT-LIGAND-PDBQT: ENDBRANCH   3  28
INPUT-LIGAND-PDBQT: BRANCH   5  35
INPUT-LIGAND-PDBQT: ATOM     35  O   UNL d   1      -0.019   2.436  -0.617  0.00  0.00    -0.278 OA
INPUT-LIGAND-PDBQT: BRANCH  35  36
INPUT-LIGAND-PDBQT: ATOM     36  P   UNL d   1       0.242   3.934  -0.135  0.00  0.00     0.473 P 
INPUT-LIGAND-PDBQT: ATOM     37  O   UNL d   1       1.386   4.117   0.811  0.00  0.00    -0.228 OA
INPUT-LIGAND-PDBQT: BRANCH  36  38
INPUT-LIGAND-PDBQT: ATOM     38  O   UNL d   1       0.411   4.698  -1.522  0.00  0.00    -0.303 OA
INPUT-LIGAND-PDBQT: ATOM     39  H   UNL d   1       1.257   4.425  -1.938  0.00  0.00     0.222 HD
INPUT-LIGAND-PDBQT: ENDBRANCH  36  38
INPUT-LIGAND-PDBQT: BRANCH  36  40
INPUT-LIGAND-PDBQT: ATOM     40  O   UNL d   1      -1.196   4.382   0.376  0.00  0.00    -0.303 OA
INPUT-LIGAND-PDBQT: ATOM     41  H   UNL d   1      -1.909   4.073  -0.226  0.00  0.00     0.222 HD
INPUT-LIGAND-PDBQT: ENDBRANCH  36  40
INPUT-LIGAND-PDBQT: ENDBRANCH  35  36
INPUT-LIGAND-PDBQT: ENDBRANCH   5  35
INPUT-LIGAND-PDBQT: BRANCH   4  42
INPUT-LIGAND-PDBQT: ATOM     42  O   UNL d   1      -2.334   1.271   0.715  0.00  0.00    -0.278 OA
INPUT-LIGAND-PDBQT: BRANCH  42  43
INPUT-LIGAND-PDBQT: ATOM     43  P   UNL d   1      -3.625   1.654  -0.140  0.00  0.00     0.473 P 
INPUT-LIGAND-PDBQT: ATOM     44  O   UNL d   1      -4.208   0.598  -1.014  0.00  0.00    -0.228 OA
INPUT-LIGAND-PDBQT: BRANCH  43  45
INPUT-LIGAND-PDBQT: ATOM     45  O   UNL d   1      -4.625   2.208   0.967  0.00  0.00    -0.303 OA
INPUT-LIGAND-PDBQT: ATOM     46  H   UNL d   1      -4.983   1.485   1.520  0.00  0.00     0.222 HD
INPUT-LIGAND-PDBQT: ENDBRANCH  43  45
INPUT-LIGAND-PDBQT: BRANCH  43  47
INPUT-LIGAND-PDBQT: ATOM     47  O   UNL d   1      -3.184   3.003  -0.885  0.00  0.00    -0.303 OA
INPUT-LIGAND-PDBQT: ATOM     48  H   UNL d   1      -3.918   3.311  -1.456  0.00  0.00     0.222 HD
INPUT-LIGAND-PDBQT: ENDBRANCH  43  47
INPUT-LIGAND-PDBQT: ENDBRANCH  42  43
INPUT-LIGAND-PDBQT: ENDBRANCH   4  42
INPUT-LIGAND-PDBQT: TORSDOF 24
________________________________________________________________________________

Total charge on ligand                               =	-0.006 e
REMARK  24 active torsions:
REMARK  status: ('A' for Active; 'I' for Inactive)
REMARK    1  A    between atoms: C_1  and  O_7 
REMARK    2  A    between atoms: C_2  and  O_12 
REMARK    3  A    between atoms: C_3  and  O_17 
REMARK    4  A    between atoms: C_4  and  O_22 
REMARK    5  A    between atoms: C_5  and  O_27 
REMARK    6  A    between atoms: C_6  and  O_32 
REMARK    7  A    between atoms: O_7  and  P_8 
REMARK    8  A    between atoms: P_8  and  O_10 
REMARK    9  A    between atoms: P_8  and  O_11 
REMARK   10  A    between atoms: O_12  and  P_13 
REMARK   11  A    between atoms: P_13  and  O_15 
REMARK   12  A    between atoms: P_13  and  O_16 
REMARK   13  A    between atoms: O_17  and  P_18 
REMARK   14  A    between atoms: P_18  and  O_20 
REMARK   15  A    between atoms: P_18  and  O_21 
REMARK   16  A    between atoms: O_22  and  P_23 
REMARK   17  A    between atoms: P_23  and  O_25 
REMARK   18  A    between atoms: P_23  and  O_26 
REMARK   19  A    between atoms: O_27  and  P_28 
REMARK   20  A    between atoms: P_28  and  O_30 
REMARK   21  A    between atoms: P_28  and  O_31 
REMARK   22  A    between atoms: O_32  and  P_33 
REMARK   23  A    between atoms: P_33  and  O_35 
REMARK   24  A    between atoms: P_33  and  O_36 


Number of Rotatable Bonds in Small Molecule =	24 torsions
Number of atoms in ligand:  48

Number of non-hydrogen atoms in ligand:  36

Number of vibrational degrees of freedom of ligand:  138


Number of torsional degrees of freedom = 24
Estimated loss of torsional free energy upon binding = +7.1592 kcal/mol


DPF> about 0.035 0.082 -0.065            # small molecule center

Small molecule center of rotation =	(+0.035, +0.082, -0.065)

DPF> tran0 random                         # initial coordinates/A or random

Initial translation =			(-4.427, -15.511, -23.387) Angstroms
DPF> quaternion0 random                   # initial orientation

Each run will begin with a new, random initial orientation.
Initial quaternion,  (x,y,z,w) =	( 0.429, -0.638, 0.426, 0.477 ),
DPF> dihe0 random                         # initial dihedrals (relative) or random

DPF> torsdof 24                            # torsional degrees of freedom

Number of torsional degrees of freedom = 24
Free energy coefficient for torsional degrees of freedom = 0.2983, the factory default value.

Estimated loss of torsional free energy upon binding = +7.1592 kcal/mol

DPF> rmstol 2.0                           # cluster_tolerance/A

Maximum RMS tolerance for conformational cluster analysis = 2.00 Angstroms
DPF> extnrg 1000.0                        # external grid energy

External grid energy (beyond grid map walls) = 1000.00

DPF> e0max 0.0 10000                      # max initial energy; max number of retries

Using user-specified maximum number of retries for simanneal initialization, 10000 retries.
If the simanneal initial energy is greater than e0max, 0.000,
then a new, random initial state will be created.

DPF> ga_pop_size 150                      # number of individuals in population

A population of 150 individuals will be used
DPF> ga_num_evals 25000000                # maximum number of energy evaluations

There will be at most 25000000 function evaluations used.
DPF> ga_num_generations 27000             # maximum number of generations

The GA will run for at most 27000 generations.
DPF> ga_elitism 1                         # number of top individuals to survive to next generation

The 1 best will be preserved each GA generation.
DPF> ga_mutation_rate 0.02                # rate of gene mutation

The mutation rate is 0.020000.
DPF> ga_crossover_rate 0.8                # rate of crossover

The crossover rate is 0.800000.
DPF> ga_window_size 10                    # 

The GA's selection window is 10 generations.
DPF> ga_cauchy_alpha 0.0                  # Alpha parameter of Cauchy distribution

The alpha parameter (for the Cauchy distribution) is being set to 0.000000.
DPF> ga_cauchy_beta 1.0                   # Beta parameter Cauchy distribution

The beta parameter (for the Cauchy distribution) is being set to 1.000000.
DPF> set_ga                               # set the above parameters for GA or LGA

DPF> sw_max_its 300                       # iterations of Solis & Wets local search

Solis & Wets algorithms will perform at most 300 iterations.
DPF> sw_max_succ 4                        # consecutive successes before changing rho

Solis & Wets algorithms expand rho every 4 in a row successes.
DPF> sw_max_fail 4                        # consecutive failures before changing rho

Solis & Wets algorithms contract rho every 4 in a row failures.
DPF> sw_rho 1.0                           # size of local search space to sample

rho is set to 1.000000.
DPF> sw_lb_rho 0.01                       # lower bound on rho

rho will never get smaller than 0.010000.
DPF> ls_search_freq 0.06                  # probability of performing local search on individual

Local search will be performed with frequency 0.060000.
DPF> set_psw1                             # set the above pseudo-Solis & Wets parameters

Creating a new Local Search object using the pseudo-Solis-Wets algorithm (pSW1) with the current settings.

DPF> unbound_model bound                  # state of unbound ligand

DPF> ga_run 100                           # do this many hybrid GA-LS runs

centering ligand on specified point: 0.035 0.082 -0.065
Furthest true ligand atom from "about" center is 6.234 Angstroms (maxrad).
Number of requested GA dockings = 100 runs
Unbound model to be used is 'same as bound' [AutoDock 4.2 default].

	BEGINNING GENETIC ALGORITHM DOCKING 1 of 100
Run: 1 Seed: 636627167 1221530111 [ Run 1 of 100 GA/GALS ]
Beginning LAMARCKIAN GENETIC ALGORITHM (LGA), with a maximum of 25000000 energy evaluations.

Final-Value: -15.855


	FINAL GENETIC ALGORITHM DOCKED STATE
	_______________________________________________


Detailed state:  trans -1.571 -12.201 14.622 quatxyzw -0.864363 0.437434 0.183216 -0.167213 center 0.035 0.082 -0.065 ntor 24 -165.9473 -15.9812 61.8040 84.6402 46.3433 -153.5443 147.7094 -82.3374 9.7973 117.0203 2.6626 -99.3139 17.4662 108.6386 9.0231 -153.9755 -30.5904 -49.3907 -136.6600 -14.8160 175.9540 4.3532 -14.9651 -169.6556
State:	 -1.571 -12.201  14.622  -0.877  0.444  0.186 -160.748   -165.95  -15.98   61.80   84.64   46.34 -153.54  147.71  -82.34    9.80  117.02    2.66  -99.31   17.47  108.64    9.02 -153.98  -30.59  -49.39 -136.66  -14.82  175.95    4.35  -14.97 -169.66

DOCKED: MODEL        1
DOCKED: USER    Run = 1
DOCKED: USER    DPF = D:/Protein_go_brrr/autodock/final/AncA/IHP/dock.dpf
DOCKED: USER  
DOCKED: USER    Estimated Free Energy of Binding    =   +3.02 kcal/mol  [=(1)+(2)+(3)-(4)]
DOCKED: USER    
DOCKED: USER    (1) Final Intermolecular Energy     =   -4.14 kcal/mol
DOCKED: USER        vdW + Hbond + desolv Energy     =   -3.09 kcal/mol
DOCKED: USER        Electrostatic Energy            =   -1.06 kcal/mol
DOCKED: USER    (2) Final Total Internal Energy     =  -11.71 kcal/mol
DOCKED: USER    (3) Torsional Free Energy           =   +7.16 kcal/mol
DOCKED: USER    (4) Unbound System's Energy  [=(2)] =  -11.71 kcal/mol
DOCKED: USER    
DOCKED: USER    
DOCKED: USER    NEWDPF move IHP_ideal_opt.pdbqt
DOCKED: USER    NEWDPF about 0.035000 0.082000 -0.065000
DOCKED: USER    NEWDPF tran0 -1.570976 -12.200566 14.622276
DOCKED: USER    NEWDPF quaternion0 -0.864363 0.437434 0.183216 -0.167213
DOCKED: USER    NEWDPF axisangle0 -0.876706 0.443681 0.185832 -160.748406
DOCKED: USER    NEWDPF quat0 -0.876706 0.443681 0.185832 -160.748406
DOCKED: USER    NEWDPF dihe0 -165.95 -15.98 61.80 84.64 46.34 -153.54 147.71 -82.34 9.80 117.02 2.66 -99.31 17.47 108.64 9.02 -153.98 -30.59 -49.39 -136.66 -14.82 175.95 4.35 -14.97 -169.66 
DOCKED: USER  keepresnum = 1 
DOCKED: USER  
DOCKED: REMARK  24 active torsions:
DOCKED: REMARK  status: ('A' for Active; 'I' for Inactive)
DOCKED: REMARK    1  A    between atoms: C_1  and  O_7 
DOCKED: REMARK    2  A    between atoms: C_2  and  O_12 
DOCKED: REMARK    3  A    between atoms: C_3  and  O_17 
DOCKED: REMARK    4  A    between atoms: C_4  and  O_22 
DOCKED: REMARK    5  A    between atoms: C_5  and  O_27 
DOCKED: REMARK    6  A    between atoms: C_6  and  O_32 
DOCKED: REMARK    7  A    between atoms: O_7  and  P_8 
DOCKED: REMARK    8  A    between atoms: P_8  and  O_10 
DOCKED: REMARK    9  A    between atoms: P_8  and  O_11 
DOCKED: REMARK   10  A    between atoms: O_12  and  P_13 
DOCKED: REMARK   11  A    between atoms: P_13  and  O_15 
DOCKED: REMARK   12  A    between atoms: P_13  and  O_16 
DOCKED: REMARK   13  A    between atoms: O_17  and  P_18 
DOCKED: REMARK   14  A    between atoms: P_18  and  O_20 
DOCKED: REMARK   15  A    between atoms: P_18  and  O_21 
DOCKED: REMARK   16  A    between atoms: O_22  and  P_23 
DOCKED: REMARK   17  A    between atoms: P_23  and  O_25 
DOCKED: REMARK   18  A    between atoms: P_23  and  O_26 
DOCKED: REMARK   19  A    between atoms: O_27  and  P_28 
DOCKED: REMARK   20  A    between atoms: P_28  and  O_30 
DOCKED: REMARK   21  A    between atoms: P_28  and  O_31 
DOCKED: REMARK   22  A    between atoms: O_32  and  P_33 
DOCKED: REMARK   23  A    between atoms: P_33  and  O_35 
DOCKED: REMARK   24  A    between atoms: P_33  and  O_36 
DOCKED: USER                              x       y       z     vdW  Elec       q    Type
DOCKED: USER                           _______ _______ _______ _____ _____    ______ ____
DOCKED: ROOT
DOCKED: ATOM      1  C   UNL d   1      -0.291 -12.217  13.463 -0.10 +0.02    +0.194 C 
DOCKED: ATOM      2  C   UNL d   1      -0.257 -11.065  14.468 -0.08 -0.05    +0.194 C 
DOCKED: ATOM      3  C   UNL d   1      -1.647 -10.463  14.686 -0.06 -0.13    +0.194 C 
DOCKED: ATOM      4  C   UNL d   1      -2.705 -11.505  15.038 -0.05 -0.05    +0.194 C 
DOCKED: ATOM      5  C   UNL d   1      -2.698 -12.728  14.130 -0.04 -0.02    +0.194 C 
DOCKED: ATOM      6  C   UNL d   1      -1.302 -13.293  13.862 -0.03 +0.02    +0.194 C 
DOCKED: ENDROOT
DOCKED: BRANCH   1   7
DOCKED: ATOM      7  O   UNL d   1       1.000 -12.832  13.446 -0.05 -0.17    -0.278 OA
DOCKED: BRANCH   7   8
DOCKED: ATOM      8  P   UNL d   1       1.204 -14.192  14.258 +0.00 +0.16    +0.473 P 
DOCKED: ATOM      9  O   UNL d   1       0.497 -15.375  13.696 -0.00 -0.07    -0.228 OA
DOCKED: BRANCH   8  10
DOCKED: ATOM     10  O   UNL d   1       2.788 -14.375  14.314 +0.00 -0.10    -0.303 OA
DOCKED: ATOM     11  H   UNL d   1       3.215 -13.503  14.408 +0.01 +0.08    +0.222 HD
DOCKED: ENDBRANCH   8  10
DOCKED: BRANCH   8  12
DOCKED: ATOM     12  O   UNL d   1       0.858 -13.829  15.765 +0.01 -0.04    -0.303 OA
DOCKED: ATOM     13  H   UNL d   1       1.450 -13.138  16.141 +0.01 +0.03    +0.222 HD
DOCKED: ENDBRANCH   8  12
DOCKED: ENDBRANCH   7   8
DOCKED: ENDBRANCH   1   7
DOCKED: BRANCH   2  14
DOCKED: ATOM     14  O   UNL d   1       0.231 -11.554  15.723 -0.00 +0.01    -0.278 OA
DOCKED: BRANCH  14  15
DOCKED: ATOM     15  P   UNL d   1       1.610 -10.931  16.247 +0.02 +0.00    +0.473 P 
DOCKED: ATOM     16  O   UNL d   1       1.941 -11.148  17.690 +0.00 -0.00    -0.228 OA
DOCKED: BRANCH  15  17
DOCKED: ATOM     17  O   UNL d   1       2.707 -11.540  15.265 +0.00 -0.05    -0.303 OA
DOCKED: ATOM     18  H   UNL d   1       2.469 -12.446  14.990 +0.01 +0.05    +0.222 HD
DOCKED: ENDBRANCH  15  17
DOCKED: BRANCH  15  19
DOCKED: ATOM     19  O   UNL d   1       1.565  -9.413  15.773 -0.00 +0.05    -0.303 OA
DOCKED: ATOM     20  H   UNL d   1       0.650  -9.100  15.655 +0.04 -0.08    +0.222 HD
DOCKED: ENDBRANCH  15  19
DOCKED: ENDBRANCH  14  15
DOCKED: ENDBRANCH   2  14
DOCKED: BRANCH   6  21
DOCKED: ATOM     21  O   UNL d   1      -1.423 -14.184  12.756 -0.02 -0.07    -0.278 OA
DOCKED: BRANCH  21  22
DOCKED: ATOM     22  P   UNL d   1      -1.628 -13.599  11.286 -0.08 +0.17    +0.473 P 
DOCKED: ATOM     23  O   UNL d   1      -0.870 -12.373  10.904 -0.29 -0.15    -0.228 OA
DOCKED: BRANCH  22  24
DOCKED: ATOM     24  O   UNL d   1      -1.331 -14.876  10.383 -0.06 -0.15    -0.303 OA
DOCKED: ATOM     25  H   UNL d   1      -0.814 -15.524  10.927 +0.02 +0.11    +0.222 HD
DOCKED: ENDBRANCH  22  24
DOCKED: BRANCH  22  26
DOCKED: ATOM     26  O   UNL d   1      -3.225 -13.495  11.197 -0.06 -0.03    -0.303 OA
DOCKED: ATOM     27  H   UNL d   1      -3.585 -13.295  12.085 +0.06 -0.00    +0.222 HD
DOCKED: ENDBRANCH  22  26
DOCKED: ENDBRANCH  21  22
DOCKED: ENDBRANCH   6  21
DOCKED: BRANCH   3  28
DOCKED: ATOM     28  O   UNL d   1      -1.569  -9.606  15.818 -0.06 +0.11    -0.278 OA
DOCKED: BRANCH  28  29
DOCKED: ATOM     29  P   UNL d   1      -1.792  -8.037  15.656 -0.11 -0.27    +0.473 P 
DOCKED: ATOM     30  O   UNL d   1      -1.686  -7.243  16.907 -0.09 +0.05    -0.228 OA
DOCKED: BRANCH  29  31
DOCKED: ATOM     31  O   UNL d   1      -0.727  -7.722  14.503 -0.17 +0.45    -0.303 OA
DOCKED: ATOM     32  H   UNL d   1      -0.531  -6.757  14.513 -0.49 -0.56    +0.222 HD
DOCKED: ENDBRANCH  29  31
DOCKED: BRANCH  29  33
DOCKED: ATOM     33  O   UNL d   1      -3.180  -7.975  14.880 -0.18 +0.12    -0.303 OA
DOCKED: ATOM     34  H   UNL d   1      -3.319  -8.828  14.400 -0.49 -0.29    +0.222 HD
DOCKED: ENDBRANCH  29  33
DOCKED: ENDBRANCH  28  29
DOCKED: ENDBRANCH   3  28
DOCKED: BRANCH   5  35
DOCKED: ATOM     35  O   UNL d   1      -3.431 -13.733  14.828 -0.00 -0.01    -0.278 OA
DOCKED: BRANCH  35  36
DOCKED: ATOM     36  P   UNL d   1      -4.805 -14.285  14.235 +0.01 +0.03    +0.473 P 
DOCKED: ATOM     37  O   UNL d   1      -5.079 -13.933  12.807 -0.04 -0.02    -0.228 OA
DOCKED: BRANCH  36  38
DOCKED: ATOM     38  O   UNL d   1      -4.672 -15.849  14.509 -0.00 -0.03    -0.303 OA
DOCKED: ATOM     39  H   UNL d   1      -3.884 -16.192  14.037 +0.00 +0.03    +0.222 HD
DOCKED: ENDBRANCH  36  38
DOCKED: BRANCH  36  40
DOCKED: ATOM     40  O   UNL d   1      -5.863 -13.795  15.316 -0.01 -0.02    -0.303 OA
DOCKED: ATOM     41  H   UNL d   1      -6.046 -12.832  15.236 +0.04 +0.02    +0.222 HD
DOCKED: ENDBRANCH  36  40
DOCKED: ENDBRANCH  35  36
DOCKED: ENDBRANCH   5  35
DOCKED: BRANCH   4  42
DOCKED: ATOM     42  O   UNL d   1      -3.979 -10.871  14.882 -0.07 +0.07    -0.278 OA
DOCKED: BRANCH  42  43
DOCKED: ATOM     43  P   UNL d   1      -4.587 -10.712  13.416 -0.12 -0.22    +0.473 P 
DOCKED: ATOM     44  O   UNL d   1      -3.746 -11.163  12.271 -0.22 +0.18    -0.228 OA
DOCKED: BRANCH  43  45
DOCKED: ATOM     45  O   UNL d   1      -5.984 -11.464  13.533 -0.15 +0.00    -0.303 OA
DOCKED: ATOM     46  H   UNL d   1      -5.864 -12.431  13.617 +0.07 +0.01    +0.222 HD
DOCKED: ENDBRANCH  43  45
DOCKED: BRANCH  43  47
DOCKED: ATOM     47  O   UNL d   1      -5.046  -9.177  13.374 +0.03 +0.13    -0.303 OA
DOCKED: ATOM     48  H   UNL d   1      -4.264  -8.610  13.208 -0.31 -0.36    +0.222 HD
DOCKED: ENDBRANCH  43  47
DOCKED: ENDBRANCH  42  43
DOCKED: ENDBRANCH   4  42
DOCKED: TORSDOF 24
DOCKED: TER
DOCKED: ENDMDL
________________________________________________________________________________


	BEGINNING GENETIC ALGORITHM DOCKING 2 of 100
Run: 2 Seed: 908110027 484912748 [ Run 2 of 100 GA/GALS ]
Beginning LAMARCKIAN GENETIC ALGORITHM (LGA), with a maximum of 25000000 energy evaluations.

Final-Value: -17.621


	FINAL GENETIC ALGORITHM DOCKED STATE
	_______________________________________________


Detailed state:  trans -17.652 1.880 -8.989 quatxyzw 0.989232 0.070130 -0.120425 -0.044719 center 0.035 0.082 -0.065 ntor 24 -8.4160 34.6564 68.4926 6.1166 10.9102 -125.0634 -76.6285 -4.1401 78.7399 92.9480 -2.6666 160.0512 21.2043 -96.4251 -38.8864 -11.6701 106.5366 160.1284 4.1217 -6.2352 -15.5614 2.9857 -2.5626 -19.1113
State:	-17.652   1.880  -8.989   0.990  0.070 -0.121 -174.874     -8.42   34.66   68.49    6.12   10.91 -125.06  -76.63   -4.14   78.74   92.95   -2.67  160.05   21.20  -96.43  -38.89  -11.67  106.54  160.13    4.12   -6.24  -15.56    2.99   -2.56  -19.11

DOCKED: MODEL        2
DOCKED: USER    Run = 2
DOCKED: USER    DPF = D:/Protein_go_brrr/autodock/final/AncA/IHP/dock.dpf
DOCKED: USER  
DOCKED: USER    Estimated Free Energy of Binding    =   +2.99 kcal/mol  [=(1)+(2)+(3)-(4)]
DOCKED: USER    
DOCKED: USER    (1) Final Intermolecular Energy     =   -4.17 kcal/mol
DOCKED: USER        vdW + Hbond + desolv Energy     =   -4.16 kcal/mol
DOCKED: USER        Electrostatic Energy            =   -0.01 kcal/mol
DOCKED: USER    (2) Final Total Internal Energy     =  -13.45 kcal/mol
DOCKED: USER    (3) Torsional Free Energy           =   +7.16 kcal/mol
DOCKED: USER    (4) Unbound System's Energy  [=(2)] =  -13.45 kcal/mol
DOCKED: USER    
DOCKED: USER    
DOCKED: USER    NEWDPF move IHP_ideal_opt.pdbqt
DOCKED: USER    NEWDPF about 0.035000 0.082000 -0.065000
DOCKED: USER    NEWDPF tran0 -17.652097 1.880306 -8.989026
DOCKED: USER    NEWDPF quaternion0 0.989232 0.070130 -0.120425 -0.044719
DOCKED: USER    NEWDPF axisangle0 0.990223 0.070200 -0.120546 -174.873835
DOCKED: USER    NEWDPF quat0 0.990223 0.070200 -0.120546 -174.873835
DOCKED: USER    NEWDPF dihe0 -8.42 34.66 68.49 6.12 10.91 -125.06 -76.63 -4.14 78.74 92.95 -2.67 160.05 21.20 -96.43 -38.89 -11.67 106.54 160.13 4.12 -6.24 -15.56 2.99 -2.56 -19.11 
DOCKED: USER  keepresnum = 1 
DOCKED: USER  
DOCKED: REMARK  24 active torsions:
DOCKED: REMARK  status: ('A' for Active; 'I' for Inactive)
DOCKED: REMARK    1  A    between atoms: C_1  and  O_7 
DOCKED: REMARK    2  A    between atoms: C_2  and  O_12 
DOCKED: REMARK    3  A    between atoms: C_3  and  O_17 
DOCKED: REMARK    4  A    between atoms: C_4  and  O_22 
DOCKED: REMARK    5  A    between atoms: C_5  and  O_27 
DOCKED: REMARK    6  A    between atoms: C_6  and  O_32 
DOCKED: REMARK    7  A    between atoms: O_7  and  P_8 
DOCKED: REMARK    8  A    between atoms: P_8  and  O_10 
DOCKED: REMARK    9  A    between atoms: P_8  and  O_11 
DOCKED: REMARK   10  A    between atoms: O_12  and  P_13 
DOCKED: REMARK   11  A    between atoms: P_13  and  O_15 
DOCKED: REMARK   12  A    between atoms: P_13  and  O_16 
DOCKED: REMARK   13  A    between atoms: O_17  and  P_18 
DOCKED: REMARK   14  A    between atoms: P_18  and  O_20 
DOCKED: REMARK   15  A    between atoms: P_18  and  O_21 
DOCKED: REMARK   16  A    between atoms: O_22  and  P_23 
DOCKED: REMARK   17  A    between atoms: P_23  and  O_25 
DOCKED: REMARK   18  A    between atoms: P_23  and  O_26 
DOCKED: REMARK   19  A    between atoms: O_27  and  P_28 
DOCKED: REMARK   20  A    between atoms: P_28  and  O_30 
DOCKED: REMARK   21  A    between atoms: P_28  and  O_31 
DOCKED: REMARK   22  A    between atoms: O_32  and  P_33 
DOCKED: REMARK   23  A    between atoms: P_33  and  O_35 
DOCKED: REMARK   24  A    between atoms: P_33  and  O_36 
DOCKED: USER                              x       y       z     vdW  Elec       q    Type
DOCKED: USER                           _______ _______ _______ _____ _____    ______ ____
DOCKED: ROOT
DOCKED: ATOM      1  C   UNL d   1     -16.764   2.833 -10.124 -0.07 +0.01    +0.194 C 
DOCKED: ATOM      2  C   UNL d   1     -17.998   3.505  -9.519 -0.08 +0.02    +0.194 C 
DOCKED: ATOM      3  C   UNL d   1     -19.190   2.548  -9.456 -0.06 +0.02    +0.194 C 
DOCKED: ATOM      4  C   UNL d   1     -18.862   1.223  -8.773 -0.05 +0.03    +0.194 C 
DOCKED: ATOM      5  C   UNL d   1     -17.575   0.573  -9.265 -0.10 +0.02    +0.194 C 
DOCKED: ATOM      6  C   UNL d   1     -16.399   1.544  -9.387 -0.02 +0.02    +0.194 C 
DOCKED: ENDROOT
DOCKED: BRANCH   1   7
DOCKED: ATOM      7  O   UNL d   1     -15.658   3.728  -9.989 -0.09 -0.01    -0.278 OA
DOCKED: BRANCH   7   8
DOCKED: ATOM      8  P   UNL d   1     -14.940   4.254 -11.317 -0.04 -0.02    +0.473 P 
DOCKED: ATOM      9  O   UNL d   1     -15.718   5.251 -12.101 -0.02 +0.00    -0.228 OA
DOCKED: BRANCH   8  10
DOCKED: ATOM     10  O   UNL d   1     -13.538   4.813 -10.803 -0.12 +0.02    -0.303 OA
DOCKED: ATOM     11  H   UNL d   1     -13.123   5.349 -11.504 +0.04 -0.02    +0.222 HD
DOCKED: ENDBRANCH   8  10
DOCKED: BRANCH   8  12
DOCKED: ATOM     12  O   UNL d   1     -14.508   2.940 -12.099 -0.06 +0.05    -0.303 OA
DOCKED: ATOM     13  H   UNL d   1     -14.606   2.122 -11.563 +0.08 -0.04    +0.222 HD
DOCKED: ENDBRANCH   8  12
DOCKED: ENDBRANCH   7   8
DOCKED: ENDBRANCH   1   7
DOCKED: BRANCH   2  14
DOCKED: ATOM     14  O   UNL d   1     -17.689   3.939  -8.189 -0.14 -0.04    -0.278 OA
DOCKED: BRANCH  14  15
DOCKED: ATOM     15  P   UNL d   1     -17.947   5.485  -7.862 -0.08 +0.02    +0.473 P 
DOCKED: ATOM     16  O   UNL d   1     -17.563   6.469  -8.922 -0.03 -0.01    -0.228 OA
DOCKED: BRANCH  15  17
DOCKED: ATOM     17  O   UNL d   1     -19.495   5.549  -7.491 -0.04 -0.02    -0.303 OA
DOCKED: ATOM     18  H   UNL d   1     -19.993   4.835  -7.934 +0.03 +0.02    +0.222 HD
DOCKED: ENDBRANCH  15  17
DOCKED: BRANCH  15  19
DOCKED: ATOM     19  O   UNL d   1     -17.269   5.708  -6.440 -0.12 +0.02    -0.303 OA
DOCKED: ATOM     20  H   UNL d   1     -17.595   5.068  -5.781 -0.13 -0.04    +0.222 HD
DOCKED: ENDBRANCH  15  19
DOCKED: ENDBRANCH  14  15
DOCKED: ENDBRANCH   2  14
DOCKED: BRANCH   6  21
DOCKED: ATOM     21  O   UNL d   1     -15.401   0.886 -10.165 -0.10 +0.00    -0.278 OA
DOCKED: BRANCH  21  22
DOCKED: ATOM     22  P   UNL d   1     -13.974   0.576  -9.524 -0.19 -0.01    +0.473 P 
DOCKED: ATOM     23  O   UNL d   1     -13.659   1.162  -8.189 -0.43 -0.00    -0.228 OA
DOCKED: BRANCH  22  24
DOCKED: ATOM     24  O   UNL d   1     -13.929  -1.014  -9.582 -1.12 -0.08    -0.303 OA
DOCKED: ATOM     25  H   UNL d   1     -14.731  -1.362  -9.117 +0.13 +0.04    +0.222 HD
DOCKED: ENDBRANCH  22  24
DOCKED: BRANCH  22  26
DOCKED: ATOM     26  O   UNL d   1     -12.985   0.980 -10.719 -0.37 +0.10    -0.303 OA
DOCKED: ATOM     27  H   UNL d   1     -13.104   1.928 -10.929 +0.10 -0.05    +0.222 HD
DOCKED: ENDBRANCH  22  26
DOCKED: ENDBRANCH  21  22
DOCKED: ENDBRANCH   6  21
DOCKED: BRANCH   3  28
DOCKED: ATOM     28  O   UNL d   1     -20.185   3.156  -8.641 -0.04 -0.03    -0.278 OA
DOCKED: BRANCH  28  29
DOCKED: ATOM     29  P   UNL d   1     -21.572   3.616  -9.274 -0.00 +0.03    +0.473 P 
DOCKED: ATOM     30  O   UNL d   1     -21.494   4.190 -10.642 -0.00 -0.01    -0.228 OA
DOCKED: BRANCH  29  31
DOCKED: ATOM     31  O   UNL d   1     -22.418   2.269  -9.100 -0.00 -0.02    -0.303 OA
DOCKED: ATOM     32  H   UNL d   1     -21.794   1.508  -9.063 +0.02 +0.02    +0.222 HD
DOCKED: ENDBRANCH  29  31
DOCKED: BRANCH  29  33
DOCKED: ATOM     33  O   UNL d   1     -22.166   4.554  -8.132 -0.00 -0.02    -0.303 OA
DOCKED: ATOM     34  H   UNL d   1     -21.505   5.257  -7.919 +0.01 +0.01    +0.222 HD
DOCKED: ENDBRANCH  29  33
DOCKED: ENDBRANCH  28  29
DOCKED: ENDBRANCH   3  28
DOCKED: BRANCH   5  35
DOCKED: ATOM     35  O   UNL d   1     -17.224  -0.390  -8.274 -0.15 -0.04    -0.278 OA
DOCKED: BRANCH  35  36
DOCKED: ATOM     36  P   UNL d   1     -16.920  -1.900  -8.690 -0.20 +0.01    +0.473 P 
DOCKED: ATOM     37  O   UNL d   1     -15.958  -2.631  -7.808 -0.37 +0.01    -0.228 OA
DOCKED: BRANCH  36  38
DOCKED: ATOM     38  O   UNL d   1     -18.383  -2.528  -8.725 -0.12 -0.01    -0.303 OA
DOCKED: ATOM     39  H   UNL d   1     -19.044  -1.810  -8.627 +0.07 +0.02    +0.222 HD
DOCKED: ENDBRANCH  36  38
DOCKED: BRANCH  36  40
DOCKED: ATOM     40  O   UNL d   1     -16.528  -1.757 -10.224 -0.08 +0.01    -0.303 OA
DOCKED: ATOM     41  H   UNL d   1     -15.835  -1.073 -10.361 +0.09 -0.01    +0.222 HD
DOCKED: ENDBRANCH  36  40
DOCKED: ENDBRANCH  35  36
DOCKED: ENDBRANCH   5  35
DOCKED: BRANCH   4  42
DOCKED: ATOM     42  O   UNL d   1     -19.932   0.322  -9.079 -0.04 -0.03    -0.278 OA
DOCKED: BRANCH  42  43
DOCKED: ATOM     43  P   UNL d   1     -20.622  -0.487  -7.891 -0.06 +0.06    +0.473 P 
DOCKED: ATOM     44  O   UNL d   1     -21.271  -1.785  -8.230 -0.05 -0.02    -0.228 OA
DOCKED: BRANCH  43  45
DOCKED: ATOM     45  O   UNL d   1     -19.450  -0.606  -6.822 -0.18 -0.06    -0.303 OA
DOCKED: ATOM     46  H   UNL d   1     -18.791  -1.279  -7.086 +0.05 +0.03    +0.222 HD
DOCKED: ENDBRANCH  43  45
DOCKED: BRANCH  43  47
DOCKED: ATOM     47  O   UNL d   1     -21.576   0.605  -7.208 -0.04 -0.04    -0.303 OA
DOCKED: ATOM     48  H   UNL d   1     -21.259   1.502  -7.442 +0.04 +0.03    +0.222 HD
DOCKED: ENDBRANCH  43  47
DOCKED: ENDBRANCH  42  43
DOCKED: ENDBRANCH   4  42
DOCKED: TORSDOF 24
DOCKED: TER
DOCKED: ENDMDL
________________________________________________________________________________


	BEGINNING GENETIC ALGORITHM DOCKING 3 of 100
Run: 3 Seed: 175712052 871524809 [ Run 3 of 100 GA/GALS ]
Beginning LAMARCKIAN GENETIC ALGORITHM (LGA), with a maximum of 25000000 energy evaluations.

Final-Value: -19.423


	FINAL GENETIC ALGORITHM DOCKED STATE
	_______________________________________________


Detailed state:  trans 7.254 11.897 -11.795 quatxyzw -0.345827 -0.288286 0.140098 0.881854 center 0.035 0.082 -0.065 ntor 24 -151.1342 12.3673 124.6918 -53.3482 112.0971 130.9648 -153.5544 125.7364 20.2244 68.7201 106.3287 121.5433 45.4377 84.1109 69.3933 38.8504 144.5228 -144.1453 -3.2063 -54.8885 -27.5893 20.1782 -13.2206 0.0159
State:	  7.254  11.897 -11.795  -0.733 -0.611  0.297 56.266   -151.13   12.37  124.69  -53.35  112.10  130.96 -153.55  125.74   20.22   68.72  106.33  121.54   45.44   84.11   69.39   38.85  144.52 -144.15   -3.21  -54.89  -27.59   20.18  -13.22    0.02

DOCKED: MODEL        3
DOCKED: USER    Run = 3
DOCKED: USER    DPF = D:/Protein_go_brrr/autodock/final/AncA/IHP/dock.dpf
DOCKED: USER  
DOCKED: USER    Estimated Free Energy of Binding    =   +2.97 kcal/mol  [=(1)+(2)+(3)-(4)]
DOCKED: USER    
DOCKED: USER    (1) Final Intermolecular Energy     =   -4.19 kcal/mol
DOCKED: USER        vdW + Hbond + desolv Energy     =   -3.86 kcal/mol
DOCKED: USER        Electrostatic Energy            =   -0.33 kcal/mol
DOCKED: USER    (2) Final Total Internal Energy     =  -15.24 kcal/mol
DOCKED: USER    (3) Torsional Free Energy           =   +7.16 kcal/mol
DOCKED: USER    (4) Unbound System's Energy  [=(2)] =  -15.24 kcal/mol
DOCKED: USER    
DOCKED: USER    
DOCKED: USER    NEWDPF move IHP_ideal_opt.pdbqt
DOCKED: USER    NEWDPF about 0.035000 0.082000 -0.065000
DOCKED: USER    NEWDPF tran0 7.253685 11.896740 -11.795322
DOCKED: USER    NEWDPF quaternion0 -0.345827 -0.288286 0.140098 0.881854
DOCKED: USER    NEWDPF axisangle0 -0.733428 -0.611395 0.297119 56.266245
DOCKED: USER    NEWDPF quat0 -0.733428 -0.611395 0.297119 56.266245
DOCKED: USER    NEWDPF dihe0 -151.13 12.37 124.69 -53.35 112.10 130.96 -153.55 125.74 20.22 68.72 106.33 121.54 45.44 84.11 69.39 38.85 144.52 -144.15 -3.21 -54.89 -27.59 20.18 -13.22 0.02 
DOCKED: USER  keepresnum = 1 
DOCKED: USER  
DOCKED: REMARK  24 active torsions:
DOCKED: REMARK  status: ('A' for Active; 'I' for Inactive)
DOCKED: REMARK    1  A    between atoms: C_1  and  O_7 
DOCKED: REMARK    2  A    between atoms: C_2  and  O_12 
DOCKED: REMARK    3  A    between atoms: C_3  and  O_17 
DOCKED: REMARK    4  A    between atoms: C_4  and  O_22 
DOCKED: REMARK    5  A    between atoms: C_5  and  O_27 
DOCKED: REMARK    6  A    between atoms: C_6  and  O_32 
DOCKED: REMARK    7  A    between atoms: O_7  and  P_8 
DOCKED: REMARK    8  A    between atoms: P_8  and  O_10 
DOCKED: REMARK    9  A    between atoms: P_8  and  O_11 
DOCKED: REMARK   10  A    between atoms: O_12  and  P_13 
DOCKED: REMARK   11  A    between atoms: P_13  and  O_15 
DOCKED: REMARK   12  A    between atoms: P_13  and  O_16 
DOCKED: REMARK   13  A    between atoms: O_17  and  P_18 
DOCKED: REMARK   14  A    between atoms: P_18  and  O_20 
DOCKED: REMARK   15  A    between atoms: P_18  and  O_21 
DOCKED: REMARK   16  A    between atoms: O_22  and  P_23 
DOCKED: REMARK   17  A    between atoms: P_23  and  O_25 
DOCKED: REMARK   18  A    between atoms: P_23  and  O_26 
DOCKED: REMARK   19  A    between atoms: O_27  and  P_28 
DOCKED: REMARK   20  A    between atoms: P_28  and  O_30 
DOCKED: REMARK   21  A    between atoms: P_28  and  O_31 
DOCKED: REMARK   22  A    between atoms: O_32  and  P_33 
DOCKED: REMARK   23  A    between atoms: P_33  and  O_35 
DOCKED: REMARK   24  A    between atoms: P_33  and  O_36 
DOCKED: USER                              x       y       z     vdW  Elec       q    Type
DOCKED: USER                           _______ _______ _______ _____ _____    ______ ____
DOCKED: ROOT
DOCKED: ATOM      1  C   UNL d   1       8.178  10.650 -12.553 -0.18 +0.07    +0.194 C 
DOCKED: ATOM      2  C   UNL d   1       6.676  10.384 -12.443 -0.11 +0.05    +0.194 C 
DOCKED: ATOM      3  C   UNL d   1       6.130  10.783 -11.070 -0.14 +0.03    +0.194 C 
DOCKED: ATOM      4  C   UNL d   1       6.494  12.210 -10.669 -0.13 +0.04    +0.194 C 
DOCKED: ATOM      5  C   UNL d   1       7.964  12.555 -10.872 +0.15 +0.09    +0.194 C 
DOCKED: ATOM      6  C   UNL d   1       8.527  12.101 -12.220 -0.10 +0.07    +0.194 C 
DOCKED: ENDROOT
DOCKED: BRANCH   1   7
DOCKED: ATOM      7  O   UNL d   1       8.574  10.417 -13.907 -0.09 -0.09    -0.278 OA
DOCKED: BRANCH   7   8
DOCKED: ATOM      8  P   UNL d   1       9.770   9.394 -14.183 -0.15 +0.19    +0.473 P 
DOCKED: ATOM      9  O   UNL d   1       9.349   8.012 -14.539 -0.52 -0.19    -0.228 OA
DOCKED: BRANCH   8  10
DOCKED: ATOM     10  O   UNL d   1      10.629  10.103 -15.326 -0.04 -0.08    -0.303 OA
DOCKED: ATOM     11  H   UNL d   1      10.830  11.020 -15.062 +0.04 +0.05    +0.222 HD
DOCKED: ENDBRANCH   8  10
DOCKED: BRANCH   8  12
DOCKED: ATOM     12  O   UNL d   1      10.725   9.525 -12.920 -0.18 -0.09    -0.303 OA
DOCKED: ATOM     13  H   UNL d   1      10.741  10.433 -12.542 +0.08 +0.09    +0.222 HD
DOCKED: ENDBRANCH   8  12
DOCKED: ENDBRANCH   7   8
DOCKED: ENDBRANCH   1   7
DOCKED: BRANCH   2  14
DOCKED: ATOM     14  O   UNL d   1       5.992  11.146 -13.445 -0.07 -0.05    -0.278 OA
DOCKED: BRANCH  14  15
DOCKED: ATOM     15  P   UNL d   1       6.061  10.584 -14.943 -0.05 +0.11    +0.473 P 
DOCKED: ATOM     16  O   UNL d   1       4.805  10.670 -15.752 -0.03 -0.04    -0.228 OA
DOCKED: BRANCH  15  17
DOCKED: ATOM     17  O   UNL d   1       7.274  11.380 -15.600 -0.02 -0.06    -0.303 OA
DOCKED: ATOM     18  H   UNL d   1       7.937  11.629 -14.928 +0.03 +0.05    +0.222 HD
DOCKED: ENDBRANCH  15  17
DOCKED: BRANCH  15  19
DOCKED: ATOM     19  O   UNL d   1       6.680   9.127 -14.791 -0.13 -0.13    -0.303 OA
DOCKED: ATOM     20  H   UNL d   1       7.567   9.068 -15.192 +0.05 +0.11    +0.222 HD
DOCKED: ENDBRANCH  15  19
DOCKED: ENDBRANCH  14  15
DOCKED: ENDBRANCH   2  14
DOCKED: BRANCH   6  21
DOCKED: ATOM     21  O   UNL d   1       9.947  12.178 -12.122 -0.08 -0.14    -0.278 OA
DOCKED: BRANCH  21  22
DOCKED: ATOM     22  P   UNL d   1      10.780  12.933 -13.254 +0.00 +0.13    +0.473 P 
DOCKED: ATOM     23  O   UNL d   1      11.227  14.331 -12.986 -0.00 -0.05    -0.228 OA
DOCKED: BRANCH  22  24
DOCKED: ATOM     24  O   UNL d   1      11.956  11.899 -13.537 -0.01 -0.07    -0.303 OA
DOCKED: ATOM     25  H   UNL d   1      11.558  10.995 -13.618 +0.06 +0.06    +0.222 HD
DOCKED: ENDBRANCH  22  24
DOCKED: BRANCH  22  26
DOCKED: ATOM     26  O   UNL d   1       9.842  12.728 -14.538 -0.00 -0.06    -0.303 OA
DOCKED: ATOM     27  H   UNL d   1       9.516  11.806 -14.555 +0.03 +0.05    +0.222 HD
DOCKED: ENDBRANCH  22  26
DOCKED: ENDBRANCH  21  22
DOCKED: ENDBRANCH   6  21
DOCKED: BRANCH   3  28
DOCKED: ATOM     28  O   UNL d   1       4.710  10.765 -11.153 -0.14 +0.02    -0.278 OA
DOCKED: BRANCH  28  29
DOCKED: ATOM     29  P   UNL d   1       3.850  10.005 -10.049 -0.17 -0.28    +0.473 P 
DOCKED: ATOM     30  O   UNL d   1       4.589   9.603  -8.825 -0.35 +0.20    -0.228 OA
DOCKED: BRANCH  29  31
DOCKED: ATOM     31  O   UNL d   1       2.650  11.047  -9.863 -0.06 +0.28    -0.303 OA
DOCKED: ATOM     32  H   UNL d   1       2.804  11.559  -9.036 -0.40 -0.33    +0.222 HD
DOCKED: ENDBRANCH  29  31
DOCKED: BRANCH  29  33
DOCKED: ATOM     33  O   UNL d   1       3.174   8.839 -10.897 -0.10 +0.08    -0.303 OA
DOCKED: ATOM     34  H   UNL d   1       2.547   8.342 -10.317 +0.10 -0.10    +0.222 HD
DOCKED: ENDBRANCH  29  33
DOCKED: ENDBRANCH  28  29
DOCKED: ENDBRANCH   3  28
DOCKED: BRANCH   5  35
DOCKED: ATOM     35  O   UNL d   1       8.035  13.979 -10.845 -0.05 -0.08    -0.278 OA
DOCKED: BRANCH  35  36
DOCKED: ATOM     36  P   UNL d   1       8.874  14.722  -9.711 -0.04 +0.17    +0.473 P 
DOCKED: ATOM     37  O   UNL d   1       8.711  16.208  -9.656 -0.01 -0.03    -0.228 OA
DOCKED: BRANCH  36  38
DOCKED: ATOM     38  O   UNL d   1       8.393  13.962  -8.397 -0.11 -0.15    -0.303 OA
DOCKED: ATOM     39  H   UNL d   1       7.412  13.934  -8.384 +0.06 +0.06    +0.222 HD
DOCKED: ENDBRANCH  36  38
DOCKED: BRANCH  36  40
DOCKED: ATOM     40  O   UNL d   1      10.344  14.167  -9.957 -0.15 -0.21    -0.303 OA
DOCKED: ATOM     41  H   UNL d   1      10.482  13.904 -10.894 +0.02 +0.12    +0.222 HD
DOCKED: ENDBRANCH  36  40
DOCKED: ENDBRANCH  35  36
DOCKED: ENDBRANCH   5  35
DOCKED: BRANCH   4  42
DOCKED: ATOM     42  O   UNL d   1       6.223  12.329  -9.268 -0.16 -0.03    -0.278 OA
DOCKED: BRANCH  42  43
DOCKED: ATOM     43  P   UNL d   1       5.016  13.257  -8.793 -0.08 -0.08    +0.473 P 
DOCKED: ATOM     44  O   UNL d   1       5.349  14.634  -8.333 -0.05 +0.01    -0.228 OA
DOCKED: BRANCH  43  45
DOCKED: ATOM     45  O   UNL d   1       4.027  13.208 -10.037 -0.03 +0.06    -0.303 OA
DOCKED: ATOM     46  H   UNL d   1       4.059  12.340 -10.487 +0.05 -0.05    +0.222 HD
DOCKED: ENDBRANCH  43  45
DOCKED: BRANCH  43  47
DOCKED: ATOM     47  O   UNL d   1       4.246  12.339  -7.728 -0.14 +0.25    -0.303 OA
DOCKED: ATOM     48  H   UNL d   1       3.947  11.517  -8.167 -0.47 -0.36    +0.222 HD
DOCKED: ENDBRANCH  43  47
DOCKED: ENDBRANCH  42  43
DOCKED: ENDBRANCH   4  42
DOCKED: TORSDOF 24
DOCKED: TER
DOCKED: ENDMDL
________________________________________________________________________________


	BEGINNING GENETIC ALGORITHM DOCKING 4 of 100
Run: 4 Seed: 879146532 249024973 [ Run 4 of 100 GA/GALS ]
Beginning LAMARCKIAN GENETIC ALGORITHM (LGA), with a maximum of 25000000 energy evaluations.

Final-Value: -18.048


	FINAL GENETIC ALGORITHM DOCKED STATE
	_______________________________________________


Detailed state:  trans 9.041 11.397 14.444 quatxyzw 0.153513 -0.342289 0.303785 -0.875778 center 0.035 0.082 -0.065 ntor 24 151.0903 84.5203 173.0378 123.2139 91.2889 95.8251 -35.4637 -80.8771 -179.8594 -10.9856 153.3390 166.4816 2.5451 89.3309 -96.2115 75.3619 115.1353 -144.5798 -9.6284 -39.2512 154.1125 -40.7884 -42.9890 165.2117
State:	  9.041  11.397  14.444   0.318 -0.709  0.629 -57.726    151.09   84.52  173.04  123.21   91.29   95.83  -35.46  -80.88 -179.86  -10.99  153.34  166.48    2.55   89.33  -96.21   75.36  115.14 -144.58   -9.63  -39.25  154.11  -40.79  -42.99  165.21

DOCKED: MODEL        4
DOCKED: USER    Run = 4
DOCKED: USER    DPF = D:/Protein_go_brrr/autodock/final/AncA/IHP/dock.dpf
DOCKED: USER  
DOCKED: USER    Estimated Free Energy of Binding    =   +2.91 kcal/mol  [=(1)+(2)+(3)-(4)]
DOCKED: USER    
DOCKED: USER    (1) Final Intermolecular Energy     =   -4.25 kcal/mol
DOCKED: USER        vdW + Hbond + desolv Energy     =   -4.08 kcal/mol
DOCKED: USER        Electrostatic Energy            =   -0.16 kcal/mol
DOCKED: USER    (2) Final Total Internal Energy     =  -13.80 kcal/mol
DOCKED: USER    (3) Torsional Free Energy           =   +7.16 kcal/mol
DOCKED: USER    (4) Unbound System's Energy  [=(2)] =  -13.80 kcal/mol
DOCKED: USER    
DOCKED: USER    
DOCKED: USER    NEWDPF move IHP_ideal_opt.pdbqt
DOCKED: USER    NEWDPF about 0.035000 0.082000 -0.065000
DOCKED: USER    NEWDPF tran0 9.041444 11.397380 14.443847
DOCKED: USER    NEWDPF quaternion0 0.153513 -0.342289 0.303785 -0.875778
DOCKED: USER    NEWDPF axisangle0 0.318020 -0.709092 0.629327 -57.725631
DOCKED: USER    NEWDPF quat0 0.318020 -0.709092 0.629327 -57.725631
DOCKED: USER    NEWDPF dihe0 151.09 84.52 173.04 123.21 91.29 95.83 -35.46 -80.88 -179.86 -10.99 153.34 166.48 2.55 89.33 -96.21 75.36 115.14 -144.58 -9.63 -39.25 154.11 -40.79 -42.99 165.21 
DOCKED: USER  keepresnum = 1 
DOCKED: USER  
DOCKED: REMARK  24 active torsions:
DOCKED: REMARK  status: ('A' for Active; 'I' for Inactive)
DOCKED: REMARK    1  A    between atoms: C_1  and  O_7 
DOCKED: REMARK    2  A    between atoms: C_2  and  O_12 
DOCKED: REMARK    3  A    between atoms: C_3  and  O_17 
DOCKED: REMARK    4  A    between atoms: C_4  and  O_22 
DOCKED: REMARK    5  A    between atoms: C_5  and  O_27 
DOCKED: REMARK    6  A    between atoms: C_6  and  O_32 
DOCKED: REMARK    7  A    between atoms: O_7  and  P_8 
DOCKED: REMARK    8  A    between atoms: P_8  and  O_10 
DOCKED: REMARK    9  A    between atoms: P_8  and  O_11 
DOCKED: REMARK   10  A    between atoms: O_12  and  P_13 
DOCKED: REMARK   11  A    between atoms: P_13  and  O_15 
DOCKED: REMARK   12  A    between atoms: P_13  and  O_16 
DOCKED: REMARK   13  A    between atoms: O_17  and  P_18 
DOCKED: REMARK   14  A    between atoms: P_18  and  O_20 
DOCKED: REMARK   15  A    between atoms: P_18  and  O_21 
DOCKED: REMARK   16  A    between atoms: O_22  and  P_23 
DOCKED: REMARK   17  A    between atoms: P_23  and  O_25 
DOCKED: REMARK   18  A    between atoms: P_23  and  O_26 
DOCKED: REMARK   19  A    between atoms: O_27  and  P_28 
DOCKED: REMARK   20  A    between atoms: P_28  and  O_30 
DOCKED: REMARK   21  A    between atoms: P_28  and  O_31 
DOCKED: REMARK   22  A    between atoms: O_32  and  P_33 
DOCKED: REMARK   23  A    between atoms: P_33  and  O_35 
DOCKED: REMARK   24  A    between atoms: P_33  and  O_36 
DOCKED: USER                              x       y       z     vdW  Elec       q    Type
DOCKED: USER                           _______ _______ _______ _____ _____    ______ ____
DOCKED: ROOT
DOCKED: ATOM      1  C   UNL d   1       9.935  10.873  15.826 -0.01 -0.02    +0.194 C 
DOCKED: ATOM      2  C   UNL d   1       9.909   9.898  14.647 -0.06 -0.05    +0.194 C 
DOCKED: ATOM      3  C   UNL d   1       8.512   9.791  14.032 -0.12 -0.05    +0.194 C 
DOCKED: ATOM      4  C   UNL d   1       7.907  11.146  13.674 -0.19 -0.04    +0.194 C 
DOCKED: ATOM      5  C   UNL d   1       8.014  12.186  14.782 -0.06 -0.02    +0.194 C 
DOCKED: ATOM      6  C   UNL d   1       9.394  12.250  15.439 -0.03 -0.02    +0.194 C 
DOCKED: ENDROOT
DOCKED: BRANCH   1   7
DOCKED: ATOM      7  O   UNL d   1      11.295  11.047  16.231 +0.00 +0.02    -0.278 OA
DOCKED: BRANCH   7   8
DOCKED: ATOM      8  P   UNL d   1      11.645  10.936  17.786 +0.01 -0.01    +0.473 P 
DOCKED: ATOM      9  O   UNL d   1      11.195   9.681  18.445 +0.00 +0.00    -0.228 OA
DOCKED: BRANCH   8  10
DOCKED: ATOM     10  O   UNL d   1      13.225  11.144  17.842 +0.00 +0.00    -0.303 OA
DOCKED: ATOM     11  H   UNL d   1      13.584  11.175  16.935 +0.01 -0.01    +0.222 HD
DOCKED: ENDBRANCH   8  10
DOCKED: BRANCH   8  12
DOCKED: ATOM     12  O   UNL d   1      11.108  12.288  18.427 -0.00 +0.00    -0.303 OA
DOCKED: ATOM     13  H   UNL d   1      10.248  12.578  18.049 +0.00 -0.00    +0.222 HD
DOCKED: ENDBRANCH   8  12
DOCKED: ENDBRANCH   7   8
DOCKED: ENDBRANCH   1   7
DOCKED: BRANCH   2  14
DOCKED: ATOM     14  O   UNL d   1      10.818  10.360  13.640 -0.11 +0.17    -0.278 OA
DOCKED: BRANCH  14  15
DOCKED: ATOM     15  P   UNL d   1      12.311   9.786  13.707 -0.07 -0.16    +0.473 P 
DOCKED: ATOM     16  O   UNL d   1      12.998   9.547  12.399 -0.21 +0.10    -0.228 OA
DOCKED: BRANCH  15  17
DOCKED: ATOM     17  O   UNL d   1      13.086  10.829  14.629 -0.01 +0.05    -0.303 OA
DOCKED: ATOM     18  H   UNL d   1      12.873  10.690  15.572 +0.02 -0.02    +0.222 HD
DOCKED: ENDBRANCH  15  17
DOCKED: BRANCH  15  19
DOCKED: ATOM     19  O   UNL d   1      12.209   8.524  14.669 -0.03 +0.01    -0.303 OA
DOCKED: ATOM     20  H   UNL d   1      11.636   7.830  14.293 +0.04 +0.00    +0.222 HD
DOCKED: ENDBRANCH  15  19
DOCKED: ENDBRANCH  14  15
DOCKED: ENDBRANCH   2  14
DOCKED: BRANCH   6  21
DOCKED: ATOM     21  O   UNL d   1       9.242  12.994  16.646 -0.00 +0.01    -0.278 OA
DOCKED: BRANCH  21  22
DOCKED: ATOM     22  P   UNL d   1       8.107  12.584  17.691 +0.00 -0.01    +0.473 P 
DOCKED: ATOM     23  O   UNL d   1       6.682  12.740  17.280 -0.00 +0.00    -0.228 OA
DOCKED: BRANCH  22  24
DOCKED: ATOM     24  O   UNL d   1       8.534  11.098  18.069 +0.00 +0.01    -0.303 OA
DOCKED: ATOM     25  H   UNL d   1       9.509  11.009  17.914 +0.00 -0.01    +0.222 HD
DOCKED: ENDBRANCH  22  24
DOCKED: BRANCH  22  26
DOCKED: ATOM     26  O   UNL d   1       8.556  13.400  18.996 -0.00 +0.00    -0.303 OA
DOCKED: ATOM     27  H   UNL d   1       9.295  12.928  19.432 +0.00 -0.00    +0.222 HD
DOCKED: ENDBRANCH  22  26
DOCKED: ENDBRANCH  21  22
DOCKED: ENDBRANCH   6  21
DOCKED: BRANCH   3  28
DOCKED: ATOM     28  O   UNL d   1       8.640   9.097  12.797 -0.18 +0.18    -0.278 OA
DOCKED: BRANCH  28  29
DOCKED: ATOM     29  P   UNL d   1       8.996   7.545  12.780 -0.16 -0.09    +0.473 P 
DOCKED: ATOM     30  O   UNL d   1       8.171   6.688  13.670 -0.15 +0.01    -0.228 OA
DOCKED: BRANCH  29  31
DOCKED: ATOM     31  O   UNL d   1       8.909   7.256  11.209 -0.35 -0.00    -0.303 OA
DOCKED: ATOM     32  H   UNL d   1       8.932   8.116  10.730 -0.41 -0.14    +0.222 HD
DOCKED: ENDBRANCH  29  31
DOCKED: BRANCH  29  33
DOCKED: ATOM     33  O   UNL d   1      10.566   7.559  13.048 -0.32 -0.01    -0.303 OA
DOCKED: ATOM     34  H   UNL d   1      10.926   8.446  12.802 -0.51 -0.11    +0.222 HD
DOCKED: ENDBRANCH  29  33
DOCKED: ENDBRANCH  28  29
DOCKED: ENDBRANCH   3  28
DOCKED: BRANCH   5  35
DOCKED: ATOM     35  O   UNL d   1       7.790  13.446  14.153 -0.09 +0.00    -0.278 OA
DOCKED: BRANCH  35  36
DOCKED: ATOM     36  P   UNL d   1       6.307  14.011  13.990 -0.07 +0.01    +0.473 P 
DOCKED: ATOM     37  O   UNL d   1       6.199  15.487  13.773 -0.09 -0.00    -0.228 OA
DOCKED: BRANCH  36  38
DOCKED: ATOM     38  O   UNL d   1       5.753  13.130  12.785 -0.64 -0.04    -0.303 OA
DOCKED: ATOM     39  H   UNL d   1       5.073  12.510  13.126 +0.07 +0.00    +0.222 HD
DOCKED: ENDBRANCH  36  38
DOCKED: BRANCH  36  40
DOCKED: ATOM     40  O   UNL d   1       5.573  13.414  15.269 -0.01 +0.01    -0.303 OA
DOCKED: ATOM     41  H   UNL d   1       5.694  12.441  15.337 +0.04 -0.01    +0.222 HD
DOCKED: ENDBRANCH  36  40
DOCKED: ENDBRANCH  35  36
DOCKED: ENDBRANCH   5  35
DOCKED: BRANCH   4  42
DOCKED: ATOM     42  O   UNL d   1       6.512  10.927  13.435 -0.21 +0.04    -0.278 OA
DOCKED: BRANCH  42  43
DOCKED: ATOM     43  P   UNL d   1       5.642  10.204  14.560 -0.07 -0.07    +0.473 P 
DOCKED: ATOM     44  O   UNL d   1       5.375   8.748  14.392 -0.12 +0.06    -0.228 OA
DOCKED: BRANCH  43  45
DOCKED: ATOM     45  O   UNL d   1       6.422  10.573  15.896 -0.01 +0.02    -0.303 OA
DOCKED: ATOM     46  H   UNL d   1       6.201  11.475  16.203 +0.03 -0.01    +0.222 HD
DOCKED: ENDBRANCH  43  45
DOCKED: BRANCH  43  47
DOCKED: ATOM     47  O   UNL d   1       4.343  11.137  14.673 -0.06 +0.03    -0.303 OA
DOCKED: ATOM     48  H   UNL d   1       4.518  11.991  14.226 +0.06 -0.02    +0.222 HD
DOCKED: ENDBRANCH  43  47
DOCKED: ENDBRANCH  42  43
DOCKED: ENDBRANCH   4  42
DOCKED: TORSDOF 24
DOCKED: TER
DOCKED: ENDMDL
________________________________________________________________________________


	BEGINNING GENETIC ALGORITHM DOCKING 5 of 100
Run: 5 Seed: 1640446005 482875725 [ Run 5 of 100 GA/GALS ]
Beginning LAMARCKIAN GENETIC ALGORITHM (LGA), with a maximum of 25000000 energy evaluations.

Final-Value: -20.462


	FINAL GENETIC ALGORITHM DOCKED STATE
	_______________________________________________


Detailed state:  trans -16.912 2.448 9.212 quatxyzw 0.705234 -0.192947 0.472360 0.492233 center 0.035 0.082 -0.065 ntor 24 105.5142 78.6485 154.1580 4.4352 11.2920 179.5977 -15.5471 -119.8188 98.5678 82.8107 131.0399 149.6563 178.8682 84.2400 -47.0867 -71.7934 113.5090 -147.9601 22.5178 -28.0505 -179.9948 19.2187 -6.3635 -6.5625
State:	-16.912   2.448   9.212   0.810 -0.222  0.543 121.025    105.51   78.65  154.16    4.44   11.29  179.60  -15.55 -119.82   98.57   82.81  131.04  149.66  178.87   84.24  -47.09  -71.79  113.51 -147.96   22.52  -28.05 -179.99   19.22   -6.36   -6.56

DOCKED: MODEL        5
DOCKED: USER    Run = 5
DOCKED: USER    DPF = D:/Protein_go_brrr/autodock/final/AncA/IHP/dock.dpf
DOCKED: USER  
DOCKED: USER    Estimated Free Energy of Binding    =   +2.31 kcal/mol  [=(1)+(2)+(3)-(4)]
DOCKED: USER    
DOCKED: USER    (1) Final Intermolecular Energy     =   -4.85 kcal/mol
DOCKED: USER        vdW + Hbond + desolv Energy     =   -4.40 kcal/mol
DOCKED: USER        Electrostatic Energy            =   -0.45 kcal/mol
DOCKED: USER    (2) Final Total Internal Energy     =  -15.61 kcal/mol
DOCKED: USER    (3) Torsional Free Energy           =   +7.16 kcal/mol
DOCKED: USER    (4) Unbound System's Energy  [=(2)] =  -15.61 kcal/mol
DOCKED: USER    
DOCKED: USER    
DOCKED: USER    NEWDPF move IHP_ideal_opt.pdbqt
DOCKED: USER    NEWDPF about 0.035000 0.082000 -0.065000
DOCKED: USER    NEWDPF tran0 -16.912425 2.448150 9.212232
DOCKED: USER    NEWDPF quaternion0 0.705234 -0.192947 0.472360 0.492233
DOCKED: USER    NEWDPF axisangle0 0.810182 -0.221659 0.542653 121.025132
DOCKED: USER    NEWDPF quat0 0.810182 -0.221659 0.542653 121.025132
DOCKED: USER    NEWDPF dihe0 105.51 78.65 154.16 4.44 11.29 179.60 -15.55 -119.82 98.57 82.81 131.04 149.66 178.87 84.24 -47.09 -71.79 113.51 -147.96 22.52 -28.05 -179.99 19.22 -6.36 -6.56 
DOCKED: USER  keepresnum = 1 
DOCKED: USER  
DOCKED: REMARK  24 active torsions:
DOCKED: REMARK  status: ('A' for Active; 'I' for Inactive)
DOCKED: REMARK    1  A    between atoms: C_1  and  O_7 
DOCKED: REMARK    2  A    between atoms: C_2  and  O_12 
DOCKED: REMARK    3  A    between atoms: C_3  and  O_17 
DOCKED: REMARK    4  A    between atoms: C_4  and  O_22 
DOCKED: REMARK    5  A    between atoms: C_5  and  O_27 
DOCKED: REMARK    6  A    between atoms: C_6  and  O_32 
DOCKED: REMARK    7  A    between atoms: O_7  and  P_8 
DOCKED: REMARK    8  A    between atoms: P_8  and  O_10 
DOCKED: REMARK    9  A    between atoms: P_8  and  O_11 
DOCKED: REMARK   10  A    between atoms: O_12  and  P_13 
DOCKED: REMARK   11  A    between atoms: P_13  and  O_15 
DOCKED: REMARK   12  A    between atoms: P_13  and  O_16 
DOCKED: REMARK   13  A    between atoms: O_17  and  P_18 
DOCKED: REMARK   14  A    between atoms: P_18  and  O_20 
DOCKED: REMARK   15  A    between atoms: P_18  and  O_21 
DOCKED: REMARK   16  A    between atoms: O_22  and  P_23 
DOCKED: REMARK   17  A    between atoms: P_23  and  O_25 
DOCKED: REMARK   18  A    between atoms: P_23  and  O_26 
DOCKED: REMARK   19  A    between atoms: O_27  and  P_28 
DOCKED: REMARK   20  A    between atoms: P_28  and  O_30 
DOCKED: REMARK   21  A    between atoms: P_28  and  O_31 
DOCKED: REMARK   22  A    between atoms: O_32  and  P_33 
DOCKED: REMARK   23  A    between atoms: P_33  and  O_35 
DOCKED: REMARK   24  A    between atoms: P_33  and  O_36 
DOCKED: USER                              x       y       z     vdW  Elec       q    Type
DOCKED: USER                           _______ _______ _______ _____ _____    ______ ____
DOCKED: ROOT
DOCKED: ATOM      1  C   UNL d   1     -15.806   2.321  10.533 -0.05 +0.02    +0.194 C 
DOCKED: ATOM      2  C   UNL d   1     -16.875   3.407  10.669 -0.02 +0.02    +0.194 C 
DOCKED: ATOM      3  C   UNL d   1     -17.071   4.175   9.360 -0.05 +0.03    +0.194 C 
DOCKED: ATOM      4  C   UNL d   1     -17.322   3.266   8.160 -0.08 +0.05    +0.194 C 
DOCKED: ATOM      5  C   UNL d   1     -16.346   2.101   8.050 -0.10 +0.05    +0.194 C 
DOCKED: ATOM      6  C   UNL d   1     -16.103   1.370   9.373 -0.11 +0.03    +0.194 C 
DOCKED: ENDROOT
DOCKED: BRANCH   1   7
DOCKED: ATOM      7  O   UNL d   1     -15.805   1.543  11.732 -0.04 -0.02    -0.278 OA
DOCKED: BRANCH   7   8
DOCKED: ATOM      8  P   UNL d   1     -14.688   1.845  12.832 -0.01 +0.03    +0.473 P 
DOCKED: ATOM      9  O   UNL d   1     -13.939   0.653  13.315 -0.09 -0.01    -0.228 OA
DOCKED: BRANCH   8  10
DOCKED: ATOM     10  O   UNL d   1     -13.751   2.937  12.143 -0.02 -0.03    -0.303 OA
DOCKED: ATOM     11  H   UNL d   1     -13.467   2.618  11.266 +0.05 +0.03    +0.222 HD
DOCKED: ENDBRANCH   8  10
DOCKED: BRANCH   8  12
DOCKED: ATOM     12  O   UNL d   1     -15.428   2.698  13.950 +0.00 -0.01    -0.303 OA
DOCKED: ATOM     13  H   UNL d   1     -16.372   2.447  14.065 +0.01 +0.01    +0.222 HD
DOCKED: ENDBRANCH   8  12
DOCKED: ENDBRANCH   7   8
DOCKED: ENDBRANCH   1   7
DOCKED: BRANCH   2  14
DOCKED: ATOM     14  O   UNL d   1     -18.119   2.794  11.029 -0.00 -0.03    -0.278 OA
DOCKED: BRANCH  14  15
DOCKED: ATOM     15  P   UNL d   1     -18.569   2.934  12.560 +0.00 +0.03    +0.473 P 
DOCKED: ATOM     16  O   UNL d   1     -20.021   3.195  12.812 +0.00 -0.01    -0.228 OA
DOCKED: BRANCH  15  17
DOCKED: ATOM     17  O   UNL d   1     -18.056   1.588  13.240 +0.00 -0.00    -0.303 OA
DOCKED: ATOM     18  H   UNL d   1     -17.090   1.489  13.138 +0.02 +0.00    +0.222 HD
DOCKED: ENDBRANCH  15  17
DOCKED: BRANCH  15  19
DOCKED: ATOM     19  O   UNL d   1     -17.564   4.005  13.172 -0.00 -0.02    -0.303 OA
DOCKED: ATOM     20  H   UNL d   1     -16.634   3.743  13.040 +0.01 +0.01    +0.222 HD
DOCKED: ENDBRANCH  15  19
DOCKED: ENDBRANCH  14  15
DOCKED: ENDBRANCH   2  14
DOCKED: BRANCH   6  21
DOCKED: ATOM     21  O   UNL d   1     -14.944   0.560   9.189 -0.20 -0.03    -0.278 OA
DOCKED: BRANCH  21  22
DOCKED: ATOM     22  P   UNL d   1     -13.496   1.228   9.228 -0.18 +0.08    +0.473 P 
DOCKED: ATOM     23  O   UNL d   1     -13.399   2.709   9.072 -0.17 -0.03    -0.228 OA
DOCKED: BRANCH  22  24
DOCKED: ATOM     24  O   UNL d   1     -12.913   0.661  10.596 -0.46 -0.11    -0.303 OA
DOCKED: ATOM     25  H   UNL d   1     -13.552   0.885  11.320 +0.07 +0.05    +0.222 HD
DOCKED: ENDBRANCH  22  24
DOCKED: BRANCH  22  26
DOCKED: ATOM     26  O   UNL d   1     -12.704   0.354   8.142 -0.23 -0.03    -0.303 OA
DOCKED: ATOM     27  H   UNL d   1     -13.329  -0.263   7.708 -0.26 -0.05    +0.222 HD
DOCKED: ENDBRANCH  22  26
DOCKED: ENDBRANCH  21  22
DOCKED: ENDBRANCH   6  21
DOCKED: BRANCH   3  28
DOCKED: ATOM     28  O   UNL d   1     -18.252   4.956   9.495 -0.02 -0.04    -0.278 OA
DOCKED: BRANCH  28  29
DOCKED: ATOM     29  P   UNL d   1     -18.236   6.508   9.139 -0.02 +0.06    +0.473 P 
DOCKED: ATOM     30  O   UNL d   1     -18.074   7.428  10.294 -0.01 -0.02    -0.228 OA
DOCKED: BRANCH  29  31
DOCKED: ATOM     31  O   UNL d   1     -17.085   6.527   8.027 -0.08 -0.05    -0.303 OA
DOCKED: ATOM     32  H   UNL d   1     -17.148   5.700   7.496 +0.03 +0.05    +0.222 HD
DOCKED: ENDBRANCH  29  31
DOCKED: BRANCH  29  33
DOCKED: ATOM     33  O   UNL d   1     -19.563   6.666   8.274 -0.01 -0.04    -0.303 OA
DOCKED: ATOM     34  H   UNL d   1     -19.494   6.092   7.472 +0.02 +0.04    +0.222 HD
DOCKED: ENDBRANCH  29  33
DOCKED: ENDBRANCH  28  29
DOCKED: ENDBRANCH   3  28
DOCKED: BRANCH   5  35
DOCKED: ATOM     35  O   UNL d   1     -16.957   1.167   7.161 -0.13 -0.14    -0.278 OA
DOCKED: BRANCH  35  36
DOCKED: ATOM     36  P   UNL d   1     -16.184   0.677   5.855 -0.30 +0.37    +0.473 P 
DOCKED: ATOM     37  O   UNL d   1     -16.643  -0.628   5.286 -0.40 -0.23    -0.228 OA
DOCKED: BRANCH  36  38
DOCKED: ATOM     38  O   UNL d   1     -16.375   1.919   4.877 -0.45 -0.37    -0.303 OA
DOCKED: ATOM     39  H   UNL d   1     -16.463   2.738   5.412 +0.10 +0.19    +0.222 HD
DOCKED: ENDBRANCH  36  38
DOCKED: BRANCH  36  40
DOCKED: ATOM     40  O   UNL d   1     -14.662   0.773   6.304 -0.41 -0.07    -0.303 OA
DOCKED: ATOM     41  H   UNL d   1     -14.533   0.454   7.225 +0.14 +0.03    +0.222 HD
DOCKED: ENDBRANCH  36  40
DOCKED: ENDBRANCH  35  36
DOCKED: ENDBRANCH   5  35
DOCKED: BRANCH   4  42
DOCKED: ATOM     42  O   UNL d   1     -17.151   4.070   6.988 -0.06 -0.10    -0.278 OA
DOCKED: BRANCH  42  43
DOCKED: ATOM     43  P   UNL d   1     -18.394   4.284   6.011 -0.13 +0.26    +0.473 P 
DOCKED: ATOM     44  O   UNL d   1     -18.425   3.485   4.754 -0.71 -0.32    -0.228 OA
DOCKED: BRANCH  43  45
DOCKED: ATOM     45  O   UNL d   1     -19.638   4.035   6.971 -0.02 -0.12    -0.303 OA
DOCKED: ATOM     46  H   UNL d   1     -19.629   4.647   7.735 +0.02 +0.06    +0.222 HD
DOCKED: ENDBRANCH  43  45
DOCKED: BRANCH  43  47
DOCKED: ATOM     47  O   UNL d   1     -18.441   5.874   5.821 -0.10 -0.08    -0.303 OA
DOCKED: ATOM     48  H   UNL d   1     -18.116   6.307   6.639 +0.03 +0.05    +0.222 HD
DOCKED: ENDBRANCH  43  47
DOCKED: ENDBRANCH  42  43
DOCKED: ENDBRANCH   4  42
DOCKED: TORSDOF 24
DOCKED: TER
DOCKED: ENDMDL
________________________________________________________________________________


	BEGINNING GENETIC ALGORITHM DOCKING 6 of 100
Run: 6 Seed: 1850747452 2123744807 [ Run 6 of 100 GA/GALS ]
Beginning LAMARCKIAN GENETIC ALGORITHM (LGA), with a maximum of 25000000 energy evaluations.

Final-Value: -15.736


	FINAL GENETIC ALGORITHM DOCKED STATE
	_______________________________________________


Detailed state:  trans -5.486 -20.681 -14.883 quatxyzw -0.782097 0.537291 0.023976 -0.314748 center 0.035 0.082 -0.065 ntor 24 -154.7020 20.3209 -180.0000 63.6262 147.4170 63.8014 -115.7625 -52.7553 -39.0952 14.8690 28.1137 132.7577 -108.6723 92.8727 120.2448 50.8296 -163.0875 161.2760 30.6076 -28.1067 138.5242 -34.0665 -53.1314 8.6321
State:	 -5.486 -20.681 -14.883  -0.824  0.566  0.025 -143.309   -154.70   20.32 -180.00   63.63  147.42   63.80 -115.76  -52.76  -39.10   14.87   28.11  132.76 -108.67   92.87  120.24   50.83 -163.09  161.28   30.61  -28.11  138.52  -34.07  -53.13    8.63

DOCKED: MODEL        6
DOCKED: USER    Run = 6
DOCKED: USER    DPF = D:/Protein_go_brrr/autodock/final/AncA/IHP/dock.dpf
DOCKED: USER  
DOCKED: USER    Estimated Free Energy of Binding    =   +4.64 kcal/mol  [=(1)+(2)+(3)-(4)]
DOCKED: USER    
DOCKED: USER    (1) Final Intermolecular Energy     =   -2.52 kcal/mol
DOCKED: USER        vdW + Hbond + desolv Energy     =   -2.40 kcal/mol
DOCKED: USER        Electrostatic Energy            =   -0.11 kcal/mol
DOCKED: USER    (2) Final Total Internal Energy     =  -13.22 kcal/mol
DOCKED: USER    (3) Torsional Free Energy           =   +7.16 kcal/mol
DOCKED: USER    (4) Unbound System's Energy  [=(2)] =  -13.22 kcal/mol
DOCKED: USER    
DOCKED: USER    
DOCKED: USER    NEWDPF move IHP_ideal_opt.pdbqt
DOCKED: USER    NEWDPF about 0.035000 0.082000 -0.065000
DOCKED: USER    NEWDPF tran0 -5.485830 -20.680836 -14.883312
DOCKED: USER    NEWDPF quaternion0 -0.782097 0.537291 0.023976 -0.314748
DOCKED: USER    NEWDPF axisangle0 -0.823976 0.566061 0.025260 -143.308742
DOCKED: USER    NEWDPF quat0 -0.823976 0.566061 0.025260 -143.308742
DOCKED: USER    NEWDPF dihe0 -154.70 20.32 -180.00 63.63 147.42 63.80 -115.76 -52.76 -39.10 14.87 28.11 132.76 -108.67 92.87 120.24 50.83 -163.09 161.28 30.61 -28.11 138.52 -34.07 -53.13 8.63 
DOCKED: USER  keepresnum = 1 
DOCKED: USER  
DOCKED: REMARK  24 active torsions:
DOCKED: REMARK  status: ('A' for Active; 'I' for Inactive)
DOCKED: REMARK    1  A    between atoms: C_1  and  O_7 
DOCKED: REMARK    2  A    between atoms: C_2  and  O_12 
DOCKED: REMARK    3  A    between atoms: C_3  and  O_17 
DOCKED: REMARK    4  A    between atoms: C_4  and  O_22 
DOCKED: REMARK    5  A    between atoms: C_5  and  O_27 
DOCKED: REMARK    6  A    between atoms: C_6  and  O_32 
DOCKED: REMARK    7  A    between atoms: O_7  and  P_8 
DOCKED: REMARK    8  A    between atoms: P_8  and  O_10 
DOCKED: REMARK    9  A    between atoms: P_8  and  O_11 
DOCKED: REMARK   10  A    between atoms: O_12  and  P_13 
DOCKED: REMARK   11  A    between atoms: P_13  and  O_15 
DOCKED: REMARK   12  A    between atoms: P_13  and  O_16 
DOCKED: REMARK   13  A    between atoms: O_17  and  P_18 
DOCKED: REMARK   14  A    between atoms: P_18  and  O_20 
DOCKED: REMARK   15  A    between atoms: P_18  and  O_21 
DOCKED: REMARK   16  A    between atoms: O_22  and  P_23 
DOCKED: REMARK   17  A    between atoms: P_23  and  O_25 
DOCKED: REMARK   18  A    between atoms: P_23  and  O_26 
DOCKED: REMARK   19  A    between atoms: O_27  and  P_28 
DOCKED: REMARK   20  A    between atoms: P_28  and  O_30 
DOCKED: REMARK   21  A    between atoms: P_28  and  O_31 
DOCKED: REMARK   22  A    between atoms: O_32  and  P_33 
DOCKED: REMARK   23  A    between atoms: P_33  and  O_35 
DOCKED: REMARK   24  A    between atoms: P_33  and  O_36 
DOCKED: USER                              x       y       z     vdW  Elec       q    Type
DOCKED: USER                           _______ _______ _______ _____ _____    ______ ____
DOCKED: ROOT
DOCKED: ATOM      1  C   UNL d   1      -3.960 -21.106 -15.573 -0.00 +0.06    +0.194 C 
DOCKED: ATOM      2  C   UNL d   1      -3.909 -20.086 -14.434 -0.04 +0.08    +0.194 C 
DOCKED: ATOM      3  C   UNL d   1      -5.014 -19.036 -14.564 -0.10 +0.09    +0.194 C 
DOCKED: ATOM      4  C   UNL d   1      -6.405 -19.643 -14.733 -0.07 +0.09    +0.194 C 
DOCKED: ATOM      5  C   UNL d   1      -6.476 -20.746 -15.781 -0.01 +0.07    +0.194 C 
DOCKED: ATOM      6  C   UNL d   1      -5.336 -21.763 -15.690 -0.00 +0.06    +0.194 C 
DOCKED: ENDROOT
DOCKED: BRANCH   1   7
DOCKED: ATOM      7  O   UNL d   1      -3.016 -22.141 -15.288 +0.00 -0.07    -0.278 OA
DOCKED: BRANCH   7   8
DOCKED: ATOM      8  P   UNL d   1      -1.533 -21.996 -15.863 +0.01 +0.08    +0.473 P 
DOCKED: ATOM      9  O   UNL d   1      -1.441 -21.842 -17.340 +0.00 -0.04    -0.228 OA
DOCKED: BRANCH   8  10
DOCKED: ATOM     10  O   UNL d   1      -0.929 -20.754 -15.063 -0.01 -0.02    -0.303 OA
DOCKED: ATOM     11  H   UNL d   1      -1.114 -20.857 -14.111 +0.02 +0.03    +0.222 HD
DOCKED: ENDBRANCH   8  10
DOCKED: BRANCH   8  12
DOCKED: ATOM     12  O   UNL d   1      -0.728 -23.216 -15.241 +0.00 -0.06    -0.303 OA
DOCKED: ATOM     13  H   UNL d   1      -1.115 -23.544 -14.398 +0.00 +0.05    +0.222 HD
DOCKED: ENDBRANCH   8  12
DOCKED: ENDBRANCH   7   8
DOCKED: ENDBRANCH   1   7
DOCKED: BRANCH   2  14
DOCKED: ATOM     14  O   UNL d   1      -4.075 -20.772 -13.186 -0.06 -0.19    -0.278 OA
DOCKED: BRANCH  14  15
DOCKED: ATOM     15  P   UNL d   1      -2.754 -20.994 -12.310 -0.03 +0.34    +0.473 P 
DOCKED: ATOM     16  O   UNL d   1      -2.927 -21.004 -10.823 -0.40 -0.36    -0.228 OA
DOCKED: BRANCH  15  17
DOCKED: ATOM     17  O   UNL d   1      -2.142 -22.354 -12.869 -0.00 -0.13    -0.303 OA
DOCKED: ATOM     18  H   UNL d   1      -1.594 -22.194 -13.661 +0.01 +0.06    +0.222 HD
DOCKED: ENDBRANCH  15  17
DOCKED: BRANCH  15  19
DOCKED: ATOM     19  O   UNL d   1      -1.720 -19.924 -12.873 -0.05 -0.07    -0.303 OA
DOCKED: ATOM     20  H   UNL d   1      -2.126 -19.354 -13.552 +0.05 +0.03    +0.222 HD
DOCKED: ENDBRANCH  15  19
DOCKED: ENDBRANCH  14  15
DOCKED: ENDBRANCH   2  14
DOCKED: BRANCH   6  21
DOCKED: ATOM     21  O   UNL d   1      -5.345 -22.503 -16.908 +0.00 -0.07    -0.278 OA
DOCKED: BRANCH  21  22
DOCKED: ATOM     22  P   UNL d   1      -5.710 -21.770 -18.277 +0.00 +0.11    +0.473 P 
DOCKED: ATOM     23  O   UNL d   1      -5.103 -22.286 -19.538 +0.00 -0.05    -0.228 OA
DOCKED: BRANCH  22  24
DOCKED: ATOM     24  O   UNL d   1      -7.301 -21.793 -18.244 +0.00 -0.07    -0.303 OA
DOCKED: ATOM     25  H   UNL d   1      -7.609 -21.045 -17.672 +0.01 +0.06    +0.222 HD
DOCKED: ENDBRANCH  22  24
DOCKED: BRANCH  22  26
DOCKED: ATOM     26  O   UNL d   1      -5.395 -20.239 -17.921 +0.00 -0.09    -0.303 OA
DOCKED: ATOM     27  H   UNL d   1      -6.235 -19.740 -17.871 +0.02 +0.07    +0.222 HD
DOCKED: ENDBRANCH  22  26
DOCKED: ENDBRANCH  21  22
DOCKED: ENDBRANCH   6  21
DOCKED: BRANCH   3  28
DOCKED: ATOM     28  O   UNL d   1      -5.065 -18.314 -13.340 -0.17 -0.19    -0.278 OA
DOCKED: BRANCH  28  29
DOCKED: ATOM     29  P   UNL d   1      -3.966 -17.208 -13.012 -0.25 +0.21    +0.473 P 
DOCKED: ATOM     30  O   UNL d   1      -3.305 -16.593 -14.191 -0.34 -0.03    -0.228 OA
DOCKED: BRANCH  29  31
DOCKED: ATOM     31  O   UNL d   1      -4.819 -16.237 -12.069 -0.40 -0.17    -0.303 OA
DOCKED: ATOM     32  H   UNL d   1      -5.553 -15.850 -12.599 -0.03 +0.11    +0.222 HD
DOCKED: ENDBRANCH  29  31
DOCKED: BRANCH  29  33
DOCKED: ATOM     33  O   UNL d   1      -3.026 -17.969 -11.976 -0.20 -0.18    -0.303 OA
DOCKED: ATOM     34  H   UNL d   1      -3.316 -18.911 -11.911 +0.07 +0.22    +0.222 HD
DOCKED: ENDBRANCH  29  33
DOCKED: ENDBRANCH  28  29
DOCKED: ENDBRANCH   3  28
DOCKED: BRANCH   5  35
DOCKED: ATOM     35  O   UNL d   1      -7.688 -21.451 -15.519 -0.00 -0.09    -0.278 OA
DOCKED: BRANCH  35  36
DOCKED: ATOM     36  P   UNL d   1      -9.090 -20.836 -15.970 +0.01 +0.14    +0.473 P 
DOCKED: ATOM     37  O   UNL d   1     -10.056 -20.554 -14.863 -0.01 -0.08    -0.228 OA
DOCKED: BRANCH  36  38
DOCKED: ATOM     38  O   UNL d   1      -8.633 -19.546 -16.784 -0.01 -0.10    -0.303 OA
DOCKED: ATOM     39  H   UNL d   1      -8.861 -18.743 -16.268 +0.05 +0.08    +0.222 HD
DOCKED: ENDBRANCH  36  38
DOCKED: BRANCH  36  40
DOCKED: ATOM     40  O   UNL d   1      -9.561 -21.853 -17.098 +0.00 -0.07    -0.303 OA
DOCKED: ATOM     41  H   UNL d   1      -8.797 -22.295 -17.531 +0.00 +0.05    +0.222 HD
DOCKED: ENDBRANCH  36  40
DOCKED: ENDBRANCH  35  36
DOCKED: ENDBRANCH   5  35
DOCKED: BRANCH   4  42
DOCKED: ATOM     42  O   UNL d   1      -7.267 -18.588 -15.173 -0.09 -0.12    -0.278 OA
DOCKED: BRANCH  42  43
DOCKED: ATOM     43  P   UNL d   1      -8.254 -17.910 -14.119 -0.14 +0.22    +0.473 P 
DOCKED: ATOM     44  O   UNL d   1      -9.510 -17.306 -14.645 -0.19 -0.09    -0.228 OA
DOCKED: BRANCH  43  45
DOCKED: ATOM     45  O   UNL d   1      -8.485 -19.073 -13.058 -0.13 -0.17    -0.303 OA
DOCKED: ATOM     46  H   UNL d   1      -8.655 -19.930 -13.498 +0.04 +0.11    +0.222 HD
DOCKED: ENDBRANCH  43  45
DOCKED: BRANCH  43  47
DOCKED: ATOM     47  O   UNL d   1      -7.295 -16.915 -13.307 -0.07 -0.19    -0.303 OA
DOCKED: ATOM     48  H   UNL d   1      -6.487 -17.396 -13.035 +0.09 +0.16    +0.222 HD
DOCKED: ENDBRANCH  43  47
DOCKED: ENDBRANCH  42  43
DOCKED: ENDBRANCH   4  42
DOCKED: TORSDOF 24
DOCKED: TER
DOCKED: ENDMDL
________________________________________________________________________________


	BEGINNING GENETIC ALGORITHM DOCKING 7 of 100
Run: 7 Seed: 283780757 975675150 [ Run 7 of 100 GA/GALS ]
Beginning LAMARCKIAN GENETIC ALGORITHM (LGA), with a maximum of 25000000 energy evaluations.

Final-Value: -18.784


	FINAL GENETIC ALGORITHM DOCKED STATE
	_______________________________________________


Detailed state:  trans -4.580 0.301 -15.140 quatxyzw -0.082382 -0.840544 -0.515565 0.144542 center 0.035 0.082 -0.065 ntor 24 124.3521 122.1758 54.7999 39.0562 -10.1006 173.4168 -42.8620 -42.3496 13.3405 -16.0796 -175.4643 -141.1750 -45.3078 171.0786 -175.7614 173.6621 62.4480 -20.1504 44.9541 -13.9773 177.1583 -17.6090 -23.8836 149.2403
State:	 -4.580   0.301 -15.140  -0.083 -0.849 -0.521 163.379    124.35  122.18   54.80   39.06  -10.10  173.42  -42.86  -42.35   13.34  -16.08 -175.46 -141.18  -45.31  171.08 -175.76  173.66   62.45  -20.15   44.95  -13.98  177.16  -17.61  -23.88  149.24

DOCKED: MODEL        7
DOCKED: USER    Run = 7
DOCKED: USER    DPF = D:/Protein_go_brrr/autodock/final/AncA/IHP/dock.dpf
DOCKED: USER  
DOCKED: USER    Estimated Free Energy of Binding    =   +1.74 kcal/mol  [=(1)+(2)+(3)-(4)]
DOCKED: USER    
DOCKED: USER    (1) Final Intermolecular Energy     =   -5.42 kcal/mol
DOCKED: USER        vdW + Hbond + desolv Energy     =   -5.35 kcal/mol
DOCKED: USER        Electrostatic Energy            =   -0.07 kcal/mol
DOCKED: USER    (2) Final Total Internal Energy     =  -13.37 kcal/mol
DOCKED: USER    (3) Torsional Free Energy           =   +7.16 kcal/mol
DOCKED: USER    (4) Unbound System's Energy  [=(2)] =  -13.37 kcal/mol
DOCKED: USER    
DOCKED: USER    
DOCKED: USER    NEWDPF move IHP_ideal_opt.pdbqt
DOCKED: USER    NEWDPF about 0.035000 0.082000 -0.065000
DOCKED: USER    NEWDPF tran0 -4.579554 0.301450 -15.139894
DOCKED: USER    NEWDPF quaternion0 -0.082382 -0.840544 -0.515565 0.144542
DOCKED: USER    NEWDPF axisangle0 -0.083256 -0.849464 -0.521036 163.378510
DOCKED: USER    NEWDPF quat0 -0.083256 -0.849464 -0.521036 163.378510
DOCKED: USER    NEWDPF dihe0 124.35 122.18 54.80 39.06 -10.10 173.42 -42.86 -42.35 13.34 -16.08 -175.46 -141.18 -45.31 171.08 -175.76 173.66 62.45 -20.15 44.95 -13.98 177.16 -17.61 -23.88 149.24 
DOCKED: USER  keepresnum = 1 
DOCKED: USER  
DOCKED: REMARK  24 active torsions:
DOCKED: REMARK  status: ('A' for Active; 'I' for Inactive)
DOCKED: REMARK    1  A    between atoms: C_1  and  O_7 
DOCKED: REMARK    2  A    between atoms: C_2  and  O_12 
DOCKED: REMARK    3  A    between atoms: C_3  and  O_17 
DOCKED: REMARK    4  A    between atoms: C_4  and  O_22 
DOCKED: REMARK    5  A    between atoms: C_5  and  O_27 
DOCKED: REMARK    6  A    between atoms: C_6  and  O_32 
DOCKED: REMARK    7  A    between atoms: O_7  and  P_8 
DOCKED: REMARK    8  A    between atoms: P_8  and  O_10 
DOCKED: REMARK    9  A    between atoms: P_8  and  O_11 
DOCKED: REMARK   10  A    between atoms: O_12  and  P_13 
DOCKED: REMARK   11  A    between atoms: P_13  and  O_15 
DOCKED: REMARK   12  A    between atoms: P_13  and  O_16 
DOCKED: REMARK   13  A    between atoms: O_17  and  P_18 
DOCKED: REMARK   14  A    between atoms: P_18  and  O_20 
DOCKED: REMARK   15  A    between atoms: P_18  and  O_21 
DOCKED: REMARK   16  A    between atoms: O_22  and  P_23 
DOCKED: REMARK   17  A    between atoms: P_23  and  O_25 
DOCKED: REMARK   18  A    between atoms: P_23  and  O_26 
DOCKED: REMARK   19  A    between atoms: O_27  and  P_28 
DOCKED: REMARK   20  A    between atoms: P_28  and  O_30 
DOCKED: REMARK   21  A    between atoms: P_28  and  O_31 
DOCKED: REMARK   22  A    between atoms: O_32  and  P_33 
DOCKED: REMARK   23  A    between atoms: P_33  and  O_35 
DOCKED: REMARK   24  A    between atoms: P_33  and  O_36 
DOCKED: USER                              x       y       z     vdW  Elec       q    Type
DOCKED: USER                           _______ _______ _______ _____ _____    ______ ____
DOCKED: ROOT
DOCKED: ATOM      1  C   UNL d   1      -5.494   0.925 -16.466 -0.10 -0.01    +0.194 C 
DOCKED: ATOM      2  C   UNL d   1      -4.428  -0.111 -16.827 -0.13 -0.01    +0.194 C 
DOCKED: ATOM      3  C   UNL d   1      -3.120   0.136 -16.074 -0.16 -0.01    +0.194 C 
DOCKED: ATOM      4  C   UNL d   1      -3.310   0.266 -14.564 -0.23 -0.02    +0.194 C 
DOCKED: ATOM      5  C   UNL d   1      -4.442   1.203 -14.160 -0.24 -0.01    +0.194 C 
DOCKED: ATOM      6  C   UNL d   1      -5.731   0.996 -14.957 -0.18 -0.01    +0.194 C 
DOCKED: ENDROOT
DOCKED: BRANCH   1   7
DOCKED: ATOM      7  O   UNL d   1      -6.726   0.526 -17.072 -0.07 +0.03    -0.278 OA
DOCKED: BRANCH   7   8
DOCKED: ATOM      8  P   UNL d   1      -6.925   0.793 -18.635 +0.00 -0.04    +0.473 P 
DOCKED: ATOM      9  O   UNL d   1      -5.723   1.310 -19.344 -0.01 +0.01    -0.228 OA
DOCKED: BRANCH   8  10
DOCKED: ATOM     10  O   UNL d   1      -7.436  -0.606 -19.204 -0.01 +0.04    -0.303 OA
DOCKED: ATOM     11  H   UNL d   1      -7.025  -1.334 -18.702 +0.06 -0.03    +0.222 HD
DOCKED: ENDBRANCH   8  10
DOCKED: BRANCH   8  12
DOCKED: ATOM     12  O   UNL d   1      -8.231   1.692 -18.738 -0.00 +0.03    -0.303 OA
DOCKED: ATOM     13  H   UNL d   1      -8.072   2.633 -18.499 +0.02 -0.01    +0.222 HD
DOCKED: ENDBRANCH   8  12
DOCKED: ENDBRANCH   7   8
DOCKED: ENDBRANCH   1   7
DOCKED: BRANCH   2  14
DOCKED: ATOM     14  O   UNL d   1      -4.911  -1.417 -16.487 -0.20 +0.01    -0.278 OA
DOCKED: BRANCH  14  15
DOCKED: ATOM     15  P   UNL d   1      -5.090  -2.451 -17.697 -0.17 -0.04    +0.473 P 
DOCKED: ATOM     16  O   UNL d   1      -6.374  -3.219 -17.739 -0.25 +0.03    -0.228 OA
DOCKED: BRANCH  15  17
DOCKED: ATOM     17  O   UNL d   1      -4.857  -1.566 -19.001 -0.04 +0.03    -0.303 OA
DOCKED: ATOM     18  H   UNL d   1      -5.285  -0.693 -18.915 +0.04 -0.02    +0.222 HD
DOCKED: ENDBRANCH  15  17
DOCKED: BRANCH  15  19
DOCKED: ATOM     19  O   UNL d   1      -3.765  -3.330 -17.667 -0.27 +0.05    -0.303 OA
DOCKED: ATOM     20  H   UNL d   1      -3.043  -2.878 -17.192 +0.02 -0.02    +0.222 HD
DOCKED: ENDBRANCH  15  19
DOCKED: ENDBRANCH  14  15
DOCKED: ENDBRANCH   2  14
DOCKED: BRANCH   6  21
DOCKED: ATOM     21  O   UNL d   1      -6.552   2.137 -14.716 -0.17 +0.02    -0.278 OA
DOCKED: BRANCH  21  22
DOCKED: ATOM     22  P   UNL d   1      -6.201   3.527 -15.417 -0.02 +0.02    +0.473 P 
DOCKED: ATOM     23  O   UNL d   1      -6.475   4.785 -14.663 -0.11 -0.03    -0.228 OA
DOCKED: BRANCH  22  24
DOCKED: ATOM     24  O   UNL d   1      -4.677   3.311 -15.823 -0.01 -0.01    -0.303 OA
DOCKED: ATOM     25  H   UNL d   1      -4.124   3.403 -15.006 +0.06 +0.01    +0.222 HD
DOCKED: ENDBRANCH  22  24
DOCKED: BRANCH  22  26
DOCKED: ATOM     26  O   UNL d   1      -6.945   3.377 -16.829 -0.01 +0.00    -0.303 OA
DOCKED: ATOM     27  H   UNL d   1      -7.382   2.502 -16.871 +0.04 -0.01    +0.222 HD
DOCKED: ENDBRANCH  22  26
DOCKED: ENDBRANCH  21  22
DOCKED: ENDBRANCH   6  21
DOCKED: BRANCH   3  28
DOCKED: ATOM     28  O   UNL d   1      -2.299  -1.011 -16.253 +0.01 -0.00    -0.278 OA
DOCKED: BRANCH  28  29
DOCKED: ATOM     29  P   UNL d   1      -1.240  -1.064 -17.441 -0.14 -0.00    +0.473 P 
DOCKED: ATOM     30  O   UNL d   1      -0.001  -1.834 -17.161 -0.32 +0.01    -0.228 OA
DOCKED: BRANCH  29  31
DOCKED: ATOM     31  O   UNL d   1      -2.175  -1.598 -18.625 -0.07 +0.01    -0.303 OA
DOCKED: ATOM     32  H   UNL d   1      -3.110  -1.592 -18.314 +0.08 -0.01    +0.222 HD
DOCKED: ENDBRANCH  29  31
DOCKED: BRANCH  29  33
DOCKED: ATOM     33  O   UNL d   1      -1.063   0.477 -17.801 -0.05 -0.00    -0.303 OA
DOCKED: ATOM     34  H   UNL d   1      -1.414   1.023 -17.055 +0.05 +0.00    +0.222 HD
DOCKED: ENDBRANCH  29  33
DOCKED: ENDBRANCH  28  29
DOCKED: ENDBRANCH   3  28
DOCKED: BRANCH   5  35
DOCKED: ATOM     35  O   UNL d   1      -4.734   0.891 -12.800 -0.24 +0.04    -0.278 OA
DOCKED: BRANCH  35  36
DOCKED: ATOM     36  P   UNL d   1      -4.299   1.889 -11.634 -0.21 -0.03    +0.473 P 
DOCKED: ATOM     37  O   UNL d   1      -5.409   2.665 -11.001 -0.53 -0.01    -0.228 OA
DOCKED: BRANCH  36  38
DOCKED: ATOM     38  O   UNL d   1      -3.532   0.912 -10.637 -0.38 +0.01    -0.303 OA
DOCKED: ATOM     39  H   UNL d   1      -4.134   0.181 -10.378 -0.34 -0.05    +0.222 HD
DOCKED: ENDBRANCH  36  38
DOCKED: BRANCH  36  40
DOCKED: ATOM     40  O   UNL d   1      -3.133   2.726 -12.321 -0.15 -0.02    -0.303 OA
DOCKED: ATOM     41  H   UNL d   1      -2.408   2.145 -12.640 +0.14 +0.01    +0.222 HD
DOCKED: ENDBRANCH  36  40
DOCKED: ENDBRANCH  35  36
DOCKED: ENDBRANCH   5  35
DOCKED: BRANCH   4  42
DOCKED: ATOM     42  O   UNL d   1      -2.098   0.819 -14.039 -0.27 +0.02    -0.278 OA
DOCKED: BRANCH  42  43
DOCKED: ATOM     43  P   UNL d   1      -1.336   1.942 -14.877 -0.13 -0.01    +0.473 P 
DOCKED: ATOM     44  O   UNL d   1      -2.147   2.768 -15.815 -0.04 -0.01    -0.228 OA
DOCKED: BRANCH  43  45
DOCKED: ATOM     45  O   UNL d   1      -0.596   2.780 -13.745 -0.19 +0.01    -0.303 OA
DOCKED: ATOM     46  H   UNL d   1       0.374   2.662 -13.789 -0.35 -0.05    +0.222 HD
DOCKED: ENDBRANCH  43  45
DOCKED: BRANCH  43  47
DOCKED: ATOM     47  O   UNL d   1      -0.116   1.140 -15.539 -0.16 +0.02    -0.303 OA
DOCKED: ATOM     48  H   UNL d   1      -0.421   0.247 -15.800 +0.08 +0.00    +0.222 HD
DOCKED: ENDBRANCH  43  47
DOCKED: ENDBRANCH  42  43
DOCKED: ENDBRANCH   4  42
DOCKED: TORSDOF 24
DOCKED: TER
DOCKED: ENDMDL
________________________________________________________________________________


	BEGINNING GENETIC ALGORITHM DOCKING 8 of 100
Run: 8 Seed: 1178523117 989742569 [ Run 8 of 100 GA/GALS ]
Beginning LAMARCKIAN GENETIC ALGORITHM (LGA), with a maximum of 25000000 energy evaluations.

Final-Value: -20.932


	FINAL GENETIC ALGORITHM DOCKED STATE
	_______________________________________________


Detailed state:  trans -10.391 -15.290 2.364 quatxyzw -0.230477 0.698378 0.578548 0.352746 center 0.035 0.082 -0.065 ntor 24 97.6322 107.9878 137.7159 27.4353 48.2273 -138.0449 -14.2853 -167.8882 33.5416 -6.9002 1.3448 179.8800 -72.6575 29.9661 -63.5387 -59.4969 136.6268 156.7675 -147.8409 -21.3215 168.0436 20.6360 -10.1912 -18.4543
State:	-10.391 -15.290   2.364  -0.246  0.746  0.618 138.689     97.63  107.99  137.72   27.44   48.23 -138.04  -14.29 -167.89   33.54   -6.90    1.34  179.88  -72.66   29.97  -63.54  -59.50  136.63  156.77 -147.84  -21.32  168.04   20.64  -10.19  -18.45

DOCKED: MODEL        8
DOCKED: USER    Run = 8
DOCKED: USER    DPF = D:/Protein_go_brrr/autodock/final/AncA/IHP/dock.dpf
DOCKED: USER  
DOCKED: USER    Estimated Free Energy of Binding    =   +1.26 kcal/mol  [=(1)+(2)+(3)-(4)]
DOCKED: USER    
DOCKED: USER    (1) Final Intermolecular Energy     =   -5.89 kcal/mol
DOCKED: USER        vdW + Hbond + desolv Energy     =   -5.75 kcal/mol
DOCKED: USER        Electrostatic Energy            =   -0.14 kcal/mol
DOCKED: USER    (2) Final Total Internal Energy     =  -15.04 kcal/mol
DOCKED: USER    (3) Torsional Free Energy           =   +7.16 kcal/mol
DOCKED: USER    (4) Unbound System's Energy  [=(2)] =  -15.04 kcal/mol
DOCKED: USER    
DOCKED: USER    
DOCKED: USER    NEWDPF move IHP_ideal_opt.pdbqt
DOCKED: USER    NEWDPF about 0.035000 0.082000 -0.065000
DOCKED: USER    NEWDPF tran0 -10.390691 -15.290137 2.364466
DOCKED: USER    NEWDPF quaternion0 -0.230477 0.698378 0.578548 0.352746
DOCKED: USER    NEWDPF axisangle0 -0.246310 0.746355 0.618293 138.689250
DOCKED: USER    NEWDPF quat0 -0.246310 0.746355 0.618293 138.689250
DOCKED: USER    NEWDPF dihe0 97.63 107.99 137.72 27.44 48.23 -138.04 -14.29 -167.89 33.54 -6.90 1.34 179.88 -72.66 29.97 -63.54 -59.50 136.63 156.77 -147.84 -21.32 168.04 20.64 -10.19 -18.45 
DOCKED: USER  keepresnum = 1 
DOCKED: USER  
DOCKED: REMARK  24 active torsions:
DOCKED: REMARK  status: ('A' for Active; 'I' for Inactive)
DOCKED: REMARK    1  A    between atoms: C_1  and  O_7 
DOCKED: REMARK    2  A    between atoms: C_2  and  O_12 
DOCKED: REMARK    3  A    between atoms: C_3  and  O_17 
DOCKED: REMARK    4  A    between atoms: C_4  and  O_22 
DOCKED: REMARK    5  A    between atoms: C_5  and  O_27 
DOCKED: REMARK    6  A    between atoms: C_6  and  O_32 
DOCKED: REMARK    7  A    between atoms: O_7  and  P_8 
DOCKED: REMARK    8  A    between atoms: P_8  and  O_10 
DOCKED: REMARK    9  A    between atoms: P_8  and  O_11 
DOCKED: REMARK   10  A    between atoms: O_12  and  P_13 
DOCKED: REMARK   11  A    between atoms: P_13  and  O_15 
DOCKED: REMARK   12  A    between atoms: P_13  and  O_16 
DOCKED: REMARK   13  A    between atoms: O_17  and  P_18 
DOCKED: REMARK   14  A    between atoms: P_18  and  O_20 
DOCKED: REMARK   15  A    between atoms: P_18  and  O_21 
DOCKED: REMARK   16  A    between atoms: O_22  and  P_23 
DOCKED: REMARK   17  A    between atoms: P_23  and  O_25 
DOCKED: REMARK   18  A    between atoms: P_23  and  O_26 
DOCKED: REMARK   19  A    between atoms: O_27  and  P_28 
DOCKED: REMARK   20  A    between atoms: P_28  and  O_30 
DOCKED: REMARK   21  A    between atoms: P_28  and  O_31 
DOCKED: REMARK   22  A    between atoms: O_32  and  P_33 
DOCKED: REMARK   23  A    between atoms: P_33  and  O_35 
DOCKED: REMARK   24  A    between atoms: P_33  and  O_36 
DOCKED: USER                              x       y       z     vdW  Elec       q    Type
DOCKED: USER                           _______ _______ _______ _____ _____    ______ ____
DOCKED: ROOT
DOCKED: ATOM      1  C   UNL d   1     -11.876 -15.894   1.721 -0.10 +0.06    +0.194 C 
DOCKED: ATOM      2  C   UNL d   1     -10.860 -15.401   0.689 -0.09 +0.08    +0.194 C 
DOCKED: ATOM      3  C   UNL d   1     -10.206 -14.087   1.120 -0.13 +0.11    +0.194 C 
DOCKED: ATOM      4  C   UNL d   1      -9.618 -14.142   2.528 -0.16 +0.13    +0.194 C 
DOCKED: ATOM      5  C   UNL d   1     -10.557 -14.734   3.570 -0.15 +0.09    +0.194 C 
DOCKED: ATOM      6  C   UNL d   1     -11.259 -16.015   3.115 -0.07 +0.07    +0.194 C 
DOCKED: ENDROOT
DOCKED: BRANCH   1   7
DOCKED: ATOM      7  O   UNL d   1     -12.310 -17.199   1.332 -0.03 -0.08    -0.278 OA
DOCKED: BRANCH   7   8
DOCKED: ATOM      8  P   UNL d   1     -11.494 -18.462   1.870 +0.01 +0.14    +0.473 P 
DOCKED: ATOM      9  O   UNL d   1     -10.103 -18.173   2.312 +0.00 -0.09    -0.228 OA
DOCKED: BRANCH   8  10
DOCKED: ATOM     10  O   UNL d   1     -12.413 -19.050   3.034 +0.00 -0.07    -0.303 OA
DOCKED: ATOM     11  H   UNL d   1     -12.535 -18.374   3.726 +0.02 +0.05    +0.222 HD
DOCKED: ENDBRANCH   8  10
DOCKED: BRANCH   8  12
DOCKED: ATOM     12  O   UNL d   1     -11.646 -19.565   0.737 -0.00 -0.08    -0.303 OA
DOCKED: ATOM     13  H   UNL d   1     -11.248 -19.295  -0.121 +0.00 +0.06    +0.222 HD
DOCKED: ENDBRANCH   8  12
DOCKED: ENDBRANCH   7   8
DOCKED: ENDBRANCH   1   7
DOCKED: BRANCH   2  14
DOCKED: ATOM     14  O   UNL d   1      -9.836 -16.391   0.532 -0.01 -0.15    -0.278 OA
DOCKED: BRANCH  14  15
DOCKED: ATOM     15  P   UNL d   1      -9.811 -17.181  -0.861 +0.02 +0.23    +0.473 P 
DOCKED: ATOM     16  O   UNL d   1      -9.070 -16.533  -1.988 -0.03 -0.15    -0.228 OA
DOCKED: BRANCH  15  17
DOCKED: ATOM     17  O   UNL d   1      -9.230 -18.615  -0.483 +0.01 -0.14    -0.303 OA
DOCKED: ATOM     18  H   UNL d   1      -9.615 -18.942   0.353 +0.01 +0.09    +0.222 HD
DOCKED: ENDBRANCH  15  17
DOCKED: BRANCH  15  19
DOCKED: ATOM     19  O   UNL d   1     -11.338 -17.521  -1.151 -0.01 -0.10    -0.303 OA
DOCKED: ATOM     20  H   UNL d   1     -11.837 -17.669  -0.327 +0.02 +0.07    +0.222 HD
DOCKED: ENDBRANCH  15  19
DOCKED: ENDBRANCH  14  15
DOCKED: ENDBRANCH   2  14
DOCKED: BRANCH   6  21
DOCKED: ATOM     21  O   UNL d   1     -12.330 -16.246   4.028 -0.06 -0.08    -0.278 OA
DOCKED: BRANCH  21  22
DOCKED: ATOM     22  P   UNL d   1     -13.551 -15.221   4.091 -0.17 +0.11    +0.473 P 
DOCKED: ATOM     23  O   UNL d   1     -13.273 -13.777   3.839 -0.38 -0.05    -0.228 OA
DOCKED: BRANCH  22  24
DOCKED: ATOM     24  O   UNL d   1     -14.587 -15.887   3.083 -0.15 -0.05    -0.303 OA
DOCKED: ATOM     25  H   UNL d   1     -14.094 -16.532   2.515 +0.05 +0.04    +0.222 HD
DOCKED: ENDBRANCH  22  24
DOCKED: BRANCH  22  26
DOCKED: ATOM     26  O   UNL d   1     -14.199 -15.574   5.514 -0.14 -0.06    -0.303 OA
DOCKED: ATOM     27  H   UNL d   1     -13.491 -15.615   6.189 +0.06 +0.06    +0.222 HD
DOCKED: ENDBRANCH  22  26
DOCKED: ENDBRANCH  21  22
DOCKED: ENDBRANCH   6  21
DOCKED: BRANCH   3  28
DOCKED: ATOM     28  O   UNL d   1      -9.099 -13.856   0.258 -0.12 -0.21    -0.278 OA
DOCKED: BRANCH  28  29
DOCKED: ATOM     29  P   UNL d   1      -8.903 -12.437  -0.438 -0.15 +0.31    +0.473 P 
DOCKED: ATOM     30  O   UNL d   1      -9.640 -12.241  -1.713 -0.20 -0.11    -0.228 OA
DOCKED: BRANCH  29  31
DOCKED: ATOM     31  O   UNL d   1      -9.291 -11.473   0.780 -0.51 -0.18    -0.303 OA
DOCKED: ATOM     32  H   UNL d   1      -8.950 -11.870   1.615 +0.12 +0.16    +0.222 HD
DOCKED: ENDBRANCH  29  31
DOCKED: BRANCH  29  33
DOCKED: ATOM     33  O   UNL d   1      -7.317 -12.309  -0.496 -0.17 -0.29    -0.303 OA
DOCKED: ATOM     34  H   UNL d   1      -7.026 -11.625   0.155 +0.11 +0.22    +0.222 HD
DOCKED: ENDBRANCH  29  33
DOCKED: ENDBRANCH  28  29
DOCKED: ENDBRANCH   3  28
DOCKED: BRANCH   5  35
DOCKED: ATOM     35  O   UNL d   1      -9.734 -15.079   4.682 -0.06 -0.15    -0.278 OA
DOCKED: BRANCH  35  36
DOCKED: ATOM     36  P   UNL d   1      -9.999 -14.426   6.113 -0.12 +0.21    +0.473 P 
DOCKED: ATOM     37  O   UNL d   1      -9.058 -14.845   7.198 -0.11 -0.09    -0.228 OA
DOCKED: BRANCH  36  38
DOCKED: ATOM     38  O   UNL d   1      -9.957 -12.871   5.775 -0.33 -0.15    -0.303 OA
DOCKED: ATOM     39  H   UNL d   1      -9.274 -12.710   5.088 +0.13 +0.11    +0.222 HD
DOCKED: ENDBRANCH  36  38
DOCKED: BRANCH  36  40
DOCKED: ATOM     40  O   UNL d   1     -11.544 -14.726   6.343 -0.63 -0.15    -0.303 OA
DOCKED: ATOM     41  H   UNL d   1     -12.083 -14.479   5.559 +0.08 +0.14    +0.222 HD
DOCKED: ENDBRANCH  36  40
DOCKED: ENDBRANCH  35  36
DOCKED: ENDBRANCH   5  35
DOCKED: BRANCH   4  42
DOCKED: ATOM     42  O   UNL d   1      -9.353 -12.790   2.919 -0.21 -0.18    -0.278 OA
DOCKED: BRANCH  42  43
DOCKED: ATOM     43  P   UNL d   1      -7.912 -12.423   3.497 -0.29 +0.48    +0.473 P 
DOCKED: ATOM     44  O   UNL d   1      -7.804 -11.208   4.351 -0.49 -0.12    -0.228 OA
DOCKED: BRANCH  43  45
DOCKED: ATOM     45  O   UNL d   1      -7.473 -13.770   4.223 -0.53 -0.46    -0.303 OA
DOCKED: ATOM     46  H   UNL d   1      -7.986 -13.918   5.043 +0.10 +0.20    +0.222 HD
DOCKED: ENDBRANCH  43  45
DOCKED: BRANCH  43  47
DOCKED: ATOM     47  O   UNL d   1      -6.980 -12.438   2.193 -0.98 -0.49    -0.303 OA
DOCKED: ATOM     48  H   UNL d   1      -7.520 -12.679   1.413 +0.09 +0.29    +0.222 HD
DOCKED: ENDBRANCH  43  47
DOCKED: ENDBRANCH  42  43
DOCKED: ENDBRANCH   4  42
DOCKED: TORSDOF 24
DOCKED: TER
DOCKED: ENDMDL
________________________________________________________________________________


	BEGINNING GENETIC ALGORITHM DOCKING 9 of 100
Run: 9 Seed: 1936121527 954206040 [ Run 9 of 100 GA/GALS ]
Beginning LAMARCKIAN GENETIC ALGORITHM (LGA), with a maximum of 25000000 energy evaluations.

Final-Value: -16.265


	FINAL GENETIC ALGORITHM DOCKED STATE
	_______________________________________________


Detailed state:  trans 8.744 3.896 15.436 quatxyzw 0.345806 -0.063498 -0.794578 0.495007 center 0.035 0.082 -0.065 ntor 24 80.5181 138.6178 -180.0000 -8.0307 -88.7009 -162.4118 -62.2943 15.1725 -0.1767 -156.0600 114.0167 -152.7053 24.5858 179.6229 175.5898 -172.5525 -128.4433 141.6029 -129.9016 17.9287 -173.5482 24.5035 152.7274 -12.3097
State:	  8.744   3.896  15.436   0.398 -0.073 -0.914 120.660     80.52  138.62 -180.00   -8.03  -88.70 -162.41  -62.29   15.17   -0.18 -156.06  114.02 -152.71   24.59  179.62  175.59 -172.55 -128.44  141.60 -129.90   17.93 -173.55   24.50  152.73  -12.31

DOCKED: MODEL        9
DOCKED: USER    Run = 9
DOCKED: USER    DPF = D:/Protein_go_brrr/autodock/final/AncA/IHP/dock.dpf
DOCKED: USER  
DOCKED: USER    Estimated Free Energy of Binding    =   +3.47 kcal/mol  [=(1)+(2)+(3)-(4)]
DOCKED: USER    
DOCKED: USER    (1) Final Intermolecular Energy     =   -3.69 kcal/mol
DOCKED: USER        vdW + Hbond + desolv Energy     =   -3.33 kcal/mol
DOCKED: USER        Electrostatic Energy            =   -0.36 kcal/mol
DOCKED: USER    (2) Final Total Internal Energy     =  -12.58 kcal/mol
DOCKED: USER    (3) Torsional Free Energy           =   +7.16 kcal/mol
DOCKED: USER    (4) Unbound System's Energy  [=(2)] =  -12.58 kcal/mol
DOCKED: USER    
DOCKED: USER    
DOCKED: USER    NEWDPF move IHP_ideal_opt.pdbqt
DOCKED: USER    NEWDPF about 0.035000 0.082000 -0.065000
DOCKED: USER    NEWDPF tran0 8.744398 3.896482 15.436303
DOCKED: USER    NEWDPF quaternion0 0.345806 -0.063498 -0.794578 0.495007
DOCKED: USER    NEWDPF axisangle0 0.397986 -0.073079 -0.914476 120.659563
DOCKED: USER    NEWDPF quat0 0.397986 -0.073079 -0.914476 120.659563
DOCKED: USER    NEWDPF dihe0 80.52 138.62 -180.00 -8.03 -88.70 -162.41 -62.29 15.17 -0.18 -156.06 114.02 -152.71 24.59 179.62 175.59 -172.55 -128.44 141.60 -129.90 17.93 -173.55 24.50 152.73 -12.31 
DOCKED: USER  keepresnum = 1 
DOCKED: USER  
DOCKED: REMARK  24 active torsions:
DOCKED: REMARK  status: ('A' for Active; 'I' for Inactive)
DOCKED: REMARK    1  A    between atoms: C_1  and  O_7 
DOCKED: REMARK    2  A    between atoms: C_2  and  O_12 
DOCKED: REMARK    3  A    between atoms: C_3  and  O_17 
DOCKED: REMARK    4  A    between atoms: C_4  and  O_22 
DOCKED: REMARK    5  A    between atoms: C_5  and  O_27 
DOCKED: REMARK    6  A    between atoms: C_6  and  O_32 
DOCKED: REMARK    7  A    between atoms: O_7  and  P_8 
DOCKED: REMARK    8  A    between atoms: P_8  and  O_10 
DOCKED: REMARK    9  A    between atoms: P_8  and  O_11 
DOCKED: REMARK   10  A    between atoms: O_12  and  P_13 
DOCKED: REMARK   11  A    between atoms: P_13  and  O_15 
DOCKED: REMARK   12  A    between atoms: P_13  and  O_16 
DOCKED: REMARK   13  A    between atoms: O_17  and  P_18 
DOCKED: REMARK   14  A    between atoms: P_18  and  O_20 
DOCKED: REMARK   15  A    between atoms: P_18  and  O_21 
DOCKED: REMARK   16  A    between atoms: O_22  and  P_23 
DOCKED: REMARK   17  A    between atoms: P_23  and  O_25 
DOCKED: REMARK   18  A    between atoms: P_23  and  O_26 
DOCKED: REMARK   19  A    between atoms: O_27  and  P_28 
DOCKED: REMARK   20  A    between atoms: P_28  and  O_30 
DOCKED: REMARK   21  A    between atoms: P_28  and  O_31 
DOCKED: REMARK   22  A    between atoms: O_32  and  P_33 
DOCKED: REMARK   23  A    between atoms: P_33  and  O_35 
DOCKED: REMARK   24  A    between atoms: P_33  and  O_36 
DOCKED: USER                              x       y       z     vdW  Elec       q    Type
DOCKED: USER                           _______ _______ _______ _____ _____    ______ ____
DOCKED: ROOT
DOCKED: ATOM      1  C   UNL d   1       8.758   5.623  15.479 -0.03 +0.00    +0.194 C 
DOCKED: ATOM      2  C   UNL d   1       9.943   4.936  16.159 -0.01 +0.01    +0.194 C 
DOCKED: ATOM      3  C   UNL d   1       9.497   3.736  16.998 -0.01 +0.01    +0.194 C 
DOCKED: ATOM      4  C   UNL d   1       8.627   2.751  16.222 -0.02 +0.01    +0.194 C 
DOCKED: ATOM      5  C   UNL d   1       7.499   3.406  15.434 -0.05 +0.00    +0.194 C 
DOCKED: ATOM      6  C   UNL d   1       7.932   4.643  14.645 -0.09 +0.00    +0.194 C 
DOCKED: ENDROOT
DOCKED: BRANCH   1   7
DOCKED: ATOM      7  O   UNL d   1       9.270   6.616  14.586 -0.05 -0.00    -0.278 OA
DOCKED: BRANCH   7   8
DOCKED: ATOM      8  P   UNL d   1       9.186   6.340  13.015 -0.16 +0.05    +0.473 P 
DOCKED: ATOM      9  O   UNL d   1       7.837   6.520  12.414 -0.20 +0.01    -0.228 OA
DOCKED: BRANCH   8  10
DOCKED: ATOM     10  O   UNL d   1      10.287   7.313  12.393 -0.40 -0.07    -0.303 OA
DOCKED: ATOM     11  H   UNL d   1       9.941   8.224  12.369 -0.46 -0.18    +0.222 HD
DOCKED: ENDBRANCH   8  10
DOCKED: BRANCH   8  12
DOCKED: ATOM     12  O   UNL d   1       9.852   4.911  12.811 -0.18 -0.08    -0.303 OA
DOCKED: ATOM     13  H   UNL d   1       9.198   4.177  12.820 +0.08 +0.04    +0.222 HD
DOCKED: ENDBRANCH   8  12
DOCKED: ENDBRANCH   7   8
DOCKED: ENDBRANCH   1   7
DOCKED: BRANCH   2  14
DOCKED: ATOM     14  O   UNL d   1      10.856   4.478  15.155 -0.02 -0.03    -0.278 OA
DOCKED: BRANCH  14  15
DOCKED: ATOM     15  P   UNL d   1      12.405   4.434  15.562 -0.00 +0.05    +0.473 P 
DOCKED: ATOM     16  O   UNL d   1      13.353   5.182  14.678 -0.02 -0.03    -0.228 OA
DOCKED: BRANCH  15  17
DOCKED: ATOM     17  O   UNL d   1      12.424   4.953  17.068 +0.00 -0.02    -0.303 OA
DOCKED: ATOM     18  H   UNL d   1      12.236   4.227  17.693 +0.00 +0.01    +0.222 HD
DOCKED: ENDBRANCH  15  17
DOCKED: BRANCH  15  19
DOCKED: ATOM     19  O   UNL d   1      12.721   2.887  15.753 -0.01 -0.02    -0.303 OA
DOCKED: ATOM     20  H   UNL d   1      12.257   2.517  16.527 +0.01 +0.01    +0.222 HD
DOCKED: ENDBRANCH  15  19
DOCKED: ENDBRANCH  14  15
DOCKED: ENDBRANCH   2  14
DOCKED: BRANCH   6  21
DOCKED: ATOM     21  O   UNL d   1       6.741   5.323  14.257 -0.11 +0.01    -0.278 OA
DOCKED: BRANCH  21  22
DOCKED: ATOM     22  P   UNL d   1       6.039   6.332  15.274 -0.04 -0.04    +0.473 P 
DOCKED: ATOM     23  O   UNL d   1       4.574   6.571  15.132 -0.11 +0.03    -0.228 OA
DOCKED: BRANCH  22  24
DOCKED: ATOM     24  O   UNL d   1       6.484   5.738  16.682 -0.00 +0.01    -0.303 OA
DOCKED: ATOM     25  H   UNL d   1       5.811   6.008  17.357 +0.01 -0.00    +0.222 HD
DOCKED: ENDBRANCH  22  24
DOCKED: BRANCH  22  26
DOCKED: ATOM     26  O   UNL d   1       6.978   7.626  15.149 -0.04 +0.03    -0.303 OA
DOCKED: ATOM     27  H   UNL d   1       7.438   7.607  14.285 +0.07 -0.03    +0.222 HD
DOCKED: ENDBRANCH  22  26
DOCKED: ENDBRANCH  21  22
DOCKED: ENDBRANCH   6  21
DOCKED: BRANCH   3  28
DOCKED: ATOM     28  O   UNL d   1      10.664   3.007  17.356 -0.00 -0.01    -0.278 OA
DOCKED: BRANCH  28  29
DOCKED: ATOM     29  P   UNL d   1      10.859   2.484  18.848 +0.00 +0.02    +0.473 P 
DOCKED: ATOM     30  O   UNL d   1      11.859   1.399  19.021 +0.00 -0.01    -0.228 OA
DOCKED: BRANCH  29  31
DOCKED: ATOM     31  O   UNL d   1      11.153   3.868  19.594 +0.00 -0.01    -0.303 OA
DOCKED: ATOM     32  H   UNL d   1      11.296   4.567  18.914 +0.00 +0.01    +0.222 HD
DOCKED: ENDBRANCH  29  31
DOCKED: BRANCH  29  33
DOCKED: ATOM     33  O   UNL d   1       9.363   2.159  19.286 +0.00 -0.01    -0.303 OA
DOCKED: ATOM     34  H   UNL d   1       9.070   1.327  18.839 +0.01 +0.00    +0.222 HD
DOCKED: ENDBRANCH  29  33
DOCKED: ENDBRANCH  28  29
DOCKED: ENDBRANCH   3  28
DOCKED: BRANCH   5  35
DOCKED: ATOM     35  O   UNL d   1       7.073   2.430  14.485 -0.11 -0.01    -0.278 OA
DOCKED: BRANCH  35  36
DOCKED: ATOM     36  P   UNL d   1       7.940   2.147  13.177 -0.19 +0.01    +0.473 P 
DOCKED: ATOM     37  O   UNL d   1       7.694   3.073  12.028 -0.24 -0.02    -0.228 OA
DOCKED: BRANCH  36  38
DOCKED: ATOM     38  O   UNL d   1       9.424   2.198  13.752 -0.12 -0.02    -0.303 OA
DOCKED: ATOM     39  H   UNL d   1       9.644   3.124  13.992 +0.07 +0.02    +0.222 HD
DOCKED: ENDBRANCH  36  38
DOCKED: BRANCH  36  40
DOCKED: ATOM     40  O   UNL d   1       7.679   0.599  12.925 -0.20 +0.02    -0.303 OA
DOCKED: ATOM     41  H   UNL d   1       7.916   0.334  12.008 -0.46 -0.12    +0.222 HD
DOCKED: ENDBRANCH  36  40
DOCKED: ENDBRANCH  35  36
DOCKED: ENDBRANCH   5  35
DOCKED: BRANCH   4  42
DOCKED: ATOM     42  O   UNL d   1       8.019   1.886  17.187 -0.01 -0.01    -0.278 OA
DOCKED: BRANCH  42  43
DOCKED: ATOM     43  P   UNL d   1       8.236   0.311  17.056 -0.02 +0.01    +0.473 P 
DOCKED: ATOM     44  O   UNL d   1       7.457  -0.568  17.972 -0.03 +0.00    -0.228 OA
DOCKED: BRANCH  43  45
DOCKED: ATOM     45  O   UNL d   1       7.960   0.048  15.511 -0.24 -0.02    -0.303 OA
DOCKED: ATOM     46  H   UNL d   1       8.353   0.748  14.953 +0.06 +0.01    +0.222 HD
DOCKED: ENDBRANCH  43  45
DOCKED: BRANCH  43  47
DOCKED: ATOM     47  O   UNL d   1       9.829   0.153  17.134 -0.01 -0.01    -0.303 OA
DOCKED: ATOM     48  H   UNL d   1      10.204   0.906  17.636 +0.01 +0.01    +0.222 HD
DOCKED: ENDBRANCH  43  47
DOCKED: ENDBRANCH  42  43
DOCKED: ENDBRANCH   4  42
DOCKED: TORSDOF 24
DOCKED: TER
DOCKED: ENDMDL
________________________________________________________________________________


	BEGINNING GENETIC ALGORITHM DOCKING 10 of 100
Run: 10 Seed: 434118323 1831816054 [ Run 10 of 100 GA/GALS ]
Beginning LAMARCKIAN GENETIC ALGORITHM (LGA), with a maximum of 25000000 energy evaluations.

Final-Value: -17.037


	FINAL GENETIC ALGORITHM DOCKED STATE
	_______________________________________________


Detailed state:  trans 8.501 8.452 -18.936 quatxyzw 0.863931 -0.280117 0.360398 -0.212767 center 0.035 0.082 -0.065 ntor 24 180.0000 -9.7509 68.4321 61.6455 177.4627 81.2071 -107.8847 -25.0535 89.8815 27.8066 24.9472 -39.0666 21.3253 -15.7034 62.3515 62.5561 110.1334 -94.2470 -135.8496 -13.6556 175.0232 158.2180 -5.2816 -180.0000
State:	  8.501   8.452 -18.936   0.884 -0.287  0.369 -155.431    180.00   -9.75   68.43   61.65  177.46   81.21 -107.88  -25.05   89.88   27.81   24.95  -39.07   21.33  -15.70   62.35   62.56  110.13  -94.25 -135.85  -13.66  175.02  158.22   -5.28 -180.00

DOCKED: MODEL       10
DOCKED: USER    Run = 10
DOCKED: USER    DPF = D:/Protein_go_brrr/autodock/final/AncA/IHP/dock.dpf
DOCKED: USER  
DOCKED: USER    Estimated Free Energy of Binding    =   +3.84 kcal/mol  [=(1)+(2)+(3)-(4)]
DOCKED: USER    
DOCKED: USER    (1) Final Intermolecular Energy     =   -3.32 kcal/mol
DOCKED: USER        vdW + Hbond + desolv Energy     =   -2.94 kcal/mol
DOCKED: USER        Electrostatic Energy            =   -0.38 kcal/mol
DOCKED: USER    (2) Final Total Internal Energy     =  -13.72 kcal/mol
DOCKED: USER    (3) Torsional Free Energy           =   +7.16 kcal/mol
DOCKED: USER    (4) Unbound System's Energy  [=(2)] =  -13.72 kcal/mol
DOCKED: USER    
DOCKED: USER    
DOCKED: USER    NEWDPF move IHP_ideal_opt.pdbqt
DOCKED: USER    NEWDPF about 0.035000 0.082000 -0.065000
DOCKED: USER    NEWDPF tran0 8.500628 8.451682 -18.935998
DOCKED: USER    NEWDPF quaternion0 0.863931 -0.280117 0.360398 -0.212767
DOCKED: USER    NEWDPF axisangle0 0.884176 -0.286682 0.368844 -155.430888
DOCKED: USER    NEWDPF quat0 0.884176 -0.286682 0.368844 -155.430888
DOCKED: USER    NEWDPF dihe0 180.00 -9.75 68.43 61.65 177.46 81.21 -107.88 -25.05 89.88 27.81 24.95 -39.07 21.33 -15.70 62.35 62.56 110.13 -94.25 -135.85 -13.66 175.02 158.22 -5.28 -180.00 
DOCKED: USER  keepresnum = 1 
DOCKED: USER  
DOCKED: REMARK  24 active torsions:
DOCKED: REMARK  status: ('A' for Active; 'I' for Inactive)
DOCKED: REMARK    1  A    between atoms: C_1  and  O_7 
DOCKED: REMARK    2  A    between atoms: C_2  and  O_12 
DOCKED: REMARK    3  A    between atoms: C_3  and  O_17 
DOCKED: REMARK    4  A    between atoms: C_4  and  O_22 
DOCKED: REMARK    5  A    between atoms: C_5  and  O_27 
DOCKED: REMARK    6  A    between atoms: C_6  and  O_32 
DOCKED: REMARK    7  A    between atoms: O_7  and  P_8 
DOCKED: REMARK    8  A    between atoms: P_8  and  O_10 
DOCKED: REMARK    9  A    between atoms: P_8  and  O_11 
DOCKED: REMARK   10  A    between atoms: O_12  and  P_13 
DOCKED: REMARK   11  A    between atoms: P_13  and  O_15 
DOCKED: REMARK   12  A    between atoms: P_13  and  O_16 
DOCKED: REMARK   13  A    between atoms: O_17  and  P_18 
DOCKED: REMARK   14  A    between atoms: P_18  and  O_20 
DOCKED: REMARK   15  A    between atoms: P_18  and  O_21 
DOCKED: REMARK   16  A    between atoms: O_22  and  P_23 
DOCKED: REMARK   17  A    between atoms: P_23  and  O_25 
DOCKED: REMARK   18  A    between atoms: P_23  and  O_26 
DOCKED: REMARK   19  A    between atoms: O_27  and  P_28 
DOCKED: REMARK   20  A    between atoms: P_28  and  O_30 
DOCKED: REMARK   21  A    between atoms: P_28  and  O_31 
DOCKED: REMARK   22  A    between atoms: O_32  and  P_33 
DOCKED: REMARK   23  A    between atoms: P_33  and  O_35 
DOCKED: REMARK   24  A    between atoms: P_33  and  O_36 
DOCKED: USER                              x       y       z     vdW  Elec       q    Type
DOCKED: USER                           _______ _______ _______ _____ _____    ______ ____
DOCKED: ROOT
DOCKED: ATOM      1  C   UNL d   1      10.196   8.255 -18.667 -0.04 +0.06    +0.194 C 
DOCKED: ATOM      2  C   UNL d   1       9.794   9.483 -19.487 -0.00 +0.04    +0.194 C 
DOCKED: ATOM      3  C   UNL d   1       8.714   9.148 -20.517 +0.00 +0.04    +0.194 C 
DOCKED: ATOM      4  C   UNL d   1       7.505   8.438 -19.912 -0.00 +0.05    +0.194 C 
DOCKED: ATOM      5  C   UNL d   1       7.864   7.276 -18.994 -0.05 +0.10    +0.194 C 
DOCKED: ATOM      6  C   UNL d   1       8.988   7.592 -18.005 -0.10 +0.11    +0.194 C 
DOCKED: ENDROOT
DOCKED: BRANCH   1   7
DOCKED: ATOM      7  O   UNL d   1      11.073   8.683 -17.623 -0.04 -0.09    -0.278 OA
DOCKED: BRANCH   7   8
DOCKED: ATOM      8  P   UNL d   1      10.477   8.842 -16.149 -0.12 +0.20    +0.473 P 
DOCKED: ATOM      9  O   UNL d   1      10.185   7.564 -15.445 -0.72 -0.21    -0.228 OA
DOCKED: BRANCH   8  10
DOCKED: ATOM     10  O   UNL d   1      11.553   9.744 -15.392 -0.05 -0.08    -0.303 OA
DOCKED: ATOM     11  H   UNL d   1      12.075  10.247 -16.045 +0.04 +0.05    +0.222 HD
DOCKED: ENDBRANCH   8  10
DOCKED: BRANCH   8  12
DOCKED: ATOM     12  O   UNL d   1       9.254   9.844 -16.304 -0.03 -0.10    -0.303 OA
DOCKED: ATOM     13  H   UNL d   1       9.503  10.695 -16.730 +0.03 +0.05    +0.222 HD
DOCKED: ENDBRANCH   8  12
DOCKED: ENDBRANCH   7   8
DOCKED: ENDBRANCH   1   7
DOCKED: BRANCH   2  14
DOCKED: ATOM     14  O   UNL d   1       9.286  10.489 -18.602 -0.00 -0.05    -0.278 OA
DOCKED: BRANCH  14  15
DOCKED: ATOM     15  P   UNL d   1      10.094  11.870 -18.548 +0.00 +0.07    +0.473 P 
DOCKED: ATOM     16  O   UNL d   1      10.614  12.396 -19.849 +0.00 -0.02    -0.228 OA
DOCKED: BRANCH  15  17
DOCKED: ATOM     17  O   UNL d   1       9.091  12.879 -17.831 +0.00 -0.04    -0.303 OA
DOCKED: ATOM     18  H   UNL d   1       8.162  12.617 -17.982 +0.00 +0.03    +0.222 HD
DOCKED: ENDBRANCH  15  17
DOCKED: BRANCH  15  19
DOCKED: ATOM     19  O   UNL d   1      11.186  11.646 -17.413 -0.00 -0.05    -0.303 OA
DOCKED: ATOM     20  H   UNL d   1      11.141  10.745 -17.043 +0.02 +0.04    +0.222 HD
DOCKED: ENDBRANCH  15  19
DOCKED: ENDBRANCH  14  15
DOCKED: ENDBRANCH   2  14
DOCKED: BRANCH   6  21
DOCKED: ATOM     21  O   UNL d   1       9.433   6.345 -17.475 -0.18 -0.29    -0.278 OA
DOCKED: BRANCH  21  22
DOCKED: ATOM     22  P   UNL d   1      10.289   5.357 -18.389 -0.13 +0.35    +0.473 P 
DOCKED: ATOM     23  O   UNL d   1      11.776   5.455 -18.332 -0.06 -0.10    -0.228 OA
DOCKED: BRANCH  22  24
DOCKED: ATOM     24  O   UNL d   1       9.698   3.938 -17.977 -0.72 -0.43    -0.303 OA
DOCKED: ATOM     25  H   UNL d   1       9.197   3.577 -18.752 +0.03 +0.23    +0.222 HD
DOCKED: ENDBRANCH  22  24
DOCKED: BRANCH  22  26
DOCKED: ATOM     26  O   UNL d   1       9.624   5.588 -19.830 -0.02 -0.14    -0.303 OA
DOCKED: ATOM     27  H   UNL d   1       8.918   4.924 -19.968 +0.02 +0.12    +0.222 HD
DOCKED: ENDBRANCH  22  26
DOCKED: ENDBRANCH  21  22
DOCKED: ENDBRANCH   6  21
DOCKED: BRANCH   3  28
DOCKED: ATOM     28  O   UNL d   1       8.213  10.377 -21.027 +0.00 -0.04    -0.278 OA
DOCKED: BRANCH  28  29
DOCKED: ATOM     29  P   UNL d   1       6.960  11.082 -20.341 +0.00 +0.06    +0.473 P 
DOCKED: ATOM     30  O   UNL d   1       6.892  10.968 -18.861 -0.00 -0.04    -0.228 OA
DOCKED: BRANCH  29  31
DOCKED: ATOM     31  O   UNL d   1       7.100  12.555 -20.950 +0.00 -0.03    -0.303 OA
DOCKED: ATOM     32  H   UNL d   1       7.995  12.902 -20.730 +0.00 +0.02    +0.222 HD
DOCKED: ENDBRANCH  29  31
DOCKED: BRANCH  29  33
DOCKED: ATOM     33  O   UNL d   1       5.742  10.474 -21.167 +0.00 -0.04    -0.303 OA
DOCKED: ATOM     34  H   UNL d   1       5.957   9.543 -21.419 +0.00 +0.03    +0.222 HD
DOCKED: ENDBRANCH  29  33
DOCKED: ENDBRANCH  28  29
DOCKED: ENDBRANCH   3  28
DOCKED: BRANCH   5  35
DOCKED: ATOM     35  O   UNL d   1       6.691   7.012 -18.227 -0.06 -0.19    -0.278 OA
DOCKED: BRANCH  35  36
DOCKED: ATOM     36  P   UNL d   1       6.059   5.548 -18.200 -0.03 +0.48    +0.473 P 
DOCKED: ATOM     37  O   UNL d   1       5.255   5.215 -16.984 -0.71 -0.31    -0.228 OA
DOCKED: BRANCH  36  38
DOCKED: ATOM     38  O   UNL d   1       5.229   5.526 -19.560 -0.01 -0.13    -0.303 OA
DOCKED: ATOM     39  H   UNL d   1       5.572   6.226 -20.156 +0.01 +0.07    +0.222 HD
DOCKED: ENDBRANCH  36  38
DOCKED: BRANCH  36  40
DOCKED: ATOM     40  O   UNL d   1       7.320   4.628 -18.507 -0.08 -0.43    -0.303 OA
DOCKED: ATOM     41  H   UNL d   1       8.080   5.153 -18.843 +0.03 +0.23    +0.222 HD
DOCKED: ENDBRANCH  36  40
DOCKED: ENDBRANCH  35  36
DOCKED: ENDBRANCH   5  35
DOCKED: BRANCH   4  42
DOCKED: ATOM     42  O   UNL d   1       6.754   7.896 -21.003 +0.00 -0.06    -0.278 OA
DOCKED: BRANCH  42  43
DOCKED: ATOM     43  P   UNL d   1       7.371   6.687 -21.840 +0.01 +0.10    +0.473 P 
DOCKED: ATOM     44  O   UNL d   1       8.779   6.823 -22.308 +0.00 -0.04    -0.228 OA
DOCKED: BRANCH  43  45
DOCKED: ATOM     45  O   UNL d   1       7.121   5.438 -20.886 +0.00 -0.10    -0.303 OA
DOCKED: ATOM     46  H   UNL d   1       7.404   5.626 -19.969 +0.02 +0.11    +0.222 HD
DOCKED: ENDBRANCH  43  45
DOCKED: BRANCH  43  47
DOCKED: ATOM     47  O   UNL d   1       6.281   6.442 -22.990 +0.00 -0.04    -0.303 OA
DOCKED: ATOM     48  H   UNL d   1       6.740   6.255 -23.835 +0.00 +0.03    +0.222 HD
DOCKED: ENDBRANCH  43  47
DOCKED: ENDBRANCH  42  43
DOCKED: ENDBRANCH   4  42
DOCKED: TORSDOF 24
DOCKED: TER
DOCKED: ENDMDL
________________________________________________________________________________


	BEGINNING GENETIC ALGORITHM DOCKING 11 of 100
Run: 11 Seed: 1004203934 628367927 [ Run 11 of 100 GA/GALS ]
Beginning LAMARCKIAN GENETIC ALGORITHM (LGA), with a maximum of 25000000 energy evaluations.

Final-Value: -16.570


	FINAL GENETIC ALGORITHM DOCKED STATE
	_______________________________________________


Detailed state:  trans 2.330 -12.526 1.199 quatxyzw -0.277162 0.696164 -0.550920 -0.367457 center 0.035 0.082 -0.065 ntor 24 -98.1500 -4.2386 2.3764 -175.8419 -16.4649 160.2287 23.4770 -96.6717 114.9015 -38.9804 89.2887 -53.7711 69.5580 -93.8090 -171.8728 -135.9870 172.7673 36.0875 29.5330 6.8758 168.6174 5.5814 15.3037 177.2502
State:	  2.330 -12.526   1.199  -0.298  0.749 -0.592 -136.882    -98.15   -4.24    2.38 -175.84  -16.46  160.23   23.48  -96.67  114.90  -38.98   89.29  -53.77   69.56  -93.81 -171.87 -135.99  172.77   36.09   29.53    6.88  168.62    5.58   15.30  177.25

DOCKED: MODEL       11
DOCKED: USER    Run = 11
DOCKED: USER    DPF = D:/Protein_go_brrr/autodock/final/AncA/IHP/dock.dpf
DOCKED: USER  
DOCKED: USER    Estimated Free Energy of Binding    =   +3.63 kcal/mol  [=(1)+(2)+(3)-(4)]
DOCKED: USER    
DOCKED: USER    (1) Final Intermolecular Energy     =   -3.53 kcal/mol
DOCKED: USER        vdW + Hbond + desolv Energy     =   -3.48 kcal/mol
DOCKED: USER        Electrostatic Energy            =   -0.05 kcal/mol
DOCKED: USER    (2) Final Total Internal Energy     =  -13.04 kcal/mol
DOCKED: USER    (3) Torsional Free Energy           =   +7.16 kcal/mol
DOCKED: USER    (4) Unbound System's Energy  [=(2)] =  -13.04 kcal/mol
DOCKED: USER    
DOCKED: USER    
DOCKED: USER    NEWDPF move IHP_ideal_opt.pdbqt
DOCKED: USER    NEWDPF about 0.035000 0.082000 -0.065000
DOCKED: USER    NEWDPF tran0 2.330453 -12.526022 1.198894
DOCKED: USER    NEWDPF quaternion0 -0.277162 0.696164 -0.550920 -0.367457
DOCKED: USER    NEWDPF axisangle0 -0.298010 0.748530 -0.592361 -136.882296
DOCKED: USER    NEWDPF quat0 -0.298010 0.748530 -0.592361 -136.882296
DOCKED: USER    NEWDPF dihe0 -98.15 -4.24 2.38 -175.84 -16.46 160.23 23.48 -96.67 114.90 -38.98 89.29 -53.77 69.56 -93.81 -171.87 -135.99 172.77 36.09 29.53 6.88 168.62 5.58 15.30 177.25 
DOCKED: USER  keepresnum = 1 
DOCKED: USER  
DOCKED: REMARK  24 active torsions:
DOCKED: REMARK  status: ('A' for Active; 'I' for Inactive)
DOCKED: REMARK    1  A    between atoms: C_1  and  O_7 
DOCKED: REMARK    2  A    between atoms: C_2  and  O_12 
DOCKED: REMARK    3  A    between atoms: C_3  and  O_17 
DOCKED: REMARK    4  A    between atoms: C_4  and  O_22 
DOCKED: REMARK    5  A    between atoms: C_5  and  O_27 
DOCKED: REMARK    6  A    between atoms: C_6  and  O_32 
DOCKED: REMARK    7  A    between atoms: O_7  and  P_8 
DOCKED: REMARK    8  A    between atoms: P_8  and  O_10 
DOCKED: REMARK    9  A    between atoms: P_8  and  O_11 
DOCKED: REMARK   10  A    between atoms: O_12  and  P_13 
DOCKED: REMARK   11  A    between atoms: P_13  and  O_15 
DOCKED: REMARK   12  A    between atoms: P_13  and  O_16 
DOCKED: REMARK   13  A    between atoms: O_17  and  P_18 
DOCKED: REMARK   14  A    between atoms: P_18  and  O_20 
DOCKED: REMARK   15  A    between atoms: P_18  and  O_21 
DOCKED: REMARK   16  A    between atoms: O_22  and  P_23 
DOCKED: REMARK   17  A    between atoms: P_23  and  O_25 
DOCKED: REMARK   18  A    between atoms: P_23  and  O_26 
DOCKED: REMARK   19  A    between atoms: O_27  and  P_28 
DOCKED: REMARK   20  A    between atoms: P_28  and  O_30 
DOCKED: REMARK   21  A    between atoms: P_28  and  O_31 
DOCKED: REMARK   22  A    between atoms: O_32  and  P_33 
DOCKED: REMARK   23  A    between atoms: P_33  and  O_35 
DOCKED: REMARK   24  A    between atoms: P_33  and  O_36 
DOCKED: USER                              x       y       z     vdW  Elec       q    Type
DOCKED: USER                           _______ _______ _______ _____ _____    ______ ____
DOCKED: ROOT
DOCKED: ATOM      1  C   UNL d   1       2.238 -14.175   1.705 -0.06 +0.07    +0.194 C 
DOCKED: ATOM      2  C   UNL d   1       2.640 -13.173   2.788 -0.11 +0.07    +0.194 C 
DOCKED: ATOM      3  C   UNL d   1       3.653 -12.151   2.267 -0.15 +0.05    +0.194 C 
DOCKED: ATOM      4  C   UNL d   1       3.204 -11.462   0.981 -0.23 +0.05    +0.194 C 
DOCKED: ATOM      5  C   UNL d   1       2.686 -12.417  -0.087 -0.16 +0.05    +0.194 C 
DOCKED: ATOM      6  C   UNL d   1       1.720 -13.477   0.447 -0.10 +0.08    +0.194 C 
DOCKED: ENDROOT
DOCKED: BRANCH   1   7
DOCKED: ATOM      7  O   UNL d   1       1.171 -14.979   2.216 -0.04 -0.13    -0.278 OA
DOCKED: BRANCH   7   8
DOCKED: ATOM      8  P   UNL d   1       1.537 -16.362   2.926 -0.00 +0.19    +0.473 P 
DOCKED: ATOM      9  O   UNL d   1       1.080 -16.486   4.337 -0.02 -0.10    -0.228 OA
DOCKED: BRANCH   8  10
DOCKED: ATOM     10  O   UNL d   1       0.910 -17.469   1.964 -0.00 -0.13    -0.303 OA
DOCKED: ATOM     11  H   UNL d   1       1.619 -17.890   1.443 +0.01 +0.08    +0.222 HD
DOCKED: ENDBRANCH   8  10
DOCKED: BRANCH   8  12
DOCKED: ATOM     12  O   UNL d   1       3.095 -16.553   2.682 -0.00 -0.09    -0.303 OA
DOCKED: ATOM     13  H   UNL d   1       3.356 -16.426   1.742 +0.01 +0.07    +0.222 HD
DOCKED: ENDBRANCH   8  12
DOCKED: ENDBRANCH   7   8
DOCKED: ENDBRANCH   1   7
DOCKED: BRANCH   2  14
DOCKED: ATOM     14  O   UNL d   1       1.472 -12.472   3.233 -0.21 -0.11    -0.278 OA
DOCKED: BRANCH  14  15
DOCKED: ATOM     15  P   UNL d   1       1.345 -12.221   4.810 -0.18 +0.22    +0.473 P 
DOCKED: ATOM     16  O   UNL d   1       1.804 -13.329   5.705 -0.14 -0.13    -0.228 OA
DOCKED: BRANCH  15  17
DOCKED: ATOM     17  O   UNL d   1       2.139 -10.862   5.052 -0.20 -0.10    -0.303 OA
DOCKED: ATOM     18  H   UNL d   1       3.069 -11.036   5.295 +0.08 +0.09    +0.222 HD
DOCKED: ENDBRANCH  15  17
DOCKED: BRANCH  15  19
DOCKED: ATOM     19  O   UNL d   1      -0.161 -11.752   5.016 -0.31 -0.14    -0.303 OA
DOCKED: ATOM     20  H   UNL d   1      -0.628 -12.313   5.663 +0.08 +0.12    +0.222 HD
DOCKED: ENDBRANCH  15  19
DOCKED: ENDBRANCH  14  15
DOCKED: ENDBRANCH   2  14
DOCKED: BRANCH   6  21
DOCKED: ATOM     21  O   UNL d   1       1.603 -14.474  -0.566 -0.02 -0.12    -0.278 OA
DOCKED: BRANCH  21  22
DOCKED: ATOM     22  P   UNL d   1       2.866 -15.374  -0.942 +0.01 +0.16    +0.473 P 
DOCKED: ATOM     23  O   UNL d   1       3.079 -15.724  -2.376 -0.01 -0.09    -0.228 OA
DOCKED: BRANCH  22  24
DOCKED: ATOM     24  O   UNL d   1       4.057 -14.560  -0.269 -0.00 -0.08    -0.303 OA
DOCKED: ATOM     25  H   UNL d   1       4.320 -13.832  -0.887 +0.04 +0.05    +0.222 HD
DOCKED: ENDBRANCH  22  24
DOCKED: BRANCH  22  26
DOCKED: ATOM     26  O   UNL d   1       2.697 -16.609   0.066 -0.00 -0.11    -0.303 OA
DOCKED: ATOM     27  H   UNL d   1       2.040 -16.377   0.752 +0.01 +0.09    +0.222 HD
DOCKED: ENDBRANCH  22  26
DOCKED: ENDBRANCH  21  22
DOCKED: ENDBRANCH   6  21
DOCKED: BRANCH   3  28
DOCKED: ATOM     28  O   UNL d   1       3.753 -11.115   3.235 -0.16 -0.09    -0.278 OA
DOCKED: BRANCH  28  29
DOCKED: ATOM     29  P   UNL d   1       5.127 -10.857   3.998 -0.03 +0.15    +0.473 P 
DOCKED: ATOM     30  O   UNL d   1       5.026 -10.064   5.251 -0.14 -0.07    -0.228 OA
DOCKED: BRANCH  29  31
DOCKED: ATOM     31  O   UNL d   1       5.659 -12.361   4.132 -0.02 -0.09    -0.303 OA
DOCKED: ATOM     32  H   UNL d   1       5.992 -12.655   3.253 +0.04 +0.06    +0.222 HD
DOCKED: ENDBRANCH  29  31
DOCKED: BRANCH  29  33
DOCKED: ATOM     33  O   UNL d   1       6.045 -10.261   2.842 -0.12 -0.08    -0.303 OA
DOCKED: ATOM     34  H   UNL d   1       5.841 -10.730   1.996 +0.05 +0.04    +0.222 HD
DOCKED: ENDBRANCH  29  33
DOCKED: ENDBRANCH  28  29
DOCKED: ENDBRANCH   3  28
DOCKED: BRANCH   5  35
DOCKED: ATOM     35  O   UNL d   1       1.955 -11.609  -1.007 -0.20 -0.08    -0.278 OA
DOCKED: BRANCH  35  36
DOCKED: ATOM     36  P   UNL d   1       1.948 -11.966  -2.562 -0.12 +0.16    +0.473 P 
DOCKED: ATOM     37  O   UNL d   1       1.967 -10.796  -3.493 -0.20 -0.07    -0.228 OA
DOCKED: BRANCH  36  38
DOCKED: ATOM     38  O   UNL d   1       3.218 -12.920  -2.683 -0.05 -0.08    -0.303 OA
DOCKED: ATOM     39  H   UNL d   1       3.208 -13.563  -1.942 +0.05 +0.07    +0.222 HD
DOCKED: ENDBRANCH  36  38
DOCKED: BRANCH  36  40
DOCKED: ATOM     40  O   UNL d   1       0.711 -12.960  -2.677 -0.09 -0.16    -0.303 OA
DOCKED: ATOM     41  H   UNL d   1       0.950 -13.872  -2.399 +0.06 +0.12    +0.222 HD
DOCKED: ENDBRANCH  36  40
DOCKED: ENDBRANCH  35  36
DOCKED: ENDBRANCH   5  35
DOCKED: BRANCH   4  42
DOCKED: ATOM     42  O   UNL d   1       4.356 -10.808   0.437 -0.06 -0.04    -0.278 OA
DOCKED: BRANCH  42  43
DOCKED: ATOM     43  P   UNL d   1       5.572 -11.696  -0.087 -0.15 +0.03    +0.473 P 
DOCKED: ATOM     44  O   UNL d   1       5.461 -12.272  -1.456 -0.15 -0.02    -0.228 OA
DOCKED: BRANCH  43  45
DOCKED: ATOM     45  O   UNL d   1       6.821 -10.731   0.114 -0.25 +0.05    -0.303 OA
DOCKED: ATOM     46  H   UNL d   1       6.607  -9.989   0.713 -0.25 -0.04    +0.222 HD
DOCKED: ENDBRANCH  43  45
DOCKED: BRANCH  43  47
DOCKED: ATOM     47  O   UNL d   1       5.786 -12.758   1.095 -0.04 -0.05    -0.303 OA
DOCKED: ATOM     48  H   UNL d   1       5.742 -13.664   0.726 +0.04 +0.04    +0.222 HD
DOCKED: ENDBRANCH  43  47
DOCKED: ENDBRANCH  42  43
DOCKED: ENDBRANCH   4  42
DOCKED: TORSDOF 24
DOCKED: TER
DOCKED: ENDMDL
________________________________________________________________________________


	BEGINNING GENETIC ALGORITHM DOCKING 12 of 100
Run: 12 Seed: 504316800 1529386449 [ Run 12 of 100 GA/GALS ]
Beginning LAMARCKIAN GENETIC ALGORITHM (LGA), with a maximum of 25000000 energy evaluations.

Final-Value: -20.906


	FINAL GENETIC ALGORITHM DOCKED STATE
	_______________________________________________


Detailed state:  trans 11.563 -0.894 -16.201 quatxyzw 0.475516 -0.437327 0.322955 0.691614 center 0.035 0.082 -0.065 ntor 24 -131.5030 39.6841 171.2461 123.8079 6.0685 180.0000 -19.9362 156.7813 104.9630 89.4462 142.4702 90.8122 -128.1162 105.2077 -29.2580 148.0163 42.6675 92.2719 -25.5427 -34.3495 154.0414 -48.1772 22.5279 -50.2603
State:	 11.563  -0.894 -16.201   0.658 -0.605  0.447 92.484   -131.50   39.68  171.25  123.81    6.07  180.00  -19.94  156.78  104.96   89.45  142.47   90.81 -128.12  105.21  -29.26  148.02   42.67   92.27  -25.54  -34.35  154.04  -48.18   22.53  -50.26

DOCKED: MODEL       12
DOCKED: USER    Run = 12
DOCKED: USER    DPF = D:/Protein_go_brrr/autodock/final/AncA/IHP/dock.dpf
DOCKED: USER  
DOCKED: USER    Estimated Free Energy of Binding    =   -0.56 kcal/mol  [=(1)+(2)+(3)-(4)]
DOCKED: USER    Estimated Inhibition Constant, Ki   =  389.49 mM (millimolar)  [Temperature = 298.15 K]
DOCKED: USER    
DOCKED: USER    (1) Final Intermolecular Energy     =   -7.72 kcal/mol
DOCKED: USER        vdW + Hbond + desolv Energy     =   -7.21 kcal/mol
DOCKED: USER        Electrostatic Energy            =   -0.51 kcal/mol
DOCKED: USER    (2) Final Total Internal Energy     =  -13.19 kcal/mol
DOCKED: USER    (3) Torsional Free Energy           =   +7.16 kcal/mol
DOCKED: USER    (4) Unbound System's Energy  [=(2)] =  -13.19 kcal/mol
DOCKED: USER    
DOCKED: USER    
DOCKED: USER    NEWDPF move IHP_ideal_opt.pdbqt
DOCKED: USER    NEWDPF about 0.035000 0.082000 -0.065000
DOCKED: USER    NEWDPF tran0 11.562519 -0.893687 -16.201364
DOCKED: USER    NEWDPF quaternion0 0.475516 -0.437327 0.322955 0.691614
DOCKED: USER    NEWDPF axisangle0 0.658366 -0.605492 0.447140 92.484015
DOCKED: USER    NEWDPF quat0 0.658366 -0.605492 0.447140 92.484015
DOCKED: USER    NEWDPF dihe0 -131.50 39.68 171.25 123.81 6.07 180.00 -19.94 156.78 104.96 89.45 142.47 90.81 -128.12 105.21 -29.26 148.02 42.67 92.27 -25.54 -34.35 154.04 -48.18 22.53 -50.26 
DOCKED: USER  keepresnum = 1 
DOCKED: USER  
DOCKED: REMARK  24 active torsions:
DOCKED: REMARK  status: ('A' for Active; 'I' for Inactive)
DOCKED: REMARK    1  A    between atoms: C_1  and  O_7 
DOCKED: REMARK    2  A    between atoms: C_2  and  O_12 
DOCKED: REMARK    3  A    between atoms: C_3  and  O_17 
DOCKED: REMARK    4  A    between atoms: C_4  and  O_22 
DOCKED: REMARK    5  A    between atoms: C_5  and  O_27 
DOCKED: REMARK    6  A    between atoms: C_6  and  O_32 
DOCKED: REMARK    7  A    between atoms: O_7  and  P_8 
DOCKED: REMARK    8  A    between atoms: P_8  and  O_10 
DOCKED: REMARK    9  A    between atoms: P_8  and  O_11 
DOCKED: REMARK   10  A    between atoms: O_12  and  P_13 
DOCKED: REMARK   11  A    between atoms: P_13  and  O_15 
DOCKED: REMARK   12  A    between atoms: P_13  and  O_16 
DOCKED: REMARK   13  A    between atoms: O_17  and  P_18 
DOCKED: REMARK   14  A    between atoms: P_18  and  O_20 
DOCKED: REMARK   15  A    between atoms: P_18  and  O_21 
DOCKED: REMARK   16  A    between atoms: O_22  and  P_23 
DOCKED: REMARK   17  A    between atoms: P_23  and  O_25 
DOCKED: REMARK   18  A    between atoms: P_23  and  O_26 
DOCKED: REMARK   19  A    between atoms: O_27  and  P_28 
DOCKED: REMARK   20  A    between atoms: P_28  and  O_30 
DOCKED: REMARK   21  A    between atoms: P_28  and  O_31 
DOCKED: REMARK   22  A    between atoms: O_32  and  P_33 
DOCKED: REMARK   23  A    between atoms: P_33  and  O_35 
DOCKED: REMARK   24  A    between atoms: P_33  and  O_36 
DOCKED: USER                              x       y       z     vdW  Elec       q    Type
DOCKED: USER                           _______ _______ _______ _____ _____    ______ ____
DOCKED: ROOT
DOCKED: ATOM      1  C   UNL d   1      12.769  -1.979 -15.609 -0.08 -0.00    +0.194 C 
DOCKED: ATOM      2  C   UNL d   1      11.897  -1.314 -14.542 -0.14 +0.00    +0.194 C 
DOCKED: ATOM      3  C   UNL d   1      11.684   0.174 -14.832 -0.16 +0.03    +0.194 C 
DOCKED: ATOM      4  C   UNL d   1      11.174   0.444 -16.245 -0.11 +0.05    +0.194 C 
DOCKED: ATOM      5  C   UNL d   1      11.944  -0.292 -17.334 -0.03 +0.03    +0.194 C 
DOCKED: ATOM      6  C   UNL d   1      12.211  -1.764 -17.016 -0.02 +0.01    +0.194 C 
DOCKED: ENDROOT
DOCKED: BRANCH   1   7
DOCKED: ATOM      7  O   UNL d   1      12.777  -3.387 -15.364 -0.11 +0.03    -0.278 OA
DOCKED: BRANCH   7   8
DOCKED: ATOM      8  P   UNL d   1      14.090  -4.216 -15.739 -0.03 -0.06    +0.473 P 
DOCKED: ATOM      9  O   UNL d   1      14.269  -4.491 -17.191 -0.02 +0.00    -0.228 OA
DOCKED: BRANCH   8  10
DOCKED: ATOM     10  O   UNL d   1      15.280  -3.360 -15.110 -0.08 +0.06    -0.303 OA
DOCKED: ATOM     11  H   UNL d   1      15.253  -3.427 -14.137 -0.53 -0.10    +0.222 HD
DOCKED: ENDBRANCH   8  10
DOCKED: BRANCH   8  12
DOCKED: ATOM     12  O   UNL d   1      14.059  -5.490 -14.790 -0.14 +0.05    -0.303 OA
DOCKED: ATOM     13  H   UNL d   1      13.325  -5.466 -14.136 -0.47 -0.05    +0.222 HD
DOCKED: ENDBRANCH   8  12
DOCKED: ENDBRANCH   7   8
DOCKED: ENDBRANCH   1   7
DOCKED: BRANCH   2  14
DOCKED: ATOM     14  O   UNL d   1      10.619  -1.961 -14.513 -0.10 -0.01    -0.278 OA
DOCKED: BRANCH  14  15
DOCKED: ATOM     15  P   UNL d   1      10.414  -3.091 -13.397 -0.22 +0.04    +0.473 P 
DOCKED: ATOM     16  O   UNL d   1       9.002  -3.451 -13.058 -0.79 -0.03    -0.228 OA
DOCKED: BRANCH  15  17
DOCKED: ATOM     17  O   UNL d   1      11.254  -4.330 -13.942 -0.30 +0.01    -0.303 OA
DOCKED: ATOM     18  H   UNL d   1      12.211  -4.188 -13.817 -0.33 -0.05    +0.222 HD
DOCKED: ENDBRANCH  15  17
DOCKED: BRANCH  15  19
DOCKED: ATOM     19  O   UNL d   1      11.311  -2.609 -12.176 -0.87 -0.03    -0.303 OA
DOCKED: ATOM     20  H   UNL d   1      10.991  -1.767 -11.803 +0.06 -0.00    +0.222 HD
DOCKED: ENDBRANCH  15  19
DOCKED: ENDBRANCH  14  15
DOCKED: ENDBRANCH   2  14
DOCKED: BRANCH   6  21
DOCKED: ATOM     21  O   UNL d   1      13.207  -2.210 -17.934 -0.01 -0.01    -0.278 OA
DOCKED: BRANCH  21  22
DOCKED: ATOM     22  P   UNL d   1      14.562  -1.383 -18.094 -0.00 +0.03    +0.473 P 
DOCKED: ATOM     23  O   UNL d   1      14.750  -0.167 -17.252 -0.03 -0.02    -0.228 OA
DOCKED: BRANCH  22  24
DOCKED: ATOM     24  O   UNL d   1      15.661  -2.515 -17.886 -0.00 -0.01    -0.303 OA
DOCKED: ATOM     25  H   UNL d   1      15.537  -2.903 -16.982 +0.02 +0.00    +0.222 HD
DOCKED: ENDBRANCH  22  24
DOCKED: BRANCH  22  26
DOCKED: ATOM     26  O   UNL d   1      14.619  -1.156 -19.680 -0.00 -0.02    -0.303 OA
DOCKED: ATOM     27  H   UNL d   1      13.791  -1.488 -20.083 +0.00 +0.02    +0.222 HD
DOCKED: ENDBRANCH  22  26
DOCKED: ENDBRANCH  21  22
DOCKED: ENDBRANCH   6  21
DOCKED: BRANCH   3  28
DOCKED: ATOM     28  O   UNL d   1      10.656   0.636 -13.965 -0.17 -0.04    -0.278 OA
DOCKED: BRANCH  28  29
DOCKED: ATOM     29  P   UNL d   1      10.858   0.598 -12.385 -0.26 +0.04    +0.473 P 
DOCKED: ATOM     30  O   UNL d   1      10.734   1.906 -11.692 -0.56 -0.04    -0.228 OA
DOCKED: BRANCH  29  31
DOCKED: ATOM     31  O   UNL d   1       9.797  -0.535 -11.995 -0.25 -0.02    -0.303 OA
DOCKED: ATOM     32  H   UNL d   1       9.740  -1.180 -12.737 +0.14 +0.02    +0.222 HD
DOCKED: ENDBRANCH  29  31
DOCKED: BRANCH  29  33
DOCKED: ATOM     33  O   UNL d   1      12.251  -0.162 -12.245 -0.26 +0.03    -0.303 OA
DOCKED: ATOM     34  H   UNL d   1      12.224  -0.736 -11.441 -0.43 -0.09    +0.222 HD
DOCKED: ENDBRANCH  29  33
DOCKED: ENDBRANCH  28  29
DOCKED: ENDBRANCH   3  28
DOCKED: BRANCH   5  35
DOCKED: ATOM     35  O   UNL d   1      11.110  -0.256 -18.490 -0.01 -0.05    -0.278 OA
DOCKED: BRANCH  35  36
DOCKED: ATOM     36  P   UNL d   1      11.751  -0.325 -19.948 +0.00 +0.06    +0.473 P 
DOCKED: ATOM     37  O   UNL d   1      11.984  -1.702 -20.486 -0.00 -0.02    -0.228 OA
DOCKED: BRANCH  36  38
DOCKED: ATOM     38  O   UNL d   1      10.723   0.545 -20.799 +0.00 -0.05    -0.303 OA
DOCKED: ATOM     39  H   UNL d   1      10.384   1.277 -20.240 +0.01 +0.05    +0.222 HD
DOCKED: ENDBRANCH  36  38
DOCKED: BRANCH  36  40
DOCKED: ATOM     40  O   UNL d   1      13.024   0.618 -19.805 -0.01 -0.04    -0.303 OA
DOCKED: ATOM     41  H   UNL d   1      13.543   0.409 -18.997 +0.02 +0.03    +0.222 HD
DOCKED: ENDBRANCH  36  40
DOCKED: ENDBRANCH  35  36
DOCKED: ENDBRANCH   5  35
DOCKED: BRANCH   4  42
DOCKED: ATOM     42  O   UNL d   1      11.342   1.846 -16.485 -0.13 -0.12    -0.278 OA
DOCKED: BRANCH  42  43
DOCKED: ATOM     43  P   UNL d   1      10.515   2.531 -17.665 -0.09 +0.35    +0.473 P 
DOCKED: ATOM     44  O   UNL d   1       9.913   3.866 -17.396 -0.65 -0.40    -0.228 OA
DOCKED: BRANCH  43  45
DOCKED: ATOM     45  O   UNL d   1      11.552   2.515 -18.872 -0.05 -0.11    -0.303 OA
DOCKED: ATOM     46  H   UNL d   1      11.711   1.606 -19.195 +0.02 +0.06    +0.222 HD
DOCKED: ENDBRANCH  43  45
DOCKED: BRANCH  43  47
DOCKED: ATOM     47  O   UNL d   1       9.486   1.383 -18.104 -0.07 -0.18    -0.303 OA
DOCKED: ATOM     48  H   UNL d   1       9.892   0.838 -18.810 +0.02 +0.08    +0.222 HD
DOCKED: ENDBRANCH  43  47
DOCKED: ENDBRANCH  42  43
DOCKED: ENDBRANCH   4  42
DOCKED: TORSDOF 24
DOCKED: TER
DOCKED: ENDMDL
________________________________________________________________________________


	BEGINNING GENETIC ALGORITHM DOCKING 13 of 100
Run: 13 Seed: 1466474312 1857379947 [ Run 13 of 100 GA/GALS ]
Beginning LAMARCKIAN GENETIC ALGORITHM (LGA), with a maximum of 25000000 energy evaluations.

Final-Value: -16.163


	FINAL GENETIC ALGORITHM DOCKED STATE
	_______________________________________________


Detailed state:  trans -3.420 4.204 -15.170 quatxyzw 0.335695 -0.466739 -0.186519 0.796664 center 0.035 0.082 -0.065 ntor 24 -154.5254 154.2677 39.1787 49.0984 6.4407 -154.8423 -11.4326 -80.9307 -111.2045 81.0036 55.7122 -153.5407 -102.2423 164.0617 -1.7211 98.8663 -1.7933 144.1763 1.8957 -24.8199 140.6995 -29.9293 121.6819 0.8308
State:	 -3.420   4.204 -15.170   0.555 -0.772 -0.309 74.375   -154.53  154.27   39.18   49.10    6.44 -154.84  -11.43  -80.93 -111.20   81.00   55.71 -153.54 -102.24  164.06   -1.72   98.87   -1.79  144.18    1.90  -24.82  140.70  -29.93  121.68    0.83

DOCKED: MODEL       13
DOCKED: USER    Run = 13
DOCKED: USER    DPF = D:/Protein_go_brrr/autodock/final/AncA/IHP/dock.dpf
DOCKED: USER  
DOCKED: USER    Estimated Free Energy of Binding    =   +3.10 kcal/mol  [=(1)+(2)+(3)-(4)]
DOCKED: USER    
DOCKED: USER    (1) Final Intermolecular Energy     =   -4.06 kcal/mol
DOCKED: USER        vdW + Hbond + desolv Energy     =   -3.91 kcal/mol
DOCKED: USER        Electrostatic Energy            =   -0.15 kcal/mol
DOCKED: USER    (2) Final Total Internal Energy     =  -12.10 kcal/mol
DOCKED: USER    (3) Torsional Free Energy           =   +7.16 kcal/mol
DOCKED: USER    (4) Unbound System's Energy  [=(2)] =  -12.10 kcal/mol
DOCKED: USER    
DOCKED: USER    
DOCKED: USER    NEWDPF move IHP_ideal_opt.pdbqt
DOCKED: USER    NEWDPF about 0.035000 0.082000 -0.065000
DOCKED: USER    NEWDPF tran0 -3.419649 4.204296 -15.170418
DOCKED: USER    NEWDPF quaternion0 0.335695 -0.466739 -0.186519 0.796664
DOCKED: USER    NEWDPF axisangle0 0.555399 -0.772207 -0.308591 74.374579
DOCKED: USER    NEWDPF quat0 0.555399 -0.772207 -0.308591 74.374579
DOCKED: USER    NEWDPF dihe0 -154.53 154.27 39.18 49.10 6.44 -154.84 -11.43 -80.93 -111.20 81.00 55.71 -153.54 -102.24 164.06 -1.72 98.87 -1.79 144.18 1.90 -24.82 140.70 -29.93 121.68 0.83 
DOCKED: USER  keepresnum = 1 
DOCKED: USER  
DOCKED: REMARK  24 active torsions:
DOCKED: REMARK  status: ('A' for Active; 'I' for Inactive)
DOCKED: REMARK    1  A    between atoms: C_1  and  O_7 
DOCKED: REMARK    2  A    between atoms: C_2  and  O_12 
DOCKED: REMARK    3  A    between atoms: C_3  and  O_17 
DOCKED: REMARK    4  A    between atoms: C_4  and  O_22 
DOCKED: REMARK    5  A    between atoms: C_5  and  O_27 
DOCKED: REMARK    6  A    between atoms: C_6  and  O_32 
DOCKED: REMARK    7  A    between atoms: O_7  and  P_8 
DOCKED: REMARK    8  A    between atoms: P_8  and  O_10 
DOCKED: REMARK    9  A    between atoms: P_8  and  O_11 
DOCKED: REMARK   10  A    between atoms: O_12  and  P_13 
DOCKED: REMARK   11  A    between atoms: P_13  and  O_15 
DOCKED: REMARK   12  A    between atoms: P_13  and  O_16 
DOCKED: REMARK   13  A    between atoms: O_17  and  P_18 
DOCKED: REMARK   14  A    between atoms: P_18  and  O_20 
DOCKED: REMARK   15  A    between atoms: P_18  and  O_21 
DOCKED: REMARK   16  A    between atoms: O_22  and  P_23 
DOCKED: REMARK   17  A    between atoms: P_23  and  O_25 
DOCKED: REMARK   18  A    between atoms: P_23  and  O_26 
DOCKED: REMARK   19  A    between atoms: O_27  and  P_28 
DOCKED: REMARK   20  A    between atoms: P_28  and  O_30 
DOCKED: REMARK   21  A    between atoms: P_28  and  O_31 
DOCKED: REMARK   22  A    between atoms: O_32  and  P_33 
DOCKED: REMARK   23  A    between atoms: P_33  and  O_35 
DOCKED: REMARK   24  A    between atoms: P_33  and  O_36 
DOCKED: USER                              x       y       z     vdW  Elec       q    Type
DOCKED: USER                           _______ _______ _______ _____ _____    ______ ____
DOCKED: ROOT
DOCKED: ATOM      1  C   UNL d   1      -1.768   4.119 -15.671 -0.03 +0.01    +0.194 C 
DOCKED: ATOM      2  C   UNL d   1      -2.123   3.310 -14.421 -0.07 +0.01    +0.194 C 
DOCKED: ATOM      3  C   UNL d   1      -3.033   4.098 -13.476 -0.08 +0.03    +0.194 C 
DOCKED: ATOM      4  C   UNL d   1      -4.270   4.666 -14.167 -0.05 +0.03    +0.194 C 
DOCKED: ATOM      5  C   UNL d   1      -3.975   5.382 -15.479 -0.01 +0.03    +0.194 C 
DOCKED: ATOM      6  C   UNL d   1      -3.016   4.622 -16.397 -0.00 +0.02    +0.194 C 
DOCKED: ENDROOT
DOCKED: BRANCH   1   7
DOCKED: ATOM      7  O   UNL d   1      -1.067   3.260 -16.573 -0.03 -0.01    -0.278 OA
DOCKED: BRANCH   7   8
DOCKED: ATOM      8  P   UNL d   1       0.414   3.667 -17.013 -0.03 +0.03    +0.473 P 
DOCKED: ATOM      9  O   UNL d   1       0.564   5.063 -17.507 -0.01 -0.03    -0.228 OA
DOCKED: BRANCH   8  10
DOCKED: ATOM     10  O   UNL d   1       1.299   3.360 -15.721 -0.09 +0.02    -0.303 OA
DOCKED: ATOM     11  H   UNL d   1       1.081   2.472 -15.380 -0.49 -0.08    +0.222 HD
DOCKED: ENDBRANCH   8  10
DOCKED: BRANCH   8  12
DOCKED: ATOM     12  O   UNL d   1       0.877   2.524 -18.013 -0.04 -0.02    -0.303 OA
DOCKED: ATOM     13  H   UNL d   1       0.932   2.828 -18.947 +0.02 +0.02    +0.222 HD
DOCKED: ENDBRANCH   8  12
DOCKED: ENDBRANCH   7   8
DOCKED: ENDBRANCH   1   7
DOCKED: BRANCH   2  14
DOCKED: ATOM     14  O   UNL d   1      -2.803   2.113 -14.817 -0.06 -0.00    -0.278 OA
DOCKED: BRANCH  14  15
DOCKED: ATOM     15  P   UNL d   1      -1.975   0.748 -14.702 -0.20 -0.02    +0.473 P 
DOCKED: ATOM     16  O   UNL d   1      -2.159  -0.246 -15.806 -0.20 +0.00    -0.228 OA
DOCKED: BRANCH  15  17
DOCKED: ATOM     17  O   UNL d   1      -0.463   1.224 -14.546 -0.19 +0.02    -0.303 OA
DOCKED: ATOM     18  H   UNL d   1      -0.195   1.793 -15.292 -0.07 -0.02    +0.222 HD
DOCKED: ENDBRANCH  15  17
DOCKED: BRANCH  15  19
DOCKED: ATOM     19  O   UNL d   1      -2.294   0.213 -13.238 -0.32 +0.04    -0.303 OA
DOCKED: ATOM     20  H   UNL d   1      -2.757   0.883 -12.702 +0.15 -0.01    +0.222 HD
DOCKED: ENDBRANCH  15  19
DOCKED: ENDBRANCH  14  15
DOCKED: ENDBRANCH   2  14
DOCKED: BRANCH   6  21
DOCKED: ATOM     21  O   UNL d   1      -2.577   5.546 -17.391 +0.00 -0.03    -0.278 OA
DOCKED: BRANCH  21  22
DOCKED: ATOM     22  P   UNL d   1      -2.284   7.062 -16.987 +0.01 +0.06    +0.473 P 
DOCKED: ATOM     23  O   UNL d   1      -1.848   7.348 -15.590 -0.00 -0.04    -0.228 OA
DOCKED: BRANCH  22  24
DOCKED: ATOM     24  O   UNL d   1      -1.250   7.504 -18.113 +0.00 -0.03    -0.303 OA
DOCKED: ATOM     25  H   UNL d   1      -0.458   6.911 -18.054 +0.00 +0.03    +0.222 HD
DOCKED: ENDBRANCH  22  24
DOCKED: BRANCH  22  26
DOCKED: ATOM     26  O   UNL d   1      -3.628   7.792 -17.468 +0.00 -0.04    -0.303 OA
DOCKED: ATOM     27  H   UNL d   1      -4.379   7.169 -17.388 +0.00 +0.03    +0.222 HD
DOCKED: ENDBRANCH  22  26
DOCKED: ENDBRANCH  21  22
DOCKED: ENDBRANCH   6  21
DOCKED: BRANCH   3  28
DOCKED: ATOM     28  O   UNL d   1      -3.529   3.189 -12.502 -0.14 -0.03    -0.278 OA
DOCKED: BRANCH  28  29
DOCKED: ATOM     29  P   UNL d   1      -2.631   2.783 -11.250 -0.10 +0.05    +0.473 P 
DOCKED: ATOM     30  O   UNL d   1      -2.468   3.833 -10.212 -0.23 -0.04    -0.228 OA
DOCKED: BRANCH  29  31
DOCKED: ATOM     31  O   UNL d   1      -3.365   1.431 -10.808 -0.38 -0.01    -0.303 OA
DOCKED: ATOM     32  H   UNL d   1      -3.611   0.928 -11.618 +0.12 -0.02    +0.222 HD
DOCKED: ENDBRANCH  29  31
DOCKED: BRANCH  29  33
DOCKED: ATOM     33  O   UNL d   1      -1.304   2.250 -11.950 -0.18 -0.02    -0.303 OA
DOCKED: ATOM     34  H   UNL d   1      -1.514   1.986 -12.879 +0.13 +0.00    +0.222 HD
DOCKED: ENDBRANCH  29  33
DOCKED: ENDBRANCH  28  29
DOCKED: ENDBRANCH   3  28
DOCKED: BRANCH   5  35
DOCKED: ATOM     35  O   UNL d   1      -5.225   5.473 -16.160 -0.00 -0.03    -0.278 OA
DOCKED: BRANCH  35  36
DOCKED: ATOM     36  P   UNL d   1      -5.511   4.568 -17.441 +0.01 +0.02    +0.473 P 
DOCKED: ATOM     37  O   UNL d   1      -5.063   3.144 -17.338 -0.01 -0.00    -0.228 OA
DOCKED: BRANCH  36  38
DOCKED: ATOM     38  O   UNL d   1      -7.083   4.748 -17.624 -0.00 -0.01    -0.303 OA
DOCKED: ATOM     39  H   UNL d   1      -7.375   4.241 -18.412 +0.01 +0.00    +0.222 HD
DOCKED: ENDBRANCH  36  38
DOCKED: BRANCH  36  40
DOCKED: ATOM     40  O   UNL d   1      -4.887   5.437 -18.618 +0.00 -0.02    -0.303 OA
DOCKED: ATOM     41  H   UNL d   1      -4.045   5.866 -18.347 +0.00 +0.02    +0.222 HD
DOCKED: ENDBRANCH  36  40
DOCKED: ENDBRANCH  35  36
DOCKED: ENDBRANCH   5  35
DOCKED: BRANCH   4  42
DOCKED: ATOM     42  O   UNL d   1      -4.835   5.634 -13.277 -0.10 -0.10    -0.278 OA
DOCKED: BRANCH  42  43
DOCKED: ATOM     43  P   UNL d   1      -6.227   5.310 -12.567 -0.11 +0.17    +0.473 P 
DOCKED: ATOM     44  O   UNL d   1      -6.896   6.418 -11.830 -0.24 -0.13    -0.228 OA
DOCKED: BRANCH  43  45
DOCKED: ATOM     45  O   UNL d   1      -7.092   4.704 -13.757 -0.72 -0.08    -0.303 OA
DOCKED: ATOM     46  H   UNL d   1      -6.705   4.922 -14.629 +0.05 +0.04    +0.222 HD
DOCKED: ENDBRANCH  43  45
DOCKED: BRANCH  43  47
DOCKED: ATOM     47  O   UNL d   1      -5.901   4.001 -11.701 -0.35 -0.06    -0.303 OA
DOCKED: ATOM     48  H   UNL d   1      -4.943   3.981 -11.495 +0.12 +0.05    +0.222 HD
DOCKED: ENDBRANCH  43  47
DOCKED: ENDBRANCH  42  43
DOCKED: ENDBRANCH   4  42
DOCKED: TORSDOF 24
DOCKED: TER
DOCKED: ENDMDL
________________________________________________________________________________


	BEGINNING GENETIC ALGORITHM DOCKING 14 of 100
Run: 14 Seed: 2105815068 226198985 [ Run 14 of 100 GA/GALS ]
Beginning LAMARCKIAN GENETIC ALGORITHM (LGA), with a maximum of 25000000 energy evaluations.

Final-Value: -16.860


	FINAL GENETIC ALGORITHM DOCKED STATE
	_______________________________________________


Detailed state:  trans -13.187 -13.964 -7.498 quatxyzw 0.420326 0.023173 -0.778130 -0.466158 center 0.035 0.082 -0.065 ntor 24 122.6370 75.9996 110.7603 124.7502 81.0099 131.3856 -147.4614 9.0888 70.6718 109.6541 57.1044 -22.6587 -78.1205 87.5723 -95.5810 -126.7936 110.7561 -95.4976 31.4675 -8.6247 -22.5121 -15.7999 7.6164 175.0659
State:	-13.187 -13.964  -7.498   0.475  0.026 -0.880 -124.430    122.64   76.00  110.76  124.75   81.01  131.39 -147.46    9.09   70.67  109.65   57.10  -22.66  -78.12   87.57  -95.58 -126.79  110.76  -95.50   31.47   -8.62  -22.51  -15.80    7.62  175.07

DOCKED: MODEL       14
DOCKED: USER    Run = 14
DOCKED: USER    DPF = D:/Protein_go_brrr/autodock/final/AncA/IHP/dock.dpf
DOCKED: USER  
DOCKED: USER    Estimated Free Energy of Binding    =   +2.76 kcal/mol  [=(1)+(2)+(3)-(4)]
DOCKED: USER    
DOCKED: USER    (1) Final Intermolecular Energy     =   -4.40 kcal/mol
DOCKED: USER        vdW + Hbond + desolv Energy     =   -4.25 kcal/mol
DOCKED: USER        Electrostatic Energy            =   -0.14 kcal/mol
DOCKED: USER    (2) Final Total Internal Energy     =  -12.46 kcal/mol
DOCKED: USER    (3) Torsional Free Energy           =   +7.16 kcal/mol
DOCKED: USER    (4) Unbound System's Energy  [=(2)] =  -12.46 kcal/mol
DOCKED: USER    
DOCKED: USER    
DOCKED: USER    NEWDPF move IHP_ideal_opt.pdbqt
DOCKED: USER    NEWDPF about 0.035000 0.082000 -0.065000
DOCKED: USER    NEWDPF tran0 -13.186517 -13.963626 -7.498470
DOCKED: USER    NEWDPF quaternion0 0.420326 0.023173 -0.778130 -0.466158
DOCKED: USER    NEWDPF axisangle0 0.475105 0.026193 -0.879539 -124.429637
DOCKED: USER    NEWDPF quat0 0.475105 0.026193 -0.879539 -124.429637
DOCKED: USER    NEWDPF dihe0 122.64 76.00 110.76 124.75 81.01 131.39 -147.46 9.09 70.67 109.65 57.10 -22.66 -78.12 87.57 -95.58 -126.79 110.76 -95.50 31.47 -8.62 -22.51 -15.80 7.62 175.07 
DOCKED: USER  keepresnum = 1 
DOCKED: USER  
DOCKED: REMARK  24 active torsions:
DOCKED: REMARK  status: ('A' for Active; 'I' for Inactive)
DOCKED: REMARK    1  A    between atoms: C_1  and  O_7 
DOCKED: REMARK    2  A    between atoms: C_2  and  O_12 
DOCKED: REMARK    3  A    between atoms: C_3  and  O_17 
DOCKED: REMARK    4  A    between atoms: C_4  and  O_22 
DOCKED: REMARK    5  A    between atoms: C_5  and  O_27 
DOCKED: REMARK    6  A    between atoms: C_6  and  O_32 
DOCKED: REMARK    7  A    between atoms: O_7  and  P_8 
DOCKED: REMARK    8  A    between atoms: P_8  and  O_10 
DOCKED: REMARK    9  A    between atoms: P_8  and  O_11 
DOCKED: REMARK   10  A    between atoms: O_12  and  P_13 
DOCKED: REMARK   11  A    between atoms: P_13  and  O_15 
DOCKED: REMARK   12  A    between atoms: P_13  and  O_16 
DOCKED: REMARK   13  A    between atoms: O_17  and  P_18 
DOCKED: REMARK   14  A    between atoms: P_18  and  O_20 
DOCKED: REMARK   15  A    between atoms: P_18  and  O_21 
DOCKED: REMARK   16  A    between atoms: O_22  and  P_23 
DOCKED: REMARK   17  A    between atoms: P_23  and  O_25 
DOCKED: REMARK   18  A    between atoms: P_23  and  O_26 
DOCKED: REMARK   19  A    between atoms: O_27  and  P_28 
DOCKED: REMARK   20  A    between atoms: P_28  and  O_30 
DOCKED: REMARK   21  A    between atoms: P_28  and  O_31 
DOCKED: REMARK   22  A    between atoms: O_32  and  P_33 
DOCKED: REMARK   23  A    between atoms: P_33  and  O_35 
DOCKED: REMARK   24  A    between atoms: P_33  and  O_36 
DOCKED: USER                              x       y       z     vdW  Elec       q    Type
DOCKED: USER                           _______ _______ _______ _____ _____    ______ ____
DOCKED: ROOT
DOCKED: ATOM      1  C   UNL d   1     -14.614 -14.686  -8.150 -0.09 +0.03    +0.194 C 
DOCKED: ATOM      2  C   UNL d   1     -14.715 -13.193  -7.831 -0.13 +0.02    +0.194 C 
DOCKED: ATOM      3  C   UNL d   1     -14.069 -12.856  -6.486 -0.15 +0.02    +0.194 C 
DOCKED: ATOM      4  C   UNL d   1     -12.640 -13.379  -6.357 -0.24 +0.03    +0.194 C 
DOCKED: ATOM      5  C   UNL d   1     -12.472 -14.834  -6.775 -0.20 +0.03    +0.194 C 
DOCKED: ATOM      6  C   UNL d   1     -13.170 -15.185  -8.091 -0.02 +0.01    +0.194 C 
DOCKED: ENDROOT
DOCKED: BRANCH   1   7
DOCKED: ATOM      7  O   UNL d   1     -15.080 -14.889  -9.487 -0.06 -0.06    -0.278 OA
DOCKED: BRANCH   7   8
DOCKED: ATOM      8  P   UNL d   1     -16.628 -15.214  -9.710 +0.01 +0.12    +0.473 P 
DOCKED: ATOM      9  O   UNL d   1     -17.307 -15.868  -8.558 -0.00 -0.04    -0.228 OA
DOCKED: BRANCH   8  10
DOCKED: ATOM     10  O   UNL d   1     -17.267 -13.805 -10.098 -0.01 -0.08    -0.303 OA
DOCKED: ATOM     11  H   UNL d   1     -16.818 -13.095  -9.603 +0.04 +0.05    +0.222 HD
DOCKED: ENDBRANCH   8  10
DOCKED: BRANCH   8  12
DOCKED: ATOM     12  O   UNL d   1     -16.690 -15.999 -11.089 -0.01 -0.10    -0.303 OA
DOCKED: ATOM     13  H   UNL d   1     -15.882 -16.530 -11.268 +0.03 +0.08    +0.222 HD
DOCKED: ENDBRANCH   8  12
DOCKED: ENDBRANCH   7   8
DOCKED: ENDBRANCH   1   7
DOCKED: BRANCH   2  14
DOCKED: ATOM     14  O   UNL d   1     -14.046 -12.450  -8.858 -0.24 -0.01    -0.278 OA
DOCKED: BRANCH  14  15
DOCKED: ATOM     15  P   UNL d   1     -14.917 -11.350  -9.629 -0.16 +0.05    +0.473 P 
DOCKED: ATOM     16  O   UNL d   1     -14.217 -10.083 -10.010 -0.27 +0.02    -0.228 OA
DOCKED: BRANCH  15  17
DOCKED: ATOM     17  O   UNL d   1     -15.504 -12.132 -10.886 -0.14 -0.11    -0.303 OA
DOCKED: ATOM     18  H   UNL d   1     -15.411 -13.098 -10.775 +0.06 +0.09    +0.222 HD
DOCKED: ENDBRANCH  15  17
DOCKED: BRANCH  15  19
DOCKED: ATOM     19  O   UNL d   1     -16.217 -11.171  -8.729 -0.05 -0.03    -0.303 OA
DOCKED: ATOM     20  H   UNL d   1     -16.001 -10.796  -7.855 +0.08 +0.01    +0.222 HD
DOCKED: ENDBRANCH  15  19
DOCKED: ENDBRANCH  14  15
DOCKED: ENDBRANCH   2  14
DOCKED: BRANCH   6  21
DOCKED: ATOM     21  O   UNL d   1     -13.216 -16.608  -8.165 -0.08 -0.05    -0.278 OA
DOCKED: BRANCH  21  22
DOCKED: ATOM     22  P   UNL d   1     -12.608 -17.355  -9.437 -0.08 +0.11    +0.473 P 
DOCKED: ATOM     23  O   UNL d   1     -13.261 -17.139 -10.761 -0.10 -0.07    -0.228 OA
DOCKED: BRANCH  22  24
DOCKED: ATOM     24  O   UNL d   1     -11.078 -16.919  -9.369 -0.14 -0.09    -0.303 OA
DOCKED: ATOM     25  H   UNL d   1     -10.905 -16.542  -8.469 -0.11 +0.06    +0.222 HD
DOCKED: ENDBRANCH  22  24
DOCKED: BRANCH  22  26
DOCKED: ATOM     26  O   UNL d   1     -12.543 -18.872  -8.924 -0.02 -0.09    -0.303 OA
DOCKED: ATOM     27  H   UNL d   1     -12.210 -18.887  -8.004 +0.03 +0.07    +0.222 HD
DOCKED: ENDBRANCH  22  26
DOCKED: ENDBRANCH  21  22
DOCKED: ENDBRANCH   6  21
DOCKED: BRANCH   3  28
DOCKED: ATOM     28  O   UNL d   1     -13.962 -11.441  -6.404 -0.17 -0.00    -0.278 OA
DOCKED: BRANCH  28  29
DOCKED: ATOM     29  P   UNL d   1     -15.092 -10.589  -5.674 -0.17 +0.01    +0.473 P 
DOCKED: ATOM     30  O   UNL d   1     -15.251  -9.192  -6.152 -0.33 -0.01    -0.228 OA
DOCKED: BRANCH  29  31
DOCKED: ATOM     31  O   UNL d   1     -16.344 -11.568  -5.862 -0.05 -0.02    -0.303 OA
DOCKED: ATOM     32  H   UNL d   1     -16.851 -11.280  -6.657 +0.07 +0.02    +0.222 HD
DOCKED: ENDBRANCH  29  31
DOCKED: BRANCH  29  33
DOCKED: ATOM     33  O   UNL d   1     -14.719 -10.787  -4.139 -0.22 +0.02    -0.303 OA
DOCKED: ATOM     34  H   UNL d   1     -13.866 -10.323  -3.953 -0.35 -0.07    +0.222 HD
DOCKED: ENDBRANCH  29  33
DOCKED: ENDBRANCH  28  29
DOCKED: ENDBRANCH   3  28
DOCKED: BRANCH   5  35
DOCKED: ATOM     35  O   UNL d   1     -11.072 -15.018  -6.981 -0.22 -0.06    -0.278 OA
DOCKED: BRANCH  35  36
DOCKED: ATOM     36  P   UNL d   1     -10.351 -16.345  -6.468 -0.17 +0.20    +0.473 P 
DOCKED: ATOM     37  O   UNL d   1      -9.098 -16.719  -7.193 -0.23 -0.15    -0.228 OA
DOCKED: BRANCH  36  38
DOCKED: ATOM     38  O   UNL d   1     -10.142 -16.025  -4.922 -0.09 -0.15    -0.303 OA
DOCKED: ATOM     39  H   UNL d   1     -10.512 -15.138  -4.724 +0.07 +0.09    +0.222 HD
DOCKED: ENDBRANCH  36  38
DOCKED: BRANCH  36  40
DOCKED: ATOM     40  O   UNL d   1     -11.538 -17.404  -6.483 -0.06 -0.10    -0.303 OA
DOCKED: ATOM     41  H   UNL d   1     -11.831 -17.609  -7.398 +0.05 +0.07    +0.222 HD
DOCKED: ENDBRANCH  36  40
DOCKED: ENDBRANCH  35  36
DOCKED: ENDBRANCH   5  35
DOCKED: BRANCH   4  42
DOCKED: ATOM     42  O   UNL d   1     -12.292 -13.296  -4.971 -0.14 -0.06    -0.278 OA
DOCKED: BRANCH  42  43
DOCKED: ATOM     43  P   UNL d   1     -13.099 -14.182  -3.919 -0.08 +0.09    +0.473 P 
DOCKED: ATOM     44  O   UNL d   1     -14.587 -14.132  -3.977 -0.08 -0.03    -0.228 OA
DOCKED: BRANCH  43  45
DOCKED: ATOM     45  O   UNL d   1     -12.487 -15.634  -4.143 -0.04 -0.08    -0.303 OA
DOCKED: ATOM     46  H   UNL d   1     -11.995 -15.688  -4.986 +0.05 +0.06    +0.222 HD
DOCKED: ENDBRANCH  43  45
DOCKED: BRANCH  43  47
DOCKED: ATOM     47  O   UNL d   1     -12.447 -13.767  -2.514 -0.13 -0.05    -0.303 OA
DOCKED: ATOM     48  H   UNL d   1     -13.088 -13.947  -1.795 +0.05 +0.01    +0.222 HD
DOCKED: ENDBRANCH  43  47
DOCKED: ENDBRANCH  42  43
DOCKED: ENDBRANCH   4  42
DOCKED: TORSDOF 24
DOCKED: TER
DOCKED: ENDMDL
________________________________________________________________________________


	BEGINNING GENETIC ALGORITHM DOCKING 15 of 100
Run: 15 Seed: 704273489 1845419255 [ Run 15 of 100 GA/GALS ]
Beginning LAMARCKIAN GENETIC ALGORITHM (LGA), with a maximum of 25000000 energy evaluations.

Final-Value: -19.077


	FINAL GENETIC ALGORITHM DOCKED STATE
	_______________________________________________


Detailed state:  trans -3.861 -14.844 10.361 quatxyzw -0.280293 -0.864592 0.110870 -0.402025 center 0.035 0.082 -0.065 ntor 24 -91.5042 22.9885 64.2872 52.7952 126.1435 77.8344 30.7136 -69.9430 89.6468 123.6458 14.4936 106.0746 -145.1904 160.1965 -178.2378 90.1767 53.5013 180.0000 33.6740 -17.0368 8.3710 -22.3179 179.7947 19.4726
State:	 -3.861 -14.844  10.361  -0.306 -0.944  0.121 -132.590    -91.50   22.99   64.29   52.80  126.14   77.83   30.71  -69.94   89.65  123.65   14.49  106.07 -145.19  160.20 -178.24   90.18   53.50  180.00   33.67  -17.04    8.37  -22.32  179.79   19.47

DOCKED: MODEL       15
DOCKED: USER    Run = 15
DOCKED: USER    DPF = D:/Protein_go_brrr/autodock/final/AncA/IHP/dock.dpf
DOCKED: USER  
DOCKED: USER    Estimated Free Energy of Binding    =   +3.18 kcal/mol  [=(1)+(2)+(3)-(4)]
DOCKED: USER    
DOCKED: USER    (1) Final Intermolecular Energy     =   -3.97 kcal/mol
DOCKED: USER        vdW + Hbond + desolv Energy     =   -3.46 kcal/mol
DOCKED: USER        Electrostatic Energy            =   -0.52 kcal/mol
DOCKED: USER    (2) Final Total Internal Energy     =  -15.10 kcal/mol
DOCKED: USER    (3) Torsional Free Energy           =   +7.16 kcal/mol
DOCKED: USER    (4) Unbound System's Energy  [=(2)] =  -15.10 kcal/mol
DOCKED: USER    
DOCKED: USER    
DOCKED: USER    NEWDPF move IHP_ideal_opt.pdbqt
DOCKED: USER    NEWDPF about 0.035000 0.082000 -0.065000
DOCKED: USER    NEWDPF tran0 -3.861167 -14.843859 10.361419
DOCKED: USER    NEWDPF quaternion0 -0.280293 -0.864592 0.110870 -0.402025
DOCKED: USER    NEWDPF axisangle0 -0.306121 -0.944261 0.121086 -132.590320
DOCKED: USER    NEWDPF quat0 -0.306121 -0.944261 0.121086 -132.590320
DOCKED: USER    NEWDPF dihe0 -91.50 22.99 64.29 52.80 126.14 77.83 30.71 -69.94 89.65 123.65 14.49 106.07 -145.19 160.20 -178.24 90.18 53.50 180.00 33.67 -17.04 8.37 -22.32 179.79 19.47 
DOCKED: USER  keepresnum = 1 
DOCKED: USER  
DOCKED: REMARK  24 active torsions:
DOCKED: REMARK  status: ('A' for Active; 'I' for Inactive)
DOCKED: REMARK    1  A    between atoms: C_1  and  O_7 
DOCKED: REMARK    2  A    between atoms: C_2  and  O_12 
DOCKED: REMARK    3  A    between atoms: C_3  and  O_17 
DOCKED: REMARK    4  A    between atoms: C_4  and  O_22 
DOCKED: REMARK    5  A    between atoms: C_5  and  O_27 
DOCKED: REMARK    6  A    between atoms: C_6  and  O_32 
DOCKED: REMARK    7  A    between atoms: O_7  and  P_8 
DOCKED: REMARK    8  A    between atoms: P_8  and  O_10 
DOCKED: REMARK    9  A    between atoms: P_8  and  O_11 
DOCKED: REMARK   10  A    between atoms: O_12  and  P_13 
DOCKED: REMARK   11  A    between atoms: P_13  and  O_15 
DOCKED: REMARK   12  A    between atoms: P_13  and  O_16 
DOCKED: REMARK   13  A    between atoms: O_17  and  P_18 
DOCKED: REMARK   14  A    between atoms: P_18  and  O_20 
DOCKED: REMARK   15  A    between atoms: P_18  and  O_21 
DOCKED: REMARK   16  A    between atoms: O_22  and  P_23 
DOCKED: REMARK   17  A    between atoms: P_23  and  O_25 
DOCKED: REMARK   18  A    between atoms: P_23  and  O_26 
DOCKED: REMARK   19  A    between atoms: O_27  and  P_28 
DOCKED: REMARK   20  A    between atoms: P_28  and  O_30 
DOCKED: REMARK   21  A    between atoms: P_28  and  O_31 
DOCKED: REMARK   22  A    between atoms: O_32  and  P_33 
DOCKED: REMARK   23  A    between atoms: P_33  and  O_35 
DOCKED: REMARK   24  A    between atoms: P_33  and  O_36 
DOCKED: USER                              x       y       z     vdW  Elec       q    Type
DOCKED: USER                           _______ _______ _______ _____ _____    ______ ____
DOCKED: ROOT
DOCKED: ATOM      1  C   UNL d   1      -5.463 -14.825  11.009 -0.06 +0.03    +0.194 C 
DOCKED: ATOM      2  C   UNL d   1      -4.853 -16.211  10.795 -0.01 +0.04    +0.194 C 
DOCKED: ATOM      3  C   UNL d   1      -4.120 -16.307   9.455 -0.01 +0.06    +0.194 C 
DOCKED: ATOM      4  C   UNL d   1      -3.101 -15.190   9.245 -0.05 +0.07    +0.194 C 
DOCKED: ATOM      5  C   UNL d   1      -3.634 -13.798   9.558 -0.10 +0.05    +0.194 C 
DOCKED: ATOM      6  C   UNL d   1      -4.420 -13.715  10.869 -0.10 +0.02    +0.194 C 
DOCKED: ENDROOT
DOCKED: BRANCH   1   7
DOCKED: ATOM      7  O   UNL d   1      -5.973 -14.763  12.343 -0.03 -0.04    -0.278 OA
DOCKED: BRANCH   7   8
DOCKED: ATOM      8  P   UNL d   1      -7.478 -15.233  12.602 -0.04 +0.07    +0.473 P 
DOCKED: ATOM      9  O   UNL d   1      -8.494 -14.146  12.563 -0.11 -0.04    -0.228 OA
DOCKED: BRANCH   8  10
DOCKED: ATOM     10  O   UNL d   1      -7.725 -16.363  11.503 -0.01 -0.05    -0.303 OA
DOCKED: ATOM     11  H   UNL d   1      -7.796 -17.233  11.939 +0.01 +0.03    +0.222 HD
DOCKED: ENDBRANCH   8  10
DOCKED: BRANCH   8  12
DOCKED: ATOM     12  O   UNL d   1      -7.420 -16.081  13.944 -0.01 -0.04    -0.303 OA
DOCKED: ATOM     13  H   UNL d   1      -6.524 -16.436  14.138 +0.01 +0.03    +0.222 HD
DOCKED: ENDBRANCH   8  12
DOCKED: ENDBRANCH   7   8
DOCKED: ENDBRANCH   1   7
DOCKED: BRANCH   2  14
DOCKED: ATOM     14  O   UNL d   1      -3.916 -16.477  11.847 -0.00 -0.05    -0.278 OA
DOCKED: BRANCH  14  15
DOCKED: ATOM     15  P   UNL d   1      -4.285 -17.672  12.848 +0.00 +0.07    +0.473 P 
DOCKED: ATOM     16  O   UNL d   1      -3.898 -17.490  14.282 +0.00 -0.03    -0.228 OA
DOCKED: BRANCH  15  17
DOCKED: ATOM     17  O   UNL d   1      -5.853 -17.872  12.652 -0.00 -0.04    -0.303 OA
DOCKED: ATOM     18  H   UNL d   1      -6.290 -17.027  12.430 +0.01 +0.03    +0.222 HD
DOCKED: ENDBRANCH  15  17
DOCKED: BRANCH  15  19
DOCKED: ATOM     19  O   UNL d   1      -3.706 -18.974  12.141 +0.00 -0.05    -0.303 OA
DOCKED: ATOM     20  H   UNL d   1      -3.372 -18.780  11.246 +0.00 +0.04    +0.222 HD
DOCKED: ENDBRANCH  15  19
DOCKED: ENDBRANCH  14  15
DOCKED: ENDBRANCH   2  14
DOCKED: BRANCH   6  21
DOCKED: ATOM     21  O   UNL d   1      -5.126 -12.477  10.849 -0.20 +0.00    -0.278 OA
DOCKED: BRANCH  21  22
DOCKED: ATOM     22  P   UNL d   1      -4.482 -11.186  11.529 -0.25 -0.21    +0.473 P 
DOCKED: ATOM     23  O   UNL d   1      -5.397 -10.181  12.142 -0.37 +0.08    -0.228 OA
DOCKED: BRANCH  22  24
DOCKED: ATOM     24  O   UNL d   1      -3.435 -11.837  12.536 -0.13 +0.15    -0.303 OA
DOCKED: ATOM     25  H   UNL d   1      -2.790 -12.372  12.008 +0.05 -0.07    +0.222 HD
DOCKED: ENDBRANCH  22  24
DOCKED: BRANCH  22  26
DOCKED: ATOM     26  O   UNL d   1      -3.525 -10.646  10.361 -0.24 +0.26    -0.303 OA
DOCKED: ATOM     27  H   UNL d   1      -2.616 -10.977  10.512 -0.17 -0.30    +0.222 HD
DOCKED: ENDBRANCH  22  26
DOCKED: ENDBRANCH  21  22
DOCKED: ENDBRANCH   6  21
DOCKED: BRANCH   3  28
DOCKED: ATOM     28  O   UNL d   1      -3.363 -17.511   9.466 -0.00 -0.08    -0.278 OA
DOCKED: BRANCH  28  29
DOCKED: ATOM     29  P   UNL d   1      -4.017 -18.877   8.974 +0.01 +0.12    +0.473 P 
DOCKED: ATOM     30  O   UNL d   1      -4.405 -18.922   7.541 -0.00 -0.08    -0.228 OA
DOCKED: BRANCH  29  31
DOCKED: ATOM     31  O   UNL d   1      -2.896 -19.913   9.456 +0.00 -0.07    -0.303 OA
DOCKED: ATOM     32  H   UNL d   1      -3.040 -20.109  10.410 +0.00 +0.04    +0.222 HD
DOCKED: ENDBRANCH  29  31
DOCKED: BRANCH  29  33
DOCKED: ATOM     33  O   UNL d   1      -5.179 -19.095  10.041 +0.00 -0.06    -0.303 OA
DOCKED: ATOM     34  H   UNL d   1      -5.060 -18.450  10.781 +0.00 +0.04    +0.222 HD
DOCKED: ENDBRANCH  29  33
DOCKED: ENDBRANCH  28  29
DOCKED: ENDBRANCH   3  28
DOCKED: BRANCH   5  35
DOCKED: ATOM     35  O   UNL d   1      -2.484 -12.967   9.705 -0.19 -0.07    -0.278 OA
DOCKED: BRANCH  35  36
DOCKED: ATOM     36  P   UNL d   1      -1.280 -13.420  10.649 -0.08 +0.29    +0.473 P 
DOCKED: ATOM     37  O   UNL d   1      -0.124 -14.066   9.954 -0.67 -0.32    -0.228 OA
DOCKED: BRANCH  36  38
DOCKED: ATOM     38  O   UNL d   1      -0.920 -12.059  11.393 -0.16 -0.05    -0.303 OA
DOCKED: ATOM     39  H   UNL d   1      -1.682 -11.444  11.325 -0.48 -0.29    +0.222 HD
DOCKED: ENDBRANCH  36  38
DOCKED: BRANCH  36  40
DOCKED: ATOM     40  O   UNL d   1      -2.025 -14.278  11.762 -0.03 -0.08    -0.303 OA
DOCKED: ATOM     41  H   UNL d   1      -2.195 -15.198  11.459 +0.03 +0.06    +0.222 HD
DOCKED: ENDBRANCH  36  40
DOCKED: ENDBRANCH  35  36
DOCKED: ENDBRANCH   5  35
DOCKED: BRANCH   4  42
DOCKED: ATOM     42  O   UNL d   1      -2.751 -15.204   7.857 -0.05 -0.14    -0.278 OA
DOCKED: BRANCH  42  43
DOCKED: ATOM     43  P   UNL d   1      -1.500 -16.075   7.387 -0.00 +0.23    +0.473 P 
DOCKED: ATOM     44  O   UNL d   1      -0.533 -15.439   6.449 -0.05 -0.13    -0.228 OA
DOCKED: BRANCH  43  45
DOCKED: ATOM     45  O   UNL d   1      -0.859 -16.539   8.767 -0.01 -0.13    -0.303 OA
DOCKED: ATOM     46  H   UNL d   1      -0.607 -15.773   9.320 +0.03 +0.12    +0.222 HD
DOCKED: ENDBRANCH  43  45
DOCKED: BRANCH  43  47
DOCKED: ATOM     47  O   UNL d   1      -2.174 -17.434   6.868 -0.01 -0.14    -0.303 OA
DOCKED: ATOM     48  H   UNL d   1      -2.460 -17.967   7.639 +0.01 +0.08    +0.222 HD
DOCKED: ENDBRANCH  43  47
DOCKED: ENDBRANCH  42  43
DOCKED: ENDBRANCH   4  42
DOCKED: TORSDOF 24
DOCKED: TER
DOCKED: ENDMDL
________________________________________________________________________________


	BEGINNING GENETIC ALGORITHM DOCKING 16 of 100
Run: 16 Seed: 67595240 1562580618 [ Run 16 of 100 GA/GALS ]
Beginning LAMARCKIAN GENETIC ALGORITHM (LGA), with a maximum of 25000000 energy evaluations.

Final-Value: -18.477


	FINAL GENETIC ALGORITHM DOCKED STATE
	_______________________________________________


Detailed state:  trans -14.060 -15.023 -5.574 quatxyzw 0.106793 0.437070 0.488096 -0.747882 center 0.035 0.082 -0.065 ntor 24 177.6762 105.5741 131.3821 138.9116 28.6520 -108.0927 -69.0495 -35.4189 77.1204 119.4932 -171.1195 162.3538 -95.7576 69.1506 -56.8865 175.3195 103.9526 163.6107 -135.4239 -20.5770 -172.3774 -20.9096 5.0583 177.0756
State:	-14.060 -15.023  -5.574   0.161  0.658  0.735 -83.186    177.68  105.57  131.38  138.91   28.65 -108.09  -69.05  -35.42   77.12  119.49 -171.12  162.35  -95.76   69.15  -56.89  175.32  103.95  163.61 -135.42  -20.58 -172.38  -20.91    5.06  177.08

DOCKED: MODEL       16
DOCKED: USER    Run = 16
DOCKED: USER    DPF = D:/Protein_go_brrr/autodock/final/AncA/IHP/dock.dpf
DOCKED: USER  
DOCKED: USER    Estimated Free Energy of Binding    =   +2.10 kcal/mol  [=(1)+(2)+(3)-(4)]
DOCKED: USER    
DOCKED: USER    (1) Final Intermolecular Energy     =   -5.06 kcal/mol
DOCKED: USER        vdW + Hbond + desolv Energy     =   -4.91 kcal/mol
DOCKED: USER        Electrostatic Energy            =   -0.15 kcal/mol
DOCKED: USER    (2) Final Total Internal Energy     =  -13.42 kcal/mol
DOCKED: USER    (3) Torsional Free Energy           =   +7.16 kcal/mol
DOCKED: USER    (4) Unbound System's Energy  [=(2)] =  -13.42 kcal/mol
DOCKED: USER    
DOCKED: USER    
DOCKED: USER    NEWDPF move IHP_ideal_opt.pdbqt
DOCKED: USER    NEWDPF about 0.035000 0.082000 -0.065000
DOCKED: USER    NEWDPF tran0 -14.059602 -15.023187 -5.573972
DOCKED: USER    NEWDPF quaternion0 0.106793 0.437070 0.488096 -0.747882
DOCKED: USER    NEWDPF axisangle0 0.160873 0.658405 0.735271 -83.185571
DOCKED: USER    NEWDPF quat0 0.160873 0.658405 0.735271 -83.185571
DOCKED: USER    NEWDPF dihe0 177.68 105.57 131.38 138.91 28.65 -108.09 -69.05 -35.42 77.12 119.49 -171.12 162.35 -95.76 69.15 -56.89 175.32 103.95 163.61 -135.42 -20.58 -172.38 -20.91 5.06 177.08 
DOCKED: USER  keepresnum = 1 
DOCKED: USER  
DOCKED: REMARK  24 active torsions:
DOCKED: REMARK  status: ('A' for Active; 'I' for Inactive)
DOCKED: REMARK    1  A    between atoms: C_1  and  O_7 
DOCKED: REMARK    2  A    between atoms: C_2  and  O_12 
DOCKED: REMARK    3  A    between atoms: C_3  and  O_17 
DOCKED: REMARK    4  A    between atoms: C_4  and  O_22 
DOCKED: REMARK    5  A    between atoms: C_5  and  O_27 
DOCKED: REMARK    6  A    between atoms: C_6  and  O_32 
DOCKED: REMARK    7  A    between atoms: O_7  and  P_8 
DOCKED: REMARK    8  A    between atoms: P_8  and  O_10 
DOCKED: REMARK    9  A    between atoms: P_8  and  O_11 
DOCKED: REMARK   10  A    between atoms: O_12  and  P_13 
DOCKED: REMARK   11  A    between atoms: P_13  and  O_15 
DOCKED: REMARK   12  A    between atoms: P_13  and  O_16 
DOCKED: REMARK   13  A    between atoms: O_17  and  P_18 
DOCKED: REMARK   14  A    between atoms: P_18  and  O_20 
DOCKED: REMARK   15  A    between atoms: P_18  and  O_21 
DOCKED: REMARK   16  A    between atoms: O_22  and  P_23 
DOCKED: REMARK   17  A    between atoms: P_23  and  O_25 
DOCKED: REMARK   18  A    between atoms: P_23  and  O_26 
DOCKED: REMARK   19  A    between atoms: O_27  and  P_28 
DOCKED: REMARK   20  A    between atoms: P_28  and  O_30 
DOCKED: REMARK   21  A    between atoms: P_28  and  O_31 
DOCKED: REMARK   22  A    between atoms: O_32  and  P_33 
DOCKED: REMARK   23  A    between atoms: P_33  and  O_35 
DOCKED: REMARK   24  A    between atoms: P_33  and  O_36 
DOCKED: USER                              x       y       z     vdW  Elec       q    Type
DOCKED: USER                           _______ _______ _______ _____ _____    ______ ____
DOCKED: ROOT
DOCKED: ATOM      1  C   UNL d   1     -12.717 -14.225  -6.312 -0.20 +0.03    +0.194 C 
DOCKED: ATOM      2  C   UNL d   1     -12.662 -15.754  -6.318 -0.12 +0.04    +0.194 C 
DOCKED: ATOM      3  C   UNL d   1     -13.094 -16.341  -4.973 -0.04 +0.04    +0.194 C 
DOCKED: ATOM      4  C   UNL d   1     -14.444 -15.814  -4.492 -0.02 +0.03    +0.194 C 
DOCKED: ATOM      5  C   UNL d   1     -14.586 -14.300  -4.578 -0.06 +0.03    +0.194 C 
DOCKED: ATOM      6  C   UNL d   1     -14.096 -13.706  -5.901 -0.09 +0.03    +0.194 C 
DOCKED: ENDROOT
DOCKED: BRANCH   1   7
DOCKED: ATOM      7  O   UNL d   1     -12.469 -13.765  -7.643 -0.15 +0.00    -0.278 OA
DOCKED: BRANCH   7   8
DOCKED: ATOM      8  P   UNL d   1     -13.713 -13.292  -8.527 -0.14 +0.02    +0.473 P 
DOCKED: ATOM      9  O   UNL d   1     -14.906 -14.179  -8.464 -0.07 -0.03    -0.228 OA
DOCKED: BRANCH   8  10
DOCKED: ATOM     10  O   UNL d   1     -14.006 -11.808  -8.019 -0.16 +0.02    -0.303 OA
DOCKED: ATOM     11  H   UNL d   1     -13.216 -11.455  -7.568 -0.36 -0.05    +0.222 HD
DOCKED: ENDBRANCH   8  10
DOCKED: BRANCH   8  12
DOCKED: ATOM     12  O   UNL d   1     -13.115 -13.035  -9.977 -0.26 -0.01    -0.303 OA
DOCKED: ATOM     13  H   UNL d   1     -12.712 -13.839 -10.375 -0.32 -0.02    +0.222 HD
DOCKED: ENDBRANCH   8  12
DOCKED: ENDBRANCH   7   8
DOCKED: ENDBRANCH   1   7
DOCKED: BRANCH   2  14
DOCKED: ATOM     14  O   UNL d   1     -13.540 -16.249  -7.336 -0.06 -0.05    -0.278 OA
DOCKED: BRANCH  14  15
DOCKED: ATOM     15  P   UNL d   1     -12.848 -16.939  -8.605 -0.07 +0.09    +0.473 P 
DOCKED: ATOM     16  O   UNL d   1     -13.281 -18.334  -8.931 -0.03 -0.06    -0.228 OA
DOCKED: BRANCH  15  17
DOCKED: ATOM     17  O   UNL d   1     -13.114 -15.915  -9.796 -0.09 -0.03    -0.303 OA
DOCKED: ATOM     18  H   UNL d   1     -13.079 -14.991  -9.480 -0.44 -0.02    +0.222 HD
DOCKED: ENDBRANCH  15  17
DOCKED: BRANCH  15  19
DOCKED: ATOM     19  O   UNL d   1     -11.288 -16.745  -8.360 -0.14 -0.07    -0.303 OA
DOCKED: ATOM     20  H   UNL d   1     -10.940 -17.396  -7.722 +0.06 +0.08    +0.222 HD
DOCKED: ENDBRANCH  15  19
DOCKED: ENDBRANCH  14  15
DOCKED: ENDBRANCH   2  14
DOCKED: BRANCH   6  21
DOCKED: ATOM     21  O   UNL d   1     -13.970 -12.300  -5.699 -0.11 -0.02    -0.278 OA
DOCKED: BRANCH  21  22
DOCKED: ATOM     22  P   UNL d   1     -12.628 -11.706  -5.074 -0.21 +0.05    +0.473 P 
DOCKED: ATOM     23  O   UNL d   1     -11.817 -12.585  -4.182 -0.19 -0.05    -0.228 OA
DOCKED: BRANCH  22  24
DOCKED: ATOM     24  O   UNL d   1     -11.866 -11.186  -6.371 -0.20 -0.02    -0.303 OA
DOCKED: ATOM     25  H   UNL d   1     -12.034 -11.830  -7.105 -0.32 +0.00    +0.222 HD
DOCKED: ENDBRANCH  22  24
DOCKED: BRANCH  22  26
DOCKED: ATOM     26  O   UNL d   1     -13.150 -10.336  -4.425 +0.03 +0.04    -0.303 OA
DOCKED: ATOM     27  H   UNL d   1     -13.606 -10.533  -3.581 -0.38 -0.09    +0.222 HD
DOCKED: ENDBRANCH  22  26
DOCKED: ENDBRANCH  21  22
DOCKED: ENDBRANCH   6  21
DOCKED: BRANCH   3  28
DOCKED: ATOM     28  O   UNL d   1     -13.278 -17.739  -5.155 -0.01 -0.07    -0.278 OA
DOCKED: BRANCH  28  29
DOCKED: ATOM     29  P   UNL d   1     -12.063 -18.746  -4.936 -0.00 +0.14    +0.473 P 
DOCKED: ATOM     30  O   UNL d   1     -12.433 -20.101  -4.453 -0.00 -0.06    -0.228 OA
DOCKED: BRANCH  29  31
DOCKED: ATOM     31  O   UNL d   1     -11.360 -18.652  -6.370 -0.02 -0.11    -0.303 OA
DOCKED: ATOM     32  H   UNL d   1     -12.002 -18.264  -7.009 +0.04 +0.07    +0.222 HD
DOCKED: ENDBRANCH  29  31
DOCKED: BRANCH  29  33
DOCKED: ATOM     33  O   UNL d   1     -11.087 -17.894  -4.010 -0.01 -0.11    -0.303 OA
DOCKED: ATOM     34  H   UNL d   1     -11.615 -17.209  -3.531 +0.03 +0.07    +0.222 HD
DOCKED: ENDBRANCH  29  33
DOCKED: ENDBRANCH  28  29
DOCKED: ENDBRANCH   3  28
DOCKED: BRANCH   5  35
DOCKED: ATOM     35  O   UNL d   1     -15.985 -14.036  -4.492 -0.03 -0.03    -0.278 OA
DOCKED: BRANCH  35  36
DOCKED: ATOM     36  P   UNL d   1     -16.526 -12.861  -3.560 -0.13 +0.04    +0.473 P 
DOCKED: ATOM     37  O   UNL d   1     -17.770 -12.180  -4.037 -0.11 -0.01    -0.228 OA
DOCKED: BRANCH  36  38
DOCKED: ATOM     38  O   UNL d   1     -16.682 -13.602  -2.159 -0.18 -0.04    -0.303 OA
DOCKED: ATOM     39  H   UNL d   1     -16.305 -14.505  -2.230 +0.05 +0.03    +0.222 HD
DOCKED: ENDBRANCH  36  38
DOCKED: BRANCH  36  40
DOCKED: ATOM     40  O   UNL d   1     -15.234 -11.953  -3.372 -0.30 -0.02    -0.303 OA
DOCKED: ATOM     41  H   UNL d   1     -15.062 -11.396  -4.163 +0.10 +0.00    +0.222 HD
DOCKED: ENDBRANCH  36  40
DOCKED: ENDBRANCH  35  36
DOCKED: ENDBRANCH   5  35
DOCKED: BRANCH   4  42
DOCKED: ATOM     42  O   UNL d   1     -14.561 -16.170  -3.111 -0.03 -0.05    -0.278 OA
DOCKED: BRANCH  42  43
DOCKED: ATOM     43  P   UNL d   1     -13.564 -15.507  -2.057 -0.09 +0.09    +0.473 P 
DOCKED: ATOM     44  O   UNL d   1     -13.221 -16.300  -0.843 -0.10 -0.05    -0.228 OA
DOCKED: BRANCH  43  45
DOCKED: ATOM     45  O   UNL d   1     -12.310 -15.120  -2.957 -0.07 -0.08    -0.303 OA
DOCKED: ATOM     46  H   UNL d   1     -12.177 -14.152  -2.989 +0.06 +0.05    +0.222 HD
DOCKED: ENDBRANCH  43  45
DOCKED: BRANCH  43  47
DOCKED: ATOM     47  O   UNL d   1     -14.223 -14.072  -1.782 +0.00 -0.01    -0.303 OA
DOCKED: ATOM     48  H   UNL d   1     -14.845 -13.858  -2.509 +0.05 +0.02    +0.222 HD
DOCKED: ENDBRANCH  43  47
DOCKED: ENDBRANCH  42  43
DOCKED: ENDBRANCH   4  42
DOCKED: TORSDOF 24
DOCKED: TER
DOCKED: ENDMDL
________________________________________________________________________________


	BEGINNING GENETIC ALGORITHM DOCKING 17 of 100
Run: 17 Seed: 1844396036 902355327 [ Run 17 of 100 GA/GALS ]
Beginning LAMARCKIAN GENETIC ALGORITHM (LGA), with a maximum of 25000000 energy evaluations.

Final-Value: -17.041


	FINAL GENETIC ALGORITHM DOCKED STATE
	_______________________________________________


Detailed state:  trans -16.997 10.032 3.122 quatxyzw -0.681083 0.445780 0.459173 -0.355760 center 0.035 0.082 -0.065 ntor 24 -111.8274 36.7399 30.6496 -167.6886 98.0663 -148.4330 -53.4059 -95.3507 -4.4287 31.3772 -80.2960 -180.0000 27.0129 -88.0335 111.3768 96.9425 168.0154 3.2179 -6.2541 -5.9831 -11.9209 -20.7463 178.5066 166.1542
State:	-16.997  10.032   3.122  -0.729  0.477  0.491 -138.320   -111.83   36.74   30.65 -167.69   98.07 -148.43  -53.41  -95.35   -4.43   31.38  -80.30 -180.00   27.01  -88.03  111.38   96.94  168.02    3.22   -6.25   -5.98  -11.92  -20.75  178.51  166.15

DOCKED: MODEL       17
DOCKED: USER    Run = 17
DOCKED: USER    DPF = D:/Protein_go_brrr/autodock/final/AncA/IHP/dock.dpf
DOCKED: USER  
DOCKED: USER    Estimated Free Energy of Binding    =   +2.90 kcal/mol  [=(1)+(2)+(3)-(4)]
DOCKED: USER    
DOCKED: USER    (1) Final Intermolecular Energy     =   -4.26 kcal/mol
DOCKED: USER        vdW + Hbond + desolv Energy     =   -4.04 kcal/mol
DOCKED: USER        Electrostatic Energy            =   -0.23 kcal/mol
DOCKED: USER    (2) Final Total Internal Energy     =  -12.78 kcal/mol
DOCKED: USER    (3) Torsional Free Energy           =   +7.16 kcal/mol
DOCKED: USER    (4) Unbound System's Energy  [=(2)] =  -12.78 kcal/mol
DOCKED: USER    
DOCKED: USER    
DOCKED: USER    NEWDPF move IHP_ideal_opt.pdbqt
DOCKED: USER    NEWDPF about 0.035000 0.082000 -0.065000
DOCKED: USER    NEWDPF tran0 -16.997042 10.032077 3.121653
DOCKED: USER    NEWDPF quaternion0 -0.681083 0.445780 0.459173 -0.355760
DOCKED: USER    NEWDPF axisangle0 -0.728761 0.476986 0.491317 -138.319909
DOCKED: USER    NEWDPF quat0 -0.728761 0.476986 0.491317 -138.319909
DOCKED: USER    NEWDPF dihe0 -111.83 36.74 30.65 -167.69 98.07 -148.43 -53.41 -95.35 -4.43 31.38 -80.30 -180.00 27.01 -88.03 111.38 96.94 168.02 3.22 -6.25 -5.98 -11.92 -20.75 178.51 166.15 
DOCKED: USER  keepresnum = 1 
DOCKED: USER  
DOCKED: REMARK  24 active torsions:
DOCKED: REMARK  status: ('A' for Active; 'I' for Inactive)
DOCKED: REMARK    1  A    between atoms: C_1  and  O_7 
DOCKED: REMARK    2  A    between atoms: C_2  and  O_12 
DOCKED: REMARK    3  A    between atoms: C_3  and  O_17 
DOCKED: REMARK    4  A    between atoms: C_4  and  O_22 
DOCKED: REMARK    5  A    between atoms: C_5  and  O_27 
DOCKED: REMARK    6  A    between atoms: C_6  and  O_32 
DOCKED: REMARK    7  A    between atoms: O_7  and  P_8 
DOCKED: REMARK    8  A    between atoms: P_8  and  O_10 
DOCKED: REMARK    9  A    between atoms: P_8  and  O_11 
DOCKED: REMARK   10  A    between atoms: O_12  and  P_13 
DOCKED: REMARK   11  A    between atoms: P_13  and  O_15 
DOCKED: REMARK   12  A    between atoms: P_13  and  O_16 
DOCKED: REMARK   13  A    between atoms: O_17  and  P_18 
DOCKED: REMARK   14  A    between atoms: P_18  and  O_20 
DOCKED: REMARK   15  A    between atoms: P_18  and  O_21 
DOCKED: REMARK   16  A    between atoms: O_22  and  P_23 
DOCKED: REMARK   17  A    between atoms: P_23  and  O_25 
DOCKED: REMARK   18  A    between atoms: P_23  and  O_26 
DOCKED: REMARK   19  A    between atoms: O_27  and  P_28 
DOCKED: REMARK   20  A    between atoms: P_28  and  O_30 
DOCKED: REMARK   21  A    between atoms: P_28  and  O_31 
DOCKED: REMARK   22  A    between atoms: O_32  and  P_33 
DOCKED: REMARK   23  A    between atoms: P_33  and  O_35 
DOCKED: REMARK   24  A    between atoms: P_33  and  O_36 
DOCKED: USER                              x       y       z     vdW  Elec       q    Type
DOCKED: USER                           _______ _______ _______ _____ _____    ______ ____
DOCKED: ROOT
DOCKED: ATOM      1  C   UNL d   1     -16.185  10.698   1.750 -0.09 +0.00    +0.194 C 
DOCKED: ATOM      2  C   UNL d   1     -15.546  10.999   3.107 -0.07 +0.01    +0.194 C 
DOCKED: ATOM      3  C   UNL d   1     -16.595  11.373   4.157 -0.03 +0.01    +0.194 C 
DOCKED: ATOM      4  C   UNL d   1     -17.727  10.354   4.265 -0.04 +0.01    +0.194 C 
DOCKED: ATOM      5  C   UNL d   1     -18.317   9.938   2.924 -0.05 +0.01    +0.194 C 
DOCKED: ATOM      6  C   UNL d   1     -17.268   9.624   1.856 -0.13 -0.00    +0.194 C 
DOCKED: ENDROOT
DOCKED: BRANCH   1   7
DOCKED: ATOM      7  O   UNL d   1     -15.168  10.194   0.880 -0.17 +0.01    -0.278 OA
DOCKED: BRANCH   7   8
DOCKED: ATOM      8  P   UNL d   1     -14.999  10.866  -0.559 -0.10 -0.02    +0.473 P 
DOCKED: ATOM      9  O   UNL d   1     -14.270  12.164  -0.567 -0.05 -0.00    -0.228 OA
DOCKED: BRANCH   8  10
DOCKED: ATOM     10  O   UNL d   1     -14.283   9.738  -1.431 -0.08 +0.06    -0.303 OA
DOCKED: ATOM     11  H   UNL d   1     -14.958   9.182  -1.863 -0.50 -0.08    +0.222 HD
DOCKED: ENDBRANCH   8  10
DOCKED: BRANCH   8  12
DOCKED: ATOM     12  O   UNL d   1     -16.462  10.888  -1.179 -0.04 +0.01    -0.303 OA
DOCKED: ATOM     13  H   UNL d   1     -17.116  10.387  -0.642 +0.05 -0.00    +0.222 HD
DOCKED: ENDBRANCH   8  12
DOCKED: ENDBRANCH   7   8
DOCKED: ENDBRANCH   1   7
DOCKED: BRANCH   2  14
DOCKED: ATOM     14  O   UNL d   1     -14.841   9.836   3.560 -0.15 -0.00    -0.278 OA
DOCKED: BRANCH  14  15
DOCKED: ATOM     15  P   UNL d   1     -13.299  10.037   3.940 -0.14 +0.01    +0.473 P 
DOCKED: ATOM     16  O   UNL d   1     -12.542  11.064   3.158 -0.09 -0.01    -0.228 OA
DOCKED: BRANCH  15  17
DOCKED: ATOM     17  O   UNL d   1     -13.322  10.346   5.503 -0.05 -0.02    -0.303 OA
DOCKED: ATOM     18  H   UNL d   1     -13.775  11.191   5.688 +0.03 +0.02    +0.222 HD
DOCKED: ENDBRANCH  15  17
DOCKED: BRANCH  15  19
DOCKED: ATOM     19  O   UNL d   1     -12.689   8.568   3.914 -0.20 +0.05    -0.303 OA
DOCKED: ATOM     20  H   UNL d   1     -11.852   8.535   3.415 -0.46 -0.12    +0.222 HD
DOCKED: ENDBRANCH  15  19
DOCKED: ENDBRANCH  14  15
DOCKED: ENDBRANCH   2  14
DOCKED: BRANCH   6  21
DOCKED: ATOM     21  O   UNL d   1     -17.950   9.593   0.604 -0.06 +0.00    -0.278 OA
DOCKED: BRANCH  21  22
DOCKED: ATOM     22  P   UNL d   1     -18.057   8.223  -0.206 -0.13 -0.00    +0.473 P 
DOCKED: ATOM     23  O   UNL d   1     -19.332   7.924  -0.921 -0.11 -0.02    -0.228 OA
DOCKED: BRANCH  22  24
DOCKED: ATOM     24  O   UNL d   1     -16.770   8.296  -1.140 -0.14 +0.06    -0.303 OA
DOCKED: ATOM     25  H   UNL d   1     -16.063   8.790  -0.652 -0.33 -0.07    +0.222 HD
DOCKED: ENDBRANCH  22  24
DOCKED: BRANCH  22  26
DOCKED: ATOM     26  O   UNL d   1     -17.603   7.154   0.899 -0.15 +0.04    -0.303 OA
DOCKED: ATOM     27  H   UNL d   1     -17.954   7.426   1.772 -0.09 -0.02    +0.222 HD
DOCKED: ENDBRANCH  22  26
DOCKED: ENDBRANCH  21  22
DOCKED: ENDBRANCH   6  21
DOCKED: BRANCH   3  28
DOCKED: ATOM     28  O   UNL d   1     -15.954  11.361   5.426 -0.02 -0.02    -0.278 OA
DOCKED: BRANCH  28  29
DOCKED: ATOM     29  P   UNL d   1     -15.266  12.681   5.992 -0.00 +0.03    +0.473 P 
DOCKED: ATOM     30  O   UNL d   1     -16.198  13.759   6.413 -0.00 -0.01    -0.228 OA
DOCKED: BRANCH  29  31
DOCKED: ATOM     31  O   UNL d   1     -14.332  12.045   7.125 -0.00 -0.02    -0.303 OA
DOCKED: ATOM     32  H   UNL d   1     -14.482  11.072   7.147 +0.02 +0.02    +0.222 HD
DOCKED: ENDBRANCH  29  31
DOCKED: BRANCH  29  33
DOCKED: ATOM     33  O   UNL d   1     -14.228  13.038   4.839 -0.00 -0.02    -0.303 OA
DOCKED: ATOM     34  H   UNL d   1     -13.861  12.199   4.466 +0.02 +0.01    +0.222 HD
DOCKED: ENDBRANCH  29  33
DOCKED: ENDBRANCH  28  29
DOCKED: ENDBRANCH   3  28
DOCKED: BRANCH   5  35
DOCKED: ATOM     35  O   UNL d   1     -19.035   8.731   3.175 -0.04 -0.02    -0.278 OA
DOCKED: BRANCH  35  36
DOCKED: ATOM     36  P   UNL d   1     -18.333   7.522   3.943 -0.10 +0.04    +0.473 P 
DOCKED: ATOM     37  O   UNL d   1     -18.777   6.154   3.534 -0.18 -0.05    -0.228 OA
DOCKED: BRANCH  36  38
DOCKED: ATOM     38  O   UNL d   1     -16.791   7.817   3.674 -0.08 +0.02    -0.303 OA
DOCKED: ATOM     39  H   UNL d   1     -16.577   7.585   2.745 -0.24 -0.09    +0.222 HD
DOCKED: ENDBRANCH  36  38
DOCKED: BRANCH  36  40
DOCKED: ATOM     40  O   UNL d   1     -18.539   7.922   5.468 -0.05 -0.04    -0.303 OA
DOCKED: ATOM     41  H   UNL d   1     -18.876   8.841   5.561 +0.02 +0.02    +0.222 HD
DOCKED: ENDBRANCH  36  40
DOCKED: ENDBRANCH  35  36
DOCKED: ENDBRANCH   5  35
DOCKED: BRANCH   4  42
DOCKED: ATOM     42  O   UNL d   1     -18.776  10.978   5.012 -0.01 -0.02    -0.278 OA
DOCKED: BRANCH  42  43
DOCKED: ATOM     43  P   UNL d   1     -19.353  12.378   4.509 -0.00 +0.02    +0.473 P 
DOCKED: ATOM     44  O   UNL d   1     -19.725  12.492   3.071 -0.00 -0.01    -0.228 OA
DOCKED: BRANCH  43  45
DOCKED: ATOM     45  O   UNL d   1     -20.557  12.641   5.516 +0.00 -0.02    -0.303 OA
DOCKED: ATOM     46  H   UNL d   1     -21.245  13.207   5.111 +0.00 +0.01    +0.222 HD
DOCKED: ENDBRANCH  43  45
DOCKED: BRANCH  43  47
DOCKED: ATOM     47  O   UNL d   1     -18.260  13.431   5.026 -0.00 -0.01    -0.303 OA
DOCKED: ATOM     48  H   UNL d   1     -17.557  12.954   5.514 +0.00 +0.01    +0.222 HD
DOCKED: ENDBRANCH  43  47
DOCKED: ENDBRANCH  42  43
DOCKED: ENDBRANCH   4  42
DOCKED: TORSDOF 24
DOCKED: TER
DOCKED: ENDMDL
________________________________________________________________________________


	BEGINNING GENETIC ALGORITHM DOCKING 18 of 100
Run: 18 Seed: 166952452 1000974472 [ Run 18 of 100 GA/GALS ]
Beginning LAMARCKIAN GENETIC ALGORITHM (LGA), with a maximum of 25000000 energy evaluations.

Final-Value: -17.456


	FINAL GENETIC ALGORITHM DOCKED STATE
	_______________________________________________


Detailed state:  trans -13.278 -18.362 -15.582 quatxyzw -0.517511 0.266323 -0.186036 0.791609 center 0.035 0.082 -0.065 ntor 24 -155.7197 -33.2973 41.5917 82.7749 156.9343 126.6327 -58.4719 -44.7274 30.1743 57.5712 31.5761 -160.1674 46.8044 -75.7218 82.3700 55.4108 124.7757 152.1365 -145.5798 -5.5568 16.2177 -11.1199 -21.2644 -3.2598
State:	-13.278 -18.362 -15.582  -0.847  0.436 -0.304 75.328   -155.72  -33.30   41.59   82.77  156.93  126.63  -58.47  -44.73   30.17   57.57   31.58 -160.17   46.80  -75.72   82.37   55.41  124.78  152.14 -145.58   -5.56   16.22  -11.12  -21.26   -3.26

DOCKED: MODEL       18
DOCKED: USER    Run = 18
DOCKED: USER    DPF = D:/Protein_go_brrr/autodock/final/AncA/IHP/dock.dpf
DOCKED: USER  
DOCKED: USER    Estimated Free Energy of Binding    =   +3.95 kcal/mol  [=(1)+(2)+(3)-(4)]
DOCKED: USER    
DOCKED: USER    (1) Final Intermolecular Energy     =   -3.21 kcal/mol
DOCKED: USER        vdW + Hbond + desolv Energy     =   -3.20 kcal/mol
DOCKED: USER        Electrostatic Energy            =   -0.02 kcal/mol
DOCKED: USER    (2) Final Total Internal Energy     =  -14.24 kcal/mol
DOCKED: USER    (3) Torsional Free Energy           =   +7.16 kcal/mol
DOCKED: USER    (4) Unbound System's Energy  [=(2)] =  -14.24 kcal/mol
DOCKED: USER    
DOCKED: USER    
DOCKED: USER    NEWDPF move IHP_ideal_opt.pdbqt
DOCKED: USER    NEWDPF about 0.035000 0.082000 -0.065000
DOCKED: USER    NEWDPF tran0 -13.277634 -18.361953 -15.582427
DOCKED: USER    NEWDPF quaternion0 -0.517511 0.266323 -0.186036 0.791609
DOCKED: USER    NEWDPF axisangle0 -0.846951 0.435861 -0.304464 75.327692
DOCKED: USER    NEWDPF quat0 -0.846951 0.435861 -0.304464 75.327692
DOCKED: USER    NEWDPF dihe0 -155.72 -33.30 41.59 82.77 156.93 126.63 -58.47 -44.73 30.17 57.57 31.58 -160.17 46.80 -75.72 82.37 55.41 124.78 152.14 -145.58 -5.56 16.22 -11.12 -21.26 -3.26 
DOCKED: USER  keepresnum = 1 
DOCKED: USER  
DOCKED: REMARK  24 active torsions:
DOCKED: REMARK  status: ('A' for Active; 'I' for Inactive)
DOCKED: REMARK    1  A    between atoms: C_1  and  O_7 
DOCKED: REMARK    2  A    between atoms: C_2  and  O_12 
DOCKED: REMARK    3  A    between atoms: C_3  and  O_17 
DOCKED: REMARK    4  A    between atoms: C_4  and  O_22 
DOCKED: REMARK    5  A    between atoms: C_5  and  O_27 
DOCKED: REMARK    6  A    between atoms: C_6  and  O_32 
DOCKED: REMARK    7  A    between atoms: O_7  and  P_8 
DOCKED: REMARK    8  A    between atoms: P_8  and  O_10 
DOCKED: REMARK    9  A    between atoms: P_8  and  O_11 
DOCKED: REMARK   10  A    between atoms: O_12  and  P_13 
DOCKED: REMARK   11  A    between atoms: P_13  and  O_15 
DOCKED: REMARK   12  A    between atoms: P_13  and  O_16 
DOCKED: REMARK   13  A    between atoms: O_17  and  P_18 
DOCKED: REMARK   14  A    between atoms: P_18  and  O_20 
DOCKED: REMARK   15  A    between atoms: P_18  and  O_21 
DOCKED: REMARK   16  A    between atoms: O_22  and  P_23 
DOCKED: REMARK   17  A    between atoms: P_23  and  O_25 
DOCKED: REMARK   18  A    between atoms: P_23  and  O_26 
DOCKED: REMARK   19  A    between atoms: O_27  and  P_28 
DOCKED: REMARK   20  A    between atoms: P_28  and  O_30 
DOCKED: REMARK   21  A    between atoms: P_28  and  O_31 
DOCKED: REMARK   22  A    between atoms: O_32  and  P_33 
DOCKED: REMARK   23  A    between atoms: P_33  and  O_35 
DOCKED: REMARK   24  A    between atoms: P_33  and  O_36 
DOCKED: USER                              x       y       z     vdW  Elec       q    Type
DOCKED: USER                           _______ _______ _______ _____ _____    ______ ____
DOCKED: ROOT
DOCKED: ATOM      1  C   UNL d   1     -11.964 -19.416 -15.197 -0.02 +0.08    +0.194 C 
DOCKED: ATOM      2  C   UNL d   1     -12.406 -19.418 -16.662 -0.01 +0.07    +0.194 C 
DOCKED: ATOM      3  C   UNL d   1     -13.930 -19.428 -16.794 -0.01 +0.07    +0.194 C 
DOCKED: ATOM      4  C   UNL d   1     -14.611 -18.325 -15.988 -0.04 +0.12    +0.194 C 
DOCKED: ATOM      5  C   UNL d   1     -14.117 -18.212 -14.551 -0.06 +0.12    +0.194 C 
DOCKED: ATOM      6  C   UNL d   1     -12.594 -18.264 -14.414 -0.08 +0.11    +0.194 C 
DOCKED: ENDROOT
DOCKED: BRANCH   1   7
DOCKED: ATOM      7  O   UNL d   1     -10.547 -19.232 -15.159 -0.02 -0.11    -0.278 OA
DOCKED: BRANCH   7   8
DOCKED: ATOM      8  P   UNL d   1      -9.977 -17.744 -15.040 -0.10 +0.20    +0.473 P 
DOCKED: ATOM      9  O   UNL d   1      -9.590 -17.325 -13.666 -0.14 -0.07    -0.228 OA
DOCKED: BRANCH   8  10
DOCKED: ATOM     10  O   UNL d   1      -8.761 -17.713 -16.072 -0.10 -0.13    -0.303 OA
DOCKED: ATOM     11  H   UNL d   1      -9.038 -18.114 -16.917 +0.05 +0.09    +0.222 HD
DOCKED: ENDBRANCH   8  10
DOCKED: BRANCH   8  12
DOCKED: ATOM     12  O   UNL d   1     -11.054 -16.830 -15.768 -0.62 -0.23    -0.303 OA
DOCKED: ATOM     13  H   UNL d   1     -10.984 -16.858 -16.749 +0.05 +0.15    +0.222 HD
DOCKED: ENDBRANCH   8  12
DOCKED: ENDBRANCH   7   8
DOCKED: ENDBRANCH   1   7
DOCKED: BRANCH   2  14
DOCKED: ATOM     14  O   UNL d   1     -11.900 -18.241 -17.304 -0.03 -0.13    -0.278 OA
DOCKED: BRANCH  14  15
DOCKED: ATOM     15  P   UNL d   1     -11.042 -18.466 -18.638 +0.02 +0.16    +0.473 P 
DOCKED: ATOM     16  O   UNL d   1     -10.456 -19.828 -18.838 +0.00 -0.06    -0.228 OA
DOCKED: BRANCH  15  17
DOCKED: ATOM     17  O   UNL d   1     -12.032 -18.041 -19.811 +0.00 -0.09    -0.303 OA
DOCKED: ATOM     18  H   UNL d   1     -12.876 -18.529 -19.753 +0.01 +0.06    +0.222 HD
DOCKED: ENDBRANCH  15  17
DOCKED: BRANCH  15  19
DOCKED: ATOM     19  O   UNL d   1     -10.001 -17.263 -18.647 -0.01 -0.12    -0.303 OA
DOCKED: ATOM     20  H   UNL d   1      -9.855 -16.906 -17.752 +0.05 +0.10    +0.222 HD
DOCKED: ENDBRANCH  15  19
DOCKED: ENDBRANCH  14  15
DOCKED: ENDBRANCH   2  14
DOCKED: BRANCH   6  21
DOCKED: ATOM     21  O   UNL d   1     -12.312 -18.492 -13.035 -0.05 -0.12    -0.278 OA
DOCKED: BRANCH  21  22
DOCKED: ATOM     22  P   UNL d   1     -12.220 -17.256 -12.030 -0.17 +0.19    +0.473 P 
DOCKED: ATOM     23  O   UNL d   1     -13.271 -17.123 -10.979 -0.10 -0.08    -0.228 OA
DOCKED: BRANCH  22  24
DOCKED: ATOM     24  O   UNL d   1     -10.735 -17.398 -11.475 -0.23 -0.12    -0.303 OA
DOCKED: ATOM     25  H   UNL d   1     -10.136 -16.868 -12.060 -0.28 +0.07    +0.222 HD
DOCKED: ENDBRANCH  22  24
DOCKED: BRANCH  22  26
DOCKED: ATOM     26  O   UNL d   1     -12.079 -16.022 -13.044 -0.27 -0.21    -0.303 OA
DOCKED: ATOM     27  H   UNL d   1     -11.398 -16.233 -13.715 -0.42 +0.12    +0.222 HD
DOCKED: ENDBRANCH  22  26
DOCKED: ENDBRANCH  21  22
DOCKED: ENDBRANCH   6  21
DOCKED: BRANCH   3  28
DOCKED: ATOM     28  O   UNL d   1     -14.244 -19.151 -18.153 -0.00 -0.10    -0.278 OA
DOCKED: BRANCH  28  29
DOCKED: ATOM     29  P   UNL d   1     -14.610 -20.336 -19.152 +0.01 +0.11    +0.473 P 
DOCKED: ATOM     30  O   UNL d   1     -15.252 -21.523 -18.530 +0.00 -0.04    -0.228 OA
DOCKED: BRANCH  29  31
DOCKED: ATOM     31  O   UNL d   1     -15.468 -19.531 -20.237 +0.00 -0.06    -0.303 OA
DOCKED: ATOM     32  H   UNL d   1     -15.600 -18.611 -19.913 +0.01 +0.06    +0.222 HD
DOCKED: ENDBRANCH  29  31
DOCKED: BRANCH  29  33
DOCKED: ATOM     33  O   UNL d   1     -13.228 -20.577 -19.905 +0.00 -0.06    -0.303 OA
DOCKED: ATOM     34  H   UNL d   1     -12.507 -20.121 -19.406 +0.00 +0.05    +0.222 HD
DOCKED: ENDBRANCH  29  33
DOCKED: ENDBRANCH  28  29
DOCKED: ENDBRANCH   3  28
DOCKED: BRANCH   5  35
DOCKED: ATOM     35  O   UNL d   1     -14.536 -16.926 -14.098 -0.02 -0.26    -0.278 OA
DOCKED: BRANCH  35  36
DOCKED: ATOM     36  P   UNL d   1     -15.697 -16.794 -13.013 -0.06 +0.29    +0.473 P 
DOCKED: ATOM     37  O   UNL d   1     -15.881 -15.430 -12.427 -0.12 -0.16    -0.228 OA
DOCKED: BRANCH  36  38
DOCKED: ATOM     38  O   UNL d   1     -16.960 -17.336 -13.818 -0.03 -0.14    -0.303 OA
DOCKED: ATOM     39  H   UNL d   1     -16.918 -17.004 -14.741 +0.01 +0.13    +0.222 HD
DOCKED: ENDBRANCH  36  38
DOCKED: BRANCH  36  40
DOCKED: ATOM     40  O   UNL d   1     -15.353 -17.973 -12.002 -0.01 -0.11    -0.303 OA
DOCKED: ATOM     41  H   UNL d   1     -14.436 -18.303 -12.126 +0.03 +0.08    +0.222 HD
DOCKED: ENDBRANCH  36  40
DOCKED: ENDBRANCH  35  36
DOCKED: ENDBRANCH   5  35
DOCKED: BRANCH   4  42
DOCKED: ATOM     42  O   UNL d   1     -16.003 -18.653 -15.930 -0.02 -0.12    -0.278 OA
DOCKED: BRANCH  42  43
DOCKED: ATOM     43  P   UNL d   1     -17.052 -17.697 -16.657 -0.02 +0.22    +0.473 P 
DOCKED: ATOM     44  O   UNL d   1     -18.482 -17.813 -16.255 +0.00 -0.07    -0.228 OA
DOCKED: BRANCH  43  45
DOCKED: ATOM     45  O   UNL d   1     -16.426 -16.252 -16.425 -0.41 -0.31    -0.303 OA
DOCKED: ATOM     46  H   UNL d   1     -16.075 -16.156 -15.517 -0.00 +0.28    +0.222 HD
DOCKED: ENDBRANCH  43  45
DOCKED: BRANCH  43  47
DOCKED: ATOM     47  O   UNL d   1     -16.749 -17.937 -18.213 -0.00 -0.11    -0.303 OA
DOCKED: ATOM     48  H   UNL d   1     -16.257 -18.777 -18.320 +0.01 +0.07    +0.222 HD
DOCKED: ENDBRANCH  43  47
DOCKED: ENDBRANCH  42  43
DOCKED: ENDBRANCH   4  42
DOCKED: TORSDOF 24
DOCKED: TER
DOCKED: ENDMDL
________________________________________________________________________________


	BEGINNING GENETIC ALGORITHM DOCKING 19 of 100
Run: 19 Seed: 321512585 1896653289 [ Run 19 of 100 GA/GALS ]
Beginning LAMARCKIAN GENETIC ALGORITHM (LGA), with a maximum of 25000000 energy evaluations.

Final-Value: -16.403


	FINAL GENETIC ALGORITHM DOCKED STATE
	_______________________________________________


Detailed state:  trans 12.867 13.058 -13.528 quatxyzw -0.178118 0.790638 -0.080349 0.580266 center 0.035 0.082 -0.065 ntor 24 -80.0616 1.9266 10.3625 23.2090 144.2001 128.7564 -78.3854 18.3124 89.8544 8.9869 150.6443 136.1139 -164.6066 -180.0000 -126.0818 -173.9579 34.9484 33.1791 52.5098 -6.8756 -2.9219 21.3663 -15.8185 -8.9260
State:	 12.867  13.058 -13.528  -0.219  0.971 -0.099 109.061    -80.06    1.93   10.36   23.21  144.20  128.76  -78.39   18.31   89.85    8.99  150.64  136.11 -164.61 -180.00 -126.08 -173.96   34.95   33.18   52.51   -6.88   -2.92   21.37  -15.82   -8.93

DOCKED: MODEL       19
DOCKED: USER    Run = 19
DOCKED: USER    DPF = D:/Protein_go_brrr/autodock/final/AncA/IHP/dock.dpf
DOCKED: USER  
DOCKED: USER    Estimated Free Energy of Binding    =   +4.21 kcal/mol  [=(1)+(2)+(3)-(4)]
DOCKED: USER    
DOCKED: USER    (1) Final Intermolecular Energy     =   -2.95 kcal/mol
DOCKED: USER        vdW + Hbond + desolv Energy     =   -2.69 kcal/mol
DOCKED: USER        Electrostatic Energy            =   -0.26 kcal/mol
DOCKED: USER    (2) Final Total Internal Energy     =  -13.45 kcal/mol
DOCKED: USER    (3) Torsional Free Energy           =   +7.16 kcal/mol
DOCKED: USER    (4) Unbound System's Energy  [=(2)] =  -13.45 kcal/mol
DOCKED: USER    
DOCKED: USER    
DOCKED: USER    NEWDPF move IHP_ideal_opt.pdbqt
DOCKED: USER    NEWDPF about 0.035000 0.082000 -0.065000
DOCKED: USER    NEWDPF tran0 12.867102 13.057978 -13.528038
DOCKED: USER    NEWDPF quaternion0 -0.178118 0.790638 -0.080349 0.580266
DOCKED: USER    NEWDPF axisangle0 -0.218703 0.970791 -0.098657 109.061423
DOCKED: USER    NEWDPF quat0 -0.218703 0.970791 -0.098657 109.061423
DOCKED: USER    NEWDPF dihe0 -80.06 1.93 10.36 23.21 144.20 128.76 -78.39 18.31 89.85 8.99 150.64 136.11 -164.61 -180.00 -126.08 -173.96 34.95 33.18 52.51 -6.88 -2.92 21.37 -15.82 -8.93 
DOCKED: USER  keepresnum = 1 
DOCKED: USER  
DOCKED: REMARK  24 active torsions:
DOCKED: REMARK  status: ('A' for Active; 'I' for Inactive)
DOCKED: REMARK    1  A    between atoms: C_1  and  O_7 
DOCKED: REMARK    2  A    between atoms: C_2  and  O_12 
DOCKED: REMARK    3  A    between atoms: C_3  and  O_17 
DOCKED: REMARK    4  A    between atoms: C_4  and  O_22 
DOCKED: REMARK    5  A    between atoms: C_5  and  O_27 
DOCKED: REMARK    6  A    between atoms: C_6  and  O_32 
DOCKED: REMARK    7  A    between atoms: O_7  and  P_8 
DOCKED: REMARK    8  A    between atoms: P_8  and  O_10 
DOCKED: REMARK    9  A    between atoms: P_8  and  O_11 
DOCKED: REMARK   10  A    between atoms: O_12  and  P_13 
DOCKED: REMARK   11  A    between atoms: P_13  and  O_15 
DOCKED: REMARK   12  A    between atoms: P_13  and  O_16 
DOCKED: REMARK   13  A    between atoms: O_17  and  P_18 
DOCKED: REMARK   14  A    between atoms: P_18  and  O_20 
DOCKED: REMARK   15  A    between atoms: P_18  and  O_21 
DOCKED: REMARK   16  A    between atoms: O_22  and  P_23 
DOCKED: REMARK   17  A    between atoms: P_23  and  O_25 
DOCKED: REMARK   18  A    between atoms: P_23  and  O_26 
DOCKED: REMARK   19  A    between atoms: O_27  and  P_28 
DOCKED: REMARK   20  A    between atoms: P_28  and  O_30 
DOCKED: REMARK   21  A    between atoms: P_28  and  O_31 
DOCKED: REMARK   22  A    between atoms: O_32  and  P_33 
DOCKED: REMARK   23  A    between atoms: P_33  and  O_35 
DOCKED: REMARK   24  A    between atoms: P_33  and  O_36 
DOCKED: USER                              x       y       z     vdW  Elec       q    Type
DOCKED: USER                           _______ _______ _______ _____ _____    ______ ____
DOCKED: ROOT
DOCKED: ATOM      1  C   UNL d   1      12.167  11.738 -12.661 -0.06 +0.06    +0.194 C 
DOCKED: ATOM      2  C   UNL d   1      13.125  11.353 -13.790 -0.02 +0.04    +0.194 C 
DOCKED: ATOM      3  C   UNL d   1      12.893  12.201 -15.043 +0.00 +0.03    +0.194 C 
DOCKED: ATOM      4  C   UNL d   1      12.903  13.702 -14.764 +0.00 +0.03    +0.194 C 
DOCKED: ATOM      5  C   UNL d   1      12.050  14.117 -13.572 +0.00 +0.03    +0.194 C 
DOCKED: ATOM      6  C   UNL d   1      12.236  13.231 -12.338 -0.02 +0.06    +0.194 C 
DOCKED: ENDROOT
DOCKED: BRANCH   1   7
DOCKED: ATOM      7  O   UNL d   1      12.559  11.029 -11.483 -0.25 -0.14    -0.278 OA
DOCKED: BRANCH   7   8
DOCKED: ATOM      8  P   UNL d   1      12.329   9.448 -11.437 -0.15 +0.07    +0.473 P 
DOCKED: ATOM      9  O   UNL d   1      11.314   8.987 -10.452 -0.63 -0.07    -0.228 OA
DOCKED: BRANCH   8  10
DOCKED: ATOM     10  O   UNL d   1      11.963   9.067 -12.942 -0.10 -0.02    -0.303 OA
DOCKED: ATOM     11  H   UNL d   1      12.598   8.406 -13.276 -0.45 -0.02    +0.222 HD
DOCKED: ENDBRANCH   8  10
DOCKED: BRANCH   8  12
DOCKED: ATOM     12  O   UNL d   1      13.782   8.825 -11.280 -0.30 +0.03    -0.303 OA
DOCKED: ATOM     13  H   UNL d   1      14.450   9.253 -11.862 +0.08 +0.02    +0.222 HD
DOCKED: ENDBRANCH   8  12
DOCKED: ENDBRANCH   7   8
DOCKED: ENDBRANCH   1   7
DOCKED: BRANCH   2  14
DOCKED: ATOM     14  O   UNL d   1      14.473  11.553 -13.347 -0.01 -0.04    -0.278 OA
DOCKED: BRANCH  14  15
DOCKED: ATOM     15  P   UNL d   1      15.453  10.290 -13.447 -0.02 +0.07    +0.473 P 
DOCKED: ATOM     16  O   UNL d   1      16.140   9.872 -12.185 -0.11 -0.04    -0.228 OA
DOCKED: BRANCH  15  17
DOCKED: ATOM     17  O   UNL d   1      14.541   9.139 -14.064 -0.09 -0.04    -0.303 OA
DOCKED: ATOM     18  H   UNL d   1      14.039   8.676 -13.367 +0.04 +0.01    +0.222 HD
DOCKED: ENDBRANCH  15  17
DOCKED: BRANCH  15  19
DOCKED: ATOM     19  O   UNL d   1      16.413  10.628 -14.670 -0.01 -0.04    -0.303 OA
DOCKED: ATOM     20  H   UNL d   1      15.938  11.097 -15.381 +0.02 +0.03    +0.222 HD
DOCKED: ENDBRANCH  15  19
DOCKED: ENDBRANCH  14  15
DOCKED: ENDBRANCH   2  14
DOCKED: BRANCH   6  21
DOCKED: ATOM     21  O   UNL d   1      11.153  13.519 -11.457 -0.05 -0.14    -0.278 OA
DOCKED: BRANCH  21  22
DOCKED: ATOM     22  P   UNL d   1      11.409  14.395 -10.148 -0.03 +0.25    +0.473 P 
DOCKED: ATOM     23  O   UNL d   1      11.653  13.684  -8.860 -0.56 -0.28    -0.228 OA
DOCKED: BRANCH  22  24
DOCKED: ATOM     24  O   UNL d   1      12.594  15.347 -10.621 +0.00 -0.07    -0.303 OA
DOCKED: ATOM     25  H   UNL d   1      12.207  16.066 -11.182 +0.01 +0.03    +0.222 HD
DOCKED: ENDBRANCH  22  24
DOCKED: BRANCH  22  26
DOCKED: ATOM     26  O   UNL d   1      10.154  15.392 -10.174 -0.02 -0.09    -0.303 OA
DOCKED: ATOM     27  H   UNL d   1      10.038  15.741 -11.081 +0.01 +0.04    +0.222 HD
DOCKED: ENDBRANCH  22  26
DOCKED: ENDBRANCH  21  22
DOCKED: ENDBRANCH   6  21
DOCKED: BRANCH   3  28
DOCKED: ATOM     28  O   UNL d   1      13.987  11.974 -15.922 -0.00 -0.03    -0.278 OA
DOCKED: BRANCH  28  29
DOCKED: ATOM     29  P   UNL d   1      13.730  11.651 -17.461 +0.00 +0.06    +0.473 P 
DOCKED: ATOM     30  O   UNL d   1      14.884  11.883 -18.366 -0.00 -0.02    -0.228 OA
DOCKED: BRANCH  29  31
DOCKED: ATOM     31  O   UNL d   1      13.189  10.149 -17.344 -0.01 -0.05    -0.303 OA
DOCKED: ATOM     32  H   UNL d   1      13.563   9.743 -16.528 +0.03 +0.04    +0.222 HD
DOCKED: ENDBRANCH  29  31
DOCKED: BRANCH  29  33
DOCKED: ATOM     33  O   UNL d   1      12.403  12.480 -17.758 +0.00 -0.04    -0.303 OA
DOCKED: ATOM     34  H   UNL d   1      12.637  13.435 -17.861 +0.00 +0.02    +0.222 HD
DOCKED: ENDBRANCH  29  33
DOCKED: ENDBRANCH  28  29
DOCKED: ENDBRANCH   3  28
DOCKED: BRANCH   5  35
DOCKED: ATOM     35  O   UNL d   1      12.489  15.427 -13.218 +0.00 -0.04    -0.278 OA
DOCKED: BRANCH  35  36
DOCKED: ATOM     36  P   UNL d   1      11.506  16.673 -13.368 +0.01 +0.05    +0.473 P 
DOCKED: ATOM     37  O   UNL d   1      10.499  16.835 -12.273 +0.00 -0.03    -0.228 OA
DOCKED: BRANCH  36  38
DOCKED: ATOM     38  O   UNL d   1      12.532  17.884 -13.498 +0.00 -0.02    -0.303 OA
DOCKED: ATOM     39  H   UNL d   1      13.408  17.535 -13.767 +0.00 +0.02    +0.222 HD
DOCKED: ENDBRANCH  36  38
DOCKED: BRANCH  36  40
DOCKED: ATOM     40  O   UNL d   1      10.944  16.488 -14.844 +0.00 -0.03    -0.303 OA
DOCKED: ATOM     41  H   UNL d   1      11.612  16.083 -15.440 +0.00 +0.02    +0.222 HD
DOCKED: ENDBRANCH  36  40
DOCKED: ENDBRANCH  35  36
DOCKED: ENDBRANCH   5  35
DOCKED: BRANCH   4  42
DOCKED: ATOM     42  O   UNL d   1      12.351  14.342 -15.920 +0.00 -0.03    -0.278 OA
DOCKED: BRANCH  42  43
DOCKED: ATOM     43  P   UNL d   1      13.246  15.393 -16.720 +0.00 +0.04    +0.473 P 
DOCKED: ATOM     44  O   UNL d   1      14.277  14.851 -17.648 +0.00 -0.02    -0.228 OA
DOCKED: BRANCH  43  45
DOCKED: ATOM     45  O   UNL d   1      12.156  16.314 -17.424 +0.00 -0.02    -0.303 OA
DOCKED: ATOM     46  H   UNL d   1      11.767  16.954 -16.794 +0.00 +0.02    +0.222 HD
DOCKED: ENDBRANCH  43  45
DOCKED: BRANCH  43  47
DOCKED: ATOM     47  O   UNL d   1      13.794  16.361 -15.566 +0.00 -0.02    -0.303 OA
DOCKED: ATOM     48  H   UNL d   1      13.058  16.591 -14.961 +0.00 +0.02    +0.222 HD
DOCKED: ENDBRANCH  43  47
DOCKED: ENDBRANCH  42  43
DOCKED: ENDBRANCH   4  42
DOCKED: TORSDOF 24
DOCKED: TER
DOCKED: ENDMDL
________________________________________________________________________________


	BEGINNING GENETIC ALGORITHM DOCKING 20 of 100
Run: 20 Seed: 30220836 848546944 [ Run 20 of 100 GA/GALS ]
Beginning LAMARCKIAN GENETIC ALGORITHM (LGA), with a maximum of 25000000 energy evaluations.

Final-Value: -19.365


	FINAL GENETIC ALGORITHM DOCKED STATE
	_______________________________________________


Detailed state:  trans -16.046 -4.387 -11.661 quatxyzw -0.337635 -0.037949 -0.877229 0.339164 center 0.035 0.082 -0.065 ntor 24 -102.6994 32.6247 36.8262 -11.2122 163.9384 163.9161 -83.5847 9.1728 162.5506 -7.2537 179.9635 151.2429 -142.3987 -158.7095 -125.3131 14.5632 -177.3907 173.2486 27.5208 -49.0284 -46.7913 176.8693 29.6850 1.0267
State:	-16.046  -4.387 -11.661  -0.359 -0.040 -0.933 140.348   -102.70   32.62   36.83  -11.21  163.94  163.92  -83.58    9.17  162.55   -7.25  179.96  151.24 -142.40 -158.71 -125.31   14.56 -177.39  173.25   27.52  -49.03  -46.79  176.87   29.69    1.03

DOCKED: MODEL       20
DOCKED: USER    Run = 20
DOCKED: USER    DPF = D:/Protein_go_brrr/autodock/final/AncA/IHP/dock.dpf
DOCKED: USER  
DOCKED: USER    Estimated Free Energy of Binding    =   +2.24 kcal/mol  [=(1)+(2)+(3)-(4)]
DOCKED: USER    
DOCKED: USER    (1) Final Intermolecular Energy     =   -4.92 kcal/mol
DOCKED: USER        vdW + Hbond + desolv Energy     =   -4.42 kcal/mol
DOCKED: USER        Electrostatic Energy            =   -0.50 kcal/mol
DOCKED: USER    (2) Final Total Internal Energy     =  -14.45 kcal/mol
DOCKED: USER    (3) Torsional Free Energy           =   +7.16 kcal/mol
DOCKED: USER    (4) Unbound System's Energy  [=(2)] =  -14.45 kcal/mol
DOCKED: USER    
DOCKED: USER    
DOCKED: USER    NEWDPF move IHP_ideal_opt.pdbqt
DOCKED: USER    NEWDPF about 0.035000 0.082000 -0.065000
DOCKED: USER    NEWDPF tran0 -16.046420 -4.386950 -11.660660
DOCKED: USER    NEWDPF quaternion0 -0.337635 -0.037949 -0.877229 0.339164
DOCKED: USER    NEWDPF axisangle0 -0.358909 -0.040340 -0.932500 140.348072
DOCKED: USER    NEWDPF quat0 -0.358909 -0.040340 -0.932500 140.348072
DOCKED: USER    NEWDPF dihe0 -102.70 32.62 36.83 -11.21 163.94 163.92 -83.58 9.17 162.55 -7.25 179.96 151.24 -142.40 -158.71 -125.31 14.56 -177.39 173.25 27.52 -49.03 -46.79 176.87 29.69 1.03 
DOCKED: USER  keepresnum = 1 
DOCKED: USER  
DOCKED: REMARK  24 active torsions:
DOCKED: REMARK  status: ('A' for Active; 'I' for Inactive)
DOCKED: REMARK    1  A    between atoms: C_1  and  O_7 
DOCKED: REMARK    2  A    between atoms: C_2  and  O_12 
DOCKED: REMARK    3  A    between atoms: C_3  and  O_17 
DOCKED: REMARK    4  A    between atoms: C_4  and  O_22 
DOCKED: REMARK    5  A    between atoms: C_5  and  O_27 
DOCKED: REMARK    6  A    between atoms: C_6  and  O_32 
DOCKED: REMARK    7  A    between atoms: O_7  and  P_8 
DOCKED: REMARK    8  A    between atoms: P_8  and  O_10 
DOCKED: REMARK    9  A    between atoms: P_8  and  O_11 
DOCKED: REMARK   10  A    between atoms: O_12  and  P_13 
DOCKED: REMARK   11  A    between atoms: P_13  and  O_15 
DOCKED: REMARK   12  A    between atoms: P_13  and  O_16 
DOCKED: REMARK   13  A    between atoms: O_17  and  P_18 
DOCKED: REMARK   14  A    between atoms: P_18  and  O_20 
DOCKED: REMARK   15  A    between atoms: P_18  and  O_21 
DOCKED: REMARK   16  A    between atoms: O_22  and  P_23 
DOCKED: REMARK   17  A    between atoms: P_23  and  O_25 
DOCKED: REMARK   18  A    between atoms: P_23  and  O_26 
DOCKED: REMARK   19  A    between atoms: O_27  and  P_28 
DOCKED: REMARK   20  A    between atoms: P_28  and  O_30 
DOCKED: REMARK   21  A    between atoms: P_28  and  O_31 
DOCKED: REMARK   22  A    between atoms: O_32  and  P_33 
DOCKED: REMARK   23  A    between atoms: P_33  and  O_35 
DOCKED: REMARK   24  A    between atoms: P_33  and  O_36 
DOCKED: USER                              x       y       z     vdW  Elec       q    Type
DOCKED: USER                           _______ _______ _______ _____ _____    ______ ____
DOCKED: ROOT
DOCKED: ATOM      1  C   UNL d   1     -15.731  -3.057 -10.605 +0.08 -0.02    +0.194 C 
DOCKED: ATOM      2  C   UNL d   1     -14.825  -3.155 -11.833 -0.01 -0.06    +0.194 C 
DOCKED: ATOM      3  C   UNL d   1     -14.372  -4.593 -12.090 -0.12 -0.07    +0.194 C 
DOCKED: ATOM      4  C   UNL d   1     -15.530  -5.587 -12.146 -0.17 -0.03    +0.194 C 
DOCKED: ATOM      5  C   UNL d   1     -16.523  -5.449 -10.999 -0.13 -0.02    +0.194 C 
DOCKED: ATOM      6  C   UNL d   1     -16.928  -4.003 -10.702 -0.12 -0.02    +0.194 C 
DOCKED: ENDROOT
DOCKED: BRANCH   1   7
DOCKED: ATOM      7  O   UNL d   1     -16.246  -1.725 -10.535 -0.09 +0.01    -0.278 OA
DOCKED: BRANCH   7   8
DOCKED: ATOM      8  P   UNL d   1     -15.483  -0.663  -9.617 -0.16 +0.02    +0.473 P 
DOCKED: ATOM      9  O   UNL d   1     -15.964  -0.584  -8.211 -0.29 -0.03    -0.228 OA
DOCKED: BRANCH   8  10
DOCKED: ATOM     10  O   UNL d   1     -13.948  -1.084  -9.732 -1.11 -0.08    -0.303 OA
DOCKED: ATOM     11  H   UNL d   1     -13.499  -0.508 -10.379 +0.13 -0.01    +0.222 HD
DOCKED: ENDBRANCH   8  10
DOCKED: BRANCH   8  12
DOCKED: ATOM     12  O   UNL d   1     -15.518   0.695 -10.440 -0.07 +0.01    -0.303 OA
DOCKED: ATOM     13  H   UNL d   1     -15.798   0.573 -11.375 +0.07 -0.03    +0.222 HD
DOCKED: ENDBRANCH   8  12
DOCKED: ENDBRANCH   7   8
DOCKED: ENDBRANCH   1   7
DOCKED: BRANCH   2  14
DOCKED: ATOM     14  O   UNL d   1     -15.544  -2.690 -12.983 -0.10 +0.10    -0.278 OA
DOCKED: BRANCH  14  15
DOCKED: ATOM     15  P   UNL d   1     -15.584  -1.106 -13.210 -0.04 -0.20    +0.473 P 
DOCKED: ATOM     16  O   UNL d   1     -16.857  -0.406 -12.847 -0.02 +0.03    -0.228 OA
DOCKED: BRANCH  15  17
DOCKED: ATOM     17  O   UNL d   1     -14.328  -0.565 -12.393 -0.12 +0.22    -0.303 OA
DOCKED: ATOM     18  H   UNL d   1     -14.392  -0.805 -11.449 +0.10 -0.08    +0.222 HD
DOCKED: ENDBRANCH  15  17
DOCKED: BRANCH  15  19
DOCKED: ATOM     19  O   UNL d   1     -15.098  -0.908 -14.712 -0.06 +0.20    -0.303 OA
DOCKED: ATOM     20  H   UNL d   1     -14.147  -1.097 -14.811 -0.32 -0.33    +0.222 HD
DOCKED: ENDBRANCH  15  19
DOCKED: ENDBRANCH  14  15
DOCKED: ENDBRANCH   2  14
DOCKED: BRANCH   6  21
DOCKED: ATOM     21  O   UNL d   1     -17.563  -4.007  -9.426 -0.14 +0.02    -0.278 OA
DOCKED: BRANCH  21  22
DOCKED: ATOM     22  P   UNL d   1     -18.713  -2.947  -9.110 -0.08 +0.01    +0.473 P 
DOCKED: ATOM     23  O   UNL d   1     -18.334  -1.684  -8.413 -0.18 -0.01    -0.228 OA
DOCKED: BRANCH  22  24
DOCKED: ATOM     24  O   UNL d   1     -19.373  -2.746 -10.544 -0.01 -0.01    -0.303 OA
DOCKED: ATOM     25  H   UNL d   1     -20.178  -3.321 -10.596 +0.02 +0.01    +0.222 HD
DOCKED: ENDBRANCH  22  24
DOCKED: BRANCH  22  26
DOCKED: ATOM     26  O   UNL d   1     -19.802  -3.860  -8.369 -0.09 -0.02    -0.303 OA
DOCKED: ATOM     27  H   UNL d   1     -19.550  -4.801  -8.460 +0.04 +0.01    +0.222 HD
DOCKED: ENDBRANCH  22  26
DOCKED: ENDBRANCH  21  22
DOCKED: ENDBRANCH   6  21
DOCKED: BRANCH   3  28
DOCKED: ATOM     28  O   UNL d   1     -13.779  -4.632 -13.382 -0.21 +0.11    -0.278 OA
DOCKED: BRANCH  28  29
DOCKED: ATOM     29  P   UNL d   1     -14.686  -4.523 -14.687 -0.05 -0.15    +0.473 P 
DOCKED: ATOM     30  O   UNL d   1     -16.149  -4.649 -14.463 -0.02 +0.03    -0.228 OA
DOCKED: BRANCH  29  31
DOCKED: ATOM     31  O   UNL d   1     -14.159  -3.132 -15.278 -0.08 +0.23    -0.303 OA
DOCKED: ATOM     32  H   UNL d   1     -13.896  -2.551 -14.527 -0.53 -0.34    +0.222 HD
DOCKED: ENDBRANCH  29  31
DOCKED: BRANCH  29  33
DOCKED: ATOM     33  O   UNL d   1     -14.012  -5.593 -15.653 -0.03 +0.05    -0.303 OA
DOCKED: ATOM     34  H   UNL d   1     -14.169  -6.499 -15.289 +0.06 -0.02    +0.222 HD
DOCKED: ENDBRANCH  29  33
DOCKED: ENDBRANCH  28  29
DOCKED: ENDBRANCH   3  28
DOCKED: BRANCH   5  35
DOCKED: ATOM     35  O   UNL d   1     -17.699  -6.136 -11.420 -0.03 -0.00    -0.278 OA
DOCKED: BRANCH  35  36
DOCKED: ATOM     36  P   UNL d   1     -18.776  -6.618 -10.347 -0.01 +0.02    +0.473 P 
DOCKED: ATOM     37  O   UNL d   1     -19.255  -8.027 -10.502 -0.01 -0.02    -0.228 OA
DOCKED: BRANCH  36  38
DOCKED: ATOM     38  O   UNL d   1     -18.021  -6.331  -8.975 -0.10 -0.00    -0.303 OA
DOCKED: ATOM     39  H   UNL d   1     -18.262  -5.434  -8.657 +0.05 -0.01    +0.222 HD
DOCKED: ENDBRANCH  36  38
DOCKED: BRANCH  36  40
DOCKED: ATOM     40  O   UNL d   1     -19.873  -5.470 -10.428 -0.01 -0.01    -0.303 OA
DOCKED: ATOM     41  H   UNL d   1     -19.469  -4.575 -10.376 +0.03 +0.01    +0.222 HD
DOCKED: ENDBRANCH  36  40
DOCKED: ENDBRANCH  35  36
DOCKED: ENDBRANCH   5  35
DOCKED: BRANCH   4  42
DOCKED: ATOM     42  O   UNL d   1     -14.957  -6.896 -12.052 -0.18 +0.05    -0.278 OA
DOCKED: BRANCH  42  43
DOCKED: ATOM     43  P   UNL d   1     -14.982  -7.843 -13.335 -0.10 +0.01    +0.473 P 
DOCKED: ATOM     44  O   UNL d   1     -15.251  -9.292 -13.114 -0.17 -0.06    -0.228 OA
DOCKED: BRANCH  43  45
DOCKED: ATOM     45  O   UNL d   1     -16.039  -7.122 -14.281 -0.02 -0.01    -0.303 OA
DOCKED: ATOM     46  H   UNL d   1     -15.601  -6.679 -15.035 +0.04 -0.00    +0.222 HD
DOCKED: ENDBRANCH  43  45
DOCKED: BRANCH  43  47
DOCKED: ATOM     47  O   UNL d   1     -13.600  -7.500 -14.070 -0.16 +0.01    -0.303 OA
DOCKED: ATOM     48  H   UNL d   1     -13.356  -6.570 -13.881 +0.09 -0.04    +0.222 HD
DOCKED: ENDBRANCH  43  47
DOCKED: ENDBRANCH  42  43
DOCKED: ENDBRANCH   4  42
DOCKED: TORSDOF 24
DOCKED: TER
DOCKED: ENDMDL
________________________________________________________________________________


	BEGINNING GENETIC ALGORITHM DOCKING 21 of 100
Run: 21 Seed: 422123032 558183700 [ Run 21 of 100 GA/GALS ]
Beginning LAMARCKIAN GENETIC ALGORITHM (LGA), with a maximum of 25000000 energy evaluations.

Final-Value: -16.400


	FINAL GENETIC ALGORITHM DOCKED STATE
	_______________________________________________


Detailed state:  trans -4.383 12.613 8.791 quatxyzw 0.655349 -0.410370 -0.628071 0.087416 center 0.035 0.082 -0.065 ntor 24 -107.4455 -0.4404 19.0455 66.5937 -5.9136 -24.6700 -72.3891 -23.9127 4.9750 -168.3206 28.9474 -152.2261 52.9490 174.8100 -54.8363 71.3021 -132.9910 -13.9234 38.7020 -1.9228 -169.5777 139.4847 -63.4300 151.1640
State:	 -4.383  12.613   8.791   0.658 -0.412 -0.630 169.970   -107.45   -0.44   19.05   66.59   -5.91  -24.67  -72.39  -23.91    4.98 -168.32   28.95 -152.23   52.95  174.81  -54.84   71.30 -132.99  -13.92   38.70   -1.92 -169.58  139.48  -63.43  151.16

DOCKED: MODEL       21
DOCKED: USER    Run = 21
DOCKED: USER    DPF = D:/Protein_go_brrr/autodock/final/AncA/IHP/dock.dpf
DOCKED: USER  
DOCKED: USER    Estimated Free Energy of Binding    =   +3.68 kcal/mol  [=(1)+(2)+(3)-(4)]
DOCKED: USER    
DOCKED: USER    (1) Final Intermolecular Energy     =   -3.48 kcal/mol
DOCKED: USER        vdW + Hbond + desolv Energy     =   -3.29 kcal/mol
DOCKED: USER        Electrostatic Energy            =   -0.19 kcal/mol
DOCKED: USER    (2) Final Total Internal Energy     =  -12.92 kcal/mol
DOCKED: USER    (3) Torsional Free Energy           =   +7.16 kcal/mol
DOCKED: USER    (4) Unbound System's Energy  [=(2)] =  -12.92 kcal/mol
DOCKED: USER    
DOCKED: USER    
DOCKED: USER    NEWDPF move IHP_ideal_opt.pdbqt
DOCKED: USER    NEWDPF about 0.035000 0.082000 -0.065000
DOCKED: USER    NEWDPF tran0 -4.382593 12.612813 8.790998
DOCKED: USER    NEWDPF quaternion0 0.655349 -0.410370 -0.628071 0.087416
DOCKED: USER    NEWDPF axisangle0 0.657867 -0.411947 -0.630485 169.970046
DOCKED: USER    NEWDPF quat0 0.657867 -0.411947 -0.630485 169.970046
DOCKED: USER    NEWDPF dihe0 -107.45 -0.44 19.05 66.59 -5.91 -24.67 -72.39 -23.91 4.98 -168.32 28.95 -152.23 52.95 174.81 -54.84 71.30 -132.99 -13.92 38.70 -1.92 -169.58 139.48 -63.43 151.16 
DOCKED: USER  keepresnum = 1 
DOCKED: USER  
DOCKED: REMARK  24 active torsions:
DOCKED: REMARK  status: ('A' for Active; 'I' for Inactive)
DOCKED: REMARK    1  A    between atoms: C_1  and  O_7 
DOCKED: REMARK    2  A    between atoms: C_2  and  O_12 
DOCKED: REMARK    3  A    between atoms: C_3  and  O_17 
DOCKED: REMARK    4  A    between atoms: C_4  and  O_22 
DOCKED: REMARK    5  A    between atoms: C_5  and  O_27 
DOCKED: REMARK    6  A    between atoms: C_6  and  O_32 
DOCKED: REMARK    7  A    between atoms: O_7  and  P_8 
DOCKED: REMARK    8  A    between atoms: P_8  and  O_10 
DOCKED: REMARK    9  A    between atoms: P_8  and  O_11 
DOCKED: REMARK   10  A    between atoms: O_12  and  P_13 
DOCKED: REMARK   11  A    between atoms: P_13  and  O_15 
DOCKED: REMARK   12  A    between atoms: P_13  and  O_16 
DOCKED: REMARK   13  A    between atoms: O_17  and  P_18 
DOCKED: REMARK   14  A    between atoms: P_18  and  O_20 
DOCKED: REMARK   15  A    between atoms: P_18  and  O_21 
DOCKED: REMARK   16  A    between atoms: O_22  and  P_23 
DOCKED: REMARK   17  A    between atoms: P_23  and  O_25 
DOCKED: REMARK   18  A    between atoms: P_23  and  O_26 
DOCKED: REMARK   19  A    between atoms: O_27  and  P_28 
DOCKED: REMARK   20  A    between atoms: P_28  and  O_30 
DOCKED: REMARK   21  A    between atoms: P_28  and  O_31 
DOCKED: REMARK   22  A    between atoms: O_32  and  P_33 
DOCKED: REMARK   23  A    between atoms: P_33  and  O_35 
DOCKED: REMARK   24  A    between atoms: P_33  and  O_36 
DOCKED: USER                              x       y       z     vdW  Elec       q    Type
DOCKED: USER                           _______ _______ _______ _____ _____    ______ ____
DOCKED: ROOT
DOCKED: ATOM      1  C   UNL d   1      -4.559  13.150   7.159 -0.11 +0.03    +0.194 C 
DOCKED: ATOM      2  C   UNL d   1      -3.604  13.973   8.026 -0.08 +0.02    +0.194 C 
DOCKED: ATOM      3  C   UNL d   1      -4.179  14.223   9.422 -0.05 +0.02    +0.194 C 
DOCKED: ATOM      4  C   UNL d   1      -4.638  12.945  10.120 -0.08 +0.03    +0.194 C 
DOCKED: ATOM      5  C   UNL d   1      -5.500  12.038   9.252 -0.13 +0.07    +0.194 C 
DOCKED: ATOM      6  C   UNL d   1      -4.957  11.838   7.836 -0.03 +0.08    +0.194 C 
DOCKED: ENDROOT
DOCKED: BRANCH   1   7
DOCKED: ATOM      7  O   UNL d   1      -3.883  12.816   5.944 -0.14 -0.04    -0.278 OA
DOCKED: BRANCH   7   8
DOCKED: ATOM      8  P   UNL d   1      -3.879  13.886   4.758 -0.06 +0.03    +0.473 P 
DOCKED: ATOM      9  O   UNL d   1      -2.594  14.613   4.569 -0.05 -0.01    -0.228 OA
DOCKED: BRANCH   8  10
DOCKED: ATOM     10  O   UNL d   1      -4.319  13.045   3.477 -0.10 -0.03    -0.303 OA
DOCKED: ATOM     11  H   UNL d   1      -5.282  13.130   3.345 +0.04 +0.02    +0.222 HD
DOCKED: ENDBRANCH   8  10
DOCKED: BRANCH   8  12
DOCKED: ATOM     12  O   UNL d   1      -5.157  14.793   5.016 -0.02 -0.02    -0.303 OA
DOCKED: ATOM     13  H   UNL d   1      -5.964  14.272   5.231 +0.03 +0.02    +0.222 HD
DOCKED: ENDBRANCH   8  12
DOCKED: ENDBRANCH   7   8
DOCKED: ENDBRANCH   1   7
DOCKED: BRANCH   2  14
DOCKED: ATOM     14  O   UNL d   1      -2.368  13.262   8.162 -0.14 -0.01    -0.278 OA
DOCKED: BRANCH  14  15
DOCKED: ATOM     15  P   UNL d   1      -1.031  14.085   7.845 -0.14 -0.01    +0.473 P 
DOCKED: ATOM     16  O   UNL d   1      -0.059  13.449   6.901 -0.22 +0.01    -0.228 OA
DOCKED: BRANCH  15  17
DOCKED: ATOM     17  O   UNL d   1      -1.558  15.497   7.331 -0.03 -0.00    -0.303 OA
DOCKED: ATOM     18  H   UNL d   1      -1.880  15.439   6.411 +0.04 +0.00    +0.222 HD
DOCKED: ENDBRANCH  15  17
DOCKED: BRANCH  15  19
DOCKED: ATOM     19  O   UNL d   1      -0.449  14.463   9.276 -0.10 +0.01    -0.303 OA
DOCKED: ATOM     20  H   UNL d   1      -0.951  14.034   9.994 +0.06 -0.01    +0.222 HD
DOCKED: ENDBRANCH  15  19
DOCKED: ENDBRANCH  14  15
DOCKED: ENDBRANCH   2  14
DOCKED: BRANCH   6  21
DOCKED: ATOM     21  O   UNL d   1      -6.014  11.273   7.064 -0.50 -0.22    -0.278 OA
DOCKED: BRANCH  21  22
DOCKED: ATOM     22  P   UNL d   1      -7.058  12.231   6.330 -0.07 +0.18    +0.473 P 
DOCKED: ATOM     23  O   UNL d   1      -7.265  13.601   6.881 -0.02 -0.04    -0.228 OA
DOCKED: BRANCH  22  24
DOCKED: ATOM     24  O   UNL d   1      -6.537  12.187   4.827 -0.09 -0.08    -0.303 OA
DOCKED: ATOM     25  H   UNL d   1      -5.692  12.702   4.778 +0.05 +0.04    +0.222 HD
DOCKED: ENDBRANCH  22  24
DOCKED: BRANCH  22  26
DOCKED: ATOM     26  O   UNL d   1      -8.360  11.298   6.257 -0.11 -0.14    -0.303 OA
DOCKED: ATOM     27  H   UNL d   1      -9.148  11.858   6.102 +0.03 +0.06    +0.222 HD
DOCKED: ENDBRANCH  22  26
DOCKED: ENDBRANCH  21  22
DOCKED: ENDBRANCH   6  21
DOCKED: BRANCH   3  28
DOCKED: ATOM     28  O   UNL d   1      -3.130  14.739  10.230 -0.03 -0.01    -0.278 OA
DOCKED: BRANCH  28  29
DOCKED: ATOM     29  P   UNL d   1      -2.506  13.856  11.400 -0.06 +0.01    +0.473 P 
DOCKED: ATOM     30  O   UNL d   1      -2.201  12.446  11.045 -0.18 -0.01    -0.228 OA
DOCKED: BRANCH  29  31
DOCKED: ATOM     31  O   UNL d   1      -1.271  14.783  11.820 -0.02 +0.00    -0.303 OA
DOCKED: ATOM     32  H   UNL d   1      -1.065  15.390  11.073 +0.03 -0.00    +0.222 HD
DOCKED: ENDBRANCH  29  31
DOCKED: BRANCH  29  33
DOCKED: ATOM     33  O   UNL d   1      -3.542  14.092  12.585 -0.01 -0.01    -0.303 OA
DOCKED: ATOM     34  H   UNL d   1      -4.452  14.173  12.206 +0.02 +0.01    +0.222 HD
DOCKED: ENDBRANCH  29  33
DOCKED: ENDBRANCH  28  29
DOCKED: ENDBRANCH   3  28
DOCKED: BRANCH   5  35
DOCKED: ATOM     35  O   UNL d   1      -5.486  10.763   9.891 -0.73 -0.18    -0.278 OA
DOCKED: BRANCH  35  36
DOCKED: ATOM     36  P   UNL d   1      -6.186  10.567  11.311 -0.07 +0.15    +0.473 P 
DOCKED: ATOM     37  O   UNL d   1      -5.321  10.840  12.500 -0.06 -0.03    -0.228 OA
DOCKED: BRANCH  36  38
DOCKED: ATOM     38  O   UNL d   1      -7.450  11.527  11.186 -0.02 -0.07    -0.303 OA
DOCKED: ATOM     39  H   UNL d   1      -7.141  12.456  11.111 +0.02 +0.04    +0.222 HD
DOCKED: ENDBRANCH  36  38
DOCKED: BRANCH  36  40
DOCKED: ATOM     40  O   UNL d   1      -6.802   9.106  11.187 -0.19 -0.14    -0.303 OA
DOCKED: ATOM     41  H   UNL d   1      -6.845   8.654  12.059 +0.04 +0.04    +0.222 HD
DOCKED: ENDBRANCH  36  40
DOCKED: ENDBRANCH  35  36
DOCKED: ENDBRANCH   5  35
DOCKED: BRANCH   4  42
DOCKED: ATOM     42  O   UNL d   1      -5.441  13.348  11.235 -0.02 -0.03    -0.278 OA
DOCKED: BRANCH  42  43
DOCKED: ATOM     43  P   UNL d   1      -6.452  14.569  11.056 +0.01 +0.04    +0.473 P 
DOCKED: ATOM     44  O   UNL d   1      -7.060  14.765   9.711 -0.00 -0.02    -0.228 OA
DOCKED: BRANCH  43  45
DOCKED: ATOM     45  O   UNL d   1      -7.510  14.319  12.218 +0.00 -0.02    -0.303 OA
DOCKED: ATOM     46  H   UNL d   1      -7.772  13.378  12.267 +0.01 +0.02    +0.222 HD
DOCKED: ENDBRANCH  43  45
DOCKED: BRANCH  43  47
DOCKED: ATOM     47  O   UNL d   1      -5.625  15.816  11.631 -0.00 -0.01    -0.303 OA
DOCKED: ATOM     48  H   UNL d   1      -4.667  15.641  11.531 +0.01 +0.01    +0.222 HD
DOCKED: ENDBRANCH  43  47
DOCKED: ENDBRANCH  42  43
DOCKED: ENDBRANCH   4  42
DOCKED: TORSDOF 24
DOCKED: TER
DOCKED: ENDMDL
________________________________________________________________________________


	BEGINNING GENETIC ALGORITHM DOCKING 22 of 100
Run: 22 Seed: 792252482 1610952407 [ Run 22 of 100 GA/GALS ]
Beginning LAMARCKIAN GENETIC ALGORITHM (LGA), with a maximum of 25000000 energy evaluations.

Final-Value: -16.799


	FINAL GENETIC ALGORITHM DOCKED STATE
	_______________________________________________


Detailed state:  trans -13.355 -15.302 7.597 quatxyzw 0.589521 -0.117428 -0.034093 -0.798445 center 0.035 0.082 -0.065 ntor 24 72.3773 -154.4348 26.5110 -179.6967 141.4343 121.8331 -35.1989 -103.2323 102.4406 9.3274 158.5044 97.5613 159.8039 -86.0154 -145.2811 90.5650 -138.9158 63.6017 -23.7053 -2.8934 3.1311 -16.4087 -21.0785 11.2714
State:	-13.355 -15.302   7.597   0.979 -0.195 -0.057 -74.036     72.38 -154.43   26.51 -179.70  141.43  121.83  -35.20 -103.23  102.44    9.33  158.50   97.56  159.80  -86.02 -145.28   90.57 -138.92   63.60  -23.71   -2.89    3.13  -16.41  -21.08   11.27

DOCKED: MODEL       22
DOCKED: USER    Run = 22
DOCKED: USER    DPF = D:/Protein_go_brrr/autodock/final/AncA/IHP/dock.dpf
DOCKED: USER  
DOCKED: USER    Estimated Free Energy of Binding    =   +2.10 kcal/mol  [=(1)+(2)+(3)-(4)]
DOCKED: USER    
DOCKED: USER    (1) Final Intermolecular Energy     =   -5.06 kcal/mol
DOCKED: USER        vdW + Hbond + desolv Energy     =   -4.80 kcal/mol
DOCKED: USER        Electrostatic Energy            =   -0.26 kcal/mol
DOCKED: USER    (2) Final Total Internal Energy     =  -11.74 kcal/mol
DOCKED: USER    (3) Torsional Free Energy           =   +7.16 kcal/mol
DOCKED: USER    (4) Unbound System's Energy  [=(2)] =  -11.74 kcal/mol
DOCKED: USER    
DOCKED: USER    
DOCKED: USER    NEWDPF move IHP_ideal_opt.pdbqt
DOCKED: USER    NEWDPF about 0.035000 0.082000 -0.065000
DOCKED: USER    NEWDPF tran0 -13.355241 -15.301675 7.597219
DOCKED: USER    NEWDPF quaternion0 0.589521 -0.117428 -0.034093 -0.798445
DOCKED: USER    NEWDPF axisangle0 0.979159 -0.195040 -0.056626 -74.036337
DOCKED: USER    NEWDPF quat0 0.979159 -0.195040 -0.056626 -74.036337
DOCKED: USER    NEWDPF dihe0 72.38 -154.43 26.51 -179.70 141.43 121.83 -35.20 -103.23 102.44 9.33 158.50 97.56 159.80 -86.02 -145.28 90.57 -138.92 63.60 -23.71 -2.89 3.13 -16.41 -21.08 11.27 
DOCKED: USER  keepresnum = 1 
DOCKED: USER  
DOCKED: REMARK  24 active torsions:
DOCKED: REMARK  status: ('A' for Active; 'I' for Inactive)
DOCKED: REMARK    1  A    between atoms: C_1  and  O_7 
DOCKED: REMARK    2  A    between atoms: C_2  and  O_12 
DOCKED: REMARK    3  A    between atoms: C_3  and  O_17 
DOCKED: REMARK    4  A    between atoms: C_4  and  O_22 
DOCKED: REMARK    5  A    between atoms: C_5  and  O_27 
DOCKED: REMARK    6  A    between atoms: C_6  and  O_32 
DOCKED: REMARK    7  A    between atoms: O_7  and  P_8 
DOCKED: REMARK    8  A    between atoms: P_8  and  O_10 
DOCKED: REMARK    9  A    between atoms: P_8  and  O_11 
DOCKED: REMARK   10  A    between atoms: O_12  and  P_13 
DOCKED: REMARK   11  A    between atoms: P_13  and  O_15 
DOCKED: REMARK   12  A    between atoms: P_13  and  O_16 
DOCKED: REMARK   13  A    between atoms: O_17  and  P_18 
DOCKED: REMARK   14  A    between atoms: P_18  and  O_20 
DOCKED: REMARK   15  A    between atoms: P_18  and  O_21 
DOCKED: REMARK   16  A    between atoms: O_22  and  P_23 
DOCKED: REMARK   17  A    between atoms: P_23  and  O_25 
DOCKED: REMARK   18  A    between atoms: P_23  and  O_26 
DOCKED: REMARK   19  A    between atoms: O_27  and  P_28 
DOCKED: REMARK   20  A    between atoms: P_28  and  O_30 
DOCKED: REMARK   21  A    between atoms: P_28  and  O_31 
DOCKED: REMARK   22  A    between atoms: O_32  and  P_33 
DOCKED: REMARK   23  A    between atoms: P_33  and  O_35 
DOCKED: REMARK   24  A    between atoms: P_33  and  O_36 
DOCKED: USER                              x       y       z     vdW  Elec       q    Type
DOCKED: USER                           _______ _______ _______ _____ _____    ______ ____
DOCKED: ROOT
DOCKED: ATOM      1  C   UNL d   1     -12.245 -16.550   7.158 -0.06 +0.05    +0.194 C 
DOCKED: ATOM      2  C   UNL d   1     -13.304 -16.209   6.109 -0.09 +0.05    +0.194 C 
DOCKED: ATOM      3  C   UNL d   1     -14.687 -16.023   6.738 -0.10 +0.03    +0.194 C 
DOCKED: ATOM      4  C   UNL d   1     -14.689 -15.036   7.903 +0.11 +0.02    +0.194 C 
DOCKED: ATOM      5  C   UNL d   1     -13.576 -15.270   8.917 -0.11 +0.03    +0.194 C 
DOCKED: ATOM      6  C   UNL d   1     -12.205 -15.517   8.285 -0.11 +0.05    +0.194 C 
DOCKED: ENDROOT
DOCKED: BRANCH   1   7
DOCKED: ATOM      7  O   UNL d   1     -10.965 -16.537   6.521 -0.03 -0.08    -0.278 OA
DOCKED: BRANCH   7   8
DOCKED: ATOM      8  P   UNL d   1      -9.854 -17.566   7.028 +0.01 +0.13    +0.473 P 
DOCKED: ATOM      9  O   UNL d   1      -8.450 -17.085   6.915 -0.01 -0.09    -0.228 OA
DOCKED: BRANCH   8  10
DOCKED: ATOM     10  O   UNL d   1     -10.287 -17.895   8.528 -0.00 -0.06    -0.303 OA
DOCKED: ATOM     11  H   UNL d   1      -9.922 -17.219   9.129 +0.02 +0.05    +0.222 HD
DOCKED: ENDBRANCH   8  10
DOCKED: BRANCH   8  12
DOCKED: ATOM     12  O   UNL d   1     -10.183 -18.929   6.281 +0.00 -0.08    -0.303 OA
DOCKED: ATOM     13  H   UNL d   1      -9.420 -19.550   6.257 +0.00 +0.06    +0.222 HD
DOCKED: ENDBRANCH   8  12
DOCKED: ENDBRANCH   7   8
DOCKED: ENDBRANCH   1   7
DOCKED: BRANCH   2  14
DOCKED: ATOM     14  O   UNL d   1     -12.934 -14.990   5.452 -0.37 -0.13    -0.278 OA
DOCKED: BRANCH  14  15
DOCKED: ATOM     15  P   UNL d   1     -12.916 -15.017   3.851 -0.17 +0.13    +0.473 P 
DOCKED: ATOM     16  O   UNL d   1     -12.583 -16.325   3.204 -0.08 -0.06    -0.228 OA
DOCKED: BRANCH  15  17
DOCKED: ATOM     17  O   UNL d   1     -14.355 -14.473   3.437 -0.19 -0.03    -0.303 OA
DOCKED: ATOM     18  H   UNL d   1     -15.054 -15.116   3.668 -0.05 +0.01    +0.222 HD
DOCKED: ENDBRANCH  15  17
DOCKED: BRANCH  15  19
DOCKED: ATOM     19  O   UNL d   1     -11.984 -13.794   3.444 -0.22 -0.10    -0.303 OA
DOCKED: ATOM     20  H   UNL d   1     -11.214 -14.085   2.921 +0.09 +0.09    +0.222 HD
DOCKED: ENDBRANCH  15  19
DOCKED: ENDBRANCH  14  15
DOCKED: ENDBRANCH   2  14
DOCKED: BRANCH   6  21
DOCKED: ATOM     21  O   UNL d   1     -11.368 -16.049   9.310 -0.04 -0.06    -0.278 OA
DOCKED: BRANCH  21  22
DOCKED: ATOM     22  P   UNL d   1     -10.350 -15.090  10.077 -0.09 +0.11    +0.473 P 
DOCKED: ATOM     23  O   UNL d   1      -8.888 -15.341   9.915 -0.07 -0.05    -0.228 OA
DOCKED: BRANCH  22  24
DOCKED: ATOM     24  O   UNL d   1     -10.837 -13.651   9.603 -0.18 -0.10    -0.303 OA
DOCKED: ATOM     25  H   UNL d   1     -11.673 -13.434  10.088 +0.08 +0.07    +0.222 HD
DOCKED: ENDBRANCH  22  24
DOCKED: BRANCH  22  26
DOCKED: ATOM     26  O   UNL d   1     -10.911 -15.152  11.577 -0.07 -0.05    -0.303 OA
DOCKED: ATOM     27  H   UNL d   1     -11.868 -14.945  11.572 +0.05 +0.04    +0.222 HD
DOCKED: ENDBRANCH  22  26
DOCKED: ENDBRANCH  21  22
DOCKED: ENDBRANCH   6  21
DOCKED: BRANCH   3  28
DOCKED: ATOM     28  O   UNL d   1     -15.532 -15.444   5.752 -0.15 -0.02    -0.278 OA
DOCKED: BRANCH  28  29
DOCKED: ATOM     29  P   UNL d   1     -16.449 -16.369   4.835 -0.06 +0.03    +0.473 P 
DOCKED: ATOM     30  O   UNL d   1     -17.509 -17.128   5.548 -0.02 -0.02    -0.228 OA
DOCKED: BRANCH  29  31
DOCKED: ATOM     31  O   UNL d   1     -16.929 -15.297   3.749 -0.15 +0.00    -0.303 OA
DOCKED: ATOM     32  H   UNL d   1     -16.338 -14.511   3.801 -0.51 -0.07    +0.222 HD
DOCKED: ENDBRANCH  29  31
DOCKED: BRANCH  29  33
DOCKED: ATOM     33  O   UNL d   1     -15.368 -17.222   4.035 -0.03 -0.04    -0.303 OA
DOCKED: ATOM     34  H   UNL d   1     -14.647 -16.620   3.728 +0.05 +0.04    +0.222 HD
DOCKED: ENDBRANCH  29  33
DOCKED: ENDBRANCH  28  29
DOCKED: ENDBRANCH   3  28
DOCKED: BRANCH   5  35
DOCKED: ATOM     35  O   UNL d   1     -13.480 -14.064   9.671 -0.14 -0.05    -0.278 OA
DOCKED: BRANCH  35  36
DOCKED: ATOM     36  P   UNL d   1     -13.954 -14.026  11.194 -0.08 +0.05    +0.473 P 
DOCKED: ATOM     37  O   UNL d   1     -15.357 -13.563  11.421 -0.10 +0.00    -0.228 OA
DOCKED: BRANCH  36  38
DOCKED: ATOM     38  O   UNL d   1     -13.676 -15.524  11.658 -0.02 -0.03    -0.303 OA
DOCKED: ATOM     39  H   UNL d   1     -12.895 -15.870  11.176 +0.03 +0.03    +0.222 HD
DOCKED: ENDBRANCH  36  38
DOCKED: BRANCH  36  40
DOCKED: ATOM     40  O   UNL d   1     -12.795 -13.189  11.890 -0.16 -0.05    -0.303 OA
DOCKED: ATOM     41  H   UNL d   1     -11.926 -13.339  11.456 +0.06 +0.05    +0.222 HD
DOCKED: ENDBRANCH  36  40
DOCKED: ENDBRANCH  35  36
DOCKED: ENDBRANCH   5  35
DOCKED: BRANCH   4  42
DOCKED: ATOM     42  O   UNL d   1     -15.931 -15.213   8.593 -0.09 -0.01    -0.278 OA
DOCKED: BRANCH  42  43
DOCKED: ATOM     43  P   UNL d   1     -17.121 -14.188   8.315 -0.14 -0.02    +0.473 P 
DOCKED: ATOM     44  O   UNL d   1     -18.297 -14.692   7.552 -0.10 -0.01    -0.228 OA
DOCKED: BRANCH  43  45
DOCKED: ATOM     45  O   UNL d   1     -17.470 -13.654   9.772 -0.07 +0.05    -0.303 OA
DOCKED: ATOM     46  H   UNL d   1     -16.895 -12.905  10.027 -0.51 -0.12    +0.222 HD
DOCKED: ENDBRANCH  43  45
DOCKED: BRANCH  43  47
DOCKED: ATOM     47  O   UNL d   1     -16.372 -12.923   7.675 -0.48 +0.04    -0.303 OA
DOCKED: ATOM     48  H   UNL d   1     -16.017 -12.360   8.394 -0.47 -0.12    +0.222 HD
DOCKED: ENDBRANCH  43  47
DOCKED: ENDBRANCH  42  43
DOCKED: ENDBRANCH   4  42
DOCKED: TORSDOF 24
DOCKED: TER
DOCKED: ENDMDL
________________________________________________________________________________


	BEGINNING GENETIC ALGORITHM DOCKING 23 of 100
Run: 23 Seed: 49961000 1821467121 [ Run 23 of 100 GA/GALS ]
Beginning LAMARCKIAN GENETIC ALGORITHM (LGA), with a maximum of 25000000 energy evaluations.

Final-Value: -16.548


	FINAL GENETIC ALGORITHM DOCKED STATE
	_______________________________________________


Detailed state:  trans 9.621 -7.857 6.670 quatxyzw -0.103445 0.621354 -0.756422 0.176192 center 0.035 0.082 -0.065 ntor 24 136.0827 35.5413 118.4212 -55.8139 19.7589 -176.3369 10.1645 48.3038 47.8169 -174.3735 -33.3893 -148.3679 -94.5559 90.1476 166.3416 -39.1610 -172.0877 -30.8558 35.0901 -11.7852 -21.8487 141.2449 -28.4785 159.9193
State:	  9.621  -7.857   6.670  -0.105  0.631 -0.768 159.704    136.08   35.54  118.42  -55.81   19.76 -176.34   10.16   48.30   47.82 -174.37  -33.39 -148.37  -94.56   90.15  166.34  -39.16 -172.09  -30.86   35.09  -11.79  -21.85  141.24  -28.48  159.92

DOCKED: MODEL       23
DOCKED: USER    Run = 23
DOCKED: USER    DPF = D:/Protein_go_brrr/autodock/final/AncA/IHP/dock.dpf
DOCKED: USER  
DOCKED: USER    Estimated Free Energy of Binding    =   +1.30 kcal/mol  [=(1)+(2)+(3)-(4)]
DOCKED: USER    
DOCKED: USER    (1) Final Intermolecular Energy     =   -5.86 kcal/mol
DOCKED: USER        vdW + Hbond + desolv Energy     =   -5.45 kcal/mol
DOCKED: USER        Electrostatic Energy            =   -0.41 kcal/mol
DOCKED: USER    (2) Final Total Internal Energy     =  -10.69 kcal/mol
DOCKED: USER    (3) Torsional Free Energy           =   +7.16 kcal/mol
DOCKED: USER    (4) Unbound System's Energy  [=(2)] =  -10.69 kcal/mol
DOCKED: USER    
DOCKED: USER    
DOCKED: USER    NEWDPF move IHP_ideal_opt.pdbqt
DOCKED: USER    NEWDPF about 0.035000 0.082000 -0.065000
DOCKED: USER    NEWDPF tran0 9.620533 -7.856822 6.669580
DOCKED: USER    NEWDPF quaternion0 -0.103445 0.621354 -0.756422 0.176192
DOCKED: USER    NEWDPF axisangle0 -0.105089 0.631229 -0.768444 159.703880
DOCKED: USER    NEWDPF quat0 -0.105089 0.631229 -0.768444 159.703880
DOCKED: USER    NEWDPF dihe0 136.08 35.54 118.42 -55.81 19.76 -176.34 10.16 48.30 47.82 -174.37 -33.39 -148.37 -94.56 90.15 166.34 -39.16 -172.09 -30.86 35.09 -11.79 -21.85 141.24 -28.48 159.92 
DOCKED: USER  keepresnum = 1 
DOCKED: USER  
DOCKED: REMARK  24 active torsions:
DOCKED: REMARK  status: ('A' for Active; 'I' for Inactive)
DOCKED: REMARK    1  A    between atoms: C_1  and  O_7 
DOCKED: REMARK    2  A    between atoms: C_2  and  O_12 
DOCKED: REMARK    3  A    between atoms: C_3  and  O_17 
DOCKED: REMARK    4  A    between atoms: C_4  and  O_22 
DOCKED: REMARK    5  A    between atoms: C_5  and  O_27 
DOCKED: REMARK    6  A    between atoms: C_6  and  O_32 
DOCKED: REMARK    7  A    between atoms: O_7  and  P_8 
DOCKED: REMARK    8  A    between atoms: P_8  and  O_10 
DOCKED: REMARK    9  A    between atoms: P_8  and  O_11 
DOCKED: REMARK   10  A    between atoms: O_12  and  P_13 
DOCKED: REMARK   11  A    between atoms: P_13  and  O_15 
DOCKED: REMARK   12  A    between atoms: P_13  and  O_16 
DOCKED: REMARK   13  A    between atoms: O_17  and  P_18 
DOCKED: REMARK   14  A    between atoms: P_18  and  O_20 
DOCKED: REMARK   15  A    between atoms: P_18  and  O_21 
DOCKED: REMARK   16  A    between atoms: O_22  and  P_23 
DOCKED: REMARK   17  A    between atoms: P_23  and  O_25 
DOCKED: REMARK   18  A    between atoms: P_23  and  O_26 
DOCKED: REMARK   19  A    between atoms: O_27  and  P_28 
DOCKED: REMARK   20  A    between atoms: P_28  and  O_30 
DOCKED: REMARK   21  A    between atoms: P_28  and  O_31 
DOCKED: REMARK   22  A    between atoms: O_32  and  P_33 
DOCKED: REMARK   23  A    between atoms: P_33  and  O_35 
DOCKED: REMARK   24  A    between atoms: P_33  and  O_36 
DOCKED: USER                              x       y       z     vdW  Elec       q    Type
DOCKED: USER                           _______ _______ _______ _____ _____    ______ ____
DOCKED: ROOT
DOCKED: ATOM      1  C   UNL d   1       8.774  -8.309   8.106 -0.09 +0.03    +0.194 C 
DOCKED: ATOM      2  C   UNL d   1      10.258  -7.988   8.287 -0.07 +0.03    +0.194 C 
DOCKED: ATOM      3  C   UNL d   1      11.111  -8.601   7.175 -0.03 +0.05    +0.194 C 
DOCKED: ATOM      4  C   UNL d   1      10.612  -8.254   5.774 -0.08 +0.08    +0.194 C 
DOCKED: ATOM      5  C   UNL d   1       9.114  -8.451   5.582 -0.10 +0.07    +0.194 C 
DOCKED: ATOM      6  C   UNL d   1       8.265  -7.891   6.725 -0.14 +0.04    +0.194 C 
DOCKED: ENDROOT
DOCKED: BRANCH   1   7
DOCKED: ATOM      7  O   UNL d   1       8.034  -7.564   9.076 -0.13 +0.00    -0.278 OA
DOCKED: BRANCH   7   8
DOCKED: ATOM      8  P   UNL d   1       7.814  -8.208  10.521 -0.07 +0.02    +0.473 P 
DOCKED: ATOM      9  O   UNL d   1       7.456  -9.653  10.520 -0.02 -0.04    -0.228 OA
DOCKED: BRANCH   8  10
DOCKED: ATOM     10  O   UNL d   1       9.174  -7.899  11.294 -0.06 -0.02    -0.303 OA
DOCKED: ATOM     11  H   UNL d   1       9.887  -7.734  10.649 +0.04 +0.02    +0.222 HD
DOCKED: ENDBRANCH   8  10
DOCKED: BRANCH   8  12
DOCKED: ATOM     12  O   UNL d   1       6.788  -7.240  11.253 -0.17 +0.04    -0.303 OA
DOCKED: ATOM     13  H   UNL d   1       6.627  -6.405  10.759 -0.49 -0.12    +0.222 HD
DOCKED: ENDBRANCH   8  12
DOCKED: ENDBRANCH   7   8
DOCKED: ENDBRANCH   1   7
DOCKED: BRANCH   2  14
DOCKED: ATOM     14  O   UNL d   1      10.434  -6.566   8.266 -0.09 -0.05    -0.278 OA
DOCKED: BRANCH  14  15
DOCKED: ATOM     15  P   UNL d   1      11.063  -5.903   9.581 -0.04 +0.05    +0.473 P 
DOCKED: ATOM     16  O   UNL d   1      11.955  -4.718   9.375 -0.13 -0.02    -0.228 OA
DOCKED: BRANCH  15  17
DOCKED: ATOM     17  O   UNL d   1       9.799  -5.573  10.492 -0.18 -0.01    -0.303 OA
DOCKED: ATOM     18  H   UNL d   1       9.036  -6.132  10.250 +0.01 -0.01    +0.222 HD
DOCKED: ENDBRANCH  15  17
DOCKED: BRANCH  15  19
DOCKED: ATOM     19  O   UNL d   1      11.714  -7.122  10.368 -0.03 -0.03    -0.303 OA
DOCKED: ATOM     20  H   UNL d   1      11.275  -7.274  11.225 +0.03 +0.02    +0.222 HD
DOCKED: ENDBRANCH  15  19
DOCKED: ENDBRANCH  14  15
DOCKED: ENDBRANCH   2  14
DOCKED: BRANCH   6  21
DOCKED: ATOM     21  O   UNL d   1       6.958  -8.444   6.577 -0.08 -0.06    -0.278 OA
DOCKED: BRANCH  21  22
DOCKED: ATOM     22  P   UNL d   1       5.696  -7.474   6.468 -0.13 +0.10    +0.473 P 
DOCKED: ATOM     23  O   UNL d   1       4.340  -8.054   6.689 -0.26 -0.06    -0.228 OA
DOCKED: BRANCH  22  24
DOCKED: ATOM     24  O   UNL d   1       6.095  -6.307   7.475 -0.11 -0.01    -0.303 OA
DOCKED: ATOM     25  H   UNL d   1       6.429  -6.722   8.311 -0.47 -0.04    +0.222 HD
DOCKED: ENDBRANCH  22  24
DOCKED: BRANCH  22  26
DOCKED: ATOM     26  O   UNL d   1       5.940  -6.780   5.044 -0.31 -0.06    -0.303 OA
DOCKED: ATOM     27  H   UNL d   1       6.674  -7.237   4.585 +0.14 +0.05    +0.222 HD
DOCKED: ENDBRANCH  22  26
DOCKED: ENDBRANCH  21  22
DOCKED: ENDBRANCH   6  21
DOCKED: BRANCH   3  28
DOCKED: ATOM     28  O   UNL d   1      12.409  -8.029   7.266 -0.01 -0.06    -0.278 OA
DOCKED: BRANCH  28  29
DOCKED: ATOM     29  P   UNL d   1      12.905  -6.981   6.174 -0.02 +0.13    +0.473 P 
DOCKED: ATOM     30  O   UNL d   1      13.058  -7.515   4.796 -0.08 -0.10    -0.228 OA
DOCKED: BRANCH  29  31
DOCKED: ATOM     31  O   UNL d   1      11.822  -5.822   6.387 -0.13 -0.07    -0.303 OA
DOCKED: ATOM     32  H   UNL d   1      11.905  -5.480   7.307 +0.07 +0.04    +0.222 HD
DOCKED: ENDBRANCH  29  31
DOCKED: BRANCH  29  33
DOCKED: ATOM     33  O   UNL d   1      14.208  -6.375   6.860 -0.01 -0.06    -0.303 OA
DOCKED: ATOM     34  H   UNL d   1      15.007  -6.721   6.393 +0.02 +0.05    +0.222 HD
DOCKED: ENDBRANCH  29  33
DOCKED: ENDBRANCH  28  29
DOCKED: ENDBRANCH   3  28
DOCKED: BRANCH   5  35
DOCKED: ATOM     35  O   UNL d   1       8.774  -7.715   4.408 -0.18 -0.12    -0.278 OA
DOCKED: BRANCH  35  36
DOCKED: ATOM     36  P   UNL d   1       8.546  -8.472   3.023 -0.24 +0.29    +0.473 P 
DOCKED: ATOM     37  O   UNL d   1       9.332  -7.946   1.864 -0.26 -0.19    -0.228 OA
DOCKED: BRANCH  36  38
DOCKED: ATOM     38  O   UNL d   1       8.886  -9.978   3.414 -0.58 -0.28    -0.303 OA
DOCKED: ATOM     39  H   UNL d   1       9.455  -9.982   4.214 +0.05 +0.18    +0.222 HD
DOCKED: ENDBRANCH  36  38
DOCKED: BRANCH  36  40
DOCKED: ATOM     40  O   UNL d   1       6.962  -8.460   2.886 -0.28 -0.08    -0.303 OA
DOCKED: ATOM     41  H   UNL d   1       6.678  -8.349   1.951 -0.44 -0.01    +0.222 HD
DOCKED: ENDBRANCH  36  40
DOCKED: ENDBRANCH  35  36
DOCKED: ENDBRANCH   5  35
DOCKED: BRANCH   4  42
DOCKED: ATOM     42  O   UNL d   1      11.273  -9.142   4.867 -0.08 -0.19    -0.278 OA
DOCKED: BRANCH  42  43
DOCKED: ATOM     43  P   UNL d   1      11.288 -10.704   5.190 -0.03 +0.28    +0.473 P 
DOCKED: ATOM     44  O   UNL d   1      10.338 -11.201   6.225 -0.00 -0.08    -0.228 OA
DOCKED: BRANCH  43  45
DOCKED: ATOM     45  O   UNL d   1      11.088 -11.360   3.754 -0.22 -0.38    -0.303 OA
DOCKED: ATOM     46  H   UNL d   1      10.187 -11.727   3.651 +0.03 +0.23    +0.222 HD
DOCKED: ENDBRANCH  43  45
DOCKED: BRANCH  43  47
DOCKED: ATOM     47  O   UNL d   1      12.837 -11.005   5.473 -0.01 -0.13    -0.303 OA
DOCKED: ATOM     48  H   UNL d   1      13.257 -10.206   5.853 +0.01 +0.08    +0.222 HD
DOCKED: ENDBRANCH  43  47
DOCKED: ENDBRANCH  42  43
DOCKED: ENDBRANCH   4  42
DOCKED: TORSDOF 24
DOCKED: TER
DOCKED: ENDMDL
________________________________________________________________________________


	BEGINNING GENETIC ALGORITHM DOCKING 24 of 100
Run: 24 Seed: 1241192087 235838525 [ Run 24 of 100 GA/GALS ]
Beginning LAMARCKIAN GENETIC ALGORITHM (LGA), with a maximum of 25000000 energy evaluations.

Final-Value: -17.242


	FINAL GENETIC ALGORITHM DOCKED STATE
	_______________________________________________


Detailed state:  trans -13.360 -15.558 10.021 quatxyzw -0.300241 0.639050 0.533067 -0.466165 center 0.035 0.082 -0.065 ntor 24 117.8416 44.3708 180.0000 -20.7051 103.0652 120.0312 -114.8481 -99.9284 -180.0000 129.8503 50.5907 -134.7913 -79.9581 178.0881 -125.6552 -163.3028 85.2054 -81.4479 57.8798 15.4236 -18.2593 16.4826 12.6859 -176.1437
State:	-13.360 -15.558  10.021  -0.339  0.722  0.603 -124.429    117.84   44.37  180.00  -20.71  103.07  120.03 -114.85  -99.93 -180.00  129.85   50.59 -134.79  -79.96  178.09 -125.66 -163.30   85.21  -81.45   57.88   15.42  -18.26   16.48   12.69 -176.14

DOCKED: MODEL       24
DOCKED: USER    Run = 24
DOCKED: USER    DPF = D:/Protein_go_brrr/autodock/final/AncA/IHP/dock.dpf
DOCKED: USER  
DOCKED: USER    Estimated Free Energy of Binding    =   +4.10 kcal/mol  [=(1)+(2)+(3)-(4)]
DOCKED: USER    
DOCKED: USER    (1) Final Intermolecular Energy     =   -3.06 kcal/mol
DOCKED: USER        vdW + Hbond + desolv Energy     =   -3.01 kcal/mol
DOCKED: USER        Electrostatic Energy            =   -0.05 kcal/mol
DOCKED: USER    (2) Final Total Internal Energy     =  -14.18 kcal/mol
DOCKED: USER    (3) Torsional Free Energy           =   +7.16 kcal/mol
DOCKED: USER    (4) Unbound System's Energy  [=(2)] =  -14.18 kcal/mol
DOCKED: USER    
DOCKED: USER    
DOCKED: USER    NEWDPF move IHP_ideal_opt.pdbqt
DOCKED: USER    NEWDPF about 0.035000 0.082000 -0.065000
DOCKED: USER    NEWDPF tran0 -13.360412 -15.557605 10.021027
DOCKED: USER    NEWDPF quaternion0 -0.300241 0.639050 0.533067 -0.466165
DOCKED: USER    NEWDPF axisangle0 -0.339371 0.722337 0.602541 -124.428670
DOCKED: USER    NEWDPF quat0 -0.339371 0.722337 0.602541 -124.428670
DOCKED: USER    NEWDPF dihe0 117.84 44.37 180.00 -20.71 103.07 120.03 -114.85 -99.93 -180.00 129.85 50.59 -134.79 -79.96 178.09 -125.66 -163.30 85.21 -81.45 57.88 15.42 -18.26 16.48 12.69 -176.14 
DOCKED: USER  keepresnum = 1 
DOCKED: USER  
DOCKED: REMARK  24 active torsions:
DOCKED: REMARK  status: ('A' for Active; 'I' for Inactive)
DOCKED: REMARK    1  A    between atoms: C_1  and  O_7 
DOCKED: REMARK    2  A    between atoms: C_2  and  O_12 
DOCKED: REMARK    3  A    between atoms: C_3  and  O_17 
DOCKED: REMARK    4  A    between atoms: C_4  and  O_22 
DOCKED: REMARK    5  A    between atoms: C_5  and  O_27 
DOCKED: REMARK    6  A    between atoms: C_6  and  O_32 
DOCKED: REMARK    7  A    between atoms: O_7  and  P_8 
DOCKED: REMARK    8  A    between atoms: P_8  and  O_10 
DOCKED: REMARK    9  A    between atoms: P_8  and  O_11 
DOCKED: REMARK   10  A    between atoms: O_12  and  P_13 
DOCKED: REMARK   11  A    between atoms: P_13  and  O_15 
DOCKED: REMARK   12  A    between atoms: P_13  and  O_16 
DOCKED: REMARK   13  A    between atoms: O_17  and  P_18 
DOCKED: REMARK   14  A    between atoms: P_18  and  O_20 
DOCKED: REMARK   15  A    between atoms: P_18  and  O_21 
DOCKED: REMARK   16  A    between atoms: O_22  and  P_23 
DOCKED: REMARK   17  A    between atoms: P_23  and  O_25 
DOCKED: REMARK   18  A    between atoms: P_23  and  O_26 
DOCKED: REMARK   19  A    between atoms: O_27  and  P_28 
DOCKED: REMARK   20  A    between atoms: P_28  and  O_30 
DOCKED: REMARK   21  A    between atoms: P_28  and  O_31 
DOCKED: REMARK   22  A    between atoms: O_32  and  P_33 
DOCKED: REMARK   23  A    between atoms: P_33  and  O_35 
DOCKED: REMARK   24  A    between atoms: P_33  and  O_36 
DOCKED: USER                              x       y       z     vdW  Elec       q    Type
DOCKED: USER                           _______ _______ _______ _____ _____    ______ ____
DOCKED: ROOT
DOCKED: ATOM      1  C   UNL d   1     -12.843 -14.879   8.519 -0.04 +0.05    +0.194 C 
DOCKED: ATOM      2  C   UNL d   1     -11.756 -15.577   9.339 -0.09 +0.04    +0.194 C 
DOCKED: ATOM      3  C   UNL d   1     -11.852 -15.225  10.825 -0.09 +0.03    +0.194 C 
DOCKED: ATOM      4  C   UNL d   1     -13.246 -15.448  11.406 -0.05 +0.02    +0.194 C 
DOCKED: ATOM      5  C   UNL d   1     -14.372 -14.867  10.560 -0.09 +0.02    +0.194 C 
DOCKED: ATOM      6  C   UNL d   1     -14.242 -15.167   9.065 -0.11 +0.02    +0.194 C 
DOCKED: ENDROOT
DOCKED: BRANCH   1   7
DOCKED: ATOM      7  O   UNL d   1     -12.793 -15.389   7.185 -0.24 -0.09    -0.278 OA
DOCKED: BRANCH   7   8
DOCKED: ATOM      8  P   UNL d   1     -11.484 -15.108   6.313 -0.01 +0.20    +0.473 P 
DOCKED: ATOM      9  O   UNL d   1     -10.750 -13.861   6.660 -0.32 -0.11    -0.228 OA
DOCKED: BRANCH   8  10
DOCKED: ATOM     10  O   UNL d   1     -10.605 -16.426   6.499 -0.02 -0.10    -0.303 OA
DOCKED: ATOM     11  H   UNL d   1     -10.660 -16.728   7.425 +0.03 +0.06    +0.222 HD
DOCKED: ENDBRANCH   8  10
DOCKED: BRANCH   8  12
DOCKED: ATOM     12  O   UNL d   1     -11.959 -15.236   4.802 -0.34 -0.11    -0.303 OA
DOCKED: ATOM     13  H   UNL d   1     -12.912 -15.464   4.716 +0.07 +0.07    +0.222 HD
DOCKED: ENDBRANCH   8  12
DOCKED: ENDBRANCH   7   8
DOCKED: ENDBRANCH   1   7
DOCKED: BRANCH   2  14
DOCKED: ATOM     14  O   UNL d   1     -11.901 -16.995   9.195 -0.01 -0.05    -0.278 OA
DOCKED: BRANCH  14  15
DOCKED: ATOM     15  P   UNL d   1     -10.554 -17.860   9.227 +0.01 +0.09    +0.473 P 
DOCKED: ATOM     16  O   UNL d   1     -10.324 -18.788   8.075 +0.00 -0.05    -0.228 OA
DOCKED: BRANCH  15  17
DOCKED: ATOM     17  O   UNL d   1      -9.400 -16.773   9.384 -0.01 -0.07    -0.303 OA
DOCKED: ATOM     18  H   UNL d   1      -9.270 -16.531  10.321 +0.03 +0.04    +0.222 HD
DOCKED: ENDBRANCH  15  17
DOCKED: BRANCH  15  19
DOCKED: ATOM     19  O   UNL d   1     -10.552 -18.538  10.665 -0.00 -0.05    -0.303 OA
DOCKED: ATOM     20  H   UNL d   1     -10.240 -17.923  11.354 +0.01 +0.03    +0.222 HD
DOCKED: ENDBRANCH  15  19
DOCKED: ENDBRANCH  14  15
DOCKED: ENDBRANCH   2  14
DOCKED: BRANCH   6  21
DOCKED: ATOM     21  O   UNL d   1     -15.143 -14.292   8.389 -0.10 +0.00    -0.278 OA
DOCKED: BRANCH  21  22
DOCKED: ATOM     22  P   UNL d   1     -16.307 -14.901   7.485 -0.13 +0.01    +0.473 P 
DOCKED: ATOM     23  O   UNL d   1     -16.064 -15.035   6.019 -0.25 -0.01    -0.228 OA
DOCKED: BRANCH  22  24
DOCKED: ATOM     24  O   UNL d   1     -16.623 -16.267   8.236 -0.02 -0.02    -0.303 OA
DOCKED: ATOM     25  H   UNL d   1     -16.540 -16.109   9.211 +0.03 +0.01    +0.222 HD
DOCKED: ENDBRANCH  22  24
DOCKED: BRANCH  22  26
DOCKED: ATOM     26  O   UNL d   1     -17.558 -13.992   7.910 -0.18 +0.01    -0.303 OA
DOCKED: ATOM     27  H   UNL d   1     -17.661 -14.021   8.883 +0.01 -0.01    +0.222 HD
DOCKED: ENDBRANCH  22  26
DOCKED: ENDBRANCH  21  22
DOCKED: ENDBRANCH   6  21
DOCKED: BRANCH   3  28
DOCKED: ATOM     28  O   UNL d   1     -11.001 -16.117  11.532 -0.03 -0.04    -0.278 OA
DOCKED: BRANCH  28  29
DOCKED: ATOM     29  P   UNL d   1      -9.899 -15.553  12.534 -0.04 +0.08    +0.473 P 
DOCKED: ATOM     30  O   UNL d   1      -9.217 -16.570  13.375 -0.02 -0.03    -0.228 OA
DOCKED: BRANCH  29  31
DOCKED: ATOM     31  O   UNL d   1      -8.988 -14.727  11.510 -0.10 -0.06    -0.303 OA
DOCKED: ATOM     32  H   UNL d   1      -8.596 -15.356  10.861 +0.05 +0.04    +0.222 HD
DOCKED: ENDBRANCH  29  31
DOCKED: BRANCH  29  33
DOCKED: ATOM     33  O   UNL d   1     -10.698 -14.407  13.298 -0.09 -0.05    -0.303 OA
DOCKED: ATOM     34  H   UNL d   1     -11.259 -13.918  12.647 +0.04 +0.05    +0.222 HD
DOCKED: ENDBRANCH  29  33
DOCKED: ENDBRANCH  28  29
DOCKED: ENDBRANCH   3  28
DOCKED: BRANCH   5  35
DOCKED: ATOM     35  O   UNL d   1     -15.565 -15.503  11.014 -0.02 -0.02    -0.278 OA
DOCKED: BRANCH  35  36
DOCKED: ATOM     36  P   UNL d   1     -16.933 -14.686  11.089 -0.03 +0.00    +0.473 P 
DOCKED: ATOM     37  O   UNL d   1     -18.110 -15.338  10.436 -0.03 -0.01    -0.228 OA
DOCKED: BRANCH  36  38
DOCKED: ATOM     38  O   UNL d   1     -17.095 -14.465  12.658 -0.01 -0.01    -0.303 OA
DOCKED: ATOM     39  H   UNL d   1     -16.955 -13.515  12.864 +0.03 +0.00    +0.222 HD
DOCKED: ENDBRANCH  36  38
DOCKED: BRANCH  36  40
DOCKED: ATOM     40  O   UNL d   1     -16.506 -13.255  10.542 -0.04 +0.07    -0.303 OA
DOCKED: ATOM     41  H   UNL d   1     -16.585 -13.200   9.564 -0.41 -0.08    +0.222 HD
DOCKED: ENDBRANCH  36  40
DOCKED: ENDBRANCH  35  36
DOCKED: ENDBRANCH   5  35
DOCKED: BRANCH   4  42
DOCKED: ATOM     42  O   UNL d   1     -13.280 -14.777  12.670 -0.04 -0.03    -0.278 OA
DOCKED: BRANCH  42  43
DOCKED: ATOM     43  P   UNL d   1     -13.335 -13.183  12.697 -0.08 +0.06    +0.473 P 
DOCKED: ATOM     44  O   UNL d   1     -12.579 -12.453  11.642 -0.26 -0.05    -0.228 OA
DOCKED: BRANCH  43  45
DOCKED: ATOM     45  O   UNL d   1     -14.899 -12.888  12.699 -0.05 -0.02    -0.303 OA
DOCKED: ATOM     46  H   UNL d   1     -15.406 -13.642  12.338 +0.05 +0.01    +0.222 HD
DOCKED: ENDBRANCH  43  45
DOCKED: BRANCH  43  47
DOCKED: ATOM     47  O   UNL d   1     -12.934 -12.828  14.207 -0.08 -0.04    -0.303 OA
DOCKED: ATOM     48  H   UNL d   1     -12.169 -13.379  14.476 +0.03 +0.03    +0.222 HD
DOCKED: ENDBRANCH  43  47
DOCKED: ENDBRANCH  42  43
DOCKED: ENDBRANCH   4  42
DOCKED: TORSDOF 24
DOCKED: TER
DOCKED: ENDMDL
________________________________________________________________________________


	BEGINNING GENETIC ALGORITHM DOCKING 25 of 100
Run: 25 Seed: 1144291423 819181528 [ Run 25 of 100 GA/GALS ]
Beginning LAMARCKIAN GENETIC ALGORITHM (LGA), with a maximum of 25000000 energy evaluations.

Final-Value: -17.612


	FINAL GENETIC ALGORITHM DOCKED STATE
	_______________________________________________


Detailed state:  trans -14.182 -8.480 16.541 quatxyzw 0.438839 -0.875818 -0.085494 0.181808 center 0.035 0.082 -0.065 ntor 24 178.8393 -14.7168 90.7595 106.2510 -20.0401 -169.8612 -11.7865 55.1078 141.1741 -38.1116 -147.3956 73.8458 23.9963 89.9955 -179.7799 121.5248 113.4399 158.1323 -135.6709 -10.8003 -180.0000 -17.3106 153.7842 179.9519
State:	-14.182  -8.480  16.541   0.446 -0.891 -0.087 159.050    178.84  -14.72   90.76  106.25  -20.04 -169.86  -11.79   55.11  141.17  -38.11 -147.40   73.85   24.00   90.00 -179.78  121.52  113.44  158.13 -135.67  -10.80 -180.00  -17.31  153.78  179.95

DOCKED: MODEL       25
DOCKED: USER    Run = 25
DOCKED: USER    DPF = D:/Protein_go_brrr/autodock/final/AncA/IHP/dock.dpf
DOCKED: USER  
DOCKED: USER    Estimated Free Energy of Binding    =   +2.35 kcal/mol  [=(1)+(2)+(3)-(4)]
DOCKED: USER    
DOCKED: USER    (1) Final Intermolecular Energy     =   -4.81 kcal/mol
DOCKED: USER        vdW + Hbond + desolv Energy     =   -4.18 kcal/mol
DOCKED: USER        Electrostatic Energy            =   -0.63 kcal/mol
DOCKED: USER    (2) Final Total Internal Energy     =  -12.80 kcal/mol
DOCKED: USER    (3) Torsional Free Energy           =   +7.16 kcal/mol
DOCKED: USER    (4) Unbound System's Energy  [=(2)] =  -12.80 kcal/mol
DOCKED: USER    
DOCKED: USER    
DOCKED: USER    NEWDPF move IHP_ideal_opt.pdbqt
DOCKED: USER    NEWDPF about 0.035000 0.082000 -0.065000
DOCKED: USER    NEWDPF tran0 -14.181541 -8.479710 16.540617
DOCKED: USER    NEWDPF quaternion0 0.438839 -0.875818 -0.085494 0.181808
DOCKED: USER    NEWDPF axisangle0 0.446276 -0.890662 -0.086943 159.049798
DOCKED: USER    NEWDPF quat0 0.446276 -0.890662 -0.086943 159.049798
DOCKED: USER    NEWDPF dihe0 178.84 -14.72 90.76 106.25 -20.04 -169.86 -11.79 55.11 141.17 -38.11 -147.40 73.85 24.00 90.00 -179.78 121.52 113.44 158.13 -135.67 -10.80 -180.00 -17.31 153.78 179.95 
DOCKED: USER  keepresnum = 1 
DOCKED: USER  
DOCKED: REMARK  24 active torsions:
DOCKED: REMARK  status: ('A' for Active; 'I' for Inactive)
DOCKED: REMARK    1  A    between atoms: C_1  and  O_7 
DOCKED: REMARK    2  A    between atoms: C_2  and  O_12 
DOCKED: REMARK    3  A    between atoms: C_3  and  O_17 
DOCKED: REMARK    4  A    between atoms: C_4  and  O_22 
DOCKED: REMARK    5  A    between atoms: C_5  and  O_27 
DOCKED: REMARK    6  A    between atoms: C_6  and  O_32 
DOCKED: REMARK    7  A    between atoms: O_7  and  P_8 
DOCKED: REMARK    8  A    between atoms: P_8  and  O_10 
DOCKED: REMARK    9  A    between atoms: P_8  and  O_11 
DOCKED: REMARK   10  A    between atoms: O_12  and  P_13 
DOCKED: REMARK   11  A    between atoms: P_13  and  O_15 
DOCKED: REMARK   12  A    between atoms: P_13  and  O_16 
DOCKED: REMARK   13  A    between atoms: O_17  and  P_18 
DOCKED: REMARK   14  A    between atoms: P_18  and  O_20 
DOCKED: REMARK   15  A    between atoms: P_18  and  O_21 
DOCKED: REMARK   16  A    between atoms: O_22  and  P_23 
DOCKED: REMARK   17  A    between atoms: P_23  and  O_25 
DOCKED: REMARK   18  A    between atoms: P_23  and  O_26 
DOCKED: REMARK   19  A    between atoms: O_27  and  P_28 
DOCKED: REMARK   20  A    between atoms: P_28  and  O_30 
DOCKED: REMARK   21  A    between atoms: P_28  and  O_31 
DOCKED: REMARK   22  A    between atoms: O_32  and  P_33 
DOCKED: REMARK   23  A    between atoms: P_33  and  O_35 
DOCKED: REMARK   24  A    between atoms: P_33  and  O_36 
DOCKED: USER                              x       y       z     vdW  Elec       q    Type
DOCKED: USER                           _______ _______ _______ _____ _____    ______ ____
DOCKED: ROOT
DOCKED: ATOM      1  C   UNL d   1     -13.966  -9.692  15.329 -0.10 +0.00    +0.194 C 
DOCKED: ATOM      2  C   UNL d   1     -12.728  -9.368  16.167 -0.10 +0.01    +0.194 C 
DOCKED: ATOM      3  C   UNL d   1     -12.563  -7.861  16.375 -0.14 -0.01    +0.194 C 
DOCKED: ATOM      4  C   UNL d   1     -13.820  -7.187  16.918 -0.05 -0.02    +0.194 C 
DOCKED: ATOM      5  C   UNL d   1     -15.098  -7.572  16.183 -0.05 -0.03    +0.194 C 
DOCKED: ATOM      6  C   UNL d   1     -15.233  -9.073  15.921 -0.04 -0.01    +0.194 C 
DOCKED: ENDROOT
DOCKED: BRANCH   1   7
DOCKED: ATOM      7  O   UNL d   1     -14.146 -11.111  15.328 -0.07 -0.02    -0.278 OA
DOCKED: BRANCH   7   8
DOCKED: ATOM      8  P   UNL d   1     -15.260 -11.736  16.286 -0.00 +0.02    +0.473 P 
DOCKED: ATOM      9  O   UNL d   1     -16.663 -11.564  15.818 -0.01 -0.00    -0.228 OA
DOCKED: BRANCH   8  10
DOCKED: ATOM     10  O   UNL d   1     -14.830 -13.265  16.433 -0.01 -0.02    -0.303 OA
DOCKED: ATOM     11  H   UNL d   1     -13.885 -13.361  16.215 +0.01 +0.02    +0.222 HD
DOCKED: ENDBRANCH   8  10
DOCKED: BRANCH   8  12
DOCKED: ATOM     12  O   UNL d   1     -14.935 -11.159  17.730 -0.01 -0.01    -0.303 OA
DOCKED: ATOM     13  H   UNL d   1     -14.037 -11.404  18.050 +0.01 +0.01    +0.222 HD
DOCKED: ENDBRANCH   8  12
DOCKED: ENDBRANCH   7   8
DOCKED: ENDBRANCH   1   7
DOCKED: BRANCH   2  14
DOCKED: ATOM     14  O   UNL d   1     -12.856  -9.994  17.450 -0.04 -0.01    -0.278 OA
DOCKED: BRANCH  14  15
DOCKED: ATOM     15  P   UNL d   1     -11.712 -11.039  17.854 -0.04 +0.04    +0.473 P 
DOCKED: ATOM     16  O   UNL d   1     -11.334 -11.095  19.301 -0.01 -0.02    -0.228 OA
DOCKED: BRANCH  15  17
DOCKED: ATOM     17  O   UNL d   1     -12.248 -12.434  17.301 -0.03 -0.03    -0.303 OA
DOCKED: ATOM     18  H   UNL d   1     -13.148 -12.344  16.934 +0.02 +0.02    +0.222 HD
DOCKED: ENDBRANCH  15  17
DOCKED: BRANCH  15  19
DOCKED: ATOM     19  O   UNL d   1     -10.521 -10.732  16.845 -0.08 -0.04    -0.303 OA
DOCKED: ATOM     20  H   UNL d   1     -10.343  -9.776  16.778 +0.04 +0.03    +0.222 HD
DOCKED: ENDBRANCH  15  19
DOCKED: ENDBRANCH  14  15
DOCKED: ENDBRANCH   2  14
DOCKED: BRANCH   6  21
DOCKED: ATOM     21  O   UNL d   1     -16.268  -9.231  14.952 -0.03 +0.03    -0.278 OA
DOCKED: BRANCH  21  22
DOCKED: ATOM     22  P   UNL d   1     -15.964  -8.935  13.414 -0.08 -0.10    +0.473 P 
DOCKED: ATOM     23  O   UNL d   1     -17.079  -8.434  12.559 -0.10 +0.05    -0.228 OA
DOCKED: BRANCH  22  24
DOCKED: ATOM     24  O   UNL d   1     -14.709  -7.961  13.512 -0.20 +0.18    -0.303 OA
DOCKED: ATOM     25  H   UNL d   1     -15.045  -7.035  13.623 -0.48 -0.32    +0.222 HD
DOCKED: ENDBRANCH  22  24
DOCKED: BRANCH  22  26
DOCKED: ATOM     26  O   UNL d   1     -15.282 -10.308  12.947 -0.12 +0.00    -0.303 OA
DOCKED: ATOM     27  H   UNL d   1     -15.469 -11.003  13.611 +0.07 +0.00    +0.222 HD
DOCKED: ENDBRANCH  22  26
DOCKED: ENDBRANCH  21  22
DOCKED: ENDBRANCH   6  21
DOCKED: BRANCH   3  28
DOCKED: ATOM     28  O   UNL d   1     -11.571  -7.673  17.376 -0.06 -0.00    -0.278 OA
DOCKED: BRANCH  28  29
DOCKED: ATOM     29  P   UNL d   1     -10.046  -7.462  16.968 -0.08 +0.02    +0.473 P 
DOCKED: ATOM     30  O   UNL d   1      -9.597  -6.049  16.877 -0.14 -0.02    -0.228 OA
DOCKED: BRANCH  29  31
DOCKED: ATOM     31  O   UNL d   1      -9.333  -8.381  18.068 -0.03 -0.04    -0.303 OA
DOCKED: ATOM     32  H   UNL d   1      -9.868  -9.199  18.187 +0.03 +0.02    +0.222 HD
DOCKED: ENDBRANCH  29  31
DOCKED: BRANCH  29  33
DOCKED: ATOM     33  O   UNL d   1      -9.929  -8.341  15.646 -0.23 +0.00    -0.303 OA
DOCKED: ATOM     34  H   UNL d   1      -9.755  -7.743  14.877 -0.47 -0.09    +0.222 HD
DOCKED: ENDBRANCH  29  33
DOCKED: ENDBRANCH  28  29
DOCKED: ENDBRANCH   3  28
DOCKED: BRANCH   5  35
DOCKED: ATOM     35  O   UNL d   1     -16.169  -7.198  17.046 -0.01 +0.03    -0.278 OA
DOCKED: BRANCH  35  36
DOCKED: ATOM     36  P   UNL d   1     -16.512  -8.078  18.331 +0.01 -0.01    +0.473 P 
DOCKED: ATOM     37  O   UNL d   1     -17.258  -7.371  19.417 +0.00 -0.00    -0.228 OA
DOCKED: BRANCH  36  38
DOCKED: ATOM     38  O   UNL d   1     -17.298  -9.304  17.687 +0.00 +0.00    -0.303 OA
DOCKED: ATOM     39  H   UNL d   1     -16.666  -9.864  17.188 +0.01 -0.00    +0.222 HD
DOCKED: ENDBRANCH  36  38
DOCKED: BRANCH  36  40
DOCKED: ATOM     40  O   UNL d   1     -15.094  -8.691  18.711 -0.00 -0.00    -0.303 OA
DOCKED: ATOM     41  H   UNL d   1     -14.866  -9.461  18.144 +0.01 +0.00    +0.222 HD
DOCKED: ENDBRANCH  36  40
DOCKED: ENDBRANCH  35  36
DOCKED: ENDBRANCH   5  35
DOCKED: BRANCH   4  42
DOCKED: ATOM     42  O   UNL d   1     -13.643  -5.777  16.744 -0.04 +0.04    -0.278 OA
DOCKED: BRANCH  42  43
DOCKED: ATOM     43  P   UNL d   1     -13.644  -5.176  15.267 -0.16 -0.23    +0.473 P 
DOCKED: ATOM     44  O   UNL d   1     -12.944  -3.879  15.052 -0.25 +0.08    -0.228 OA
DOCKED: BRANCH  43  45
DOCKED: ATOM     45  O   UNL d   1     -13.067  -6.379  14.400 -0.28 +0.16    -0.303 OA
DOCKED: ATOM     46  H   UNL d   1     -13.542  -6.468  13.550 -0.40 -0.26    +0.222 HD
DOCKED: ENDBRANCH  43  45
DOCKED: BRANCH  43  47
DOCKED: ATOM     47  O   UNL d   1     -15.195  -5.199  14.863 -0.09 +0.28    -0.303 OA
DOCKED: ATOM     48  H   UNL d   1     -15.347  -5.911  14.207 -0.37 -0.37    +0.222 HD
DOCKED: ENDBRANCH  43  47
DOCKED: ENDBRANCH  42  43
DOCKED: ENDBRANCH   4  42
DOCKED: TORSDOF 24
DOCKED: TER
DOCKED: ENDMDL
________________________________________________________________________________


	BEGINNING GENETIC ALGORITHM DOCKING 26 of 100
Run: 26 Seed: 475148672 1758720476 [ Run 26 of 100 GA/GALS ]
Beginning LAMARCKIAN GENETIC ALGORITHM (LGA), with a maximum of 25000000 energy evaluations.

Final-Value: -20.241


	FINAL GENETIC ALGORITHM DOCKED STATE
	_______________________________________________


Detailed state:  trans 9.884 0.526 -15.250 quatxyzw -0.728770 -0.333998 -0.084720 0.591745 center 0.035 0.082 -0.065 ntor 24 -164.3307 -37.6945 120.0988 132.1532 14.9018 -101.2380 34.0660 -152.2028 71.7752 96.2926 -140.7903 143.5128 -129.4162 86.3420 -53.1334 -124.1772 115.7006 167.3932 50.1524 5.4749 -179.9251 28.3081 -7.9296 174.1527
State:	  9.884   0.526 -15.250  -0.904 -0.414 -0.105 107.438   -164.33  -37.69  120.10  132.15   14.90 -101.24   34.07 -152.20   71.78   96.29 -140.79  143.51 -129.42   86.34  -53.13 -124.18  115.70  167.39   50.15    5.47 -179.93   28.31   -7.93  174.15

DOCKED: MODEL       26
DOCKED: USER    Run = 26
DOCKED: USER    DPF = D:/Protein_go_brrr/autodock/final/AncA/IHP/dock.dpf
DOCKED: USER  
DOCKED: USER    Estimated Free Energy of Binding    =   +1.52 kcal/mol  [=(1)+(2)+(3)-(4)]
DOCKED: USER    
DOCKED: USER    (1) Final Intermolecular Energy     =   -5.64 kcal/mol
DOCKED: USER        vdW + Hbond + desolv Energy     =   -5.53 kcal/mol
DOCKED: USER        Electrostatic Energy            =   -0.10 kcal/mol
DOCKED: USER    (2) Final Total Internal Energy     =  -14.61 kcal/mol
DOCKED: USER    (3) Torsional Free Energy           =   +7.16 kcal/mol
DOCKED: USER    (4) Unbound System's Energy  [=(2)] =  -14.61 kcal/mol
DOCKED: USER    
DOCKED: USER    
DOCKED: USER    NEWDPF move IHP_ideal_opt.pdbqt
DOCKED: USER    NEWDPF about 0.035000 0.082000 -0.065000
DOCKED: USER    NEWDPF tran0 9.883707 0.525539 -15.250416
DOCKED: USER    NEWDPF quaternion0 -0.728770 -0.333998 -0.084720 0.591745
DOCKED: USER    NEWDPF axisangle0 -0.904041 -0.414325 -0.105096 107.438167
DOCKED: USER    NEWDPF quat0 -0.904041 -0.414325 -0.105096 107.438167
DOCKED: USER    NEWDPF dihe0 -164.33 -37.69 120.10 132.15 14.90 -101.24 34.07 -152.20 71.78 96.29 -140.79 143.51 -129.42 86.34 -53.13 -124.18 115.70 167.39 50.15 5.47 -179.93 28.31 -7.93 174.15 
DOCKED: USER  keepresnum = 1 
DOCKED: USER  
DOCKED: REMARK  24 active torsions:
DOCKED: REMARK  status: ('A' for Active; 'I' for Inactive)
DOCKED: REMARK    1  A    between atoms: C_1  and  O_7 
DOCKED: REMARK    2  A    between atoms: C_2  and  O_12 
DOCKED: REMARK    3  A    between atoms: C_3  and  O_17 
DOCKED: REMARK    4  A    between atoms: C_4  and  O_22 
DOCKED: REMARK    5  A    between atoms: C_5  and  O_27 
DOCKED: REMARK    6  A    between atoms: C_6  and  O_32 
DOCKED: REMARK    7  A    between atoms: O_7  and  P_8 
DOCKED: REMARK    8  A    between atoms: P_8  and  O_10 
DOCKED: REMARK    9  A    between atoms: P_8  and  O_11 
DOCKED: REMARK   10  A    between atoms: O_12  and  P_13 
DOCKED: REMARK   11  A    between atoms: P_13  and  O_15 
DOCKED: REMARK   12  A    between atoms: P_13  and  O_16 
DOCKED: REMARK   13  A    between atoms: O_17  and  P_18 
DOCKED: REMARK   14  A    between atoms: P_18  and  O_20 
DOCKED: REMARK   15  A    between atoms: P_18  and  O_21 
DOCKED: REMARK   16  A    between atoms: O_22  and  P_23 
DOCKED: REMARK   17  A    between atoms: P_23  and  O_25 
DOCKED: REMARK   18  A    between atoms: P_23  and  O_26 
DOCKED: REMARK   19  A    between atoms: O_27  and  P_28 
DOCKED: REMARK   20  A    between atoms: P_28  and  O_30 
DOCKED: REMARK   21  A    between atoms: P_28  and  O_31 
DOCKED: REMARK   22  A    between atoms: O_32  and  P_33 
DOCKED: REMARK   23  A    between atoms: P_33  and  O_35 
DOCKED: REMARK   24  A    between atoms: P_33  and  O_36 
DOCKED: USER                              x       y       z     vdW  Elec       q    Type
DOCKED: USER                           _______ _______ _______ _____ _____    ______ ____
DOCKED: ROOT
DOCKED: ATOM      1  C   UNL d   1      10.906   0.692 -16.633 -0.12 +0.06    +0.194 C 
DOCKED: ATOM      2  C   UNL d   1       9.452   0.318 -16.927 -0.08 +0.08    +0.194 C 
DOCKED: ATOM      3  C   UNL d   1       8.935  -0.749 -15.961 -0.07 +0.03    +0.194 C 
DOCKED: ATOM      4  C   UNL d   1       9.152  -0.388 -14.493 -0.14 +0.04    +0.194 C 
DOCKED: ATOM      5  C   UNL d   1      10.560   0.100 -14.176 -0.18 +0.03    +0.194 C 
DOCKED: ATOM      6  C   UNL d   1      11.101   1.122 -15.178 -0.14 +0.05    +0.194 C 
DOCKED: ENDROOT
DOCKED: BRANCH   1   7
DOCKED: ATOM      7  O   UNL d   1      11.256   1.806 -17.457 -0.11 -0.12    -0.278 OA
DOCKED: BRANCH   7   8
DOCKED: ATOM      8  P   UNL d   1      11.461   1.557 -19.022 -0.02 +0.13    +0.473 P 
DOCKED: ATOM      9  O   UNL d   1      12.760   0.934 -19.397 -0.02 -0.04    -0.228 OA
DOCKED: BRANCH   8  10
DOCKED: ATOM     10  O   UNL d   1      10.198   0.678 -19.443 -0.01 -0.08    -0.303 OA
DOCKED: ATOM     11  H   UNL d   1       9.410   0.984 -18.956 +0.02 +0.08    +0.222 HD
DOCKED: ENDBRANCH   8  10
DOCKED: BRANCH   8  12
DOCKED: ATOM     12  O   UNL d   1      11.138   2.954 -19.708 -0.03 -0.10    -0.303 OA
DOCKED: ATOM     13  H   UNL d   1      10.175   3.100 -19.849 +0.02 +0.09    +0.222 HD
DOCKED: ENDBRANCH   8  12
DOCKED: ENDBRANCH   7   8
DOCKED: ENDBRANCH   1   7
DOCKED: BRANCH   2  14
DOCKED: ATOM     14  O   UNL d   1       8.634   1.487 -16.797 -0.16 -0.32    -0.278 OA
DOCKED: BRANCH  14  15
DOCKED: ATOM     15  P   UNL d   1       7.517   1.708 -17.923 -0.02 +0.45    +0.473 P 
DOCKED: ATOM     16  O   UNL d   1       6.202   2.258 -17.466 -0.08 -0.26    -0.228 OA
DOCKED: BRANCH  15  17
DOCKED: ATOM     17  O   UNL d   1       8.232   2.636 -19.002 -0.10 -0.25    -0.303 OA
DOCKED: ATOM     18  H   UNL d   1       9.203   2.539 -18.961 +0.03 +0.16    +0.222 HD
DOCKED: ENDBRANCH  15  17
DOCKED: BRANCH  15  19
DOCKED: ATOM     19  O   UNL d   1       7.449   0.317 -18.692 -0.01 -0.09    -0.303 OA
DOCKED: ATOM     20  H   UNL d   1       7.020  -0.372 -18.153 +0.04 +0.04    +0.222 HD
DOCKED: ENDBRANCH  15  19
DOCKED: ENDBRANCH  14  15
DOCKED: ENDBRANCH   2  14
DOCKED: BRANCH   6  21
DOCKED: ATOM     21  O   UNL d   1      12.506   1.215 -14.954 -0.18 -0.06    -0.278 OA
DOCKED: BRANCH  21  22
DOCKED: ATOM     22  P   UNL d   1      13.474   0.076 -15.512 -0.06 +0.04    +0.473 P 
DOCKED: ATOM     23  O   UNL d   1      12.895  -1.272 -15.780 -0.05 -0.01    -0.228 OA
DOCKED: BRANCH  22  24
DOCKED: ATOM     24  O   UNL d   1      14.119   0.790 -16.780 -0.06 -0.04    -0.303 OA
DOCKED: ATOM     25  H   UNL d   1      13.385   1.158 -17.334 +0.03 +0.04    +0.222 HD
DOCKED: ENDBRANCH  22  24
DOCKED: BRANCH  22  26
DOCKED: ATOM     26  O   UNL d   1      14.678   0.126 -14.455 -0.11 +0.01    -0.303 OA
DOCKED: ATOM     27  H   UNL d   1      14.448  -0.424 -13.679 +0.08 -0.04    +0.222 HD
DOCKED: ENDBRANCH  22  26
DOCKED: ENDBRANCH  21  22
DOCKED: ENDBRANCH   6  21
DOCKED: BRANCH   3  28
DOCKED: ATOM     28  O   UNL d   1       7.525  -0.828 -16.125 -0.06 -0.03    -0.278 OA
DOCKED: BRANCH  28  29
DOCKED: ATOM     29  P   UNL d   1       6.794  -2.243 -16.131 -0.07 -0.23    +0.473 P 
DOCKED: ATOM     30  O   UNL d   1       5.555  -2.321 -16.948 -0.16 +0.16    -0.228 OA
DOCKED: BRANCH  29  31
DOCKED: ATOM     31  O   UNL d   1       8.012  -3.185 -16.567 -0.07 +0.16    -0.303 OA
DOCKED: ATOM     32  H   UNL d   1       8.520  -3.435 -15.760 -0.37 -0.13    +0.222 HD
DOCKED: ENDBRANCH  29  31
DOCKED: BRANCH  29  33
DOCKED: ATOM     33  O   UNL d   1       6.650  -2.552 -14.575 -0.27 +0.17    -0.303 OA
DOCKED: ATOM     34  H   UNL d   1       7.428  -3.086 -14.281 -0.23 -0.13    +0.222 HD
DOCKED: ENDBRANCH  29  33
DOCKED: ENDBRANCH  28  29
DOCKED: ENDBRANCH   3  28
DOCKED: BRANCH   5  35
DOCKED: ATOM     35  O   UNL d   1      10.466   0.758 -12.915 -0.22 -0.03    -0.278 OA
DOCKED: BRANCH  35  36
DOCKED: ATOM     36  P   UNL d   1      11.367   0.279 -11.688 -0.14 -0.02    +0.473 P 
DOCKED: ATOM     37  O   UNL d   1      11.546   1.279 -10.591 -0.49 -0.01    -0.228 OA
DOCKED: BRANCH  36  38
DOCKED: ATOM     38  O   UNL d   1      10.625  -1.057 -11.242 -0.29 +0.03    -0.303 OA
DOCKED: ATOM     39  H   UNL d   1       9.866  -1.219 -11.842 +0.14 +0.02    +0.222 HD
DOCKED: ENDBRANCH  36  38
DOCKED: BRANCH  36  40
DOCKED: ATOM     40  O   UNL d   1      12.683  -0.239 -12.416 -0.27 +0.03    -0.303 OA
DOCKED: ATOM     41  H   UNL d   1      13.070   0.449 -13.001 +0.12 +0.00    +0.222 HD
DOCKED: ENDBRANCH  36  40
DOCKED: ENDBRANCH  35  36
DOCKED: ENDBRANCH   5  35
DOCKED: BRANCH   4  42
DOCKED: ATOM     42  O   UNL d   1       8.942  -1.585 -13.736 -0.16 -0.01    -0.278 OA
DOCKED: BRANCH  42  43
DOCKED: ATOM     43  P   UNL d   1       9.913  -2.828 -13.972 -0.24 -0.00    +0.473 P 
DOCKED: ATOM     44  O   UNL d   1       9.331  -4.191 -13.829 -0.89 -0.00    -0.228 OA
DOCKED: BRANCH  43  45
DOCKED: ATOM     45  O   UNL d   1      10.521  -2.527 -15.412 -0.06 +0.01    -0.303 OA
DOCKED: ATOM     46  H   UNL d   1      11.446  -2.839 -15.482 +0.08 -0.01    +0.222 HD
DOCKED: ENDBRANCH  43  45
DOCKED: BRANCH  43  47
DOCKED: ATOM     47  O   UNL d   1      11.160  -2.505 -13.018 -0.50 -0.01    -0.303 OA
DOCKED: ATOM     48  H   UNL d   1      11.337  -1.541 -13.034 +0.13 +0.00    +0.222 HD
DOCKED: ENDBRANCH  43  47
DOCKED: ENDBRANCH  42  43
DOCKED: ENDBRANCH   4  42
DOCKED: TORSDOF 24
DOCKED: TER
DOCKED: ENDMDL
________________________________________________________________________________


	BEGINNING GENETIC ALGORITHM DOCKING 27 of 100
Run: 27 Seed: 1085473868 650938654 [ Run 27 of 100 GA/GALS ]
Beginning LAMARCKIAN GENETIC ALGORITHM (LGA), with a maximum of 25000000 energy evaluations.

Final-Value: -16.275


	FINAL GENETIC ALGORITHM DOCKED STATE
	_______________________________________________


Detailed state:  trans -5.381 14.557 6.483 quatxyzw 0.826033 0.304433 -0.460086 -0.115370 center 0.035 0.082 -0.065 ntor 24 117.2309 90.8132 63.2817 67.9971 25.9749 -162.5580 -15.5966 -151.3743 18.0063 141.4945 40.6812 -178.2465 -82.7327 121.4166 -60.1149 -50.7667 -85.0208 151.3149 -140.8377 -15.3515 -167.8883 1.4531 56.8998 -3.4588
State:	 -5.381  14.557   6.483   0.832  0.306 -0.463 -166.750    117.23   90.81   63.28   68.00   25.97 -162.56  -15.60 -151.37   18.01  141.49   40.68 -178.25  -82.73  121.42  -60.11  -50.77  -85.02  151.31 -140.84  -15.35 -167.89    1.45   56.90   -3.46

DOCKED: MODEL       27
DOCKED: USER    Run = 27
DOCKED: USER    DPF = D:/Protein_go_brrr/autodock/final/AncA/IHP/dock.dpf
DOCKED: USER  
DOCKED: USER    Estimated Free Energy of Binding    =   +4.42 kcal/mol  [=(1)+(2)+(3)-(4)]
DOCKED: USER    
DOCKED: USER    (1) Final Intermolecular Energy     =   -2.74 kcal/mol
DOCKED: USER        vdW + Hbond + desolv Energy     =   -2.60 kcal/mol
DOCKED: USER        Electrostatic Energy            =   -0.14 kcal/mol
DOCKED: USER    (2) Final Total Internal Energy     =  -13.53 kcal/mol
DOCKED: USER    (3) Torsional Free Energy           =   +7.16 kcal/mol
DOCKED: USER    (4) Unbound System's Energy  [=(2)] =  -13.53 kcal/mol
DOCKED: USER    
DOCKED: USER    
DOCKED: USER    NEWDPF move IHP_ideal_opt.pdbqt
DOCKED: USER    NEWDPF about 0.035000 0.082000 -0.065000
DOCKED: USER    NEWDPF tran0 -5.380781 14.557246 6.483137
DOCKED: USER    NEWDPF quaternion0 0.826033 0.304433 -0.460086 -0.115370
DOCKED: USER    NEWDPF axisangle0 0.831586 0.306480 -0.463179 -166.750064
DOCKED: USER    NEWDPF quat0 0.831586 0.306480 -0.463179 -166.750064
DOCKED: USER    NEWDPF dihe0 117.23 90.81 63.28 68.00 25.97 -162.56 -15.60 -151.37 18.01 141.49 40.68 -178.25 -82.73 121.42 -60.11 -50.77 -85.02 151.31 -140.84 -15.35 -167.89 1.45 56.90 -3.46 
DOCKED: USER  keepresnum = 1 
DOCKED: USER  
DOCKED: REMARK  24 active torsions:
DOCKED: REMARK  status: ('A' for Active; 'I' for Inactive)
DOCKED: REMARK    1  A    between atoms: C_1  and  O_7 
DOCKED: REMARK    2  A    between atoms: C_2  and  O_12 
DOCKED: REMARK    3  A    between atoms: C_3  and  O_17 
DOCKED: REMARK    4  A    between atoms: C_4  and  O_22 
DOCKED: REMARK    5  A    between atoms: C_5  and  O_27 
DOCKED: REMARK    6  A    between atoms: C_6  and  O_32 
DOCKED: REMARK    7  A    between atoms: O_7  and  P_8 
DOCKED: REMARK    8  A    between atoms: P_8  and  O_10 
DOCKED: REMARK    9  A    between atoms: P_8  and  O_11 
DOCKED: REMARK   10  A    between atoms: O_12  and  P_13 
DOCKED: REMARK   11  A    between atoms: P_13  and  O_15 
DOCKED: REMARK   12  A    between atoms: P_13  and  O_16 
DOCKED: REMARK   13  A    between atoms: O_17  and  P_18 
DOCKED: REMARK   14  A    between atoms: P_18  and  O_20 
DOCKED: REMARK   15  A    between atoms: P_18  and  O_21 
DOCKED: REMARK   16  A    between atoms: O_22  and  P_23 
DOCKED: REMARK   17  A    between atoms: P_23  and  O_25 
DOCKED: REMARK   18  A    between atoms: P_23  and  O_26 
DOCKED: REMARK   19  A    between atoms: O_27  and  P_28 
DOCKED: REMARK   20  A    between atoms: P_28  and  O_30 
DOCKED: REMARK   21  A    between atoms: P_28  and  O_31 
DOCKED: REMARK   22  A    between atoms: O_32  and  P_33 
DOCKED: REMARK   23  A    between atoms: P_33  and  O_35 
DOCKED: REMARK   24  A    between atoms: P_33  and  O_36 
DOCKED: USER                              x       y       z     vdW  Elec       q    Type
DOCKED: USER                           _______ _______ _______ _____ _____    ______ ____
DOCKED: ROOT
DOCKED: ATOM      1  C   UNL d   1      -5.977  15.382   5.087 -0.01 +0.01    +0.194 C 
DOCKED: ATOM      2  C   UNL d   1      -6.701  15.694   6.398 -0.00 +0.01    +0.194 C 
DOCKED: ATOM      3  C   UNL d   1      -6.952  14.429   7.222 -0.01 +0.02    +0.194 C 
DOCKED: ATOM      4  C   UNL d   1      -5.693  13.594   7.442 -0.06 +0.03    +0.194 C 
DOCKED: ATOM      5  C   UNL d   1      -4.878  13.355   6.177 -0.10 +0.03    +0.194 C 
DOCKED: ATOM      6  C   UNL d   1      -4.679  14.609   5.322 -0.04 +0.01    +0.194 C 
DOCKED: ENDROOT
DOCKED: BRANCH   1   7
DOCKED: ATOM      7  O   UNL d   1      -5.628  16.620   4.464 -0.00 -0.01    -0.278 OA
DOCKED: BRANCH   7   8
DOCKED: ATOM      8  P   UNL d   1      -4.154  17.193   4.686 -0.00 +0.01    +0.473 P 
DOCKED: ATOM      9  O   UNL d   1      -3.534  16.851   5.995 -0.01 -0.01    -0.228 OA
DOCKED: BRANCH   8  10
DOCKED: ATOM     10  O   UNL d   1      -3.331  16.636   3.437 -0.00 -0.00    -0.303 OA
DOCKED: ATOM     11  H   UNL d   1      -3.593  15.714   3.258 +0.02 +0.00    +0.222 HD
DOCKED: ENDBRANCH   8  10
DOCKED: BRANCH   8  12
DOCKED: ATOM     12  O   UNL d   1      -4.258  18.743   4.351 +0.00 -0.00    -0.303 OA
DOCKED: ATOM     13  H   UNL d   1      -5.040  19.174   4.762 +0.00 +0.00    +0.222 HD
DOCKED: ENDBRANCH   8  12
DOCKED: ENDBRANCH   7   8
DOCKED: ENDBRANCH   1   7
DOCKED: BRANCH   2  14
DOCKED: ATOM     14  O   UNL d   1      -5.896  16.591   7.174 -0.00 -0.01    -0.278 OA
DOCKED: BRANCH  14  15
DOCKED: ATOM     15  P   UNL d   1      -6.512  18.041   7.459 +0.00 +0.02    +0.473 P 
DOCKED: ATOM     16  O   UNL d   1      -5.706  18.955   8.328 +0.00 -0.01    -0.228 OA
DOCKED: BRANCH  15  17
DOCKED: ATOM     17  O   UNL d   1      -6.775  18.642   6.007 +0.00 -0.01    -0.303 OA
DOCKED: ATOM     18  H   UNL d   1      -6.110  18.322   5.368 +0.00 +0.01    +0.222 HD
DOCKED: ENDBRANCH  15  17
DOCKED: BRANCH  15  19
DOCKED: ATOM     19  O   UNL d   1      -7.994  17.751   7.958 +0.00 -0.01    -0.303 OA
DOCKED: ATOM     20  H   UNL d   1      -8.146  16.799   8.102 +0.00 +0.01    +0.222 HD
DOCKED: ENDBRANCH  15  19
DOCKED: ENDBRANCH  14  15
DOCKED: ENDBRANCH   2  14
DOCKED: BRANCH   6  21
DOCKED: ATOM     21  O   UNL d   1      -4.217  14.169   4.047 -0.05 -0.02    -0.278 OA
DOCKED: BRANCH  21  22
DOCKED: ATOM     22  P   UNL d   1      -5.270  13.825   2.899 -0.05 +0.03    +0.473 P 
DOCKED: ATOM     23  O   UNL d   1      -6.612  13.316   3.303 -0.05 -0.02    -0.228 OA
DOCKED: BRANCH  22  24
DOCKED: ATOM     24  O   UNL d   1      -5.295  15.180   2.064 -0.01 -0.01    -0.303 OA
DOCKED: ATOM     25  H   UNL d   1      -5.266  15.937   2.703 +0.01 +0.00    +0.222 HD
DOCKED: ENDBRANCH  22  24
DOCKED: BRANCH  22  26
DOCKED: ATOM     26  O   UNL d   1      -4.411  12.864   1.946 -0.06 -0.01    -0.303 OA
DOCKED: ATOM     27  H   UNL d   1      -3.686  12.461   2.465 +0.07 +0.01    +0.222 HD
DOCKED: ENDBRANCH  22  26
DOCKED: ENDBRANCH  21  22
DOCKED: ENDBRANCH   6  21
DOCKED: BRANCH   3  28
DOCKED: ATOM     28  O   UNL d   1      -7.365  14.838   8.519 +0.00 -0.03    -0.278 OA
DOCKED: BRANCH  28  29
DOCKED: ATOM     29  P   UNL d   1      -8.855  14.565   9.012 +0.01 +0.05    +0.473 P 
DOCKED: ATOM     30  O   UNL d   1      -9.890  15.477   8.459 +0.00 -0.02    -0.228 OA
DOCKED: BRANCH  29  31
DOCKED: ATOM     31  O   UNL d   1      -8.989  13.012   8.652 -0.00 -0.06    -0.303 OA
DOCKED: ATOM     32  H   UNL d   1      -8.120  12.576   8.813 +0.02 +0.06    +0.222 HD
DOCKED: ENDBRANCH  29  31
DOCKED: BRANCH  29  33
DOCKED: ATOM     33  O   UNL d   1      -8.685  14.546  10.595 +0.00 -0.03    -0.303 OA
DOCKED: ATOM     34  H   UNL d   1      -8.528  13.615  10.890 +0.01 +0.02    +0.222 HD
DOCKED: ENDBRANCH  29  33
DOCKED: ENDBRANCH  28  29
DOCKED: ENDBRANCH   3  28
DOCKED: BRANCH   5  35
DOCKED: ATOM     35  O   UNL d   1      -3.587  12.941   6.621 -0.13 -0.03    -0.278 OA
DOCKED: BRANCH  35  36
DOCKED: ATOM     36  P   UNL d   1      -2.395  12.767   5.576 -0.20 +0.03    +0.473 P 
DOCKED: ATOM     37  O   UNL d   1      -2.766  12.136   4.272 -0.25 -0.02    -0.228 OA
DOCKED: BRANCH  36  38
DOCKED: ATOM     38  O   UNL d   1      -1.852  14.259   5.450 -0.07 -0.01    -0.303 OA
DOCKED: ATOM     39  H   UNL d   1      -2.602  14.858   5.246 +0.04 +0.01    +0.222 HD
DOCKED: ENDBRANCH  36  38
DOCKED: BRANCH  36  40
DOCKED: ATOM     40  O   UNL d   1      -1.286  12.028   6.445 -0.29 +0.01    -0.303 OA
DOCKED: ATOM     41  H   UNL d   1      -1.272  11.061   6.271 -0.44 -0.05    +0.222 HD
DOCKED: ENDBRANCH  36  40
DOCKED: ENDBRANCH  35  36
DOCKED: ENDBRANCH   5  35
DOCKED: BRANCH   4  42
DOCKED: ATOM     42  O   UNL d   1      -6.122  12.313   7.915 -0.17 -0.11    -0.278 OA
DOCKED: BRANCH  42  43
DOCKED: ATOM     43  P   UNL d   1      -5.731  11.867   9.396 -0.09 +0.18    +0.473 P 
DOCKED: ATOM     44  O   UNL d   1      -5.840  10.419   9.728 -0.70 -0.22    -0.228 OA
DOCKED: BRANCH  43  45
DOCKED: ATOM     45  O   UNL d   1      -4.267  12.467   9.566 -0.06 -0.06    -0.303 OA
DOCKED: ATOM     46  H   UNL d   1      -3.782  12.473   8.717 +0.07 +0.04    +0.222 HD
DOCKED: ENDBRANCH  43  45
DOCKED: BRANCH  43  47
DOCKED: ATOM     47  O   UNL d   1      -6.596  12.855  10.315 -0.01 -0.06    -0.303 OA
DOCKED: ATOM     48  H   UNL d   1      -7.129  13.445   9.743 +0.02 +0.04    +0.222 HD
DOCKED: ENDBRANCH  43  47
DOCKED: ENDBRANCH  42  43
DOCKED: ENDBRANCH   4  42
DOCKED: TORSDOF 24
DOCKED: TER
DOCKED: ENDMDL
________________________________________________________________________________


	BEGINNING GENETIC ALGORITHM DOCKING 28 of 100
Run: 28 Seed: 362533426 549934529 [ Run 28 of 100 GA/GALS ]
Beginning LAMARCKIAN GENETIC ALGORITHM (LGA), with a maximum of 25000000 energy evaluations.

Final-Value: -17.769


	FINAL GENETIC ALGORITHM DOCKED STATE
	_______________________________________________


Detailed state:  trans 2.923 -5.145 -21.291 quatxyzw -0.043193 0.044023 -0.424628 -0.903265 center 0.035 0.082 -0.065 ntor 24 136.7269 97.3875 47.2893 39.9000 136.9938 135.2876 101.8422 -45.2739 40.4244 37.4589 54.5914 -139.1253 -35.3845 -173.1974 44.9138 75.4714 135.1597 127.2096 29.7378 -36.8591 174.8518 -32.1555 -8.4568 -5.5564
State:	  2.923  -5.145 -21.291  -0.101  0.103 -0.990 -50.819    136.73   97.39   47.29   39.90  136.99  135.29  101.84  -45.27   40.42   37.46   54.59 -139.13  -35.38 -173.20   44.91   75.47  135.16  127.21   29.74  -36.86  174.85  -32.16   -8.46   -5.56

DOCKED: MODEL       28
DOCKED: USER    Run = 28
DOCKED: USER    DPF = D:/Protein_go_brrr/autodock/final/AncA/IHP/dock.dpf
DOCKED: USER  
DOCKED: USER    Estimated Free Energy of Binding    =   +3.58 kcal/mol  [=(1)+(2)+(3)-(4)]
DOCKED: USER    
DOCKED: USER    (1) Final Intermolecular Energy     =   -3.57 kcal/mol
DOCKED: USER        vdW + Hbond + desolv Energy     =   -3.46 kcal/mol
DOCKED: USER        Electrostatic Energy            =   -0.12 kcal/mol
DOCKED: USER    (2) Final Total Internal Energy     =  -14.19 kcal/mol
DOCKED: USER    (3) Torsional Free Energy           =   +7.16 kcal/mol
DOCKED: USER    (4) Unbound System's Energy  [=(2)] =  -14.19 kcal/mol
DOCKED: USER    
DOCKED: USER    
DOCKED: USER    NEWDPF move IHP_ideal_opt.pdbqt
DOCKED: USER    NEWDPF about 0.035000 0.082000 -0.065000
DOCKED: USER    NEWDPF tran0 2.923135 -5.144805 -21.291004
DOCKED: USER    NEWDPF quaternion0 -0.043193 0.044023 -0.424628 -0.903265
DOCKED: USER    NEWDPF axisangle0 -0.100664 0.102598 -0.989616 -50.818872
DOCKED: USER    NEWDPF quat0 -0.100664 0.102598 -0.989616 -50.818872
DOCKED: USER    NEWDPF dihe0 136.73 97.39 47.29 39.90 136.99 135.29 101.84 -45.27 40.42 37.46 54.59 -139.13 -35.38 -173.20 44.91 75.47 135.16 127.21 29.74 -36.86 174.85 -32.16 -8.46 -5.56 
DOCKED: USER  keepresnum = 1 
DOCKED: USER  
DOCKED: REMARK  24 active torsions:
DOCKED: REMARK  status: ('A' for Active; 'I' for Inactive)
DOCKED: REMARK    1  A    between atoms: C_1  and  O_7 
DOCKED: REMARK    2  A    between atoms: C_2  and  O_12 
DOCKED: REMARK    3  A    between atoms: C_3  and  O_17 
DOCKED: REMARK    4  A    between atoms: C_4  and  O_22 
DOCKED: REMARK    5  A    between atoms: C_5  and  O_27 
DOCKED: REMARK    6  A    between atoms: C_6  and  O_32 
DOCKED: REMARK    7  A    between atoms: O_7  and  P_8 
DOCKED: REMARK    8  A    between atoms: P_8  and  O_10 
DOCKED: REMARK    9  A    between atoms: P_8  and  O_11 
DOCKED: REMARK   10  A    between atoms: O_12  and  P_13 
DOCKED: REMARK   11  A    between atoms: P_13  and  O_15 
DOCKED: REMARK   12  A    between atoms: P_13  and  O_16 
DOCKED: REMARK   13  A    between atoms: O_17  and  P_18 
DOCKED: REMARK   14  A    between atoms: P_18  and  O_20 
DOCKED: REMARK   15  A    between atoms: P_18  and  O_21 
DOCKED: REMARK   16  A    between atoms: O_22  and  P_23 
DOCKED: REMARK   17  A    between atoms: P_23  and  O_25 
DOCKED: REMARK   18  A    between atoms: P_23  and  O_26 
DOCKED: REMARK   19  A    between atoms: O_27  and  P_28 
DOCKED: REMARK   20  A    between atoms: P_28  and  O_30 
DOCKED: REMARK   21  A    between atoms: P_28  and  O_31 
DOCKED: REMARK   22  A    between atoms: O_32  and  P_33 
DOCKED: REMARK   23  A    between atoms: P_33  and  O_35 
DOCKED: REMARK   24  A    between atoms: P_33  and  O_36 
DOCKED: USER                              x       y       z     vdW  Elec       q    Type
DOCKED: USER                           _______ _______ _______ _____ _____    ______ ____
DOCKED: ROOT
DOCKED: ATOM      1  C   UNL d   1       3.134  -6.643 -20.457 -0.14 -0.01    +0.194 C 
DOCKED: ATOM      2  C   UNL d   1       1.684  -6.207 -20.677 -0.14 -0.02    +0.194 C 
DOCKED: ATOM      3  C   UNL d   1       1.492  -4.715 -20.397 -0.15 -0.01    +0.194 C 
DOCKED: ATOM      4  C   UNL d   1       2.482  -3.830 -21.151 -0.04 -0.01    +0.194 C 
DOCKED: ATOM      5  C   UNL d   1       3.929  -4.295 -21.054 -0.04 -0.01    +0.194 C 
DOCKED: ATOM      6  C   UNL d   1       4.113  -5.798 -21.273 -0.04 -0.01    +0.194 C 
DOCKED: ENDROOT
DOCKED: BRANCH   1   7
DOCKED: ATOM      7  O   UNL d   1       3.265  -7.995 -20.902 -0.07 -0.05    -0.278 OA
DOCKED: BRANCH   7   8
DOCKED: ATOM      8  P   UNL d   1       3.069  -9.168 -19.835 -0.07 +0.36    +0.473 P 
DOCKED: ATOM      9  O   UNL d   1       2.402  -8.763 -18.567 -0.69 -0.14    -0.228 OA
DOCKED: BRANCH   8  10
DOCKED: ATOM     10  O   UNL d   1       2.267 -10.290 -20.636 -0.27 -0.27    -0.303 OA
DOCKED: ATOM     11  H   UNL d   1       1.816  -9.886 -21.401 +0.05 +0.10    +0.222 HD
DOCKED: ENDBRANCH   8  10
DOCKED: BRANCH   8  12
DOCKED: ATOM     12  O   UNL d   1       4.505  -9.831 -19.682 -0.32 -0.29    -0.303 OA
DOCKED: ATOM     13  H   UNL d   1       5.213  -9.177 -19.485 +0.05 +0.09    +0.222 HD
DOCKED: ENDBRANCH   8  12
DOCKED: ENDBRANCH   7   8
DOCKED: ENDBRANCH   1   7
DOCKED: BRANCH   2  14
DOCKED: ATOM     14  O   UNL d   1       1.320  -6.467 -22.039 -0.05 +0.00    -0.278 OA
DOCKED: BRANCH  14  15
DOCKED: ATOM     15  P   UNL d   1       0.582  -7.858 -22.329 -0.03 +0.02    +0.473 P 
DOCKED: ATOM     16  O   UNL d   1       1.287  -8.816 -23.237 -0.02 -0.03    -0.228 OA
DOCKED: BRANCH  15  17
DOCKED: ATOM     17  O   UNL d   1       0.312  -8.464 -20.881 +0.06 +0.03    -0.303 OA
DOCKED: ATOM     18  H   UNL d   1       1.118  -8.431 -20.330 -0.35 -0.01    +0.222 HD
DOCKED: ENDBRANCH  15  17
DOCKED: BRANCH  15  19
DOCKED: ATOM     19  O   UNL d   1      -0.886  -7.442 -22.779 -0.05 +0.02    -0.303 OA
DOCKED: ATOM     20  H   UNL d   1      -1.109  -6.537 -22.491 +0.06 -0.03    +0.222 HD
DOCKED: ENDBRANCH  15  19
DOCKED: ENDBRANCH  14  15
DOCKED: ENDBRANCH   2  14
DOCKED: BRANCH   6  21
DOCKED: ATOM     21  O   UNL d   1       5.425  -6.123 -20.818 -0.02 +0.02    -0.278 OA
DOCKED: BRANCH  21  22
DOCKED: ATOM     22  P   UNL d   1       5.740  -6.140 -19.255 -0.07 -0.20    +0.473 P 
DOCKED: ATOM     23  O   UNL d   1       5.236  -7.287 -18.446 -0.13 +0.16    -0.228 OA
DOCKED: BRANCH  22  24
DOCKED: ATOM     24  O   UNL d   1       7.321  -5.955 -19.239 -0.06 +0.08    -0.303 OA
DOCKED: ATOM     25  H   UNL d   1       7.525  -5.026 -19.514 +0.03 -0.05    +0.222 HD
DOCKED: ENDBRANCH  22  24
DOCKED: BRANCH  22  26
DOCKED: ATOM     26  O   UNL d   1       5.233  -4.687 -18.805 -0.12 +0.21    -0.303 OA
DOCKED: ATOM     27  H   UNL d   1       5.466  -4.036 -19.498 +0.04 -0.07    +0.222 HD
DOCKED: ENDBRANCH  22  26
DOCKED: ENDBRANCH  21  22
DOCKED: ENDBRANCH   6  21
DOCKED: BRANCH   3  28
DOCKED: ATOM     28  O   UNL d   1       0.209  -4.348 -20.888 -0.08 +0.02    -0.278 OA
DOCKED: BRANCH  28  29
DOCKED: ATOM     29  P   UNL d   1      -1.101  -4.694 -20.050 -0.18 -0.09    +0.473 P 
DOCKED: ATOM     30  O   UNL d   1      -1.065  -4.307 -18.616 -0.28 +0.05    -0.228 OA
DOCKED: BRANCH  29  31
DOCKED: ATOM     31  O   UNL d   1      -2.210  -3.990 -20.965 -0.08 +0.06    -0.303 OA
DOCKED: ATOM     32  H   UNL d   1      -3.069  -4.455 -20.830 +0.04 -0.07    +0.222 HD
DOCKED: ENDBRANCH  29  31
DOCKED: BRANCH  29  33
DOCKED: ATOM     33  O   UNL d   1      -1.307  -6.239 -20.374 -0.21 +0.12    -0.303 OA
DOCKED: ATOM     34  H   UNL d   1      -0.483  -6.592 -20.791 -0.14 -0.07    +0.222 HD
DOCKED: ENDBRANCH  29  33
DOCKED: ENDBRANCH  28  29
DOCKED: ENDBRANCH   3  28
DOCKED: BRANCH   5  35
DOCKED: ATOM     35  O   UNL d   1       4.621  -3.629 -22.108 -0.00 +0.00    -0.278 OA
DOCKED: BRANCH  35  36
DOCKED: ATOM     36  P   UNL d   1       5.872  -2.694 -21.785 +0.01 +0.00    +0.473 P 
DOCKED: ATOM     37  O   UNL d   1       6.525  -2.057 -22.971 +0.00 -0.01    -0.228 OA
DOCKED: BRANCH  36  38
DOCKED: ATOM     38  O   UNL d   1       5.246  -1.659 -20.749 -0.00 -0.00    -0.303 OA
DOCKED: ATOM     39  H   UNL d   1       4.291  -1.548 -20.944 +0.02 +0.00    +0.222 HD
DOCKED: ENDBRANCH  36  38
DOCKED: BRANCH  36  40
DOCKED: ATOM     40  O   UNL d   1       6.779  -3.638 -20.882 -0.00 +0.02    -0.303 OA
DOCKED: ATOM     41  H   UNL d   1       6.339  -4.497 -20.697 +0.02 -0.02    +0.222 HD
DOCKED: ENDBRANCH  36  40
DOCKED: ENDBRANCH  35  36
DOCKED: ENDBRANCH   5  35
DOCKED: BRANCH   4  42
DOCKED: ATOM     42  O   UNL d   1       2.416  -2.531 -20.553 -0.03 +0.01    -0.278 OA
DOCKED: BRANCH  42  43
DOCKED: ATOM     43  P   UNL d   1       1.913  -1.300 -21.434 +0.00 +0.01    +0.473 P 
DOCKED: ATOM     44  O   UNL d   1       1.703   0.001 -20.741 -0.01 -0.01    -0.228 OA
DOCKED: BRANCH  43  45
DOCKED: ATOM     45  O   UNL d   1       2.990  -1.247 -22.605 -0.00 -0.01    -0.303 OA
DOCKED: ATOM     46  H   UNL d   1       3.804  -1.733 -22.365 +0.01 +0.01    +0.222 HD
DOCKED: ENDBRANCH  43  45
DOCKED: BRANCH  43  47
DOCKED: ATOM     47  O   UNL d   1       0.633  -1.893 -22.195 -0.00 -0.00    -0.303 OA
DOCKED: ATOM     48  H   UNL d   1       0.125  -2.459 -21.579 +0.03 -0.01    +0.222 HD
DOCKED: ENDBRANCH  43  47
DOCKED: ENDBRANCH  42  43
DOCKED: ENDBRANCH   4  42
DOCKED: TORSDOF 24
DOCKED: TER
DOCKED: ENDMDL
________________________________________________________________________________


	BEGINNING GENETIC ALGORITHM DOCKING 29 of 100
Run: 29 Seed: 51265555 519363864 [ Run 29 of 100 GA/GALS ]
Beginning LAMARCKIAN GENETIC ALGORITHM (LGA), with a maximum of 25000000 energy evaluations.

Final-Value: -18.471


	FINAL GENETIC ALGORITHM DOCKED STATE
	_______________________________________________


Detailed state:  trans 5.770 -14.678 -5.857 quatxyzw 0.244493 -0.906978 0.334757 -0.074514 center 0.035 0.082 -0.065 ntor 24 129.6412 99.9409 61.1878 68.6891 18.9544 171.1628 -117.1673 -27.2180 0.3877 46.3845 -37.2867 96.0016 -45.9985 131.9762 173.7303 -180.0000 5.2001 40.8401 -2.7408 -18.7800 -24.4034 6.8732 171.1567 -173.5153
State:	  5.770 -14.678  -5.857   0.245 -0.910  0.336 -171.453    129.64   99.94   61.19   68.69   18.95  171.16 -117.17  -27.22    0.39   46.38  -37.29   96.00  -46.00  131.98  173.73 -180.00    5.20   40.84   -2.74  -18.78  -24.40    6.87  171.16 -173.52

DOCKED: MODEL       29
DOCKED: USER    Run = 29
DOCKED: USER    DPF = D:/Protein_go_brrr/autodock/final/AncA/IHP/dock.dpf
DOCKED: USER  
DOCKED: USER    Estimated Free Energy of Binding    =   +1.97 kcal/mol  [=(1)+(2)+(3)-(4)]
DOCKED: USER    
DOCKED: USER    (1) Final Intermolecular Energy     =   -5.19 kcal/mol
DOCKED: USER        vdW + Hbond + desolv Energy     =   -5.08 kcal/mol
DOCKED: USER        Electrostatic Energy            =   -0.11 kcal/mol
DOCKED: USER    (2) Final Total Internal Energy     =  -13.28 kcal/mol
DOCKED: USER    (3) Torsional Free Energy           =   +7.16 kcal/mol
DOCKED: USER    (4) Unbound System's Energy  [=(2)] =  -13.28 kcal/mol
DOCKED: USER    
DOCKED: USER    
DOCKED: USER    NEWDPF move IHP_ideal_opt.pdbqt
DOCKED: USER    NEWDPF about 0.035000 0.082000 -0.065000
DOCKED: USER    NEWDPF tran0 5.769981 -14.677522 -5.856628
DOCKED: USER    NEWDPF quaternion0 0.244493 -0.906978 0.334757 -0.074514
DOCKED: USER    NEWDPF axisangle0 0.245174 -0.909506 0.335690 -171.453370
DOCKED: USER    NEWDPF quat0 0.245174 -0.909506 0.335690 -171.453370
DOCKED: USER    NEWDPF dihe0 129.64 99.94 61.19 68.69 18.95 171.16 -117.17 -27.22 0.39 46.38 -37.29 96.00 -46.00 131.98 173.73 -180.00 5.20 40.84 -2.74 -18.78 -24.40 6.87 171.16 -173.52 
DOCKED: USER  keepresnum = 1 
DOCKED: USER  
DOCKED: REMARK  24 active torsions:
DOCKED: REMARK  status: ('A' for Active; 'I' for Inactive)
DOCKED: REMARK    1  A    between atoms: C_1  and  O_7 
DOCKED: REMARK    2  A    between atoms: C_2  and  O_12 
DOCKED: REMARK    3  A    between atoms: C_3  and  O_17 
DOCKED: REMARK    4  A    between atoms: C_4  and  O_22 
DOCKED: REMARK    5  A    between atoms: C_5  and  O_27 
DOCKED: REMARK    6  A    between atoms: C_6  and  O_32 
DOCKED: REMARK    7  A    between atoms: O_7  and  P_8 
DOCKED: REMARK    8  A    between atoms: P_8  and  O_10 
DOCKED: REMARK    9  A    between atoms: P_8  and  O_11 
DOCKED: REMARK   10  A    between atoms: O_12  and  P_13 
DOCKED: REMARK   11  A    between atoms: P_13  and  O_15 
DOCKED: REMARK   12  A    between atoms: P_13  and  O_16 
DOCKED: REMARK   13  A    between atoms: O_17  and  P_18 
DOCKED: REMARK   14  A    between atoms: P_18  and  O_20 
DOCKED: REMARK   15  A    between atoms: P_18  and  O_21 
DOCKED: REMARK   16  A    between atoms: O_22  and  P_23 
DOCKED: REMARK   17  A    between atoms: P_23  and  O_25 
DOCKED: REMARK   18  A    between atoms: P_23  and  O_26 
DOCKED: REMARK   19  A    between atoms: O_27  and  P_28 
DOCKED: REMARK   20  A    between atoms: P_28  and  O_30 
DOCKED: REMARK   21  A    between atoms: P_28  and  O_31 
DOCKED: REMARK   22  A    between atoms: O_32  and  P_33 
DOCKED: REMARK   23  A    between atoms: P_33  and  O_35 
DOCKED: REMARK   24  A    between atoms: P_33  and  O_36 
DOCKED: USER                              x       y       z     vdW  Elec       q    Type
DOCKED: USER                           _______ _______ _______ _____ _____    ______ ____
DOCKED: ROOT
DOCKED: ATOM      1  C   UNL d   1       5.141 -16.263  -5.580 -0.11 +0.13    +0.194 C 
DOCKED: ATOM      2  C   UNL d   1       6.612 -16.062  -5.212 -0.06 +0.10    +0.194 C 
DOCKED: ATOM      3  C   UNL d   1       7.358 -15.254  -6.277 -0.09 +0.08    +0.194 C 
DOCKED: ATOM      4  C   UNL d   1       6.666 -13.940  -6.629 -0.17 +0.03    +0.194 C 
DOCKED: ATOM      5  C   UNL d   1       5.172 -14.076  -6.892 -0.26 +0.07    +0.194 C 
DOCKED: ATOM      6  C   UNL d   1       4.437 -14.935  -5.860 -0.16 +0.09    +0.194 C 
DOCKED: ENDROOT
DOCKED: BRANCH   1   7
DOCKED: ATOM      7  O   UNL d   1       4.482 -16.868  -4.466 -0.04 -0.15    -0.278 OA
DOCKED: BRANCH   7   8
DOCKED: ATOM      8  P   UNL d   1       3.679 -18.229  -4.707 -0.05 +0.32    +0.473 P 
DOCKED: ATOM      9  O   UNL d   1       3.812 -18.806  -6.072 -0.21 -0.28    -0.228 OA
DOCKED: BRANCH   8  10
DOCKED: ATOM     10  O   UNL d   1       4.213 -19.200  -3.559 -0.00 -0.15    -0.303 OA
DOCKED: ATOM     11  H   UNL d   1       5.124 -18.951  -3.317 +0.01 +0.10    +0.222 HD
DOCKED: ENDBRANCH   8  10
DOCKED: BRANCH   8  12
DOCKED: ATOM     12  O   UNL d   1       2.197 -17.925  -4.223 -0.01 -0.16    -0.303 OA
DOCKED: ATOM     13  H   UNL d   1       1.801 -17.139  -4.662 +0.04 +0.13    +0.222 HD
DOCKED: ENDBRANCH   8  12
DOCKED: ENDBRANCH   7   8
DOCKED: ENDBRANCH   1   7
DOCKED: BRANCH   2  14
DOCKED: ATOM     14  O   UNL d   1       6.690 -15.356  -3.967 -0.02 -0.06    -0.278 OA
DOCKED: BRANCH  14  15
DOCKED: ATOM     15  P   UNL d   1       7.277 -16.170  -2.719 +0.01 +0.09    +0.473 P 
DOCKED: ATOM     16  O   UNL d   1       7.201 -15.499  -1.383 -0.01 -0.03    -0.228 OA
DOCKED: BRANCH  15  17
DOCKED: ATOM     17  O   UNL d   1       6.495 -17.557  -2.758 +0.00 -0.10    -0.303 OA
DOCKED: ATOM     18  H   UNL d   1       5.579 -17.436  -3.071 +0.01 +0.08    +0.222 HD
DOCKED: ENDBRANCH  15  17
DOCKED: BRANCH  15  19
DOCKED: ATOM     19  O   UNL d   1       8.734 -16.610  -3.182 +0.00 -0.05    -0.303 OA
DOCKED: ATOM     20  H   UNL d   1       8.989 -16.185  -4.022 +0.02 +0.03    +0.222 HD
DOCKED: ENDBRANCH  15  19
DOCKED: ENDBRANCH  14  15
DOCKED: ENDBRANCH   2  14
DOCKED: BRANCH   6  21
DOCKED: ATOM     21  O   UNL d   1       3.162 -15.246  -6.417 -0.11 -0.16    -0.278 OA
DOCKED: BRANCH  21  22
DOCKED: ATOM     22  P   UNL d   1       1.837 -14.935  -5.584 -0.16 +0.24    +0.473 P 
DOCKED: ATOM     23  O   UNL d   1       0.607 -15.719  -5.897 -0.18 -0.14    -0.228 OA
DOCKED: BRANCH  22  24
DOCKED: ATOM     24  O   UNL d   1       2.354 -15.074  -4.085 -0.04 -0.14    -0.303 OA
DOCKED: ATOM     25  H   UNL d   1       2.879 -15.911  -4.017 +0.04 +0.10    +0.222 HD
DOCKED: ENDBRANCH  22  24
DOCKED: BRANCH  22  26
DOCKED: ATOM     26  O   UNL d   1       1.717 -13.345  -5.747 -0.26 -0.13    -0.303 OA
DOCKED: ATOM     27  H   UNL d   1       2.487 -13.014  -6.252 +0.11 +0.08    +0.222 HD
DOCKED: ENDBRANCH  22  26
DOCKED: ENDBRANCH  21  22
DOCKED: ENDBRANCH   6  21
DOCKED: BRANCH   3  28
DOCKED: ATOM     28  O   UNL d   1       8.617 -14.883  -5.730 -0.03 -0.03    -0.278 OA
DOCKED: BRANCH  28  29
DOCKED: ATOM     29  P   UNL d   1       9.967 -15.402  -6.396 +0.01 +0.07    +0.473 P 
DOCKED: ATOM     30  O   UNL d   1      11.160 -14.544  -6.178 -0.04 +0.01    -0.228 OA
DOCKED: BRANCH  29  31
DOCKED: ATOM     31  O   UNL d   1      10.022 -16.886  -5.798 +0.00 -0.09    -0.303 OA
DOCKED: ATOM     32  H   UNL d   1      10.141 -16.827  -4.822 +0.02 +0.04    +0.222 HD
DOCKED: ENDBRANCH  29  31
DOCKED: BRANCH  29  33
DOCKED: ATOM     33  O   UNL d   1       9.523 -15.647  -7.905 -0.02 -0.10    -0.303 OA
DOCKED: ATOM     34  H   UNL d   1       8.821 -14.994  -8.143 +0.07 +0.07    +0.222 HD
DOCKED: ENDBRANCH  29  33
DOCKED: ENDBRANCH  28  29
DOCKED: ENDBRANCH   3  28
DOCKED: BRANCH   5  35
DOCKED: ATOM     35  O   UNL d   1       4.640 -12.756  -6.794 -0.30 -0.04    -0.278 OA
DOCKED: BRANCH  35  36
DOCKED: ATOM     36  P   UNL d   1       4.815 -11.915  -5.450 -0.14 +0.02    +0.473 P 
DOCKED: ATOM     37  O   UNL d   1       6.205 -11.860  -4.900 -0.23 +0.02    -0.228 OA
DOCKED: BRANCH  36  38
DOCKED: ATOM     38  O   UNL d   1       4.222 -10.498  -5.872 -0.36 -0.02    -0.303 OA
DOCKED: ATOM     39  H   UNL d   1       4.832 -10.074  -6.514 -0.25 -0.02    +0.222 HD
DOCKED: ENDBRANCH  36  38
DOCKED: BRANCH  36  40
DOCKED: ATOM     40  O   UNL d   1       3.691 -12.536  -4.512 -0.12 -0.07    -0.303 OA
DOCKED: ATOM     41  H   UNL d   1       3.240 -13.298  -4.939 +0.10 +0.07    +0.222 HD
DOCKED: ENDBRANCH  36  40
DOCKED: ENDBRANCH  35  36
DOCKED: ENDBRANCH   5  35
DOCKED: BRANCH   4  42
DOCKED: ATOM     42  O   UNL d   1       7.265 -13.467  -7.840 -0.19 -0.01    -0.278 OA
DOCKED: BRANCH  42  43
DOCKED: ATOM     43  P   UNL d   1       6.878 -14.171  -9.218 -0.27 +0.14    +0.473 P 
DOCKED: ATOM     44  O   UNL d   1       5.670 -13.670  -9.930 -1.05 -0.12    -0.228 OA
DOCKED: BRANCH  43  45
DOCKED: ATOM     45  O   UNL d   1       8.225 -14.056 -10.058 -0.15 -0.03    -0.303 OA
DOCKED: ATOM     46  H   UNL d   1       8.130 -13.427 -10.802 -0.37 -0.06    +0.222 HD
DOCKED: ENDBRANCH  43  45
DOCKED: BRANCH  43  47
DOCKED: ATOM     47  O   UNL d   1       6.862 -15.729  -8.841 -0.13 -0.27    -0.303 OA
DOCKED: ATOM     48  H   UNL d   1       7.772 -16.087  -8.908 +0.05 +0.18    +0.222 HD
DOCKED: ENDBRANCH  43  47
DOCKED: ENDBRANCH  42  43
DOCKED: ENDBRANCH   4  42
DOCKED: TORSDOF 24
DOCKED: TER
DOCKED: ENDMDL
________________________________________________________________________________


	BEGINNING GENETIC ALGORITHM DOCKING 30 of 100
Run: 30 Seed: 1734515927 1091206359 [ Run 30 of 100 GA/GALS ]
Beginning LAMARCKIAN GENETIC ALGORITHM (LGA), with a maximum of 25000000 energy evaluations.

Final-Value: -17.260


	FINAL GENETIC ALGORITHM DOCKED STATE
	_______________________________________________


Detailed state:  trans 1.824 14.650 14.718 quatxyzw 0.080514 -0.838443 0.359529 -0.401585 center 0.035 0.082 -0.065 ntor 24 -86.0922 25.9188 41.2351 -31.4817 75.6572 96.9417 -104.4326 -19.3616 101.0705 21.5090 157.5674 81.7634 179.9831 160.5545 164.0307 -179.3164 23.9937 41.8261 60.9194 7.8078 -3.7083 3.6966 174.8695 -177.0821
State:	  1.824  14.650  14.718   0.088 -0.916  0.393 -132.645    -86.09   25.92   41.24  -31.48   75.66   96.94 -104.43  -19.36  101.07   21.51  157.57   81.76  179.98  160.55  164.03 -179.32   23.99   41.83   60.92    7.81   -3.71    3.70  174.87 -177.08

DOCKED: MODEL       30
DOCKED: USER    Run = 30
DOCKED: USER    DPF = D:/Protein_go_brrr/autodock/final/AncA/IHP/dock.dpf
DOCKED: USER  
DOCKED: USER    Estimated Free Energy of Binding    =   +3.95 kcal/mol  [=(1)+(2)+(3)-(4)]
DOCKED: USER    
DOCKED: USER    (1) Final Intermolecular Energy     =   -3.21 kcal/mol
DOCKED: USER        vdW + Hbond + desolv Energy     =   -3.08 kcal/mol
DOCKED: USER        Electrostatic Energy            =   -0.13 kcal/mol
DOCKED: USER    (2) Final Total Internal Energy     =  -14.05 kcal/mol
DOCKED: USER    (3) Torsional Free Energy           =   +7.16 kcal/mol
DOCKED: USER    (4) Unbound System's Energy  [=(2)] =  -14.05 kcal/mol
DOCKED: USER    
DOCKED: USER    
DOCKED: USER    NEWDPF move IHP_ideal_opt.pdbqt
DOCKED: USER    NEWDPF about 0.035000 0.082000 -0.065000
DOCKED: USER    NEWDPF tran0 1.824045 14.650035 14.718259
DOCKED: USER    NEWDPF quaternion0 0.080514 -0.838443 0.359529 -0.401585
DOCKED: USER    NEWDPF axisangle0 0.087914 -0.915509 0.392575 -132.645402
DOCKED: USER    NEWDPF quat0 0.087914 -0.915509 0.392575 -132.645402
DOCKED: USER    NEWDPF dihe0 -86.09 25.92 41.24 -31.48 75.66 96.94 -104.43 -19.36 101.07 21.51 157.57 81.76 179.98 160.55 164.03 -179.32 23.99 41.83 60.92 7.81 -3.71 3.70 174.87 -177.08 
DOCKED: USER  keepresnum = 1 
DOCKED: USER  
DOCKED: REMARK  24 active torsions:
DOCKED: REMARK  status: ('A' for Active; 'I' for Inactive)
DOCKED: REMARK    1  A    between atoms: C_1  and  O_7 
DOCKED: REMARK    2  A    between atoms: C_2  and  O_12 
DOCKED: REMARK    3  A    between atoms: C_3  and  O_17 
DOCKED: REMARK    4  A    between atoms: C_4  and  O_22 
DOCKED: REMARK    5  A    between atoms: C_5  and  O_27 
DOCKED: REMARK    6  A    between atoms: C_6  and  O_32 
DOCKED: REMARK    7  A    between atoms: O_7  and  P_8 
DOCKED: REMARK    8  A    between atoms: P_8  and  O_10 
DOCKED: REMARK    9  A    between atoms: P_8  and  O_11 
DOCKED: REMARK   10  A    between atoms: O_12  and  P_13 
DOCKED: REMARK   11  A    between atoms: P_13  and  O_15 
DOCKED: REMARK   12  A    between atoms: P_13  and  O_16 
DOCKED: REMARK   13  A    between atoms: O_17  and  P_18 
DOCKED: REMARK   14  A    between atoms: P_18  and  O_20 
DOCKED: REMARK   15  A    between atoms: P_18  and  O_21 
DOCKED: REMARK   16  A    between atoms: O_22  and  P_23 
DOCKED: REMARK   17  A    between atoms: P_23  and  O_25 
DOCKED: REMARK   18  A    between atoms: P_23  and  O_26 
DOCKED: REMARK   19  A    between atoms: O_27  and  P_28 
DOCKED: REMARK   20  A    between atoms: P_28  and  O_30 
DOCKED: REMARK   21  A    between atoms: P_28  and  O_31 
DOCKED: REMARK   22  A    between atoms: O_32  and  P_33 
DOCKED: REMARK   23  A    between atoms: P_33  and  O_35 
DOCKED: REMARK   24  A    between atoms: P_33  and  O_36 
DOCKED: USER                              x       y       z     vdW  Elec       q    Type
DOCKED: USER                           _______ _______ _______ _____ _____    ______ ____
DOCKED: ROOT
DOCKED: ATOM      1  C   UNL d   1       0.881  13.668  15.781 -0.01 -0.01    +0.194 C 
DOCKED: ATOM      2  C   UNL d   1       2.278  13.136  15.456 -0.01 -0.01    +0.194 C 
DOCKED: ATOM      3  C   UNL d   1       2.610  13.289  13.970 -0.06 -0.01    +0.194 C 
DOCKED: ATOM      4  C   UNL d   1       2.396  14.708  13.449 -0.04 -0.01    +0.194 C 
DOCKED: ATOM      5  C   UNL d   1       1.060  15.321  13.848 -0.01 -0.00    +0.194 C 
DOCKED: ATOM      6  C   UNL d   1       0.699  15.115  15.320 -0.00 -0.00    +0.194 C 
DOCKED: ENDROOT
DOCKED: BRANCH   1   7
DOCKED: ATOM      7  O   UNL d   1       0.716  13.649  17.201 -0.00 +0.00    -0.278 OA
DOCKED: BRANCH   7   8
DOCKED: ATOM      8  P   UNL d   1       0.793  12.243  17.956 +0.00 -0.01    +0.473 P 
DOCKED: ATOM      9  O   UNL d   1      -0.350  11.951  18.863 -0.00 +0.00    -0.228 OA
DOCKED: BRANCH   8  10
DOCKED: ATOM     10  O   UNL d   1       0.948  11.179  16.777 -0.00 +0.01    -0.303 OA
DOCKED: ATOM     11  H   UNL d   1       1.811  10.732  16.852 +0.02 -0.01    +0.222 HD
DOCKED: ENDBRANCH   8  10
DOCKED: BRANCH   8  12
DOCKED: ATOM     12  O   UNL d   1       2.234  12.211  18.624 -0.00 +0.00    -0.303 OA
DOCKED: ATOM     13  H   UNL d   1       2.861  12.851  18.218 +0.00 -0.00    +0.222 HD
DOCKED: ENDBRANCH   8  12
DOCKED: ENDBRANCH   7   8
DOCKED: ENDBRANCH   1   7
DOCKED: BRANCH   2  14
DOCKED: ATOM     14  O   UNL d   1       3.245  13.869  16.218 -0.00 +0.01    -0.278 OA
DOCKED: BRANCH  14  15
DOCKED: ATOM     15  P   UNL d   1       4.451  13.024  16.846 +0.01 -0.01    +0.473 P 
DOCKED: ATOM     16  O   UNL d   1       4.943  13.454  18.193 +0.00 +0.00    -0.228 OA
DOCKED: BRANCH  15  17
DOCKED: ATOM     17  O   UNL d   1       3.920  11.522  16.833 -0.00 +0.01    -0.303 OA
DOCKED: ATOM     18  H   UNL d   1       3.061  11.449  17.293 +0.01 -0.01    +0.222 HD
DOCKED: ENDBRANCH  15  17
DOCKED: BRANCH  15  19
DOCKED: ATOM     19  O   UNL d   1       5.549  12.984  15.696 -0.01 +0.01    -0.303 OA
DOCKED: ATOM     20  H   UNL d   1       5.443  12.202  15.124 +0.04 -0.01    +0.222 HD
DOCKED: ENDBRANCH  15  19
DOCKED: ENDBRANCH  14  15
DOCKED: ENDBRANCH   2  14
DOCKED: BRANCH   6  21
DOCKED: ATOM     21  O   UNL d   1      -0.686  15.425  15.453 -0.00 +0.00    -0.278 OA
DOCKED: BRANCH  21  22
DOCKED: ATOM     22  P   UNL d   1      -1.128  16.788  16.154 +0.00 +0.00    +0.473 P 
DOCKED: ATOM     23  O   UNL d   1      -2.554  16.938  16.566 +0.00 -0.00    -0.228 OA
DOCKED: BRANCH  22  24
DOCKED: ATOM     24  O   UNL d   1      -0.076  16.899  17.343 +0.00 -0.00    -0.303 OA
DOCKED: ATOM     25  H   UNL d   1       0.617  16.203  17.207 +0.00 +0.00    +0.222 HD
DOCKED: ENDBRANCH  22  24
DOCKED: BRANCH  22  26
DOCKED: ATOM     26  O   UNL d   1      -0.576  17.881  15.120 +0.00 -0.00    -0.303 OA
DOCKED: ATOM     27  H   UNL d   1       0.391  17.975  15.237 +0.00 +0.00    +0.222 HD
DOCKED: ENDBRANCH  22  26
DOCKED: ENDBRANCH  21  22
DOCKED: ENDBRANCH   6  21
DOCKED: BRANCH   3  28
DOCKED: ATOM     28  O   UNL d   1       4.001  13.035  13.814 -0.07 +0.01    -0.278 OA
DOCKED: BRANCH  28  29
DOCKED: ATOM     29  P   UNL d   1       4.499  11.767  12.990 -0.18 -0.04    +0.473 P 
DOCKED: ATOM     30  O   UNL d   1       5.854  11.884  12.392 -0.79 -0.01    -0.228 OA
DOCKED: BRANCH  29  31
DOCKED: ATOM     31  O   UNL d   1       4.285  10.620  14.085 -0.14 +0.05    -0.303 OA
DOCKED: ATOM     32  H   UNL d   1       4.742  10.890  14.915 +0.06 -0.02    +0.222 HD
DOCKED: ENDBRANCH  29  31
DOCKED: BRANCH  29  33
DOCKED: ATOM     33  O   UNL d   1       3.288  11.524  11.985 -0.48 +0.05    -0.303 OA
DOCKED: ATOM     34  H   UNL d   1       2.955  12.399  11.666 +0.06 -0.03    +0.222 HD
DOCKED: ENDBRANCH  29  33
DOCKED: ENDBRANCH  28  29
DOCKED: ENDBRANCH   3  28
DOCKED: BRANCH   5  35
DOCKED: ATOM     35  O   UNL d   1       1.202  16.725  13.643 -0.00 +0.00    -0.278 OA
DOCKED: BRANCH  35  36
DOCKED: ATOM     36  P   UNL d   1       2.401  17.521  14.331 +0.01 -0.00    +0.473 P 
DOCKED: ATOM     37  O   UNL d   1       3.768  17.202  13.815 -0.01 +0.00    -0.228 OA
DOCKED: BRANCH  36  38
DOCKED: ATOM     38  O   UNL d   1       1.955  19.035  14.112 +0.00 -0.00    -0.303 OA
DOCKED: ATOM     39  H   UNL d   1       0.975  19.084  14.111 +0.00 +0.00    +0.222 HD
DOCKED: ENDBRANCH  36  38
DOCKED: BRANCH  36  40
DOCKED: ATOM     40  O   UNL d   1       2.136  17.265  15.878 +0.00 -0.00    -0.303 OA
DOCKED: ATOM     41  H   UNL d   1       1.206  16.996  16.049 +0.00 +0.00    +0.222 HD
DOCKED: ENDBRANCH  36  40
DOCKED: ENDBRANCH  35  36
DOCKED: ENDBRANCH   5  35
DOCKED: BRANCH   4  42
DOCKED: ATOM     42  O   UNL d   1       2.414  14.631  12.019 -0.07 +0.01    -0.278 OA
DOCKED: BRANCH  42  43
DOCKED: ATOM     43  P   UNL d   1       1.178  13.960  11.267 -0.13 -0.05    +0.473 P 
DOCKED: ATOM     44  O   UNL d   1       0.025  14.838  10.923 -0.06 +0.01    -0.228 OA
DOCKED: BRANCH  43  45
DOCKED: ATOM     45  O   UNL d   1       1.867  13.268  10.011 -0.20 +0.07    -0.303 OA
DOCKED: ATOM     46  H   UNL d   1       2.218  12.383  10.237 -0.40 -0.08    +0.222 HD
DOCKED: ENDBRANCH  43  45
DOCKED: BRANCH  43  47
DOCKED: ATOM     47  O   UNL d   1       0.833  12.694  12.188 -0.14 +0.07    -0.303 OA
DOCKED: ATOM     48  H   UNL d   1       1.228  11.890  11.792 -0.45 -0.13    +0.222 HD
DOCKED: ENDBRANCH  43  47
DOCKED: ENDBRANCH  42  43
DOCKED: ENDBRANCH   4  42
DOCKED: TORSDOF 24
DOCKED: TER
DOCKED: ENDMDL
________________________________________________________________________________


	BEGINNING GENETIC ALGORITHM DOCKING 31 of 100
Run: 31 Seed: 1116020981 442599803 [ Run 31 of 100 GA/GALS ]
Beginning LAMARCKIAN GENETIC ALGORITHM (LGA), with a maximum of 25000000 energy evaluations.

Final-Value: -18.754


	FINAL GENETIC ALGORITHM DOCKED STATE
	_______________________________________________


Detailed state:  trans -17.050 -13.097 -7.181 quatxyzw 0.593047 -0.205907 0.752562 0.198864 center 0.035 0.082 -0.065 ntor 24 170.1068 -0.7171 142.9907 -5.5307 133.8889 86.1825 -79.5092 15.5350 -35.5490 -18.3667 -13.4682 -60.1927 42.3764 -175.9399 91.4532 140.1491 62.0358 -26.8584 24.3033 4.9359 -50.1022 -1.4348 -26.2727 147.2352
State:	-17.050 -13.097  -7.181   0.605 -0.210  0.768 157.059    170.11   -0.72  142.99   -5.53  133.89   86.18  -79.51   15.54  -35.55  -18.37  -13.47  -60.19   42.38 -175.94   91.45  140.15   62.04  -26.86   24.30    4.94  -50.10   -1.43  -26.27  147.24

DOCKED: MODEL       31
DOCKED: USER    Run = 31
DOCKED: USER    DPF = D:/Protein_go_brrr/autodock/final/AncA/IHP/dock.dpf
DOCKED: USER  
DOCKED: USER    Estimated Free Energy of Binding    =   +2.25 kcal/mol  [=(1)+(2)+(3)-(4)]
DOCKED: USER    
DOCKED: USER    (1) Final Intermolecular Energy     =   -4.91 kcal/mol
DOCKED: USER        vdW + Hbond + desolv Energy     =   -4.74 kcal/mol
DOCKED: USER        Electrostatic Energy            =   -0.18 kcal/mol
DOCKED: USER    (2) Final Total Internal Energy     =  -13.84 kcal/mol
DOCKED: USER    (3) Torsional Free Energy           =   +7.16 kcal/mol
DOCKED: USER    (4) Unbound System's Energy  [=(2)] =  -13.84 kcal/mol
DOCKED: USER    
DOCKED: USER    
DOCKED: USER    NEWDPF move IHP_ideal_opt.pdbqt
DOCKED: USER    NEWDPF about 0.035000 0.082000 -0.065000
DOCKED: USER    NEWDPF tran0 -17.050040 -13.096938 -7.180804
DOCKED: USER    NEWDPF quaternion0 0.593047 -0.205907 0.752562 0.198864
DOCKED: USER    NEWDPF axisangle0 0.605134 -0.210103 0.767900 157.058895
DOCKED: USER    NEWDPF quat0 0.605134 -0.210103 0.767900 157.058895
DOCKED: USER    NEWDPF dihe0 170.11 -0.72 142.99 -5.53 133.89 86.18 -79.51 15.54 -35.55 -18.37 -13.47 -60.19 42.38 -175.94 91.45 140.15 62.04 -26.86 24.30 4.94 -50.10 -1.43 -26.27 147.24 
DOCKED: USER  keepresnum = 1 
DOCKED: USER  
DOCKED: REMARK  24 active torsions:
DOCKED: REMARK  status: ('A' for Active; 'I' for Inactive)
DOCKED: REMARK    1  A    between atoms: C_1  and  O_7 
DOCKED: REMARK    2  A    between atoms: C_2  and  O_12 
DOCKED: REMARK    3  A    between atoms: C_3  and  O_17 
DOCKED: REMARK    4  A    between atoms: C_4  and  O_22 
DOCKED: REMARK    5  A    between atoms: C_5  and  O_27 
DOCKED: REMARK    6  A    between atoms: C_6  and  O_32 
DOCKED: REMARK    7  A    between atoms: O_7  and  P_8 
DOCKED: REMARK    8  A    between atoms: P_8  and  O_10 
DOCKED: REMARK    9  A    between atoms: P_8  and  O_11 
DOCKED: REMARK   10  A    between atoms: O_12  and  P_13 
DOCKED: REMARK   11  A    between atoms: P_13  and  O_15 
DOCKED: REMARK   12  A    between atoms: P_13  and  O_16 
DOCKED: REMARK   13  A    between atoms: O_17  and  P_18 
DOCKED: REMARK   14  A    between atoms: P_18  and  O_20 
DOCKED: REMARK   15  A    between atoms: P_18  and  O_21 
DOCKED: REMARK   16  A    between atoms: O_22  and  P_23 
DOCKED: REMARK   17  A    between atoms: P_23  and  O_25 
DOCKED: REMARK   18  A    between atoms: P_23  and  O_26 
DOCKED: REMARK   19  A    between atoms: O_27  and  P_28 
DOCKED: REMARK   20  A    between atoms: P_28  and  O_30 
DOCKED: REMARK   21  A    between atoms: P_28  and  O_31 
DOCKED: REMARK   22  A    between atoms: O_32  and  P_33 
DOCKED: REMARK   23  A    between atoms: P_33  and  O_35 
DOCKED: REMARK   24  A    between atoms: P_33  and  O_36 
DOCKED: USER                              x       y       z     vdW  Elec       q    Type
DOCKED: USER                           _______ _______ _______ _____ _____    ______ ____
DOCKED: ROOT
DOCKED: ATOM      1  C   UNL d   1     -16.601 -13.094  -5.513 -0.03 +0.02    +0.194 C 
DOCKED: ATOM      2  C   UNL d   1     -16.733 -11.716  -6.164 -0.06 +0.02    +0.194 C 
DOCKED: ATOM      3  C   UNL d   1     -16.103 -11.685  -7.558 -0.07 +0.02    +0.194 C 
DOCKED: ATOM      4  C   UNL d   1     -16.603 -12.805  -8.468 -0.03 +0.03    +0.194 C 
DOCKED: ATOM      5  C   UNL d   1     -16.597 -14.183  -7.819 -0.01 +0.03    +0.194 C 
DOCKED: ATOM      6  C   UNL d   1     -17.170 -14.201  -6.401 -0.00 +0.03    +0.194 C 
DOCKED: ENDROOT
DOCKED: BRANCH   1   7
DOCKED: ATOM      7  O   UNL d   1     -17.357 -13.089  -4.300 -0.05 -0.03    -0.278 OA
DOCKED: BRANCH   7   8
DOCKED: ATOM      8  P   UNL d   1     -16.585 -12.840  -2.924 -0.13 +0.05    +0.473 P 
DOCKED: ATOM      9  O   UNL d   1     -16.558 -11.425  -2.462 -0.77 -0.03    -0.228 OA
DOCKED: BRANCH   8  10
DOCKED: ATOM     10  O   UNL d   1     -17.303 -13.823  -1.894 -0.18 -0.04    -0.303 OA
DOCKED: ATOM     11  H   UNL d   1     -17.872 -14.448  -2.381 +0.05 +0.03    +0.222 HD
DOCKED: ENDBRANCH   8  10
DOCKED: BRANCH   8  12
DOCKED: ATOM     12  O   UNL d   1     -15.168 -13.534  -3.114 -0.14 -0.03    -0.303 OA
DOCKED: ATOM     13  H   UNL d   1     -15.230 -14.434  -3.507 +0.05 +0.03    +0.222 HD
DOCKED: ENDBRANCH   8  12
DOCKED: ENDBRANCH   7   8
DOCKED: ENDBRANCH   1   7
DOCKED: BRANCH   2  14
DOCKED: ATOM     14  O   UNL d   1     -18.123 -11.388  -6.283 -0.03 -0.03    -0.278 OA
DOCKED: BRANCH  14  15
DOCKED: ATOM     15  P   UNL d   1     -18.541  -9.893  -5.891 -0.09 +0.03    +0.473 P 
DOCKED: ATOM     16  O   UNL d   1     -19.536  -9.742  -4.783 -0.62 -0.05    -0.228 OA
DOCKED: BRANCH  15  17
DOCKED: ATOM     17  O   UNL d   1     -17.155  -9.172  -5.579 -0.11 +0.04    -0.303 OA
DOCKED: ATOM     18  H   UNL d   1     -16.498  -9.355  -6.278 +0.08 -0.00    +0.222 HD
DOCKED: ENDBRANCH  15  17
DOCKED: BRANCH  15  19
DOCKED: ATOM     19  O   UNL d   1     -18.948  -9.219  -7.273 -0.05 -0.02    -0.303 OA
DOCKED: ATOM     20  H   UNL d   1     -18.185  -9.144  -7.876 +0.06 +0.01    +0.222 HD
DOCKED: ENDBRANCH  15  19
DOCKED: ENDBRANCH  14  15
DOCKED: ENDBRANCH   2  14
DOCKED: BRANCH   6  21
DOCKED: ATOM     21  O   UNL d   1     -16.786 -15.444  -5.817 -0.00 -0.04    -0.278 OA
DOCKED: BRANCH  21  22
DOCKED: ATOM     22  P   UNL d   1     -17.690 -16.097  -4.676 +0.01 +0.06    +0.473 P 
DOCKED: ATOM     23  O   UNL d   1     -18.241 -17.464  -4.909 -0.00 -0.03    -0.228 OA
DOCKED: BRANCH  22  24
DOCKED: ATOM     24  O   UNL d   1     -16.750 -15.964  -3.400 -0.01 -0.04    -0.303 OA
DOCKED: ATOM     25  H   UNL d   1     -16.663 -15.002  -3.179 +0.04 +0.03    +0.222 HD
DOCKED: ENDBRANCH  22  24
DOCKED: BRANCH  22  26
DOCKED: ATOM     26  O   UNL d   1     -18.769 -14.940  -4.415 -0.00 -0.04    -0.303 OA
DOCKED: ATOM     27  H   UNL d   1     -18.421 -14.322  -3.740 +0.04 +0.02    +0.222 HD
DOCKED: ENDBRANCH  22  26
DOCKED: ENDBRANCH  21  22
DOCKED: ENDBRANCH   6  21
DOCKED: BRANCH   3  28
DOCKED: ATOM     28  O   UNL d   1     -16.512 -10.477  -8.186 -0.05 -0.02    -0.278 OA
DOCKED: BRANCH  28  29
DOCKED: ATOM     29  P   UNL d   1     -15.466  -9.301  -8.427 -0.16 -0.00    +0.473 P 
DOCKED: ATOM     30  O   UNL d   1     -15.158  -8.997  -9.848 -0.27 +0.01    -0.228 OA
DOCKED: BRANCH  29  31
DOCKED: ATOM     31  O   UNL d   1     -16.150  -8.138  -7.567 -0.24 +0.00    -0.303 OA
DOCKED: ATOM     32  H   UNL d   1     -17.123  -8.294  -7.545 +0.09 +0.00    +0.222 HD
DOCKED: ENDBRANCH  29  31
DOCKED: BRANCH  29  33
DOCKED: ATOM     33  O   UNL d   1     -14.245  -9.747  -7.506 -0.25 +0.03    -0.303 OA
DOCKED: ATOM     34  H   UNL d   1     -13.770 -10.496  -7.943 -0.34 -0.06    +0.222 HD
DOCKED: ENDBRANCH  29  33
DOCKED: ENDBRANCH  28  29
DOCKED: ENDBRANCH   3  28
DOCKED: BRANCH   5  35
DOCKED: ATOM     35  O   UNL d   1     -17.447 -14.995  -8.626 -0.00 -0.05    -0.278 OA
DOCKED: BRANCH  35  36
DOCKED: ATOM     36  P   UNL d   1     -16.821 -16.068  -9.627 +0.01 +0.11    +0.473 P 
DOCKED: ATOM     37  O   UNL d   1     -16.953 -17.497  -9.206 +0.00 -0.05    -0.228 OA
DOCKED: BRANCH  36  38
DOCKED: ATOM     38  O   UNL d   1     -17.565 -15.715 -10.990 -0.00 -0.09    -0.303 OA
DOCKED: ATOM     39  H   UNL d   1     -18.243 -16.402 -11.173 +0.01 +0.06    +0.222 HD
DOCKED: ENDBRANCH  36  38
DOCKED: BRANCH  36  40
DOCKED: ATOM     40  O   UNL d   1     -15.346 -15.512  -9.842 -0.03 -0.08    -0.303 OA
DOCKED: ATOM     41  H   UNL d   1     -15.350 -14.607 -10.228 +0.05 +0.07    +0.222 HD
DOCKED: ENDBRANCH  36  40
DOCKED: ENDBRANCH  35  36
DOCKED: ENDBRANCH   5  35
DOCKED: BRANCH   4  42
DOCKED: ATOM     42  O   UNL d   1     -15.709 -12.861  -9.585 -0.07 -0.06    -0.278 OA
DOCKED: BRANCH  42  43
DOCKED: ATOM     43  P   UNL d   1     -14.157 -12.581  -9.345 -0.17 +0.04    +0.473 P 
DOCKED: ATOM     44  O   UNL d   1     -13.645 -12.700  -7.952 -0.24 -0.00    -0.228 OA
DOCKED: BRANCH  43  45
DOCKED: ATOM     45  O   UNL d   1     -13.461 -13.569 -10.381 -0.28 -0.06    -0.303 OA
DOCKED: ATOM     46  H   UNL d   1     -13.334 -14.459  -9.997 -0.25 +0.01    +0.222 HD
DOCKED: ENDBRANCH  43  45
DOCKED: BRANCH  43  47
DOCKED: ATOM     47  O   UNL d   1     -13.929 -11.159 -10.048 -0.15 -0.00    -0.303 OA
DOCKED: ATOM     48  H   UNL d   1     -13.628 -10.512  -9.376 -0.34 -0.09    +0.222 HD
DOCKED: ENDBRANCH  43  47
DOCKED: ENDBRANCH  42  43
DOCKED: ENDBRANCH   4  42
DOCKED: TORSDOF 24
DOCKED: TER
DOCKED: ENDMDL
________________________________________________________________________________


	BEGINNING GENETIC ALGORITHM DOCKING 32 of 100
Run: 32 Seed: 640841296 2131814680 [ Run 32 of 100 GA/GALS ]
Beginning LAMARCKIAN GENETIC ALGORITHM (LGA), with a maximum of 25000000 energy evaluations.

Final-Value: -17.007


	FINAL GENETIC ALGORITHM DOCKED STATE
	_______________________________________________


Detailed state:  trans -19.223 8.042 2.878 quatxyzw 0.293923 -0.883530 0.292360 0.217965 center 0.035 0.082 -0.065 ntor 24 89.8602 45.8798 5.1996 33.6585 76.3833 155.2756 -158.1731 -29.8219 154.7675 79.7115 -79.6728 -157.3019 -43.5616 -180.0000 -141.1959 63.7639 107.9996 -4.5546 52.8290 -13.9666 -59.7063 153.3005 140.6283 139.3691
State:	-19.223   8.042   2.878   0.301 -0.905  0.300 154.821     89.86   45.88    5.20   33.66   76.38  155.28 -158.17  -29.82  154.77   79.71  -79.67 -157.30  -43.56 -180.00 -141.20   63.76  108.00   -4.55   52.83  -13.97  -59.71  153.30  140.63  139.37

DOCKED: MODEL       32
DOCKED: USER    Run = 32
DOCKED: USER    DPF = D:/Protein_go_brrr/autodock/final/AncA/IHP/dock.dpf
DOCKED: USER  
DOCKED: USER    Estimated Free Energy of Binding    =   +3.68 kcal/mol  [=(1)+(2)+(3)-(4)]
DOCKED: USER    
DOCKED: USER    (1) Final Intermolecular Energy     =   -3.48 kcal/mol
DOCKED: USER        vdW + Hbond + desolv Energy     =   -3.25 kcal/mol
DOCKED: USER        Electrostatic Energy            =   -0.23 kcal/mol
DOCKED: USER    (2) Final Total Internal Energy     =  -13.53 kcal/mol
DOCKED: USER    (3) Torsional Free Energy           =   +7.16 kcal/mol
DOCKED: USER    (4) Unbound System's Energy  [=(2)] =  -13.53 kcal/mol
DOCKED: USER    
DOCKED: USER    
DOCKED: USER    NEWDPF move IHP_ideal_opt.pdbqt
DOCKED: USER    NEWDPF about 0.035000 0.082000 -0.065000
DOCKED: USER    NEWDPF tran0 -19.222914 8.042168 2.877613
DOCKED: USER    NEWDPF quaternion0 0.293923 -0.883530 0.292360 0.217965
DOCKED: USER    NEWDPF axisangle0 0.301164 -0.905297 0.299563 154.820981
DOCKED: USER    NEWDPF quat0 0.301164 -0.905297 0.299563 154.820981
DOCKED: USER    NEWDPF dihe0 89.86 45.88 5.20 33.66 76.38 155.28 -158.17 -29.82 154.77 79.71 -79.67 -157.30 -43.56 -180.00 -141.20 63.76 108.00 -4.55 52.83 -13.97 -59.71 153.30 140.63 139.37 
DOCKED: USER  keepresnum = 1 
DOCKED: USER  
DOCKED: REMARK  24 active torsions:
DOCKED: REMARK  status: ('A' for Active; 'I' for Inactive)
DOCKED: REMARK    1  A    between atoms: C_1  and  O_7 
DOCKED: REMARK    2  A    between atoms: C_2  and  O_12 
DOCKED: REMARK    3  A    between atoms: C_3  and  O_17 
DOCKED: REMARK    4  A    between atoms: C_4  and  O_22 
DOCKED: REMARK    5  A    between atoms: C_5  and  O_27 
DOCKED: REMARK    6  A    between atoms: C_6  and  O_32 
DOCKED: REMARK    7  A    between atoms: O_7  and  P_8 
DOCKED: REMARK    8  A    between atoms: P_8  and  O_10 
DOCKED: REMARK    9  A    between atoms: P_8  and  O_11 
DOCKED: REMARK   10  A    between atoms: O_12  and  P_13 
DOCKED: REMARK   11  A    between atoms: P_13  and  O_15 
DOCKED: REMARK   12  A    between atoms: P_13  and  O_16 
DOCKED: REMARK   13  A    between atoms: O_17  and  P_18 
DOCKED: REMARK   14  A    between atoms: P_18  and  O_20 
DOCKED: REMARK   15  A    between atoms: P_18  and  O_21 
DOCKED: REMARK   16  A    between atoms: O_22  and  P_23 
DOCKED: REMARK   17  A    between atoms: P_23  and  O_25 
DOCKED: REMARK   18  A    between atoms: P_23  and  O_26 
DOCKED: REMARK   19  A    between atoms: O_27  and  P_28 
DOCKED: REMARK   20  A    between atoms: P_28  and  O_30 
DOCKED: REMARK   21  A    between atoms: P_28  and  O_31 
DOCKED: REMARK   22  A    between atoms: O_32  and  P_33 
DOCKED: REMARK   23  A    between atoms: P_33  and  O_35 
DOCKED: REMARK   24  A    between atoms: P_33  and  O_36 
DOCKED: USER                              x       y       z     vdW  Elec       q    Type
DOCKED: USER                           _______ _______ _______ _____ _____    ______ ____
DOCKED: ROOT
DOCKED: ATOM      1  C   UNL d   1     -19.352   6.342   2.602 -0.16 +0.04    +0.194 C 
DOCKED: ATOM      2  C   UNL d   1     -18.328   6.765   3.658 -0.17 +0.02    +0.194 C 
DOCKED: ATOM      3  C   UNL d   1     -17.514   7.978   3.203 -0.11 -0.01    +0.194 C 
DOCKED: ATOM      4  C   UNL d   1     -18.382   9.145   2.740 -0.08 +0.01    +0.194 C 
DOCKED: ATOM      5  C   UNL d   1     -19.490   8.749   1.773 -0.06 +0.01    +0.194 C 
DOCKED: ATOM      6  C   UNL d   1     -20.265   7.500   2.197 -0.07 +0.03    +0.194 C 
DOCKED: ENDROOT
DOCKED: BRANCH   1   7
DOCKED: ATOM      7  O   UNL d   1     -20.181   5.323   3.168 -0.09 -0.11    -0.278 OA
DOCKED: BRANCH   7   8
DOCKED: ATOM      8  P   UNL d   1     -19.537   3.888   3.446 -0.09 +0.51    +0.473 P 
DOCKED: ATOM      9  O   UNL d   1     -18.063   3.810   3.256 -0.67 -0.26    -0.228 OA
DOCKED: BRANCH   8  10
DOCKED: ATOM     10  O   UNL d   1     -19.997   3.540   4.933 -0.11 -0.29    -0.303 OA
DOCKED: ATOM     11  H   UNL d   1     -19.557   4.142   5.561 +0.05 +0.14    +0.222 HD
DOCKED: ENDBRANCH   8  10
DOCKED: BRANCH   8  12
DOCKED: ATOM     12  O   UNL d   1     -20.402   2.873   2.583 -0.39 -0.46    -0.303 OA
DOCKED: ATOM     13  H   UNL d   1     -21.116   3.314   2.070 +0.05 +0.17    +0.222 HD
DOCKED: ENDBRANCH   8  12
DOCKED: ENDBRANCH   7   8
DOCKED: ENDBRANCH   1   7
DOCKED: BRANCH   2  14
DOCKED: ATOM     14  O   UNL d   1     -19.018   7.105   4.867 -0.07 -0.05    -0.278 OA
DOCKED: BRANCH  14  15
DOCKED: ATOM     15  P   UNL d   1     -18.689   6.211   6.154 -0.07 +0.11    +0.473 P 
DOCKED: ATOM     16  O   UNL d   1     -19.852   5.558   6.834 -0.02 -0.05    -0.228 OA
DOCKED: BRANCH  15  17
DOCKED: ATOM     17  O   UNL d   1     -17.611   5.161   5.632 -0.17 -0.12    -0.303 OA
DOCKED: ATOM     18  H   UNL d   1     -18.041   4.352   5.297 +0.06 +0.14    +0.222 HD
DOCKED: ENDBRANCH  15  17
DOCKED: BRANCH  15  19
DOCKED: ATOM     19  O   UNL d   1     -17.798   7.154   7.075 -0.06 -0.04    -0.303 OA
DOCKED: ATOM     20  H   UNL d   1     -17.323   7.824   6.550 +0.03 +0.03    +0.222 HD
DOCKED: ENDBRANCH  15  19
DOCKED: ENDBRANCH  14  15
DOCKED: ENDBRANCH   2  14
DOCKED: BRANCH   6  21
DOCKED: ATOM     21  O   UNL d   1     -21.007   7.068   1.058 -0.05 -0.04    -0.278 OA
DOCKED: BRANCH  21  22
DOCKED: ATOM     22  P   UNL d   1     -22.236   6.069   1.246 -0.02 +0.09    +0.473 P 
DOCKED: ATOM     23  O   UNL d   1     -22.097   4.676   0.732 -0.07 -0.06    -0.228 OA
DOCKED: BRANCH  22  24
DOCKED: ATOM     24  O   UNL d   1     -22.509   6.180   2.810 -0.01 -0.06    -0.303 OA
DOCKED: ATOM     25  H   UNL d   1     -21.972   6.934   3.165 +0.02 +0.04    +0.222 HD
DOCKED: ENDBRANCH  22  24
DOCKED: BRANCH  22  26
DOCKED: ATOM     26  O   UNL d   1     -23.447   6.926   0.638 -0.01 -0.04    -0.303 OA
DOCKED: ATOM     27  H   UNL d   1     -23.192   7.870   0.611 +0.01 +0.02    +0.222 HD
DOCKED: ENDBRANCH  22  26
DOCKED: ENDBRANCH  21  22
DOCKED: ENDBRANCH   6  21
DOCKED: BRANCH   3  28
DOCKED: ATOM     28  O   UNL d   1     -16.801   8.463   4.334 -0.12 -0.01    -0.278 OA
DOCKED: BRANCH  28  29
DOCKED: ATOM     29  P   UNL d   1     -17.388   9.662   5.201 -0.04 +0.03    +0.473 P 
DOCKED: ATOM     30  O   UNL d   1     -18.861   9.654   5.391 -0.02 -0.02    -0.228 OA
DOCKED: BRANCH  29  31
DOCKED: ATOM     31  O   UNL d   1     -16.485   9.525   6.515 -0.04 -0.02    -0.303 OA
DOCKED: ATOM     32  H   UNL d   1     -17.039   9.151   7.239 +0.02 +0.02    +0.222 HD
DOCKED: ENDBRANCH  29  31
DOCKED: BRANCH  29  33
DOCKED: ATOM     33  O   UNL d   1     -16.763  10.935   4.477 -0.02 -0.01    -0.303 OA
DOCKED: ATOM     34  H   UNL d   1     -16.625  10.725   3.521 +0.04 +0.01    +0.222 HD
DOCKED: ENDBRANCH  29  33
DOCKED: ENDBRANCH  28  29
DOCKED: ENDBRANCH   3  28
DOCKED: BRANCH   5  35
DOCKED: ATOM     35  O   UNL d   1     -20.413   9.836   1.777 -0.01 -0.02    -0.278 OA
DOCKED: BRANCH  35  36
DOCKED: ATOM     36  P   UNL d   1     -21.609   9.874   2.832 -0.00 +0.04    +0.473 P 
DOCKED: ATOM     37  O   UNL d   1     -22.099  11.237   3.203 +0.00 -0.01    -0.228 OA
DOCKED: BRANCH  36  38
DOCKED: ATOM     38  O   UNL d   1     -22.700   8.956   2.122 -0.00 -0.03    -0.303 OA
DOCKED: ATOM     39  H   UNL d   1     -22.516   8.016   2.335 +0.01 +0.02    +0.222 HD
DOCKED: ENDBRANCH  36  38
DOCKED: BRANCH  36  40
DOCKED: ATOM     40  O   UNL d   1     -21.050   8.962   4.010 -0.00 -0.03    -0.303 OA
DOCKED: ATOM     41  H   UNL d   1     -20.088   9.100   4.152 +0.02 +0.02    +0.222 HD
DOCKED: ENDBRANCH  36  40
DOCKED: ENDBRANCH  35  36
DOCKED: ENDBRANCH   5  35
DOCKED: BRANCH   4  42
DOCKED: ATOM     42  O   UNL d   1     -17.520  10.052   2.044 -0.05 -0.00    -0.278 OA
DOCKED: BRANCH  42  43
DOCKED: ATOM     43  P   UNL d   1     -16.225   9.476   1.311 -0.17 -0.03    +0.473 P 
DOCKED: ATOM     44  O   UNL d   1     -16.370   8.193   0.568 -0.29 +0.05    -0.228 OA
DOCKED: BRANCH  43  45
DOCKED: ATOM     45  O   UNL d   1     -15.761  10.702   0.408 -0.09 +0.01    -0.303 OA
DOCKED: ATOM     46  H   UNL d   1     -15.276  10.398  -0.385 +0.04 -0.01    +0.222 HD
DOCKED: ENDBRANCH  43  45
DOCKED: BRANCH  43  47
DOCKED: ATOM     47  O   UNL d   1     -15.115   9.485   2.467 -0.22 +0.01    -0.303 OA
DOCKED: ATOM     48  H   UNL d   1     -15.559   9.489   3.340 +0.05 +0.00    +0.222 HD
DOCKED: ENDBRANCH  43  47
DOCKED: ENDBRANCH  42  43
DOCKED: ENDBRANCH   4  42
DOCKED: TORSDOF 24
DOCKED: TER
DOCKED: ENDMDL
________________________________________________________________________________


	BEGINNING GENETIC ALGORITHM DOCKING 33 of 100
Run: 33 Seed: 146357866 417178521 [ Run 33 of 100 GA/GALS ]
Beginning LAMARCKIAN GENETIC ALGORITHM (LGA), with a maximum of 25000000 energy evaluations.

Final-Value: -18.606


	FINAL GENETIC ALGORITHM DOCKED STATE
	_______________________________________________


Detailed state:  trans -2.608 13.901 9.010 quatxyzw -0.285792 0.180251 0.783302 -0.521796 center 0.035 0.082 -0.065 ntor 24 160.9127 100.4324 57.7203 5.1669 -82.6506 83.5017 -92.4757 -20.2255 152.5591 -1.6544 139.0481 169.6659 129.8390 159.4778 -113.6223 0.6803 113.0976 -144.6420 9.6901 -27.0121 149.9004 -34.5784 -40.3228 163.6485
State:	 -2.608  13.901   9.010  -0.335  0.211  0.918 -117.094    160.91  100.43   57.72    5.17  -82.65   83.50  -92.48  -20.23  152.56   -1.65  139.05  169.67  129.84  159.48 -113.62    0.68  113.10 -144.64    9.69  -27.01  149.90  -34.58  -40.32  163.65

DOCKED: MODEL       33
DOCKED: USER    Run = 33
DOCKED: USER    DPF = D:/Protein_go_brrr/autodock/final/AncA/IHP/dock.dpf
DOCKED: USER  
DOCKED: USER    Estimated Free Energy of Binding    =   +3.30 kcal/mol  [=(1)+(2)+(3)-(4)]
DOCKED: USER    
DOCKED: USER    (1) Final Intermolecular Energy     =   -3.86 kcal/mol
DOCKED: USER        vdW + Hbond + desolv Energy     =   -3.71 kcal/mol
DOCKED: USER        Electrostatic Energy            =   -0.15 kcal/mol
DOCKED: USER    (2) Final Total Internal Energy     =  -14.75 kcal/mol
DOCKED: USER    (3) Torsional Free Energy           =   +7.16 kcal/mol
DOCKED: USER    (4) Unbound System's Energy  [=(2)] =  -14.75 kcal/mol
DOCKED: USER    
DOCKED: USER    
DOCKED: USER    NEWDPF move IHP_ideal_opt.pdbqt
DOCKED: USER    NEWDPF about 0.035000 0.082000 -0.065000
DOCKED: USER    NEWDPF tran0 -2.608055 13.900536 9.010341
DOCKED: USER    NEWDPF quaternion0 -0.285792 0.180251 0.783302 -0.521796
DOCKED: USER    NEWDPF axisangle0 -0.335015 0.211297 0.918215 -117.094384
DOCKED: USER    NEWDPF quat0 -0.335015 0.211297 0.918215 -117.094384
DOCKED: USER    NEWDPF dihe0 160.91 100.43 57.72 5.17 -82.65 83.50 -92.48 -20.23 152.56 -1.65 139.05 169.67 129.84 159.48 -113.62 0.68 113.10 -144.64 9.69 -27.01 149.90 -34.58 -40.32 163.65 
DOCKED: USER  keepresnum = 1 
DOCKED: USER  
DOCKED: REMARK  24 active torsions:
DOCKED: REMARK  status: ('A' for Active; 'I' for Inactive)
DOCKED: REMARK    1  A    between atoms: C_1  and  O_7 
DOCKED: REMARK    2  A    between atoms: C_2  and  O_12 
DOCKED: REMARK    3  A    between atoms: C_3  and  O_17 
DOCKED: REMARK    4  A    between atoms: C_4  and  O_22 
DOCKED: REMARK    5  A    between atoms: C_5  and  O_27 
DOCKED: REMARK    6  A    between atoms: C_6  and  O_32 
DOCKED: REMARK    7  A    between atoms: O_7  and  P_8 
DOCKED: REMARK    8  A    between atoms: P_8  and  O_10 
DOCKED: REMARK    9  A    between atoms: P_8  and  O_11 
DOCKED: REMARK   10  A    between atoms: O_12  and  P_13 
DOCKED: REMARK   11  A    between atoms: P_13  and  O_15 
DOCKED: REMARK   12  A    between atoms: P_13  and  O_16 
DOCKED: REMARK   13  A    between atoms: O_17  and  P_18 
DOCKED: REMARK   14  A    between atoms: P_18  and  O_20 
DOCKED: REMARK   15  A    between atoms: P_18  and  O_21 
DOCKED: REMARK   16  A    between atoms: O_22  and  P_23 
DOCKED: REMARK   17  A    between atoms: P_23  and  O_25 
DOCKED: REMARK   18  A    between atoms: P_23  and  O_26 
DOCKED: REMARK   19  A    between atoms: O_27  and  P_28 
DOCKED: REMARK   20  A    between atoms: P_28  and  O_30 
DOCKED: REMARK   21  A    between atoms: P_28  and  O_31 
DOCKED: REMARK   22  A    between atoms: O_32  and  P_33 
DOCKED: REMARK   23  A    between atoms: P_33  and  O_35 
DOCKED: REMARK   24  A    between atoms: P_33  and  O_36 
DOCKED: USER                              x       y       z     vdW  Elec       q    Type
DOCKED: USER                           _______ _______ _______ _____ _____    ______ ____
DOCKED: ROOT
DOCKED: ATOM      1  C   UNL d   1      -2.362  15.602   8.838 -0.03 +0.00    +0.194 C 
DOCKED: ATOM      2  C   UNL d   1      -1.162  14.810   9.360 -0.09 -0.00    +0.194 C 
DOCKED: ATOM      3  C   UNL d   1      -1.577  13.775  10.408 -0.15 -0.00    +0.194 C 
DOCKED: ATOM      4  C   UNL d   1      -2.710  12.865   9.938 +0.11 +0.01    +0.194 C 
DOCKED: ATOM      5  C   UNL d   1      -3.880  13.606   9.305 -0.08 +0.02    +0.194 C 
DOCKED: ATOM      6  C   UNL d   1      -3.462  14.684   8.302 -0.05 +0.01    +0.194 C 
DOCKED: ENDROOT
DOCKED: BRANCH   1   7
DOCKED: ATOM      7  O   UNL d   1      -1.920  16.417   7.750 -0.01 -0.00    -0.278 OA
DOCKED: BRANCH   7   8
DOCKED: ATOM      8  P   UNL d   1      -1.919  18.003   7.941 -0.00 +0.00    +0.473 P 
DOCKED: ATOM      9  O   UNL d   1      -1.478  18.782   6.752 -0.00 -0.00    -0.228 OA
DOCKED: BRANCH   8  10
DOCKED: ATOM     10  O   UNL d   1      -3.412  18.338   8.393 -0.00 -0.01    -0.303 OA
DOCKED: ATOM     11  H   UNL d   1      -3.920  17.511   8.485 +0.00 +0.01    +0.222 HD
DOCKED: ENDBRANCH   8  10
DOCKED: BRANCH   8  12
DOCKED: ATOM     12  O   UNL d   1      -1.102  18.257   9.280 -0.00 -0.00    -0.303 OA
DOCKED: ATOM     13  H   UNL d   1      -0.203  17.858   9.264 +0.01 -0.00    +0.222 HD
DOCKED: ENDBRANCH   8  12
DOCKED: ENDBRANCH   7   8
DOCKED: ENDBRANCH   1   7
DOCKED: BRANCH   2  14
DOCKED: ATOM     14  O   UNL d   1      -0.542  14.126   8.264 -0.16 +0.01    -0.278 OA
DOCKED: BRANCH  14  15
DOCKED: ATOM     15  P   UNL d   1       0.832  14.742   7.720 -0.11 -0.04    +0.473 P 
DOCKED: ATOM     16  O   UNL d   1       1.078  14.642   6.247 -0.15 +0.01    -0.228 OA
DOCKED: BRANCH  15  17
DOCKED: ATOM     17  O   UNL d   1       0.815  16.247   8.242 -0.02 +0.01    -0.303 OA
DOCKED: ATOM     18  H   UNL d   1      -0.084  16.625   8.195 +0.03 -0.00    +0.222 HD
DOCKED: ENDBRANCH  15  17
DOCKED: BRANCH  15  19
DOCKED: ATOM     19  O   UNL d   1       1.952  14.096   8.647 -0.20 +0.05    -0.303 OA
DOCKED: ATOM     20  H   UNL d   1       1.769  14.248   9.593 +0.05 -0.03    +0.222 HD
DOCKED: ENDBRANCH  15  19
DOCKED: ENDBRANCH  14  15
DOCKED: ENDBRANCH   2  14
DOCKED: BRANCH   6  21
DOCKED: ATOM     21  O   UNL d   1      -4.609  15.497   8.069 -0.01 -0.02    -0.278 OA
DOCKED: BRANCH  21  22
DOCKED: ATOM     22  P   UNL d   1      -5.464  16.034   9.304 +0.00 +0.03    +0.473 P 
DOCKED: ATOM     23  O   UNL d   1      -6.497  15.131   9.891 -0.00 -0.02    -0.228 OA
DOCKED: BRANCH  22  24
DOCKED: ATOM     24  O   UNL d   1      -4.324  16.490  10.316 -0.00 -0.01    -0.303 OA
DOCKED: ATOM     25  H   UNL d   1      -4.660  16.359  11.239 +0.00 +0.01    +0.222 HD
DOCKED: ENDBRANCH  22  24
DOCKED: BRANCH  22  26
DOCKED: ATOM     26  O   UNL d   1      -5.994  17.440   8.747 -0.00 -0.01    -0.303 OA
DOCKED: ATOM     27  H   UNL d   1      -5.354  18.142   8.982 +0.00 +0.01    +0.222 HD
DOCKED: ENDBRANCH  22  26
DOCKED: ENDBRANCH  21  22
DOCKED: ENDBRANCH   6  21
DOCKED: BRANCH   3  28
DOCKED: ATOM     28  O   UNL d   1      -0.466  12.915  10.624 -0.24 +0.02    -0.278 OA
DOCKED: BRANCH  28  29
DOCKED: ATOM     29  P   UNL d   1       0.774  13.406  11.494 -0.15 -0.06    +0.473 P 
DOCKED: ATOM     30  O   UNL d   1       0.979  14.876  11.545 -0.06 +0.01    -0.228 OA
DOCKED: BRANCH  29  31
DOCKED: ATOM     31  O   UNL d   1       0.454  12.669  12.878 -0.11 +0.05    -0.303 OA
DOCKED: ATOM     32  H   UNL d   1      -0.514  12.731  13.050 +0.04 -0.02    +0.222 HD
DOCKED: ENDBRANCH  29  31
DOCKED: BRANCH  29  33
DOCKED: ATOM     33  O   UNL d   1       1.966  12.534  10.898 -0.31 +0.09    -0.303 OA
DOCKED: ATOM     34  H   UNL d   1       1.853  12.463   9.919 -0.48 -0.11    +0.222 HD
DOCKED: ENDBRANCH  29  33
DOCKED: ENDBRANCH  28  29
DOCKED: ENDBRANCH   3  28
DOCKED: BRANCH   5  35
DOCKED: ATOM     35  O   UNL d   1      -4.616  12.622   8.581 -0.08 -0.06    -0.278 OA
DOCKED: BRANCH  35  36
DOCKED: ATOM     36  P   UNL d   1      -5.799  11.820   9.289 -0.09 +0.20    +0.473 P 
DOCKED: ATOM     37  O   UNL d   1      -6.818  11.228   8.369 -0.71 -0.18    -0.228 OA
DOCKED: BRANCH  36  38
DOCKED: ATOM     38  O   UNL d   1      -4.996  10.749  10.152 -0.53 -0.15    -0.303 OA
DOCKED: ATOM     39  H   UNL d   1      -4.705  11.166  10.992 +0.05 +0.05    +0.222 HD
DOCKED: ENDBRANCH  36  38
DOCKED: BRANCH  36  40
DOCKED: ATOM     40  O   UNL d   1      -6.321  12.866  10.368 -0.02 -0.05    -0.303 OA
DOCKED: ATOM     41  H   UNL d   1      -5.578  13.315  10.830 +0.02 +0.03    +0.222 HD
DOCKED: ENDBRANCH  36  40
DOCKED: ENDBRANCH  35  36
DOCKED: ENDBRANCH   5  35
DOCKED: BRANCH   4  42
DOCKED: ATOM     42  O   UNL d   1      -3.213  12.197  11.100 -0.11 -0.02    -0.278 OA
DOCKED: BRANCH  42  43
DOCKED: ATOM     43  P   UNL d   1      -3.643  13.068  12.365 -0.04 +0.02    +0.473 P 
DOCKED: ATOM     44  O   UNL d   1      -2.667  13.182  13.484 -0.03 +0.00    -0.228 OA
DOCKED: BRANCH  43  45
DOCKED: ATOM     45  O   UNL d   1      -4.047  14.460  11.709 -0.01 -0.01    -0.303 OA
DOCKED: ATOM     46  H   UNL d   1      -4.840  14.372  11.143 +0.02 +0.01    +0.222 HD
DOCKED: ENDBRANCH  43  45
DOCKED: BRANCH  43  47
DOCKED: ATOM     47  O   UNL d   1      -5.076  12.464  12.756 -0.02 -0.02    -0.303 OA
DOCKED: ATOM     48  H   UNL d   1      -5.384  11.873  12.037 +0.03 +0.03    +0.222 HD
DOCKED: ENDBRANCH  43  47
DOCKED: ENDBRANCH  42  43
DOCKED: ENDBRANCH   4  42
DOCKED: TORSDOF 24
DOCKED: TER
DOCKED: ENDMDL
________________________________________________________________________________


	BEGINNING GENETIC ALGORITHM DOCKING 34 of 100
Run: 34 Seed: 2070010143 627540926 [ Run 34 of 100 GA/GALS ]
Beginning LAMARCKIAN GENETIC ALGORITHM (LGA), with a maximum of 25000000 energy evaluations.

Final-Value: -17.890


	FINAL GENETIC ALGORITHM DOCKED STATE
	_______________________________________________


Detailed state:  trans -16.225 9.682 1.838 quatxyzw -0.041640 0.707116 -0.662721 -0.243010 center 0.035 0.082 -0.065 ntor 24 -104.5807 7.3157 70.7162 37.4392 -5.0155 -34.3256 -95.8043 9.6797 30.0177 84.9724 24.0008 150.9904 -134.8475 136.7723 -71.9665 168.2760 -45.0118 -159.4071 29.0102 -9.5828 5.3717 18.8231 175.0021 -7.8426
State:	-16.225   9.682   1.838  -0.043  0.729 -0.683 -151.871   -104.58    7.32   70.72   37.44   -5.02  -34.33  -95.80    9.68   30.02   84.97   24.00  150.99 -134.85  136.77  -71.97  168.28  -45.01 -159.41   29.01   -9.58    5.37   18.82  175.00   -7.84

DOCKED: MODEL       34
DOCKED: USER    Run = 34
DOCKED: USER    DPF = D:/Protein_go_brrr/autodock/final/AncA/IHP/dock.dpf
DOCKED: USER  
DOCKED: USER    Estimated Free Energy of Binding    =   +3.61 kcal/mol  [=(1)+(2)+(3)-(4)]
DOCKED: USER    
DOCKED: USER    (1) Final Intermolecular Energy     =   -3.55 kcal/mol
DOCKED: USER        vdW + Hbond + desolv Energy     =   -3.43 kcal/mol
DOCKED: USER        Electrostatic Energy            =   -0.12 kcal/mol
DOCKED: USER    (2) Final Total Internal Energy     =  -14.34 kcal/mol
DOCKED: USER    (3) Torsional Free Energy           =   +7.16 kcal/mol
DOCKED: USER    (4) Unbound System's Energy  [=(2)] =  -14.34 kcal/mol
DOCKED: USER    
DOCKED: USER    
DOCKED: USER    NEWDPF move IHP_ideal_opt.pdbqt
DOCKED: USER    NEWDPF about 0.035000 0.082000 -0.065000
DOCKED: USER    NEWDPF tran0 -16.224947 9.682168 1.838395
DOCKED: USER    NEWDPF quaternion0 -0.041640 0.707116 -0.662721 -0.243010
DOCKED: USER    NEWDPF axisangle0 -0.042927 0.728968 -0.683201 -151.871467
DOCKED: USER    NEWDPF quat0 -0.042927 0.728968 -0.683201 -151.871467
DOCKED: USER    NEWDPF dihe0 -104.58 7.32 70.72 37.44 -5.02 -34.33 -95.80 9.68 30.02 84.97 24.00 150.99 -134.85 136.77 -71.97 168.28 -45.01 -159.41 29.01 -9.58 5.37 18.82 175.00 -7.84 
DOCKED: USER  keepresnum = 1 
DOCKED: USER  
DOCKED: REMARK  24 active torsions:
DOCKED: REMARK  status: ('A' for Active; 'I' for Inactive)
DOCKED: REMARK    1  A    between atoms: C_1  and  O_7 
DOCKED: REMARK    2  A    between atoms: C_2  and  O_12 
DOCKED: REMARK    3  A    between atoms: C_3  and  O_17 
DOCKED: REMARK    4  A    between atoms: C_4  and  O_22 
DOCKED: REMARK    5  A    between atoms: C_5  and  O_27 
DOCKED: REMARK    6  A    between atoms: C_6  and  O_32 
DOCKED: REMARK    7  A    between atoms: O_7  and  P_8 
DOCKED: REMARK    8  A    between atoms: P_8  and  O_10 
DOCKED: REMARK    9  A    between atoms: P_8  and  O_11 
DOCKED: REMARK   10  A    between atoms: O_12  and  P_13 
DOCKED: REMARK   11  A    between atoms: P_13  and  O_15 
DOCKED: REMARK   12  A    between atoms: P_13  and  O_16 
DOCKED: REMARK   13  A    between atoms: O_17  and  P_18 
DOCKED: REMARK   14  A    between atoms: P_18  and  O_20 
DOCKED: REMARK   15  A    between atoms: P_18  and  O_21 
DOCKED: REMARK   16  A    between atoms: O_22  and  P_23 
DOCKED: REMARK   17  A    between atoms: P_23  and  O_25 
DOCKED: REMARK   18  A    between atoms: P_23  and  O_26 
DOCKED: REMARK   19  A    between atoms: O_27  and  P_28 
DOCKED: REMARK   20  A    between atoms: P_28  and  O_30 
DOCKED: REMARK   21  A    between atoms: P_28  and  O_31 
DOCKED: REMARK   22  A    between atoms: O_32  and  P_33 
DOCKED: REMARK   23  A    between atoms: P_33  and  O_35 
DOCKED: REMARK   24  A    between atoms: P_33  and  O_36 
DOCKED: USER                              x       y       z     vdW  Elec       q    Type
DOCKED: USER                           _______ _______ _______ _____ _____    ______ ____
DOCKED: ROOT
DOCKED: ATOM      1  C   UNL d   1     -17.244   8.375   2.324 -0.14 -0.02    +0.194 C 
DOCKED: ATOM      2  C   UNL d   1     -16.506   9.093   3.456 -0.17 -0.00    +0.194 C 
DOCKED: ATOM      3  C   UNL d   1     -15.050   9.384   3.088 -0.24 -0.00    +0.194 C 
DOCKED: ATOM      4  C   UNL d   1     -14.900  10.105   1.750 -0.22 -0.00    +0.194 C 
DOCKED: ATOM      5  C   UNL d   1     -15.711   9.489   0.618 -0.21 -0.02    +0.194 C 
DOCKED: ATOM      6  C   UNL d   1     -17.150   9.141   1.005 -0.20 -0.01    +0.194 C 
DOCKED: ENDROOT
DOCKED: BRANCH   1   7
DOCKED: ATOM      7  O   UNL d   1     -18.628   8.296   2.674 -0.09 -0.01    -0.278 OA
DOCKED: BRANCH   7   8
DOCKED: ATOM      8  P   UNL d   1     -19.149   6.982   3.417 -0.09 +0.07    +0.473 P 
DOCKED: ATOM      9  O   UNL d   1     -19.475   5.838   2.523 -0.16 -0.06    -0.228 OA
DOCKED: BRANCH   8  10
DOCKED: ATOM     10  O   UNL d   1     -17.996   6.649   4.468 -0.17 -0.05    -0.303 OA
DOCKED: ATOM     11  H   UNL d   1     -18.241   7.002   5.344 +0.04 +0.04    +0.222 HD
DOCKED: ENDBRANCH   8  10
DOCKED: BRANCH   8  12
DOCKED: ATOM     12  O   UNL d   1     -20.326   7.481   4.361 -0.02 -0.04    -0.303 OA
DOCKED: ATOM     13  H   UNL d   1     -20.147   8.358   4.770 +0.02 +0.02    +0.222 HD
DOCKED: ENDBRANCH   8  12
DOCKED: ENDBRANCH   7   8
DOCKED: ENDBRANCH   1   7
DOCKED: BRANCH   2  14
DOCKED: ATOM     14  O   UNL d   1     -17.165  10.337   3.726 -0.04 -0.01    -0.278 OA
DOCKED: BRANCH  14  15
DOCKED: ATOM     15  P   UNL d   1     -17.697  10.554   5.221 -0.01 +0.03    +0.473 P 
DOCKED: ATOM     16  O   UNL d   1     -18.624  11.708   5.443 -0.00 -0.01    -0.228 OA
DOCKED: BRANCH  15  17
DOCKED: ATOM     17  O   UNL d   1     -18.351   9.153   5.607 -0.03 -0.03    -0.303 OA
DOCKED: ATOM     18  H   UNL d   1     -18.637   8.667   4.810 +0.03 +0.02    +0.222 HD
DOCKED: ENDBRANCH  15  17
DOCKED: BRANCH  15  19
DOCKED: ATOM     19  O   UNL d   1     -16.382  10.550   6.115 -0.02 -0.02    -0.303 OA
DOCKED: ATOM     20  H   UNL d   1     -15.645  10.091   5.670 +0.03 +0.01    +0.222 HD
DOCKED: ENDBRANCH  15  19
DOCKED: ENDBRANCH  14  15
DOCKED: ENDBRANCH   2  14
DOCKED: BRANCH   6  21
DOCKED: ATOM     21  O   UNL d   1     -17.655   8.282  -0.015 -0.20 +0.01    -0.278 OA
DOCKED: BRANCH  21  22
DOCKED: ATOM     22  P   UNL d   1     -18.534   8.890  -1.199 -0.07 +0.01    +0.473 P 
DOCKED: ATOM     23  O   UNL d   1     -19.559   9.920  -0.859 -0.02 -0.01    -0.228 OA
DOCKED: BRANCH  22  24
DOCKED: ATOM     24  O   UNL d   1     -17.414   9.375  -2.221 -0.08 +0.01    -0.303 OA
DOCKED: ATOM     25  H   UNL d   1     -16.964  10.167  -1.831 +0.05 -0.01    +0.222 HD
DOCKED: ENDBRANCH  22  24
DOCKED: BRANCH  22  26
DOCKED: ATOM     26  O   UNL d   1     -19.082   7.563  -1.913 -0.11 -0.02    -0.303 OA
DOCKED: ATOM     27  H   UNL d   1     -19.944   7.756  -2.334 +0.04 +0.02    +0.222 HD
DOCKED: ENDBRANCH  22  26
DOCKED: ENDBRANCH  21  22
DOCKED: ENDBRANCH   6  21
DOCKED: BRANCH   3  28
DOCKED: ATOM     28  O   UNL d   1     -14.533  10.282   4.061 -0.09 -0.01    -0.278 OA
DOCKED: BRANCH  28  29
DOCKED: ATOM     29  P   UNL d   1     -13.155   9.967   4.795 -0.10 +0.02    +0.473 P 
DOCKED: ATOM     30  O   UNL d   1     -12.286  11.143   5.059 -0.03 -0.02    -0.228 OA
DOCKED: BRANCH  29  31
DOCKED: ATOM     31  O   UNL d   1     -13.695   9.163   6.069 -0.06 -0.03    -0.303 OA
DOCKED: ATOM     32  H   UNL d   1     -14.479   9.638   6.431 +0.03 +0.02    +0.222 HD
DOCKED: ENDBRANCH  29  31
DOCKED: BRANCH  29  33
DOCKED: ATOM     33  O   UNL d   1     -12.547   8.813   3.883 -0.19 +0.04    -0.303 OA
DOCKED: ATOM     34  H   UNL d   1     -12.297   9.195   3.006 -0.52 -0.06    +0.222 HD
DOCKED: ENDBRANCH  29  33
DOCKED: ENDBRANCH  28  29
DOCKED: ENDBRANCH   3  28
DOCKED: BRANCH   5  35
DOCKED: ATOM     35  O   UNL d   1     -15.778  10.487  -0.398 -0.11 +0.01    -0.278 OA
DOCKED: BRANCH  35  36
DOCKED: ATOM     36  P   UNL d   1     -16.325  11.946  -0.057 -0.01 +0.00    +0.473 P 
DOCKED: ATOM     37  O   UNL d   1     -16.756  12.159   1.359 -0.01 -0.01    -0.228 OA
DOCKED: BRANCH  36  38
DOCKED: ATOM     38  O   UNL d   1     -15.108  12.866  -0.516 -0.01 -0.00    -0.303 OA
DOCKED: ATOM     39  H   UNL d   1     -14.265  12.434  -0.259 +0.03 +0.00    +0.222 HD
DOCKED: ENDBRANCH  36  38
DOCKED: BRANCH  36  40
DOCKED: ATOM     40  O   UNL d   1     -17.422  12.171  -1.187 -0.01 -0.01    -0.303 OA
DOCKED: ATOM     41  H   UNL d   1     -17.976  11.370  -1.321 +0.02 +0.00    +0.222 HD
DOCKED: ENDBRANCH  36  40
DOCKED: ENDBRANCH  35  36
DOCKED: ENDBRANCH   5  35
DOCKED: BRANCH   4  42
DOCKED: ATOM     42  O   UNL d   1     -13.520  10.010   1.381 -0.16 -0.01    -0.278 OA
DOCKED: BRANCH  42  43
DOCKED: ATOM     43  P   UNL d   1     -12.674  11.351   1.206 -0.03 +0.01    +0.473 P 
DOCKED: ATOM     44  O   UNL d   1     -12.191  11.685  -0.164 -0.09 -0.00    -0.228 OA
DOCKED: BRANCH  43  45
DOCKED: ATOM     45  O   UNL d   1     -13.628  12.452   1.846 -0.02 -0.01    -0.303 OA
DOCKED: ATOM     46  H   UNL d   1     -14.540  12.382   1.497 +0.03 +0.01    +0.222 HD
DOCKED: ENDBRANCH  43  45
DOCKED: BRANCH  43  47
DOCKED: ATOM     47  O   UNL d   1     -11.536  11.215   2.326 -0.09 -0.01    -0.303 OA
DOCKED: ATOM     48  H   UNL d   1     -11.885  10.694   3.079 +0.04 +0.00    +0.222 HD
DOCKED: ENDBRANCH  43  47
DOCKED: ENDBRANCH  42  43
DOCKED: ENDBRANCH   4  42
DOCKED: TORSDOF 24
DOCKED: TER
DOCKED: ENDMDL
________________________________________________________________________________


	BEGINNING GENETIC ALGORITHM DOCKING 35 of 100
Run: 35 Seed: 1001579113 114140160 [ Run 35 of 100 GA/GALS ]
Beginning LAMARCKIAN GENETIC ALGORITHM (LGA), with a maximum of 25000000 energy evaluations.

Final-Value: -17.293


	FINAL GENETIC ALGORITHM DOCKED STATE
	_______________________________________________


Detailed state:  trans -11.332 -18.837 -13.306 quatxyzw -0.821219 0.263258 -0.043629 -0.504372 center 0.035 0.082 -0.065 ntor 24 59.4290 156.4628 127.4165 129.9529 3.4039 -141.6551 -100.6501 14.5739 71.8048 -18.6621 58.4191 -126.6571 -53.1205 74.7861 -21.8696 -2.4678 45.0632 121.3402 -158.2507 17.9249 -11.2240 9.5774 -17.3479 -4.1335
State:	-11.332 -18.837 -13.306  -0.951  0.305 -0.051 -119.421     59.43  156.46  127.42  129.95    3.40 -141.66 -100.65   14.57   71.80  -18.66   58.42 -126.66  -53.12   74.79  -21.87   -2.47   45.06  121.34 -158.25   17.92  -11.22    9.58  -17.35   -4.13

DOCKED: MODEL       35
DOCKED: USER    Run = 35
DOCKED: USER    DPF = D:/Protein_go_brrr/autodock/final/AncA/IHP/dock.dpf
DOCKED: USER  
DOCKED: USER    Estimated Free Energy of Binding    =   +3.72 kcal/mol  [=(1)+(2)+(3)-(4)]
DOCKED: USER    
DOCKED: USER    (1) Final Intermolecular Energy     =   -3.44 kcal/mol
DOCKED: USER        vdW + Hbond + desolv Energy     =   -3.34 kcal/mol
DOCKED: USER        Electrostatic Energy            =   -0.10 kcal/mol
DOCKED: USER    (2) Final Total Internal Energy     =  -13.85 kcal/mol
DOCKED: USER    (3) Torsional Free Energy           =   +7.16 kcal/mol
DOCKED: USER    (4) Unbound System's Energy  [=(2)] =  -13.85 kcal/mol
DOCKED: USER    
DOCKED: USER    
DOCKED: USER    NEWDPF move IHP_ideal_opt.pdbqt
DOCKED: USER    NEWDPF about 0.035000 0.082000 -0.065000
DOCKED: USER    NEWDPF tran0 -11.332190 -18.836588 -13.306248
DOCKED: USER    NEWDPF quaternion0 -0.821219 0.263258 -0.043629 -0.504372
DOCKED: USER    NEWDPF axisangle0 -0.951050 0.304878 -0.050527 -119.420669
DOCKED: USER    NEWDPF quat0 -0.951050 0.304878 -0.050527 -119.420669
DOCKED: USER    NEWDPF dihe0 59.43 156.46 127.42 129.95 3.40 -141.66 -100.65 14.57 71.80 -18.66 58.42 -126.66 -53.12 74.79 -21.87 -2.47 45.06 121.34 -158.25 17.92 -11.22 9.58 -17.35 -4.13 
DOCKED: USER  keepresnum = 1 
DOCKED: USER  
DOCKED: REMARK  24 active torsions:
DOCKED: REMARK  status: ('A' for Active; 'I' for Inactive)
DOCKED: REMARK    1  A    between atoms: C_1  and  O_7 
DOCKED: REMARK    2  A    between atoms: C_2  and  O_12 
DOCKED: REMARK    3  A    between atoms: C_3  and  O_17 
DOCKED: REMARK    4  A    between atoms: C_4  and  O_22 
DOCKED: REMARK    5  A    between atoms: C_5  and  O_27 
DOCKED: REMARK    6  A    between atoms: C_6  and  O_32 
DOCKED: REMARK    7  A    between atoms: O_7  and  P_8 
DOCKED: REMARK    8  A    between atoms: P_8  and  O_10 
DOCKED: REMARK    9  A    between atoms: P_8  and  O_11 
DOCKED: REMARK   10  A    between atoms: O_12  and  P_13 
DOCKED: REMARK   11  A    between atoms: P_13  and  O_15 
DOCKED: REMARK   12  A    between atoms: P_13  and  O_16 
DOCKED: REMARK   13  A    between atoms: O_17  and  P_18 
DOCKED: REMARK   14  A    between atoms: P_18  and  O_20 
DOCKED: REMARK   15  A    between atoms: P_18  and  O_21 
DOCKED: REMARK   16  A    between atoms: O_22  and  P_23 
DOCKED: REMARK   17  A    between atoms: P_23  and  O_25 
DOCKED: REMARK   18  A    between atoms: P_23  and  O_26 
DOCKED: REMARK   19  A    between atoms: O_27  and  P_28 
DOCKED: REMARK   20  A    between atoms: P_28  and  O_30 
DOCKED: REMARK   21  A    between atoms: P_28  and  O_31 
DOCKED: REMARK   22  A    between atoms: O_32  and  P_33 
DOCKED: REMARK   23  A    between atoms: P_33  and  O_35 
DOCKED: REMARK   24  A    between atoms: P_33  and  O_36 
DOCKED: USER                              x       y       z     vdW  Elec       q    Type
DOCKED: USER                           _______ _______ _______ _____ _____    ______ ____
DOCKED: ROOT
DOCKED: ATOM      1  C   UNL d   1      -9.646 -18.483 -13.179 -0.18 +0.08    +0.194 C 
DOCKED: ATOM      2  C   UNL d   1     -10.528 -17.902 -12.072 -0.21 +0.08    +0.194 C 
DOCKED: ATOM      3  C   UNL d   1     -11.822 -17.308 -12.633 -0.21 +0.08    +0.194 C 
DOCKED: ATOM      4  C   UNL d   1     -12.587 -18.274 -13.534 -0.09 +0.09    +0.194 C 
DOCKED: ATOM      5  C   UNL d   1     -11.721 -18.964 -14.580 -0.05 +0.08    +0.194 C 
DOCKED: ATOM      6  C   UNL d   1     -10.399 -19.505 -14.032 -0.05 +0.07    +0.194 C 
DOCKED: ENDROOT
DOCKED: BRANCH   1   7
DOCKED: ATOM      7  O   UNL d   1      -8.551 -19.167 -12.564 -0.15 -0.17    -0.278 OA
DOCKED: BRANCH   7   8
DOCKED: ATOM      8  P   UNL d   1      -8.803 -20.631 -11.977 -0.07 +0.29    +0.473 P 
DOCKED: ATOM      9  O   UNL d   1     -10.199 -21.131 -12.107 -0.02 -0.09    -0.228 OA
DOCKED: BRANCH   8  10
DOCKED: ATOM     10  O   UNL d   1      -7.737 -21.541 -12.739 -0.04 -0.18    -0.303 OA
DOCKED: ATOM     11  H   UNL d   1      -8.169 -21.995 -13.486 +0.02 +0.09    +0.222 HD
DOCKED: ENDBRANCH   8  10
DOCKED: BRANCH   8  12
DOCKED: ATOM     12  O   UNL d   1      -8.215 -20.592 -10.502 -0.10 -0.31    -0.303 OA
DOCKED: ATOM     13  H   UNL d   1      -8.909 -20.650  -9.808 +0.02 +0.18    +0.222 HD
DOCKED: ENDBRANCH   8  12
DOCKED: ENDBRANCH   7   8
DOCKED: ENDBRANCH   1   7
DOCKED: BRANCH   2  14
DOCKED: ATOM     14  O   UNL d   1     -10.868 -18.945 -11.150 -0.10 -0.12    -0.278 OA
DOCKED: BRANCH  14  15
DOCKED: ATOM     15  P   UNL d   1     -11.097 -18.507  -9.627 -0.12 +0.19    +0.473 P 
DOCKED: ATOM     16  O   UNL d   1     -12.350 -18.993  -8.969 -0.04 -0.07    -0.228 OA
DOCKED: BRANCH  15  17
DOCKED: ATOM     17  O   UNL d   1      -9.778 -18.997  -8.880 -0.14 -0.19    -0.303 OA
DOCKED: ATOM     18  H   UNL d   1      -9.004 -18.962  -9.474 +0.04 +0.19    +0.222 HD
DOCKED: ENDBRANCH  15  17
DOCKED: BRANCH  15  19
DOCKED: ATOM     19  O   UNL d   1     -10.893 -16.929  -9.633 -0.05 -0.10    -0.303 OA
DOCKED: ATOM     20  H   UNL d   1     -11.623 -16.473 -10.092 -0.42 +0.03    +0.222 HD
DOCKED: ENDBRANCH  15  19
DOCKED: ENDBRANCH  14  15
DOCKED: ENDBRANCH   2  14
DOCKED: BRANCH   6  21
DOCKED: ATOM     21  O   UNL d   1      -9.575 -19.799 -15.158 -0.02 -0.10    -0.278 OA
DOCKED: BRANCH  21  22
DOCKED: ATOM     22  P   UNL d   1      -9.182 -21.311 -15.478 +0.01 +0.14    +0.473 P 
DOCKED: ATOM     23  O   UNL d   1      -9.846 -22.393 -14.694 -0.00 -0.06    -0.228 OA
DOCKED: BRANCH  22  24
DOCKED: ATOM     24  O   UNL d   1      -9.420 -21.384 -17.050 +0.00 -0.08    -0.303 OA
DOCKED: ATOM     25  H   UNL d   1     -10.382 -21.217 -17.224 +0.00 +0.06    +0.222 HD
DOCKED: ENDBRANCH  22  24
DOCKED: BRANCH  22  26
DOCKED: ATOM     26  O   UNL d   1      -7.582 -21.258 -15.388 -0.00 -0.10    -0.303 OA
DOCKED: ATOM     27  H   UNL d   1      -7.322 -20.742 -14.597 +0.03 +0.09    +0.222 HD
DOCKED: ENDBRANCH  22  26
DOCKED: ENDBRANCH  21  22
DOCKED: ENDBRANCH   6  21
DOCKED: BRANCH   3  28
DOCKED: ATOM     28  O   UNL d   1     -12.687 -17.052 -11.534 -0.14 -0.10    -0.278 OA
DOCKED: BRANCH  28  29
DOCKED: ATOM     29  P   UNL d   1     -13.200 -15.572 -11.242 -0.14 +0.17    +0.473 P 
DOCKED: ATOM     30  O   UNL d   1     -12.292 -14.481 -11.679 -0.26 -0.09    -0.228 OA
DOCKED: BRANCH  29  31
DOCKED: ATOM     31  O   UNL d   1     -14.643 -15.636 -11.932 -0.14 -0.19    -0.303 OA
DOCKED: ATOM     32  H   UNL d   1     -14.542 -16.013 -12.836 +0.03 +0.20    +0.222 HD
DOCKED: ENDBRANCH  29  31
DOCKED: BRANCH  29  33
DOCKED: ATOM     33  O   UNL d   1     -13.549 -15.640  -9.690 -0.12 -0.04    -0.303 OA
DOCKED: ATOM     34  H   UNL d   1     -12.708 -15.655  -9.172 -0.47 -0.02    +0.222 HD
DOCKED: ENDBRANCH  29  33
DOCKED: ENDBRANCH  28  29
DOCKED: ENDBRANCH   3  28
DOCKED: BRANCH   5  35
DOCKED: ATOM     35  O   UNL d   1     -12.479 -20.085 -15.031 -0.00 -0.09    -0.278 OA
DOCKED: BRANCH  35  36
DOCKED: ATOM     36  P   UNL d   1     -13.026 -20.138 -16.528 +0.01 +0.15    +0.473 P 
DOCKED: ATOM     37  O   UNL d   1     -12.104 -20.757 -17.530 +0.00 -0.06    -0.228 OA
DOCKED: BRANCH  36  38
DOCKED: ATOM     38  O   UNL d   1     -14.407 -20.910 -16.344 +0.00 -0.08    -0.303 OA
DOCKED: ATOM     39  H   UNL d   1     -14.541 -21.104 -15.392 +0.01 +0.06    +0.222 HD
DOCKED: ENDBRANCH  36  38
DOCKED: BRANCH  36  40
DOCKED: ATOM     40  O   UNL d   1     -13.462 -18.630 -16.784 -0.02 -0.15    -0.303 OA
DOCKED: ATOM     41  H   UNL d   1     -14.157 -18.340 -16.152 +0.01 +0.14    +0.222 HD
DOCKED: ENDBRANCH  36  40
DOCKED: ENDBRANCH  35  36
DOCKED: ENDBRANCH   5  35
DOCKED: BRANCH   4  42
DOCKED: ATOM     42  O   UNL d   1     -13.563 -17.499 -14.239 -0.07 -0.22    -0.278 OA
DOCKED: BRANCH  42  43
DOCKED: ATOM     43  P   UNL d   1     -15.110 -17.778 -13.971 -0.05 +0.28    +0.473 P 
DOCKED: ATOM     44  O   UNL d   1     -16.087 -16.776 -14.482 -0.09 -0.18    -0.228 OA
DOCKED: BRANCH  43  45
DOCKED: ATOM     45  O   UNL d   1     -15.309 -19.242 -14.562 -0.00 -0.11    -0.303 OA
DOCKED: ATOM     46  H   UNL d   1     -14.554 -19.506 -15.125 +0.01 +0.08    +0.222 HD
DOCKED: ENDBRANCH  43  45
DOCKED: BRANCH  43  47
DOCKED: ATOM     47  O   UNL d   1     -15.164 -18.053 -12.393 -0.01 -0.12    -0.303 OA
DOCKED: ATOM     48  H   UNL d   1     -14.723 -17.316 -11.921 +0.04 +0.10    +0.222 HD
DOCKED: ENDBRANCH  43  47
DOCKED: ENDBRANCH  42  43
DOCKED: ENDBRANCH   4  42
DOCKED: TORSDOF 24
DOCKED: TER
DOCKED: ENDMDL
________________________________________________________________________________


	BEGINNING GENETIC ALGORITHM DOCKING 36 of 100
Run: 36 Seed: 539726481 1737533180 [ Run 36 of 100 GA/GALS ]
Beginning LAMARCKIAN GENETIC ALGORITHM (LGA), with a maximum of 25000000 energy evaluations.

Final-Value: -18.261


	FINAL GENETIC ALGORITHM DOCKED STATE
	_______________________________________________


Detailed state:  trans 4.066 -15.939 -4.687 quatxyzw 0.470623 0.073511 0.762519 0.437807 center 0.035 0.082 -0.065 ntor 24 -105.1157 -1.7157 146.7860 2.0893 3.1579 174.2813 -113.1769 -9.3588 -179.3359 27.4037 -121.5028 179.9674 65.0964 179.7780 174.8228 169.1537 93.4012 160.7420 43.1958 9.2932 178.0849 13.4036 10.0140 179.8097
State:	  4.066 -15.939  -4.687   0.523  0.082  0.848 128.072   -105.12   -1.72  146.79    2.09    3.16  174.28 -113.18   -9.36 -179.34   27.40 -121.50  179.97   65.10  179.78  174.82  169.15   93.40  160.74   43.20    9.29  178.08   13.40   10.01  179.81

DOCKED: MODEL       36
DOCKED: USER    Run = 36
DOCKED: USER    DPF = D:/Protein_go_brrr/autodock/final/AncA/IHP/dock.dpf
DOCKED: USER  
DOCKED: USER    Estimated Free Energy of Binding    =   +3.15 kcal/mol  [=(1)+(2)+(3)-(4)]
DOCKED: USER    
DOCKED: USER    (1) Final Intermolecular Energy     =   -4.01 kcal/mol
DOCKED: USER        vdW + Hbond + desolv Energy     =   -3.68 kcal/mol
DOCKED: USER        Electrostatic Energy            =   -0.33 kcal/mol
DOCKED: USER    (2) Final Total Internal Energy     =  -14.25 kcal/mol
DOCKED: USER    (3) Torsional Free Energy           =   +7.16 kcal/mol
DOCKED: USER    (4) Unbound System's Energy  [=(2)] =  -14.25 kcal/mol
DOCKED: USER    
DOCKED: USER    
DOCKED: USER    NEWDPF move IHP_ideal_opt.pdbqt
DOCKED: USER    NEWDPF about 0.035000 0.082000 -0.065000
DOCKED: USER    NEWDPF tran0 4.066421 -15.939475 -4.687100
DOCKED: USER    NEWDPF quaternion0 0.470623 0.073511 0.762519 0.437807
DOCKED: USER    NEWDPF axisangle0 0.523456 0.081764 0.848120 128.071916
DOCKED: USER    NEWDPF quat0 0.523456 0.081764 0.848120 128.071916
DOCKED: USER    NEWDPF dihe0 -105.12 -1.72 146.79 2.09 3.16 174.28 -113.18 -9.36 -179.34 27.40 -121.50 179.97 65.10 179.78 174.82 169.15 93.40 160.74 43.20 9.29 178.08 13.40 10.01 179.81 
DOCKED: USER  keepresnum = 1 
DOCKED: USER  
DOCKED: REMARK  24 active torsions:
DOCKED: REMARK  status: ('A' for Active; 'I' for Inactive)
DOCKED: REMARK    1  A    between atoms: C_1  and  O_7 
DOCKED: REMARK    2  A    between atoms: C_2  and  O_12 
DOCKED: REMARK    3  A    between atoms: C_3  and  O_17 
DOCKED: REMARK    4  A    between atoms: C_4  and  O_22 
DOCKED: REMARK    5  A    between atoms: C_5  and  O_27 
DOCKED: REMARK    6  A    between atoms: C_6  and  O_32 
DOCKED: REMARK    7  A    between atoms: O_7  and  P_8 
DOCKED: REMARK    8  A    between atoms: P_8  and  O_10 
DOCKED: REMARK    9  A    between atoms: P_8  and  O_11 
DOCKED: REMARK   10  A    between atoms: O_12  and  P_13 
DOCKED: REMARK   11  A    between atoms: P_13  and  O_15 
DOCKED: REMARK   12  A    between atoms: P_13  and  O_16 
DOCKED: REMARK   13  A    between atoms: O_17  and  P_18 
DOCKED: REMARK   14  A    between atoms: P_18  and  O_20 
DOCKED: REMARK   15  A    between atoms: P_18  and  O_21 
DOCKED: REMARK   16  A    between atoms: O_22  and  P_23 
DOCKED: REMARK   17  A    between atoms: P_23  and  O_25 
DOCKED: REMARK   18  A    between atoms: P_23  and  O_26 
DOCKED: REMARK   19  A    between atoms: O_27  and  P_28 
DOCKED: REMARK   20  A    between atoms: P_28  and  O_30 
DOCKED: REMARK   21  A    between atoms: P_28  and  O_31 
DOCKED: REMARK   22  A    between atoms: O_32  and  P_33 
DOCKED: REMARK   23  A    between atoms: P_33  and  O_35 
DOCKED: REMARK   24  A    between atoms: P_33  and  O_36 
DOCKED: USER                              x       y       z     vdW  Elec       q    Type
DOCKED: USER                           _______ _______ _______ _____ _____    ______ ____
DOCKED: ROOT
DOCKED: ATOM      1  C   UNL d   1       3.711 -15.737  -3.009 -0.02 +0.07    +0.194 C 
DOCKED: ATOM      2  C   UNL d   1       3.094 -14.696  -3.945 -0.06 +0.07    +0.194 C 
DOCKED: ATOM      3  C   UNL d   1       4.091 -14.229  -5.008 -0.12 +0.07    +0.194 C 
DOCKED: ATOM      4  C   UNL d   1       4.740 -15.380  -5.772 -0.13 +0.10    +0.194 C 
DOCKED: ATOM      5  C   UNL d   1       5.268 -16.497  -4.880 -0.07 +0.11    +0.194 C 
DOCKED: ATOM      6  C   UNL d   1       4.294 -16.922  -3.779 -0.02 +0.09    +0.194 C 
DOCKED: ENDROOT
DOCKED: BRANCH   1   7
DOCKED: ATOM      7  O   UNL d   1       2.676 -16.245  -2.164 -0.00 -0.11    -0.278 OA
DOCKED: BRANCH   7   8
DOCKED: ATOM      8  P   UNL d   1       2.223 -15.369  -0.907 +0.01 +0.19    +0.473 P 
DOCKED: ATOM      9  O   UNL d   1       0.812 -14.898  -0.943 -0.03 -0.12    -0.228 OA
DOCKED: BRANCH   8  10
DOCKED: ATOM     10  O   UNL d   1       2.544 -16.298   0.349 -0.00 -0.11    -0.303 OA
DOCKED: ATOM     11  H   UNL d   1       3.408 -16.050   0.727 +0.01 +0.07    +0.222 HD
DOCKED: ENDBRANCH   8  10
DOCKED: BRANCH   8  12
DOCKED: ATOM     12  O   UNL d   1       3.329 -14.236  -0.773 -0.01 -0.09    -0.303 OA
DOCKED: ATOM     13  H   UNL d   1       4.247 -14.585  -0.831 +0.03 +0.06    +0.222 HD
DOCKED: ENDBRANCH   8  12
DOCKED: ENDBRANCH   7   8
DOCKED: ENDBRANCH   1   7
DOCKED: BRANCH   2  14
DOCKED: ATOM     14  O   UNL d   1       1.962 -15.275  -4.605 -0.06 -0.14    -0.278 OA
DOCKED: BRANCH  14  15
DOCKED: ATOM     15  P   UNL d   1       0.689 -14.325  -4.808 -0.15 +0.27    +0.473 P 
DOCKED: ATOM     16  O   UNL d   1      -0.615 -14.823  -4.267 -0.16 -0.21    -0.228 OA
DOCKED: BRANCH  15  17
DOCKED: ATOM     17  O   UNL d   1       1.135 -12.937  -4.165 -0.16 -0.14    -0.303 OA
DOCKED: ATOM     18  H   UNL d   1       1.999 -12.648  -4.517 +0.09 +0.09    +0.222 HD
DOCKED: ENDBRANCH  15  17
DOCKED: BRANCH  15  19
DOCKED: ATOM     19  O   UNL d   1       0.698 -13.976  -6.360 -0.30 -0.15    -0.303 OA
DOCKED: ATOM     20  H   UNL d   1       1.534 -13.553  -6.629 +0.11 +0.09    +0.222 HD
DOCKED: ENDBRANCH  15  19
DOCKED: ENDBRANCH  14  15
DOCKED: ENDBRANCH   2  14
DOCKED: BRANCH   6  21
DOCKED: ATOM     21  O   UNL d   1       5.042 -17.700  -2.846 -0.00 -0.11    -0.278 OA
DOCKED: BRANCH  21  22
DOCKED: ATOM     22  P   UNL d   1       6.033 -16.977  -1.827 +0.01 +0.12    +0.473 P 
DOCKED: ATOM     23  O   UNL d   1       7.180 -17.760  -1.283 +0.00 -0.05    -0.228 OA
DOCKED: BRANCH  22  24
DOCKED: ATOM     24  O   UNL d   1       6.443 -15.672  -2.642 -0.00 -0.06    -0.303 OA
DOCKED: ATOM     25  H   UNL d   1       6.921 -15.959  -3.462 +0.02 +0.05    +0.222 HD
DOCKED: ENDBRANCH  22  24
DOCKED: BRANCH  22  26
DOCKED: ATOM     26  O   UNL d   1       5.011 -16.383  -0.744 +0.00 -0.08    -0.303 OA
DOCKED: ATOM     27  H   UNL d   1       4.097 -16.623  -0.999 +0.00 +0.07    +0.222 HD
DOCKED: ENDBRANCH  22  26
DOCKED: ENDBRANCH  21  22
DOCKED: ENDBRANCH   6  21
DOCKED: BRANCH   3  28
DOCKED: ATOM     28  O   UNL d   1       3.364 -13.492  -5.982 -0.23 -0.10    -0.278 OA
DOCKED: BRANCH  28  29
DOCKED: ATOM     29  P   UNL d   1       3.783 -11.996  -6.337 -0.30 +0.09    +0.473 P 
DOCKED: ATOM     30  O   UNL d   1       3.641 -11.613  -7.766 -0.70 -0.07    -0.228 OA
DOCKED: BRANCH  29  31
DOCKED: ATOM     31  O   UNL d   1       2.887 -11.197  -5.279 -0.23 -0.08    -0.303 OA
DOCKED: ATOM     32  H   UNL d   1       1.938 -11.384  -5.466 +0.18 +0.09    +0.222 HD
DOCKED: ENDBRANCH  29  31
DOCKED: BRANCH  29  33
DOCKED: ATOM     33  O   UNL d   1       5.242 -11.899  -5.707 -0.13 +0.02    -0.303 OA
DOCKED: ATOM     34  H   UNL d   1       5.773 -12.677  -6.007 -0.09 -0.01    +0.222 HD
DOCKED: ENDBRANCH  29  33
DOCKED: ENDBRANCH  28  29
DOCKED: ENDBRANCH   3  28
DOCKED: BRANCH   5  35
DOCKED: ATOM     35  O   UNL d   1       5.450 -17.623  -5.737 -0.17 -0.33    -0.278 OA
DOCKED: BRANCH  35  36
DOCKED: ATOM     36  P   UNL d   1       6.717 -18.575  -5.556 -0.01 +0.54    +0.473 P 
DOCKED: ATOM     37  O   UNL d   1       6.442 -20.041  -5.666 -0.06 -0.26    -0.228 OA
DOCKED: BRANCH  36  38
DOCKED: ATOM     38  O   UNL d   1       7.710 -18.010  -6.665 -0.57 -0.45    -0.303 OA
DOCKED: ATOM     39  H   UNL d   1       8.466 -17.566  -6.223 +0.02 +0.16    +0.222 HD
DOCKED: ENDBRANCH  36  38
DOCKED: BRANCH  36  40
DOCKED: ATOM     40  O   UNL d   1       7.338 -18.058  -4.186 -0.01 -0.15    -0.303 OA
DOCKED: ATOM     41  H   UNL d   1       6.963 -17.188  -3.922 +0.02 +0.09    +0.222 HD
DOCKED: ENDBRANCH  36  40
DOCKED: ENDBRANCH  35  36
DOCKED: ENDBRANCH   5  35
DOCKED: BRANCH   4  42
DOCKED: ATOM     42  O   UNL d   1       5.864 -14.833  -6.470 -0.13 -0.13    -0.278 OA
DOCKED: BRANCH  42  43
DOCKED: ATOM     43  P   UNL d   1       7.124 -14.332  -5.632 -0.05 +0.08    +0.473 P 
DOCKED: ATOM     44  O   UNL d   1       7.973 -13.267  -6.237 -0.18 +0.02    -0.228 OA
DOCKED: BRANCH  43  45
DOCKED: ATOM     45  O   UNL d   1       6.477 -13.932  -4.234 -0.05 -0.03    -0.303 OA
DOCKED: ATOM     46  H   UNL d   1       7.159 -13.822  -3.542 +0.06 -0.01    +0.222 HD
DOCKED: ENDBRANCH  43  45
DOCKED: BRANCH  43  47
DOCKED: ATOM     47  O   UNL d   1       7.883 -15.694  -5.261 -0.02 -0.09    -0.303 OA
DOCKED: ATOM     48  H   UNL d   1       7.379 -16.453  -5.622 +0.03 +0.13    +0.222 HD
DOCKED: ENDBRANCH  43  47
DOCKED: ENDBRANCH  42  43
DOCKED: ENDBRANCH   4  42
DOCKED: TORSDOF 24
DOCKED: TER
DOCKED: ENDMDL
________________________________________________________________________________


	BEGINNING GENETIC ALGORITHM DOCKING 37 of 100
Run: 37 Seed: 2022966758 1447465465 [ Run 37 of 100 GA/GALS ]
Beginning LAMARCKIAN GENETIC ALGORITHM (LGA), with a maximum of 25000000 energy evaluations.

Final-Value: -18.015


	FINAL GENETIC ALGORITHM DOCKED STATE
	_______________________________________________


Detailed state:  trans -17.592 7.569 4.841 quatxyzw 0.588288 -0.394419 -0.696284 -0.116360 center 0.035 0.082 -0.065 ntor 24 165.0299 -152.2828 -164.4202 -8.8519 48.9301 -170.7886 0.9930 -10.0507 107.7770 -1.4931 -17.8141 180.0000 -78.7135 179.2613 167.4103 153.5045 99.1515 -49.0448 73.8000 19.4513 -15.9100 22.1087 -15.5939 -176.8068
State:	-17.592   7.569   4.841   0.592 -0.397 -0.701 -166.636    165.03 -152.28 -164.42   -8.85   48.93 -170.79    0.99  -10.05  107.78   -1.49  -17.81  180.00  -78.71  179.26  167.41  153.50   99.15  -49.04   73.80   19.45  -15.91   22.11  -15.59 -176.81

DOCKED: MODEL       37
DOCKED: USER    Run = 37
DOCKED: USER    DPF = D:/Protein_go_brrr/autodock/final/AncA/IHP/dock.dpf
DOCKED: USER  
DOCKED: USER    Estimated Free Energy of Binding    =   +2.16 kcal/mol  [=(1)+(2)+(3)-(4)]
DOCKED: USER    
DOCKED: USER    (1) Final Intermolecular Energy     =   -5.00 kcal/mol
DOCKED: USER        vdW + Hbond + desolv Energy     =   -4.66 kcal/mol
DOCKED: USER        Electrostatic Energy            =   -0.34 kcal/mol
DOCKED: USER    (2) Final Total Internal Energy     =  -13.02 kcal/mol
DOCKED: USER    (3) Torsional Free Energy           =   +7.16 kcal/mol
DOCKED: USER    (4) Unbound System's Energy  [=(2)] =  -13.02 kcal/mol
DOCKED: USER    
DOCKED: USER    
DOCKED: USER    NEWDPF move IHP_ideal_opt.pdbqt
DOCKED: USER    NEWDPF about 0.035000 0.082000 -0.065000
DOCKED: USER    NEWDPF tran0 -17.592191 7.569473 4.841489
DOCKED: USER    NEWDPF quaternion0 0.588288 -0.394419 -0.696284 -0.116360
DOCKED: USER    NEWDPF axisangle0 0.592311 -0.397117 -0.701046 -166.635869
DOCKED: USER    NEWDPF quat0 0.592311 -0.397117 -0.701046 -166.635869
DOCKED: USER    NEWDPF dihe0 165.03 -152.28 -164.42 -8.85 48.93 -170.79 0.99 -10.05 107.78 -1.49 -17.81 180.00 -78.71 179.26 167.41 153.50 99.15 -49.04 73.80 19.45 -15.91 22.11 -15.59 -176.81 
DOCKED: USER  keepresnum = 1 
DOCKED: USER  
DOCKED: REMARK  24 active torsions:
DOCKED: REMARK  status: ('A' for Active; 'I' for Inactive)
DOCKED: REMARK    1  A    between atoms: C_1  and  O_7 
DOCKED: REMARK    2  A    between atoms: C_2  and  O_12 
DOCKED: REMARK    3  A    between atoms: C_3  and  O_17 
DOCKED: REMARK    4  A    between atoms: C_4  and  O_22 
DOCKED: REMARK    5  A    between atoms: C_5  and  O_27 
DOCKED: REMARK    6  A    between atoms: C_6  and  O_32 
DOCKED: REMARK    7  A    between atoms: O_7  and  P_8 
DOCKED: REMARK    8  A    between atoms: P_8  and  O_10 
DOCKED: REMARK    9  A    between atoms: P_8  and  O_11 
DOCKED: REMARK   10  A    between atoms: O_12  and  P_13 
DOCKED: REMARK   11  A    between atoms: P_13  and  O_15 
DOCKED: REMARK   12  A    between atoms: P_13  and  O_16 
DOCKED: REMARK   13  A    between atoms: O_17  and  P_18 
DOCKED: REMARK   14  A    between atoms: P_18  and  O_20 
DOCKED: REMARK   15  A    between atoms: P_18  and  O_21 
DOCKED: REMARK   16  A    between atoms: O_22  and  P_23 
DOCKED: REMARK   17  A    between atoms: P_23  and  O_25 
DOCKED: REMARK   18  A    between atoms: P_23  and  O_26 
DOCKED: REMARK   19  A    between atoms: O_27  and  P_28 
DOCKED: REMARK   20  A    between atoms: P_28  and  O_30 
DOCKED: REMARK   21  A    between atoms: P_28  and  O_31 
DOCKED: REMARK   22  A    between atoms: O_32  and  P_33 
DOCKED: REMARK   23  A    between atoms: P_33  and  O_35 
DOCKED: REMARK   24  A    between atoms: P_33  and  O_36 
DOCKED: USER                              x       y       z     vdW  Elec       q    Type
DOCKED: USER                           _______ _______ _______ _____ _____    ______ ____
DOCKED: ROOT
DOCKED: ATOM      1  C   UNL d   1     -18.396   7.699   3.318 -0.15 +0.01    +0.194 C 
DOCKED: ATOM      2  C   UNL d   1     -17.467   8.860   3.675 -0.13 +0.00    +0.194 C 
DOCKED: ATOM      3  C   UNL d   1     -17.627   9.285   5.137 -0.07 +0.01    +0.194 C 
DOCKED: ATOM      4  C   UNL d   1     -17.502   8.122   6.118 -0.04 +0.02    +0.194 C 
DOCKED: ATOM      5  C   UNL d   1     -18.324   6.898   5.738 -0.10 +0.03    +0.194 C 
DOCKED: ATOM      6  C   UNL d   1     -18.212   6.510   4.262 -0.18 +0.03    +0.194 C 
DOCKED: ENDROOT
DOCKED: BRANCH   1   7
DOCKED: ATOM      7  O   UNL d   1     -18.066   7.252   2.001 -0.17 +0.02    -0.278 OA
DOCKED: BRANCH   7   8
DOCKED: ATOM      8  P   UNL d   1     -17.924   8.343   0.843 -0.15 -0.02    +0.473 P 
DOCKED: ATOM      9  O   UNL d   1     -18.723   9.583   1.042 -0.05 -0.01    -0.228 OA
DOCKED: BRANCH   8  10
DOCKED: ATOM     10  O   UNL d   1     -16.354   8.614   0.757 -0.25 +0.05    -0.303 OA
DOCKED: ATOM     11  H   UNL d   1     -15.882   7.983   1.331 -0.41 -0.07    +0.222 HD
DOCKED: ENDBRANCH   8  10
DOCKED: BRANCH   8  12
DOCKED: ATOM     12  O   UNL d   1     -18.199   7.551  -0.507 -0.16 -0.01    -0.303 OA
DOCKED: ATOM     13  H   UNL d   1     -18.411   8.141  -1.264 +0.06 +0.01    +0.222 HD
DOCKED: ENDBRANCH   8  12
DOCKED: ENDBRANCH   7   8
DOCKED: ENDBRANCH   1   7
DOCKED: BRANCH   2  14
DOCKED: ATOM     14  O   UNL d   1     -16.109   8.454   3.464 -0.19 +0.02    -0.278 OA
DOCKED: BRANCH  14  15
DOCKED: ATOM     15  P   UNL d   1     -15.068   9.608   3.078 -0.18 -0.00    +0.473 P 
DOCKED: ATOM     16  O   UNL d   1     -14.278   9.407   1.823 -0.18 -0.00    -0.228 OA
DOCKED: BRANCH  15  17
DOCKED: ATOM     17  O   UNL d   1     -15.953  10.932   3.045 -0.04 -0.01    -0.303 OA
DOCKED: ATOM     18  H   UNL d   1     -15.850  11.444   3.871 +0.03 +0.01    +0.222 HD
DOCKED: ENDBRANCH  15  17
DOCKED: BRANCH  15  19
DOCKED: ATOM     19  O   UNL d   1     -14.212   9.828   4.400 -0.11 -0.01    -0.303 OA
DOCKED: ATOM     20  H   UNL d   1     -14.744  10.227   5.112 +0.04 +0.01    +0.222 HD
DOCKED: ENDBRANCH  15  19
DOCKED: ENDBRANCH  14  15
DOCKED: ENDBRANCH   2  14
DOCKED: BRANCH   6  21
DOCKED: ATOM     21  O   UNL d   1     -19.273   5.595   3.995 -0.12 -0.10    -0.278 OA
DOCKED: BRANCH  21  22
DOCKED: ATOM     22  P   UNL d   1     -18.937   4.109   3.522 -0.12 +0.47    +0.473 P 
DOCKED: ATOM     23  O   UNL d   1     -20.020   3.313   2.876 -0.25 -0.31    -0.228 OA
DOCKED: BRANCH  22  24
DOCKED: ATOM     24  O   UNL d   1     -17.647   4.339   2.618 -0.32 -0.14    -0.303 OA
DOCKED: ATOM     25  H   UNL d   1     -17.602   5.301   2.385 -0.47 -0.01    +0.222 HD
DOCKED: ENDBRANCH  22  24
DOCKED: BRANCH  22  26
DOCKED: ATOM     26  O   UNL d   1     -18.300   3.481   4.853 -0.71 -0.41    -0.303 OA
DOCKED: ATOM     27  H   UNL d   1     -18.510   4.059   5.614 +0.06 +0.16    +0.222 HD
DOCKED: ENDBRANCH  22  26
DOCKED: ENDBRANCH  21  22
DOCKED: ENDBRANCH   6  21
DOCKED: BRANCH   3  28
DOCKED: ATOM     28  O   UNL d   1     -16.550  10.160   5.449 -0.04 -0.02    -0.278 OA
DOCKED: BRANCH  28  29
DOCKED: ATOM     29  P   UNL d   1     -16.824  11.535   6.205 -0.01 +0.03    +0.473 P 
DOCKED: ATOM     30  O   UNL d   1     -16.010  11.769   7.425 -0.01 -0.01    -0.228 OA
DOCKED: BRANCH  29  31
DOCKED: ATOM     31  O   UNL d   1     -16.630  12.562   4.993 -0.00 -0.01    -0.303 OA
DOCKED: ATOM     32  H   UNL d   1     -17.203  12.277   4.244 +0.01 +0.01    +0.222 HD
DOCKED: ENDBRANCH  29  31
DOCKED: BRANCH  29  33
DOCKED: ATOM     33  O   UNL d   1     -18.406  11.505   6.390 -0.00 -0.02    -0.303 OA
DOCKED: ATOM     34  H   UNL d   1     -18.668  10.629   6.767 +0.01 +0.02    +0.222 HD
DOCKED: ENDBRANCH  29  33
DOCKED: ENDBRANCH  28  29
DOCKED: ENDBRANCH   3  28
DOCKED: BRANCH   5  35
DOCKED: ATOM     35  O   UNL d   1     -17.785   5.818   6.498 -0.12 -0.07    -0.278 OA
DOCKED: BRANCH  35  36
DOCKED: ATOM     36  P   UNL d   1     -18.670   5.098   7.613 -0.04 +0.11    +0.473 P 
DOCKED: ATOM     37  O   UNL d   1     -18.469   3.621   7.741 -0.05 -0.08    -0.228 OA
DOCKED: BRANCH  36  38
DOCKED: ATOM     38  O   UNL d   1     -18.287   5.926   8.918 -0.02 -0.04    -0.303 OA
DOCKED: ATOM     39  H   UNL d   1     -18.183   6.872   8.678 +0.02 +0.03    +0.222 HD
DOCKED: ENDBRANCH  36  38
DOCKED: BRANCH  36  40
DOCKED: ATOM     40  O   UNL d   1     -20.137   5.598   7.258 -0.01 -0.06    -0.303 OA
DOCKED: ATOM     41  H   UNL d   1     -20.153   6.558   7.045 +0.02 +0.04    +0.222 HD
DOCKED: ENDBRANCH  36  40
DOCKED: ENDBRANCH  35  36
DOCKED: ENDBRANCH   5  35
DOCKED: BRANCH   4  42
DOCKED: ATOM     42  O   UNL d   1     -17.997   8.587   7.378 -0.03 -0.03    -0.278 OA
DOCKED: BRANCH  42  43
DOCKED: ATOM     43  P   UNL d   1     -19.566   8.813   7.554 -0.01 +0.04    +0.473 P 
DOCKED: ATOM     44  O   UNL d   1     -20.429   8.596   6.360 -0.01 -0.02    -0.228 OA
DOCKED: BRANCH  43  45
DOCKED: ATOM     45  O   UNL d   1     -19.917   7.875   8.791 -0.00 -0.03    -0.303 OA
DOCKED: ATOM     46  H   UNL d   1     -20.172   6.978   8.498 +0.01 +0.03    +0.222 HD
DOCKED: ENDBRANCH  43  45
DOCKED: BRANCH  43  47
DOCKED: ATOM     47  O   UNL d   1     -19.654  10.271   8.215 -0.00 -0.02    -0.303 OA
DOCKED: ATOM     48  H   UNL d   1     -18.749  10.620   8.348 +0.00 +0.01    +0.222 HD
DOCKED: ENDBRANCH  43  47
DOCKED: ENDBRANCH  42  43
DOCKED: ENDBRANCH   4  42
DOCKED: TORSDOF 24
DOCKED: TER
DOCKED: ENDMDL
________________________________________________________________________________


	BEGINNING GENETIC ALGORITHM DOCKING 38 of 100
Run: 38 Seed: 966782126 1793963489 [ Run 38 of 100 GA/GALS ]
Beginning LAMARCKIAN GENETIC ALGORITHM (LGA), with a maximum of 25000000 energy evaluations.

Final-Value: -17.932


	FINAL GENETIC ALGORITHM DOCKED STATE
	_______________________________________________


Detailed state:  trans -4.038 13.859 10.214 quatxyzw -0.858167 -0.013566 -0.037877 0.511791 center 0.035 0.082 -0.065 ntor 24 -157.8846 24.4190 131.5763 93.3459 28.5237 -132.5757 -54.8448 38.4838 171.5875 -22.1438 34.9879 179.8073 -131.0030 90.9155 -8.4691 127.5187 -177.7362 5.9181 43.1310 -3.0176 -45.9284 -6.7804 30.8616 168.2924
State:	 -4.038  13.859  10.214  -0.999 -0.016 -0.044 118.434   -157.88   24.42  131.58   93.35   28.52 -132.58  -54.84   38.48  171.59  -22.14   34.99  179.81 -131.00   90.92   -8.47  127.52 -177.74    5.92   43.13   -3.02  -45.93   -6.78   30.86  168.29

DOCKED: MODEL       38
DOCKED: USER    Run = 38
DOCKED: USER    DPF = D:/Protein_go_brrr/autodock/final/AncA/IHP/dock.dpf
DOCKED: USER  
DOCKED: USER    Estimated Free Energy of Binding    =   +4.03 kcal/mol  [=(1)+(2)+(3)-(4)]
DOCKED: USER    
DOCKED: USER    (1) Final Intermolecular Energy     =   -3.13 kcal/mol
DOCKED: USER        vdW + Hbond + desolv Energy     =   -3.09 kcal/mol
DOCKED: USER        Electrostatic Energy            =   -0.04 kcal/mol
DOCKED: USER    (2) Final Total Internal Energy     =  -14.81 kcal/mol
DOCKED: USER    (3) Torsional Free Energy           =   +7.16 kcal/mol
DOCKED: USER    (4) Unbound System's Energy  [=(2)] =  -14.81 kcal/mol
DOCKED: USER    
DOCKED: USER    
DOCKED: USER    NEWDPF move IHP_ideal_opt.pdbqt
DOCKED: USER    NEWDPF about 0.035000 0.082000 -0.065000
DOCKED: USER    NEWDPF tran0 -4.038023 13.858926 10.213977
DOCKED: USER    NEWDPF quaternion0 -0.858167 -0.013566 -0.037877 0.511791
DOCKED: USER    NEWDPF axisangle0 -0.998903 -0.015790 -0.044089 118.433564
DOCKED: USER    NEWDPF quat0 -0.998903 -0.015790 -0.044089 118.433564
DOCKED: USER    NEWDPF dihe0 -157.88 24.42 131.58 93.35 28.52 -132.58 -54.84 38.48 171.59 -22.14 34.99 179.81 -131.00 90.92 -8.47 127.52 -177.74 5.92 43.13 -3.02 -45.93 -6.78 30.86 168.29 
DOCKED: USER  keepresnum = 1 
DOCKED: USER  
DOCKED: REMARK  24 active torsions:
DOCKED: REMARK  status: ('A' for Active; 'I' for Inactive)
DOCKED: REMARK    1  A    between atoms: C_1  and  O_7 
DOCKED: REMARK    2  A    between atoms: C_2  and  O_12 
DOCKED: REMARK    3  A    between atoms: C_3  and  O_17 
DOCKED: REMARK    4  A    between atoms: C_4  and  O_22 
DOCKED: REMARK    5  A    between atoms: C_5  and  O_27 
DOCKED: REMARK    6  A    between atoms: C_6  and  O_32 
DOCKED: REMARK    7  A    between atoms: O_7  and  P_8 
DOCKED: REMARK    8  A    between atoms: P_8  and  O_10 
DOCKED: REMARK    9  A    between atoms: P_8  and  O_11 
DOCKED: REMARK   10  A    between atoms: O_12  and  P_13 
DOCKED: REMARK   11  A    between atoms: P_13  and  O_15 
DOCKED: REMARK   12  A    between atoms: P_13  and  O_16 
DOCKED: REMARK   13  A    between atoms: O_17  and  P_18 
DOCKED: REMARK   14  A    between atoms: P_18  and  O_20 
DOCKED: REMARK   15  A    between atoms: P_18  and  O_21 
DOCKED: REMARK   16  A    between atoms: O_22  and  P_23 
DOCKED: REMARK   17  A    between atoms: P_23  and  O_25 
DOCKED: REMARK   18  A    between atoms: P_23  and  O_26 
DOCKED: REMARK   19  A    between atoms: O_27  and  P_28 
DOCKED: REMARK   20  A    between atoms: P_28  and  O_30 
DOCKED: REMARK   21  A    between atoms: P_28  and  O_31 
DOCKED: REMARK   22  A    between atoms: O_32  and  P_33 
DOCKED: REMARK   23  A    between atoms: P_33  and  O_35 
DOCKED: REMARK   24  A    between atoms: P_33  and  O_36 
DOCKED: USER                              x       y       z     vdW  Elec       q    Type
DOCKED: USER                           _______ _______ _______ _____ _____    ______ ____
DOCKED: ROOT
DOCKED: ATOM      1  C   UNL d   1      -2.713  13.665   9.123 -0.11 +0.01    +0.194 C 
DOCKED: ATOM      2  C   UNL d   1      -3.974  14.294   8.527 -0.06 +0.02    +0.194 C 
DOCKED: ATOM      3  C   UNL d   1      -5.240  13.571   8.988 -0.05 +0.03    +0.194 C 
DOCKED: ATOM      4  C   UNL d   1      -5.330  13.425  10.506 -0.04 +0.02    +0.194 C 
DOCKED: ATOM      5  C   UNL d   1      -4.053  12.908  11.156 -0.08 +0.02    +0.194 C 
DOCKED: ATOM      6  C   UNL d   1      -2.780  13.589  10.649 -0.11 +0.01    +0.194 C 
DOCKED: ENDROOT
DOCKED: BRANCH   1   7
DOCKED: ATOM      7  O   UNL d   1      -1.599  14.495   8.786 -0.08 -0.00    -0.278 OA
DOCKED: BRANCH   7   8
DOCKED: ATOM      8  P   UNL d   1      -0.976  14.373   7.320 -0.11 -0.00    +0.473 P 
DOCKED: ATOM      9  O   UNL d   1      -0.069  13.211   7.114 -0.22 +0.01    -0.228 OA
DOCKED: BRANCH   8  10
DOCKED: ATOM     10  O   UNL d   1      -2.250  14.353   6.360 -0.06 -0.01    -0.303 OA
DOCKED: ATOM     11  H   UNL d   1      -2.884  15.038   6.643 +0.04 +0.01    +0.222 HD
DOCKED: ENDBRANCH   8  10
DOCKED: BRANCH   8  12
DOCKED: ATOM     12  O   UNL d   1      -0.353  15.802   7.016 -0.03 +0.00    -0.303 OA
DOCKED: ATOM     13  H   UNL d   1      -0.733  16.516   7.576 +0.02 -0.00    +0.222 HD
DOCKED: ENDBRANCH   8  12
DOCKED: ENDBRANCH   7   8
DOCKED: ENDBRANCH   1   7
DOCKED: BRANCH   2  14
DOCKED: ATOM     14  O   UNL d   1      -4.053  15.664   8.941 -0.01 -0.01    -0.278 OA
DOCKED: BRANCH  14  15
DOCKED: ATOM     15  P   UNL d   1      -4.272  16.750   7.785 -0.00 +0.02    +0.473 P 
DOCKED: ATOM     16  O   UNL d   1      -5.090  17.952   8.138 -0.00 -0.01    -0.228 OA
DOCKED: BRANCH  15  17
DOCKED: ATOM     17  O   UNL d   1      -2.795  17.123   7.319 -0.00 -0.01    -0.303 OA
DOCKED: ATOM     18  H   UNL d   1      -2.209  16.342   7.349 +0.02 +0.00    +0.222 HD
DOCKED: ENDBRANCH  15  17
DOCKED: BRANCH  15  19
DOCKED: ATOM     19  O   UNL d   1      -4.795  15.906   6.542 -0.01 -0.02    -0.303 OA
DOCKED: ATOM     20  H   UNL d   1      -5.344  15.151   6.824 +0.02 +0.02    +0.222 HD
DOCKED: ENDBRANCH  15  19
DOCKED: ENDBRANCH  14  15
DOCKED: ENDBRANCH   2  14
DOCKED: BRANCH   6  21
DOCKED: ATOM     21  O   UNL d   1      -1.684  12.785  11.076 -0.18 +0.00    -0.278 OA
DOCKED: BRANCH  21  22
DOCKED: ATOM     22  P   UNL d   1      -0.284  13.470  11.416 -0.14 -0.04    +0.473 P 
DOCKED: ATOM     23  O   UNL d   1      -0.274  14.923  11.755 -0.04 +0.01    -0.228 OA
DOCKED: BRANCH  22  24
DOCKED: ATOM     24  O   UNL d   1       0.278  12.515  12.558 -0.14 +0.06    -0.303 OA
DOCKED: ATOM     25  H   UNL d   1      -0.484  12.234  13.127 +0.03 -0.03    +0.222 HD
DOCKED: ENDBRANCH  22  24
DOCKED: BRANCH  22  26
DOCKED: ATOM     26  O   UNL d   1       0.606  13.037  10.155 -0.25 +0.06    -0.303 OA
DOCKED: ATOM     27  H   UNL d   1       0.140  13.289   9.331 +0.03 -0.03    +0.222 HD
DOCKED: ENDBRANCH  22  26
DOCKED: ENDBRANCH  21  22
DOCKED: ENDBRANCH   6  21
DOCKED: BRANCH   3  28
DOCKED: ATOM     28  O   UNL d   1      -6.352  14.377   8.621 -0.01 -0.03    -0.278 OA
DOCKED: BRANCH  28  29
DOCKED: ATOM     29  P   UNL d   1      -7.254  13.981   7.369 +0.00 +0.07    +0.473 P 
DOCKED: ATOM     30  O   UNL d   1      -8.547  13.325   7.693 -0.01 -0.04    -0.228 OA
DOCKED: BRANCH  29  31
DOCKED: ATOM     31  O   UNL d   1      -7.324  15.392   6.617 -0.00 -0.03    -0.303 OA
DOCKED: ATOM     32  H   UNL d   1      -6.851  16.062   7.163 +0.00 +0.01    +0.222 HD
DOCKED: ENDBRANCH  29  31
DOCKED: BRANCH  29  33
DOCKED: ATOM     33  O   UNL d   1      -6.233  13.153   6.470 -0.05 -0.07    -0.303 OA
DOCKED: ATOM     34  H   UNL d   1      -6.369  12.188   6.635 +0.05 +0.09    +0.222 HD
DOCKED: ENDBRANCH  29  33
DOCKED: ENDBRANCH  28  29
DOCKED: ENDBRANCH   3  28
DOCKED: BRANCH   5  35
DOCKED: ATOM     35  O   UNL d   1      -4.172  13.220  12.543 -0.03 -0.01    -0.278 OA
DOCKED: BRANCH  35  36
DOCKED: ATOM     36  P   UNL d   1      -3.263  12.468  13.617 -0.03 +0.00    +0.473 P 
DOCKED: ATOM     37  O   UNL d   1      -3.982  11.961  14.827 -0.02 -0.00    -0.228 OA
DOCKED: BRANCH  36  38
DOCKED: ATOM     38  O   UNL d   1      -2.587  11.330  12.732 -0.07 +0.00    -0.303 OA
DOCKED: ATOM     39  H   UNL d   1      -1.669  11.598  12.511 +0.04 -0.02    +0.222 HD
DOCKED: ENDBRANCH  36  38
DOCKED: BRANCH  36  40
DOCKED: ATOM     40  O   UNL d   1      -2.089  13.513  13.860 -0.02 +0.00    -0.303 OA
DOCKED: ATOM     41  H   UNL d   1      -1.559  13.661  13.045 +0.03 -0.01    +0.222 HD
DOCKED: ENDBRANCH  36  40
DOCKED: ENDBRANCH  35  36
DOCKED: ENDBRANCH   5  35
DOCKED: BRANCH   4  42
DOCKED: ATOM     42  O   UNL d   1      -6.356  12.462  10.769 -0.03 -0.05    -0.278 OA
DOCKED: BRANCH  42  43
DOCKED: ATOM     43  P   UNL d   1      -6.229  11.005  10.133 -0.04 +0.25    +0.473 P 
DOCKED: ATOM     44  O   UNL d   1      -4.949  10.273  10.344 -0.63 -0.14    -0.228 OA
DOCKED: BRANCH  43  45
DOCKED: ATOM     45  O   UNL d   1      -7.509  10.258  10.711 -0.13 -0.13    -0.303 OA
DOCKED: ATOM     46  H   UNL d   1      -7.687  10.517  11.638 +0.03 +0.05    +0.222 HD
DOCKED: ENDBRANCH  43  45
DOCKED: BRANCH  43  47
DOCKED: ATOM     47  O   UNL d   1      -6.650  11.235   8.603 -0.67 -0.23    -0.303 OA
DOCKED: ATOM     48  H   UNL d   1      -6.886  12.177   8.472 +0.04 +0.09    +0.222 HD
DOCKED: ENDBRANCH  43  47
DOCKED: ENDBRANCH  42  43
DOCKED: ENDBRANCH   4  42
DOCKED: TORSDOF 24
DOCKED: TER
DOCKED: ENDMDL
________________________________________________________________________________


	BEGINNING GENETIC ALGORITHM DOCKING 39 of 100
Run: 39 Seed: 1796166815 587192273 [ Run 39 of 100 GA/GALS ]
Beginning LAMARCKIAN GENETIC ALGORITHM (LGA), with a maximum of 25000000 energy evaluations.

Final-Value: -21.252


	FINAL GENETIC ALGORITHM DOCKED STATE
	_______________________________________________


Detailed state:  trans 10.888 -1.134 -16.518 quatxyzw -0.659932 0.020936 -0.733574 0.161000 center 0.035 0.082 -0.065 ntor 24 166.3368 36.5893 -180.0000 -18.7290 145.4101 174.4559 -27.6475 -160.2443 171.6076 -2.6988 39.4300 154.0326 23.1809 175.5785 39.3803 -51.6706 -23.6955 169.0527 -4.5153 16.7890 -24.8945 4.4895 166.7508 -6.6507
State:	 10.888  -1.134 -16.518  -0.669  0.021 -0.743 161.470    166.34   36.59 -180.00  -18.73  145.41  174.46  -27.65 -160.24  171.61   -2.70   39.43  154.03   23.18  175.58   39.38  -51.67  -23.70  169.05   -4.52   16.79  -24.89    4.49  166.75   -6.65

DOCKED: MODEL       39
DOCKED: USER    Run = 39
DOCKED: USER    DPF = D:/Protein_go_brrr/autodock/final/AncA/IHP/dock.dpf
DOCKED: USER  
DOCKED: USER    Estimated Free Energy of Binding    =   +0.12 kcal/mol  [=(1)+(2)+(3)-(4)]
DOCKED: USER    
DOCKED: USER    (1) Final Intermolecular Energy     =   -7.04 kcal/mol
DOCKED: USER        vdW + Hbond + desolv Energy     =   -6.36 kcal/mol
DOCKED: USER        Electrostatic Energy            =   -0.69 kcal/mol
DOCKED: USER    (2) Final Total Internal Energy     =  -14.21 kcal/mol
DOCKED: USER    (3) Torsional Free Energy           =   +7.16 kcal/mol
DOCKED: USER    (4) Unbound System's Energy  [=(2)] =  -14.21 kcal/mol
DOCKED: USER    
DOCKED: USER    
DOCKED: USER    NEWDPF move IHP_ideal_opt.pdbqt
DOCKED: USER    NEWDPF about 0.035000 0.082000 -0.065000
DOCKED: USER    NEWDPF tran0 10.888472 -1.133717 -16.518213
DOCKED: USER    NEWDPF quaternion0 -0.659932 0.020936 -0.733574 0.161000
DOCKED: USER    NEWDPF axisangle0 -0.668655 0.021212 -0.743271 161.470056
DOCKED: USER    NEWDPF quat0 -0.668655 0.021212 -0.743271 161.470056
DOCKED: USER    NEWDPF dihe0 166.34 36.59 -180.00 -18.73 145.41 174.46 -27.65 -160.24 171.61 -2.70 39.43 154.03 23.18 175.58 39.38 -51.67 -23.70 169.05 -4.52 16.79 -24.89 4.49 166.75 -6.65 
DOCKED: USER  keepresnum = 1 
DOCKED: USER  
DOCKED: REMARK  24 active torsions:
DOCKED: REMARK  status: ('A' for Active; 'I' for Inactive)
DOCKED: REMARK    1  A    between atoms: C_1  and  O_7 
DOCKED: REMARK    2  A    between atoms: C_2  and  O_12 
DOCKED: REMARK    3  A    between atoms: C_3  and  O_17 
DOCKED: REMARK    4  A    between atoms: C_4  and  O_22 
DOCKED: REMARK    5  A    between atoms: C_5  and  O_27 
DOCKED: REMARK    6  A    between atoms: C_6  and  O_32 
DOCKED: REMARK    7  A    between atoms: O_7  and  P_8 
DOCKED: REMARK    8  A    between atoms: P_8  and  O_10 
DOCKED: REMARK    9  A    between atoms: P_8  and  O_11 
DOCKED: REMARK   10  A    between atoms: O_12  and  P_13 
DOCKED: REMARK   11  A    between atoms: P_13  and  O_15 
DOCKED: REMARK   12  A    between atoms: P_13  and  O_16 
DOCKED: REMARK   13  A    between atoms: O_17  and  P_18 
DOCKED: REMARK   14  A    between atoms: P_18  and  O_20 
DOCKED: REMARK   15  A    between atoms: P_18  and  O_21 
DOCKED: REMARK   16  A    between atoms: O_22  and  P_23 
DOCKED: REMARK   17  A    between atoms: P_23  and  O_25 
DOCKED: REMARK   18  A    between atoms: P_23  and  O_26 
DOCKED: REMARK   19  A    between atoms: O_27  and  P_28 
DOCKED: REMARK   20  A    between atoms: P_28  and  O_30 
DOCKED: REMARK   21  A    between atoms: P_28  and  O_31 
DOCKED: REMARK   22  A    between atoms: O_32  and  P_33 
DOCKED: REMARK   23  A    between atoms: P_33  and  O_35 
DOCKED: REMARK   24  A    between atoms: P_33  and  O_36 
DOCKED: USER                              x       y       z     vdW  Elec       q    Type
DOCKED: USER                           _______ _______ _______ _____ _____    ______ ____
DOCKED: ROOT
DOCKED: ATOM      1  C   UNL d   1      11.787  -0.224 -15.357 -0.10 +0.03    +0.194 C 
DOCKED: ATOM      2  C   UNL d   1      11.740   0.367 -16.767 -0.08 +0.04    +0.194 C 
DOCKED: ATOM      3  C   UNL d   1      11.940  -0.707 -17.838 -0.02 +0.02    +0.194 C 
DOCKED: ATOM      4  C   UNL d   1      10.997  -1.897 -17.680 -0.00 +0.01    +0.194 C 
DOCKED: ATOM      5  C   UNL d   1      10.925  -2.447 -16.261 -0.04 -0.00    +0.194 C 
DOCKED: ATOM      6  C   UNL d   1      10.787  -1.368 -15.185 -0.08 +0.01    +0.194 C 
DOCKED: ENDROOT
DOCKED: BRANCH   1   7
DOCKED: ATOM      7  O   UNL d   1      11.423   0.803 -14.431 -0.19 -0.05    -0.278 OA
DOCKED: BRANCH   7   8
DOCKED: ATOM      8  P   UNL d   1      12.404   1.104 -13.207 -0.24 +0.07    +0.473 P 
DOCKED: ATOM      9  O   UNL d   1      13.644   1.848 -13.560 -0.16 -0.05    -0.228 OA
DOCKED: BRANCH   8  10
DOCKED: ATOM     10  O   UNL d   1      11.486   1.878 -12.156 -0.73 -0.08    -0.303 OA
DOCKED: ATOM     11  H   UNL d   1      10.557   1.851 -12.452 -0.33 +0.02    +0.222 HD
DOCKED: ENDBRANCH   8  10
DOCKED: BRANCH   8  12
DOCKED: ATOM     12  O   UNL d   1      12.617  -0.299 -12.493 -0.26 +0.03    -0.303 OA
DOCKED: ATOM     13  H   UNL d   1      12.024  -1.003 -12.842 +0.11 -0.01    +0.222 HD
DOCKED: ENDBRANCH   8  12
DOCKED: ENDBRANCH   7   8
DOCKED: ENDBRANCH   1   7
DOCKED: BRANCH   2  14
DOCKED: ATOM     14  O   UNL d   1      10.464   0.986 -16.972 -0.10 -0.12    -0.278 OA
DOCKED: BRANCH  14  15
DOCKED: ATOM     15  P   UNL d   1      10.433   2.260 -17.941 -0.12 +0.31    +0.473 P 
DOCKED: ATOM     16  O   UNL d   1       9.762   3.490 -17.413 -0.70 -0.41    -0.228 OA
DOCKED: BRANCH  15  17
DOCKED: ATOM     17  O   UNL d   1      11.964   2.503 -18.310 -0.05 -0.11    -0.303 OA
DOCKED: ATOM     18  H   UNL d   1      12.239   1.938 -19.058 +0.02 +0.05    +0.222 HD
DOCKED: ENDBRANCH  15  17
DOCKED: BRANCH  15  19
DOCKED: ATOM     19  O   UNL d   1       9.858   1.701 -19.314 -0.02 -0.12    -0.303 OA
DOCKED: ATOM     20  H   UNL d   1      10.539   1.224 -19.823 +0.02 +0.06    +0.222 HD
DOCKED: ENDBRANCH  15  19
DOCKED: ENDBRANCH  14  15
DOCKED: ENDBRANCH   2  14
DOCKED: BRANCH   6  21
DOCKED: ATOM     21  O   UNL d   1      11.076  -1.992 -13.936 -0.18 -0.00    -0.278 OA
DOCKED: BRANCH  21  22
DOCKED: ATOM     22  P   UNL d   1      10.041  -1.866 -12.729 -0.25 +0.05    +0.473 P 
DOCKED: ATOM     23  O   UNL d   1       8.737  -2.581 -12.841 -0.37 -0.02    -0.228 OA
DOCKED: BRANCH  22  24
DOCKED: ATOM     24  O   UNL d   1      10.936  -2.299 -11.486 -1.00 -0.03    -0.303 OA
DOCKED: ATOM     25  H   UNL d   1      11.499  -1.525 -11.227 -0.30 -0.07    +0.222 HD
DOCKED: ENDBRANCH  22  24
DOCKED: BRANCH  22  26
DOCKED: ATOM     26  O   UNL d   1       9.956  -0.276 -12.538 -0.21 -0.03    -0.303 OA
DOCKED: ATOM     27  H   UNL d   1      10.537   0.158 -13.195 +0.12 +0.02    +0.222 HD
DOCKED: ENDBRANCH  22  26
DOCKED: ENDBRANCH  21  22
DOCKED: ENDBRANCH   6  21
DOCKED: BRANCH   3  28
DOCKED: ATOM     28  O   UNL d   1      11.608  -0.127 -19.093 -0.01 -0.04    -0.278 OA
DOCKED: BRANCH  28  29
DOCKED: ATOM     29  P   UNL d   1      12.725   0.061 -20.214 -0.00 +0.06    +0.473 P 
DOCKED: ATOM     30  O   UNL d   1      13.647   1.207 -20.013 -0.02 -0.03    -0.228 OA
DOCKED: BRANCH  29  31
DOCKED: ATOM     31  O   UNL d   1      13.373  -1.403 -20.208 -0.00 -0.03    -0.303 OA
DOCKED: ATOM     32  H   UNL d   1      12.706  -2.040 -19.863 +0.00 +0.02    +0.222 HD
DOCKED: ENDBRANCH  29  31
DOCKED: BRANCH  29  33
DOCKED: ATOM     33  O   UNL d   1      11.860   0.057 -21.551 -0.00 -0.04    -0.303 OA
DOCKED: ATOM     34  H   UNL d   1      11.930  -0.832 -21.976 +0.00 +0.02    +0.222 HD
DOCKED: ENDBRANCH  29  33
DOCKED: ENDBRANCH  28  29
DOCKED: ENDBRANCH   3  28
DOCKED: BRANCH   5  35
DOCKED: ATOM     35  O   UNL d   1       9.741  -3.241 -16.214 -0.08 +0.05    -0.278 OA
DOCKED: BRANCH  35  36
DOCKED: ATOM     36  P   UNL d   1       8.312  -2.570 -16.446 -0.03 -0.13    +0.473 P 
DOCKED: ATOM     37  O   UNL d   1       8.325  -1.257 -17.163 -0.03 -0.01    -0.228 OA
DOCKED: BRANCH  36  38
DOCKED: ATOM     38  O   UNL d   1       7.529  -3.726 -17.211 -0.07 +0.21    -0.303 OA
DOCKED: ATOM     39  H   UNL d   1       6.935  -4.185 -16.578 -0.40 -0.32    +0.222 HD
DOCKED: ENDBRANCH  36  38
DOCKED: BRANCH  36  40
DOCKED: ATOM     40  O   UNL d   1       7.687  -2.587 -14.983 -0.15 +0.13    -0.303 OA
DOCKED: ATOM     41  H   UNL d   1       7.835  -3.449 -14.534 -0.38 -0.17    +0.222 HD
DOCKED: ENDBRANCH  36  40
DOCKED: ENDBRANCH  35  36
DOCKED: ENDBRANCH   5  35
DOCKED: BRANCH   4  42
DOCKED: ATOM     42  O   UNL d   1      11.507  -2.944 -18.512 -0.00 -0.01    -0.278 OA
DOCKED: BRANCH  42  43
DOCKED: ATOM     43  P   UNL d   1      10.610  -3.478 -19.717 +0.01 +0.01    +0.473 P 
DOCKED: ATOM     44  O   UNL d   1      10.695  -4.928 -20.047 -0.00 -0.00    -0.228 OA
DOCKED: BRANCH  43  45
DOCKED: ATOM     45  O   UNL d   1       9.152  -2.987 -19.311 -0.00 +0.01    -0.303 OA
DOCKED: ATOM     46  H   UNL d   1       9.028  -2.996 -18.341 +0.03 -0.02    +0.222 HD
DOCKED: ENDBRANCH  43  45
DOCKED: BRANCH  43  47
DOCKED: ATOM     47  O   UNL d   1      10.970  -2.475 -20.915 +0.00 -0.02    -0.303 OA
DOCKED: ATOM     48  H   UNL d   1      11.250  -1.614 -20.541 +0.00 +0.02    +0.222 HD
DOCKED: ENDBRANCH  43  47
DOCKED: ENDBRANCH  42  43
DOCKED: ENDBRANCH   4  42
DOCKED: TORSDOF 24
DOCKED: TER
DOCKED: ENDMDL
________________________________________________________________________________


	BEGINNING GENETIC ALGORITHM DOCKING 40 of 100
Run: 40 Seed: 1633648353 1470706169 [ Run 40 of 100 GA/GALS ]
Beginning LAMARCKIAN GENETIC ALGORITHM (LGA), with a maximum of 25000000 energy evaluations.

Final-Value: -19.126


	FINAL GENETIC ALGORITHM DOCKED STATE
	_______________________________________________


Detailed state:  trans 17.982 -0.772 2.635 quatxyzw 0.108830 0.164420 0.870089 -0.451738 center 0.035 0.082 -0.065 ntor 24 116.8274 67.7871 162.1552 5.7079 23.3380 -166.6157 -96.9201 43.6603 -26.3571 109.9481 172.9301 162.4143 179.8828 94.4563 -36.3826 16.9260 -87.8196 173.2447 12.8263 -36.2918 169.4423 176.0724 21.2450 -3.3271
State:	 17.982  -0.772   2.635   0.122  0.184  0.975 -126.289    116.83   67.79  162.16    5.71   23.34 -166.62  -96.92   43.66  -26.36  109.95  172.93  162.41  179.88   94.46  -36.38   16.93  -87.82  173.24   12.83  -36.29  169.44  176.07   21.24   -3.33

DOCKED: MODEL       40
DOCKED: USER    Run = 40
DOCKED: USER    DPF = D:/Protein_go_brrr/autodock/final/AncA/IHP/dock.dpf
DOCKED: USER  
DOCKED: USER    Estimated Free Energy of Binding    =   +2.32 kcal/mol  [=(1)+(2)+(3)-(4)]
DOCKED: USER    
DOCKED: USER    (1) Final Intermolecular Energy     =   -4.84 kcal/mol
DOCKED: USER        vdW + Hbond + desolv Energy     =   -4.54 kcal/mol
DOCKED: USER        Electrostatic Energy            =   -0.30 kcal/mol
DOCKED: USER    (2) Final Total Internal Energy     =  -14.28 kcal/mol
DOCKED: USER    (3) Torsional Free Energy           =   +7.16 kcal/mol
DOCKED: USER    (4) Unbound System's Energy  [=(2)] =  -14.28 kcal/mol
DOCKED: USER    
DOCKED: USER    
DOCKED: USER    NEWDPF move IHP_ideal_opt.pdbqt
DOCKED: USER    NEWDPF about 0.035000 0.082000 -0.065000
DOCKED: USER    NEWDPF tran0 17.981539 -0.772246 2.634715
DOCKED: USER    NEWDPF quaternion0 0.108830 0.164420 0.870089 -0.451738
DOCKED: USER    NEWDPF axisangle0 0.121986 0.184296 0.975271 -126.289485
DOCKED: USER    NEWDPF quat0 0.121986 0.184296 0.975271 -126.289485
DOCKED: USER    NEWDPF dihe0 116.83 67.79 162.16 5.71 23.34 -166.62 -96.92 43.66 -26.36 109.95 172.93 162.41 179.88 94.46 -36.38 16.93 -87.82 173.24 12.83 -36.29 169.44 176.07 21.24 -3.33 
DOCKED: USER  keepresnum = 1 
DOCKED: USER  
DOCKED: REMARK  24 active torsions:
DOCKED: REMARK  status: ('A' for Active; 'I' for Inactive)
DOCKED: REMARK    1  A    between atoms: C_1  and  O_7 
DOCKED: REMARK    2  A    between atoms: C_2  and  O_12 
DOCKED: REMARK    3  A    between atoms: C_3  and  O_17 
DOCKED: REMARK    4  A    between atoms: C_4  and  O_22 
DOCKED: REMARK    5  A    between atoms: C_5  and  O_27 
DOCKED: REMARK    6  A    between atoms: C_6  and  O_32 
DOCKED: REMARK    7  A    between atoms: O_7  and  P_8 
DOCKED: REMARK    8  A    between atoms: P_8  and  O_10 
DOCKED: REMARK    9  A    between atoms: P_8  and  O_11 
DOCKED: REMARK   10  A    between atoms: O_12  and  P_13 
DOCKED: REMARK   11  A    between atoms: P_13  and  O_15 
DOCKED: REMARK   12  A    between atoms: P_13  and  O_16 
DOCKED: REMARK   13  A    between atoms: O_17  and  P_18 
DOCKED: REMARK   14  A    between atoms: P_18  and  O_20 
DOCKED: REMARK   15  A    between atoms: P_18  and  O_21 
DOCKED: REMARK   16  A    between atoms: O_22  and  P_23 
DOCKED: REMARK   17  A    between atoms: P_23  and  O_25 
DOCKED: REMARK   18  A    between atoms: P_23  and  O_26 
DOCKED: REMARK   19  A    between atoms: O_27  and  P_28 
DOCKED: REMARK   20  A    between atoms: P_28  and  O_30 
DOCKED: REMARK   21  A    between atoms: P_28  and  O_31 
DOCKED: REMARK   22  A    between atoms: O_32  and  P_33 
DOCKED: REMARK   23  A    between atoms: P_33  and  O_35 
DOCKED: REMARK   24  A    between atoms: P_33  and  O_36 
DOCKED: USER                              x       y       z     vdW  Elec       q    Type
DOCKED: USER                           _______ _______ _______ _____ _____    ______ ____
DOCKED: ROOT
DOCKED: ATOM      1  C   UNL d   1      18.203   0.884   3.074 -0.14 +0.07    +0.194 C 
DOCKED: ATOM      2  C   UNL d   1      19.391   0.221   2.374 -0.09 +0.09    +0.194 C 
DOCKED: ATOM      3  C   UNL d   1      19.649  -1.189   2.909 -0.04 +0.07    +0.194 C 
DOCKED: ATOM      4  C   UNL d   1      18.405  -2.074   2.897 -0.07 +0.08    +0.194 C 
DOCKED: ATOM      5  C   UNL d   1      17.166  -1.410   3.483 -0.12 +0.07    +0.194 C 
DOCKED: ATOM      6  C   UNL d   1      16.942   0.023   2.995 +0.06 +0.08    +0.194 C 
DOCKED: ENDROOT
DOCKED: BRANCH   1   7
DOCKED: ATOM      7  O   UNL d   1      17.921   2.115   2.405 -0.21 -0.11    -0.278 OA
DOCKED: BRANCH   7   8
DOCKED: ATOM      8  P   UNL d   1      18.246   3.483   3.164 -0.20 +0.13    +0.473 P 
DOCKED: ATOM      9  O   UNL d   1      17.124   4.458   3.215 -0.36 -0.05    -0.228 OA
DOCKED: BRANCH   8  10
DOCKED: ATOM     10  O   UNL d   1      18.739   3.017   4.607 -0.05 -0.07    -0.303 OA
DOCKED: ATOM     11  H   UNL d   1      18.180   2.282   4.922 +0.06 +0.05    +0.222 HD
DOCKED: ENDBRANCH   8  10
DOCKED: BRANCH   8  12
DOCKED: ATOM     12  O   UNL d   1      19.594   4.010   2.506 -0.15 -0.10    -0.303 OA
DOCKED: ATOM     13  H   UNL d   1      19.751   3.646   1.606 +0.07 +0.08    +0.222 HD
DOCKED: ENDBRANCH   8  12
DOCKED: ENDBRANCH   7   8
DOCKED: ENDBRANCH   1   7
DOCKED: BRANCH   2  14
DOCKED: ATOM     14  O   UNL d   1      19.116   0.133   0.970 -0.12 -0.24    -0.278 OA
DOCKED: BRANCH  14  15
DOCKED: ATOM     15  P   UNL d   1      19.693   1.312   0.052 -0.08 +0.37    +0.473 P 
DOCKED: ATOM     16  O   UNL d   1      20.044   0.955  -1.358 -0.31 -0.27    -0.228 OA
DOCKED: BRANCH  15  17
DOCKED: ATOM     17  O   UNL d   1      18.584   2.452   0.143 -0.26 -0.19    -0.303 OA
DOCKED: ATOM     18  H   UNL d   1      18.529   2.818   1.046 +0.09 +0.11    +0.222 HD
DOCKED: ENDBRANCH  15  17
DOCKED: BRANCH  15  19
DOCKED: ATOM     19  O   UNL d   1      20.872   1.944   0.914 -0.04 -0.12    -0.303 OA
DOCKED: ATOM     20  H   UNL d   1      20.569   2.206   1.802 +0.05 +0.07    +0.222 HD
DOCKED: ENDBRANCH  15  19
DOCKED: ENDBRANCH  14  15
DOCKED: ENDBRANCH   2  14
DOCKED: BRANCH   6  21
DOCKED: ATOM     21  O   UNL d   1      15.979   0.610   3.868 -0.18 -0.06    -0.278 OA
DOCKED: BRANCH  21  22
DOCKED: ATOM     22  P   UNL d   1      16.356   0.882   5.394 -0.14 +0.07    +0.473 P 
DOCKED: ATOM     23  O   UNL d   1      17.668   0.380   5.896 -0.04 -0.04    -0.228 OA
DOCKED: BRANCH  22  24
DOCKED: ATOM     24  O   UNL d   1      16.159   2.458   5.502 -0.21 -0.06    -0.303 OA
DOCKED: ATOM     25  H   UNL d   1      16.547   2.873   4.690 +0.09 +0.05    +0.222 HD
DOCKED: ENDBRANCH  22  24
DOCKED: BRANCH  22  26
DOCKED: ATOM     26  O   UNL d   1      15.056   0.332   6.153 -0.22 -0.03    -0.303 OA
DOCKED: ATOM     27  H   UNL d   1      14.565  -0.269   5.557 -0.01 +0.02    +0.222 HD
DOCKED: ENDBRANCH  22  26
DOCKED: ENDBRANCH  21  22
DOCKED: ENDBRANCH   6  21
DOCKED: BRANCH   3  28
DOCKED: ATOM     28  O   UNL d   1      20.569  -1.820   2.027 -0.02 -0.12    -0.278 OA
DOCKED: BRANCH  28  29
DOCKED: ATOM     29  P   UNL d   1      20.097  -2.307   0.586 -0.06 +0.40    +0.473 P 
DOCKED: ATOM     30  O   UNL d   1      18.634  -2.247   0.337 -0.58 -0.37    -0.228 OA
DOCKED: BRANCH  29  31
DOCKED: ATOM     31  O   UNL d   1      21.029  -1.391  -0.338 -0.09 -0.25    -0.303 OA
DOCKED: ATOM     32  H   UNL d   1      21.009  -0.470   0.011 +0.02 +0.16    +0.222 HD
DOCKED: ENDBRANCH  29  31
DOCKED: BRANCH  29  33
DOCKED: ATOM     33  O   UNL d   1      20.788  -3.737   0.474 -0.01 -0.15    -0.303 OA
DOCKED: ATOM     34  H   UNL d   1      20.108  -4.436   0.636 +0.02 +0.10    +0.222 HD
DOCKED: ENDBRANCH  29  33
DOCKED: ENDBRANCH  28  29
DOCKED: ENDBRANCH   3  28
DOCKED: BRANCH   5  35
DOCKED: ATOM     35  O   UNL d   1      16.059  -2.186   3.028 -0.13 -0.10    -0.278 OA
DOCKED: BRANCH  35  36
DOCKED: ATOM     36  P   UNL d   1      14.722  -2.265   3.894 -0.18 +0.12    +0.473 P 
DOCKED: ATOM     37  O   UNL d   1      14.916  -2.446   5.366 -0.13 -0.04    -0.228 OA
DOCKED: BRANCH  36  38
DOCKED: ATOM     38  O   UNL d   1      13.994  -0.906   3.492 -0.32 -0.05    -0.303 OA
DOCKED: ATOM     39  H   UNL d   1      14.192  -0.224   4.169 -0.36 -0.02    +0.222 HD
DOCKED: ENDBRANCH  36  38
DOCKED: BRANCH  36  40
DOCKED: ATOM     40  O   UNL d   1      13.889  -3.385   3.132 -0.18 -0.08    -0.303 OA
DOCKED: ATOM     41  H   UNL d   1      14.302  -4.272   3.225 +0.10 +0.07    +0.222 HD
DOCKED: ENDBRANCH  36  40
DOCKED: ENDBRANCH  35  36
DOCKED: ENDBRANCH   5  35
DOCKED: BRANCH   4  42
DOCKED: ATOM     42  O   UNL d   1      18.699  -3.212   3.714 -0.01 -0.08    -0.278 OA
DOCKED: BRANCH  42  43
DOCKED: ATOM     43  P   UNL d   1      18.777  -4.652   3.032 +0.00 +0.14    +0.473 P 
DOCKED: ATOM     44  O   UNL d   1      18.211  -5.803   3.790 -0.01 -0.05    -0.228 OA
DOCKED: BRANCH  43  45
DOCKED: ATOM     45  O   UNL d   1      18.092  -4.405   1.617 -0.03 -0.14    -0.303 OA
DOCKED: ATOM     46  H   UNL d   1      18.760  -4.290   0.911 +0.03 +0.12    +0.222 HD
DOCKED: ENDBRANCH  43  45
DOCKED: BRANCH  43  47
DOCKED: ATOM     47  O   UNL d   1      20.323  -4.783   2.628 +0.00 -0.08    -0.303 OA
DOCKED: ATOM     48  H   UNL d   1      20.730  -3.892   2.617 +0.01 +0.06    +0.222 HD
DOCKED: ENDBRANCH  43  47
DOCKED: ENDBRANCH  42  43
DOCKED: ENDBRANCH   4  42
DOCKED: TORSDOF 24
DOCKED: TER
DOCKED: ENDMDL
________________________________________________________________________________


	BEGINNING GENETIC ALGORITHM DOCKING 41 of 100
Run: 41 Seed: 145331536 490186342 [ Run 41 of 100 GA/GALS ]
Beginning LAMARCKIAN GENETIC ALGORITHM (LGA), with a maximum of 25000000 energy evaluations.

Final-Value: -17.284


	FINAL GENETIC ALGORITHM DOCKED STATE
	_______________________________________________


Detailed state:  trans 19.062 6.594 -12.831 quatxyzw 0.840286 0.370956 0.394318 0.028717 center 0.035 0.082 -0.065 ntor 24 128.9818 97.5344 114.4843 111.8307 -180.0000 175.3808 -132.7638 -15.7057 87.5896 -162.3371 73.9355 -180.0000 -86.1582 69.2197 115.0156 -164.6626 111.4082 160.5725 48.9019 13.8740 -58.1361 8.9918 155.3558 -9.0699
State:	 19.062   6.594 -12.831   0.841  0.371  0.394 176.709    128.98   97.53  114.48  111.83 -180.00  175.38 -132.76  -15.71   87.59 -162.34   73.94 -180.00  -86.16   69.22  115.02 -164.66  111.41  160.57   48.90   13.87  -58.14    8.99  155.36   -9.07

DOCKED: MODEL       41
DOCKED: USER    Run = 41
DOCKED: USER    DPF = D:/Protein_go_brrr/autodock/final/AncA/IHP/dock.dpf
DOCKED: USER  
DOCKED: USER    Estimated Free Energy of Binding    =   +3.41 kcal/mol  [=(1)+(2)+(3)-(4)]
DOCKED: USER    
DOCKED: USER    (1) Final Intermolecular Energy     =   -3.75 kcal/mol
DOCKED: USER        vdW + Hbond + desolv Energy     =   -3.60 kcal/mol
DOCKED: USER        Electrostatic Energy            =   -0.15 kcal/mol
DOCKED: USER    (2) Final Total Internal Energy     =  -13.54 kcal/mol
DOCKED: USER    (3) Torsional Free Energy           =   +7.16 kcal/mol
DOCKED: USER    (4) Unbound System's Energy  [=(2)] =  -13.54 kcal/mol
DOCKED: USER    
DOCKED: USER    
DOCKED: USER    NEWDPF move IHP_ideal_opt.pdbqt
DOCKED: USER    NEWDPF about 0.035000 0.082000 -0.065000
DOCKED: USER    NEWDPF tran0 19.062251 6.593909 -12.831242
DOCKED: USER    NEWDPF quaternion0 0.840286 0.370956 0.394318 0.028717
DOCKED: USER    NEWDPF axisangle0 0.840632 0.371109 0.394481 176.708860
DOCKED: USER    NEWDPF quat0 0.840632 0.371109 0.394481 176.708860
DOCKED: USER    NEWDPF dihe0 128.98 97.53 114.48 111.83 -180.00 175.38 -132.76 -15.71 87.59 -162.34 73.94 -180.00 -86.16 69.22 115.02 -164.66 111.41 160.57 48.90 13.87 -58.14 8.99 155.36 -9.07 
DOCKED: USER  keepresnum = 1 
DOCKED: USER  
DOCKED: REMARK  24 active torsions:
DOCKED: REMARK  status: ('A' for Active; 'I' for Inactive)
DOCKED: REMARK    1  A    between atoms: C_1  and  O_7 
DOCKED: REMARK    2  A    between atoms: C_2  and  O_12 
DOCKED: REMARK    3  A    between atoms: C_3  and  O_17 
DOCKED: REMARK    4  A    between atoms: C_4  and  O_22 
DOCKED: REMARK    5  A    between atoms: C_5  and  O_27 
DOCKED: REMARK    6  A    between atoms: C_6  and  O_32 
DOCKED: REMARK    7  A    between atoms: O_7  and  P_8 
DOCKED: REMARK    8  A    between atoms: P_8  and  O_10 
DOCKED: REMARK    9  A    between atoms: P_8  and  O_11 
DOCKED: REMARK   10  A    between atoms: O_12  and  P_13 
DOCKED: REMARK   11  A    between atoms: P_13  and  O_15 
DOCKED: REMARK   12  A    between atoms: P_13  and  O_16 
DOCKED: REMARK   13  A    between atoms: O_17  and  P_18 
DOCKED: REMARK   14  A    between atoms: P_18  and  O_20 
DOCKED: REMARK   15  A    between atoms: P_18  and  O_21 
DOCKED: REMARK   16  A    between atoms: O_22  and  P_23 
DOCKED: REMARK   17  A    between atoms: P_23  and  O_25 
DOCKED: REMARK   18  A    between atoms: P_23  and  O_26 
DOCKED: REMARK   19  A    between atoms: O_27  and  P_28 
DOCKED: REMARK   20  A    between atoms: P_28  and  O_30 
DOCKED: REMARK   21  A    between atoms: P_28  and  O_31 
DOCKED: REMARK   22  A    between atoms: O_32  and  P_33 
DOCKED: REMARK   23  A    between atoms: P_33  and  O_35 
DOCKED: REMARK   24  A    between atoms: P_33  and  O_36 
DOCKED: USER                              x       y       z     vdW  Elec       q    Type
DOCKED: USER                           _______ _______ _______ _____ _____    ______ ____
DOCKED: ROOT
DOCKED: ATOM      1  C   UNL d   1      19.514   8.258 -12.735 -0.04 +0.03    +0.194 C 
DOCKED: ATOM      2  C   UNL d   1      18.242   7.964 -13.531 -0.06 +0.03    +0.194 C 
DOCKED: ATOM      3  C   UNL d   1      18.411   6.744 -14.439 -0.05 +0.03    +0.194 C 
DOCKED: ATOM      4  C   UNL d   1      18.927   5.512 -13.699 -0.05 +0.03    +0.194 C 
DOCKED: ATOM      5  C   UNL d   1      20.127   5.784 -12.802 -0.03 +0.04    +0.194 C 
DOCKED: ATOM      6  C   UNL d   1      19.984   7.040 -11.940 -0.08 +0.04    +0.194 C 
DOCKED: ENDROOT
DOCKED: BRANCH   1   7
DOCKED: ATOM      7  O   UNL d   1      19.222   9.294 -11.794 -0.06 -0.06    -0.278 OA
DOCKED: BRANCH   7   8
DOCKED: ATOM      8  P   UNL d   1      19.050  10.787 -12.337 -0.00 +0.07    +0.473 P 
DOCKED: ATOM      9  O   UNL d   1      19.923  11.144 -13.489 -0.00 -0.02    -0.228 OA
DOCKED: BRANCH   8  10
DOCKED: ATOM     10  O   UNL d   1      17.494  10.900 -12.670 -0.02 -0.04    -0.303 OA
DOCKED: ATOM     11  H   UNL d   1      17.146  10.021 -12.911 +0.04 +0.04    +0.222 HD
DOCKED: ENDBRANCH   8  10
DOCKED: BRANCH   8  12
DOCKED: ATOM     12  O   UNL d   1      19.183  11.712 -11.052 -0.01 -0.04    -0.303 OA
DOCKED: ATOM     13  H   UNL d   1      19.997  11.532 -10.530 +0.03 +0.03    +0.222 HD
DOCKED: ENDBRANCH   8  12
DOCKED: ENDBRANCH   7   8
DOCKED: ENDBRANCH   1   7
DOCKED: BRANCH   2  14
DOCKED: ATOM     14  O   UNL d   1      17.168   7.709 -12.618 -0.15 -0.06    -0.278 OA
DOCKED: BRANCH  14  15
DOCKED: ATOM     15  P   UNL d   1      15.713   8.205 -13.067 -0.18 +0.07    +0.473 P 
DOCKED: ATOM     16  O   UNL d   1      14.629   7.173 -13.090 -0.28 -0.01    -0.228 OA
DOCKED: BRANCH  15  17
DOCKED: ATOM     17  O   UNL d   1      15.394   9.414 -12.079 -0.13 -0.05    -0.303 OA
DOCKED: ATOM     18  H   UNL d   1      16.210   9.756 -11.667 +0.07 +0.06    +0.222 HD
DOCKED: ENDBRANCH  15  17
DOCKED: BRANCH  15  19
DOCKED: ATOM     19  O   UNL d   1      15.961   8.970 -14.439 -0.05 -0.04    -0.303 OA
DOCKED: ATOM     20  H   UNL d   1      16.464   8.424 -15.071 +0.04 +0.03    +0.222 HD
DOCKED: ENDBRANCH  15  19
DOCKED: ENDBRANCH  14  15
DOCKED: ENDBRANCH   2  14
DOCKED: BRANCH   6  21
DOCKED: ATOM     21  O   UNL d   1      21.282   7.344 -11.435 -0.03 -0.06    -0.278 OA
DOCKED: BRANCH  21  22
DOCKED: ATOM     22  P   UNL d   1      21.434   8.284 -10.155 -0.05 +0.11    +0.473 P 
DOCKED: ATOM     23  O   UNL d   1      22.543   7.998  -9.199 -0.06 -0.04    -0.228 OA
DOCKED: BRANCH  22  24
DOCKED: ATOM     24  O   UNL d   1      21.480   9.730 -10.817 -0.01 -0.05    -0.303 OA
DOCKED: ATOM     25  H   UNL d   1      20.667  10.223 -10.538 +0.03 +0.04    +0.222 HD
DOCKED: ENDBRANCH  22  24
DOCKED: BRANCH  22  26
DOCKED: ATOM     26  O   UNL d   1      19.952   8.246  -9.545 -0.69 -0.15    -0.303 OA
DOCKED: ATOM     27  H   UNL d   1      19.393   7.661 -10.096 +0.05 +0.14    +0.222 HD
DOCKED: ENDBRANCH  22  26
DOCKED: ENDBRANCH  21  22
DOCKED: ENDBRANCH   6  21
DOCKED: BRANCH   3  28
DOCKED: ATOM     28  O   UNL d   1      17.121   6.384 -14.917 -0.08 -0.04    -0.278 OA
DOCKED: BRANCH  28  29
DOCKED: ATOM     29  P   UNL d   1      16.813   6.387 -16.480 -0.06 +0.07    +0.473 P 
DOCKED: ATOM     30  O   UNL d   1      15.525   5.765 -16.880 -0.10 -0.04    -0.228 OA
DOCKED: BRANCH  29  31
DOCKED: ATOM     31  O   UNL d   1      16.996   7.945 -16.797 -0.02 -0.04    -0.303 OA
DOCKED: ATOM     32  H   UNL d   1      16.169   8.416 -16.545 +0.03 +0.03    +0.222 HD
DOCKED: ENDBRANCH  29  31
DOCKED: BRANCH  29  33
DOCKED: ATOM     33  O   UNL d   1      18.140   5.746 -17.083 -0.02 -0.03    -0.303 OA
DOCKED: ATOM     34  H   UNL d   1      18.404   4.972 -16.528 +0.02 +0.03    +0.222 HD
DOCKED: ENDBRANCH  29  33
DOCKED: ENDBRANCH  28  29
DOCKED: ENDBRANCH   3  28
DOCKED: BRANCH   5  35
DOCKED: ATOM     35  O   UNL d   1      20.207   4.671 -11.914 -0.03 -0.07    -0.278 OA
DOCKED: BRANCH  35  36
DOCKED: ATOM     36  P   UNL d   1      19.162   4.520 -10.718 -0.18 +0.21    +0.473 P 
DOCKED: ATOM     37  O   UNL d   1      18.953   3.127 -10.216 -0.51 -0.26    -0.228 OA
DOCKED: BRANCH  36  38
DOCKED: ATOM     38  O   UNL d   1      19.760   5.523  -9.634 -0.13 -0.14    -0.303 OA
DOCKED: ATOM     39  H   UNL d   1      20.389   6.134 -10.075 +0.05 +0.08    +0.222 HD
DOCKED: ENDBRANCH  36  38
DOCKED: BRANCH  36  40
DOCKED: ATOM     40  O   UNL d   1      17.886   5.284 -11.283 -0.24 -0.08    -0.303 OA
DOCKED: ATOM     41  H   UNL d   1      17.057   4.973 -10.855 -0.47 +0.01    +0.222 HD
DOCKED: ENDBRANCH  36  40
DOCKED: ENDBRANCH  35  36
DOCKED: ENDBRANCH   5  35
DOCKED: BRANCH   4  42
DOCKED: ATOM     42  O   UNL d   1      19.350   4.577 -14.697 -0.02 -0.04    -0.278 OA
DOCKED: BRANCH  42  43
DOCKED: ATOM     43  P   UNL d   1      18.655   3.142 -14.755 -0.01 +0.06    +0.473 P 
DOCKED: ATOM     44  O   UNL d   1      19.446   2.019 -15.331 -0.01 -0.02    -0.228 OA
DOCKED: BRANCH  43  45
DOCKED: ATOM     45  O   UNL d   1      18.203   2.913 -13.246 -0.07 -0.06    -0.303 OA
DOCKED: ATOM     46  H   UNL d   1      18.437   3.677 -12.682 +0.07 +0.06    +0.222 HD
DOCKED: ENDBRANCH  43  45
DOCKED: BRANCH  43  47
DOCKED: ATOM     47  O   UNL d   1      17.254   3.442 -15.473 -0.06 -0.04    -0.303 OA
DOCKED: ATOM     48  H   UNL d   1      17.189   4.400 -15.666 +0.03 +0.03    +0.222 HD
DOCKED: ENDBRANCH  43  47
DOCKED: ENDBRANCH  42  43
DOCKED: ENDBRANCH   4  42
DOCKED: TORSDOF 24
DOCKED: TER
DOCKED: ENDMDL
________________________________________________________________________________


	BEGINNING GENETIC ALGORITHM DOCKING 42 of 100
Run: 42 Seed: 405486894 1919167587 [ Run 42 of 100 GA/GALS ]
Beginning LAMARCKIAN GENETIC ALGORITHM (LGA), with a maximum of 25000000 energy evaluations.

Final-Value: -18.474


	FINAL GENETIC ALGORITHM DOCKED STATE
	_______________________________________________


Detailed state:  trans 6.194 -10.162 8.776 quatxyzw 0.416210 0.339648 0.839578 0.080733 center 0.035 0.082 -0.065 ntor 24 -149.5155 7.5035 112.9728 93.6174 8.9427 154.2764 -76.3992 30.1776 156.5774 16.9279 112.9418 151.8805 18.7317 96.4753 152.5134 9.6105 170.5150 -140.2586 -0.4523 -4.4145 -23.7331 -5.5809 170.5673 2.2567
State:	  6.194 -10.162   8.776   0.418  0.341  0.842 170.739   -149.52    7.50  112.97   93.62    8.94  154.28  -76.40   30.18  156.58   16.93  112.94  151.88   18.73   96.48  152.51    9.61  170.52 -140.26   -0.45   -4.41  -23.73   -5.58  170.57    2.26

DOCKED: MODEL       42
DOCKED: USER    Run = 42
DOCKED: USER    DPF = D:/Protein_go_brrr/autodock/final/AncA/IHP/dock.dpf
DOCKED: USER  
DOCKED: USER    Estimated Free Energy of Binding    =   +3.16 kcal/mol  [=(1)+(2)+(3)-(4)]
DOCKED: USER    
DOCKED: USER    (1) Final Intermolecular Energy     =   -4.00 kcal/mol
DOCKED: USER        vdW + Hbond + desolv Energy     =   -3.77 kcal/mol
DOCKED: USER        Electrostatic Energy            =   -0.23 kcal/mol
DOCKED: USER    (2) Final Total Internal Energy     =  -14.48 kcal/mol
DOCKED: USER    (3) Torsional Free Energy           =   +7.16 kcal/mol
DOCKED: USER    (4) Unbound System's Energy  [=(2)] =  -14.48 kcal/mol
DOCKED: USER    
DOCKED: USER    
DOCKED: USER    NEWDPF move IHP_ideal_opt.pdbqt
DOCKED: USER    NEWDPF about 0.035000 0.082000 -0.065000
DOCKED: USER    NEWDPF tran0 6.194256 -10.162128 8.775673
DOCKED: USER    NEWDPF quaternion0 0.416210 0.339648 0.839578 0.080733
DOCKED: USER    NEWDPF axisangle0 0.417573 0.340760 0.842327 170.738641
DOCKED: USER    NEWDPF quat0 0.417573 0.340760 0.842327 170.738641
DOCKED: USER    NEWDPF dihe0 -149.52 7.50 112.97 93.62 8.94 154.28 -76.40 30.18 156.58 16.93 112.94 151.88 18.73 96.48 152.51 9.61 170.52 -140.26 -0.45 -4.41 -23.73 -5.58 170.57 2.26 
DOCKED: USER  keepresnum = 1 
DOCKED: USER  
DOCKED: REMARK  24 active torsions:
DOCKED: REMARK  status: ('A' for Active; 'I' for Inactive)
DOCKED: REMARK    1  A    between atoms: C_1  and  O_7 
DOCKED: REMARK    2  A    between atoms: C_2  and  O_12 
DOCKED: REMARK    3  A    between atoms: C_3  and  O_17 
DOCKED: REMARK    4  A    between atoms: C_4  and  O_22 
DOCKED: REMARK    5  A    between atoms: C_5  and  O_27 
DOCKED: REMARK    6  A    between atoms: C_6  and  O_32 
DOCKED: REMARK    7  A    between atoms: O_7  and  P_8 
DOCKED: REMARK    8  A    between atoms: P_8  and  O_10 
DOCKED: REMARK    9  A    between atoms: P_8  and  O_11 
DOCKED: REMARK   10  A    between atoms: O_12  and  P_13 
DOCKED: REMARK   11  A    between atoms: P_13  and  O_15 
DOCKED: REMARK   12  A    between atoms: P_13  and  O_16 
DOCKED: REMARK   13  A    between atoms: O_17  and  P_18 
DOCKED: REMARK   14  A    between atoms: P_18  and  O_20 
DOCKED: REMARK   15  A    between atoms: P_18  and  O_21 
DOCKED: REMARK   16  A    between atoms: O_22  and  P_23 
DOCKED: REMARK   17  A    between atoms: P_23  and  O_25 
DOCKED: REMARK   18  A    between atoms: P_23  and  O_26 
DOCKED: REMARK   19  A    between atoms: O_27  and  P_28 
DOCKED: REMARK   20  A    between atoms: P_28  and  O_30 
DOCKED: REMARK   21  A    between atoms: P_28  and  O_31 
DOCKED: REMARK   22  A    between atoms: O_32  and  P_33 
DOCKED: REMARK   23  A    between atoms: P_33  and  O_35 
DOCKED: REMARK   24  A    between atoms: P_33  and  O_36 
DOCKED: USER                              x       y       z     vdW  Elec       q    Type
DOCKED: USER                           _______ _______ _______ _____ _____    ______ ____
DOCKED: ROOT
DOCKED: ATOM      1  C   UNL d   1       5.530  -8.802   9.608 -0.13 +0.05    +0.194 C 
DOCKED: ATOM      2  C   UNL d   1       5.755  -8.613   8.107 -0.14 +0.04    +0.194 C 
DOCKED: ATOM      3  C   UNL d   1       7.103  -9.183   7.660 -0.06 +0.04    +0.194 C 
DOCKED: ATOM      4  C   UNL d   1       7.320 -10.629   8.098 -0.02 +0.05    +0.194 C 
DOCKED: ATOM      5  C   UNL d   1       6.996 -10.888   9.564 -0.02 +0.06    +0.194 C 
DOCKED: ATOM      6  C   UNL d   1       5.677 -10.265  10.027 -0.07 +0.09    +0.194 C 
DOCKED: ENDROOT
DOCKED: BRANCH   1   7
DOCKED: ATOM      7  O   UNL d   1       4.190  -8.405   9.911 -0.17 -0.08    -0.278 OA
DOCKED: BRANCH   7   8
DOCKED: ATOM      8  P   UNL d   1       3.967  -7.261  11.004 -0.27 -0.02    +0.473 P 
DOCKED: ATOM      9  O   UNL d   1       4.382  -5.895  10.582 -0.59 +0.02    -0.228 OA
DOCKED: BRANCH   8  10
DOCKED: ATOM     10  O   UNL d   1       2.415  -7.364  11.360 -0.37 +0.05    -0.303 OA
DOCKED: ATOM     11  H   UNL d   1       2.196  -8.283  11.602 +0.10 -0.01    +0.222 HD
DOCKED: ENDBRANCH   8  10
DOCKED: BRANCH   8  12
DOCKED: ATOM     12  O   UNL d   1       4.649  -7.816  12.328 -0.10 +0.02    -0.303 OA
DOCKED: ATOM     13  H   UNL d   1       4.523  -8.784  12.450 +0.07 +0.03    +0.222 HD
DOCKED: ENDBRANCH   8  12
DOCKED: ENDBRANCH   7   8
DOCKED: ENDBRANCH   1   7
DOCKED: BRANCH   2  14
DOCKED: ATOM     14  O   UNL d   1       4.714  -9.288   7.389 -0.14 -0.11    -0.278 OA
DOCKED: BRANCH  14  15
DOCKED: ATOM     15  P   UNL d   1       3.913  -8.421   6.307 -0.23 +0.13    +0.473 P 
DOCKED: ATOM     16  O   UNL d   1       3.327  -9.167   5.149 -0.25 -0.04    -0.228 OA
DOCKED: BRANCH  15  17
DOCKED: ATOM     17  O   UNL d   1       2.814  -7.650   7.164 -0.34 -0.08    -0.303 OA
DOCKED: ATOM     18  H   UNL d   1       3.041  -7.655   8.114 +0.13 +0.06    +0.222 HD
DOCKED: ENDBRANCH  15  17
DOCKED: BRANCH  15  19
DOCKED: ATOM     19  O   UNL d   1       4.909  -7.240   5.928 -0.24 -0.06    -0.303 OA
DOCKED: ATOM     20  H   UNL d   1       5.839  -7.532   5.951 +0.14 +0.05    +0.222 HD
DOCKED: ENDBRANCH  15  19
DOCKED: ENDBRANCH  14  15
DOCKED: ENDBRANCH   2  14
DOCKED: BRANCH   6  21
DOCKED: ATOM     21  O   UNL d   1       5.685 -10.294  11.452 -0.03 -0.10    -0.278 OA
DOCKED: BRANCH  21  22
DOCKED: ATOM     22  P   UNL d   1       4.471 -10.967  12.238 -0.03 +0.33    +0.473 P 
DOCKED: ATOM     23  O   UNL d   1       4.486 -10.924  13.729 -0.01 -0.07    -0.228 OA
DOCKED: BRANCH  22  24
DOCKED: ATOM     24  O   UNL d   1       3.215 -10.262  11.562 -0.02 -0.37    -0.303 OA
DOCKED: ATOM     25  H   UNL d   1       3.316  -9.282  11.671 +0.07 +0.11    +0.222 HD
DOCKED: ENDBRANCH  22  24
DOCKED: BRANCH  22  26
DOCKED: ATOM     26  O   UNL d   1       4.426 -12.427  11.577 -0.61 -0.37    -0.303 OA
DOCKED: ATOM     27  H   UNL d   1       4.889 -12.405  10.715 +0.01 +0.24    +0.222 HD
DOCKED: ENDBRANCH  22  26
DOCKED: ENDBRANCH  21  22
DOCKED: ENDBRANCH   6  21
DOCKED: BRANCH   3  28
DOCKED: ATOM     28  O   UNL d   1       7.104  -9.215   6.238 -0.04 -0.08    -0.278 OA
DOCKED: BRANCH  28  29
DOCKED: ATOM     29  P   UNL d   1       7.944  -8.145   5.410 -0.08 +0.14    +0.473 P 
DOCKED: ATOM     30  O   UNL d   1       8.378  -6.944   6.169 -0.22 -0.05    -0.228 OA
DOCKED: BRANCH  29  31
DOCKED: ATOM     31  O   UNL d   1       9.095  -9.088   4.822 -0.07 -0.15    -0.303 OA
DOCKED: ATOM     32  H   UNL d   1       9.195  -9.868   5.415 +0.05 +0.10    +0.222 HD
DOCKED: ENDBRANCH  29  31
DOCKED: BRANCH  29  33
DOCKED: ATOM     33  O   UNL d   1       7.011  -7.897   4.143 -0.23 -0.09    -0.303 OA
DOCKED: ATOM     34  H   UNL d   1       6.381  -7.163   4.347 +0.14 +0.05    +0.222 HD
DOCKED: ENDBRANCH  29  33
DOCKED: ENDBRANCH  28  29
DOCKED: ENDBRANCH   3  28
DOCKED: BRANCH   5  35
DOCKED: ATOM     35  O   UNL d   1       6.858 -12.302   9.686 -0.01 -0.10    -0.278 OA
DOCKED: BRANCH  35  36
DOCKED: ATOM     36  P   UNL d   1       5.767 -13.082   8.821 -0.04 +0.25    +0.473 P 
DOCKED: ATOM     37  O   UNL d   1       5.127 -14.253   9.496 -0.05 -0.14    -0.228 OA
DOCKED: BRANCH  36  38
DOCKED: ATOM     38  O   UNL d   1       4.756 -11.912   8.441 -0.02 -0.25    -0.303 OA
DOCKED: ATOM     39  H   UNL d   1       5.071 -11.468   7.624 +0.03 +0.13    +0.222 HD
DOCKED: ENDBRANCH  36  38
DOCKED: BRANCH  36  40
DOCKED: ATOM     40  O   UNL d   1       6.549 -13.367   7.466 -0.01 -0.11    -0.303 OA
DOCKED: ATOM     41  H   UNL d   1       7.273 -12.719   7.319 +0.01 +0.07    +0.222 HD
DOCKED: ENDBRANCH  36  40
DOCKED: ENDBRANCH  35  36
DOCKED: ENDBRANCH   5  35
DOCKED: BRANCH   4  42
DOCKED: ATOM     42  O   UNL d   1       8.711 -10.913   7.918 -0.00 -0.07    -0.278 OA
DOCKED: BRANCH  42  43
DOCKED: ATOM     43  P   UNL d   1       9.152 -11.895   6.741 +0.01 +0.14    +0.473 P 
DOCKED: ATOM     44  O   UNL d   1       9.338 -13.334   7.081 +0.00 -0.06    -0.228 OA
DOCKED: BRANCH  43  45
DOCKED: ATOM     45  O   UNL d   1       8.045 -11.627   5.630 +0.00 -0.10    -0.303 OA
DOCKED: ATOM     46  H   UNL d   1       7.821 -10.677   5.570 +0.04 +0.08    +0.222 HD
DOCKED: ENDBRANCH  43  45
DOCKED: BRANCH  43  47
DOCKED: ATOM     47  O   UNL d   1      10.430 -11.162   6.111 -0.00 -0.11    -0.303 OA
DOCKED: ATOM     48  H   UNL d   1      10.342 -10.194   6.236 +0.03 +0.08    +0.222 HD
DOCKED: ENDBRANCH  43  47
DOCKED: ENDBRANCH  42  43
DOCKED: ENDBRANCH   4  42
DOCKED: TORSDOF 24
DOCKED: TER
DOCKED: ENDMDL
________________________________________________________________________________


	BEGINNING GENETIC ALGORITHM DOCKING 43 of 100
Run: 43 Seed: 101892565 551298484 [ Run 43 of 100 GA/GALS ]
Beginning LAMARCKIAN GENETIC ALGORITHM (LGA), with a maximum of 25000000 energy evaluations.

Final-Value: -16.936


	FINAL GENETIC ALGORITHM DOCKED STATE
	_______________________________________________


Detailed state:  trans 12.142 7.808 -16.542 quatxyzw -0.445089 0.784669 0.424014 0.080017 center 0.035 0.082 -0.065 ntor 24 91.6575 44.1603 77.7177 93.0870 -42.3203 171.9948 -124.7033 -15.5727 121.8560 130.3588 144.1269 107.0447 -141.8111 117.1166 -130.2430 -176.5054 7.5648 32.9946 -31.2375 -9.8810 146.7423 9.8198 -34.8638 -176.3839
State:	 12.142   7.808 -16.542  -0.447  0.787  0.425 170.821     91.66   44.16   77.72   93.09  -42.32  171.99 -124.70  -15.57  121.86  130.36  144.13  107.04 -141.81  117.12 -130.24 -176.51    7.56   32.99  -31.24   -9.88  146.74    9.82  -34.86 -176.38

DOCKED: MODEL       43
DOCKED: USER    Run = 43
DOCKED: USER    DPF = D:/Protein_go_brrr/autodock/final/AncA/IHP/dock.dpf
DOCKED: USER  
DOCKED: USER    Estimated Free Energy of Binding    =   +2.74 kcal/mol  [=(1)+(2)+(3)-(4)]
DOCKED: USER    
DOCKED: USER    (1) Final Intermolecular Energy     =   -4.42 kcal/mol
DOCKED: USER        vdW + Hbond + desolv Energy     =   -4.11 kcal/mol
DOCKED: USER        Electrostatic Energy            =   -0.31 kcal/mol
DOCKED: USER    (2) Final Total Internal Energy     =  -12.51 kcal/mol
DOCKED: USER    (3) Torsional Free Energy           =   +7.16 kcal/mol
DOCKED: USER    (4) Unbound System's Energy  [=(2)] =  -12.51 kcal/mol
DOCKED: USER    
DOCKED: USER    
DOCKED: USER    NEWDPF move IHP_ideal_opt.pdbqt
DOCKED: USER    NEWDPF about 0.035000 0.082000 -0.065000
DOCKED: USER    NEWDPF tran0 12.142462 7.808415 -16.541773
DOCKED: USER    NEWDPF quaternion0 -0.445089 0.784669 0.424014 0.080017
DOCKED: USER    NEWDPF axisangle0 -0.446521 0.787193 0.425378 170.820890
DOCKED: USER    NEWDPF quat0 -0.446521 0.787193 0.425378 170.820890
DOCKED: USER    NEWDPF dihe0 91.66 44.16 77.72 93.09 -42.32 171.99 -124.70 -15.57 121.86 130.36 144.13 107.04 -141.81 117.12 -130.24 -176.51 7.56 32.99 -31.24 -9.88 146.74 9.82 -34.86 -176.38 
DOCKED: USER  keepresnum = 1 
DOCKED: USER  
DOCKED: REMARK  24 active torsions:
DOCKED: REMARK  status: ('A' for Active; 'I' for Inactive)
DOCKED: REMARK    1  A    between atoms: C_1  and  O_7 
DOCKED: REMARK    2  A    between atoms: C_2  and  O_12 
DOCKED: REMARK    3  A    between atoms: C_3  and  O_17 
DOCKED: REMARK    4  A    between atoms: C_4  and  O_22 
DOCKED: REMARK    5  A    between atoms: C_5  and  O_27 
DOCKED: REMARK    6  A    between atoms: C_6  and  O_32 
DOCKED: REMARK    7  A    between atoms: O_7  and  P_8 
DOCKED: REMARK    8  A    between atoms: P_8  and  O_10 
DOCKED: REMARK    9  A    between atoms: P_8  and  O_11 
DOCKED: REMARK   10  A    between atoms: O_12  and  P_13 
DOCKED: REMARK   11  A    between atoms: P_13  and  O_15 
DOCKED: REMARK   12  A    between atoms: P_13  and  O_16 
DOCKED: REMARK   13  A    between atoms: O_17  and  P_18 
DOCKED: REMARK   14  A    between atoms: P_18  and  O_20 
DOCKED: REMARK   15  A    between atoms: P_18  and  O_21 
DOCKED: REMARK   16  A    between atoms: O_22  and  P_23 
DOCKED: REMARK   17  A    between atoms: P_23  and  O_25 
DOCKED: REMARK   18  A    between atoms: P_23  and  O_26 
DOCKED: REMARK   19  A    between atoms: O_27  and  P_28 
DOCKED: REMARK   20  A    between atoms: P_28  and  O_30 
DOCKED: REMARK   21  A    between atoms: P_28  and  O_31 
DOCKED: REMARK   22  A    between atoms: O_32  and  P_33 
DOCKED: REMARK   23  A    between atoms: P_33  and  O_35 
DOCKED: REMARK   24  A    between atoms: P_33  and  O_36 
DOCKED: USER                              x       y       z     vdW  Elec       q    Type
DOCKED: USER                           _______ _______ _______ _____ _____    ______ ____
DOCKED: ROOT
DOCKED: ATOM      1  C   UNL d   1      11.564   7.101 -18.008 -0.12 +0.07    +0.194 C 
DOCKED: ATOM      2  C   UNL d   1      12.994   7.642 -18.054 -0.08 +0.05    +0.194 C 
DOCKED: ATOM      3  C   UNL d   1      13.109   9.002 -17.362 -0.05 +0.04    +0.194 C 
DOCKED: ATOM      4  C   UNL d   1      12.535   9.006 -15.947 -0.12 +0.05    +0.194 C 
DOCKED: ATOM      5  C   UNL d   1      11.155   8.371 -15.834 -0.21 +0.09    +0.194 C 
DOCKED: ATOM      6  C   UNL d   1      11.023   7.041 -16.579 -0.14 +0.13    +0.194 C 
DOCKED: ENDROOT
DOCKED: BRANCH   1   7
DOCKED: ATOM      7  O   UNL d   1      11.576   5.765 -18.516 -0.09 -0.12    -0.278 OA
DOCKED: BRANCH   7   8
DOCKED: ATOM      8  P   UNL d   1      10.237   5.190 -19.172 -0.08 +0.26    +0.473 P 
DOCKED: ATOM      9  O   UNL d   1       9.319   4.498 -18.227 -0.60 -0.32    -0.228 OA
DOCKED: BRANCH   8  10
DOCKED: ATOM     10  O   UNL d   1       9.575   6.460 -19.875 -0.01 -0.12    -0.303 OA
DOCKED: ATOM     11  H   UNL d   1       9.301   7.104 -19.195 +0.03 +0.10    +0.222 HD
DOCKED: ENDBRANCH   8  10
DOCKED: BRANCH   8  12
DOCKED: ATOM     12  O   UNL d   1      10.723   4.335 -20.419 -0.01 -0.10    -0.303 OA
DOCKED: ATOM     13  H   UNL d   1      11.699   4.346 -20.538 +0.02 +0.05    +0.222 HD
DOCKED: ENDBRANCH   8  12
DOCKED: ENDBRANCH   7   8
DOCKED: ENDBRANCH   1   7
DOCKED: BRANCH   2  14
DOCKED: ATOM     14  O   UNL d   1      13.865   6.717 -17.391 -0.09 -0.07    -0.278 OA
DOCKED: BRANCH  14  15
DOCKED: ATOM     15  P   UNL d   1      15.072   6.122 -18.258 -0.06 +0.08    +0.473 P 
DOCKED: ATOM     16  O   UNL d   1      16.080   5.293 -17.526 -0.09 -0.04    -0.228 OA
DOCKED: BRANCH  15  17
DOCKED: ATOM     17  O   UNL d   1      14.350   5.323 -19.431 -0.04 -0.05    -0.303 OA
DOCKED: ATOM     18  H   UNL d   1      13.418   5.136 -19.208 +0.02 +0.05    +0.222 HD
DOCKED: ENDBRANCH  15  17
DOCKED: BRANCH  15  19
DOCKED: ATOM     19  O   UNL d   1      15.656   7.379 -19.040 -0.02 -0.04    -0.303 OA
DOCKED: ATOM     20  H   UNL d   1      15.585   8.196 -18.513 +0.01 +0.03    +0.222 HD
DOCKED: ENDBRANCH  15  19
DOCKED: ENDBRANCH  14  15
DOCKED: ENDBRANCH   2  14
DOCKED: BRANCH   6  21
DOCKED: ATOM     21  O   UNL d   1       9.629   6.756 -16.671 -0.17 -0.30    -0.278 OA
DOCKED: BRANCH  21  22
DOCKED: ATOM     22  P   UNL d   1       8.610   7.913 -17.081 -0.11 +0.32    +0.473 P 
DOCKED: ATOM     23  O   UNL d   1       7.839   8.590 -15.998 -0.15 -0.14    -0.228 OA
DOCKED: BRANCH  22  24
DOCKED: ATOM     24  O   UNL d   1       9.541   8.877 -17.939 -0.02 -0.11    -0.303 OA
DOCKED: ATOM     25  H   UNL d   1       9.706   9.699 -17.410 +0.03 +0.06    +0.222 HD
DOCKED: ENDBRANCH  22  24
DOCKED: BRANCH  22  26
DOCKED: ATOM     26  O   UNL d   1       7.741   7.193 -18.219 -0.07 -0.21    -0.303 OA
DOCKED: ATOM     27  H   UNL d   1       8.087   6.289 -18.364 +0.03 +0.21    +0.222 HD
DOCKED: ENDBRANCH  22  26
DOCKED: ENDBRANCH  21  22
DOCKED: ENDBRANCH   6  21
DOCKED: BRANCH   3  28
DOCKED: ATOM     28  O   UNL d   1      14.493   9.290 -17.209 -0.02 -0.04    -0.278 OA
DOCKED: BRANCH  28  29
DOCKED: ATOM     29  P   UNL d   1      15.121  10.595 -17.872 -0.00 +0.05    +0.473 P 
DOCKED: ATOM     30  O   UNL d   1      16.382  11.082 -17.257 -0.00 -0.02    -0.228 OA
DOCKED: BRANCH  29  31
DOCKED: ATOM     31  O   UNL d   1      15.192  10.125 -19.400 -0.00 -0.03    -0.303 OA
DOCKED: ATOM     32  H   UNL d   1      15.920   9.467 -19.493 +0.01 +0.02    +0.222 HD
DOCKED: ENDBRANCH  29  31
DOCKED: BRANCH  29  33
DOCKED: ATOM     33  O   UNL d   1      13.885  11.598 -17.870 -0.00 -0.03    -0.303 OA
DOCKED: ATOM     34  H   UNL d   1      13.422  11.537 -16.998 +0.01 +0.03    +0.222 HD
DOCKED: ENDBRANCH  29  33
DOCKED: ENDBRANCH  28  29
DOCKED: ENDBRANCH   3  28
DOCKED: BRANCH   5  35
DOCKED: ATOM     35  O   UNL d   1      10.968   8.097 -14.448 -0.81 -0.15    -0.278 OA
DOCKED: BRANCH  35  36
DOCKED: ATOM     36  P   UNL d   1      10.180   9.130 -13.522 -0.19 +0.18    +0.473 P 
DOCKED: ATOM     37  O   UNL d   1       8.836   9.552 -14.025 -0.17 -0.09    -0.228 OA
DOCKED: BRANCH  36  38
DOCKED: ATOM     38  O   UNL d   1      10.146   8.360 -12.129 -0.34 -0.08    -0.303 OA
DOCKED: ATOM     39  H   UNL d   1      11.056   8.079 -11.895 -0.33 -0.04    +0.222 HD
DOCKED: ENDBRANCH  36  38
DOCKED: BRANCH  36  40
DOCKED: ATOM     40  O   UNL d   1      11.259  10.277 -13.299 -0.08 -0.09    -0.303 OA
DOCKED: ATOM     41  H   UNL d   1      11.214  10.962 -14.003 +0.05 +0.06    +0.222 HD
DOCKED: ENDBRANCH  36  40
DOCKED: ENDBRANCH  35  36
DOCKED: ENDBRANCH   5  35
DOCKED: BRANCH   4  42
DOCKED: ATOM     42  O   UNL d   1      12.400  10.378 -15.559 -0.02 -0.05    -0.278 OA
DOCKED: BRANCH  42  43
DOCKED: ATOM     43  P   UNL d   1      11.246  11.257 -16.222 +0.01 +0.09    +0.473 P 
DOCKED: ATOM     44  O   UNL d   1       9.863  11.083 -15.697 -0.02 -0.05    -0.228 OA
DOCKED: BRANCH  43  45
DOCKED: ATOM     45  O   UNL d   1      11.813  12.738 -16.084 +0.00 -0.04    -0.303 OA
DOCKED: ATOM     46  H   UNL d   1      12.566  12.890 -16.689 +0.00 +0.03    +0.222 HD
DOCKED: ENDBRANCH  43  45
DOCKED: BRANCH  43  47
DOCKED: ATOM     47  O   UNL d   1      11.431  10.982 -17.790 -0.00 -0.05    -0.303 OA
DOCKED: ATOM     48  H   UNL d   1      12.222  11.462 -18.111 +0.00 +0.03    +0.222 HD
DOCKED: ENDBRANCH  43  47
DOCKED: ENDBRANCH  42  43
DOCKED: ENDBRANCH   4  42
DOCKED: TORSDOF 24
DOCKED: TER
DOCKED: ENDMDL
________________________________________________________________________________


	BEGINNING GENETIC ALGORITHM DOCKING 44 of 100
Run: 44 Seed: 233153980 1896340797 [ Run 44 of 100 GA/GALS ]
Beginning LAMARCKIAN GENETIC ALGORITHM (LGA), with a maximum of 25000000 energy evaluations.

Final-Value: -16.890


	FINAL GENETIC ALGORITHM DOCKED STATE
	_______________________________________________


Detailed state:  trans -13.682 8.830 -7.983 quatxyzw -0.619877 -0.046581 0.780319 -0.068450 center 0.035 0.082 -0.065 ntor 24 121.5803 57.2236 167.9582 4.3913 56.5123 -154.4182 -122.5911 20.6291 22.8132 -12.2799 141.0449 130.1687 -27.4558 74.7625 136.0368 90.8823 176.1091 22.7534 25.4864 -35.1756 -22.0612 23.5484 1.1692 170.1144
State:	-13.682   8.830  -7.983  -0.621 -0.047  0.782 -172.150    121.58   57.22  167.96    4.39   56.51 -154.42 -122.59   20.63   22.81  -12.28  141.04  130.17  -27.46   74.76  136.04   90.88  176.11   22.75   25.49  -35.18  -22.06   23.55    1.17  170.11

DOCKED: MODEL       44
DOCKED: USER    Run = 44
DOCKED: USER    DPF = D:/Protein_go_brrr/autodock/final/AncA/IHP/dock.dpf
DOCKED: USER  
DOCKED: USER    Estimated Free Energy of Binding    =   +3.55 kcal/mol  [=(1)+(2)+(3)-(4)]
DOCKED: USER    
DOCKED: USER    (1) Final Intermolecular Energy     =   -3.61 kcal/mol
DOCKED: USER        vdW + Hbond + desolv Energy     =   -3.54 kcal/mol
DOCKED: USER        Electrostatic Energy            =   -0.07 kcal/mol
DOCKED: USER    (2) Final Total Internal Energy     =  -13.28 kcal/mol
DOCKED: USER    (3) Torsional Free Energy           =   +7.16 kcal/mol
DOCKED: USER    (4) Unbound System's Energy  [=(2)] =  -13.28 kcal/mol
DOCKED: USER    
DOCKED: USER    
DOCKED: USER    NEWDPF move IHP_ideal_opt.pdbqt
DOCKED: USER    NEWDPF about 0.035000 0.082000 -0.065000
DOCKED: USER    NEWDPF tran0 -13.681720 8.829736 -7.982922
DOCKED: USER    NEWDPF quaternion0 -0.619877 -0.046581 0.780319 -0.068450
DOCKED: USER    NEWDPF axisangle0 -0.621334 -0.046691 0.782154 -172.150111
DOCKED: USER    NEWDPF quat0 -0.621334 -0.046691 0.782154 -172.150111
DOCKED: USER    NEWDPF dihe0 121.58 57.22 167.96 4.39 56.51 -154.42 -122.59 20.63 22.81 -12.28 141.04 130.17 -27.46 74.76 136.04 90.88 176.11 22.75 25.49 -35.18 -22.06 23.55 1.17 170.11 
DOCKED: USER  keepresnum = 1 
DOCKED: USER  
DOCKED: REMARK  24 active torsions:
DOCKED: REMARK  status: ('A' for Active; 'I' for Inactive)
DOCKED: REMARK    1  A    between atoms: C_1  and  O_7 
DOCKED: REMARK    2  A    between atoms: C_2  and  O_12 
DOCKED: REMARK    3  A    between atoms: C_3  and  O_17 
DOCKED: REMARK    4  A    between atoms: C_4  and  O_22 
DOCKED: REMARK    5  A    between atoms: C_5  and  O_27 
DOCKED: REMARK    6  A    between atoms: C_6  and  O_32 
DOCKED: REMARK    7  A    between atoms: O_7  and  P_8 
DOCKED: REMARK    8  A    between atoms: P_8  and  O_10 
DOCKED: REMARK    9  A    between atoms: P_8  and  O_11 
DOCKED: REMARK   10  A    between atoms: O_12  and  P_13 
DOCKED: REMARK   11  A    between atoms: P_13  and  O_15 
DOCKED: REMARK   12  A    between atoms: P_13  and  O_16 
DOCKED: REMARK   13  A    between atoms: O_17  and  P_18 
DOCKED: REMARK   14  A    between atoms: P_18  and  O_20 
DOCKED: REMARK   15  A    between atoms: P_18  and  O_21 
DOCKED: REMARK   16  A    between atoms: O_22  and  P_23 
DOCKED: REMARK   17  A    between atoms: P_23  and  O_25 
DOCKED: REMARK   18  A    between atoms: P_23  and  O_26 
DOCKED: REMARK   19  A    between atoms: O_27  and  P_28 
DOCKED: REMARK   20  A    between atoms: P_28  and  O_30 
DOCKED: REMARK   21  A    between atoms: P_28  and  O_31 
DOCKED: REMARK   22  A    between atoms: O_32  and  P_33 
DOCKED: REMARK   23  A    between atoms: P_33  and  O_35 
DOCKED: REMARK   24  A    between atoms: P_33  and  O_36 
DOCKED: USER                              x       y       z     vdW  Elec       q    Type
DOCKED: USER                           _______ _______ _______ _____ _____    ______ ____
DOCKED: ROOT
DOCKED: ATOM      1  C   UNL d   1     -14.687   9.921  -8.867 -0.01 +0.01    +0.194 C 
DOCKED: ATOM      2  C   UNL d   1     -14.011  10.504  -7.625 -0.02 +0.00    +0.194 C 
DOCKED: ATOM      3  C   UNL d   1     -14.071   9.538  -6.441 -0.09 +0.00    +0.194 C 
DOCKED: ATOM      4  C   UNL d   1     -13.554   8.141  -6.778 -0.18 +0.01    +0.194 C 
DOCKED: ATOM      5  C   UNL d   1     -14.116   7.567  -8.072 -0.14 +0.01    +0.194 C 
DOCKED: ATOM      6  C   UNL d   1     -14.112   8.554  -9.241 -0.04 +0.01    +0.194 C 
DOCKED: ENDROOT
DOCKED: BRANCH   1   7
DOCKED: ATOM      7  O   UNL d   1     -14.438  10.802  -9.966 -0.00 -0.01    -0.278 OA
DOCKED: BRANCH   7   8
DOCKED: ATOM      8  P   UNL d   1     -15.561  11.872 -10.350 +0.00 +0.02    +0.473 P 
DOCKED: ATOM      9  O   UNL d   1     -16.484  12.243  -9.244 +0.00 -0.01    -0.228 OA
DOCKED: BRANCH   8  10
DOCKED: ATOM     10  O   UNL d   1     -14.734  13.111 -10.921 +0.00 -0.01    -0.303 OA
DOCKED: ATOM     11  H   UNL d   1     -13.903  13.209 -10.420 +0.00 +0.01    +0.222 HD
DOCKED: ENDBRANCH   8  10
DOCKED: BRANCH   8  12
DOCKED: ATOM     12  O   UNL d   1     -16.246  11.297 -11.663 +0.00 -0.01    -0.303 OA
DOCKED: ATOM     13  H   UNL d   1     -15.996  10.364 -11.852 +0.00 +0.01    +0.222 HD
DOCKED: ENDBRANCH   8  12
DOCKED: ENDBRANCH   7   8
DOCKED: ENDBRANCH   1   7
DOCKED: BRANCH   2  14
DOCKED: ATOM     14  O   UNL d   1     -12.636  10.774  -7.925 -0.01 -0.00    -0.278 OA
DOCKED: BRANCH  14  15
DOCKED: ATOM     15  P   UNL d   1     -12.277  12.275  -8.352 +0.01 +0.01    +0.473 P 
DOCKED: ATOM     16  O   UNL d   1     -11.129  12.920  -7.640 -0.00 -0.00    -0.228 OA
DOCKED: BRANCH  15  17
DOCKED: ATOM     17  O   UNL d   1     -12.055  12.188  -9.927 +0.00 -0.02    -0.303 OA
DOCKED: ATOM     18  H   UNL d   1     -12.903  12.060 -10.395 +0.00 +0.01    +0.222 HD
DOCKED: ENDBRANCH  15  17
DOCKED: BRANCH  15  19
DOCKED: ATOM     19  O   UNL d   1     -13.662  13.053  -8.267 -0.00 -0.01    -0.303 OA
DOCKED: ATOM     20  H   UNL d   1     -14.349  12.626  -8.811 +0.00 +0.01    +0.222 HD
DOCKED: ENDBRANCH  15  19
DOCKED: ENDBRANCH  14  15
DOCKED: ENDBRANCH   2  14
DOCKED: BRANCH   6  21
DOCKED: ATOM     21  O   UNL d   1     -14.960   8.005 -10.247 -0.01 -0.01    -0.278 OA
DOCKED: BRANCH  21  22
DOCKED: ATOM     22  P   UNL d   1     -14.393   7.775 -11.720 -0.01 +0.01    +0.473 P 
DOCKED: ATOM     23  O   UNL d   1     -15.184   6.923 -12.655 -0.01 -0.00    -0.228 OA
DOCKED: BRANCH  22  24
DOCKED: ATOM     24  O   UNL d   1     -14.158   9.269 -12.216 -0.00 -0.01    -0.303 OA
DOCKED: ATOM     25  H   UNL d   1     -14.567   9.881 -11.553 +0.01 +0.01    +0.222 HD
DOCKED: ENDBRANCH  22  24
DOCKED: BRANCH  22  26
DOCKED: ATOM     26  O   UNL d   1     -12.896   7.286 -11.421 -0.09 -0.00    -0.303 OA
DOCKED: ATOM     27  H   UNL d   1     -12.881   6.796 -10.573 +0.03 +0.01    +0.222 HD
DOCKED: ENDBRANCH  22  26
DOCKED: ENDBRANCH  21  22
DOCKED: ENDBRANCH   6  21
DOCKED: BRANCH   3  28
DOCKED: ATOM     28  O   UNL d   1     -13.193  10.033  -5.438 -0.11 +0.01    -0.278 OA
DOCKED: BRANCH  28  29
DOCKED: ATOM     29  P   UNL d   1     -13.663  10.096  -3.918 -0.07 -0.02    +0.473 P 
DOCKED: ATOM     30  O   UNL d   1     -13.927   8.784  -3.274 -0.09 +0.04    -0.228 OA
DOCKED: BRANCH  29  31
DOCKED: ATOM     31  O   UNL d   1     -12.485  10.985  -3.298 -0.13 +0.02    -0.303 OA
DOCKED: ATOM     32  H   UNL d   1     -11.661  10.445  -3.278 +0.02 -0.04    +0.222 HD
DOCKED: ENDBRANCH  29  31
DOCKED: BRANCH  29  33
DOCKED: ATOM     33  O   UNL d   1     -14.878  11.122  -3.986 -0.04 +0.01    -0.303 OA
DOCKED: ATOM     34  H   UNL d   1     -15.681  10.648  -4.314 +0.04 -0.00    +0.222 HD
DOCKED: ENDBRANCH  29  33
DOCKED: ENDBRANCH  28  29
DOCKED: ENDBRANCH   3  28
DOCKED: BRANCH   5  35
DOCKED: ATOM     35  O   UNL d   1     -13.248   6.492  -8.427 -0.52 -0.04    -0.278 OA
DOCKED: BRANCH  35  36
DOCKED: ATOM     36  P   UNL d   1     -13.850   5.072  -8.832 -0.13 +0.05    +0.473 P 
DOCKED: ATOM     37  O   UNL d   1     -13.112   3.884  -8.301 -0.45 -0.05    -0.228 OA
DOCKED: BRANCH  36  38
DOCKED: ATOM     38  O   UNL d   1     -15.351   5.195  -8.314 -0.13 -0.02    -0.303 OA
DOCKED: ATOM     39  H   UNL d   1     -15.347   5.551  -7.400 +0.08 +0.01    +0.222 HD
DOCKED: ENDBRANCH  36  38
DOCKED: BRANCH  36  40
DOCKED: ATOM     40  O   UNL d   1     -13.979   5.194 -10.412 -0.12 +0.00    -0.303 OA
DOCKED: ATOM     41  H   UNL d   1     -14.493   5.990 -10.675 +0.04 +0.00    +0.222 HD
DOCKED: ENDBRANCH  36  40
DOCKED: ENDBRANCH  35  36
DOCKED: ENDBRANCH   5  35
DOCKED: BRANCH   4  42
DOCKED: ATOM     42  O   UNL d   1     -13.973   7.277  -5.716 -0.19 -0.02    -0.278 OA
DOCKED: BRANCH  42  43
DOCKED: ATOM     43  P   UNL d   1     -15.532   7.133  -5.409 -0.21 -0.00    +0.473 P 
DOCKED: ATOM     44  O   UNL d   1     -16.373   6.444  -6.427 -0.18 +0.01    -0.228 OA
DOCKED: BRANCH  43  45
DOCKED: ATOM     45  O   UNL d   1     -15.543   6.438  -3.977 -0.42 +0.03    -0.303 OA
DOCKED: ATOM     46  H   UNL d   1     -15.201   7.039  -3.285 -0.35 -0.05    +0.222 HD
DOCKED: ENDBRANCH  43  45
DOCKED: BRANCH  43  47
DOCKED: ATOM     47  O   UNL d   1     -15.973   8.631  -5.047 -0.09 +0.00    -0.303 OA
DOCKED: ATOM     48  H   UNL d   1     -15.366   8.991  -4.368 +0.07 -0.01    +0.222 HD
DOCKED: ENDBRANCH  43  47
DOCKED: ENDBRANCH  42  43
DOCKED: ENDBRANCH   4  42
DOCKED: TORSDOF 24
DOCKED: TER
DOCKED: ENDMDL
________________________________________________________________________________


	BEGINNING GENETIC ALGORITHM DOCKING 45 of 100
Run: 45 Seed: 56286743 938001672 [ Run 45 of 100 GA/GALS ]
Beginning LAMARCKIAN GENETIC ALGORITHM (LGA), with a maximum of 25000000 energy evaluations.

Final-Value: -18.268


	FINAL GENETIC ALGORITHM DOCKED STATE
	_______________________________________________


Detailed state:  trans 4.437 9.116 14.973 quatxyzw 0.193030 -0.055341 0.630153 0.750056 center 0.035 0.082 -0.065 ntor 24 132.6651 107.8095 61.8609 47.9486 -83.5969 172.6883 11.2594 -163.7679 115.2172 20.4035 143.9571 173.7068 -85.7218 -37.8169 23.5712 -52.6722 109.5826 -134.7103 -147.9116 -5.3121 153.8442 142.7585 -56.3301 158.6134
State:	  4.437   9.116  14.973   0.292 -0.084  0.953 82.809    132.67  107.81   61.86   47.95  -83.60  172.69   11.26 -163.77  115.22   20.40  143.96  173.71  -85.72  -37.82   23.57  -52.67  109.58 -134.71 -147.91   -5.31  153.84  142.76  -56.33  158.61

DOCKED: MODEL       45
DOCKED: USER    Run = 45
DOCKED: USER    DPF = D:/Protein_go_brrr/autodock/final/AncA/IHP/dock.dpf
DOCKED: USER  
DOCKED: USER    Estimated Free Energy of Binding    =   +2.15 kcal/mol  [=(1)+(2)+(3)-(4)]
DOCKED: USER    
DOCKED: USER    (1) Final Intermolecular Energy     =   -5.01 kcal/mol
DOCKED: USER        vdW + Hbond + desolv Energy     =   -4.98 kcal/mol
DOCKED: USER        Electrostatic Energy            =   -0.03 kcal/mol
DOCKED: USER    (2) Final Total Internal Energy     =  -13.26 kcal/mol
DOCKED: USER    (3) Torsional Free Energy           =   +7.16 kcal/mol
DOCKED: USER    (4) Unbound System's Energy  [=(2)] =  -13.26 kcal/mol
DOCKED: USER    
DOCKED: USER    
DOCKED: USER    NEWDPF move IHP_ideal_opt.pdbqt
DOCKED: USER    NEWDPF about 0.035000 0.082000 -0.065000
DOCKED: USER    NEWDPF tran0 4.437057 9.115561 14.972842
DOCKED: USER    NEWDPF quaternion0 0.193030 -0.055341 0.630153 0.750056
DOCKED: USER    NEWDPF axisangle0 0.291862 -0.083675 0.952793 82.809482
DOCKED: USER    NEWDPF quat0 0.291862 -0.083675 0.952793 82.809482
DOCKED: USER    NEWDPF dihe0 132.67 107.81 61.86 47.95 -83.60 172.69 11.26 -163.77 115.22 20.40 143.96 173.71 -85.72 -37.82 23.57 -52.67 109.58 -134.71 -147.91 -5.31 153.84 142.76 -56.33 158.61 
DOCKED: USER  keepresnum = 1 
DOCKED: USER  
DOCKED: REMARK  24 active torsions:
DOCKED: REMARK  status: ('A' for Active; 'I' for Inactive)
DOCKED: REMARK    1  A    between atoms: C_1  and  O_7 
DOCKED: REMARK    2  A    between atoms: C_2  and  O_12 
DOCKED: REMARK    3  A    between atoms: C_3  and  O_17 
DOCKED: REMARK    4  A    between atoms: C_4  and  O_22 
DOCKED: REMARK    5  A    between atoms: C_5  and  O_27 
DOCKED: REMARK    6  A    between atoms: C_6  and  O_32 
DOCKED: REMARK    7  A    between atoms: O_7  and  P_8 
DOCKED: REMARK    8  A    between atoms: P_8  and  O_10 
DOCKED: REMARK    9  A    between atoms: P_8  and  O_11 
DOCKED: REMARK   10  A    between atoms: O_12  and  P_13 
DOCKED: REMARK   11  A    between atoms: P_13  and  O_15 
DOCKED: REMARK   12  A    between atoms: P_13  and  O_16 
DOCKED: REMARK   13  A    between atoms: O_17  and  P_18 
DOCKED: REMARK   14  A    between atoms: P_18  and  O_20 
DOCKED: REMARK   15  A    between atoms: P_18  and  O_21 
DOCKED: REMARK   16  A    between atoms: O_22  and  P_23 
DOCKED: REMARK   17  A    between atoms: P_23  and  O_25 
DOCKED: REMARK   18  A    between atoms: P_23  and  O_26 
DOCKED: REMARK   19  A    between atoms: O_27  and  P_28 
DOCKED: REMARK   20  A    between atoms: P_28  and  O_30 
DOCKED: REMARK   21  A    between atoms: P_28  and  O_31 
DOCKED: REMARK   22  A    between atoms: O_32  and  P_33 
DOCKED: REMARK   23  A    between atoms: P_33  and  O_35 
DOCKED: REMARK   24  A    between atoms: P_33  and  O_36 
DOCKED: USER                              x       y       z     vdW  Elec       q    Type
DOCKED: USER                           _______ _______ _______ _____ _____    ______ ____
DOCKED: ROOT
DOCKED: ATOM      1  C   UNL d   1       4.125   7.962  16.220 -0.05 -0.02    +0.194 C 
DOCKED: ATOM      2  C   UNL d   1       3.012   8.981  15.970 -0.06 -0.02    +0.194 C 
DOCKED: ATOM      3  C   UNL d   1       3.571  10.393  15.778 -0.04 -0.02    +0.194 C 
DOCKED: ATOM      4  C   UNL d   1       4.670  10.467  14.721 -0.11 -0.03    +0.194 C 
DOCKED: ATOM      5  C   UNL d   1       5.742   9.394  14.864 -0.09 -0.03    +0.194 C 
DOCKED: ATOM      6  C   UNL d   1       5.185   7.992  15.118 -0.09 -0.03    +0.194 C 
DOCKED: ENDROOT
DOCKED: BRANCH   1   7
DOCKED: ATOM      7  O   UNL d   1       3.542   6.656  16.216 -0.04 +0.02    -0.278 OA
DOCKED: BRANCH   7   8
DOCKED: ATOM      8  P   UNL d   1       3.447   5.872  14.827 -0.13 -0.02    +0.473 P 
DOCKED: ATOM      9  O   UNL d   1       3.210   6.729  13.633 -0.23 +0.04    -0.228 OA
DOCKED: BRANCH   8  10
DOCKED: ATOM     10  O   UNL d   1       4.814   5.053  14.751 -0.10 +0.01    -0.303 OA
DOCKED: ATOM     11  H   UNL d   1       5.494   5.501  15.289 +0.06 -0.01    +0.222 HD
DOCKED: ENDBRANCH   8  10
DOCKED: BRANCH   8  12
DOCKED: ATOM     12  O   UNL d   1       2.382   4.719  15.076 -0.62 -0.02    -0.303 OA
DOCKED: ATOM     13  H   UNL d   1       1.486   5.062  15.291 +0.04 +0.01    +0.222 HD
DOCKED: ENDBRANCH   8  12
DOCKED: ENDBRANCH   7   8
DOCKED: ENDBRANCH   1   7
DOCKED: BRANCH   2  14
DOCKED: ATOM     14  O   UNL d   1       2.295   8.609  14.786 -0.16 +0.05    -0.278 OA
DOCKED: BRANCH  14  15
DOCKED: ATOM     15  P   UNL d   1       0.707   8.463  14.927 -0.15 -0.07    +0.473 P 
DOCKED: ATOM     16  O   UNL d   1       0.077   9.105  16.123 -0.03 +0.02    -0.228 OA
DOCKED: BRANCH  15  17
DOCKED: ATOM     17  O   UNL d   1       0.141   9.032  13.551 -0.19 +0.09    -0.303 OA
DOCKED: ATOM     18  H   UNL d   1       0.697   9.762  13.217 -0.34 -0.13    +0.222 HD
DOCKED: ENDBRANCH  15  17
DOCKED: BRANCH  15  19
DOCKED: ATOM     19  O   UNL d   1       0.436   6.904  14.764 -0.16 +0.04    -0.303 OA
DOCKED: ATOM     20  H   UNL d   1       1.226   6.433  14.440 +0.05 -0.01    +0.222 HD
DOCKED: ENDBRANCH  15  19
DOCKED: ENDBRANCH  14  15
DOCKED: ENDBRANCH   2  14
DOCKED: BRANCH   6  21
DOCKED: ATOM     21  O   UNL d   1       6.275   7.189  15.564 -0.04 +0.02    -0.278 OA
DOCKED: BRANCH  21  22
DOCKED: ATOM     22  P   UNL d   1       7.189   7.695  16.770 +0.01 -0.02    +0.473 P 
DOCKED: ATOM     23  O   UNL d   1       6.521   8.077  18.048 -0.00 +0.00    -0.228 OA
DOCKED: BRANCH  22  24
DOCKED: ATOM     24  O   UNL d   1       8.246   6.512  16.896 -0.00 +0.00    -0.303 OA
DOCKED: ATOM     25  H   UNL d   1       8.528   6.451  17.844 +0.00 +0.00    +0.222 HD
DOCKED: ENDBRANCH  22  24
DOCKED: BRANCH  22  26
DOCKED: ATOM     26  O   UNL d   1       8.058   8.841  16.061 -0.00 +0.02    -0.303 OA
DOCKED: ATOM     27  H   UNL d   1       7.811   8.893  15.116 +0.05 -0.03    +0.222 HD
DOCKED: ENDBRANCH  22  26
DOCKED: ENDBRANCH  21  22
DOCKED: ENDBRANCH   6  21
DOCKED: BRANCH   3  28
DOCKED: ATOM     28  O   UNL d   1       2.515  11.207  15.282 -0.04 +0.03    -0.278 OA
DOCKED: BRANCH  28  29
DOCKED: ATOM     29  P   UNL d   1       2.506  11.673  13.759 -0.10 -0.09    +0.473 P 
DOCKED: ATOM     30  O   UNL d   1       3.407  12.807  13.430 -0.12 +0.02    -0.228 OA
DOCKED: BRANCH  29  31
DOCKED: ATOM     31  O   UNL d   1       2.805  10.275  13.038 -0.06 +0.12    -0.303 OA
DOCKED: ATOM     32  H   UNL d   1       2.064   9.656  13.234 -0.47 -0.11    +0.222 HD
DOCKED: ENDBRANCH  29  31
DOCKED: BRANCH  29  33
DOCKED: ATOM     33  O   UNL d   1       0.952  11.884  13.484 -0.10 +0.07    -0.303 OA
DOCKED: ATOM     34  H   UNL d   1       0.615  11.129  12.943 -0.46 -0.12    +0.222 HD
DOCKED: ENDBRANCH  29  33
DOCKED: ENDBRANCH  28  29
DOCKED: ENDBRANCH   3  28
DOCKED: BRANCH   5  35
DOCKED: ATOM     35  O   UNL d   1       6.421   9.355  13.611 -0.18 +0.07    -0.278 OA
DOCKED: BRANCH  35  36
DOCKED: ATOM     36  P   UNL d   1       7.437  10.518  13.211 -0.22 -0.11    +0.473 P 
DOCKED: ATOM     37  O   UNL d   1       8.510  10.132  12.242 -0.20 +0.19    -0.228 OA
DOCKED: BRANCH  36  38
DOCKED: ATOM     38  O   UNL d   1       6.448  11.646  12.676 -0.71 -0.00    -0.303 OA
DOCKED: ATOM     39  H   UNL d   1       5.693  11.731  13.297 +0.08 -0.01    +0.222 HD
DOCKED: ENDBRANCH  36  38
DOCKED: BRANCH  36  40
DOCKED: ATOM     40  O   UNL d   1       7.907  11.062  14.629 -0.04 +0.04    -0.303 OA
DOCKED: ATOM     41  H   UNL d   1       7.266  10.833  15.338 +0.05 -0.02    +0.222 HD
DOCKED: ENDBRANCH  36  40
DOCKED: ENDBRANCH  35  36
DOCKED: ENDBRANCH   5  35
DOCKED: BRANCH   4  42
DOCKED: ATOM     42  O   UNL d   1       5.317  11.733  14.883 -0.04 +0.02    -0.278 OA
DOCKED: BRANCH  42  43
DOCKED: ATOM     43  P   UNL d   1       5.750  12.196  16.347 +0.01 -0.02    +0.473 P 
DOCKED: ATOM     44  O   UNL d   1       4.752  12.955  17.151 -0.00 +0.00    -0.228 OA
DOCKED: BRANCH  43  45
DOCKED: ATOM     45  O   UNL d   1       6.225  10.833  17.017 +0.00 +0.01    -0.303 OA
DOCKED: ATOM     46  H   UNL d   1       7.070  10.521  16.635 +0.02 -0.01    +0.222 HD
DOCKED: ENDBRANCH  43  45
DOCKED: BRANCH  43  47
DOCKED: ATOM     47  O   UNL d   1       7.148  12.940  16.097 -0.01 +0.01    -0.303 OA
DOCKED: ATOM     48  H   UNL d   1       7.418  12.815  15.164 +0.04 -0.01    +0.222 HD
DOCKED: ENDBRANCH  43  47
DOCKED: ENDBRANCH  42  43
DOCKED: ENDBRANCH   4  42
DOCKED: TORSDOF 24
DOCKED: TER
DOCKED: ENDMDL
________________________________________________________________________________


	BEGINNING GENETIC ALGORITHM DOCKING 46 of 100
Run: 46 Seed: 889984275 774677651 [ Run 46 of 100 GA/GALS ]
Beginning LAMARCKIAN GENETIC ALGORITHM (LGA), with a maximum of 25000000 energy evaluations.

Final-Value: -18.206


	FINAL GENETIC ALGORITHM DOCKED STATE
	_______________________________________________


Detailed state:  trans -6.458 -16.575 9.122 quatxyzw 0.652241 0.134084 0.717629 0.203988 center 0.035 0.082 -0.065 ntor 24 -180.0000 -2.6589 103.8579 -15.7411 27.0068 -176.4217 33.7275 -93.2604 44.7491 -6.7120 70.9185 -88.4062 -119.9762 98.3757 -53.5798 -102.0479 155.4378 -34.2324 41.5428 -6.4672 -180.0000 42.4031 -3.9184 -26.5835
State:	 -6.458 -16.575   9.122   0.666  0.137  0.733 156.459   -180.00   -2.66  103.86  -15.74   27.01 -176.42   33.73  -93.26   44.75   -6.71   70.92  -88.41 -119.98   98.38  -53.58 -102.05  155.44  -34.23   41.54   -6.47 -180.00   42.40   -3.92  -26.58

DOCKED: MODEL       46
DOCKED: USER    Run = 46
DOCKED: USER    DPF = D:/Protein_go_brrr/autodock/final/AncA/IHP/dock.dpf
DOCKED: USER  
DOCKED: USER    Estimated Free Energy of Binding    =   +4.16 kcal/mol  [=(1)+(2)+(3)-(4)]
DOCKED: USER    
DOCKED: USER    (1) Final Intermolecular Energy     =   -2.99 kcal/mol
DOCKED: USER        vdW + Hbond + desolv Energy     =   -2.98 kcal/mol
DOCKED: USER        Electrostatic Energy            =   -0.02 kcal/mol
DOCKED: USER    (2) Final Total Internal Energy     =  -15.21 kcal/mol
DOCKED: USER    (3) Torsional Free Energy           =   +7.16 kcal/mol
DOCKED: USER    (4) Unbound System's Energy  [=(2)] =  -15.21 kcal/mol
DOCKED: USER    
DOCKED: USER    
DOCKED: USER    NEWDPF move IHP_ideal_opt.pdbqt
DOCKED: USER    NEWDPF about 0.035000 0.082000 -0.065000
DOCKED: USER    NEWDPF tran0 -6.458031 -16.574816 9.121799
DOCKED: USER    NEWDPF quaternion0 0.652241 0.134084 0.717629 0.203988
DOCKED: USER    NEWDPF axisangle0 0.666250 0.136964 0.733042 156.459443
DOCKED: USER    NEWDPF quat0 0.666250 0.136964 0.733042 156.459443
DOCKED: USER    NEWDPF dihe0 -180.00 -2.66 103.86 -15.74 27.01 -176.42 33.73 -93.26 44.75 -6.71 70.92 -88.41 -119.98 98.38 -53.58 -102.05 155.44 -34.23 41.54 -6.47 -180.00 42.40 -3.92 -26.58 
DOCKED: USER  keepresnum = 1 
DOCKED: USER  
DOCKED: REMARK  24 active torsions:
DOCKED: REMARK  status: ('A' for Active; 'I' for Inactive)
DOCKED: REMARK    1  A    between atoms: C_1  and  O_7 
DOCKED: REMARK    2  A    between atoms: C_2  and  O_12 
DOCKED: REMARK    3  A    between atoms: C_3  and  O_17 
DOCKED: REMARK    4  A    between atoms: C_4  and  O_22 
DOCKED: REMARK    5  A    between atoms: C_5  and  O_27 
DOCKED: REMARK    6  A    between atoms: C_6  and  O_32 
DOCKED: REMARK    7  A    between atoms: O_7  and  P_8 
DOCKED: REMARK    8  A    between atoms: P_8  and  O_10 
DOCKED: REMARK    9  A    between atoms: P_8  and  O_11 
DOCKED: REMARK   10  A    between atoms: O_12  and  P_13 
DOCKED: REMARK   11  A    between atoms: P_13  and  O_15 
DOCKED: REMARK   12  A    between atoms: P_13  and  O_16 
DOCKED: REMARK   13  A    between atoms: O_17  and  P_18 
DOCKED: REMARK   14  A    between atoms: P_18  and  O_20 
DOCKED: REMARK   15  A    between atoms: P_18  and  O_21 
DOCKED: REMARK   16  A    between atoms: O_22  and  P_23 
DOCKED: REMARK   17  A    between atoms: P_23  and  O_25 
DOCKED: REMARK   18  A    between atoms: P_23  and  O_26 
DOCKED: REMARK   19  A    between atoms: O_27  and  P_28 
DOCKED: REMARK   20  A    between atoms: P_28  and  O_30 
DOCKED: REMARK   21  A    between atoms: P_28  and  O_31 
DOCKED: REMARK   22  A    between atoms: O_32  and  P_33 
DOCKED: REMARK   23  A    between atoms: P_33  and  O_35 
DOCKED: REMARK   24  A    between atoms: P_33  and  O_36 
DOCKED: USER                              x       y       z     vdW  Elec       q    Type
DOCKED: USER                           _______ _______ _______ _____ _____    ______ ____
DOCKED: ROOT
DOCKED: ATOM      1  C   UNL d   1      -6.259 -15.578  10.518 -0.04 +0.04    +0.194 C 
DOCKED: ATOM      2  C   UNL d   1      -6.878 -14.892   9.299 -0.09 +0.05    +0.194 C 
DOCKED: ATOM      3  C   UNL d   1      -6.154 -15.274   8.006 -0.06 +0.09    +0.194 C 
DOCKED: ATOM      4  C   UNL d   1      -6.022 -16.782   7.814 -0.02 +0.08    +0.194 C 
DOCKED: ATOM      5  C   UNL d   1      -5.516 -17.523   9.045 -0.00 +0.06    +0.194 C 
DOCKED: ATOM      6  C   UNL d   1      -6.197 -17.096  10.348 -0.01 +0.04    +0.194 C 
DOCKED: ENDROOT
DOCKED: BRANCH   1   7
DOCKED: ATOM      7  O   UNL d   1      -7.089 -15.310  11.650 -0.04 -0.05    -0.278 OA
DOCKED: BRANCH   7   8
DOCKED: ATOM      8  P   UNL d   1      -6.929 -13.905  12.394 -0.09 +0.06    +0.473 P 
DOCKED: ATOM      9  O   UNL d   1      -5.642 -13.719  13.120 -0.05 -0.02    -0.228 OA
DOCKED: BRANCH   8  10
DOCKED: ATOM     10  O   UNL d   1      -7.161 -12.828  11.241 -0.20 -0.03    -0.303 OA
DOCKED: ATOM     11  H   UNL d   1      -7.667 -13.233  10.512 +0.05 +0.03    +0.222 HD
DOCKED: ENDBRANCH   8  10
DOCKED: BRANCH   8  12
DOCKED: ATOM     12  O   UNL d   1      -8.247 -13.747  13.267 -0.06 -0.06    -0.303 OA
DOCKED: ATOM     13  H   UNL d   1      -9.069 -13.938  12.762 +0.05 +0.05    +0.222 HD
DOCKED: ENDBRANCH   8  12
DOCKED: ENDBRANCH   7   8
DOCKED: ENDBRANCH   1   7
DOCKED: BRANCH   2  14
DOCKED: ATOM     14  O   UNL d   1      -8.251 -15.287   9.188 -0.06 -0.07    -0.278 OA
DOCKED: BRANCH  14  15
DOCKED: ATOM     15  P   UNL d   1      -9.333 -14.107   9.131 -0.18 +0.13    +0.473 P 
DOCKED: ATOM     16  O   UNL d   1     -10.623 -14.412   8.437 -0.18 -0.08    -0.228 OA
DOCKED: BRANCH  15  17
DOCKED: ATOM     17  O   UNL d   1      -9.534 -13.692  10.656 -0.18 -0.08    -0.303 OA
DOCKED: ATOM     18  H   UNL d   1      -8.885 -14.141  11.231 +0.06 +0.05    +0.222 HD
DOCKED: ENDBRANCH  15  17
DOCKED: BRANCH  15  19
DOCKED: ATOM     19  O   UNL d   1      -8.528 -12.858   8.564 -0.24 -0.07    -0.303 OA
DOCKED: ATOM     20  H   UNL d   1      -7.944 -12.467   9.241 -0.12 -0.01    +0.222 HD
DOCKED: ENDBRANCH  15  19
DOCKED: ENDBRANCH  14  15
DOCKED: ENDBRANCH   2  14
DOCKED: BRANCH   6  21
DOCKED: ATOM     21  O   UNL d   1      -5.400 -17.605  11.415 -0.00 -0.05    -0.278 OA
DOCKED: BRANCH  21  22
DOCKED: ATOM     22  P   UNL d   1      -4.046 -16.862  11.816 +0.01 +0.09    +0.473 P 
DOCKED: ATOM     23  O   UNL d   1      -3.375 -16.016  10.787 -0.01 -0.06    -0.228 OA
DOCKED: BRANCH  22  24
DOCKED: ATOM     24  O   UNL d   1      -4.477 -16.089  13.138 +0.00 -0.04    -0.303 OA
DOCKED: ATOM     25  H   UNL d   1      -5.397 -15.743  13.007 +0.02 +0.03    +0.222 HD
DOCKED: ENDBRANCH  22  24
DOCKED: BRANCH  22  26
DOCKED: ATOM     26  O   UNL d   1      -3.175 -18.071  12.408 +0.00 -0.05    -0.303 OA
DOCKED: ATOM     27  H   UNL d   1      -3.632 -18.917  12.224 +0.00 +0.04    +0.222 HD
DOCKED: ENDBRANCH  22  26
DOCKED: ENDBRANCH  21  22
DOCKED: ENDBRANCH   6  21
DOCKED: BRANCH   3  28
DOCKED: ATOM     28  O   UNL d   1      -6.953 -14.824   6.919 -0.08 -0.17    -0.278 OA
DOCKED: BRANCH  28  29
DOCKED: ATOM     29  P   UNL d   1      -6.281 -14.466   5.521 +0.10 +0.66    +0.473 P 
DOCKED: ATOM     30  O   UNL d   1      -6.622 -13.129   4.969 -0.68 -0.32    -0.228 OA
DOCKED: BRANCH  29  31
DOCKED: ATOM     31  O   UNL d   1      -4.743 -14.735   5.873 -0.17 -0.39    -0.303 OA
DOCKED: ATOM     32  H   UNL d   1      -4.555 -15.693   5.741 +0.03 +0.29    +0.222 HD
DOCKED: ENDBRANCH  29  31
DOCKED: BRANCH  29  33
DOCKED: ATOM     33  O   UNL d   1      -6.665 -15.730   4.632 -0.17 -0.51    -0.303 OA
DOCKED: ATOM     34  H   UNL d   1      -6.675 -16.535   5.206 +0.03 +0.23    +0.222 HD
DOCKED: ENDBRANCH  29  33
DOCKED: ENDBRANCH  28  29
DOCKED: ENDBRANCH   3  28
DOCKED: BRANCH   5  35
DOCKED: ATOM     35  O   UNL d   1      -5.840 -18.895   8.832 +0.00 -0.07    -0.278 OA
DOCKED: BRANCH  35  36
DOCKED: ATOM     36  P   UNL d   1      -4.710 -20.015   8.944 +0.00 +0.11    +0.473 P 
DOCKED: ATOM     37  O   UNL d   1      -5.021 -21.315   8.272 +0.00 -0.05    -0.228 OA
DOCKED: BRANCH  36  38
DOCKED: ATOM     38  O   UNL d   1      -3.441 -19.259   8.350 +0.00 -0.08    -0.303 OA
DOCKED: ATOM     39  H   UNL d   1      -3.745 -18.551   7.741 +0.01 +0.08    +0.222 HD
DOCKED: ENDBRANCH  36  38
DOCKED: BRANCH  36  40
DOCKED: ATOM     40  O   UNL d   1      -4.430 -20.061  10.509 +0.00 -0.06    -0.303 OA
DOCKED: ATOM     41  H   UNL d   1      -4.302 -19.161  10.883 +0.00 +0.04    +0.222 HD
DOCKED: ENDBRANCH  36  40
DOCKED: ENDBRANCH  35  36
DOCKED: ENDBRANCH   5  35
DOCKED: BRANCH   4  42
DOCKED: ATOM     42  O   UNL d   1      -5.058 -16.985   6.775 -0.03 -0.17    -0.278 OA
DOCKED: BRANCH  42  43
DOCKED: ATOM     43  P   UNL d   1      -5.343 -18.095   5.665 -0.02 +0.30    +0.473 P 
DOCKED: ATOM     44  O   UNL d   1      -6.711 -18.681   5.615 -0.00 -0.11    -0.228 OA
DOCKED: BRANCH  43  45
DOCKED: ATOM     45  O   UNL d   1      -4.896 -17.368   4.322 -0.57 -0.41    -0.303 OA
DOCKED: ATOM     46  H   UNL d   1      -4.603 -16.450   4.492 +0.03 +0.50    +0.222 HD
DOCKED: ENDBRANCH  43  45
DOCKED: BRANCH  43  47
DOCKED: ATOM     47  O   UNL d   1      -4.149 -19.143   5.881 -0.00 -0.13    -0.303 OA
DOCKED: ATOM     48  H   UNL d   1      -4.433 -19.828   6.520 +0.00 +0.08    +0.222 HD
DOCKED: ENDBRANCH  43  47
DOCKED: ENDBRANCH  42  43
DOCKED: ENDBRANCH   4  42
DOCKED: TORSDOF 24
DOCKED: TER
DOCKED: ENDMDL
________________________________________________________________________________


	BEGINNING GENETIC ALGORITHM DOCKING 47 of 100
Run: 47 Seed: 17691698 1256311474 [ Run 47 of 100 GA/GALS ]
Beginning LAMARCKIAN GENETIC ALGORITHM (LGA), with a maximum of 25000000 energy evaluations.

Final-Value: -17.897


	FINAL GENETIC ALGORITHM DOCKED STATE
	_______________________________________________


Detailed state:  trans -11.121 4.346 12.250 quatxyzw -0.539665 0.476564 -0.691771 -0.055684 center 0.035 0.082 -0.065 ntor 24 118.6805 62.6955 9.1028 11.9291 -14.0777 -145.4480 47.7698 -87.0007 135.8204 -9.8810 -127.1268 -70.3682 -49.5690 169.3855 -58.7726 95.0066 -177.6902 -28.3271 54.9849 -9.9399 -170.4432 -22.3249 19.1130 153.0180
State:	-11.121   4.346  12.250  -0.541  0.477 -0.693 -173.616    118.68   62.70    9.10   11.93  -14.08 -145.45   47.77  -87.00  135.82   -9.88 -127.13  -70.37  -49.57  169.39  -58.77   95.01 -177.69  -28.33   54.98   -9.94 -170.44  -22.32   19.11  153.02

DOCKED: MODEL       47
DOCKED: USER    Run = 47
DOCKED: USER    DPF = D:/Protein_go_brrr/autodock/final/AncA/IHP/dock.dpf
DOCKED: USER  
DOCKED: USER    Estimated Free Energy of Binding    =   +2.84 kcal/mol  [=(1)+(2)+(3)-(4)]
DOCKED: USER    
DOCKED: USER    (1) Final Intermolecular Energy     =   -4.32 kcal/mol
DOCKED: USER        vdW + Hbond + desolv Energy     =   -4.21 kcal/mol
DOCKED: USER        Electrostatic Energy            =   -0.11 kcal/mol
DOCKED: USER    (2) Final Total Internal Energy     =  -13.58 kcal/mol
DOCKED: USER    (3) Torsional Free Energy           =   +7.16 kcal/mol
DOCKED: USER    (4) Unbound System's Energy  [=(2)] =  -13.58 kcal/mol
DOCKED: USER    
DOCKED: USER    
DOCKED: USER    NEWDPF move IHP_ideal_opt.pdbqt
DOCKED: USER    NEWDPF about 0.035000 0.082000 -0.065000
DOCKED: USER    NEWDPF tran0 -11.121430 4.346120 12.249774
DOCKED: USER    NEWDPF quaternion0 -0.539665 0.476564 -0.691771 -0.055684
DOCKED: USER    NEWDPF axisangle0 -0.540504 0.477305 -0.692846 -173.615767
DOCKED: USER    NEWDPF quat0 -0.540504 0.477305 -0.692846 -173.615767
DOCKED: USER    NEWDPF dihe0 118.68 62.70 9.10 11.93 -14.08 -145.45 47.77 -87.00 135.82 -9.88 -127.13 -70.37 -49.57 169.39 -58.77 95.01 -177.69 -28.33 54.98 -9.94 -170.44 -22.32 19.11 153.02 
DOCKED: USER  keepresnum = 1 
DOCKED: USER  
DOCKED: REMARK  24 active torsions:
DOCKED: REMARK  status: ('A' for Active; 'I' for Inactive)
DOCKED: REMARK    1  A    between atoms: C_1  and  O_7 
DOCKED: REMARK    2  A    between atoms: C_2  and  O_12 
DOCKED: REMARK    3  A    between atoms: C_3  and  O_17 
DOCKED: REMARK    4  A    between atoms: C_4  and  O_22 
DOCKED: REMARK    5  A    between atoms: C_5  and  O_27 
DOCKED: REMARK    6  A    between atoms: C_6  and  O_32 
DOCKED: REMARK    7  A    between atoms: O_7  and  P_8 
DOCKED: REMARK    8  A    between atoms: P_8  and  O_10 
DOCKED: REMARK    9  A    between atoms: P_8  and  O_11 
DOCKED: REMARK   10  A    between atoms: O_12  and  P_13 
DOCKED: REMARK   11  A    between atoms: P_13  and  O_15 
DOCKED: REMARK   12  A    between atoms: P_13  and  O_16 
DOCKED: REMARK   13  A    between atoms: O_17  and  P_18 
DOCKED: REMARK   14  A    between atoms: P_18  and  O_20 
DOCKED: REMARK   15  A    between atoms: P_18  and  O_21 
DOCKED: REMARK   16  A    between atoms: O_22  and  P_23 
DOCKED: REMARK   17  A    between atoms: P_23  and  O_25 
DOCKED: REMARK   18  A    between atoms: P_23  and  O_26 
DOCKED: REMARK   19  A    between atoms: O_27  and  P_28 
DOCKED: REMARK   20  A    between atoms: P_28  and  O_30 
DOCKED: REMARK   21  A    between atoms: P_28  and  O_31 
DOCKED: REMARK   22  A    between atoms: O_32  and  P_33 
DOCKED: REMARK   23  A    between atoms: P_33  and  O_35 
DOCKED: REMARK   24  A    between atoms: P_33  and  O_36 
DOCKED: USER                              x       y       z     vdW  Elec       q    Type
DOCKED: USER                           _______ _______ _______ _____ _____    ______ ____
DOCKED: ROOT
DOCKED: ATOM      1  C   UNL d   1     -10.616   3.610  13.729 -0.01 +0.01    +0.194 C 
DOCKED: ATOM      2  C   UNL d   1     -10.046   5.003  13.455 -0.00 +0.01    +0.194 C 
DOCKED: ATOM      3  C   UNL d   1      -9.602   5.158  11.999 -0.03 +0.01    +0.194 C 
DOCKED: ATOM      4  C   UNL d   1     -10.685   4.770  10.995 -0.05 +0.02    +0.194 C 
DOCKED: ATOM      5  C   UNL d   1     -11.361   3.438  11.296 -0.08 +0.02    +0.194 C 
DOCKED: ATOM      6  C   UNL d   1     -11.750   3.259  12.765 -0.03 +0.02    +0.194 C 
DOCKED: ENDROOT
DOCKED: BRANCH   1   7
DOCKED: ATOM      7  O   UNL d   1     -11.162   3.603  15.050 -0.00 -0.01    -0.278 OA
DOCKED: BRANCH   7   8
DOCKED: ATOM      8  P   UNL d   1     -10.159   3.736  16.286 +0.00 +0.02    +0.473 P 
DOCKED: ATOM      9  O   UNL d   1      -8.726   3.904  15.921 -0.00 -0.00    -0.228 OA
DOCKED: BRANCH   8  10
DOCKED: ATOM     10  O   UNL d   1     -10.741   4.960  17.127 +0.00 -0.01    -0.303 OA
DOCKED: ATOM     11  H   UNL d   1     -11.057   5.654  16.518 +0.00 +0.01    +0.222 HD
DOCKED: ENDBRANCH   8  10
DOCKED: BRANCH   8  12
DOCKED: ATOM     12  O   UNL d   1     -10.495   2.499  17.225 +0.00 -0.01    -0.303 OA
DOCKED: ATOM     13  H   UNL d   1     -11.003   1.793  16.765 +0.01 +0.01    +0.222 HD
DOCKED: ENDBRANCH   8  12
DOCKED: ENDBRANCH   7   8
DOCKED: ENDBRANCH   1   7
DOCKED: BRANCH   2  14
DOCKED: ATOM     14  O   UNL d   1     -11.055   5.983  13.731 +0.00 -0.02    -0.278 OA
DOCKED: BRANCH  14  15
DOCKED: ATOM     15  P   UNL d   1     -10.696   7.089  14.832 +0.00 +0.02    +0.473 P 
DOCKED: ATOM     16  O   UNL d   1     -11.753   7.394  15.847 +0.00 -0.01    -0.228 OA
DOCKED: BRANCH  15  17
DOCKED: ATOM     17  O   UNL d   1      -9.345   6.558  15.489 +0.00 -0.01    -0.303 OA
DOCKED: ATOM     18  H   UNL d   1      -9.529   5.939  16.220 +0.00 +0.01    +0.222 HD
DOCKED: ENDBRANCH  15  17
DOCKED: BRANCH  15  19
DOCKED: ATOM     19  O   UNL d   1     -10.175   8.333  13.990 +0.00 -0.02    -0.303 OA
DOCKED: ATOM     20  H   UNL d   1      -9.520   8.066  13.319 +0.01 +0.02    +0.222 HD
DOCKED: ENDBRANCH  15  19
DOCKED: ENDBRANCH  14  15
DOCKED: ENDBRANCH   2  14
DOCKED: BRANCH   6  21
DOCKED: ATOM     21  O   UNL d   1     -12.041   1.875  12.948 -0.07 -0.03    -0.278 OA
DOCKED: BRANCH  21  22
DOCKED: ATOM     22  P   UNL d   1     -10.864   0.859  13.306 -0.14 +0.08    +0.473 P 
DOCKED: ATOM     23  O   UNL d   1      -9.487   1.179  12.828 -0.10 -0.04    -0.228 OA
DOCKED: BRANCH  22  24
DOCKED: ATOM     24  O   UNL d   1     -11.010   0.736  14.886 -0.05 -0.03    -0.303 OA
DOCKED: ATOM     25  H   UNL d   1     -10.579   1.527  15.298 +0.03 +0.01    +0.222 HD
DOCKED: ENDBRANCH  22  24
DOCKED: BRANCH  22  26
DOCKED: ATOM     26  O   UNL d   1     -11.475  -0.536  12.807 -0.64 -0.10    -0.303 OA
DOCKED: ATOM     27  H   UNL d   1     -11.942  -0.398  11.958 +0.08 +0.11    +0.222 HD
DOCKED: ENDBRANCH  22  26
DOCKED: ENDBRANCH  21  22
DOCKED: ENDBRANCH   6  21
DOCKED: BRANCH   3  28
DOCKED: ATOM     28  O   UNL d   1      -9.354   6.539  11.771 -0.02 -0.03    -0.278 OA
DOCKED: BRANCH  28  29
DOCKED: ATOM     29  P   UNL d   1      -7.915   7.157  12.062 -0.05 +0.03    +0.473 P 
DOCKED: ATOM     30  O   UNL d   1      -6.832   6.718  11.144 -0.18 +0.01    -0.228 OA
DOCKED: BRANCH  29  31
DOCKED: ATOM     31  O   UNL d   1      -8.276   8.716  12.067 -0.02 -0.05    -0.303 OA
DOCKED: ATOM     32  H   UNL d   1      -8.365   9.014  13.001 +0.02 +0.02    +0.222 HD
DOCKED: ENDBRANCH  29  31
DOCKED: BRANCH  29  33
DOCKED: ATOM     33  O   UNL d   1      -7.720   6.836  13.609 -0.00 +0.00    -0.303 OA
DOCKED: ATOM     34  H   UNL d   1      -8.607   6.791  14.042 +0.02 +0.00    +0.222 HD
DOCKED: ENDBRANCH  29  33
DOCKED: ENDBRANCH  28  29
DOCKED: ENDBRANCH   3  28
DOCKED: BRANCH   5  35
DOCKED: ATOM     35  O   UNL d   1     -12.570   3.439  10.539 -0.06 -0.04    -0.278 OA
DOCKED: BRANCH  35  36
DOCKED: ATOM     36  P   UNL d   1     -13.182   2.068   9.999 -0.14 +0.08    +0.473 P 
DOCKED: ATOM     37  O   UNL d   1     -13.611   2.074   8.566 -0.24 -0.03    -0.228 OA
DOCKED: BRANCH  36  38
DOCKED: ATOM     38  O   UNL d   1     -12.012   1.038  10.327 -0.81 -0.13    -0.303 OA
DOCKED: ATOM     39  H   UNL d   1     -11.911   0.966  11.301 +0.07 +0.09    +0.222 HD
DOCKED: ENDBRANCH  36  38
DOCKED: BRANCH  36  40
DOCKED: ATOM     40  O   UNL d   1     -14.296   1.741  11.086 -0.08 -0.04    -0.303 OA
DOCKED: ATOM     41  H   UNL d   1     -13.935   1.775  11.999 +0.05 +0.03    +0.222 HD
DOCKED: ENDBRANCH  36  40
DOCKED: ENDBRANCH  35  36
DOCKED: ENDBRANCH   5  35
DOCKED: BRANCH   4  42
DOCKED: ATOM     42  O   UNL d   1     -10.043   4.638   9.723 -0.12 -0.04    -0.278 OA
DOCKED: BRANCH  42  43
DOCKED: ATOM     43  P   UNL d   1      -8.625   3.912   9.646 -0.23 +0.05    +0.473 P 
DOCKED: ATOM     44  O   UNL d   1      -8.222   3.068  10.805 -0.23 -0.01    -0.228 OA
DOCKED: BRANCH  43  45
DOCKED: ATOM     45  O   UNL d   1      -8.710   3.125   8.265 -0.42 -0.04    -0.303 OA
DOCKED: ATOM     46  H   UNL d   1      -7.821   2.894   7.930 -0.41 -0.01    +0.222 HD
DOCKED: ENDBRANCH  43  45
DOCKED: BRANCH  43  47
DOCKED: ATOM     47  O   UNL d   1      -7.621   5.107   9.278 -0.23 -0.06    -0.303 OA
DOCKED: ATOM     48  H   UNL d   1      -7.067   5.314  10.058 -0.06 -0.05    +0.222 HD
DOCKED: ENDBRANCH  43  47
DOCKED: ENDBRANCH  42  43
DOCKED: ENDBRANCH   4  42
DOCKED: TORSDOF 24
DOCKED: TER
DOCKED: ENDMDL
________________________________________________________________________________


	BEGINNING GENETIC ALGORITHM DOCKING 48 of 100
Run: 48 Seed: 658639051 1875657025 [ Run 48 of 100 GA/GALS ]
Beginning LAMARCKIAN GENETIC ALGORITHM (LGA), with a maximum of 25000000 energy evaluations.

Final-Value: -20.206


	FINAL GENETIC ALGORITHM DOCKED STATE
	_______________________________________________


Detailed state:  trans 11.441 -0.259 -15.525 quatxyzw -0.588493 -0.379368 -0.238262 -0.673043 center 0.035 0.082 -0.065 ntor 24 180.0000 100.0805 18.5700 153.5396 51.5481 -143.8191 14.0344 -75.2200 116.1488 -18.1071 88.0638 142.2075 89.5019 -21.5855 140.5319 -147.5711 -116.8567 30.7872 4.6994 -37.3521 -9.8577 16.3841 -9.4016 179.0791
State:	 11.441  -0.259 -15.525  -0.796 -0.513 -0.322 -95.395    180.00  100.08   18.57  153.54   51.55 -143.82   14.03  -75.22  116.15  -18.11   88.06  142.21   89.50  -21.59  140.53 -147.57 -116.86   30.79    4.70  -37.35   -9.86   16.38   -9.40  179.08

DOCKED: MODEL       48
DOCKED: USER    Run = 48
DOCKED: USER    DPF = D:/Protein_go_brrr/autodock/final/AncA/IHP/dock.dpf
DOCKED: USER  
DOCKED: USER    Estimated Free Energy of Binding    =   -0.40 kcal/mol  [=(1)+(2)+(3)-(4)]
DOCKED: USER    Estimated Inhibition Constant, Ki   =  506.50 mM (millimolar)  [Temperature = 298.15 K]
DOCKED: USER    
DOCKED: USER    (1) Final Intermolecular Energy     =   -7.56 kcal/mol
DOCKED: USER        vdW + Hbond + desolv Energy     =   -7.66 kcal/mol
DOCKED: USER        Electrostatic Energy            =   +0.10 kcal/mol
DOCKED: USER    (2) Final Total Internal Energy     =  -12.64 kcal/mol
DOCKED: USER    (3) Torsional Free Energy           =   +7.16 kcal/mol
DOCKED: USER    (4) Unbound System's Energy  [=(2)] =  -12.64 kcal/mol
DOCKED: USER    
DOCKED: USER    
DOCKED: USER    NEWDPF move IHP_ideal_opt.pdbqt
DOCKED: USER    NEWDPF about 0.035000 0.082000 -0.065000
DOCKED: USER    NEWDPF tran0 11.440593 -0.259284 -15.525127
DOCKED: USER    NEWDPF quaternion0 -0.588493 -0.379368 -0.238262 -0.673043
DOCKED: USER    NEWDPF axisangle0 -0.795688 -0.512935 -0.322148 -95.395297
DOCKED: USER    NEWDPF quat0 -0.795688 -0.512935 -0.322148 -95.395297
DOCKED: USER    NEWDPF dihe0 180.00 100.08 18.57 153.54 51.55 -143.82 14.03 -75.22 116.15 -18.11 88.06 142.21 89.50 -21.59 140.53 -147.57 -116.86 30.79 4.70 -37.35 -9.86 16.38 -9.40 179.08 
DOCKED: USER  keepresnum = 1 
DOCKED: USER  
DOCKED: REMARK  24 active torsions:
DOCKED: REMARK  status: ('A' for Active; 'I' for Inactive)
DOCKED: REMARK    1  A    between atoms: C_1  and  O_7 
DOCKED: REMARK    2  A    between atoms: C_2  and  O_12 
DOCKED: REMARK    3  A    between atoms: C_3  and  O_17 
DOCKED: REMARK    4  A    between atoms: C_4  and  O_22 
DOCKED: REMARK    5  A    between atoms: C_5  and  O_27 
DOCKED: REMARK    6  A    between atoms: C_6  and  O_32 
DOCKED: REMARK    7  A    between atoms: O_7  and  P_8 
DOCKED: REMARK    8  A    between atoms: P_8  and  O_10 
DOCKED: REMARK    9  A    between atoms: P_8  and  O_11 
DOCKED: REMARK   10  A    between atoms: O_12  and  P_13 
DOCKED: REMARK   11  A    between atoms: P_13  and  O_15 
DOCKED: REMARK   12  A    between atoms: P_13  and  O_16 
DOCKED: REMARK   13  A    between atoms: O_17  and  P_18 
DOCKED: REMARK   14  A    between atoms: P_18  and  O_20 
DOCKED: REMARK   15  A    between atoms: P_18  and  O_21 
DOCKED: REMARK   16  A    between atoms: O_22  and  P_23 
DOCKED: REMARK   17  A    between atoms: P_23  and  O_25 
DOCKED: REMARK   18  A    between atoms: P_23  and  O_26 
DOCKED: REMARK   19  A    between atoms: O_27  and  P_28 
DOCKED: REMARK   20  A    between atoms: P_28  and  O_30 
DOCKED: REMARK   21  A    between atoms: P_28  and  O_31 
DOCKED: REMARK   22  A    between atoms: O_32  and  P_33 
DOCKED: REMARK   23  A    between atoms: P_33  and  O_35 
DOCKED: REMARK   24  A    between atoms: P_33  and  O_36 
DOCKED: USER                              x       y       z     vdW  Elec       q    Type
DOCKED: USER                           _______ _______ _______ _____ _____    ______ ____
DOCKED: ROOT
DOCKED: ATOM      1  C   UNL d   1      11.327   0.496 -13.976 -0.22 +0.03    +0.194 C 
DOCKED: ATOM      2  C   UNL d   1      10.048  -0.176 -14.478 -0.14 +0.04    +0.194 C 
DOCKED: ATOM      3  C   UNL d   1       9.798   0.119 -15.959 -0.11 +0.06    +0.194 C 
DOCKED: ATOM      4  C   UNL d   1      11.000  -0.192 -16.846 -0.05 +0.04    +0.194 C 
DOCKED: ATOM      5  C   UNL d   1      12.319   0.362 -16.321 -0.09 +0.03    +0.194 C 
DOCKED: ATOM      6  C   UNL d   1      12.541   0.121 -14.827 -0.15 +0.02    +0.194 C 
DOCKED: ENDROOT
DOCKED: BRANCH   1   7
DOCKED: ATOM      7  O   UNL d   1      11.580   0.035 -12.646 -0.23 -0.01    -0.278 OA
DOCKED: BRANCH   7   8
DOCKED: ATOM      8  P   UNL d   1      11.581   1.104 -11.459 -0.28 +0.04    +0.473 P 
DOCKED: ATOM      9  O   UNL d   1      10.964   0.636 -10.188 -0.24 +0.03    -0.228 OA
DOCKED: BRANCH   8  10
DOCKED: ATOM     10  O   UNL d   1      13.117   1.504 -11.301 -0.94 -0.06    -0.303 OA
DOCKED: ATOM     11  H   UNL d   1      13.593   1.308 -12.129 +0.12 +0.02    +0.222 HD
DOCKED: ENDBRANCH   8  10
DOCKED: BRANCH   8  12
DOCKED: ATOM     12  O   UNL d   1      10.957   2.422 -12.090 -0.40 -0.08    -0.303 OA
DOCKED: ATOM     13  H   UNL d   1      10.074   2.273 -12.497 -0.38 -0.01    +0.222 HD
DOCKED: ENDBRANCH   8  12
DOCKED: ENDBRANCH   7   8
DOCKED: ENDBRANCH   1   7
DOCKED: BRANCH   2  14
DOCKED: ATOM     14  O   UNL d   1      10.168  -1.594 -14.310 -0.10 -0.01    -0.278 OA
DOCKED: BRANCH  14  15
DOCKED: ATOM     15  P   UNL d   1       9.562  -2.208 -12.961 -0.22 +0.05    +0.473 P 
DOCKED: ATOM     16  O   UNL d   1       8.336  -1.547 -12.413 -0.27 -0.02    -0.228 OA
DOCKED: BRANCH  15  17
DOCKED: ATOM     17  O   UNL d   1       9.332  -3.747 -13.304 -0.90 -0.05    -0.303 OA
DOCKED: ATOM     18  H   UNL d   1       8.532  -3.869 -13.850 -0.43 -0.05    +0.222 HD
DOCKED: ENDBRANCH  15  17
DOCKED: BRANCH  15  19
DOCKED: ATOM     19  O   UNL d   1      10.802  -2.285 -11.967 -1.00 -0.04    -0.303 OA
DOCKED: ATOM     20  H   UNL d   1      10.862  -1.491 -11.403 -0.05 -0.02    +0.222 HD
DOCKED: ENDBRANCH  15  19
DOCKED: ENDBRANCH  14  15
DOCKED: ENDBRANCH   2  14
DOCKED: BRANCH   6  21
DOCKED: ATOM     21  O   UNL d   1      13.612   0.973 -14.426 -0.17 -0.03    -0.278 OA
DOCKED: BRANCH  21  22
DOCKED: ATOM     22  P   UNL d   1      15.008   0.337 -13.989 -0.14 -0.05    +0.473 P 
DOCKED: ATOM     23  O   UNL d   1      16.166   1.254 -13.781 -0.15 +0.01    -0.228 OA
DOCKED: BRANCH  22  24
DOCKED: ATOM     24  O   UNL d   1      14.592  -0.514 -12.710 -0.21 +0.14    -0.303 OA
DOCKED: ATOM     25  H   UNL d   1      13.689  -0.222 -12.426 +0.09 -0.05    +0.222 HD
DOCKED: ENDBRANCH  22  24
DOCKED: BRANCH  22  26
DOCKED: ATOM     26  O   UNL d   1      15.207  -0.806 -15.096 -0.06 +0.02    -0.303 OA
DOCKED: ATOM     27  H   UNL d   1      14.949  -0.453 -15.972 +0.04 +0.01    +0.222 HD
DOCKED: ENDBRANCH  22  26
DOCKED: ENDBRANCH  21  22
DOCKED: ENDBRANCH   6  21
DOCKED: BRANCH   3  28
DOCKED: ATOM     28  O   UNL d   1       8.767  -0.754 -16.401 -0.03 -0.05    -0.278 OA
DOCKED: BRANCH  28  29
DOCKED: ATOM     29  P   UNL d   1       7.477  -0.171 -17.133 -0.02 +0.14    +0.473 P 
DOCKED: ATOM     30  O   UNL d   1       6.401  -1.156 -17.416 -0.07 +0.01    -0.228 OA
DOCKED: BRANCH  29  31
DOCKED: ATOM     31  O   UNL d   1       7.117   1.035 -16.145 -0.26 -0.29    -0.303 OA
DOCKED: ATOM     32  H   UNL d   1       7.842   1.701 -16.185 +0.03 +0.41    +0.222 HD
DOCKED: ENDBRANCH  29  31
DOCKED: BRANCH  29  33
DOCKED: ATOM     33  O   UNL d   1       8.114   0.578 -18.385 -0.02 -0.13    -0.303 OA
DOCKED: ATOM     34  H   UNL d   1       9.082   0.702 -18.227 +0.03 +0.10    +0.222 HD
DOCKED: ENDBRANCH  29  33
DOCKED: ENDBRANCH  28  29
DOCKED: ENDBRANCH   3  28
DOCKED: BRANCH   5  35
DOCKED: ATOM     35  O   UNL d   1      13.341  -0.347 -17.018 -0.03 -0.03    -0.278 OA
DOCKED: BRANCH  35  36
DOCKED: ATOM     36  P   UNL d   1      14.408   0.443 -17.903 -0.02 +0.05    +0.473 P 
DOCKED: ATOM     37  O   UNL d   1      13.888   1.006 -19.188 -0.02 -0.03    -0.228 OA
DOCKED: BRANCH  36  38
DOCKED: ATOM     38  O   UNL d   1      14.939   1.537 -16.876 -0.08 -0.04    -0.303 OA
DOCKED: ATOM     39  H   UNL d   1      15.130   1.104 -16.016 +0.04 +0.02    +0.222 HD
DOCKED: ENDBRANCH  36  38
DOCKED: BRANCH  36  40
DOCKED: ATOM     40  O   UNL d   1      15.604  -0.600 -18.004 -0.01 -0.02    -0.303 OA
DOCKED: ATOM     41  H   UNL d   1      15.959  -0.835 -17.118 +0.02 +0.01    +0.222 HD
DOCKED: ENDBRANCH  36  40
DOCKED: ENDBRANCH  35  36
DOCKED: ENDBRANCH   5  35
DOCKED: BRANCH   4  42
DOCKED: ATOM     42  O   UNL d   1      10.755   0.432 -18.111 -0.02 -0.08    -0.278 OA
DOCKED: BRANCH  42  43
DOCKED: ATOM     43  P   UNL d   1      10.751   2.025 -18.197 -0.09 +0.23    +0.473 P 
DOCKED: ATOM     44  O   UNL d   1      12.070   2.717 -18.182 +0.02 -0.08    -0.228 OA
DOCKED: BRANCH  43  45
DOCKED: ATOM     45  O   UNL d   1       9.886   2.301 -19.504 -0.03 -0.13    -0.303 OA
DOCKED: ATOM     46  H   UNL d   1       9.390   1.505 -19.780 +0.02 +0.08    +0.222 HD
DOCKED: ENDBRANCH  43  45
DOCKED: BRANCH  43  47
DOCKED: ATOM     47  O   UNL d   1       9.732   2.452 -17.036 -0.46 -0.40    -0.303 OA
DOCKED: ATOM     48  H   UNL d   1       8.982   1.822 -17.017 +0.03 +0.28    +0.222 HD
DOCKED: ENDBRANCH  43  47
DOCKED: ENDBRANCH  42  43
DOCKED: ENDBRANCH   4  42
DOCKED: TORSDOF 24
DOCKED: TER
DOCKED: ENDMDL
________________________________________________________________________________


	BEGINNING GENETIC ALGORITHM DOCKING 49 of 100
Run: 49 Seed: 1329001336 659418058 [ Run 49 of 100 GA/GALS ]
Beginning LAMARCKIAN GENETIC ALGORITHM (LGA), with a maximum of 25000000 energy evaluations.

Final-Value: -18.899


	FINAL GENETIC ALGORITHM DOCKED STATE
	_______________________________________________


Detailed state:  trans -12.671 -9.000 -18.243 quatxyzw -0.771742 -0.014723 -0.433276 -0.465264 center 0.035 0.082 -0.065 ntor 24 103.9136 77.8888 22.4262 114.7910 151.9054 85.4685 -35.3917 -7.2832 136.1227 21.9601 138.5470 135.6401 -174.4527 -43.0015 80.2191 164.6958 121.2293 -115.1667 19.2040 -32.9221 -179.9119 -33.3331 -19.3155 167.3694
State:	-12.671  -9.000 -18.243  -0.872 -0.017 -0.489 -124.545    103.91   77.89   22.43  114.79  151.91   85.47  -35.39   -7.28  136.12   21.96  138.55  135.64 -174.45  -43.00   80.22  164.70  121.23 -115.17   19.20  -32.92 -179.91  -33.33  -19.32  167.37

DOCKED: MODEL       49
DOCKED: USER    Run = 49
DOCKED: USER    DPF = D:/Protein_go_brrr/autodock/final/AncA/IHP/dock.dpf
DOCKED: USER  
DOCKED: USER    Estimated Free Energy of Binding    =   +1.60 kcal/mol  [=(1)+(2)+(3)-(4)]
DOCKED: USER    
DOCKED: USER    (1) Final Intermolecular Energy     =   -5.56 kcal/mol
DOCKED: USER        vdW + Hbond + desolv Energy     =   -4.90 kcal/mol
DOCKED: USER        Electrostatic Energy            =   -0.66 kcal/mol
DOCKED: USER    (2) Final Total Internal Energy     =  -13.34 kcal/mol
DOCKED: USER    (3) Torsional Free Energy           =   +7.16 kcal/mol
DOCKED: USER    (4) Unbound System's Energy  [=(2)] =  -13.34 kcal/mol
DOCKED: USER    
DOCKED: USER    
DOCKED: USER    NEWDPF move IHP_ideal_opt.pdbqt
DOCKED: USER    NEWDPF about 0.035000 0.082000 -0.065000
DOCKED: USER    NEWDPF tran0 -12.671148 -9.000293 -18.243496
DOCKED: USER    NEWDPF quaternion0 -0.771742 -0.014723 -0.433276 -0.465264
DOCKED: USER    NEWDPF axisangle0 -0.871855 -0.016633 -0.489482 -124.545422
DOCKED: USER    NEWDPF quat0 -0.871855 -0.016633 -0.489482 -124.545422
DOCKED: USER    NEWDPF dihe0 103.91 77.89 22.43 114.79 151.91 85.47 -35.39 -7.28 136.12 21.96 138.55 135.64 -174.45 -43.00 80.22 164.70 121.23 -115.17 19.20 -32.92 -179.91 -33.33 -19.32 167.37 
DOCKED: USER  keepresnum = 1 
DOCKED: USER  
DOCKED: REMARK  24 active torsions:
DOCKED: REMARK  status: ('A' for Active; 'I' for Inactive)
DOCKED: REMARK    1  A    between atoms: C_1  and  O_7 
DOCKED: REMARK    2  A    between atoms: C_2  and  O_12 
DOCKED: REMARK    3  A    between atoms: C_3  and  O_17 
DOCKED: REMARK    4  A    between atoms: C_4  and  O_22 
DOCKED: REMARK    5  A    between atoms: C_5  and  O_27 
DOCKED: REMARK    6  A    between atoms: C_6  and  O_32 
DOCKED: REMARK    7  A    between atoms: O_7  and  P_8 
DOCKED: REMARK    8  A    between atoms: P_8  and  O_10 
DOCKED: REMARK    9  A    between atoms: P_8  and  O_11 
DOCKED: REMARK   10  A    between atoms: O_12  and  P_13 
DOCKED: REMARK   11  A    between atoms: P_13  and  O_15 
DOCKED: REMARK   12  A    between atoms: P_13  and  O_16 
DOCKED: REMARK   13  A    between atoms: O_17  and  P_18 
DOCKED: REMARK   14  A    between atoms: P_18  and  O_20 
DOCKED: REMARK   15  A    between atoms: P_18  and  O_21 
DOCKED: REMARK   16  A    between atoms: O_22  and  P_23 
DOCKED: REMARK   17  A    between atoms: P_23  and  O_25 
DOCKED: REMARK   18  A    between atoms: P_23  and  O_26 
DOCKED: REMARK   19  A    between atoms: O_27  and  P_28 
DOCKED: REMARK   20  A    between atoms: P_28  and  O_30 
DOCKED: REMARK   21  A    between atoms: P_28  and  O_31 
DOCKED: REMARK   22  A    between atoms: O_32  and  P_33 
DOCKED: REMARK   23  A    between atoms: P_33  and  O_35 
DOCKED: REMARK   24  A    between atoms: P_33  and  O_36 
DOCKED: USER                              x       y       z     vdW  Elec       q    Type
DOCKED: USER                           _______ _______ _______ _____ _____    ______ ____
DOCKED: ROOT
DOCKED: ATOM      1  C   UNL d   1     -11.749  -8.396 -16.914 -0.09 -0.00    +0.194 C 
DOCKED: ATOM      2  C   UNL d   1     -13.112  -7.735 -17.127 -0.03 -0.00    +0.194 C 
DOCKED: ATOM      3  C   UNL d   1     -13.379  -7.452 -18.607 -0.00 -0.01    +0.194 C 
DOCKED: ATOM      4  C   UNL d   1     -13.184  -8.676 -19.498 -0.00 -0.01    +0.194 C 
DOCKED: ATOM      5  C   UNL d   1     -11.888  -9.433 -19.239 -0.04 -0.03    +0.194 C 
DOCKED: ATOM      6  C   UNL d   1     -11.591  -9.662 -17.756 -0.08 +0.01    +0.194 C 
DOCKED: ENDROOT
DOCKED: BRANCH   1   7
DOCKED: ATOM      7  O   UNL d   1     -11.651  -8.782 -15.541 -0.19 -0.02    -0.278 OA
DOCKED: BRANCH   7   8
DOCKED: ATOM      8  P   UNL d   1     -10.760  -7.887 -14.562 -0.28 -0.01    +0.473 P 
DOCKED: ATOM      9  O   UNL d   1      -9.666  -8.615 -13.864 -0.48 +0.01    -0.228 OA
DOCKED: BRANCH   8  10
DOCKED: ATOM     10  O   UNL d   1     -10.232  -6.704 -15.493 -0.20 +0.04    -0.303 OA
DOCKED: ATOM     11  H   UNL d   1      -9.792  -7.078 -16.280 +0.13 -0.03    +0.222 HD
DOCKED: ENDBRANCH   8  10
DOCKED: BRANCH   8  12
DOCKED: ATOM     12  O   UNL d   1     -11.801  -7.135 -13.627 -0.27 +0.05    -0.303 OA
DOCKED: ATOM     13  H   UNL d   1     -12.608  -7.667 -13.443 -0.12 -0.03    +0.222 HD
DOCKED: ENDBRANCH   8  12
DOCKED: ENDBRANCH   7   8
DOCKED: ENDBRANCH   1   7
DOCKED: BRANCH   2  14
DOCKED: ATOM     14  O   UNL d   1     -14.137  -8.609 -16.638 -0.03 -0.04    -0.278 OA
DOCKED: BRANCH  14  15
DOCKED: ATOM     15  P   UNL d   1     -14.706  -8.297 -15.174 -0.05 +0.07    +0.473 P 
DOCKED: ATOM     16  O   UNL d   1     -14.334  -6.976 -14.577 -0.08 +0.01    -0.228 OA
DOCKED: BRANCH  15  17
DOCKED: ATOM     17  O   UNL d   1     -16.280  -8.487 -15.322 -0.02 -0.06    -0.303 OA
DOCKED: ATOM     18  H   UNL d   1     -16.679  -7.747 -15.818 +0.02 +0.03    +0.222 HD
DOCKED: ENDBRANCH  15  17
DOCKED: BRANCH  15  19
DOCKED: ATOM     19  O   UNL d   1     -14.309  -9.574 -14.314 -0.14 -0.13    -0.303 OA
DOCKED: ATOM     20  H   UNL d   1     -13.351  -9.753 -14.355 +0.08 +0.11    +0.222 HD
DOCKED: ENDBRANCH  15  19
DOCKED: ENDBRANCH  14  15
DOCKED: ENDBRANCH   2  14
DOCKED: BRANCH   6  21
DOCKED: ATOM     21  O   UNL d   1     -10.224 -10.057 -17.665 -0.13 +0.01    -0.278 OA
DOCKED: BRANCH  21  22
DOCKED: ATOM     22  P   UNL d   1      -9.073  -8.958 -17.780 -0.26 -0.11    +0.473 P 
DOCKED: ATOM     23  O   UNL d   1      -8.282  -8.635 -16.558 -0.36 +0.01    -0.228 OA
DOCKED: BRANCH  22  24
DOCKED: ATOM     24  O   UNL d   1      -8.218  -9.509 -19.004 -0.67 +0.13    -0.303 OA
DOCKED: ATOM     25  H   UNL d   1      -8.627  -9.175 -19.842 -0.48 -0.41    +0.222 HD
DOCKED: ENDBRANCH  22  24
DOCKED: BRANCH  22  26
DOCKED: ATOM     26  O   UNL d   1      -9.860  -7.733 -18.452 -0.18 +0.18    -0.303 OA
DOCKED: ATOM     27  H   UNL d   1      -9.816  -7.818 -19.427 -0.47 -0.31    +0.222 HD
DOCKED: ENDBRANCH  22  26
DOCKED: ENDBRANCH  21  22
DOCKED: ENDBRANCH   6  21
DOCKED: BRANCH   3  28
DOCKED: ATOM     28  O   UNL d   1     -14.751  -7.105 -18.737 +0.00 +0.00    -0.278 OA
DOCKED: BRANCH  28  29
DOCKED: ATOM     29  P   UNL d   1     -15.257  -5.653 -18.320 +0.01 -0.02    +0.473 P 
DOCKED: ATOM     30  O   UNL d   1     -16.250  -5.034 -19.235 +0.00 +0.01    -0.228 OA
DOCKED: BRANCH  29  31
DOCKED: ATOM     31  O   UNL d   1     -15.733  -5.943 -16.820 -0.00 +0.01    -0.303 OA
DOCKED: ATOM     32  H   UNL d   1     -15.346  -6.800 -16.528 +0.02 +0.00    +0.222 HD
DOCKED: ENDBRANCH  29  31
DOCKED: BRANCH  29  33
DOCKED: ATOM     33  O   UNL d   1     -13.887  -4.870 -18.109 -0.00 +0.05    -0.303 OA
DOCKED: ATOM     34  H   UNL d   1     -13.322  -4.989 -18.912 +0.02 -0.04    +0.222 HD
DOCKED: ENDBRANCH  29  33
DOCKED: ENDBRANCH  28  29
DOCKED: ENDBRANCH   3  28
DOCKED: BRANCH   5  35
DOCKED: ATOM     35  O   UNL d   1     -12.064 -10.717 -19.835 -0.01 -0.00    -0.278 OA
DOCKED: BRANCH  35  36
DOCKED: ATOM     36  P   UNL d   1     -11.222 -11.126 -21.127 -0.01 -0.05    +0.473 P 
DOCKED: ATOM     37  O   UNL d   1     -11.230 -12.583 -21.467 -0.01 -0.02    -0.228 OA
DOCKED: BRANCH  36  38
DOCKED: ATOM     38  O   UNL d   1     -11.864 -10.190 -22.244 -0.02 +0.06    -0.303 OA
DOCKED: ATOM     39  H   UNL d   1     -11.660  -9.253 -22.034 +0.02 -0.09    +0.222 HD
DOCKED: ENDBRANCH  36  38
DOCKED: BRANCH  36  40
DOCKED: ATOM     40  O   UNL d   1      -9.808 -10.460 -20.836 -0.15 +0.16    -0.303 OA
DOCKED: ATOM     41  H   UNL d   1      -9.873  -9.746 -20.164 -0.13 -0.19    +0.222 HD
DOCKED: ENDBRANCH  36  40
DOCKED: ENDBRANCH  35  36
DOCKED: ENDBRANCH   5  35
DOCKED: BRANCH   4  42
DOCKED: ATOM     42  O   UNL d   1     -13.132  -8.203 -20.848 -0.01 +0.04    -0.278 OA
DOCKED: BRANCH  42  43
DOCKED: ATOM     43  P   UNL d   1     -12.047  -7.100 -21.238 -0.03 -0.21    +0.473 P 
DOCKED: ATOM     44  O   UNL d   1     -12.232  -5.729 -20.685 -0.02 +0.07    -0.228 OA
DOCKED: BRANCH  43  45
DOCKED: ATOM     45  O   UNL d   1     -10.678  -7.794 -20.815 +0.17 +0.40    -0.303 OA
DOCKED: ATOM     46  H   UNL d   1     -10.495  -8.585 -21.359 -0.33 -0.31    +0.222 HD
DOCKED: ENDBRANCH  43  45
DOCKED: BRANCH  43  47
DOCKED: ATOM     47  O   UNL d   1     -11.982  -7.199 -22.836 -0.03 +0.13    -0.303 OA
DOCKED: ATOM     48  H   UNL d   1     -11.941  -8.141 -23.100 +0.02 -0.08    +0.222 HD
DOCKED: ENDBRANCH  43  47
DOCKED: ENDBRANCH  42  43
DOCKED: ENDBRANCH   4  42
DOCKED: TORSDOF 24
DOCKED: TER
DOCKED: ENDMDL
________________________________________________________________________________


	BEGINNING GENETIC ALGORITHM DOCKING 50 of 100
Run: 50 Seed: 1853978262 888587228 [ Run 50 of 100 GA/GALS ]
Beginning LAMARCKIAN GENETIC ALGORITHM (LGA), with a maximum of 25000000 energy evaluations.

Final-Value: -17.916


	FINAL GENETIC ALGORITHM DOCKED STATE
	_______________________________________________


Detailed state:  trans -19.401 -14.529 2.335 quatxyzw 0.436208 -0.041043 -0.669887 -0.599407 center 0.035 0.082 -0.065 ntor 24 -107.8411 34.3208 45.8416 17.3325 -3.1934 180.0000 -38.8077 -74.5376 107.2068 105.7786 48.5828 -97.8178 -176.2841 163.5487 175.1493 79.6481 72.5633 -83.2183 54.5459 0.8442 174.3571 -11.7378 14.8498 -172.5184
State:	-19.401 -14.529   2.335   0.545 -0.051 -0.837 -106.345   -107.84   34.32   45.84   17.33   -3.19  180.00  -38.81  -74.54  107.21  105.78   48.58  -97.82 -176.28  163.55  175.15   79.65   72.56  -83.22   54.55    0.84  174.36  -11.74   14.85 -172.52

DOCKED: MODEL       50
DOCKED: USER    Run = 50
DOCKED: USER    DPF = D:/Protein_go_brrr/autodock/final/AncA/IHP/dock.dpf
DOCKED: USER  
DOCKED: USER    Estimated Free Energy of Binding    =   +3.90 kcal/mol  [=(1)+(2)+(3)-(4)]
DOCKED: USER    
DOCKED: USER    (1) Final Intermolecular Energy     =   -3.26 kcal/mol
DOCKED: USER        vdW + Hbond + desolv Energy     =   -3.17 kcal/mol
DOCKED: USER        Electrostatic Energy            =   -0.09 kcal/mol
DOCKED: USER    (2) Final Total Internal Energy     =  -14.66 kcal/mol
DOCKED: USER    (3) Torsional Free Energy           =   +7.16 kcal/mol
DOCKED: USER    (4) Unbound System's Energy  [=(2)] =  -14.66 kcal/mol
DOCKED: USER    
DOCKED: USER    
DOCKED: USER    NEWDPF move IHP_ideal_opt.pdbqt
DOCKED: USER    NEWDPF about 0.035000 0.082000 -0.065000
DOCKED: USER    NEWDPF tran0 -19.400961 -14.528801 2.334723
DOCKED: USER    NEWDPF quaternion0 0.436208 -0.041043 -0.669887 -0.599407
DOCKED: USER    NEWDPF axisangle0 0.544958 -0.051275 -0.836894 -106.345081
DOCKED: USER    NEWDPF quat0 0.544958 -0.051275 -0.836894 -106.345081
DOCKED: USER    NEWDPF dihe0 -107.84 34.32 45.84 17.33 -3.19 180.00 -38.81 -74.54 107.21 105.78 48.58 -97.82 -176.28 163.55 175.15 79.65 72.56 -83.22 54.55 0.84 174.36 -11.74 14.85 -172.52 
DOCKED: USER  keepresnum = 1 
DOCKED: USER  
DOCKED: REMARK  24 active torsions:
DOCKED: REMARK  status: ('A' for Active; 'I' for Inactive)
DOCKED: REMARK    1  A    between atoms: C_1  and  O_7 
DOCKED: REMARK    2  A    between atoms: C_2  and  O_12 
DOCKED: REMARK    3  A    between atoms: C_3  and  O_17 
DOCKED: REMARK    4  A    between atoms: C_4  and  O_22 
DOCKED: REMARK    5  A    between atoms: C_5  and  O_27 
DOCKED: REMARK    6  A    between atoms: C_6  and  O_32 
DOCKED: REMARK    7  A    between atoms: O_7  and  P_8 
DOCKED: REMARK    8  A    between atoms: P_8  and  O_10 
DOCKED: REMARK    9  A    between atoms: P_8  and  O_11 
DOCKED: REMARK   10  A    between atoms: O_12  and  P_13 
DOCKED: REMARK   11  A    between atoms: P_13  and  O_15 
DOCKED: REMARK   12  A    between atoms: P_13  and  O_16 
DOCKED: REMARK   13  A    between atoms: O_17  and  P_18 
DOCKED: REMARK   14  A    between atoms: P_18  and  O_20 
DOCKED: REMARK   15  A    between atoms: P_18  and  O_21 
DOCKED: REMARK   16  A    between atoms: O_22  and  P_23 
DOCKED: REMARK   17  A    between atoms: P_23  and  O_25 
DOCKED: REMARK   18  A    between atoms: P_23  and  O_26 
DOCKED: REMARK   19  A    between atoms: O_27  and  P_28 
DOCKED: REMARK   20  A    between atoms: P_28  and  O_30 
DOCKED: REMARK   21  A    between atoms: P_28  and  O_31 
DOCKED: REMARK   22  A    between atoms: O_32  and  P_33 
DOCKED: REMARK   23  A    between atoms: P_33  and  O_35 
DOCKED: REMARK   24  A    between atoms: P_33  and  O_36 
DOCKED: USER                              x       y       z     vdW  Elec       q    Type
DOCKED: USER                           _______ _______ _______ _____ _____    ______ ____
DOCKED: ROOT
DOCKED: ATOM      1  C   UNL d   1     -20.459 -15.703   1.638 -0.05 +0.02    +0.194 C 
DOCKED: ATOM      2  C   UNL d   1     -20.966 -14.260   1.614 -0.10 +0.01    +0.194 C 
DOCKED: ATOM      3  C   UNL d   1     -20.703 -13.545   2.941 -0.15 -0.00    +0.194 C 
DOCKED: ATOM      4  C   UNL d   1     -19.249 -13.639   3.397 -0.01 +0.01    +0.194 C 
DOCKED: ATOM      5  C   UNL d   1     -18.666 -15.044   3.327 -0.14 +0.01    +0.194 C 
DOCKED: ATOM      6  C   UNL d   1     -18.982 -15.782   2.025 -0.10 +0.02    +0.194 C 
DOCKED: ENDROOT
DOCKED: BRANCH   1   7
DOCKED: ATOM      7  O   UNL d   1     -20.584 -16.242   0.320 -0.01 -0.03    -0.278 OA
DOCKED: BRANCH   7   8
DOCKED: ATOM      8  P   UNL d   1     -22.051 -16.487  -0.264 +0.00 +0.04    +0.473 P 
DOCKED: ATOM      9  O   UNL d   1     -22.321 -17.875  -0.728 -0.00 -0.02    -0.228 OA
DOCKED: BRANCH   8  10
DOCKED: ATOM     10  O   UNL d   1     -23.019 -16.018   0.914 -0.00 -0.02    -0.303 OA
DOCKED: ATOM     11  H   UNL d   1     -23.278 -15.089   0.774 +0.01 +0.02    +0.222 HD
DOCKED: ENDBRANCH   8  10
DOCKED: BRANCH   8  12
DOCKED: ATOM     12  O   UNL d   1     -22.262 -15.341  -1.344 -0.00 -0.03    -0.303 OA
DOCKED: ATOM     13  H   UNL d   1     -21.565 -14.648  -1.312 +0.02 +0.02    +0.222 HD
DOCKED: ENDBRANCH   8  12
DOCKED: ENDBRANCH   7   8
DOCKED: ENDBRANCH   1   7
DOCKED: BRANCH   2  14
DOCKED: ATOM     14  O   UNL d   1     -20.293 -13.546   0.569 -0.17 -0.01    -0.278 OA
DOCKED: BRANCH  14  15
DOCKED: ATOM     15  P   UNL d   1     -21.213 -12.670  -0.406 -0.12 +0.01    +0.473 P 
DOCKED: ATOM     16  O   UNL d   1     -20.846 -12.671  -1.856 -0.11 -0.01    -0.228 OA
DOCKED: BRANCH  15  17
DOCKED: ATOM     17  O   UNL d   1     -22.687 -13.213  -0.141 -0.02 -0.02    -0.303 OA
DOCKED: ATOM     18  H   UNL d   1     -22.717 -14.188  -0.195 +0.02 +0.02    +0.222 HD
DOCKED: ENDBRANCH  15  17
DOCKED: BRANCH  15  19
DOCKED: ATOM     19  O   UNL d   1     -21.272 -11.238   0.286 -0.11 +0.03    -0.303 OA
DOCKED: ATOM     20  H   UNL d   1     -21.390 -11.309   1.251 -0.22 -0.05    +0.222 HD
DOCKED: ENDBRANCH  15  19
DOCKED: ENDBRANCH  14  15
DOCKED: ENDBRANCH   2  14
DOCKED: BRANCH   6  21
DOCKED: ATOM     21  O   UNL d   1     -18.681 -17.158   2.247 -0.03 -0.03    -0.278 OA
DOCKED: BRANCH  21  22
DOCKED: ATOM     22  P   UNL d   1     -19.628 -18.034   3.185 +0.00 +0.05    +0.473 P 
DOCKED: ATOM     23  O   UNL d   1     -19.042 -19.229   3.860 -0.00 -0.02    -0.228 OA
DOCKED: BRANCH  22  24
DOCKED: ATOM     24  O   UNL d   1     -20.217 -16.933   4.172 -0.01 -0.02    -0.303 OA
DOCKED: ATOM     25  H   UNL d   1     -19.482 -16.620   4.759 +0.03 +0.02    +0.222 HD
DOCKED: ENDBRANCH  22  24
DOCKED: BRANCH  22  26
DOCKED: ATOM     26  O   UNL d   1     -20.875 -18.314   2.218 -0.00 -0.03    -0.303 OA
DOCKED: ATOM     27  H   UNL d   1     -20.674 -17.967   1.325 +0.01 +0.02    +0.222 HD
DOCKED: ENDBRANCH  22  26
DOCKED: ENDBRANCH  21  22
DOCKED: ENDBRANCH   6  21
DOCKED: BRANCH   3  28
DOCKED: ATOM     28  O   UNL d   1     -20.945 -12.159   2.736 -0.09 +0.05    -0.278 OA
DOCKED: BRANCH  28  29
DOCKED: ATOM     29  P   UNL d   1     -22.333 -11.512   3.176 -0.05 -0.03    +0.473 P 
DOCKED: ATOM     30  O   UNL d   1     -22.728 -11.743   4.589 -0.03 -0.00    -0.228 OA
DOCKED: BRANCH  29  31
DOCKED: ATOM     31  O   UNL d   1     -22.087  -9.995   2.729 -0.10 +0.04    -0.303 OA
DOCKED: ATOM     32  H   UNL d   1     -21.287  -9.962   2.155 -0.52 -0.09    +0.222 HD
DOCKED: ENDBRANCH  29  31
DOCKED: BRANCH  29  33
DOCKED: ATOM     33  O   UNL d   1     -23.324 -12.052   2.053 -0.02 -0.01    -0.303 OA
DOCKED: ATOM     34  H   UNL d   1     -22.792 -12.401   1.296 +0.03 +0.00    +0.222 HD
DOCKED: ENDBRANCH  29  33
DOCKED: ENDBRANCH  28  29
DOCKED: ENDBRANCH   3  28
DOCKED: BRANCH   5  35
DOCKED: ATOM     35  O   UNL d   1     -17.250 -14.880   3.384 -0.07 +0.00    -0.278 OA
DOCKED: BRANCH  35  36
DOCKED: ATOM     36  P   UNL d   1     -16.344 -15.960   4.129 -0.09 +0.03    +0.473 P 
DOCKED: ATOM     37  O   UNL d   1     -15.365 -16.688   3.263 -0.09 -0.03    -0.228 OA
DOCKED: BRANCH  36  38
DOCKED: ATOM     38  O   UNL d   1     -15.676 -15.087   5.281 -0.21 -0.00    -0.303 OA
DOCKED: ATOM     39  H   UNL d   1     -16.332 -14.437   5.613 -0.28 -0.02    +0.222 HD
DOCKED: ENDBRANCH  36  38
DOCKED: BRANCH  36  40
DOCKED: ATOM     40  O   UNL d   1     -17.425 -16.841   4.895 -0.03 -0.02    -0.303 OA
DOCKED: ATOM     41  H   UNL d   1     -18.020 -17.312   4.270 +0.03 +0.02    +0.222 HD
DOCKED: ENDBRANCH  36  40
DOCKED: ENDBRANCH  35  36
DOCKED: ENDBRANCH   5  35
DOCKED: BRANCH   4  42
DOCKED: ATOM     42  O   UNL d   1     -19.218 -13.237   4.770 -0.23 +0.01    -0.278 OA
DOCKED: BRANCH  42  43
DOCKED: ATOM     43  P   UNL d   1     -19.728 -14.259   5.884 -0.08 +0.01    +0.473 P 
DOCKED: ATOM     44  O   UNL d   1     -20.904 -15.109   5.548 -0.02 -0.01    -0.228 OA
DOCKED: BRANCH  43  45
DOCKED: ATOM     45  O   UNL d   1     -18.411 -15.079   6.236 -0.07 -0.01    -0.303 OA
DOCKED: ATOM     46  H   UNL d   1     -17.773 -15.066   5.494 +0.04 -0.00    +0.222 HD
DOCKED: ENDBRANCH  43  45
DOCKED: BRANCH  43  47
DOCKED: ATOM     47  O   UNL d   1     -19.892 -13.333   7.182 -0.10 -0.02    -0.303 OA
DOCKED: ATOM     48  H   UNL d   1     -20.747 -12.858   7.134 +0.05 +0.02    +0.222 HD
DOCKED: ENDBRANCH  43  47
DOCKED: ENDBRANCH  42  43
DOCKED: ENDBRANCH   4  42
DOCKED: TORSDOF 24
DOCKED: TER
DOCKED: ENDMDL
________________________________________________________________________________


	BEGINNING GENETIC ALGORITHM DOCKING 51 of 100
Run: 51 Seed: 691259979 1323225459 [ Run 51 of 100 GA/GALS ]
Beginning LAMARCKIAN GENETIC ALGORITHM (LGA), with a maximum of 25000000 energy evaluations.

Final-Value: -17.906


	FINAL GENETIC ALGORITHM DOCKED STATE
	_______________________________________________


Detailed state:  trans -10.127 -19.338 -7.998 quatxyzw 0.309745 0.879825 0.311443 -0.181575 center 0.035 0.082 -0.065 ntor 24 -176.1506 -2.3603 45.2504 55.3040 10.4780 162.1321 -105.7345 20.1610 -9.6830 135.0547 9.1955 -38.7578 45.3367 154.2477 -11.7725 -142.0126 74.3102 -78.6876 1.4014 -19.2696 -21.1655 -29.9776 23.0267 17.5578
State:	-10.127 -19.338  -7.998   0.315  0.895  0.317 -159.077   -176.15   -2.36   45.25   55.30   10.48  162.13 -105.73   20.16   -9.68  135.05    9.20  -38.76   45.34  154.25  -11.77 -142.01   74.31  -78.69    1.40  -19.27  -21.17  -29.98   23.03   17.56

DOCKED: MODEL       51
DOCKED: USER    Run = 51
DOCKED: USER    DPF = D:/Protein_go_brrr/autodock/final/AncA/IHP/dock.dpf
DOCKED: USER  
DOCKED: USER    Estimated Free Energy of Binding    =   +2.48 kcal/mol  [=(1)+(2)+(3)-(4)]
DOCKED: USER    
DOCKED: USER    (1) Final Intermolecular Energy     =   -4.67 kcal/mol
DOCKED: USER        vdW + Hbond + desolv Energy     =   -4.40 kcal/mol
DOCKED: USER        Electrostatic Energy            =   -0.28 kcal/mol
DOCKED: USER    (2) Final Total Internal Energy     =  -13.23 kcal/mol
DOCKED: USER    (3) Torsional Free Energy           =   +7.16 kcal/mol
DOCKED: USER    (4) Unbound System's Energy  [=(2)] =  -13.23 kcal/mol
DOCKED: USER    
DOCKED: USER    
DOCKED: USER    NEWDPF move IHP_ideal_opt.pdbqt
DOCKED: USER    NEWDPF about 0.035000 0.082000 -0.065000
DOCKED: USER    NEWDPF tran0 -10.126722 -19.338486 -7.997792
DOCKED: USER    NEWDPF quaternion0 0.309745 0.879825 0.311443 -0.181575
DOCKED: USER    NEWDPF axisangle0 0.314981 0.894697 0.316708 -159.076938
DOCKED: USER    NEWDPF quat0 0.314981 0.894697 0.316708 -159.076938
DOCKED: USER    NEWDPF dihe0 -176.15 -2.36 45.25 55.30 10.48 162.13 -105.73 20.16 -9.68 135.05 9.20 -38.76 45.34 154.25 -11.77 -142.01 74.31 -78.69 1.40 -19.27 -21.17 -29.98 23.03 17.56 
DOCKED: USER  keepresnum = 1 
DOCKED: USER  
DOCKED: REMARK  24 active torsions:
DOCKED: REMARK  status: ('A' for Active; 'I' for Inactive)
DOCKED: REMARK    1  A    between atoms: C_1  and  O_7 
DOCKED: REMARK    2  A    between atoms: C_2  and  O_12 
DOCKED: REMARK    3  A    between atoms: C_3  and  O_17 
DOCKED: REMARK    4  A    between atoms: C_4  and  O_22 
DOCKED: REMARK    5  A    between atoms: C_5  and  O_27 
DOCKED: REMARK    6  A    between atoms: C_6  and  O_32 
DOCKED: REMARK    7  A    between atoms: O_7  and  P_8 
DOCKED: REMARK    8  A    between atoms: P_8  and  O_10 
DOCKED: REMARK    9  A    between atoms: P_8  and  O_11 
DOCKED: REMARK   10  A    between atoms: O_12  and  P_13 
DOCKED: REMARK   11  A    between atoms: P_13  and  O_15 
DOCKED: REMARK   12  A    between atoms: P_13  and  O_16 
DOCKED: REMARK   13  A    between atoms: O_17  and  P_18 
DOCKED: REMARK   14  A    between atoms: P_18  and  O_20 
DOCKED: REMARK   15  A    between atoms: P_18  and  O_21 
DOCKED: REMARK   16  A    between atoms: O_22  and  P_23 
DOCKED: REMARK   17  A    between atoms: P_23  and  O_25 
DOCKED: REMARK   18  A    between atoms: P_23  and  O_26 
DOCKED: REMARK   19  A    between atoms: O_27  and  P_28 
DOCKED: REMARK   20  A    between atoms: P_28  and  O_30 
DOCKED: REMARK   21  A    between atoms: P_28  and  O_31 
DOCKED: REMARK   22  A    between atoms: O_32  and  P_33 
DOCKED: REMARK   23  A    between atoms: P_33  and  O_35 
DOCKED: REMARK   24  A    between atoms: P_33  and  O_36 
DOCKED: USER                              x       y       z     vdW  Elec       q    Type
DOCKED: USER                           _______ _______ _______ _____ _____    ______ ____
DOCKED: ROOT
DOCKED: ATOM      1  C   UNL d   1     -11.035 -18.715  -9.328 -0.14 +0.08    +0.194 C 
DOCKED: ATOM      2  C   UNL d   1     -10.645 -20.190  -9.428 -0.06 +0.09    +0.194 C 
DOCKED: ATOM      3  C   UNL d   1      -9.198 -20.425  -8.991 -0.11 +0.14    +0.194 C 
DOCKED: ATOM      4  C   UNL d   1      -8.881 -19.836  -7.619 -0.12 +0.16    +0.194 C 
DOCKED: ATOM      5  C   UNL d   1      -9.356 -18.400  -7.435 -0.16 +0.13    +0.194 C 
DOCKED: ATOM      6  C   UNL d   1     -10.782 -18.152  -7.929 -0.16 +0.08    +0.194 C 
DOCKED: ENDROOT
DOCKED: BRANCH   1   7
DOCKED: ATOM      7  O   UNL d   1     -12.437 -18.605  -9.585 -0.04 -0.09    -0.278 OA
DOCKED: BRANCH   7   8
DOCKED: ATOM      8  P   UNL d   1     -12.917 -17.688 -10.802 -0.07 +0.15    +0.473 P 
DOCKED: ATOM      9  O   UNL d   1     -13.194 -18.417 -12.070 -0.04 -0.09    -0.228 OA
DOCKED: BRANCH   8  10
DOCKED: ATOM     10  O   UNL d   1     -14.191 -16.920 -10.228 -0.04 -0.08    -0.303 OA
DOCKED: ATOM     11  H   UNL d   1     -14.123 -16.854  -9.257 +0.04 +0.05    +0.222 HD
DOCKED: ENDBRANCH   8  10
DOCKED: BRANCH   8  12
DOCKED: ATOM     12  O   UNL d   1     -11.839 -16.524 -10.892 -0.19 -0.07    -0.303 OA
DOCKED: ATOM     13  H   UNL d   1     -11.639 -16.116 -10.019 -0.49 -0.01    +0.222 HD
DOCKED: ENDBRANCH   8  12
DOCKED: ENDBRANCH   7   8
DOCKED: ENDBRANCH   1   7
DOCKED: BRANCH   2  14
DOCKED: ATOM     14  O   UNL d   1     -11.508 -20.960  -8.582 -0.01 -0.10    -0.278 OA
DOCKED: BRANCH  14  15
DOCKED: ATOM     15  P   UNL d   1     -12.528 -21.954  -9.313 +0.00 +0.13    +0.473 P 
DOCKED: ATOM     16  O   UNL d   1     -13.822 -22.225  -8.612 +0.00 -0.05    -0.228 OA
DOCKED: BRANCH  15  17
DOCKED: ATOM     17  O   UNL d   1     -12.730 -21.309 -10.756 -0.00 -0.08    -0.303 OA
DOCKED: ATOM     18  H   UNL d   1     -12.955 -20.361 -10.689 +0.02 +0.06    +0.222 HD
DOCKED: ENDBRANCH  15  17
DOCKED: BRANCH  15  19
DOCKED: ATOM     19  O   UNL d   1     -11.653 -23.237  -9.657 +0.00 -0.08    -0.303 OA
DOCKED: ATOM     20  H   UNL d   1     -10.716 -23.108  -9.421 +0.01 +0.07    +0.222 HD
DOCKED: ENDBRANCH  15  19
DOCKED: ENDBRANCH  14  15
DOCKED: ENDBRANCH   2  14
DOCKED: BRANCH   6  21
DOCKED: ATOM     21  O   UNL d   1     -10.950 -16.738  -8.010 -0.20 -0.08    -0.278 OA
DOCKED: BRANCH  21  22
DOCKED: ATOM     22  P   UNL d   1     -12.136 -16.034  -7.209 -0.11 +0.09    +0.473 P 
DOCKED: ATOM     23  O   UNL d   1     -12.771 -16.784  -6.087 -0.04 -0.06    -0.228 OA
DOCKED: BRANCH  22  24
DOCKED: ATOM     24  O   UNL d   1     -11.471 -14.649  -6.793 -0.23 -0.06    -0.303 OA
DOCKED: ATOM     25  H   UNL d   1     -10.636 -14.845  -6.297 +0.08 +0.08    +0.222 HD
DOCKED: ENDBRANCH  22  24
DOCKED: BRANCH  22  26
DOCKED: ATOM     26  O   UNL d   1     -13.113 -15.588  -8.399 -0.11 -0.02    -0.303 OA
DOCKED: ATOM     27  H   UNL d   1     -12.646 -15.686  -9.253 -0.48 -0.02    +0.222 HD
DOCKED: ENDBRANCH  22  26
DOCKED: ENDBRANCH  21  22
DOCKED: ENDBRANCH   6  21
DOCKED: BRANCH   3  28
DOCKED: ATOM     28  O   UNL d   1      -9.014 -21.828  -8.851 -0.04 -0.18    -0.278 OA
DOCKED: BRANCH  28  29
DOCKED: ATOM     29  P   UNL d   1      -8.744 -22.736 -10.131 -0.02 +0.26    +0.473 P 
DOCKED: ATOM     30  O   UNL d   1      -8.844 -24.201  -9.910 -0.00 -0.09    -0.228 OA
DOCKED: BRANCH  29  31
DOCKED: ATOM     31  O   UNL d   1      -9.781 -22.083 -11.161 -0.01 -0.13    -0.303 OA
DOCKED: ATOM     32  H   UNL d   1     -10.675 -22.083 -10.747 +0.02 +0.08    +0.222 HD
DOCKED: ENDBRANCH  29  31
DOCKED: BRANCH  29  33
DOCKED: ATOM     33  O   UNL d   1      -7.343 -22.180 -10.644 -0.07 -0.28    -0.303 OA
DOCKED: ATOM     34  H   UNL d   1      -6.621 -22.566 -10.090 +0.01 +0.25    +0.222 HD
DOCKED: ENDBRANCH  29  33
DOCKED: ENDBRANCH  28  29
DOCKED: ENDBRANCH   3  28
DOCKED: BRANCH   5  35
DOCKED: ATOM     35  O   UNL d   1      -9.353 -18.169  -6.028 -0.08 -0.17    -0.278 OA
DOCKED: BRANCH  35  36
DOCKED: ATOM     36  P   UNL d   1      -9.172 -16.691  -5.456 -0.13 +0.30    +0.473 P 
DOCKED: ATOM     37  O   UNL d   1     -10.315 -16.170  -4.642 -0.09 -0.11    -0.228 OA
DOCKED: BRANCH  36  38
DOCKED: ATOM     38  O   UNL d   1      -7.802 -16.816  -4.655 -0.13 -0.30    -0.303 OA
DOCKED: ATOM     39  H   UNL d   1      -7.976 -17.235  -3.784 +0.05 +0.20    +0.222 HD
DOCKED: ENDBRANCH  36  38
DOCKED: BRANCH  36  40
DOCKED: ATOM     40  O   UNL d   1      -8.780 -15.868  -6.759 -0.27 -0.21    -0.303 OA
DOCKED: ATOM     41  H   UNL d   1      -9.568 -15.465  -7.186 +0.08 +0.11    +0.222 HD
DOCKED: ENDBRANCH  36  40
DOCKED: ENDBRANCH  35  36
DOCKED: ENDBRANCH   5  35
DOCKED: BRANCH   4  42
DOCKED: ATOM     42  O   UNL d   1      -7.455 -19.828  -7.490 -0.39 -0.41    -0.278 OA
DOCKED: BRANCH  42  43
DOCKED: ATOM     43  P   UNL d   1      -6.737 -21.065  -6.784 -0.00 +0.61    +0.473 P 
DOCKED: ATOM     44  O   UNL d   1      -7.474 -21.752  -5.686 -0.02 -0.15    -0.228 OA
DOCKED: BRANCH  43  45
DOCKED: ATOM     45  O   UNL d   1      -6.376 -22.007  -8.014 -0.44 -0.49    -0.303 OA
DOCKED: ATOM     46  H   UNL d   1      -7.181 -22.329  -8.467 +0.01 +0.24    +0.222 HD
DOCKED: ENDBRANCH  43  45
DOCKED: BRANCH  43  47
DOCKED: ATOM     47  O   UNL d   1      -5.299 -20.478  -6.390 -0.22 -0.46    -0.303 OA
DOCKED: ATOM     48  H   UNL d   1      -5.045 -20.813  -5.506 +0.02 +0.22    +0.222 HD
DOCKED: ENDBRANCH  43  47
DOCKED: ENDBRANCH  42  43
DOCKED: ENDBRANCH   4  42
DOCKED: TORSDOF 24
DOCKED: TER
DOCKED: ENDMDL
________________________________________________________________________________


	BEGINNING GENETIC ALGORITHM DOCKING 52 of 100
Run: 52 Seed: 565649685 1357198363 [ Run 52 of 100 GA/GALS ]
Beginning LAMARCKIAN GENETIC ALGORITHM (LGA), with a maximum of 25000000 energy evaluations.

Final-Value: -15.425


	FINAL GENETIC ALGORITHM DOCKED STATE
	_______________________________________________


Detailed state:  trans -5.314 -14.882 11.430 quatxyzw 0.039847 -0.371507 -0.603161 0.704692 center 0.035 0.082 -0.065 ntor 24 63.1497 40.2587 157.3766 7.5269 72.0119 159.7908 -128.8088 -79.9149 -27.6589 72.7096 91.2604 -62.9947 156.2826 -165.1502 -79.2139 -153.7478 -1.0185 47.2203 43.5394 1.2123 166.1105 4.6836 137.3280 180.0000
State:	 -5.314 -14.882  11.430   0.056 -0.524 -0.850 90.391     63.15   40.26  157.38    7.53   72.01  159.79 -128.81  -79.91  -27.66   72.71   91.26  -62.99  156.28 -165.15  -79.21 -153.75   -1.02   47.22   43.54    1.21  166.11    4.68  137.33  180.00

DOCKED: MODEL       52
DOCKED: USER    Run = 52
DOCKED: USER    DPF = D:/Protein_go_brrr/autodock/final/AncA/IHP/dock.dpf
DOCKED: USER  
DOCKED: USER    Estimated Free Energy of Binding    =   +3.10 kcal/mol  [=(1)+(2)+(3)-(4)]
DOCKED: USER    
DOCKED: USER    (1) Final Intermolecular Energy     =   -4.05 kcal/mol
DOCKED: USER        vdW + Hbond + desolv Energy     =   -3.66 kcal/mol
DOCKED: USER        Electrostatic Energy            =   -0.40 kcal/mol
DOCKED: USER    (2) Final Total Internal Energy     =  -11.37 kcal/mol
DOCKED: USER    (3) Torsional Free Energy           =   +7.16 kcal/mol
DOCKED: USER    (4) Unbound System's Energy  [=(2)] =  -11.37 kcal/mol
DOCKED: USER    
DOCKED: USER    
DOCKED: USER    NEWDPF move IHP_ideal_opt.pdbqt
DOCKED: USER    NEWDPF about 0.035000 0.082000 -0.065000
DOCKED: USER    NEWDPF tran0 -5.314001 -14.882458 11.429870
DOCKED: USER    NEWDPF quaternion0 0.039847 -0.371507 -0.603161 0.704692
DOCKED: USER    NEWDPF axisangle0 0.056160 -0.523609 -0.850106 90.390665
DOCKED: USER    NEWDPF quat0 0.056160 -0.523609 -0.850106 90.390665
DOCKED: USER    NEWDPF dihe0 63.15 40.26 157.38 7.53 72.01 159.79 -128.81 -79.91 -27.66 72.71 91.26 -62.99 156.28 -165.15 -79.21 -153.75 -1.02 47.22 43.54 1.21 166.11 4.68 137.33 180.00 
DOCKED: USER  keepresnum = 1 
DOCKED: USER  
DOCKED: REMARK  24 active torsions:
DOCKED: REMARK  status: ('A' for Active; 'I' for Inactive)
DOCKED: REMARK    1  A    between atoms: C_1  and  O_7 
DOCKED: REMARK    2  A    between atoms: C_2  and  O_12 
DOCKED: REMARK    3  A    between atoms: C_3  and  O_17 
DOCKED: REMARK    4  A    between atoms: C_4  and  O_22 
DOCKED: REMARK    5  A    between atoms: C_5  and  O_27 
DOCKED: REMARK    6  A    between atoms: C_6  and  O_32 
DOCKED: REMARK    7  A    between atoms: O_7  and  P_8 
DOCKED: REMARK    8  A    between atoms: P_8  and  O_10 
DOCKED: REMARK    9  A    between atoms: P_8  and  O_11 
DOCKED: REMARK   10  A    between atoms: O_12  and  P_13 
DOCKED: REMARK   11  A    between atoms: P_13  and  O_15 
DOCKED: REMARK   12  A    between atoms: P_13  and  O_16 
DOCKED: REMARK   13  A    between atoms: O_17  and  P_18 
DOCKED: REMARK   14  A    between atoms: P_18  and  O_20 
DOCKED: REMARK   15  A    between atoms: P_18  and  O_21 
DOCKED: REMARK   16  A    between atoms: O_22  and  P_23 
DOCKED: REMARK   17  A    between atoms: P_23  and  O_25 
DOCKED: REMARK   18  A    between atoms: P_23  and  O_26 
DOCKED: REMARK   19  A    between atoms: O_27  and  P_28 
DOCKED: REMARK   20  A    between atoms: P_28  and  O_30 
DOCKED: REMARK   21  A    between atoms: P_28  and  O_31 
DOCKED: REMARK   22  A    between atoms: O_32  and  P_33 
DOCKED: REMARK   23  A    between atoms: P_33  and  O_35 
DOCKED: REMARK   24  A    between atoms: P_33  and  O_36 
DOCKED: USER                              x       y       z     vdW  Elec       q    Type
DOCKED: USER                           _______ _______ _______ _____ _____    ______ ____
DOCKED: ROOT
DOCKED: ATOM      1  C   UNL d   1      -4.161 -13.695  10.936 -0.10 +0.02    +0.194 C 
DOCKED: ATOM      2  C   UNL d   1      -3.625 -15.121  11.068 -0.02 +0.04    +0.194 C 
DOCKED: ATOM      3  C   UNL d   1      -4.147 -15.808  12.332 -0.00 +0.03    +0.194 C 
DOCKED: ATOM      4  C   UNL d   1      -5.667 -15.748  12.464 -0.01 +0.03    +0.194 C 
DOCKED: ATOM      5  C   UNL d   1      -6.257 -14.364  12.226 -0.08 +0.02    +0.194 C 
DOCKED: ATOM      6  C   UNL d   1      -5.689 -13.652  10.996 -0.14 +0.02    +0.194 C 
DOCKED: ENDROOT
DOCKED: BRANCH   1   7
DOCKED: ATOM      7  O   UNL d   1      -3.771 -13.188   9.657 -0.12 -0.06    -0.278 OA
DOCKED: BRANCH   7   8
DOCKED: ATOM      8  P   UNL d   1      -2.274 -12.662   9.473 -0.18 +0.12    +0.473 P 
DOCKED: ATOM      9  O   UNL d   1      -2.099 -11.608   8.437 -0.33 -0.05    -0.228 OA
DOCKED: BRANCH   8  10
DOCKED: ATOM     10  O   UNL d   1      -1.851 -12.182  10.935 -0.17 +0.07    -0.303 OA
DOCKED: ATOM     11  H   UNL d   1      -2.014 -11.225  11.025 -0.39 -0.36    +0.222 HD
DOCKED: ENDBRANCH   8  10
DOCKED: BRANCH   8  12
DOCKED: ATOM     12  O   UNL d   1      -1.396 -13.972   9.285 -0.16 -0.19    -0.303 OA
DOCKED: ATOM     13  H   UNL d   1      -1.913 -14.802   9.395 +0.05 +0.10    +0.222 HD
DOCKED: ENDBRANCH   8  12
DOCKED: ENDBRANCH   7   8
DOCKED: ENDBRANCH   1   7
DOCKED: BRANCH   2  14
DOCKED: ATOM     14  O   UNL d   1      -4.041 -15.884   9.928 -0.01 -0.08    -0.278 OA
DOCKED: BRANCH  14  15
DOCKED: ATOM     15  P   UNL d   1      -2.915 -16.764   9.206 +0.01 +0.15    +0.473 P 
DOCKED: ATOM     16  O   UNL d   1      -2.469 -16.306   7.853 -0.02 -0.10    -0.228 OA
DOCKED: BRANCH  15  17
DOCKED: ATOM     17  O   UNL d   1      -1.725 -16.815  10.264 +0.00 -0.09    -0.303 OA
DOCKED: ATOM     18  H   UNL d   1      -2.008 -17.248  11.092 +0.01 +0.06    +0.222 HD
DOCKED: ENDBRANCH  15  17
DOCKED: BRANCH  15  19
DOCKED: ATOM     19  O   UNL d   1      -3.469 -18.254   9.278 +0.00 -0.08    -0.303 OA
DOCKED: ATOM     20  H   UNL d   1      -3.717 -18.502  10.188 +0.00 +0.05    +0.222 HD
DOCKED: ENDBRANCH  15  19
DOCKED: ENDBRANCH  14  15
DOCKED: ENDBRANCH   2  14
DOCKED: BRANCH   6  21
DOCKED: ATOM     21  O   UNL d   1      -6.065 -12.281  11.104 -0.25 +0.00    -0.278 OA
DOCKED: BRANCH  21  22
DOCKED: ATOM     22  P   UNL d   1      -5.512 -11.400  12.314 -0.24 -0.07    +0.473 P 
DOCKED: ATOM     23  O   UNL d   1      -5.622 -11.953  13.695 -0.11 +0.00    -0.228 OA
DOCKED: BRANCH  22  24
DOCKED: ATOM     24  O   UNL d   1      -4.026 -11.087  11.836 -0.25 +0.21    -0.303 OA
DOCKED: ATOM     25  H   UNL d   1      -3.919 -11.436  10.915 +0.10 -0.10    +0.222 HD
DOCKED: ENDBRANCH  22  24
DOCKED: BRANCH  22  26
DOCKED: ATOM     26  O   UNL d   1      -6.244  -9.997  12.057 -0.29 +0.02    -0.303 OA
DOCKED: ATOM     27  H   UNL d   1      -6.618  -9.990  11.152 -0.41 -0.04    +0.222 HD
DOCKED: ENDBRANCH  22  26
DOCKED: ENDBRANCH  21  22
DOCKED: ENDBRANCH   6  21
DOCKED: BRANCH   3  28
DOCKED: ATOM     28  O   UNL d   1      -3.832 -17.190  12.229 +0.00 -0.05    -0.278 OA
DOCKED: BRANCH  28  29
DOCKED: ATOM     29  P   UNL d   1      -2.816 -17.862  13.256 +0.00 +0.08    +0.473 P 
DOCKED: ATOM     30  O   UNL d   1      -2.558 -19.310  13.047 +0.00 -0.03    -0.228 OA
DOCKED: BRANCH  29  31
DOCKED: ATOM     31  O   UNL d   1      -1.568 -16.872  13.102 +0.00 -0.06    -0.303 OA
DOCKED: ATOM     32  H   UNL d   1      -1.098 -17.088  12.264 +0.01 +0.05    +0.222 HD
DOCKED: ENDBRANCH  29  31
DOCKED: BRANCH  29  33
DOCKED: ATOM     33  O   UNL d   1      -3.432 -17.436  14.661 +0.00 -0.04    -0.303 OA
DOCKED: ATOM     34  H   UNL d   1      -4.013 -16.647  14.531 +0.00 +0.03    +0.222 HD
DOCKED: ENDBRANCH  29  33
DOCKED: ENDBRANCH  28  29
DOCKED: ENDBRANCH   3  28
DOCKED: BRANCH   5  35
DOCKED: ATOM     35  O   UNL d   1      -7.647 -14.571  11.986 -0.09 -0.05    -0.278 OA
DOCKED: BRANCH  35  36
DOCKED: ATOM     36  P   UNL d   1      -8.186 -14.764  10.497 -0.10 +0.10    +0.473 P 
DOCKED: ATOM     37  O   UNL d   1      -7.366 -15.661   9.625 -0.05 -0.06    -0.228 OA
DOCKED: BRANCH  36  38
DOCKED: ATOM     38  O   UNL d   1      -9.672 -15.279  10.752 -0.06 -0.06    -0.303 OA
DOCKED: ATOM     39  H   UNL d   1      -9.688 -16.258  10.684 +0.03 +0.04    +0.222 HD
DOCKED: ENDBRANCH  36  38
DOCKED: BRANCH  36  40
DOCKED: ATOM     40  O   UNL d   1      -8.380 -13.263  10.009 -0.24 -0.05    -0.303 OA
DOCKED: ATOM     41  H   UNL d   1      -7.732 -12.656  10.431 -0.06 +0.00    +0.222 HD
DOCKED: ENDBRANCH  36  40
DOCKED: ENDBRANCH  35  36
DOCKED: ENDBRANCH   5  35
DOCKED: BRANCH   4  42
DOCKED: ATOM     42  O   UNL d   1      -5.980 -16.113  13.812 -0.01 -0.03    -0.278 OA
DOCKED: BRANCH  42  43
DOCKED: ATOM     43  P   UNL d   1      -5.579 -15.118  14.993 -0.00 +0.05    +0.473 P 
DOCKED: ATOM     44  O   UNL d   1      -6.603 -14.132  15.438 -0.02 -0.02    -0.228 OA
DOCKED: BRANCH  43  45
DOCKED: ATOM     45  O   UNL d   1      -5.093 -16.113  16.137 -0.00 -0.03    -0.303 OA
DOCKED: ATOM     46  H   UNL d   1      -4.882 -16.997  15.776 +0.00 +0.02    +0.222 HD
DOCKED: ENDBRANCH  43  45
DOCKED: BRANCH  43  47
DOCKED: ATOM     47  O   UNL d   1      -4.190 -14.495  14.492 -0.00 -0.02    -0.303 OA
DOCKED: ATOM     48  H   UNL d   1      -4.301 -13.532  14.351 +0.03 +0.01    +0.222 HD
DOCKED: ENDBRANCH  43  47
DOCKED: ENDBRANCH  42  43
DOCKED: ENDBRANCH   4  42
DOCKED: TORSDOF 24
DOCKED: TER
DOCKED: ENDMDL
________________________________________________________________________________


	BEGINNING GENETIC ALGORITHM DOCKING 53 of 100
Run: 53 Seed: 1264466427 1019124455 [ Run 53 of 100 GA/GALS ]
Beginning LAMARCKIAN GENETIC ALGORITHM (LGA), with a maximum of 25000000 energy evaluations.

Final-Value: -17.943


	FINAL GENETIC ALGORITHM DOCKED STATE
	_______________________________________________


Detailed state:  trans -15.129 -0.548 -12.792 quatxyzw -0.495216 0.026403 0.863937 0.087613 center 0.035 0.082 -0.065 ntor 24 -179.7362 8.8143 11.5260 59.3541 6.1919 -151.3403 18.5777 -177.9104 124.8505 3.8175 -2.6464 -179.8325 47.0951 -177.9216 -21.8639 -126.9924 -158.1131 161.4247 -5.8949 -45.2949 -20.6980 44.0628 10.9826 -176.6458
State:	-15.129  -0.548 -12.792  -0.497  0.027  0.867 169.947   -179.74    8.81   11.53   59.35    6.19 -151.34   18.58 -177.91  124.85    3.82   -2.65 -179.83   47.10 -177.92  -21.86 -126.99 -158.11  161.42   -5.89  -45.29  -20.70   44.06   10.98 -176.65

DOCKED: MODEL       53
DOCKED: USER    Run = 53
DOCKED: USER    DPF = D:/Protein_go_brrr/autodock/final/AncA/IHP/dock.dpf
DOCKED: USER  
DOCKED: USER    Estimated Free Energy of Binding    =   +3.20 kcal/mol  [=(1)+(2)+(3)-(4)]
DOCKED: USER    
DOCKED: USER    (1) Final Intermolecular Energy     =   -3.96 kcal/mol
DOCKED: USER        vdW + Hbond + desolv Energy     =   -3.88 kcal/mol
DOCKED: USER        Electrostatic Energy            =   -0.08 kcal/mol
DOCKED: USER    (2) Final Total Internal Energy     =  -13.98 kcal/mol
DOCKED: USER    (3) Torsional Free Energy           =   +7.16 kcal/mol
DOCKED: USER    (4) Unbound System's Energy  [=(2)] =  -13.98 kcal/mol
DOCKED: USER    
DOCKED: USER    
DOCKED: USER    NEWDPF move IHP_ideal_opt.pdbqt
DOCKED: USER    NEWDPF about 0.035000 0.082000 -0.065000
DOCKED: USER    NEWDPF tran0 -15.128883 -0.548400 -12.792247
DOCKED: USER    NEWDPF quaternion0 -0.495216 0.026403 0.863937 0.087613
DOCKED: USER    NEWDPF axisangle0 -0.497128 0.026505 0.867272 169.947350
DOCKED: USER    NEWDPF quat0 -0.497128 0.026505 0.867272 169.947350
DOCKED: USER    NEWDPF dihe0 -179.74 8.81 11.53 59.35 6.19 -151.34 18.58 -177.91 124.85 3.82 -2.65 -179.83 47.10 -177.92 -21.86 -126.99 -158.11 161.42 -5.89 -45.29 -20.70 44.06 10.98 -176.65 
DOCKED: USER  keepresnum = 1 
DOCKED: USER  
DOCKED: REMARK  24 active torsions:
DOCKED: REMARK  status: ('A' for Active; 'I' for Inactive)
DOCKED: REMARK    1  A    between atoms: C_1  and  O_7 
DOCKED: REMARK    2  A    between atoms: C_2  and  O_12 
DOCKED: REMARK    3  A    between atoms: C_3  and  O_17 
DOCKED: REMARK    4  A    between atoms: C_4  and  O_22 
DOCKED: REMARK    5  A    between atoms: C_5  and  O_27 
DOCKED: REMARK    6  A    between atoms: C_6  and  O_32 
DOCKED: REMARK    7  A    between atoms: O_7  and  P_8 
DOCKED: REMARK    8  A    between atoms: P_8  and  O_10 
DOCKED: REMARK    9  A    between atoms: P_8  and  O_11 
DOCKED: REMARK   10  A    between atoms: O_12  and  P_13 
DOCKED: REMARK   11  A    between atoms: P_13  and  O_15 
DOCKED: REMARK   12  A    between atoms: P_13  and  O_16 
DOCKED: REMARK   13  A    between atoms: O_17  and  P_18 
DOCKED: REMARK   14  A    between atoms: P_18  and  O_20 
DOCKED: REMARK   15  A    between atoms: P_18  and  O_21 
DOCKED: REMARK   16  A    between atoms: O_22  and  P_23 
DOCKED: REMARK   17  A    between atoms: P_23  and  O_25 
DOCKED: REMARK   18  A    between atoms: P_23  and  O_26 
DOCKED: REMARK   19  A    between atoms: O_27  and  P_28 
DOCKED: REMARK   20  A    between atoms: P_28  and  O_30 
DOCKED: REMARK   21  A    between atoms: P_28  and  O_31 
DOCKED: REMARK   22  A    between atoms: O_32  and  P_33 
DOCKED: REMARK   23  A    between atoms: P_33  and  O_35 
DOCKED: REMARK   24  A    between atoms: P_33  and  O_36 
DOCKED: USER                              x       y       z     vdW  Elec       q    Type
DOCKED: USER                           _______ _______ _______ _____ _____    ______ ____
DOCKED: ROOT
DOCKED: ATOM      1  C   UNL d   1     -16.540   0.070 -13.574 -0.02 -0.04    +0.194 C 
DOCKED: ATOM      2  C   UNL d   1     -15.706   1.097 -12.806 -0.03 -0.04    +0.194 C 
DOCKED: ATOM      3  C   UNL d   1     -15.247   0.555 -11.451 -0.10 -0.04    +0.194 C 
DOCKED: ATOM      4  C   UNL d   1     -14.547  -0.798 -11.550 -0.15 -0.07    +0.194 C 
DOCKED: ATOM      5  C   UNL d   1     -15.289  -1.819 -12.404 -0.13 -0.07    +0.194 C 
DOCKED: ATOM      6  C   UNL d   1     -15.801  -1.260 -13.733 -0.06 -0.08    +0.194 C 
DOCKED: ENDROOT
DOCKED: BRANCH   1   7
DOCKED: ATOM      7  O   UNL d   1     -16.780   0.582 -14.887 -0.00 +0.04    -0.278 OA
DOCKED: BRANCH   7   8
DOCKED: ATOM      8  P   UNL d   1     -18.284   0.616 -15.425 +0.01 -0.02    +0.473 P 
DOCKED: ATOM      9  O   UNL d   1     -18.967   1.933 -15.308 +0.00 +0.00    -0.228 OA
DOCKED: BRANCH   8  10
DOCKED: ATOM     10  O   UNL d   1     -18.168   0.100 -16.930 +0.00 +0.01    -0.303 OA
DOCKED: ATOM     11  H   UNL d   1     -17.351  -0.422 -17.035 +0.00 -0.02    +0.222 HD
DOCKED: ENDBRANCH   8  10
DOCKED: BRANCH   8  12
DOCKED: ATOM     12  O   UNL d   1     -19.006  -0.606 -14.710 +0.00 +0.01    -0.303 OA
DOCKED: ATOM     13  H   UNL d   1     -18.421  -1.389 -14.601 +0.01 -0.01    +0.222 HD
DOCKED: ENDBRANCH   8  12
DOCKED: ENDBRANCH   7   8
DOCKED: ENDBRANCH   1   7
DOCKED: BRANCH   2  14
DOCKED: ATOM     14  O   UNL d   1     -14.548   1.431 -13.580 -0.06 +0.12    -0.278 OA
DOCKED: BRANCH  14  15
DOCKED: ATOM     15  P   UNL d   1     -14.722   2.599 -14.662 +0.00 -0.11    +0.473 P 
DOCKED: ATOM     16  O   UNL d   1     -14.406   2.251 -16.083 -0.01 +0.05    -0.228 OA
DOCKED: BRANCH  15  17
DOCKED: ATOM     17  O   UNL d   1     -16.226   3.087 -14.466 +0.00 +0.03    -0.303 OA
DOCKED: ATOM     18  H   UNL d   1     -16.847   2.525 -14.968 +0.01 -0.02    +0.222 HD
DOCKED: ENDBRANCH  15  17
DOCKED: BRANCH  15  19
DOCKED: ATOM     19  O   UNL d   1     -13.907   3.824 -14.059 -0.03 +0.05    -0.303 OA
DOCKED: ATOM     20  H   UNL d   1     -13.505   3.601 -13.199 +0.05 -0.04    +0.222 HD
DOCKED: ENDBRANCH  15  19
DOCKED: ENDBRANCH  14  15
DOCKED: ENDBRANCH   2  14
DOCKED: BRANCH   6  21
DOCKED: ATOM     21  O   UNL d   1     -16.742  -2.203 -14.241 -0.01 +0.05    -0.278 OA
DOCKED: BRANCH  21  22
DOCKED: ATOM     22  P   UNL d   1     -16.524  -2.837 -15.688 +0.00 -0.08    +0.473 P 
DOCKED: ATOM     23  O   UNL d   1     -15.238  -2.564 -16.391 -0.03 +0.08    -0.228 OA
DOCKED: BRANCH  22  24
DOCKED: ATOM     24  O   UNL d   1     -16.823  -4.377 -15.417 -0.00 +0.03    -0.303 OA
DOCKED: ATOM     25  H   UNL d   1     -16.178  -4.701 -14.738 +0.03 -0.03    +0.222 HD
DOCKED: ENDBRANCH  22  24
DOCKED: BRANCH  22  26
DOCKED: ATOM     26  O   UNL d   1     -17.855  -2.372 -16.452 +0.00 +0.02    -0.303 OA
DOCKED: ATOM     27  H   UNL d   1     -18.117  -1.485 -16.130 +0.00 -0.01    +0.222 HD
DOCKED: ENDBRANCH  22  26
DOCKED: ENDBRANCH  21  22
DOCKED: ENDBRANCH   6  21
DOCKED: BRANCH   3  28
DOCKED: ATOM     28  O   UNL d   1     -14.267   1.450 -10.941 -0.13 +0.05    -0.278 OA
DOCKED: BRANCH  28  29
DOCKED: ATOM     29  P   UNL d   1     -14.014   1.558  -9.372 -0.20 +0.00    +0.473 P 
DOCKED: ATOM     30  O   UNL d   1     -13.491   2.864  -8.896 -0.59 -0.03    -0.228 OA
DOCKED: BRANCH  29  31
DOCKED: ATOM     31  O   UNL d   1     -15.450   1.107  -8.827 -0.03 -0.05    -0.303 OA
DOCKED: ATOM     32  H   UNL d   1     -15.565   0.145  -9.002 +0.11 +0.02    +0.222 HD
DOCKED: ENDBRANCH  29  31
DOCKED: BRANCH  29  33
DOCKED: ATOM     33  O   UNL d   1     -13.113   0.275  -9.091 -0.23 -0.01    -0.303 OA
DOCKED: ATOM     34  H   UNL d   1     -13.587  -0.318  -8.458 -0.25 +0.01    +0.222 HD
DOCKED: ENDBRANCH  29  33
DOCKED: ENDBRANCH  28  29
DOCKED: ENDBRANCH   3  28
DOCKED: BRANCH   5  35
DOCKED: ATOM     35  O   UNL d   1     -14.333  -2.831 -12.715 -0.03 +0.17    -0.278 OA
DOCKED: BRANCH  35  36
DOCKED: ATOM     36  P   UNL d   1     -14.766  -4.365 -12.746 -0.14 -0.15    +0.473 P 
DOCKED: ATOM     37  O   UNL d   1     -14.152  -5.230 -11.691 -0.27 +0.09    -0.228 OA
DOCKED: BRANCH  36  38
DOCKED: ATOM     38  O   UNL d   1     -16.353  -4.258 -12.663 -0.04 +0.04    -0.303 OA
DOCKED: ATOM     39  H   UNL d   1     -16.673  -3.677 -13.386 +0.03 -0.03    +0.222 HD
DOCKED: ENDBRANCH  36  38
DOCKED: BRANCH  36  40
DOCKED: ATOM     40  O   UNL d   1     -14.488  -4.767 -14.260 -0.09 +0.09    -0.303 OA
DOCKED: ATOM     41  H   UNL d   1     -14.719  -4.038 -14.878 +0.04 -0.09    +0.222 HD
DOCKED: ENDBRANCH  36  40
DOCKED: ENDBRANCH  35  36
DOCKED: ENDBRANCH   5  35
DOCKED: BRANCH   4  42
DOCKED: ATOM     42  O   UNL d   1     -14.480  -1.329 -10.222 -0.67 -0.02    -0.278 OA
DOCKED: BRANCH  42  43
DOCKED: ATOM     43  P   UNL d   1     -15.818  -1.863  -9.537 -0.13 +0.02    +0.473 P 
DOCKED: ATOM     44  O   UNL d   1     -15.891  -1.824  -8.050 -0.39 -0.01    -0.228 OA
DOCKED: BRANCH  43  45
DOCKED: ATOM     45  O   UNL d   1     -16.948  -1.013 -10.267 -0.04 +0.00    -0.303 OA
DOCKED: ATOM     46  H   UNL d   1     -16.976  -0.094  -9.933 +0.07 +0.01    +0.222 HD
DOCKED: ENDBRANCH  43  45
DOCKED: BRANCH  43  47
DOCKED: ATOM     47  O   UNL d   1     -16.018  -3.309 -10.201 -0.13 +0.03    -0.303 OA
DOCKED: ATOM     48  H   UNL d   1     -15.296  -3.471 -10.843 -0.25 -0.05    +0.222 HD
DOCKED: ENDBRANCH  43  47
DOCKED: ENDBRANCH  42  43
DOCKED: ENDBRANCH   4  42
DOCKED: TORSDOF 24
DOCKED: TER
DOCKED: ENDMDL
________________________________________________________________________________


	BEGINNING GENETIC ALGORITHM DOCKING 54 of 100
Run: 54 Seed: 203434111 1533159337 [ Run 54 of 100 GA/GALS ]
Beginning LAMARCKIAN GENETIC ALGORITHM (LGA), with a maximum of 25000000 energy evaluations.

Final-Value: -18.351


	FINAL GENETIC ALGORITHM DOCKED STATE
	_______________________________________________


Detailed state:  trans 4.780 -7.733 15.020 quatxyzw -0.132956 -0.296199 0.451815 -0.830935 center 0.035 0.082 -0.065 ntor 24 -106.4424 28.3819 -138.5263 49.9305 179.8041 -74.8895 25.2847 179.9558 18.1765 123.9206 -0.3799 -140.4790 -179.7112 55.8344 19.8357 118.9187 -12.6431 -55.9192 58.4435 6.1476 107.8517 -23.6926 -68.0326 25.7809
State:	  4.780  -7.733  15.020  -0.239 -0.532  0.812 -67.610   -106.44   28.38 -138.53   49.93  179.80  -74.89   25.28  179.96   18.18  123.92   -0.38 -140.48 -179.71   55.83   19.84  118.92  -12.64  -55.92   58.44    6.15  107.85  -23.69  -68.03   25.78

DOCKED: MODEL       54
DOCKED: USER    Run = 54
DOCKED: USER    DPF = D:/Protein_go_brrr/autodock/final/AncA/IHP/dock.dpf
DOCKED: USER  
DOCKED: USER    Estimated Free Energy of Binding    =   +1.86 kcal/mol  [=(1)+(2)+(3)-(4)]
DOCKED: USER    
DOCKED: USER    (1) Final Intermolecular Energy     =   -5.30 kcal/mol
DOCKED: USER        vdW + Hbond + desolv Energy     =   -4.80 kcal/mol
DOCKED: USER        Electrostatic Energy            =   -0.50 kcal/mol
DOCKED: USER    (2) Final Total Internal Energy     =  -13.06 kcal/mol
DOCKED: USER    (3) Torsional Free Energy           =   +7.16 kcal/mol
DOCKED: USER    (4) Unbound System's Energy  [=(2)] =  -13.06 kcal/mol
DOCKED: USER    
DOCKED: USER    
DOCKED: USER    NEWDPF move IHP_ideal_opt.pdbqt
DOCKED: USER    NEWDPF about 0.035000 0.082000 -0.065000
DOCKED: USER    NEWDPF tran0 4.780324 -7.732732 15.019555
DOCKED: USER    NEWDPF quaternion0 -0.132956 -0.296199 0.451815 -0.830935
DOCKED: USER    NEWDPF axisangle0 -0.238970 -0.532377 0.812076 -67.610279
DOCKED: USER    NEWDPF quat0 -0.238970 -0.532377 0.812076 -67.610279
DOCKED: USER    NEWDPF dihe0 -106.44 28.38 -138.53 49.93 179.80 -74.89 25.28 179.96 18.18 123.92 -0.38 -140.48 -179.71 55.83 19.84 118.92 -12.64 -55.92 58.44 6.15 107.85 -23.69 -68.03 25.78 
DOCKED: USER  keepresnum = 1 
DOCKED: USER  
DOCKED: REMARK  24 active torsions:
DOCKED: REMARK  status: ('A' for Active; 'I' for Inactive)
DOCKED: REMARK    1  A    between atoms: C_1  and  O_7 
DOCKED: REMARK    2  A    between atoms: C_2  and  O_12 
DOCKED: REMARK    3  A    between atoms: C_3  and  O_17 
DOCKED: REMARK    4  A    between atoms: C_4  and  O_22 
DOCKED: REMARK    5  A    between atoms: C_5  and  O_27 
DOCKED: REMARK    6  A    between atoms: C_6  and  O_32 
DOCKED: REMARK    7  A    between atoms: O_7  and  P_8 
DOCKED: REMARK    8  A    between atoms: P_8  and  O_10 
DOCKED: REMARK    9  A    between atoms: P_8  and  O_11 
DOCKED: REMARK   10  A    between atoms: O_12  and  P_13 
DOCKED: REMARK   11  A    between atoms: P_13  and  O_15 
DOCKED: REMARK   12  A    between atoms: P_13  and  O_16 
DOCKED: REMARK   13  A    between atoms: O_17  and  P_18 
DOCKED: REMARK   14  A    between atoms: P_18  and  O_20 
DOCKED: REMARK   15  A    between atoms: P_18  and  O_21 
DOCKED: REMARK   16  A    between atoms: O_22  and  P_23 
DOCKED: REMARK   17  A    between atoms: P_23  and  O_25 
DOCKED: REMARK   18  A    between atoms: P_23  and  O_26 
DOCKED: REMARK   19  A    between atoms: O_27  and  P_28 
DOCKED: REMARK   20  A    between atoms: P_28  and  O_30 
DOCKED: REMARK   21  A    between atoms: P_28  and  O_31 
DOCKED: REMARK   22  A    between atoms: O_32  and  P_33 
DOCKED: REMARK   23  A    between atoms: P_33  and  O_35 
DOCKED: REMARK   24  A    between atoms: P_33  and  O_36 
DOCKED: USER                              x       y       z     vdW  Elec       q    Type
DOCKED: USER                           _______ _______ _______ _____ _____    ______ ____
DOCKED: ROOT
DOCKED: ATOM      1  C   UNL d   1       5.414  -7.224  16.544 -0.03 -0.02    +0.194 C 
DOCKED: ATOM      2  C   UNL d   1       5.661  -8.690  16.181 -0.01 -0.00    +0.194 C 
DOCKED: ATOM      3  C   UNL d   1       4.416  -9.341  15.577 +0.00 -0.00    +0.194 C 
DOCKED: ATOM      4  C   UNL d   1       3.828  -8.549  14.411 -0.03 -0.02    +0.194 C 
DOCKED: ATOM      5  C   UNL d   1       3.672  -7.060  14.689 -0.10 -0.07    +0.194 C 
DOCKED: ATOM      6  C   UNL d   1       4.895  -6.421  15.351 -0.07 -0.06    +0.194 C 
DOCKED: ENDROOT
DOCKED: BRANCH   1   7
DOCKED: ATOM      7  O   UNL d   1       6.661  -6.646  16.936 -0.02 +0.02    -0.278 OA
DOCKED: BRANCH   7   8
DOCKED: ATOM      8  P   UNL d   1       7.381  -7.210  18.246 -0.00 -0.00    +0.473 P 
DOCKED: ATOM      9  O   UNL d   1       7.771  -6.179  19.246 -0.00 -0.00    -0.228 OA
DOCKED: BRANCH   8  10
DOCKED: ATOM     10  O   UNL d   1       6.352  -8.285  18.820 -0.00 -0.00    -0.303 OA
DOCKED: ATOM     11  H   UNL d   1       6.599  -9.175  18.505 +0.00 +0.01    +0.222 HD
DOCKED: ENDBRANCH   8  10
DOCKED: BRANCH   8  12
DOCKED: ATOM     12  O   UNL d   1       8.558  -8.132  17.706 -0.00 -0.01    -0.303 OA
DOCKED: ATOM     13  H   UNL d   1       8.450  -8.379  16.760 +0.01 +0.01    +0.222 HD
DOCKED: ENDBRANCH   8  12
DOCKED: ENDBRANCH   7   8
DOCKED: ENDBRANCH   1   7
DOCKED: BRANCH   2  14
DOCKED: ATOM     14  O   UNL d   1       6.724  -8.761  15.223 -0.01 -0.00    -0.278 OA
DOCKED: BRANCH  14  15
DOCKED: ATOM     15  P   UNL d   1       7.806  -9.922  15.439 +0.00 +0.03    +0.473 P 
DOCKED: ATOM     16  O   UNL d   1       7.815 -11.028  14.431 +0.00 -0.03    -0.228 OA
DOCKED: BRANCH  15  17
DOCKED: ATOM     17  O   UNL d   1       9.196  -9.147  15.517 -0.00 -0.02    -0.303 OA
DOCKED: ATOM     18  H   UNL d   1       9.679  -9.373  16.335 +0.00 +0.01    +0.222 HD
DOCKED: ENDBRANCH  15  17
DOCKED: BRANCH  15  19
DOCKED: ATOM     19  O   UNL d   1       7.607 -10.373  16.951 -0.00 -0.02    -0.303 OA
DOCKED: ATOM     20  H   UNL d   1       7.013  -9.768  17.433 +0.00 +0.01    +0.222 HD
DOCKED: ENDBRANCH  15  19
DOCKED: ENDBRANCH  14  15
DOCKED: ENDBRANCH   2  14
DOCKED: BRANCH   6  21
DOCKED: ATOM     21  O   UNL d   1       4.478  -5.152  15.850 -0.13 +0.13    -0.278 OA
DOCKED: BRANCH  21  22
DOCKED: ATOM     22  P   UNL d   1       2.941  -4.734  15.766 -0.15 -0.35    +0.473 P 
DOCKED: ATOM     23  O   UNL d   1       1.920  -5.699  16.269 -0.11 +0.17    -0.228 OA
DOCKED: BRANCH  22  24
DOCKED: ATOM     24  O   UNL d   1       2.946  -3.324  16.503 -0.10 +0.19    -0.303 OA
DOCKED: ATOM     25  H   UNL d   1       2.722  -2.626  15.836 -0.51 -0.23    +0.222 HD
DOCKED: ENDBRANCH  22  24
DOCKED: BRANCH  22  26
DOCKED: ATOM     26  O   UNL d   1       2.804  -4.304  14.228 -0.30 +0.40    -0.303 OA
DOCKED: ATOM     27  H   UNL d   1       2.247  -4.958  13.759 -0.30 -0.43    +0.222 HD
DOCKED: ENDBRANCH  22  26
DOCKED: ENDBRANCH  21  22
DOCKED: ENDBRANCH   6  21
DOCKED: BRANCH   3  28
DOCKED: ATOM     28  O   UNL d   1       4.811 -10.590  15.023 +0.00 -0.03    -0.278 OA
DOCKED: BRANCH  28  29
DOCKED: ATOM     29  P   UNL d   1       4.844 -11.898  15.930 +0.01 +0.06    +0.473 P 
DOCKED: ATOM     30  O   UNL d   1       3.606 -12.720  15.914 +0.00 -0.04    -0.228 OA
DOCKED: BRANCH  29  31
DOCKED: ATOM     31  O   UNL d   1       6.180 -12.586  15.380 +0.00 -0.04    -0.303 OA
DOCKED: ATOM     32  H   UNL d   1       6.956 -12.115  15.763 +0.00 +0.03    +0.222 HD
DOCKED: ENDBRANCH  29  31
DOCKED: BRANCH  29  33
DOCKED: ATOM     33  O   UNL d   1       5.303 -11.316  17.340 +0.00 -0.02    -0.303 OA
DOCKED: ATOM     34  H   UNL d   1       6.142 -11.760  17.612 +0.00 +0.02    +0.222 HD
DOCKED: ENDBRANCH  29  33
DOCKED: ENDBRANCH  28  29
DOCKED: ENDBRANCH   3  28
DOCKED: BRANCH   5  35
DOCKED: ATOM     35  O   UNL d   1       3.514  -6.442  13.414 -0.20 +0.17    -0.278 OA
DOCKED: BRANCH  35  36
DOCKED: ATOM     36  P   UNL d   1       2.261  -6.803  12.494 -0.22 -0.33    +0.473 P 
DOCKED: ATOM     37  O   UNL d   1       1.004  -7.152  13.225 -0.31 +0.28    -0.228 OA
DOCKED: BRANCH  36  38
DOCKED: ATOM     38  O   UNL d   1       2.147  -5.508  11.576 -0.80 +0.23    -0.303 OA
DOCKED: ATOM     39  H   UNL d   1       2.127  -4.710  12.147 -0.44 -0.43    +0.222 HD
DOCKED: ENDBRANCH  36  38
DOCKED: BRANCH  36  40
DOCKED: ATOM     40  O   UNL d   1       2.862  -7.910  11.522 -0.21 +0.01    -0.303 OA
DOCKED: ATOM     41  H   UNL d   1       2.865  -8.799  11.940 +0.09 +0.05    +0.222 HD
DOCKED: ENDBRANCH  36  40
DOCKED: ENDBRANCH  35  36
DOCKED: ENDBRANCH   5  35
DOCKED: BRANCH   4  42
DOCKED: ATOM     42  O   UNL d   1       2.517  -9.073  14.173 -0.03 +0.03    -0.278 OA
DOCKED: BRANCH  42  43
DOCKED: ATOM     43  P   UNL d   1       2.357 -10.353  13.234 -0.06 +0.20    +0.473 P 
DOCKED: ATOM     44  O   UNL d   1       3.555 -10.797  12.468 -0.11 -0.20    -0.228 OA
DOCKED: BRANCH  43  45
DOCKED: ATOM     45  O   UNL d   1       1.781 -11.449  14.233 -0.03 -0.08    -0.303 OA
DOCKED: ATOM     46  H   UNL d   1       2.469 -11.769  14.849 +0.02 +0.05    +0.222 HD
DOCKED: ENDBRANCH  43  45
DOCKED: BRANCH  43  47
DOCKED: ATOM     47  O   UNL d   1       1.064 -10.002  12.354 -0.71 -0.06    -0.303 OA
DOCKED: ATOM     48  H   UNL d   1       1.078  -9.049  12.125 +0.04 -0.09    +0.222 HD
DOCKED: ENDBRANCH  43  47
DOCKED: ENDBRANCH  42  43
DOCKED: ENDBRANCH   4  42
DOCKED: TORSDOF 24
DOCKED: TER
DOCKED: ENDMDL
________________________________________________________________________________


	BEGINNING GENETIC ALGORITHM DOCKING 55 of 100
Run: 55 Seed: 843886704 982071584 [ Run 55 of 100 GA/GALS ]
Beginning LAMARCKIAN GENETIC ALGORITHM (LGA), with a maximum of 25000000 energy evaluations.

Final-Value: -17.333


	FINAL GENETIC ALGORITHM DOCKED STATE
	_______________________________________________


Detailed state:  trans -11.139 -18.294 -19.283 quatxyzw -0.971032 0.036016 0.009690 -0.236020 center 0.035 0.082 -0.065 ntor 24 176.5098 12.6387 -59.6217 117.5032 52.3452 -103.1823 -46.5859 -114.9029 163.1164 -11.0320 43.7487 -130.1972 46.2782 -12.2334 -22.5177 -39.1483 179.8126 135.4515 15.9759 -22.4616 -51.7357 6.4829 34.6448 -3.2180
State:	-11.139 -18.294 -19.283  -0.999  0.037  0.010 -152.697    176.51   12.64  -59.62  117.50   52.35 -103.18  -46.59 -114.90  163.12  -11.03   43.75 -130.20   46.28  -12.23  -22.52  -39.15  179.81  135.45   15.98  -22.46  -51.74    6.48   34.64   -3.22

DOCKED: MODEL       55
DOCKED: USER    Run = 55
DOCKED: USER    DPF = D:/Protein_go_brrr/autodock/final/AncA/IHP/dock.dpf
DOCKED: USER  
DOCKED: USER    Estimated Free Energy of Binding    =   +3.92 kcal/mol  [=(1)+(2)+(3)-(4)]
DOCKED: USER    
DOCKED: USER    (1) Final Intermolecular Energy     =   -3.24 kcal/mol
DOCKED: USER        vdW + Hbond + desolv Energy     =   -3.02 kcal/mol
DOCKED: USER        Electrostatic Energy            =   -0.22 kcal/mol
DOCKED: USER    (2) Final Total Internal Energy     =  -14.10 kcal/mol
DOCKED: USER    (3) Torsional Free Energy           =   +7.16 kcal/mol
DOCKED: USER    (4) Unbound System's Energy  [=(2)] =  -14.10 kcal/mol
DOCKED: USER    
DOCKED: USER    
DOCKED: USER    NEWDPF move IHP_ideal_opt.pdbqt
DOCKED: USER    NEWDPF about 0.035000 0.082000 -0.065000
DOCKED: USER    NEWDPF tran0 -11.138522 -18.293840 -19.283039
DOCKED: USER    NEWDPF quaternion0 -0.971032 0.036016 0.009690 -0.236020
DOCKED: USER    NEWDPF axisangle0 -0.999263 0.037063 0.009972 -152.696545
DOCKED: USER    NEWDPF quat0 -0.999263 0.037063 0.009972 -152.696545
DOCKED: USER    NEWDPF dihe0 176.51 12.64 -59.62 117.50 52.35 -103.18 -46.59 -114.90 163.12 -11.03 43.75 -130.20 46.28 -12.23 -22.52 -39.15 179.81 135.45 15.98 -22.46 -51.74 6.48 34.64 -3.22 
DOCKED: USER  keepresnum = 1 
DOCKED: USER  
DOCKED: REMARK  24 active torsions:
DOCKED: REMARK  status: ('A' for Active; 'I' for Inactive)
DOCKED: REMARK    1  A    between atoms: C_1  and  O_7 
DOCKED: REMARK    2  A    between atoms: C_2  and  O_12 
DOCKED: REMARK    3  A    between atoms: C_3  and  O_17 
DOCKED: REMARK    4  A    between atoms: C_4  and  O_22 
DOCKED: REMARK    5  A    between atoms: C_5  and  O_27 
DOCKED: REMARK    6  A    between atoms: C_6  and  O_32 
DOCKED: REMARK    7  A    between atoms: O_7  and  P_8 
DOCKED: REMARK    8  A    between atoms: P_8  and  O_10 
DOCKED: REMARK    9  A    between atoms: P_8  and  O_11 
DOCKED: REMARK   10  A    between atoms: O_12  and  P_13 
DOCKED: REMARK   11  A    between atoms: P_13  and  O_15 
DOCKED: REMARK   12  A    between atoms: P_13  and  O_16 
DOCKED: REMARK   13  A    between atoms: O_17  and  P_18 
DOCKED: REMARK   14  A    between atoms: P_18  and  O_20 
DOCKED: REMARK   15  A    between atoms: P_18  and  O_21 
DOCKED: REMARK   16  A    between atoms: O_22  and  P_23 
DOCKED: REMARK   17  A    between atoms: P_23  and  O_25 
DOCKED: REMARK   18  A    between atoms: P_23  and  O_26 
DOCKED: REMARK   19  A    between atoms: O_27  and  P_28 
DOCKED: REMARK   20  A    between atoms: P_28  and  O_30 
DOCKED: REMARK   21  A    between atoms: P_28  and  O_31 
DOCKED: REMARK   22  A    between atoms: O_32  and  P_33 
DOCKED: REMARK   23  A    between atoms: P_33  and  O_35 
DOCKED: REMARK   24  A    between atoms: P_33  and  O_36 
DOCKED: USER                              x       y       z     vdW  Elec       q    Type
DOCKED: USER                           _______ _______ _______ _____ _____    ______ ____
DOCKED: ROOT
DOCKED: ATOM      1  C   UNL d   1      -9.824 -17.226 -19.624 -0.00 +0.07    +0.194 C 
DOCKED: ATOM      2  C   UNL d   1     -11.008 -16.601 -18.884 -0.02 +0.08    +0.194 C 
DOCKED: ATOM      3  C   UNL d   1     -12.347 -17.055 -19.471 -0.01 +0.08    +0.194 C 
DOCKED: ATOM      4  C   UNL d   1     -12.471 -18.572 -19.583 +0.00 +0.06    +0.194 C 
DOCKED: ATOM      5  C   UNL d   1     -11.261 -19.249 -20.212 +0.00 +0.05    +0.194 C 
DOCKED: ATOM      6  C   UNL d   1      -9.920 -18.751 -19.668 +0.01 +0.06    +0.194 C 
DOCKED: ENDROOT
DOCKED: BRANCH   1   7
DOCKED: ATOM      7  O   UNL d   1      -8.629 -16.894 -18.914 -0.04 -0.11    -0.278 OA
DOCKED: BRANCH   7   8
DOCKED: ATOM      8  P   UNL d   1      -7.649 -15.802 -19.545 -0.15 +0.26    +0.473 P 
DOCKED: ATOM      9  O   UNL d   1      -7.802 -14.426 -18.998 -0.28 -0.12    -0.228 OA
DOCKED: BRANCH   8  10
DOCKED: ATOM     10  O   UNL d   1      -6.192 -16.410 -19.316 -0.19 -0.24    -0.303 OA
DOCKED: ATOM     11  H   UNL d   1      -6.261 -17.368 -19.144 +0.04 +0.13    +0.222 HD
DOCKED: ENDBRANCH   8  10
DOCKED: BRANCH   8  12
DOCKED: ATOM     12  O   UNL d   1      -7.827 -15.947 -21.117 -0.09 -0.15    -0.303 OA
DOCKED: ATOM     13  H   UNL d   1      -8.018 -16.869 -21.400 +0.03 +0.09    +0.222 HD
DOCKED: ENDBRANCH   8  12
DOCKED: ENDBRANCH   7   8
DOCKED: ENDBRANCH   1   7
DOCKED: BRANCH   2  14
DOCKED: ATOM     14  O   UNL d   1     -10.957 -16.994 -17.507 -0.08 -0.15    -0.278 OA
DOCKED: BRANCH  14  15
DOCKED: ATOM     15  P   UNL d   1     -10.570 -15.854 -16.451 -0.09 +0.35    +0.473 P 
DOCKED: ATOM     16  O   UNL d   1     -11.215 -14.517 -16.639 -0.29 -0.24    -0.228 OA
DOCKED: BRANCH  15  17
DOCKED: ATOM     17  O   UNL d   1     -10.904 -16.506 -15.036 -0.60 -0.21    -0.303 OA
DOCKED: ATOM     18  H   UNL d   1     -11.080 -15.819 -14.365 -0.50 +0.14    +0.222 HD
DOCKED: ENDBRANCH  15  17
DOCKED: BRANCH  15  19
DOCKED: ATOM     19  O   UNL d   1      -8.980 -15.853 -16.434 -0.16 -0.15    -0.303 OA
DOCKED: ATOM     20  H   UNL d   1      -8.610 -15.687 -17.321 +0.07 +0.10    +0.222 HD
DOCKED: ENDBRANCH  15  19
DOCKED: ENDBRANCH  14  15
DOCKED: ENDBRANCH   2  14
DOCKED: BRANCH   6  21
DOCKED: ATOM     21  O   UNL d   1      -8.914 -19.208 -20.570 +0.00 -0.07    -0.278 OA
DOCKED: BRANCH  21  22
DOCKED: ATOM     22  P   UNL d   1      -7.423 -19.426 -20.048 +0.02 +0.14    +0.473 P 
DOCKED: ATOM     23  O   UNL d   1      -7.164 -19.310 -18.584 -0.01 -0.07    -0.228 OA
DOCKED: BRANCH  22  24
DOCKED: ATOM     24  O   UNL d   1      -7.061 -20.841 -20.680 +0.00 -0.07    -0.303 OA
DOCKED: ATOM     25  H   UNL d   1      -7.900 -21.260 -21.000 +0.00 +0.05    +0.222 HD
DOCKED: ENDBRANCH  22  24
DOCKED: BRANCH  22  26
DOCKED: ATOM     26  O   UNL d   1      -6.598 -18.423 -20.989 -0.02 -0.12    -0.303 OA
DOCKED: ATOM     27  H   UNL d   1      -6.649 -17.519 -20.618 +0.03 +0.12    +0.222 HD
DOCKED: ENDBRANCH  22  26
DOCKED: ENDBRANCH  21  22
DOCKED: ENDBRANCH   6  21
DOCKED: BRANCH   3  28
DOCKED: ATOM     28  O   UNL d   1     -13.368 -16.658 -18.565 -0.06 -0.18    -0.278 OA
DOCKED: BRANCH  28  29
DOCKED: ATOM     29  P   UNL d   1     -14.483 -15.614 -19.017 -0.03 +0.30    +0.473 P 
DOCKED: ATOM     30  O   UNL d   1     -13.994 -14.245 -19.321 -0.05 -0.12    -0.228 OA
DOCKED: BRANCH  29  31
DOCKED: ATOM     31  O   UNL d   1     -15.157 -16.429 -20.219 -0.00 -0.10    -0.303 OA
DOCKED: ATOM     32  H   UNL d   1     -14.750 -17.325 -20.257 +0.01 +0.07    +0.222 HD
DOCKED: ENDBRANCH  29  31
DOCKED: BRANCH  29  33
DOCKED: ATOM     33  O   UNL d   1     -15.560 -15.752 -17.852 -0.60 -0.32    -0.303 OA
DOCKED: ATOM     34  H   UNL d   1     -15.837 -16.698 -17.780 +0.01 +0.17    +0.222 HD
DOCKED: ENDBRANCH  29  33
DOCKED: ENDBRANCH  28  29
DOCKED: ENDBRANCH   3  28
DOCKED: BRANCH   5  35
DOCKED: ATOM     35  O   UNL d   1     -11.367 -20.629 -19.868 +0.00 -0.06    -0.278 OA
DOCKED: BRANCH  35  36
DOCKED: ATOM     36  P   UNL d   1     -10.484 -21.719 -20.629 +0.00 +0.09    +0.473 P 
DOCKED: ATOM     37  O   UNL d   1     -11.206 -22.964 -21.035 +0.00 -0.04    -0.228 OA
DOCKED: BRANCH  36  38
DOCKED: ATOM     38  O   UNL d   1      -9.901 -20.873 -21.846 +0.00 -0.06    -0.303 OA
DOCKED: ATOM     39  H   UNL d   1      -9.026 -20.508 -21.593 +0.00 +0.05    +0.222 HD
DOCKED: ENDBRANCH  36  38
DOCKED: BRANCH  36  40
DOCKED: ATOM     40  O   UNL d   1      -9.241 -21.891 -19.652 +0.00 -0.06    -0.303 OA
DOCKED: ATOM     41  H   UNL d   1      -8.825 -21.026 -19.436 +0.00 +0.05    +0.222 HD
DOCKED: ENDBRANCH  36  40
DOCKED: ENDBRANCH  35  36
DOCKED: ENDBRANCH   5  35
DOCKED: BRANCH   4  42
DOCKED: ATOM     42  O   UNL d   1     -13.591 -18.834 -20.435 +0.00 -0.07    -0.278 OA
DOCKED: BRANCH  42  43
DOCKED: ATOM     43  P   UNL d   1     -14.876 -19.553 -19.821 +0.01 +0.11    +0.473 P 
DOCKED: ATOM     44  O   UNL d   1     -16.012 -19.834 -20.743 +0.00 -0.04    -0.228 OA
DOCKED: BRANCH  43  45
DOCKED: ATOM     45  O   UNL d   1     -14.257 -20.849 -19.136 +0.00 -0.06    -0.303 OA
DOCKED: ATOM     46  H   UNL d   1     -13.448 -21.146 -19.598 +0.00 +0.04    +0.222 HD
DOCKED: ENDBRANCH  43  45
DOCKED: BRANCH  43  47
DOCKED: ATOM     47  O   UNL d   1     -15.228 -18.647 -18.547 -0.00 -0.10    -0.303 OA
DOCKED: ATOM     48  H   UNL d   1     -15.237 -17.704 -18.813 +0.01 +0.09    +0.222 HD
DOCKED: ENDBRANCH  43  47
DOCKED: ENDBRANCH  42  43
DOCKED: ENDBRANCH   4  42
DOCKED: TORSDOF 24
DOCKED: TER
DOCKED: ENDMDL
________________________________________________________________________________


	BEGINNING GENETIC ALGORITHM DOCKING 56 of 100
Run: 56 Seed: 985858128 697950232 [ Run 56 of 100 GA/GALS ]
Beginning LAMARCKIAN GENETIC ALGORITHM (LGA), with a maximum of 25000000 energy evaluations.

Final-Value: -18.101


	FINAL GENETIC ALGORITHM DOCKED STATE
	_______________________________________________


Detailed state:  trans 13.908 -9.317 5.608 quatxyzw -0.288784 -0.832482 -0.467573 0.070382 center 0.035 0.082 -0.065 ntor 24 -165.8299 -166.1251 -177.3868 -11.7077 67.4833 -117.9872 -37.0307 -132.2117 51.6827 99.6061 5.9683 -179.7688 89.9124 172.6447 139.8163 -48.8575 123.9564 155.2254 -3.3334 21.4836 -6.1600 15.0094 -6.3077 -16.6065
State:	 13.908  -9.317   5.608  -0.290 -0.835 -0.469 171.928   -165.83 -166.13 -177.39  -11.71   67.48 -117.99  -37.03 -132.21   51.68   99.61    5.97 -179.77   89.91  172.64  139.82  -48.86  123.96  155.23   -3.33   21.48   -6.16   15.01   -6.31  -16.61

DOCKED: MODEL       56
DOCKED: USER    Run = 56
DOCKED: USER    DPF = D:/Protein_go_brrr/autodock/final/AncA/IHP/dock.dpf
DOCKED: USER  
DOCKED: USER    Estimated Free Energy of Binding    =   +4.69 kcal/mol  [=(1)+(2)+(3)-(4)]
DOCKED: USER    
DOCKED: USER    (1) Final Intermolecular Energy     =   -2.47 kcal/mol
DOCKED: USER        vdW + Hbond + desolv Energy     =   -2.32 kcal/mol
DOCKED: USER        Electrostatic Energy            =   -0.15 kcal/mol
DOCKED: USER    (2) Final Total Internal Energy     =  -15.63 kcal/mol
DOCKED: USER    (3) Torsional Free Energy           =   +7.16 kcal/mol
DOCKED: USER    (4) Unbound System's Energy  [=(2)] =  -15.63 kcal/mol
DOCKED: USER    
DOCKED: USER    
DOCKED: USER    NEWDPF move IHP_ideal_opt.pdbqt
DOCKED: USER    NEWDPF about 0.035000 0.082000 -0.065000
DOCKED: USER    NEWDPF tran0 13.907702 -9.317071 5.608174
DOCKED: USER    NEWDPF quaternion0 -0.288784 -0.832482 -0.467573 0.070382
DOCKED: USER    NEWDPF axisangle0 -0.289502 -0.834551 -0.468735 171.928123
DOCKED: USER    NEWDPF quat0 -0.289502 -0.834551 -0.468735 171.928123
DOCKED: USER    NEWDPF dihe0 -165.83 -166.13 -177.39 -11.71 67.48 -117.99 -37.03 -132.21 51.68 99.61 5.97 -179.77 89.91 172.64 139.82 -48.86 123.96 155.23 -3.33 21.48 -6.16 15.01 -6.31 -16.61 
DOCKED: USER  keepresnum = 1 
DOCKED: USER  
DOCKED: REMARK  24 active torsions:
DOCKED: REMARK  status: ('A' for Active; 'I' for Inactive)
DOCKED: REMARK    1  A    between atoms: C_1  and  O_7 
DOCKED: REMARK    2  A    between atoms: C_2  and  O_12 
DOCKED: REMARK    3  A    between atoms: C_3  and  O_17 
DOCKED: REMARK    4  A    between atoms: C_4  and  O_22 
DOCKED: REMARK    5  A    between atoms: C_5  and  O_27 
DOCKED: REMARK    6  A    between atoms: C_6  and  O_32 
DOCKED: REMARK    7  A    between atoms: O_7  and  P_8 
DOCKED: REMARK    8  A    between atoms: P_8  and  O_10 
DOCKED: REMARK    9  A    between atoms: P_8  and  O_11 
DOCKED: REMARK   10  A    between atoms: O_12  and  P_13 
DOCKED: REMARK   11  A    between atoms: P_13  and  O_15 
DOCKED: REMARK   12  A    between atoms: P_13  and  O_16 
DOCKED: REMARK   13  A    between atoms: O_17  and  P_18 
DOCKED: REMARK   14  A    between atoms: P_18  and  O_20 
DOCKED: REMARK   15  A    between atoms: P_18  and  O_21 
DOCKED: REMARK   16  A    between atoms: O_22  and  P_23 
DOCKED: REMARK   17  A    between atoms: P_23  and  O_25 
DOCKED: REMARK   18  A    between atoms: P_23  and  O_26 
DOCKED: REMARK   19  A    between atoms: O_27  and  P_28 
DOCKED: REMARK   20  A    between atoms: P_28  and  O_30 
DOCKED: REMARK   21  A    between atoms: P_28  and  O_31 
DOCKED: REMARK   22  A    between atoms: O_32  and  P_33 
DOCKED: REMARK   23  A    between atoms: P_33  and  O_35 
DOCKED: REMARK   24  A    between atoms: P_33  and  O_36 
DOCKED: USER                              x       y       z     vdW  Elec       q    Type
DOCKED: USER                           _______ _______ _______ _____ _____    ______ ____
DOCKED: ROOT
DOCKED: ATOM      1  C   UNL d   1      12.814  -8.400   4.635 -0.08 +0.11    +0.194 C 
DOCKED: ATOM      2  C   UNL d   1      13.365  -9.673   3.990 -0.02 +0.14    +0.194 C 
DOCKED: ATOM      3  C   UNL d   1      14.864  -9.837   4.249 -0.04 +0.08    +0.194 C 
DOCKED: ATOM      4  C   UNL d   1      15.233  -9.732   5.727 -0.00 +0.05    +0.194 C 
DOCKED: ATOM      5  C   UNL d   1      14.611  -8.539   6.440 -0.00 +0.05    +0.194 C 
DOCKED: ATOM      6  C   UNL d   1      13.125  -8.339   6.131 -0.02 +0.06    +0.194 C 
DOCKED: ENDROOT
DOCKED: BRANCH   1   7
DOCKED: ATOM      7  O   UNL d   1      11.391  -8.409   4.496 -0.10 -0.19    -0.278 OA
DOCKED: BRANCH   7   8
DOCKED: ATOM      8  P   UNL d   1      10.686  -7.146   3.819 -0.15 +0.30    +0.473 P 
DOCKED: ATOM      9  O   UNL d   1       9.541  -7.467   2.924 -0.37 -0.15    -0.228 OA
DOCKED: BRANCH   8  10
DOCKED: ATOM     10  O   UNL d   1      10.278  -6.223   5.054 -0.46 -0.12    -0.303 OA
DOCKED: ATOM     11  H   UNL d   1      10.965  -6.277   5.744 +0.08 +0.07    +0.222 HD
DOCKED: ENDBRANCH   8  10
DOCKED: BRANCH   8  12
DOCKED: ATOM     12  O   UNL d   1      11.870  -6.316   3.160 -0.67 -0.18    -0.303 OA
DOCKED: ATOM     13  H   UNL d   1      11.598  -5.833   2.348 +0.10 +0.11    +0.222 HD
DOCKED: ENDBRANCH   8  12
DOCKED: ENDBRANCH   7   8
DOCKED: ENDBRANCH   1   7
DOCKED: BRANCH   2  14
DOCKED: ATOM     14  O   UNL d   1      12.680 -10.807   4.536 -0.05 -0.19    -0.278 OA
DOCKED: BRANCH  14  15
DOCKED: ATOM     15  P   UNL d   1      12.588 -12.105   3.602 -0.03 +0.37    +0.473 P 
DOCKED: ATOM     16  O   UNL d   1      11.241 -12.744   3.470 -0.06 -0.17    -0.228 OA
DOCKED: BRANCH  15  17
DOCKED: ATOM     17  O   UNL d   1      13.182 -11.621   2.205 -0.30 -0.43    -0.303 OA
DOCKED: ATOM     18  H   UNL d   1      14.153 -11.719   2.183 +0.02 +0.17    +0.222 HD
DOCKED: ENDBRANCH  15  17
DOCKED: BRANCH  15  19
DOCKED: ATOM     19  O   UNL d   1      13.749 -13.056   4.130 -0.01 -0.11    -0.303 OA
DOCKED: ATOM     20  H   UNL d   1      14.631 -12.714   3.893 +0.01 +0.08    +0.222 HD
DOCKED: ENDBRANCH  15  19
DOCKED: ENDBRANCH  14  15
DOCKED: ENDBRANCH   2  14
DOCKED: BRANCH   6  21
DOCKED: ATOM     21  O   UNL d   1      12.785  -7.027   6.575 -0.03 -0.07    -0.278 OA
DOCKED: BRANCH  21  22
DOCKED: ATOM     22  P   UNL d   1      11.871  -6.842   7.870 -0.02 +0.09    +0.473 P 
DOCKED: ATOM     23  O   UNL d   1      11.722  -5.471   8.438 -0.09 -0.03    -0.228 OA
DOCKED: BRANCH  22  24
DOCKED: ATOM     24  O   UNL d   1      10.510  -7.524   7.408 -0.06 -0.07    -0.303 OA
DOCKED: ATOM     25  H   UNL d   1      10.636  -7.872   6.488 +0.06 +0.06    +0.222 HD
DOCKED: ENDBRANCH  22  24
DOCKED: BRANCH  22  26
DOCKED: ATOM     26  O   UNL d   1      12.478  -7.950   8.858 -0.01 -0.05    -0.303 OA
DOCKED: ATOM     27  H   UNL d   1      13.383  -7.686   9.120 +0.01 +0.03    +0.222 HD
DOCKED: ENDBRANCH  22  26
DOCKED: ENDBRANCH  21  22
DOCKED: ENDBRANCH   6  21
DOCKED: BRANCH   3  28
DOCKED: ATOM     28  O   UNL d   1      15.224 -11.157   3.863 -0.02 -0.10    -0.278 OA
DOCKED: BRANCH  28  29
DOCKED: ATOM     29  P   UNL d   1      16.405 -11.396   2.822 -0.01 +0.13    +0.473 P 
DOCKED: ATOM     30  O   UNL d   1      16.081 -11.092   1.404 -0.04 -0.08    -0.228 OA
DOCKED: BRANCH  29  31
DOCKED: ATOM     31  O   UNL d   1      17.561 -10.526   3.506 -0.00 -0.06    -0.303 OA
DOCKED: ATOM     32  H   UNL d   1      17.292 -10.319   4.431 +0.01 +0.05    +0.222 HD
DOCKED: ENDBRANCH  29  31
DOCKED: BRANCH  29  33
DOCKED: ATOM     33  O   UNL d   1      16.846 -12.890   3.154 +0.00 -0.06    -0.303 OA
DOCKED: ATOM     34  H   UNL d   1      17.334 -12.897   4.014 +0.00 +0.04    +0.222 HD
DOCKED: ENDBRANCH  29  33
DOCKED: ENDBRANCH  28  29
DOCKED: ENDBRANCH   3  28
DOCKED: BRANCH   5  35
DOCKED: ATOM     35  O   UNL d   1      14.715  -8.822   7.833 +0.00 -0.05    -0.278 OA
DOCKED: BRANCH  35  36
DOCKED: ATOM     36  P   UNL d   1      15.445  -7.794   8.811 +0.00 +0.06    +0.473 P 
DOCKED: ATOM     37  O   UNL d   1      15.261  -8.053  10.272 -0.00 -0.03    -0.228 OA
DOCKED: BRANCH  36  38
DOCKED: ATOM     38  O   UNL d   1      16.955  -7.887   8.314 +0.00 -0.04    -0.303 OA
DOCKED: ATOM     39  H   UNL d   1      17.072  -8.712   7.796 +0.00 +0.03    +0.222 HD
DOCKED: ENDBRANCH  36  38
DOCKED: BRANCH  36  40
DOCKED: ATOM     40  O   UNL d   1      14.946  -6.388   8.259 -0.00 -0.04    -0.303 OA
DOCKED: ATOM     41  H   UNL d   1      13.965  -6.318   8.272 +0.03 +0.03    +0.222 HD
DOCKED: ENDBRANCH  36  40
DOCKED: ENDBRANCH  35  36
DOCKED: ENDBRANCH   5  35
DOCKED: BRANCH   4  42
DOCKED: ATOM     42  O   UNL d   1      16.654  -9.566   5.789 -0.00 -0.06    -0.278 OA
DOCKED: BRANCH  42  43
DOCKED: ATOM     43  P   UNL d   1      17.505 -10.541   6.720 +0.00 +0.07    +0.473 P 
DOCKED: ATOM     44  O   UNL d   1      18.856 -10.080   7.145 +0.00 -0.03    -0.228 OA
DOCKED: BRANCH  43  45
DOCKED: ATOM     45  O   UNL d   1      16.507 -10.832   7.926 +0.00 -0.04    -0.303 OA
DOCKED: ATOM     46  H   UNL d   1      16.346 -10.027   8.458 +0.00 +0.03    +0.222 HD
DOCKED: ENDBRANCH  43  45
DOCKED: BRANCH  43  47
DOCKED: ATOM     47  O   UNL d   1      17.468 -11.932   5.925 +0.00 -0.05    -0.303 OA
DOCKED: ATOM     48  H   UNL d   1      16.938 -11.823   5.108 +0.00 +0.04    +0.222 HD
DOCKED: ENDBRANCH  43  47
DOCKED: ENDBRANCH  42  43
DOCKED: ENDBRANCH   4  42
DOCKED: TORSDOF 24
DOCKED: TER
DOCKED: ENDMDL
________________________________________________________________________________


	BEGINNING GENETIC ALGORITHM DOCKING 57 of 100
Run: 57 Seed: 13644040 1737472176 [ Run 57 of 100 GA/GALS ]
Beginning LAMARCKIAN GENETIC ALGORITHM (LGA), with a maximum of 25000000 energy evaluations.

Final-Value: -18.557


	FINAL GENETIC ALGORITHM DOCKED STATE
	_______________________________________________


Detailed state:  trans 1.859 -13.443 -2.627 quatxyzw 0.376311 0.520417 -0.447442 -0.622377 center 0.035 0.082 -0.065 ntor 24 34.3599 58.8697 -177.9365 -1.1626 45.3574 -143.5998 30.6204 -96.7347 91.3595 -3.5435 58.3102 -102.6225 147.6307 177.6584 145.3981 -95.3048 61.3354 -39.6584 58.4807 22.7103 -18.1930 35.7765 -13.8424 -23.4636
State:	  1.859 -13.443  -2.627   0.481  0.665 -0.572 -103.020     34.36   58.87 -177.94   -1.16   45.36 -143.60   30.62  -96.73   91.36   -3.54   58.31 -102.62  147.63  177.66  145.40  -95.30   61.34  -39.66   58.48   22.71  -18.19   35.78  -13.84  -23.46

DOCKED: MODEL       57
DOCKED: USER    Run = 57
DOCKED: USER    DPF = D:/Protein_go_brrr/autodock/final/AncA/IHP/dock.dpf
DOCKED: USER  
DOCKED: USER    Estimated Free Energy of Binding    =   +2.46 kcal/mol  [=(1)+(2)+(3)-(4)]
DOCKED: USER    
DOCKED: USER    (1) Final Intermolecular Energy     =   -4.70 kcal/mol
DOCKED: USER        vdW + Hbond + desolv Energy     =   -4.38 kcal/mol
DOCKED: USER        Electrostatic Energy            =   -0.32 kcal/mol
DOCKED: USER    (2) Final Total Internal Energy     =  -13.86 kcal/mol
DOCKED: USER    (3) Torsional Free Energy           =   +7.16 kcal/mol
DOCKED: USER    (4) Unbound System's Energy  [=(2)] =  -13.86 kcal/mol
DOCKED: USER    
DOCKED: USER    
DOCKED: USER    NEWDPF move IHP_ideal_opt.pdbqt
DOCKED: USER    NEWDPF about 0.035000 0.082000 -0.065000
DOCKED: USER    NEWDPF tran0 1.859184 -13.442825 -2.627110
DOCKED: USER    NEWDPF quaternion0 0.376311 0.520417 -0.447442 -0.622377
DOCKED: USER    NEWDPF axisangle0 0.480774 0.664884 -0.571651 -103.020215
DOCKED: USER    NEWDPF quat0 0.480774 0.664884 -0.571651 -103.020215
DOCKED: USER    NEWDPF dihe0 34.36 58.87 -177.94 -1.16 45.36 -143.60 30.62 -96.73 91.36 -3.54 58.31 -102.62 147.63 177.66 145.40 -95.30 61.34 -39.66 58.48 22.71 -18.19 35.78 -13.84 -23.46 
DOCKED: USER  keepresnum = 1 
DOCKED: USER  
DOCKED: REMARK  24 active torsions:
DOCKED: REMARK  status: ('A' for Active; 'I' for Inactive)
DOCKED: REMARK    1  A    between atoms: C_1  and  O_7 
DOCKED: REMARK    2  A    between atoms: C_2  and  O_12 
DOCKED: REMARK    3  A    between atoms: C_3  and  O_17 
DOCKED: REMARK    4  A    between atoms: C_4  and  O_22 
DOCKED: REMARK    5  A    between atoms: C_5  and  O_27 
DOCKED: REMARK    6  A    between atoms: C_6  and  O_32 
DOCKED: REMARK    7  A    between atoms: O_7  and  P_8 
DOCKED: REMARK    8  A    between atoms: P_8  and  O_10 
DOCKED: REMARK    9  A    between atoms: P_8  and  O_11 
DOCKED: REMARK   10  A    between atoms: O_12  and  P_13 
DOCKED: REMARK   11  A    between atoms: P_13  and  O_15 
DOCKED: REMARK   12  A    between atoms: P_13  and  O_16 
DOCKED: REMARK   13  A    between atoms: O_17  and  P_18 
DOCKED: REMARK   14  A    between atoms: P_18  and  O_20 
DOCKED: REMARK   15  A    between atoms: P_18  and  O_21 
DOCKED: REMARK   16  A    between atoms: O_22  and  P_23 
DOCKED: REMARK   17  A    between atoms: P_23  and  O_25 
DOCKED: REMARK   18  A    between atoms: P_23  and  O_26 
DOCKED: REMARK   19  A    between atoms: O_27  and  P_28 
DOCKED: REMARK   20  A    between atoms: P_28  and  O_30 
DOCKED: REMARK   21  A    between atoms: P_28  and  O_31 
DOCKED: REMARK   22  A    between atoms: O_32  and  P_33 
DOCKED: REMARK   23  A    between atoms: P_33  and  O_35 
DOCKED: REMARK   24  A    between atoms: P_33  and  O_36 
DOCKED: USER                              x       y       z     vdW  Elec       q    Type
DOCKED: USER                           _______ _______ _______ _____ _____    ______ ____
DOCKED: ROOT
DOCKED: ATOM      1  C   UNL d   1       1.335 -14.670  -3.725 -0.09 +0.10    +0.194 C 
DOCKED: ATOM      2  C   UNL d   1       0.386 -14.373  -2.563 -0.08 +0.12    +0.194 C 
DOCKED: ATOM      3  C   UNL d   1       1.140 -14.213  -1.241 -0.05 +0.09    +0.194 C 
DOCKED: ATOM      4  C   UNL d   1       2.286 -13.207  -1.321 -0.08 +0.07    +0.194 C 
DOCKED: ATOM      5  C   UNL d   1       3.193 -13.395  -2.530 -0.07 +0.06    +0.194 C 
DOCKED: ATOM      6  C   UNL d   1       2.438 -13.617  -3.843 -0.12 +0.07    +0.194 C 
DOCKED: ENDROOT
DOCKED: BRANCH   1   7
DOCKED: ATOM      7  O   UNL d   1       0.580 -14.634  -4.938 -0.15 -0.17    -0.278 OA
DOCKED: BRANCH   7   8
DOCKED: ATOM      8  P   UNL d   1      -0.573 -15.719  -5.147 -0.13 +0.40    +0.473 P 
DOCKED: ATOM      9  O   UNL d   1      -1.003 -15.919  -6.558 -0.25 -0.17    -0.228 OA
DOCKED: BRANCH   8  10
DOCKED: ATOM     10  O   UNL d   1       0.014 -17.042  -4.475 -0.03 -0.21    -0.303 OA
DOCKED: ATOM     11  H   UNL d   1       0.021 -17.765  -5.130 +0.05 +0.15    +0.222 HD
DOCKED: ENDBRANCH   8  10
DOCKED: BRANCH   8  12
DOCKED: ATOM     12  O   UNL d   1      -1.718 -15.307  -4.125 -0.29 -0.49    -0.303 OA
DOCKED: ATOM     13  H   UNL d   1      -1.597 -14.403  -3.755 +0.06 +0.33    +0.222 HD
DOCKED: ENDBRANCH   8  12
DOCKED: ENDBRANCH   7   8
DOCKED: ENDBRANCH   1   7
DOCKED: BRANCH   2  14
DOCKED: ATOM     14  O   UNL d   1      -0.321 -13.157  -2.836 -0.11 -0.20    -0.278 OA
DOCKED: BRANCH  14  15
DOCKED: ATOM     15  P   UNL d   1      -1.750 -12.986  -2.134 -0.13 +0.54    +0.473 P 
DOCKED: ATOM     16  O   UNL d   1      -2.903 -12.658  -3.030 -0.67 -0.44    -0.228 OA
DOCKED: BRANCH  15  17
DOCKED: ATOM     17  O   UNL d   1      -1.956 -14.350  -1.337 -0.11 -0.41    -0.303 OA
DOCKED: ATOM     18  H   UNL d   1      -1.547 -14.304  -0.451 +0.05 +0.24    +0.222 HD
DOCKED: ENDBRANCH  15  17
DOCKED: BRANCH  15  19
DOCKED: ATOM     19  O   UNL d   1      -1.489 -11.959  -0.948 -0.19 -0.23    -0.303 OA
DOCKED: ATOM     20  H   UNL d   1      -0.839 -12.304  -0.309 +0.08 +0.15    +0.222 HD
DOCKED: ENDBRANCH  15  19
DOCKED: ENDBRANCH  14  15
DOCKED: ENDBRANCH   2  14
DOCKED: BRANCH   6  21
DOCKED: ATOM     21  O   UNL d   1       3.387 -14.109  -4.786 -0.08 -0.10    -0.278 OA
DOCKED: BRANCH  21  22
DOCKED: ATOM     22  P   UNL d   1       3.659 -13.298  -6.132 -0.25 +0.15    +0.473 P 
DOCKED: ATOM     23  O   UNL d   1       4.730 -13.790  -7.047 -0.30 -0.08    -0.228 OA
DOCKED: BRANCH  22  24
DOCKED: ATOM     24  O   UNL d   1       2.205 -13.241  -6.777 -0.19 -0.12    -0.303 OA
DOCKED: ATOM     25  H   UNL d   1       1.662 -13.967  -6.377 +0.10 +0.10    +0.222 HD
DOCKED: ENDBRANCH  22  24
DOCKED: BRANCH  22  26
DOCKED: ATOM     26  O   UNL d   1       3.837 -11.803  -5.582 -0.26 -0.06    -0.303 OA
DOCKED: ATOM     27  H   UNL d   1       4.380 -11.822  -4.768 +0.12 +0.03    +0.222 HD
DOCKED: ENDBRANCH  22  26
DOCKED: ENDBRANCH  21  22
DOCKED: ENDBRANCH   6  21
DOCKED: BRANCH   3  28
DOCKED: ATOM     28  O   UNL d   1       0.230 -13.673  -0.291 -0.09 -0.17    -0.278 OA
DOCKED: BRANCH  28  29
DOCKED: ATOM     29  P   UNL d   1       0.333 -14.082   1.244 -0.08 +0.28    +0.473 P 
DOCKED: ATOM     30  O   UNL d   1      -0.882 -14.713   1.822 -0.12 -0.21    -0.228 OA
DOCKED: BRANCH  29  31
DOCKED: ATOM     31  O   UNL d   1       1.665 -14.969   1.208 -0.02 -0.13    -0.303 OA
DOCKED: ATOM     32  H   UNL d   1       2.444 -14.367   1.244 +0.04 +0.08    +0.222 HD
DOCKED: ENDBRANCH  29  31
DOCKED: BRANCH  29  33
DOCKED: ATOM     33  O   UNL d   1       0.831 -12.728   1.918 -0.18 -0.15    -0.303 OA
DOCKED: ATOM     34  H   UNL d   1       1.474 -12.285   1.312 +0.08 +0.08    +0.222 HD
DOCKED: ENDBRANCH  29  33
DOCKED: ENDBRANCH  28  29
DOCKED: ENDBRANCH   3  28
DOCKED: BRANCH   5  35
DOCKED: ATOM     35  O   UNL d   1       3.917 -12.174  -2.664 -0.10 -0.06    -0.278 OA
DOCKED: BRANCH  35  36
DOCKED: ATOM     36  P   UNL d   1       5.504 -12.157  -2.503 -0.08 +0.03    +0.473 P 
DOCKED: ATOM     37  O   UNL d   1       6.280 -12.008  -3.773 -0.13 +0.01    -0.228 OA
DOCKED: BRANCH  36  38
DOCKED: ATOM     38  O   UNL d   1       5.714 -10.968  -1.464 -0.16 -0.00    -0.303 OA
DOCKED: ATOM     39  H   UNL d   1       4.878 -10.821  -0.971 +0.08 +0.01    +0.222 HD
DOCKED: ENDBRANCH  36  38
DOCKED: BRANCH  36  40
DOCKED: ATOM     40  O   UNL d   1       5.772 -13.468  -1.643 -0.05 -0.03    -0.303 OA
DOCKED: ATOM     41  H   UNL d   1       5.142 -13.546  -0.892 +0.04 +0.04    +0.222 HD
DOCKED: ENDBRANCH  36  40
DOCKED: ENDBRANCH  35  36
DOCKED: ENDBRANCH   5  35
DOCKED: BRANCH   4  42
DOCKED: ATOM     42  O   UNL d   1       3.092 -13.404  -0.155 -0.04 -0.08    -0.278 OA
DOCKED: BRANCH  42  43
DOCKED: ATOM     43  P   UNL d   1       3.578 -12.129   0.671 -0.11 +0.11    +0.473 P 
DOCKED: ATOM     44  O   UNL d   1       3.047 -10.800   0.258 -0.28 -0.04    -0.228 OA
DOCKED: BRANCH  43  45
DOCKED: ATOM     45  O   UNL d   1       3.230 -12.531   2.171 -0.08 -0.09    -0.303 OA
DOCKED: ATOM     46  H   UNL d   1       2.624 -13.298   2.204 +0.06 +0.08    +0.222 HD
DOCKED: ENDBRANCH  43  45
DOCKED: BRANCH  43  47
DOCKED: ATOM     47  O   UNL d   1       5.175 -12.270   0.658 -0.08 -0.05    -0.303 OA
DOCKED: ATOM     48  H   UNL d   1       5.515 -12.003  -0.221 +0.08 +0.02    +0.222 HD
DOCKED: ENDBRANCH  43  47
DOCKED: ENDBRANCH  42  43
DOCKED: ENDBRANCH   4  42
DOCKED: TORSDOF 24
DOCKED: TER
DOCKED: ENDMDL
________________________________________________________________________________


	BEGINNING GENETIC ALGORITHM DOCKING 58 of 100
Run: 58 Seed: 844986924 136418437 [ Run 58 of 100 GA/GALS ]
Beginning LAMARCKIAN GENETIC ALGORITHM (LGA), with a maximum of 25000000 energy evaluations.

Final-Value: -18.464


	FINAL GENETIC ALGORITHM DOCKED STATE
	_______________________________________________


Detailed state:  trans -8.339 11.395 2.923 quatxyzw -0.681379 -0.657077 0.048666 0.318753 center 0.035 0.082 -0.065 ntor 24 -118.2159 31.2389 29.9210 70.3213 42.5237 -167.1892 -97.5666 -46.0228 159.3617 123.0058 -46.7886 -176.5084 -168.7812 -179.9283 130.8792 70.4129 44.8680 3.5370 46.3947 -11.4722 -18.6465 150.9275 -178.8067 141.3384
State:	 -8.339  11.395   2.923  -0.719 -0.693  0.051 142.825   -118.22   31.24   29.92   70.32   42.52 -167.19  -97.57  -46.02  159.36  123.01  -46.79 -176.51 -168.78 -179.93  130.88   70.41   44.87    3.54   46.39  -11.47  -18.65  150.93 -178.81  141.34

DOCKED: MODEL       58
DOCKED: USER    Run = 58
DOCKED: USER    DPF = D:/Protein_go_brrr/autodock/final/AncA/IHP/dock.dpf
DOCKED: USER  
DOCKED: USER    Estimated Free Energy of Binding    =   +2.76 kcal/mol  [=(1)+(2)+(3)-(4)]
DOCKED: USER    
DOCKED: USER    (1) Final Intermolecular Energy     =   -4.40 kcal/mol
DOCKED: USER        vdW + Hbond + desolv Energy     =   -4.26 kcal/mol
DOCKED: USER        Electrostatic Energy            =   -0.14 kcal/mol
DOCKED: USER    (2) Final Total Internal Energy     =  -14.06 kcal/mol
DOCKED: USER    (3) Torsional Free Energy           =   +7.16 kcal/mol
DOCKED: USER    (4) Unbound System's Energy  [=(2)] =  -14.06 kcal/mol
DOCKED: USER    
DOCKED: USER    
DOCKED: USER    NEWDPF move IHP_ideal_opt.pdbqt
DOCKED: USER    NEWDPF about 0.035000 0.082000 -0.065000
DOCKED: USER    NEWDPF tran0 -8.339167 11.395126 2.922758
DOCKED: USER    NEWDPF quaternion0 -0.681379 -0.657077 0.048666 0.318753
DOCKED: USER    NEWDPF axisangle0 -0.718878 -0.693238 0.051345 142.824897
DOCKED: USER    NEWDPF quat0 -0.718878 -0.693238 0.051345 142.824897
DOCKED: USER    NEWDPF dihe0 -118.22 31.24 29.92 70.32 42.52 -167.19 -97.57 -46.02 159.36 123.01 -46.79 -176.51 -168.78 -179.93 130.88 70.41 44.87 3.54 46.39 -11.47 -18.65 150.93 -178.81 141.34 
DOCKED: USER  keepresnum = 1 
DOCKED: USER  
DOCKED: REMARK  24 active torsions:
DOCKED: REMARK  status: ('A' for Active; 'I' for Inactive)
DOCKED: REMARK    1  A    between atoms: C_1  and  O_7 
DOCKED: REMARK    2  A    between atoms: C_2  and  O_12 
DOCKED: REMARK    3  A    between atoms: C_3  and  O_17 
DOCKED: REMARK    4  A    between atoms: C_4  and  O_22 
DOCKED: REMARK    5  A    between atoms: C_5  and  O_27 
DOCKED: REMARK    6  A    between atoms: C_6  and  O_32 
DOCKED: REMARK    7  A    between atoms: O_7  and  P_8 
DOCKED: REMARK    8  A    between atoms: P_8  and  O_10 
DOCKED: REMARK    9  A    between atoms: P_8  and  O_11 
DOCKED: REMARK   10  A    between atoms: O_12  and  P_13 
DOCKED: REMARK   11  A    between atoms: P_13  and  O_15 
DOCKED: REMARK   12  A    between atoms: P_13  and  O_16 
DOCKED: REMARK   13  A    between atoms: O_17  and  P_18 
DOCKED: REMARK   14  A    between atoms: P_18  and  O_20 
DOCKED: REMARK   15  A    between atoms: P_18  and  O_21 
DOCKED: REMARK   16  A    between atoms: O_22  and  P_23 
DOCKED: REMARK   17  A    between atoms: P_23  and  O_25 
DOCKED: REMARK   18  A    between atoms: P_23  and  O_26 
DOCKED: REMARK   19  A    between atoms: O_27  and  P_28 
DOCKED: REMARK   20  A    between atoms: P_28  and  O_30 
DOCKED: REMARK   21  A    between atoms: P_28  and  O_31 
DOCKED: REMARK   22  A    between atoms: O_32  and  P_33 
DOCKED: REMARK   23  A    between atoms: P_33  and  O_35 
DOCKED: REMARK   24  A    between atoms: P_33  and  O_36 
DOCKED: USER                              x       y       z     vdW  Elec       q    Type
DOCKED: USER                           _______ _______ _______ _____ _____    ______ ____
DOCKED: ROOT
DOCKED: ATOM      1  C   UNL d   1      -8.718  12.025   1.359 -0.06 +0.01    +0.194 C 
DOCKED: ATOM      2  C   UNL d   1      -9.757  11.076   1.959 -0.11 +0.02    +0.194 C 
DOCKED: ATOM      3  C   UNL d   1      -9.102   9.860   2.617 -0.17 +0.04    +0.194 C 
DOCKED: ATOM      4  C   UNL d   1      -8.013  10.233   3.621 -0.18 +0.06    +0.194 C 
DOCKED: ATOM      5  C   UNL d   1      -7.019  11.265   3.103 -0.06 +0.04    +0.194 C 
DOCKED: ATOM      6  C   UNL d   1      -7.673  12.451   2.391 -0.06 +0.02    +0.194 C 
DOCKED: ENDROOT
DOCKED: BRANCH   1   7
DOCKED: ATOM      7  O   UNL d   1      -9.393  13.207   0.922 -0.01 -0.01    -0.278 OA
DOCKED: BRANCH   7   8
DOCKED: ATOM      8  P   UNL d   1     -10.237  13.142  -0.432 -0.01 -0.00    +0.473 P 
DOCKED: ATOM      9  O   UNL d   1      -9.753  14.034  -1.521 -0.01 +0.00    -0.228 OA
DOCKED: BRANCH   8  10
DOCKED: ATOM     10  O   UNL d   1     -10.215  11.597  -0.828 -0.08 +0.01    -0.303 OA
DOCKED: ATOM     11  H   UNL d   1     -10.921  11.126  -0.347 +0.05 +0.00    +0.222 HD
DOCKED: ENDBRANCH   8  10
DOCKED: BRANCH   8  12
DOCKED: ATOM     12  O   UNL d   1     -11.748  13.350   0.014 -0.01 -0.00    -0.303 OA
DOCKED: ATOM     13  H   UNL d   1     -11.881  13.252   0.984 +0.02 +0.01    +0.222 HD
DOCKED: ENDBRANCH   8  12
DOCKED: ENDBRANCH   7   8
DOCKED: ENDBRANCH   1   7
DOCKED: BRANCH   2  14
DOCKED: ATOM     14  O   UNL d   1     -10.514  11.780   2.952 -0.04 -0.02    -0.278 OA
DOCKED: BRANCH  14  15
DOCKED: ATOM     15  P   UNL d   1     -12.093  11.885   2.708 -0.04 +0.02    +0.473 P 
DOCKED: ATOM     16  O   UNL d   1     -12.681  13.261   2.694 -0.01 -0.01    -0.228 OA
DOCKED: BRANCH  15  17
DOCKED: ATOM     17  O   UNL d   1     -12.327  11.099   1.342 -0.09 -0.01    -0.303 OA
DOCKED: ATOM     18  H   UNL d   1     -11.901  11.561   0.594 +0.04 +0.01    +0.222 HD
DOCKED: ENDBRANCH  15  17
DOCKED: BRANCH  15  19
DOCKED: ATOM     19  O   UNL d   1     -12.725  10.879   3.767 -0.07 -0.01    -0.303 OA
DOCKED: ATOM     20  H   UNL d   1     -12.062  10.570   4.411 +0.05 +0.01    +0.222 HD
DOCKED: ENDBRANCH  15  19
DOCKED: ENDBRANCH  14  15
DOCKED: ENDBRANCH   2  14
DOCKED: BRANCH   6  21
DOCKED: ATOM     21  O   UNL d   1      -6.637  13.127   1.682 -0.04 -0.01    -0.278 OA
DOCKED: BRANCH  21  22
DOCKED: ATOM     22  P   UNL d   1      -6.332  14.661   1.997 -0.01 +0.01    +0.473 P 
DOCKED: ATOM     23  O   UNL d   1      -5.011  15.217   1.583 -0.01 -0.00    -0.228 OA
DOCKED: BRANCH  22  24
DOCKED: ATOM     24  O   UNL d   1      -7.593  15.384   1.349 -0.00 -0.01    -0.303 OA
DOCKED: ATOM     25  H   UNL d   1      -7.964  14.788   0.649 +0.01 +0.00    +0.222 HD
DOCKED: ENDBRANCH  22  24
DOCKED: BRANCH  22  26
DOCKED: ATOM     26  O   UNL d   1      -6.670  14.745   3.562 -0.01 -0.02    -0.303 OA
DOCKED: ATOM     27  H   UNL d   1      -6.666  13.842   3.941 +0.02 +0.02    +0.222 HD
DOCKED: ENDBRANCH  22  26
DOCKED: ENDBRANCH  21  22
DOCKED: ENDBRANCH   6  21
DOCKED: BRANCH   3  28
DOCKED: ATOM     28  O   UNL d   1     -10.102   9.193   3.376 -0.04 -0.03    -0.278 OA
DOCKED: BRANCH  28  29
DOCKED: ATOM     29  P   UNL d   1     -10.215   9.434   4.946 -0.12 +0.12    +0.473 P 
DOCKED: ATOM     30  O   UNL d   1     -10.112  10.849   5.386 -0.05 -0.05    -0.228 OA
DOCKED: BRANCH  29  31
DOCKED: ATOM     31  O   UNL d   1     -11.594   8.679   5.246 -0.16 -0.03    -0.303 OA
DOCKED: ATOM     32  H   UNL d   1     -12.253   8.946   4.564 +0.03 -0.00    +0.222 HD
DOCKED: ENDBRANCH  29  31
DOCKED: BRANCH  29  33
DOCKED: ATOM     33  O   UNL d   1      -9.128   8.422   5.519 -0.38 -0.22    -0.303 OA
DOCKED: ATOM     34  H   UNL d   1      -8.562   8.103   4.774 +0.11 +0.18    +0.222 HD
DOCKED: ENDBRANCH  29  33
DOCKED: ENDBRANCH  28  29
DOCKED: ENDBRANCH   3  28
DOCKED: BRANCH   5  35
DOCKED: ATOM     35  O   UNL d   1      -6.360  11.781   4.258 -0.06 -0.07    -0.278 OA
DOCKED: BRANCH  35  36
DOCKED: ATOM     36  P   UNL d   1      -7.207  12.250   5.526 -0.07 +0.14    +0.473 P 
DOCKED: ATOM     37  O   UNL d   1      -7.488  11.190   6.542 -0.32 -0.17    -0.228 OA
DOCKED: BRANCH  36  38
DOCKED: ATOM     38  O   UNL d   1      -6.332  13.464   6.071 -0.03 -0.05    -0.303 OA
DOCKED: ATOM     39  H   UNL d   1      -6.626  14.293   5.636 +0.02 +0.03    +0.222 HD
DOCKED: ENDBRANCH  36  38
DOCKED: BRANCH  36  40
DOCKED: ATOM     40  O   UNL d   1      -8.463  12.956   4.853 -0.01 -0.05    -0.303 OA
DOCKED: ATOM     41  H   UNL d   1      -9.141  12.302   4.571 +0.03 +0.04    +0.222 HD
DOCKED: ENDBRANCH  36  40
DOCKED: ENDBRANCH  35  36
DOCKED: ENDBRANCH   5  35
DOCKED: BRANCH   4  42
DOCKED: ATOM     42  O   UNL d   1      -7.275   9.038   3.895 -0.50 -0.16    -0.278 OA
DOCKED: BRANCH  42  43
DOCKED: ATOM     43  P   UNL d   1      -7.150   7.930   2.754 -0.29 +0.16    +0.473 P 
DOCKED: ATOM     44  O   UNL d   1      -6.731   8.384   1.399 -0.39 -0.02    -0.228 OA
DOCKED: BRANCH  43  45
DOCKED: ATOM     45  O   UNL d   1      -6.173   6.860   3.412 -0.39 -0.14    -0.303 OA
DOCKED: ATOM     46  H   UNL d   1      -5.358   6.747   2.884 -0.25 +0.05    +0.222 HD
DOCKED: ENDBRANCH  43  45
DOCKED: BRANCH  43  47
DOCKED: ATOM     47  O   UNL d   1      -8.560   7.171   2.825 -0.59 -0.12    -0.303 OA
DOCKED: ATOM     48  H   UNL d   1      -9.124   7.600   3.501 +0.12 +0.09    +0.222 HD
DOCKED: ENDBRANCH  43  47
DOCKED: ENDBRANCH  42  43
DOCKED: ENDBRANCH   4  42
DOCKED: TORSDOF 24
DOCKED: TER
DOCKED: ENDMDL
________________________________________________________________________________


	BEGINNING GENETIC ALGORITHM DOCKING 59 of 100
Run: 59 Seed: 200325573 1044379287 [ Run 59 of 100 GA/GALS ]
Beginning LAMARCKIAN GENETIC ALGORITHM (LGA), with a maximum of 25000000 energy evaluations.

Final-Value: -16.623


	FINAL GENETIC ALGORITHM DOCKED STATE
	_______________________________________________


Detailed state:  trans -16.494 0.294 -12.621 quatxyzw 0.501204 -0.124402 0.243000 -0.821139 center 0.035 0.082 -0.065 ntor 24 165.2610 73.3555 144.2554 -14.7267 -46.6706 166.3138 10.0005 -121.5071 93.7281 92.0539 -135.9605 135.6539 -91.2957 84.1532 40.4349 -43.2942 96.8402 165.2444 -142.9805 -14.9791 -174.2000 144.2917 6.1974 -178.4151
State:	-16.494   0.294 -12.621   0.878 -0.218  0.426 -69.602    165.26   73.36  144.26  -14.73  -46.67  166.31   10.00 -121.51   93.73   92.05 -135.96  135.65  -91.30   84.15   40.43  -43.29   96.84  165.24 -142.98  -14.98 -174.20  144.29    6.20 -178.42

DOCKED: MODEL       59
DOCKED: USER    Run = 59
DOCKED: USER    DPF = D:/Protein_go_brrr/autodock/final/AncA/IHP/dock.dpf
DOCKED: USER  
DOCKED: USER    Estimated Free Energy of Binding    =   +2.51 kcal/mol  [=(1)+(2)+(3)-(4)]
DOCKED: USER    
DOCKED: USER    (1) Final Intermolecular Energy     =   -4.65 kcal/mol
DOCKED: USER        vdW + Hbond + desolv Energy     =   -3.90 kcal/mol
DOCKED: USER        Electrostatic Energy            =   -0.75 kcal/mol
DOCKED: USER    (2) Final Total Internal Energy     =  -11.97 kcal/mol
DOCKED: USER    (3) Torsional Free Energy           =   +7.16 kcal/mol
DOCKED: USER    (4) Unbound System's Energy  [=(2)] =  -11.97 kcal/mol
DOCKED: USER    
DOCKED: USER    
DOCKED: USER    NEWDPF move IHP_ideal_opt.pdbqt
DOCKED: USER    NEWDPF about 0.035000 0.082000 -0.065000
DOCKED: USER    NEWDPF tran0 -16.494158 0.294063 -12.620708
DOCKED: USER    NEWDPF quaternion0 0.501204 -0.124402 0.243000 -0.821139
DOCKED: USER    NEWDPF axisangle0 0.878184 -0.217971 0.425772 -69.602076
DOCKED: USER    NEWDPF quat0 0.878184 -0.217971 0.425772 -69.602076
DOCKED: USER    NEWDPF dihe0 165.26 73.36 144.26 -14.73 -46.67 166.31 10.00 -121.51 93.73 92.05 -135.96 135.65 -91.30 84.15 40.43 -43.29 96.84 165.24 -142.98 -14.98 -174.20 144.29 6.20 -178.42 
DOCKED: USER  keepresnum = 1 
DOCKED: USER  
DOCKED: REMARK  24 active torsions:
DOCKED: REMARK  status: ('A' for Active; 'I' for Inactive)
DOCKED: REMARK    1  A    between atoms: C_1  and  O_7 
DOCKED: REMARK    2  A    between atoms: C_2  and  O_12 
DOCKED: REMARK    3  A    between atoms: C_3  and  O_17 
DOCKED: REMARK    4  A    between atoms: C_4  and  O_22 
DOCKED: REMARK    5  A    between atoms: C_5  and  O_27 
DOCKED: REMARK    6  A    between atoms: C_6  and  O_32 
DOCKED: REMARK    7  A    between atoms: O_7  and  P_8 
DOCKED: REMARK    8  A    between atoms: P_8  and  O_10 
DOCKED: REMARK    9  A    between atoms: P_8  and  O_11 
DOCKED: REMARK   10  A    between atoms: O_12  and  P_13 
DOCKED: REMARK   11  A    between atoms: P_13  and  O_15 
DOCKED: REMARK   12  A    between atoms: P_13  and  O_16 
DOCKED: REMARK   13  A    between atoms: O_17  and  P_18 
DOCKED: REMARK   14  A    between atoms: P_18  and  O_20 
DOCKED: REMARK   15  A    between atoms: P_18  and  O_21 
DOCKED: REMARK   16  A    between atoms: O_22  and  P_23 
DOCKED: REMARK   17  A    between atoms: P_23  and  O_25 
DOCKED: REMARK   18  A    between atoms: P_23  and  O_26 
DOCKED: REMARK   19  A    between atoms: O_27  and  P_28 
DOCKED: REMARK   20  A    between atoms: P_28  and  O_30 
DOCKED: REMARK   21  A    between atoms: P_28  and  O_31 
DOCKED: REMARK   22  A    between atoms: O_32  and  P_33 
DOCKED: REMARK   23  A    between atoms: P_33  and  O_35 
DOCKED: REMARK   24  A    between atoms: P_33  and  O_36 
DOCKED: USER                              x       y       z     vdW  Elec       q    Type
DOCKED: USER                           _______ _______ _______ _____ _____    ______ ____
DOCKED: ROOT
DOCKED: ATOM      1  C   UNL d   1     -14.932  -0.398 -12.368 -0.11 -0.09    +0.194 C 
DOCKED: ATOM      2  C   UNL d   1     -15.587  -0.720 -13.712 -0.06 -0.09    +0.194 C 
DOCKED: ATOM      3  C   UNL d   1     -17.071  -1.059 -13.552 -0.01 -0.03    +0.194 C 
DOCKED: ATOM      4  C   UNL d   1     -17.848  -0.004 -12.769 -0.00 -0.01    +0.194 C 
DOCKED: ATOM      5  C   UNL d   1     -17.172   0.431 -11.475 -0.02 -0.01    +0.194 C 
DOCKED: ATOM      6  C   UNL d   1     -15.675   0.711 -11.622 -0.06 -0.03    +0.194 C 
DOCKED: ENDROOT
DOCKED: BRANCH   1   7
DOCKED: ATOM      7  O   UNL d   1     -13.605   0.072 -12.619 +0.16 +0.30    -0.278 OA
DOCKED: BRANCH   7   8
DOCKED: ATOM      8  P   UNL d   1     -13.366   1.648 -12.725 -0.11 -0.28    +0.473 P 
DOCKED: ATOM      9  O   UNL d   1     -14.430   2.402 -13.442 -0.05 +0.06    -0.228 OA
DOCKED: BRANCH   8  10
DOCKED: ATOM     10  O   UNL d   1     -13.180   2.114 -11.210 -0.19 +0.08    -0.303 OA
DOCKED: ATOM     11  H   UNL d   1     -13.140   1.330 -10.630 +0.12 -0.06    +0.222 HD
DOCKED: ENDBRANCH   8  10
DOCKED: BRANCH   8  12
DOCKED: ATOM     12  O   UNL d   1     -11.895   1.805 -13.303 -0.15 +0.28    -0.303 OA
DOCKED: ATOM     13  H   UNL d   1     -11.619   1.046 -13.865 -0.29 -0.39    +0.222 HD
DOCKED: ENDBRANCH   8  12
DOCKED: ENDBRANCH   7   8
DOCKED: ENDBRANCH   1   7
DOCKED: BRANCH   2  14
DOCKED: ATOM     14  O   UNL d   1     -15.469   0.420 -14.573 -0.03 +0.11    -0.278 OA
DOCKED: BRANCH  14  15
DOCKED: ATOM     15  P   UNL d   1     -14.602   0.224 -15.905 -0.02 -0.24    +0.473 P 
DOCKED: ATOM     16  O   UNL d   1     -15.131   0.861 -17.151 -0.01 +0.05    -0.228 OA
DOCKED: BRANCH  15  17
DOCKED: ATOM     17  O   UNL d   1     -13.154   0.757 -15.506 -0.08 +0.28    -0.303 OA
DOCKED: ATOM     18  H   UNL d   1     -12.861   0.375 -14.657 -0.33 -0.40    +0.222 HD
DOCKED: ENDBRANCH  15  17
DOCKED: BRANCH  15  19
DOCKED: ATOM     19  O   UNL d   1     -14.353  -1.345 -15.989 -0.06 +0.23    -0.303 OA
DOCKED: ATOM     20  H   UNL d   1     -13.689  -1.640 -15.338 -0.49 -0.39    +0.222 HD
DOCKED: ENDBRANCH  15  19
DOCKED: ENDBRANCH  14  15
DOCKED: ENDBRANCH   2  14
DOCKED: BRANCH   6  21
DOCKED: ATOM     21  O   UNL d   1     -15.134   0.763 -10.303 -0.11 +0.01    -0.278 OA
DOCKED: BRANCH  21  22
DOCKED: ATOM     22  P   UNL d   1     -14.729  -0.588  -9.559 -0.19 +0.03    +0.473 P 
DOCKED: ATOM     23  O   UNL d   1     -13.534  -1.333 -10.052 -0.93 -0.08    -0.228 OA
DOCKED: BRANCH  22  24
DOCKED: ATOM     24  O   UNL d   1     -14.641  -0.111  -8.043 -0.37 -0.03    -0.303 OA
DOCKED: ATOM     25  H   UNL d   1     -13.693  -0.166  -7.758 -0.38 -0.04    +0.222 HD
DOCKED: ENDBRANCH  22  24
DOCKED: BRANCH  22  26
DOCKED: ATOM     26  O   UNL d   1     -16.115  -1.395  -9.572 -0.14 -0.01    -0.303 OA
DOCKED: ATOM     27  H   UNL d   1     -16.825  -0.808  -9.903 +0.08 +0.00    +0.222 HD
DOCKED: ENDBRANCH  22  26
DOCKED: ENDBRANCH  21  22
DOCKED: ENDBRANCH   6  21
DOCKED: BRANCH   3  28
DOCKED: ATOM     28  O   UNL d   1     -17.650  -1.067 -14.851 -0.00 +0.03    -0.278 OA
DOCKED: BRANCH  28  29
DOCKED: ATOM     29  P   UNL d   1     -18.578   0.137 -15.326 +0.00 -0.02    +0.473 P 
DOCKED: ATOM     30  O   UNL d   1     -19.894   0.238 -14.644 +0.00 -0.00    -0.228 OA
DOCKED: BRANCH  29  31
DOCKED: ATOM     31  O   UNL d   1     -17.566   1.361 -15.135 +0.00 +0.02    -0.303 OA
DOCKED: ATOM     32  H   UNL d   1     -16.789   1.221 -15.725 +0.01 -0.03    +0.222 HD
DOCKED: ENDBRANCH  29  31
DOCKED: BRANCH  29  33
DOCKED: ATOM     33  O   UNL d   1     -18.599  -0.060 -16.905 +0.00 +0.01    -0.303 OA
DOCKED: ATOM     34  H   UNL d   1     -17.679   0.040 -17.254 +0.00 -0.01    +0.222 HD
DOCKED: ENDBRANCH  29  33
DOCKED: ENDBRANCH  28  29
DOCKED: ENDBRANCH   3  28
DOCKED: BRANCH   5  35
DOCKED: ATOM     35  O   UNL d   1     -17.795   1.660 -11.107 -0.01 -0.00    -0.278 OA
DOCKED: BRANCH  35  36
DOCKED: ATOM     36  P   UNL d   1     -18.205   1.932  -9.590 -0.04 +0.05    +0.473 P 
DOCKED: ATOM     37  O   UNL d   1     -17.985   3.329  -9.103 -0.10 -0.03    -0.228 OA
DOCKED: BRANCH  36  38
DOCKED: ATOM     38  O   UNL d   1     -19.728   1.466  -9.575 -0.03 -0.03    -0.303 OA
DOCKED: ATOM     39  H   UNL d   1     -19.875   0.827 -10.306 +0.02 +0.01    +0.222 HD
DOCKED: ENDBRANCH  36  38
DOCKED: BRANCH  36  40
DOCKED: ATOM     40  O   UNL d   1     -17.442   0.770  -8.818 -0.09 -0.05    -0.303 OA
DOCKED: ATOM     41  H   UNL d   1     -16.492   0.728  -9.069 +0.08 +0.03    +0.222 HD
DOCKED: ENDBRANCH  36  40
DOCKED: ENDBRANCH  35  36
DOCKED: ENDBRANCH   5  35
DOCKED: BRANCH   4  42
DOCKED: ATOM     42  O   UNL d   1     -19.102  -0.594 -12.411 -0.00 +0.00    -0.278 OA
DOCKED: BRANCH  42  43
DOCKED: ATOM     43  P   UNL d   1     -19.125  -1.750 -11.312 +0.01 +0.01    +0.473 P 
DOCKED: ATOM     44  O   UNL d   1     -20.181  -2.794 -11.436 -0.01 -0.01    -0.228 OA
DOCKED: BRANCH  43  45
DOCKED: ATOM     45  O   UNL d   1     -17.639  -2.317 -11.371 -0.01 +0.01    -0.303 OA
DOCKED: ATOM     46  H   UNL d   1     -17.361  -2.681 -10.507 +0.06 -0.01    +0.222 HD
DOCKED: ENDBRANCH  43  45
DOCKED: BRANCH  43  47
DOCKED: ATOM     47  O   UNL d   1     -19.111  -0.941  -9.929 -0.02 -0.02    -0.303 OA
DOCKED: ATOM     48  H   UNL d   1     -18.439  -0.230  -9.978 +0.05 +0.01    +0.222 HD
DOCKED: ENDBRANCH  43  47
DOCKED: ENDBRANCH  42  43
DOCKED: ENDBRANCH   4  42
DOCKED: TORSDOF 24
DOCKED: TER
DOCKED: ENDMDL
________________________________________________________________________________


	BEGINNING GENETIC ALGORITHM DOCKING 60 of 100
Run: 60 Seed: 1425234981 513355895 [ Run 60 of 100 GA/GALS ]
Beginning LAMARCKIAN GENETIC ALGORITHM (LGA), with a maximum of 25000000 energy evaluations.

Final-Value: -19.127


	FINAL GENETIC ALGORITHM DOCKED STATE
	_______________________________________________


Detailed state:  trans -12.857 10.622 -4.850 quatxyzw -0.018285 0.652186 0.409008 0.637990 center 0.035 0.082 -0.065 ntor 24 30.2490 23.2789 117.3198 89.0704 -10.4521 -170.2401 -104.1000 -3.3259 89.4565 -37.8558 -29.1668 180.0000 -25.0614 95.3810 -179.9280 165.6416 -179.6246 158.9048 52.4790 -2.9690 177.4725 16.5030 17.4495 180.0000
State:	-12.857  10.622  -4.850  -0.024  0.847  0.531 100.716     30.25   23.28  117.32   89.07  -10.45 -170.24 -104.10   -3.33   89.46  -37.86  -29.17  180.00  -25.06   95.38 -179.93  165.64 -179.62  158.90   52.48   -2.97  177.47   16.50   17.45  180.00

DOCKED: MODEL       60
DOCKED: USER    Run = 60
DOCKED: USER    DPF = D:/Protein_go_brrr/autodock/final/AncA/IHP/dock.dpf
DOCKED: USER  
DOCKED: USER    Estimated Free Energy of Binding    =   +2.26 kcal/mol  [=(1)+(2)+(3)-(4)]
DOCKED: USER    
DOCKED: USER    (1) Final Intermolecular Energy     =   -4.90 kcal/mol
DOCKED: USER        vdW + Hbond + desolv Energy     =   -4.69 kcal/mol
DOCKED: USER        Electrostatic Energy            =   -0.21 kcal/mol
DOCKED: USER    (2) Final Total Internal Energy     =  -14.22 kcal/mol
DOCKED: USER    (3) Torsional Free Energy           =   +7.16 kcal/mol
DOCKED: USER    (4) Unbound System's Energy  [=(2)] =  -14.22 kcal/mol
DOCKED: USER    
DOCKED: USER    
DOCKED: USER    NEWDPF move IHP_ideal_opt.pdbqt
DOCKED: USER    NEWDPF about 0.035000 0.082000 -0.065000
DOCKED: USER    NEWDPF tran0 -12.857166 10.621533 -4.849774
DOCKED: USER    NEWDPF quaternion0 -0.018285 0.652186 0.409008 0.637990
DOCKED: USER    NEWDPF axisangle0 -0.023745 0.846946 0.531149 100.715801
DOCKED: USER    NEWDPF quat0 -0.023745 0.846946 0.531149 100.715801
DOCKED: USER    NEWDPF dihe0 30.25 23.28 117.32 89.07 -10.45 -170.24 -104.10 -3.33 89.46 -37.86 -29.17 180.00 -25.06 95.38 -179.93 165.64 -179.62 158.90 52.48 -2.97 177.47 16.50 17.45 180.00 
DOCKED: USER  keepresnum = 1 
DOCKED: USER  
DOCKED: REMARK  24 active torsions:
DOCKED: REMARK  status: ('A' for Active; 'I' for Inactive)
DOCKED: REMARK    1  A    between atoms: C_1  and  O_7 
DOCKED: REMARK    2  A    between atoms: C_2  and  O_12 
DOCKED: REMARK    3  A    between atoms: C_3  and  O_17 
DOCKED: REMARK    4  A    between atoms: C_4  and  O_22 
DOCKED: REMARK    5  A    between atoms: C_5  and  O_27 
DOCKED: REMARK    6  A    between atoms: C_6  and  O_32 
DOCKED: REMARK    7  A    between atoms: O_7  and  P_8 
DOCKED: REMARK    8  A    between atoms: P_8  and  O_10 
DOCKED: REMARK    9  A    between atoms: P_8  and  O_11 
DOCKED: REMARK   10  A    between atoms: O_12  and  P_13 
DOCKED: REMARK   11  A    between atoms: P_13  and  O_15 
DOCKED: REMARK   12  A    between atoms: P_13  and  O_16 
DOCKED: REMARK   13  A    between atoms: O_17  and  P_18 
DOCKED: REMARK   14  A    between atoms: P_18  and  O_20 
DOCKED: REMARK   15  A    between atoms: P_18  and  O_21 
DOCKED: REMARK   16  A    between atoms: O_22  and  P_23 
DOCKED: REMARK   17  A    between atoms: P_23  and  O_25 
DOCKED: REMARK   18  A    between atoms: P_23  and  O_26 
DOCKED: REMARK   19  A    between atoms: O_27  and  P_28 
DOCKED: REMARK   20  A    between atoms: P_28  and  O_30 
DOCKED: REMARK   21  A    between atoms: P_28  and  O_31 
DOCKED: REMARK   22  A    between atoms: O_32  and  P_33 
DOCKED: REMARK   23  A    between atoms: P_33  and  O_35 
DOCKED: REMARK   24  A    between atoms: P_33  and  O_36 
DOCKED: USER                              x       y       z     vdW  Elec       q    Type
DOCKED: USER                           _______ _______ _______ _____ _____    ______ ____
DOCKED: ROOT
DOCKED: ATOM      1  C   UNL d   1     -14.202   9.751  -4.203 -0.16 -0.01    +0.194 C 
DOCKED: ATOM      2  C   UNL d   1     -14.058   9.709  -5.725 -0.11 -0.00    +0.194 C 
DOCKED: ATOM      3  C   UNL d   1     -13.705  11.083  -6.299 -0.04 +0.00    +0.194 C 
DOCKED: ATOM      4  C   UNL d   1     -12.495  11.724  -5.622 -0.05 -0.01    +0.194 C 
DOCKED: ATOM      5  C   UNL d   1     -12.542  11.685  -4.100 -0.09 -0.01    +0.194 C 
DOCKED: ATOM      6  C   UNL d   1     -12.956  10.327  -3.528 -0.06 -0.01    +0.194 C 
DOCKED: ENDROOT
DOCKED: BRANCH   1   7
DOCKED: ATOM      7  O   UNL d   1     -14.359   8.410  -3.733 -0.11 +0.04    -0.278 OA
DOCKED: BRANCH   7   8
DOCKED: ATOM      8  P   UNL d   1     -15.723   7.646  -4.060 -0.22 -0.04    +0.473 P 
DOCKED: ATOM      9  O   UNL d   1     -16.428   8.110  -5.286 -0.11 +0.00    -0.228 OA
DOCKED: BRANCH   8  10
DOCKED: ATOM     10  O   UNL d   1     -15.300   6.109  -4.122 -0.26 +0.02    -0.303 OA
DOCKED: ATOM     11  H   UNL d   1     -15.611   5.719  -4.961 -0.39 -0.05    +0.222 HD
DOCKED: ENDBRANCH   8  10
DOCKED: BRANCH   8  12
DOCKED: ATOM     12  O   UNL d   1     -16.563   7.705  -2.712 -0.21 +0.05    -0.303 OA
DOCKED: ATOM     13  H   UNL d   1     -16.004   7.853  -1.916 -0.40 -0.13    +0.222 HD
DOCKED: ENDBRANCH   8  12
DOCKED: ENDBRANCH   7   8
DOCKED: ENDBRANCH   1   7
DOCKED: BRANCH   2  14
DOCKED: ATOM     14  O   UNL d   1     -13.016   8.788  -6.071 -0.12 -0.00    -0.278 OA
DOCKED: BRANCH  14  15
DOCKED: ATOM     15  P   UNL d   1     -13.381   7.671  -7.158 -0.17 +0.03    +0.473 P 
DOCKED: ATOM     16  O   UNL d   1     -12.257   7.169  -8.009 -0.79 -0.04    -0.228 OA
DOCKED: BRANCH  15  17
DOCKED: ATOM     17  O   UNL d   1     -14.075   6.515  -6.309 -0.44 -0.05    -0.303 OA
DOCKED: ATOM     18  H   UNL d   1     -14.421   6.860  -5.463 +0.09 +0.02    +0.222 HD
DOCKED: ENDBRANCH  15  17
DOCKED: BRANCH  15  19
DOCKED: ATOM     19  O   UNL d   1     -14.622   8.276  -7.949 -0.04 -0.01    -0.303 OA
DOCKED: ATOM     20  H   UNL d   1     -14.598   9.250  -7.964 +0.04 +0.01    +0.222 HD
DOCKED: ENDBRANCH  15  19
DOCKED: ENDBRANCH  14  15
DOCKED: ENDBRANCH   2  14
DOCKED: BRANCH   6  21
DOCKED: ATOM     21  O   UNL d   1     -13.284  10.540  -2.157 -0.19 +0.02    -0.278 OA
DOCKED: BRANCH  21  22
DOCKED: ATOM     22  P   UNL d   1     -14.661  11.248  -1.773 -0.08 -0.02    +0.473 P 
DOCKED: ATOM     23  O   UNL d   1     -14.711  12.059  -0.522 -0.04 -0.00    -0.228 OA
DOCKED: BRANCH  22  24
DOCKED: ATOM     24  O   UNL d   1     -14.996  12.053  -3.104 -0.02 +0.00    -0.303 OA
DOCKED: ATOM     25  H   UNL d   1     -14.416  12.856  -3.133 +0.02 +0.00    +0.222 HD
DOCKED: ENDBRANCH  22  24
DOCKED: BRANCH  22  26
DOCKED: ATOM     26  O   UNL d   1     -15.691  10.023  -1.858 -0.12 +0.03    -0.303 OA
DOCKED: ATOM     27  H   UNL d   1     -15.191   9.181  -1.864 -0.49 -0.08    +0.222 HD
DOCKED: ENDBRANCH  22  26
DOCKED: ENDBRANCH  21  22
DOCKED: ENDBRANCH   6  21
DOCKED: BRANCH   3  28
DOCKED: ATOM     28  O   UNL d   1     -13.323  10.895  -7.655 -0.01 -0.00    -0.278 OA
DOCKED: BRANCH  28  29
DOCKED: ATOM     29  P   UNL d   1     -14.017  11.743  -8.811 +0.00 +0.01    +0.473 P 
DOCKED: ATOM     30  O   UNL d   1     -13.111  12.223  -9.886 -0.00 -0.01    -0.228 OA
DOCKED: BRANCH  29  31
DOCKED: ATOM     31  O   UNL d   1     -15.180  10.730  -9.240 +0.00 -0.01    -0.303 OA
DOCKED: ATOM     32  H   UNL d   1     -14.777   9.852  -9.430 +0.02 +0.01    +0.222 HD
DOCKED: ENDBRANCH  29  31
DOCKED: BRANCH  29  33
DOCKED: ATOM     33  O   UNL d   1     -14.805  12.853  -7.985 -0.00 -0.01    -0.303 OA
DOCKED: ATOM     34  H   UNL d   1     -14.167  13.332  -7.401 +0.00 +0.01    +0.222 HD
DOCKED: ENDBRANCH  29  33
DOCKED: ENDBRANCH  28  29
DOCKED: ENDBRANCH   3  28
DOCKED: BRANCH   5  35
DOCKED: ATOM     35  O   UNL d   1     -11.207  11.934  -3.665 -0.08 +0.03    -0.278 OA
DOCKED: BRANCH  35  36
DOCKED: ATOM     36  P   UNL d   1     -10.938  12.702  -2.293 -0.04 -0.02    +0.473 P 
DOCKED: ATOM     37  O   UNL d   1      -9.889  13.766  -2.344 -0.01 +0.01    -0.228 OA
DOCKED: BRANCH  36  38
DOCKED: ATOM     38  O   UNL d   1     -12.394  13.234  -1.927 -0.02 +0.00    -0.303 OA
DOCKED: ATOM     39  H   UNL d   1     -13.061  12.713  -2.424 +0.03 -0.00    +0.222 HD
DOCKED: ENDBRANCH  36  38
DOCKED: BRANCH  36  40
DOCKED: ATOM     40  O   UNL d   1     -10.702  11.504  -1.274 -0.10 +0.01    -0.303 OA
DOCKED: ATOM     41  H   UNL d   1     -11.549  11.101  -0.982 +0.05 -0.00    +0.222 HD
DOCKED: ENDBRANCH  36  40
DOCKED: ENDBRANCH  35  36
DOCKED: ENDBRANCH   5  35
DOCKED: BRANCH   4  42
DOCKED: ATOM     42  O   UNL d   1     -12.487  13.103  -6.008 -0.01 +0.00    -0.278 OA
DOCKED: BRANCH  42  43
DOCKED: ATOM     43  P   UNL d   1     -13.632  14.065  -5.454 +0.00 +0.01    +0.473 P 
DOCKED: ATOM     44  O   UNL d   1     -13.953  15.281  -6.253 -0.00 -0.00    -0.228 OA
DOCKED: BRANCH  43  45
DOCKED: ATOM     45  O   UNL d   1     -14.859  13.071  -5.259 -0.00 -0.00    -0.303 OA
DOCKED: ATOM     46  H   UNL d   1     -15.509  13.158  -5.986 +0.00 +0.00    +0.222 HD
DOCKED: ENDBRANCH  43  45
DOCKED: BRANCH  43  47
DOCKED: ATOM     47  O   UNL d   1     -13.185  14.332  -3.938 -0.00 -0.00    -0.303 OA
DOCKED: ATOM     48  H   UNL d   1     -12.361  13.836  -3.752 +0.01 -0.00    +0.222 HD
DOCKED: ENDBRANCH  43  47
DOCKED: ENDBRANCH  42  43
DOCKED: ENDBRANCH   4  42
DOCKED: TORSDOF 24
DOCKED: TER
DOCKED: ENDMDL
________________________________________________________________________________


	BEGINNING GENETIC ALGORITHM DOCKING 61 of 100
Run: 61 Seed: 89514889 231255746 [ Run 61 of 100 GA/GALS ]
Beginning LAMARCKIAN GENETIC ALGORITHM (LGA), with a maximum of 25000000 energy evaluations.

Final-Value: -18.205


	FINAL GENETIC ALGORITHM DOCKED STATE
	_______________________________________________


Detailed state:  trans -5.066 -14.829 11.228 quatxyzw -0.143918 0.141816 -0.934771 0.292198 center 0.035 0.082 -0.065 ntor 24 119.0109 53.5059 166.5411 -176.4492 15.7591 -127.0963 -71.1935 -34.4500 88.6918 34.1672 -152.4531 180.0000 176.6859 87.2383 -45.2625 -180.0000 107.7052 155.6946 21.2005 -30.7619 176.4117 -28.6849 -4.4786 176.4676
State:	 -5.066 -14.829  11.228  -0.150  0.148 -0.977 146.021    119.01   53.51  166.54 -176.45   15.76 -127.10  -71.19  -34.45   88.69   34.17 -152.45  180.00  176.69   87.24  -45.26 -180.00  107.71  155.69   21.20  -30.76  176.41  -28.68   -4.48  176.47

DOCKED: MODEL       61
DOCKED: USER    Run = 61
DOCKED: USER    DPF = D:/Protein_go_brrr/autodock/final/AncA/IHP/dock.dpf
DOCKED: USER  
DOCKED: USER    Estimated Free Energy of Binding    =   +3.68 kcal/mol  [=(1)+(2)+(3)-(4)]
DOCKED: USER    
DOCKED: USER    (1) Final Intermolecular Energy     =   -3.48 kcal/mol
DOCKED: USER        vdW + Hbond + desolv Energy     =   -2.95 kcal/mol
DOCKED: USER        Electrostatic Energy            =   -0.54 kcal/mol
DOCKED: USER    (2) Final Total Internal Energy     =  -14.72 kcal/mol
DOCKED: USER    (3) Torsional Free Energy           =   +7.16 kcal/mol
DOCKED: USER    (4) Unbound System's Energy  [=(2)] =  -14.72 kcal/mol
DOCKED: USER    
DOCKED: USER    
DOCKED: USER    NEWDPF move IHP_ideal_opt.pdbqt
DOCKED: USER    NEWDPF about 0.035000 0.082000 -0.065000
DOCKED: USER    NEWDPF tran0 -5.066490 -14.828543 11.228356
DOCKED: USER    NEWDPF quaternion0 -0.143918 0.141816 -0.934771 0.292198
DOCKED: USER    NEWDPF axisangle0 -0.150486 0.148288 -0.977428 146.020816
DOCKED: USER    NEWDPF quat0 -0.150486 0.148288 -0.977428 146.020816
DOCKED: USER    NEWDPF dihe0 119.01 53.51 166.54 -176.45 15.76 -127.10 -71.19 -34.45 88.69 34.17 -152.45 180.00 176.69 87.24 -45.26 -180.00 107.71 155.69 21.20 -30.76 176.41 -28.68 -4.48 176.47 
DOCKED: USER  keepresnum = 1 
DOCKED: USER  
DOCKED: REMARK  24 active torsions:
DOCKED: REMARK  status: ('A' for Active; 'I' for Inactive)
DOCKED: REMARK    1  A    between atoms: C_1  and  O_7 
DOCKED: REMARK    2  A    between atoms: C_2  and  O_12 
DOCKED: REMARK    3  A    between atoms: C_3  and  O_17 
DOCKED: REMARK    4  A    between atoms: C_4  and  O_22 
DOCKED: REMARK    5  A    between atoms: C_5  and  O_27 
DOCKED: REMARK    6  A    between atoms: C_6  and  O_32 
DOCKED: REMARK    7  A    between atoms: O_7  and  P_8 
DOCKED: REMARK    8  A    between atoms: P_8  and  O_10 
DOCKED: REMARK    9  A    between atoms: P_8  and  O_11 
DOCKED: REMARK   10  A    between atoms: O_12  and  P_13 
DOCKED: REMARK   11  A    between atoms: P_13  and  O_15 
DOCKED: REMARK   12  A    between atoms: P_13  and  O_16 
DOCKED: REMARK   13  A    between atoms: O_17  and  P_18 
DOCKED: REMARK   14  A    between atoms: P_18  and  O_20 
DOCKED: REMARK   15  A    between atoms: P_18  and  O_21 
DOCKED: REMARK   16  A    between atoms: O_22  and  P_23 
DOCKED: REMARK   17  A    between atoms: P_23  and  O_25 
DOCKED: REMARK   18  A    between atoms: P_23  and  O_26 
DOCKED: REMARK   19  A    between atoms: O_27  and  P_28 
DOCKED: REMARK   20  A    between atoms: P_28  and  O_30 
DOCKED: REMARK   21  A    between atoms: P_28  and  O_31 
DOCKED: REMARK   22  A    between atoms: O_32  and  P_33 
DOCKED: REMARK   23  A    between atoms: P_33  and  O_35 
DOCKED: REMARK   24  A    between atoms: P_33  and  O_36 
DOCKED: USER                              x       y       z     vdW  Elec       q    Type
DOCKED: USER                           _______ _______ _______ _____ _____    ______ ____
DOCKED: ROOT
DOCKED: ATOM      1  C   UNL d   1      -5.385 -13.771  12.557 -0.07 +0.01    +0.194 C 
DOCKED: ATOM      2  C   UNL d   1      -3.998 -13.638  11.924 -0.07 +0.01    +0.194 C 
DOCKED: ATOM      3  C   UNL d   1      -3.380 -15.005  11.623 -0.02 +0.04    +0.194 C 
DOCKED: ATOM      4  C   UNL d   1      -4.300 -15.916  10.813 -0.01 +0.04    +0.194 C 
DOCKED: ATOM      5  C   UNL d   1      -5.726 -15.988  11.343 -0.02 +0.03    +0.194 C 
DOCKED: ATOM      6  C   UNL d   1      -6.322 -14.625  11.702 -0.08 +0.03    +0.194 C 
DOCKED: ENDROOT
DOCKED: BRANCH   1   7
DOCKED: ATOM      7  O   UNL d   1      -5.961 -12.465  12.646 -0.14 -0.01    -0.278 OA
DOCKED: BRANCH   7   8
DOCKED: ATOM      8  P   UNL d   1      -5.938 -11.721  14.059 -0.10 +0.01    +0.473 P 
DOCKED: ATOM      9  O   UNL d   1      -7.238 -11.131  14.482 -0.19 -0.04    -0.228 OA
DOCKED: BRANCH   8  10
DOCKED: ATOM     10  O   UNL d   1      -5.392 -12.827  15.070 -0.02 -0.01    -0.303 OA
DOCKED: ATOM     11  H   UNL d   1      -5.769 -13.696  14.839 +0.03 +0.02    +0.222 HD
DOCKED: ENDBRANCH   8  10
DOCKED: BRANCH   8  12
DOCKED: ATOM     12  O   UNL d   1      -4.713 -10.713  13.975 -0.13 +0.09    -0.303 OA
DOCKED: ATOM     13  H   UNL d   1      -4.323 -10.655  13.074 +0.02 -0.15    +0.222 HD
DOCKED: ENDBRANCH   8  12
DOCKED: ENDBRANCH   7   8
DOCKED: ENDBRANCH   1   7
DOCKED: BRANCH   2  14
DOCKED: ATOM     14  O   UNL d   1      -4.113 -12.909  10.696 -0.14 -0.01    -0.278 OA
DOCKED: BRANCH  14  15
DOCKED: ATOM     15  P   UNL d   1      -3.703 -11.362  10.741 -0.13 -0.25    +0.473 P 
DOCKED: ATOM     16  O   UNL d   1      -2.999 -10.817   9.538 -0.30 +0.12    -0.228 OA
DOCKED: BRANCH  15  17
DOCKED: ATOM     17  O   UNL d   1      -5.071 -10.606  11.051 -0.37 +0.11    -0.303 OA
DOCKED: ATOM     18  H   UNL d   1      -5.362 -10.769  11.969 +0.10 -0.06    +0.222 HD
DOCKED: ENDBRANCH  15  17
DOCKED: BRANCH  15  19
DOCKED: ATOM     19  O   UNL d   1      -2.928 -11.197  12.121 -0.05 +0.35    -0.303 OA
DOCKED: ATOM     20  H   UNL d   1      -2.033 -10.833  11.991 -0.42 -0.55    +0.222 HD
DOCKED: ENDBRANCH  15  19
DOCKED: ENDBRANCH  14  15
DOCKED: ENDBRANCH   2  14
DOCKED: BRANCH   6  21
DOCKED: ATOM     21  O   UNL d   1      -7.487 -14.878  12.484 -0.06 -0.04    -0.278 OA
DOCKED: BRANCH  21  22
DOCKED: ATOM     22  P   UNL d   1      -7.335 -15.362  13.997 -0.02 +0.06    +0.473 P 
DOCKED: ATOM     23  O   UNL d   1      -6.004 -15.863  14.446 -0.01 -0.03    -0.228 OA
DOCKED: BRANCH  22  24
DOCKED: ATOM     24  O   UNL d   1      -7.879 -14.100  14.799 -0.06 -0.04    -0.303 OA
DOCKED: ATOM     25  H   UNL d   1      -7.415 -13.294  14.456 +0.04 +0.03    +0.222 HD
DOCKED: ENDBRANCH  22  24
DOCKED: BRANCH  22  26
DOCKED: ATOM     26  O   UNL d   1      -8.556 -16.392  14.133 -0.01 -0.04    -0.303 OA
DOCKED: ATOM     27  H   UNL d   1      -8.452 -17.104  13.469 +0.01 +0.03    +0.222 HD
DOCKED: ENDBRANCH  22  26
DOCKED: ENDBRANCH  21  22
DOCKED: ENDBRANCH   6  21
DOCKED: BRANCH   3  28
DOCKED: ATOM     28  O   UNL d   1      -2.242 -14.788  10.798 -0.03 -0.09    -0.278 OA
DOCKED: BRANCH  28  29
DOCKED: ATOM     29  P   UNL d   1      -0.849 -14.366  11.445 -0.05 +0.28    +0.473 P 
DOCKED: ATOM     30  O   UNL d   1       0.358 -14.736  10.663 -0.52 -0.25    -0.228 OA
DOCKED: BRANCH  29  31
DOCKED: ATOM     31  O   UNL d   1      -1.112 -12.805  11.680 -0.18 -0.11    -0.303 OA
DOCKED: ATOM     32  H   UNL d   1      -1.858 -12.522  11.102 +0.02 -0.00    +0.222 HD
DOCKED: ENDBRANCH  29  31
DOCKED: BRANCH  29  33
DOCKED: ATOM     33  O   UNL d   1      -0.967 -14.968  12.914 -0.00 -0.09    -0.303 OA
DOCKED: ATOM     34  H   UNL d   1      -1.606 -15.723  12.902 +0.01 +0.05    +0.222 HD
DOCKED: ENDBRANCH  29  33
DOCKED: ENDBRANCH  28  29
DOCKED: ENDBRANCH   3  28
DOCKED: BRANCH   5  35
DOCKED: ATOM     35  O   UNL d   1      -6.509 -16.520  10.276 -0.01 -0.06    -0.278 OA
DOCKED: BRANCH  35  36
DOCKED: ATOM     36  P   UNL d   1      -7.424 -17.805  10.514 +0.00 +0.09    +0.473 P 
DOCKED: ATOM     37  O   UNL d   1      -8.633 -17.906   9.640 -0.00 -0.05    -0.228 OA
DOCKED: BRANCH  36  38
DOCKED: ATOM     38  O   UNL d   1      -6.377 -18.990  10.322 -0.00 -0.06    -0.303 OA
DOCKED: ATOM     39  H   UNL d   1      -5.468 -18.634  10.417 +0.00 +0.04    +0.222 HD
DOCKED: ENDBRANCH  36  38
DOCKED: BRANCH  36  40
DOCKED: ATOM     40  O   UNL d   1      -7.669 -17.762  12.085 -0.00 -0.05    -0.303 OA
DOCKED: ATOM     41  H   UNL d   1      -7.127 -17.066  12.519 +0.01 +0.03    +0.222 HD
DOCKED: ENDBRANCH  36  40
DOCKED: ENDBRANCH  35  36
DOCKED: ENDBRANCH   5  35
DOCKED: BRANCH   4  42
DOCKED: ATOM     42  O   UNL d   1      -3.753 -17.237  10.896 -0.00 -0.06    -0.278 OA
DOCKED: BRANCH  42  43
DOCKED: ATOM     43  P   UNL d   1      -3.720 -17.970  12.312 +0.00 +0.08    +0.473 P 
DOCKED: ATOM     44  O   UNL d   1      -2.746 -19.084  12.486 +0.00 -0.04    -0.228 OA
DOCKED: BRANCH  43  45
DOCKED: ATOM     45  O   UNL d   1      -3.514 -16.761  13.326 +0.00 -0.05    -0.303 OA
DOCKED: ATOM     46  H   UNL d   1      -4.117 -16.832  14.093 +0.00 +0.03    +0.222 HD
DOCKED: ENDBRANCH  43  45
DOCKED: BRANCH  43  47
DOCKED: ATOM     47  O   UNL d   1      -5.256 -18.349  12.564 -0.00 -0.05    -0.303 OA
DOCKED: ATOM     48  H   UNL d   1      -5.796 -18.026  11.813 +0.00 +0.04    +0.222 HD
DOCKED: ENDBRANCH  43  47
DOCKED: ENDBRANCH  42  43
DOCKED: ENDBRANCH   4  42
DOCKED: TORSDOF 24
DOCKED: TER
DOCKED: ENDMDL
________________________________________________________________________________


	BEGINNING GENETIC ALGORITHM DOCKING 62 of 100
Run: 62 Seed: 570263912 1492781809 [ Run 62 of 100 GA/GALS ]
Beginning LAMARCKIAN GENETIC ALGORITHM (LGA), with a maximum of 25000000 energy evaluations.

Final-Value: -19.607


	FINAL GENETIC ALGORITHM DOCKED STATE
	_______________________________________________


Detailed state:  trans 12.114 -13.948 -7.373 quatxyzw -0.751960 0.558807 -0.242586 0.251878 center 0.035 0.082 -0.065 ntor 24 92.2478 103.0056 17.9787 61.2148 106.8111 86.1798 -106.0430 -96.4091 172.1914 -94.3039 94.1332 -127.4672 -69.6216 153.5890 -175.8330 -138.0244 54.6046 -14.5788 -147.9705 -25.8823 11.4401 -36.9122 -174.4618 130.4321
State:	 12.114 -13.948  -7.373  -0.777  0.577 -0.251 150.823     92.25  103.01   17.98   61.21  106.81   86.18 -106.04  -96.41  172.19  -94.30   94.13 -127.47  -69.62  153.59 -175.83 -138.02   54.60  -14.58 -147.97  -25.88   11.44  -36.91 -174.46  130.43

DOCKED: MODEL       62
DOCKED: USER    Run = 62
DOCKED: USER    DPF = D:/Protein_go_brrr/autodock/final/AncA/IHP/dock.dpf
DOCKED: USER  
DOCKED: USER    Estimated Free Energy of Binding    =   +2.44 kcal/mol  [=(1)+(2)+(3)-(4)]
DOCKED: USER    
DOCKED: USER    (1) Final Intermolecular Energy     =   -4.72 kcal/mol
DOCKED: USER        vdW + Hbond + desolv Energy     =   -4.29 kcal/mol
DOCKED: USER        Electrostatic Energy            =   -0.43 kcal/mol
DOCKED: USER    (2) Final Total Internal Energy     =  -14.89 kcal/mol
DOCKED: USER    (3) Torsional Free Energy           =   +7.16 kcal/mol
DOCKED: USER    (4) Unbound System's Energy  [=(2)] =  -14.89 kcal/mol
DOCKED: USER    
DOCKED: USER    
DOCKED: USER    NEWDPF move IHP_ideal_opt.pdbqt
DOCKED: USER    NEWDPF about 0.035000 0.082000 -0.065000
DOCKED: USER    NEWDPF tran0 12.114179 -13.947866 -7.373025
DOCKED: USER    NEWDPF quaternion0 -0.751960 0.558807 -0.242586 0.251878
DOCKED: USER    NEWDPF axisangle0 -0.777012 0.577424 -0.250668 150.822671
DOCKED: USER    NEWDPF quat0 -0.777012 0.577424 -0.250668 150.822671
DOCKED: USER    NEWDPF dihe0 92.25 103.01 17.98 61.21 106.81 86.18 -106.04 -96.41 172.19 -94.30 94.13 -127.47 -69.62 153.59 -175.83 -138.02 54.60 -14.58 -147.97 -25.88 11.44 -36.91 -174.46 130.43 
DOCKED: USER  keepresnum = 1 
DOCKED: USER  
DOCKED: REMARK  24 active torsions:
DOCKED: REMARK  status: ('A' for Active; 'I' for Inactive)
DOCKED: REMARK    1  A    between atoms: C_1  and  O_7 
DOCKED: REMARK    2  A    between atoms: C_2  and  O_12 
DOCKED: REMARK    3  A    between atoms: C_3  and  O_17 
DOCKED: REMARK    4  A    between atoms: C_4  and  O_22 
DOCKED: REMARK    5  A    between atoms: C_5  and  O_27 
DOCKED: REMARK    6  A    between atoms: C_6  and  O_32 
DOCKED: REMARK    7  A    between atoms: O_7  and  P_8 
DOCKED: REMARK    8  A    between atoms: P_8  and  O_10 
DOCKED: REMARK    9  A    between atoms: P_8  and  O_11 
DOCKED: REMARK   10  A    between atoms: O_12  and  P_13 
DOCKED: REMARK   11  A    between atoms: P_13  and  O_15 
DOCKED: REMARK   12  A    between atoms: P_13  and  O_16 
DOCKED: REMARK   13  A    between atoms: O_17  and  P_18 
DOCKED: REMARK   14  A    between atoms: P_18  and  O_20 
DOCKED: REMARK   15  A    between atoms: P_18  and  O_21 
DOCKED: REMARK   16  A    between atoms: O_22  and  P_23 
DOCKED: REMARK   17  A    between atoms: P_23  and  O_25 
DOCKED: REMARK   18  A    between atoms: P_23  and  O_26 
DOCKED: REMARK   19  A    between atoms: O_27  and  P_28 
DOCKED: REMARK   20  A    between atoms: P_28  and  O_30 
DOCKED: REMARK   21  A    between atoms: P_28  and  O_31 
DOCKED: REMARK   22  A    between atoms: O_32  and  P_33 
DOCKED: REMARK   23  A    between atoms: P_33  and  O_35 
DOCKED: REMARK   24  A    between atoms: P_33  and  O_36 
DOCKED: USER                              x       y       z     vdW  Elec       q    Type
DOCKED: USER                           _______ _______ _______ _____ _____    ______ ____
DOCKED: ROOT
DOCKED: ATOM      1  C   UNL d   1      13.358 -15.141  -7.256 -0.01 +0.02    +0.194 C 
DOCKED: ATOM      2  C   UNL d   1      13.779 -13.805  -7.871 -0.05 +0.02    +0.194 C 
DOCKED: ATOM      3  C   UNL d   1      12.734 -13.280  -8.856 -0.08 +0.02    +0.194 C 
DOCKED: ATOM      4  C   UNL d   1      11.326 -13.226  -8.268 -0.14 +0.01    +0.194 C 
DOCKED: ATOM      5  C   UNL d   1      10.907 -14.499  -7.544 -0.04 +0.02    +0.194 C 
DOCKED: ATOM      6  C   UNL d   1      11.977 -15.059  -6.605 -0.02 +0.01    +0.194 C 
DOCKED: ENDROOT
DOCKED: BRANCH   1   7
DOCKED: ATOM      7  O   UNL d   1      14.294 -15.475  -6.229 -0.00 -0.03    -0.278 OA
DOCKED: BRANCH   7   8
DOCKED: ATOM      8  P   UNL d   1      14.009 -14.959  -4.744 -0.00 +0.02    +0.473 P 
DOCKED: ATOM      9  O   UNL d   1      13.029 -13.843  -4.642 -0.10 +0.03    -0.228 OA
DOCKED: BRANCH   8  10
DOCKED: ATOM     10  O   UNL d   1      13.550 -16.271  -3.961 +0.00 -0.02    -0.303 OA
DOCKED: ATOM     11  H   UNL d   1      12.703 -16.589  -4.325 +0.01 +0.02    +0.222 HD
DOCKED: ENDBRANCH   8  10
DOCKED: BRANCH   8  12
DOCKED: ATOM     12  O   UNL d   1      15.443 -14.683  -4.120 -0.00 -0.02    -0.303 OA
DOCKED: ATOM     13  H   UNL d   1      15.971 -14.034  -4.637 +0.02 +0.02    +0.222 HD
DOCKED: ENDBRANCH   8  12
DOCKED: ENDBRANCH   7   8
DOCKED: ENDBRANCH   1   7
DOCKED: BRANCH   2  14
DOCKED: ATOM     14  O   UNL d   1      13.945 -12.841  -6.824 -0.38 -0.03    -0.278 OA
DOCKED: BRANCH  14  15
DOCKED: ATOM     15  P   UNL d   1      15.450 -12.453  -6.439 +0.17 +0.09    +0.473 P 
DOCKED: ATOM     16  O   UNL d   1      15.695 -12.031  -5.024 -0.49 -0.04    -0.228 OA
DOCKED: BRANCH  15  17
DOCKED: ATOM     17  O   UNL d   1      16.300 -13.733  -6.858 -0.02 -0.03    -0.303 OA
DOCKED: ATOM     18  H   UNL d   1      16.208 -14.447  -6.198 +0.01 +0.02    +0.222 HD
DOCKED: ENDBRANCH  15  17
DOCKED: BRANCH  15  19
DOCKED: ATOM     19  O   UNL d   1      15.885 -11.403  -7.552 -0.16 -0.04    -0.303 OA
DOCKED: ATOM     20  H   UNL d   1      15.160 -11.220  -8.179 +0.05 +0.03    +0.222 HD
DOCKED: ENDBRANCH  15  19
DOCKED: ENDBRANCH  14  15
DOCKED: ENDBRANCH   2  14
DOCKED: BRANCH   6  21
DOCKED: ATOM     21  O   UNL d   1      11.586 -16.391  -6.282 +0.00 -0.04    -0.278 OA
DOCKED: BRANCH  21  22
DOCKED: ATOM     22  P   UNL d   1      10.677 -16.662  -5.000 +0.02 +0.07    +0.473 P 
DOCKED: ATOM     23  O   UNL d   1      10.895 -17.923  -4.234 +0.00 -0.04    -0.228 OA
DOCKED: BRANCH  22  24
DOCKED: ATOM     24  O   UNL d   1      10.891 -15.326  -4.161 -0.02 +0.02    -0.303 OA
DOCKED: ATOM     25  H   UNL d   1      10.889 -14.562  -4.793 +0.04 -0.05    +0.222 HD
DOCKED: ENDBRANCH  22  24
DOCKED: BRANCH  22  26
DOCKED: ATOM     26  O   UNL d   1       9.204 -16.446  -5.594 -0.01 -0.09    -0.303 OA
DOCKED: ATOM     27  H   UNL d   1       8.964 -15.500  -5.525 +0.04 +0.04    +0.222 HD
DOCKED: ENDBRANCH  22  26
DOCKED: ENDBRANCH  21  22
DOCKED: ENDBRANCH   6  21
DOCKED: BRANCH   3  28
DOCKED: ATOM     28  O   UNL d   1      13.068 -11.931  -9.158 -0.14 -0.03    -0.278 OA
DOCKED: BRANCH  28  29
DOCKED: ATOM     29  P   UNL d   1      14.307 -11.602 -10.103 -0.06 +0.10    +0.473 P 
DOCKED: ATOM     30  O   UNL d   1      14.793 -10.199 -10.056 -0.72 -0.08    -0.228 OA
DOCKED: BRANCH  29  31
DOCKED: ATOM     31  O   UNL d   1      15.329 -12.740  -9.631 -0.02 -0.04    -0.303 OA
DOCKED: ATOM     32  H   UNL d   1      15.439 -12.677  -8.654 +0.03 +0.03    +0.222 HD
DOCKED: ENDBRANCH  29  31
DOCKED: BRANCH  29  33
DOCKED: ATOM     33  O   UNL d   1      13.805 -12.143 -11.513 -0.07 -0.07    -0.303 OA
DOCKED: ATOM     34  H   UNL d   1      13.285 -12.972 -11.372 +0.04 +0.04    +0.222 HD
DOCKED: ENDBRANCH  29  33
DOCKED: ENDBRANCH  28  29
DOCKED: ENDBRANCH   3  28
DOCKED: BRANCH   5  35
DOCKED: ATOM     35  O   UNL d   1       9.788 -14.135  -6.737 -0.06 -0.00    -0.278 OA
DOCKED: BRANCH  35  36
DOCKED: ATOM     36  P   UNL d   1       9.811 -12.782  -5.894 -0.15 -0.19    +0.473 P 
DOCKED: ATOM     37  O   UNL d   1       9.094 -11.624  -6.513 -0.27 +0.06    -0.228 OA
DOCKED: BRANCH  36  38
DOCKED: ATOM     38  O   UNL d   1       9.206 -13.256  -4.500 -0.10 +0.21    -0.303 OA
DOCKED: ATOM     39  H   UNL d   1       9.937 -13.368  -3.854 -0.23 -0.26    +0.222 HD
DOCKED: ENDBRANCH  36  38
DOCKED: BRANCH  36  40
DOCKED: ATOM     40  O   UNL d   1      11.362 -12.594  -5.595 -0.15 +0.17    -0.303 OA
DOCKED: ATOM     41  H   UNL d   1      11.523 -12.331  -4.661 -0.42 -0.28    +0.222 HD
DOCKED: ENDBRANCH  36  40
DOCKED: ENDBRANCH  35  36
DOCKED: ENDBRANCH   5  35
DOCKED: BRANCH   4  42
DOCKED: ATOM     42  O   UNL d   1      10.424 -13.049  -9.365 -0.17 -0.02    -0.278 OA
DOCKED: BRANCH  42  43
DOCKED: ATOM     43  P   UNL d   1      10.920 -13.411 -10.837 -0.08 +0.06    +0.473 P 
DOCKED: ATOM     44  O   UNL d   1      11.917 -14.510 -10.975 -0.03 -0.04    -0.228 OA
DOCKED: BRANCH  43  45
DOCKED: ATOM     45  O   UNL d   1       9.554 -13.671 -11.612 -0.11 -0.02    -0.303 OA
DOCKED: ATOM     46  H   UNL d   1       8.799 -13.246 -11.158 -0.28 -0.05    +0.222 HD
DOCKED: ENDBRANCH  43  45
DOCKED: BRANCH  43  47
DOCKED: ATOM     47  O   UNL d   1      11.368 -11.992 -11.433 -0.23 -0.06    -0.303 OA
DOCKED: ATOM     48  H   UNL d   1      11.982 -11.558 -10.805 +0.07 +0.04    +0.222 HD
DOCKED: ENDBRANCH  43  47
DOCKED: ENDBRANCH  42  43
DOCKED: ENDBRANCH   4  42
DOCKED: TORSDOF 24
DOCKED: TER
DOCKED: ENDMDL
________________________________________________________________________________


	BEGINNING GENETIC ALGORITHM DOCKING 63 of 100
Run: 63 Seed: 326415959 962430531 [ Run 63 of 100 GA/GALS ]
Beginning LAMARCKIAN GENETIC ALGORITHM (LGA), with a maximum of 25000000 energy evaluations.

Final-Value: -17.475


	FINAL GENETIC ALGORITHM DOCKED STATE
	_______________________________________________


Detailed state:  trans -16.268 8.871 3.216 quatxyzw -0.434682 -0.650636 -0.422795 -0.457131 center 0.035 0.082 -0.065 ntor 24 67.2392 136.2053 119.3354 118.1347 -9.9259 -179.9451 -124.9844 -71.6674 66.5317 96.5881 -121.7883 -161.6633 -12.7666 100.4840 -179.1446 -162.6036 43.6406 152.3513 45.3493 -4.2075 170.2513 7.0228 35.8903 -175.3291
State:	-16.268   8.871   3.216  -0.489 -0.732 -0.475 -125.596     67.24  136.21  119.34  118.13   -9.93 -179.95 -124.98  -71.67   66.53   96.59 -121.79 -161.66  -12.77  100.48 -179.14 -162.60   43.64  152.35   45.35   -4.21  170.25    7.02   35.89 -175.33

DOCKED: MODEL       63
DOCKED: USER    Run = 63
DOCKED: USER    DPF = D:/Protein_go_brrr/autodock/final/AncA/IHP/dock.dpf
DOCKED: USER  
DOCKED: USER    Estimated Free Energy of Binding    =   +3.56 kcal/mol  [=(1)+(2)+(3)-(4)]
DOCKED: USER    
DOCKED: USER    (1) Final Intermolecular Energy     =   -3.60 kcal/mol
DOCKED: USER        vdW + Hbond + desolv Energy     =   -3.44 kcal/mol
DOCKED: USER        Electrostatic Energy            =   -0.16 kcal/mol
DOCKED: USER    (2) Final Total Internal Energy     =  -13.88 kcal/mol
DOCKED: USER    (3) Torsional Free Energy           =   +7.16 kcal/mol
DOCKED: USER    (4) Unbound System's Energy  [=(2)] =  -13.88 kcal/mol
DOCKED: USER    
DOCKED: USER    
DOCKED: USER    NEWDPF move IHP_ideal_opt.pdbqt
DOCKED: USER    NEWDPF about 0.035000 0.082000 -0.065000
DOCKED: USER    NEWDPF tran0 -16.268107 8.871014 3.216436
DOCKED: USER    NEWDPF quaternion0 -0.434682 -0.650636 -0.422795 -0.457131
DOCKED: USER    NEWDPF axisangle0 -0.488736 -0.731546 -0.475371 -125.595740
DOCKED: USER    NEWDPF quat0 -0.488736 -0.731546 -0.475371 -125.595740
DOCKED: USER    NEWDPF dihe0 67.24 136.21 119.34 118.13 -9.93 -179.95 -124.98 -71.67 66.53 96.59 -121.79 -161.66 -12.77 100.48 -179.14 -162.60 43.64 152.35 45.35 -4.21 170.25 7.02 35.89 -175.33 
DOCKED: USER  keepresnum = 1 
DOCKED: USER  
DOCKED: REMARK  24 active torsions:
DOCKED: REMARK  status: ('A' for Active; 'I' for Inactive)
DOCKED: REMARK    1  A    between atoms: C_1  and  O_7 
DOCKED: REMARK    2  A    between atoms: C_2  and  O_12 
DOCKED: REMARK    3  A    between atoms: C_3  and  O_17 
DOCKED: REMARK    4  A    between atoms: C_4  and  O_22 
DOCKED: REMARK    5  A    between atoms: C_5  and  O_27 
DOCKED: REMARK    6  A    between atoms: C_6  and  O_32 
DOCKED: REMARK    7  A    between atoms: O_7  and  P_8 
DOCKED: REMARK    8  A    between atoms: P_8  and  O_10 
DOCKED: REMARK    9  A    between atoms: P_8  and  O_11 
DOCKED: REMARK   10  A    between atoms: O_12  and  P_13 
DOCKED: REMARK   11  A    between atoms: P_13  and  O_15 
DOCKED: REMARK   12  A    between atoms: P_13  and  O_16 
DOCKED: REMARK   13  A    between atoms: O_17  and  P_18 
DOCKED: REMARK   14  A    between atoms: P_18  and  O_20 
DOCKED: REMARK   15  A    between atoms: P_18  and  O_21 
DOCKED: REMARK   16  A    between atoms: O_22  and  P_23 
DOCKED: REMARK   17  A    between atoms: P_23  and  O_25 
DOCKED: REMARK   18  A    between atoms: P_23  and  O_26 
DOCKED: REMARK   19  A    between atoms: O_27  and  P_28 
DOCKED: REMARK   20  A    between atoms: P_28  and  O_30 
DOCKED: REMARK   21  A    between atoms: P_28  and  O_31 
DOCKED: REMARK   22  A    between atoms: O_32  and  P_33 
DOCKED: REMARK   23  A    between atoms: P_33  and  O_35 
DOCKED: REMARK   24  A    between atoms: P_33  and  O_36 
DOCKED: USER                              x       y       z     vdW  Elec       q    Type
DOCKED: USER                           _______ _______ _______ _____ _____    ______ ____
DOCKED: ROOT
DOCKED: ATOM      1  C   UNL d   1     -17.549   9.610   4.109 -0.08 +0.01    +0.194 C 
DOCKED: ATOM      2  C   UNL d   1     -17.976   8.824   2.868 -0.12 +0.00    +0.194 C 
DOCKED: ATOM      3  C   UNL d   1     -17.053   9.097   1.679 -0.19 -0.01    +0.194 C 
DOCKED: ATOM      4  C   UNL d   1     -15.575   8.900   2.007 -0.15 -0.02    +0.194 C 
DOCKED: ATOM      5  C   UNL d   1     -15.131   9.572   3.300 -0.21 +0.00    +0.194 C 
DOCKED: ATOM      6  C   UNL d   1     -16.087   9.350   4.474 -0.09 +0.01    +0.194 C 
DOCKED: ENDROOT
DOCKED: BRANCH   1   7
DOCKED: ATOM      7  O   UNL d   1     -18.348   9.172   5.211 -0.03 -0.02    -0.278 OA
DOCKED: BRANCH   7   8
DOCKED: ATOM      8  P   UNL d   1     -19.850   9.704   5.318 -0.00 +0.04    +0.473 P 
DOCKED: ATOM      9  O   UNL d   1     -20.577   9.807   4.023 -0.01 -0.02    -0.228 OA
DOCKED: BRANCH   8  10
DOCKED: ATOM     10  O   UNL d   1     -20.543   8.702   6.349 -0.00 -0.03    -0.303 OA
DOCKED: ATOM     11  H   UNL d   1     -20.936   7.953   5.863 +0.01 +0.03    +0.222 HD
DOCKED: ENDBRANCH   8  10
DOCKED: BRANCH   8  12
DOCKED: ATOM     12  O   UNL d   1     -19.755  11.042   6.169 -0.00 -0.02    -0.303 OA
DOCKED: ATOM     13  H   UNL d   1     -19.634  11.845   5.613 +0.00 +0.01    +0.222 HD
DOCKED: ENDBRANCH   8  12
DOCKED: ENDBRANCH   7   8
DOCKED: ENDBRANCH   1   7
DOCKED: BRANCH   2  14
DOCKED: ATOM     14  O   UNL d   1     -17.935   7.423   3.166 -0.16 +0.00    -0.278 OA
DOCKED: BRANCH  14  15
DOCKED: ATOM     15  P   UNL d   1     -19.263   6.585   2.852 -0.11 +0.08    +0.473 P 
DOCKED: ATOM     16  O   UNL d   1     -19.093   5.116   2.621 -0.22 -0.10    -0.228 OA
DOCKED: BRANCH  15  17
DOCKED: ATOM     17  O   UNL d   1     -20.224   6.909   4.081 -0.03 -0.06    -0.303 OA
DOCKED: ATOM     18  H   UNL d   1     -19.985   7.758   4.500 +0.03 +0.03    +0.222 HD
DOCKED: ENDBRANCH  15  17
DOCKED: BRANCH  15  19
DOCKED: ATOM     19  O   UNL d   1     -19.969   7.387   1.674 -0.07 -0.04    -0.303 OA
DOCKED: ATOM     20  H   UNL d   1     -19.390   7.467   0.894 +0.06 +0.02    +0.222 HD
DOCKED: ENDBRANCH  15  19
DOCKED: ENDBRANCH  14  15
DOCKED: ENDBRANCH   2  14
DOCKED: BRANCH   6  21
DOCKED: ATOM     21  O   UNL d   1     -15.732  10.296   5.480 -0.05 -0.02    -0.278 OA
DOCKED: BRANCH  21  22
DOCKED: ATOM     22  P   UNL d   1     -15.975  11.852   5.224 -0.00 +0.03    +0.473 P 
DOCKED: ATOM     23  O   UNL d   1     -15.042  12.825   5.862 -0.00 -0.01    -0.228 OA
DOCKED: BRANCH  22  24
DOCKED: ATOM     24  O   UNL d   1     -16.025  11.917   3.635 -0.01 -0.01    -0.303 OA
DOCKED: ATOM     25  H   UNL d   1     -15.097  11.842   3.295 +0.03 +0.01    +0.222 HD
DOCKED: ENDBRANCH  22  24
DOCKED: BRANCH  22  26
DOCKED: ATOM     26  O   UNL d   1     -17.524  12.007   5.610 -0.00 -0.02    -0.303 OA
DOCKED: ATOM     27  H   UNL d   1     -17.851  11.159   5.975 +0.01 +0.01    +0.222 HD
DOCKED: ENDBRANCH  22  26
DOCKED: ENDBRANCH  21  22
DOCKED: ENDBRANCH   6  21
DOCKED: BRANCH   3  28
DOCKED: ATOM     28  O   UNL d   1     -17.349   8.133   0.676 -0.24 +0.03    -0.278 OA
DOCKED: BRANCH  28  29
DOCKED: ATOM     29  P   UNL d   1     -17.904   8.594  -0.744 -0.13 -0.01    +0.473 P 
DOCKED: ATOM     30  O   UNL d   1     -17.989   7.528  -1.774 -0.17 -0.01    -0.228 OA
DOCKED: BRANCH  29  31
DOCKED: ATOM     31  O   UNL d   1     -19.277   9.284  -0.296 -0.03 -0.01    -0.303 OA
DOCKED: ATOM     32  H   UNL d   1     -19.915   8.578  -0.042 +0.04 +0.02    +0.222 HD
DOCKED: ENDBRANCH  29  31
DOCKED: BRANCH  29  33
DOCKED: ATOM     33  O   UNL d   1     -16.975   9.844  -1.076 -0.09 +0.02    -0.303 OA
DOCKED: ATOM     34  H   UNL d   1     -16.481  10.103  -0.260 +0.05 -0.01    +0.222 HD
DOCKED: ENDBRANCH  29  33
DOCKED: ENDBRANCH  28  29
DOCKED: ENDBRANCH   3  28
DOCKED: BRANCH   5  35
DOCKED: ATOM     35  O   UNL d   1     -13.890   8.961   3.648 -0.26 +0.01    -0.278 OA
DOCKED: BRANCH  35  36
DOCKED: ATOM     36  P   UNL d   1     -12.956   9.616   4.763 -0.12 +0.02    +0.473 P 
DOCKED: ATOM     37  O   UNL d   1     -13.233   9.188   6.169 -0.10 -0.02    -0.228 OA
DOCKED: BRANCH  36  38
DOCKED: ATOM     38  O   UNL d   1     -11.502   9.232   4.236 -0.15 +0.01    -0.303 OA
DOCKED: ATOM     39  H   UNL d   1     -11.589   8.671   3.436 -0.43 -0.10    +0.222 HD
DOCKED: ENDBRANCH  36  38
DOCKED: BRANCH  36  40
DOCKED: ATOM     40  O   UNL d   1     -13.081  11.169   4.442 -0.03 -0.02    -0.303 OA
DOCKED: ATOM     41  H   UNL d   1     -14.019  11.464   4.433 +0.03 +0.01    +0.222 HD
DOCKED: ENDBRANCH  36  40
DOCKED: ENDBRANCH  35  36
DOCKED: ENDBRANCH   5  35
DOCKED: BRANCH   4  42
DOCKED: ATOM     42  O   UNL d   1     -14.830   9.500   0.943 -0.21 +0.01    -0.278 OA
DOCKED: BRANCH  42  43
DOCKED: ATOM     43  P   UNL d   1     -14.757  11.091   0.855 -0.10 +0.00    +0.473 P 
DOCKED: ATOM     44  O   UNL d   1     -14.347  11.689  -0.447 -0.07 +0.00    -0.228 OA
DOCKED: BRANCH  43  45
DOCKED: ATOM     45  O   UNL d   1     -16.204  11.535   1.347 -0.02 -0.00    -0.303 OA
DOCKED: ATOM     46  H   UNL d   1     -16.231  12.488   1.567 +0.02 +0.01    +0.222 HD
DOCKED: ENDBRANCH  43  45
DOCKED: BRANCH  43  47
DOCKED: ATOM     47  O   UNL d   1     -13.849  11.487   2.115 -0.06 -0.01    -0.303 OA
DOCKED: ATOM     48  H   UNL d   1     -13.364  10.694   2.425 +0.05 +0.00    +0.222 HD
DOCKED: ENDBRANCH  43  47
DOCKED: ENDBRANCH  42  43
DOCKED: ENDBRANCH   4  42
DOCKED: TORSDOF 24
DOCKED: TER
DOCKED: ENDMDL
________________________________________________________________________________


	BEGINNING GENETIC ALGORITHM DOCKING 64 of 100
Run: 64 Seed: 2110442337 1225338526 [ Run 64 of 100 GA/GALS ]
Beginning LAMARCKIAN GENETIC ALGORITHM (LGA), with a maximum of 25000000 energy evaluations.

Final-Value: -17.502


	FINAL GENETIC ALGORITHM DOCKED STATE
	_______________________________________________


Detailed state:  trans -9.866 -14.882 -2.465 quatxyzw 0.269627 0.925710 0.105306 -0.243461 center 0.035 0.082 -0.065 ntor 24 66.2992 61.2270 82.1202 108.0305 -87.8214 -87.7923 -123.8663 -20.2901 147.4944 41.5752 -17.3854 -113.2705 139.5545 107.8206 -1.7578 173.2105 164.4992 -41.8085 38.4600 -7.6237 -62.7492 11.1285 -177.7576 15.1409
State:	 -9.866 -14.882  -2.465   0.278  0.954  0.109 -151.818     66.30   61.23   82.12  108.03  -87.82  -87.79 -123.87  -20.29  147.49   41.58  -17.39 -113.27  139.55  107.82   -1.76  173.21  164.50  -41.81   38.46   -7.62  -62.75   11.13 -177.76   15.14

DOCKED: MODEL       64
DOCKED: USER    Run = 64
DOCKED: USER    DPF = D:/Protein_go_brrr/autodock/final/AncA/IHP/dock.dpf
DOCKED: USER  
DOCKED: USER    Estimated Free Energy of Binding    =   +2.62 kcal/mol  [=(1)+(2)+(3)-(4)]
DOCKED: USER    
DOCKED: USER    (1) Final Intermolecular Energy     =   -4.54 kcal/mol
DOCKED: USER        vdW + Hbond + desolv Energy     =   -4.43 kcal/mol
DOCKED: USER        Electrostatic Energy            =   -0.11 kcal/mol
DOCKED: USER    (2) Final Total Internal Energy     =  -12.96 kcal/mol
DOCKED: USER    (3) Torsional Free Energy           =   +7.16 kcal/mol
DOCKED: USER    (4) Unbound System's Energy  [=(2)] =  -12.96 kcal/mol
DOCKED: USER    
DOCKED: USER    
DOCKED: USER    NEWDPF move IHP_ideal_opt.pdbqt
DOCKED: USER    NEWDPF about 0.035000 0.082000 -0.065000
DOCKED: USER    NEWDPF tran0 -9.865605 -14.882448 -2.465130
DOCKED: USER    NEWDPF quaternion0 0.269627 0.925710 0.105306 -0.243461
DOCKED: USER    NEWDPF axisangle0 0.277992 0.954428 0.108573 -151.818145
DOCKED: USER    NEWDPF quat0 0.277992 0.954428 0.108573 -151.818145
DOCKED: USER    NEWDPF dihe0 66.30 61.23 82.12 108.03 -87.82 -87.79 -123.87 -20.29 147.49 41.58 -17.39 -113.27 139.55 107.82 -1.76 173.21 164.50 -41.81 38.46 -7.62 -62.75 11.13 -177.76 15.14 
DOCKED: USER  keepresnum = 1 
DOCKED: USER  
DOCKED: REMARK  24 active torsions:
DOCKED: REMARK  status: ('A' for Active; 'I' for Inactive)
DOCKED: REMARK    1  A    between atoms: C_1  and  O_7 
DOCKED: REMARK    2  A    between atoms: C_2  and  O_12 
DOCKED: REMARK    3  A    between atoms: C_3  and  O_17 
DOCKED: REMARK    4  A    between atoms: C_4  and  O_22 
DOCKED: REMARK    5  A    between atoms: C_5  and  O_27 
DOCKED: REMARK    6  A    between atoms: C_6  and  O_32 
DOCKED: REMARK    7  A    between atoms: O_7  and  P_8 
DOCKED: REMARK    8  A    between atoms: P_8  and  O_10 
DOCKED: REMARK    9  A    between atoms: P_8  and  O_11 
DOCKED: REMARK   10  A    between atoms: O_12  and  P_13 
DOCKED: REMARK   11  A    between atoms: P_13  and  O_15 
DOCKED: REMARK   12  A    between atoms: P_13  and  O_16 
DOCKED: REMARK   13  A    between atoms: O_17  and  P_18 
DOCKED: REMARK   14  A    between atoms: P_18  and  O_20 
DOCKED: REMARK   15  A    between atoms: P_18  and  O_21 
DOCKED: REMARK   16  A    between atoms: O_22  and  P_23 
DOCKED: REMARK   17  A    between atoms: P_23  and  O_25 
DOCKED: REMARK   18  A    between atoms: P_23  and  O_26 
DOCKED: REMARK   19  A    between atoms: O_27  and  P_28 
DOCKED: REMARK   20  A    between atoms: P_28  and  O_30 
DOCKED: REMARK   21  A    between atoms: P_28  and  O_31 
DOCKED: REMARK   22  A    between atoms: O_32  and  P_33 
DOCKED: REMARK   23  A    between atoms: P_33  and  O_35 
DOCKED: REMARK   24  A    between atoms: P_33  and  O_36 
DOCKED: USER                              x       y       z     vdW  Elec       q    Type
DOCKED: USER                           _______ _______ _______ _____ _____    ______ ____
DOCKED: ROOT
DOCKED: ATOM      1  C   UNL d   1     -10.784 -14.882  -3.928 +0.00 +0.08    +0.194 C 
DOCKED: ATOM      2  C   UNL d   1     -10.413 -16.261  -3.382 -0.06 +0.09    +0.194 C 
DOCKED: ATOM      3  C   UNL d   1      -8.963 -16.307  -2.896 -0.07 +0.14    +0.194 C 
DOCKED: ATOM      4  C   UNL d   1      -8.621 -15.187  -1.917 -0.09 +0.17    +0.194 C 
DOCKED: ATOM      5  C   UNL d   1      -9.076 -13.806  -2.369 -0.11 +0.13    +0.194 C 
DOCKED: ATOM      6  C   UNL d   1     -10.506 -13.772  -2.913 -0.08 +0.08    +0.194 C 
DOCKED: ENDROOT
DOCKED: BRANCH   1   7
DOCKED: ATOM      7  O   UNL d   1     -12.188 -14.871  -4.197 -0.07 -0.07    -0.278 OA
DOCKED: BRANCH   7   8
DOCKED: ATOM      8  P   UNL d   1     -12.698 -15.452  -5.595 -0.06 +0.11    +0.473 P 
DOCKED: ATOM      9  O   UNL d   1     -14.125 -15.173  -5.912 -0.04 -0.04    -0.228 OA
DOCKED: BRANCH   8  10
DOCKED: ATOM     10  O   UNL d   1     -11.685 -14.835  -6.662 -0.21 -0.06    -0.303 OA
DOCKED: ATOM     11  H   UNL d   1     -12.041 -13.992  -7.001 -0.01 +0.02    +0.222 HD
DOCKED: ENDBRANCH   8  10
DOCKED: BRANCH   8  12
DOCKED: ATOM     12  O   UNL d   1     -12.276 -16.984  -5.584 -0.03 -0.08    -0.303 OA
DOCKED: ATOM     13  H   UNL d   1     -12.043 -17.313  -4.687 +0.03 +0.07    +0.222 HD
DOCKED: ENDBRANCH   8  12
DOCKED: ENDBRANCH   7   8
DOCKED: ENDBRANCH   1   7
DOCKED: BRANCH   2  14
DOCKED: ATOM     14  O   UNL d   1     -11.274 -16.574  -2.279 -0.02 -0.10    -0.278 OA
DOCKED: BRANCH  14  15
DOCKED: ATOM     15  P   UNL d   1     -12.107 -17.937  -2.386 +0.01 +0.14    +0.473 P 
DOCKED: ATOM     16  O   UNL d   1     -12.696 -18.466  -1.115 -0.01 -0.06    -0.228 OA
DOCKED: BRANCH  15  17
DOCKED: ATOM     17  O   UNL d   1     -13.207 -17.634  -3.497 -0.00 -0.07    -0.303 OA
DOCKED: ATOM     18  H   UNL d   1     -13.263 -16.677  -3.684 +0.03 +0.05    +0.222 HD
DOCKED: ENDBRANCH  15  17
DOCKED: BRANCH  15  19
DOCKED: ATOM     19  O   UNL d   1     -11.138 -18.934  -3.159 -0.00 -0.10    -0.303 OA
DOCKED: ATOM     20  H   UNL d   1     -10.240 -18.933  -2.779 +0.01 +0.09    +0.222 HD
DOCKED: ENDBRANCH  15  19
DOCKED: ENDBRANCH  14  15
DOCKED: ENDBRANCH   2  14
DOCKED: BRANCH   6  21
DOCKED: ATOM     21  O   UNL d   1     -10.658 -12.531  -3.597 +0.03 -0.09    -0.278 OA
DOCKED: BRANCH  21  22
DOCKED: ATOM     22  P   UNL d   1     -12.118 -12.010  -3.978 -0.16 +0.07    +0.473 P 
DOCKED: ATOM     23  O   UNL d   1     -13.262 -12.426  -3.116 -0.13 -0.01    -0.228 OA
DOCKED: BRANCH  22  24
DOCKED: ATOM     24  O   UNL d   1     -11.888 -10.438  -4.070 -0.27 -0.00    -0.303 OA
DOCKED: ATOM     25  H   UNL d   1     -12.752  -9.989  -3.882 -0.44 -0.07    +0.222 HD
DOCKED: ENDBRANCH  22  24
DOCKED: BRANCH  22  26
DOCKED: ATOM     26  O   UNL d   1     -12.217 -12.421  -5.524 -0.20 -0.05    -0.303 OA
DOCKED: ATOM     27  H   UNL d   1     -12.709 -13.264  -5.602 +0.08 +0.04    +0.222 HD
DOCKED: ENDBRANCH  22  26
DOCKED: ENDBRANCH  21  22
DOCKED: ENDBRANCH   6  21
DOCKED: BRANCH   3  28
DOCKED: ATOM     28  O   UNL d   1      -8.794 -17.514  -2.163 -0.01 -0.18    -0.278 OA
DOCKED: BRANCH  28  29
DOCKED: ATOM     29  P   UNL d   1      -7.695 -18.578  -2.608 -0.00 +0.33    +0.473 P 
DOCKED: ATOM     30  O   UNL d   1      -7.066 -19.347  -1.504 +0.00 -0.14    -0.228 OA
DOCKED: BRANCH  29  31
DOCKED: ATOM     31  O   UNL d   1      -8.534 -19.410  -3.687 -0.00 -0.17    -0.303 OA
DOCKED: ATOM     32  H   UNL d   1      -9.200 -19.959  -3.212 +0.01 +0.10    +0.222 HD
DOCKED: ENDBRANCH  29  31
DOCKED: BRANCH  29  33
DOCKED: ATOM     33  O   UNL d   1      -6.727 -17.699  -3.516 -0.07 -0.35    -0.303 OA
DOCKED: ATOM     34  H   UNL d   1      -6.630 -16.803  -3.109 +0.03 +0.37    +0.222 HD
DOCKED: ENDBRANCH  29  33
DOCKED: ENDBRANCH  28  29
DOCKED: ENDBRANCH   3  28
DOCKED: BRANCH   5  35
DOCKED: ATOM     35  O   UNL d   1      -9.052 -12.988  -1.202 -0.13 -0.18    -0.278 OA
DOCKED: BRANCH  35  36
DOCKED: ATOM     36  P   UNL d   1      -9.701 -13.509   0.159 -0.04 +0.30    +0.473 P 
DOCKED: ATOM     37  O   UNL d   1     -10.230 -12.446   1.070 -0.78 -0.17    -0.228 OA
DOCKED: BRANCH  36  38
DOCKED: ATOM     38  O   UNL d   1     -10.806 -14.523  -0.374 -0.14 -0.13    -0.303 OA
DOCKED: ATOM     39  H   UNL d   1     -10.370 -15.361  -0.642 +0.04 +0.10    +0.222 HD
DOCKED: ENDBRANCH  36  38
DOCKED: BRANCH  36  40
DOCKED: ATOM     40  O   UNL d   1      -8.561 -14.454   0.739 -0.05 -0.28    -0.303 OA
DOCKED: ATOM     41  H   UNL d   1      -7.777 -14.485   0.147 +0.06 +0.26    +0.222 HD
DOCKED: ENDBRANCH  36  40
DOCKED: ENDBRANCH  35  36
DOCKED: ENDBRANCH   5  35
DOCKED: BRANCH   4  42
DOCKED: ATOM     42  O   UNL d   1      -7.193 -15.147  -1.814 -0.54 -0.45    -0.278 OA
DOCKED: BRANCH  42  43
DOCKED: ATOM     43  P   UNL d   1      -6.484 -15.921  -0.613 -0.06 +0.73    +0.473 P 
DOCKED: ATOM     44  O   UNL d   1      -7.352 -16.723   0.294 -0.03 -0.24    -0.228 OA
DOCKED: BRANCH  43  45
DOCKED: ATOM     45  O   UNL d   1      -5.361 -16.767  -1.357 -0.22 -0.54    -0.303 OA
DOCKED: ATOM     46  H   UNL d   1      -5.692 -17.650  -1.617 +0.02 +0.28    +0.222 HD
DOCKED: ENDBRANCH  43  45
DOCKED: BRANCH  43  47
DOCKED: ATOM     47  O   UNL d   1      -5.614 -14.777   0.096 -0.68 -0.69    -0.303 OA
DOCKED: ATOM     48  H   UNL d   1      -6.215 -14.109   0.487 +0.05 +0.47    +0.222 HD
DOCKED: ENDBRANCH  43  47
DOCKED: ENDBRANCH  42  43
DOCKED: ENDBRANCH   4  42
DOCKED: TORSDOF 24
DOCKED: TER
DOCKED: ENDMDL
________________________________________________________________________________


	BEGINNING GENETIC ALGORITHM DOCKING 65 of 100
Run: 65 Seed: 760429168 1859290369 [ Run 65 of 100 GA/GALS ]
Beginning LAMARCKIAN GENETIC ALGORITHM (LGA), with a maximum of 25000000 energy evaluations.

Final-Value: -16.486


	FINAL GENETIC ALGORITHM DOCKED STATE
	_______________________________________________


Detailed state:  trans -7.387 -2.715 -20.134 quatxyzw 0.044972 -0.610697 0.784990 -0.093901 center 0.035 0.082 -0.065 ntor 24 30.3535 108.4425 143.5910 161.4840 30.4175 -97.0330 -140.2535 -32.9247 175.7751 121.2423 3.3379 -137.1803 9.9185 -134.5381 13.3339 -166.6923 88.4919 -67.5903 -4.4066 -9.8711 155.8445 -1.8484 -48.6427 8.9175
State:	 -7.387  -2.715 -20.134   0.045 -0.613  0.788 -169.224     30.35  108.44  143.59  161.48   30.42  -97.03 -140.25  -32.92  175.78  121.24    3.34 -137.18    9.92 -134.54   13.33 -166.69   88.49  -67.59   -4.41   -9.87  155.84   -1.85  -48.64    8.92

DOCKED: MODEL       65
DOCKED: USER    Run = 65
DOCKED: USER    DPF = D:/Protein_go_brrr/autodock/final/AncA/IHP/dock.dpf
DOCKED: USER  
DOCKED: USER    Estimated Free Energy of Binding    =   +2.76 kcal/mol  [=(1)+(2)+(3)-(4)]
DOCKED: USER    
DOCKED: USER    (1) Final Intermolecular Energy     =   -4.40 kcal/mol
DOCKED: USER        vdW + Hbond + desolv Energy     =   -3.83 kcal/mol
DOCKED: USER        Electrostatic Energy            =   -0.58 kcal/mol
DOCKED: USER    (2) Final Total Internal Energy     =  -12.08 kcal/mol
DOCKED: USER    (3) Torsional Free Energy           =   +7.16 kcal/mol
DOCKED: USER    (4) Unbound System's Energy  [=(2)] =  -12.08 kcal/mol
DOCKED: USER    
DOCKED: USER    
DOCKED: USER    NEWDPF move IHP_ideal_opt.pdbqt
DOCKED: USER    NEWDPF about 0.035000 0.082000 -0.065000
DOCKED: USER    NEWDPF tran0 -7.387178 -2.715165 -20.134063
DOCKED: USER    NEWDPF quaternion0 0.044972 -0.610697 0.784990 -0.093901
DOCKED: USER    NEWDPF axisangle0 0.045171 -0.613408 0.788474 -169.223917
DOCKED: USER    NEWDPF quat0 0.045171 -0.613408 0.788474 -169.223917
DOCKED: USER    NEWDPF dihe0 30.35 108.44 143.59 161.48 30.42 -97.03 -140.25 -32.92 175.78 121.24 3.34 -137.18 9.92 -134.54 13.33 -166.69 88.49 -67.59 -4.41 -9.87 155.84 -1.85 -48.64 8.92 
DOCKED: USER  keepresnum = 1 
DOCKED: USER  
DOCKED: REMARK  24 active torsions:
DOCKED: REMARK  status: ('A' for Active; 'I' for Inactive)
DOCKED: REMARK    1  A    between atoms: C_1  and  O_7 
DOCKED: REMARK    2  A    between atoms: C_2  and  O_12 
DOCKED: REMARK    3  A    between atoms: C_3  and  O_17 
DOCKED: REMARK    4  A    between atoms: C_4  and  O_22 
DOCKED: REMARK    5  A    between atoms: C_5  and  O_27 
DOCKED: REMARK    6  A    between atoms: C_6  and  O_32 
DOCKED: REMARK    7  A    between atoms: O_7  and  P_8 
DOCKED: REMARK    8  A    between atoms: P_8  and  O_10 
DOCKED: REMARK    9  A    between atoms: P_8  and  O_11 
DOCKED: REMARK   10  A    between atoms: O_12  and  P_13 
DOCKED: REMARK   11  A    between atoms: P_13  and  O_15 
DOCKED: REMARK   12  A    between atoms: P_13  and  O_16 
DOCKED: REMARK   13  A    between atoms: O_17  and  P_18 
DOCKED: REMARK   14  A    between atoms: P_18  and  O_20 
DOCKED: REMARK   15  A    between atoms: P_18  and  O_21 
DOCKED: REMARK   16  A    between atoms: O_22  and  P_23 
DOCKED: REMARK   17  A    between atoms: P_23  and  O_25 
DOCKED: REMARK   18  A    between atoms: P_23  and  O_26 
DOCKED: REMARK   19  A    between atoms: O_27  and  P_28 
DOCKED: REMARK   20  A    between atoms: P_28  and  O_30 
DOCKED: REMARK   21  A    between atoms: P_28  and  O_31 
DOCKED: REMARK   22  A    between atoms: O_32  and  P_33 
DOCKED: REMARK   23  A    between atoms: P_33  and  O_35 
DOCKED: REMARK   24  A    between atoms: P_33  and  O_36 
DOCKED: USER                              x       y       z     vdW  Elec       q    Type
DOCKED: USER                           _______ _______ _______ _____ _____    ______ ____
DOCKED: ROOT
DOCKED: ATOM      1  C   UNL d   1      -8.468  -3.154 -18.860 -0.11 -0.05    +0.194 C 
DOCKED: ATOM      2  C   UNL d   1      -7.068  -2.723 -18.420 -0.16 -0.03    +0.194 C 
DOCKED: ATOM      3  C   UNL d   1      -5.982  -3.329 -19.310 -0.18 -0.04    +0.194 C 
DOCKED: ATOM      4  C   UNL d   1      -6.219  -3.086 -20.799 -0.09 -0.06    +0.194 C 
DOCKED: ATOM      5  C   UNL d   1      -7.638  -3.395 -21.259 -0.09 -0.09    +0.194 C 
DOCKED: ATOM      6  C   UNL d   1      -8.724  -2.841 -20.335 -0.04 -0.06    +0.194 C 
DOCKED: ENDROOT
DOCKED: BRANCH   1   7
DOCKED: ATOM      7  O   UNL d   1      -9.424  -2.416 -18.095 -0.07 +0.08    -0.278 OA
DOCKED: BRANCH   7   8
DOCKED: ATOM      8  P   UNL d   1     -10.557  -3.224 -17.312 -0.09 -0.20    +0.473 P 
DOCKED: ATOM      9  O   UNL d   1     -10.057  -4.166 -16.273 -0.25 +0.08    -0.228 OA
DOCKED: BRANCH   8  10
DOCKED: ATOM     10  O   UNL d   1     -11.507  -2.086 -16.723 -0.09 +0.28    -0.303 OA
DOCKED: ATOM     11  H   UNL d   1     -11.624  -2.222 -15.764 -0.29 -0.45    +0.222 HD
DOCKED: ENDBRANCH   8  10
DOCKED: BRANCH   8  12
DOCKED: ATOM     12  O   UNL d   1     -11.468  -3.863 -18.446 -0.02 +0.09    -0.303 OA
DOCKED: ATOM     13  H   UNL d   1     -10.985  -4.508 -19.011 +0.05 -0.07    +0.222 HD
DOCKED: ENDBRANCH   8  12
DOCKED: ENDBRANCH   7   8
DOCKED: ENDBRANCH   1   7
DOCKED: BRANCH   2  14
DOCKED: ATOM     14  O   UNL d   1      -6.975  -1.295 -18.494 -0.05 +0.04    -0.278 OA
DOCKED: BRANCH  14  15
DOCKED: ATOM     15  P   UNL d   1      -6.605  -0.530 -17.136 -0.07 -0.05    +0.473 P 
DOCKED: ATOM     16  O   UNL d   1      -7.715  -0.333 -16.152 -0.21 +0.05    -0.228 OA
DOCKED: BRANCH  15  17
DOCKED: ATOM     17  O   UNL d   1      -5.391  -1.369 -16.537 -0.16 +0.02    -0.303 OA
DOCKED: ATOM     18  H   UNL d   1      -4.716  -1.547 -17.220 +0.09 -0.01    +0.222 HD
DOCKED: ENDBRANCH  15  17
DOCKED: BRANCH  15  19
DOCKED: ATOM     19  O   UNL d   1      -5.871   0.797 -17.616 -0.03 +0.02    -0.303 OA
DOCKED: ATOM     20  H   UNL d   1      -6.461   1.571 -17.574 +0.03 -0.01    +0.222 HD
DOCKED: ENDBRANCH  15  19
DOCKED: ENDBRANCH  14  15
DOCKED: ENDBRANCH   2  14
DOCKED: BRANCH   6  21
DOCKED: ATOM     21  O   UNL d   1      -9.942  -3.488 -20.695 -0.02 +0.10    -0.278 OA
DOCKED: BRANCH  21  22
DOCKED: ATOM     22  P   UNL d   1     -10.007  -5.081 -20.744 -0.06 -0.36    +0.473 P 
DOCKED: ATOM     23  O   UNL d   1      -9.369  -5.847 -19.634 -0.14 +0.23    -0.228 OA
DOCKED: BRANCH  22  24
DOCKED: ATOM     24  O   UNL d   1     -11.568  -5.338 -20.920 -0.03 +0.13    -0.303 OA
DOCKED: ATOM     25  H   UNL d   1     -12.055  -4.647 -20.402 +0.02 -0.06    +0.222 HD
DOCKED: ENDBRANCH  22  24
DOCKED: BRANCH  22  26
DOCKED: ATOM     26  O   UNL d   1      -9.454  -5.385 -22.217 -0.09 +0.37    -0.303 OA
DOCKED: ATOM     27  H   UNL d   1      -8.479  -5.474 -22.183 -0.27 -0.42    +0.222 HD
DOCKED: ENDBRANCH  22  26
DOCKED: ENDBRANCH  21  22
DOCKED: ENDBRANCH   6  21
DOCKED: BRANCH   3  28
DOCKED: ATOM     28  O   UNL d   1      -4.761  -2.665 -19.009 -0.11 +0.04    -0.278 OA
DOCKED: BRANCH  28  29
DOCKED: ATOM     29  P   UNL d   1      -3.604  -3.426 -18.222 -0.13 -0.09    +0.473 P 
DOCKED: ATOM     30  O   UNL d   1      -2.281  -2.750 -18.218 -0.23 +0.03    -0.228 OA
DOCKED: BRANCH  29  31
DOCKED: ATOM     31  O   UNL d   1      -4.320  -3.631 -16.805 -0.27 +0.03    -0.303 OA
DOCKED: ATOM     32  H   UNL d   1      -4.138  -2.842 -16.244 +0.10 +0.00    +0.222 HD
DOCKED: ENDBRANCH  29  31
DOCKED: BRANCH  29  33
DOCKED: ATOM     33  O   UNL d   1      -3.667  -4.882 -18.862 -0.18 +0.12    -0.303 OA
DOCKED: ATOM     34  H   UNL d   1      -4.038  -4.816 -19.775 -0.09 -0.10    +0.222 HD
DOCKED: ENDBRANCH  29  33
DOCKED: ENDBRANCH  28  29
DOCKED: ENDBRANCH   3  28
DOCKED: BRANCH   5  35
DOCKED: ATOM     35  O   UNL d   1      -7.786  -2.743 -22.519 -0.02 +0.09    -0.278 OA
DOCKED: BRANCH  35  36
DOCKED: ATOM     36  P   UNL d   1      -7.239  -3.431 -23.850 -0.03 -0.19    +0.473 P 
DOCKED: ATOM     37  O   UNL d   1      -8.186  -3.438 -25.008 -0.02 +0.07    -0.228 OA
DOCKED: BRANCH  36  38
DOCKED: ATOM     38  O   UNL d   1      -5.895  -2.617 -24.109 -0.00 +0.06    -0.303 OA
DOCKED: ATOM     39  H   UNL d   1      -5.128  -3.182 -23.875 +0.02 -0.05    +0.222 HD
DOCKED: ENDBRANCH  36  38
DOCKED: BRANCH  36  40
DOCKED: ATOM     40  O   UNL d   1      -6.736  -4.843 -23.321 +0.01 +0.34    -0.303 OA
DOCKED: ATOM     41  H   UNL d   1      -7.480  -5.474 -23.201 -0.32 -0.50    +0.222 HD
DOCKED: ENDBRANCH  36  40
DOCKED: ENDBRANCH  35  36
DOCKED: ENDBRANCH   5  35
DOCKED: BRANCH   4  42
DOCKED: ATOM     42  O   UNL d   1      -5.345  -3.970 -21.508 -0.12 +0.12    -0.278 OA
DOCKED: BRANCH  42  43
DOCKED: ATOM     43  P   UNL d   1      -4.005  -3.383 -22.144 -0.03 -0.11    +0.473 P 
DOCKED: ATOM     44  O   UNL d   1      -3.956  -1.918 -22.412 -0.01 +0.02    -0.228 OA
DOCKED: BRANCH  43  45
DOCKED: ATOM     45  O   UNL d   1      -2.885  -3.898 -21.137 -0.07 +0.07    -0.303 OA
DOCKED: ATOM     46  H   UNL d   1      -2.946  -3.445 -20.272 +0.07 -0.04    +0.222 HD
DOCKED: ENDBRANCH  43  45
DOCKED: BRANCH  43  47
DOCKED: ATOM     47  O   UNL d   1      -3.759  -4.327 -23.416 -0.03 +0.08    -0.303 OA
DOCKED: ATOM     48  H   UNL d   1      -4.613  -4.490 -23.867 +0.03 -0.08    +0.222 HD
DOCKED: ENDBRANCH  43  47
DOCKED: ENDBRANCH  42  43
DOCKED: ENDBRANCH   4  42
DOCKED: TORSDOF 24
DOCKED: TER
DOCKED: ENDMDL
________________________________________________________________________________


	BEGINNING GENETIC ALGORITHM DOCKING 66 of 100
Run: 66 Seed: 1332490748 925436266 [ Run 66 of 100 GA/GALS ]
Beginning LAMARCKIAN GENETIC ALGORITHM (LGA), with a maximum of 25000000 energy evaluations.

Final-Value: -20.012


	FINAL GENETIC ALGORITHM DOCKED STATE
	_______________________________________________


Detailed state:  trans 6.360 -7.162 12.490 quatxyzw 0.132510 -0.616649 0.741053 -0.230271 center 0.035 0.082 -0.065 ntor 24 173.0093 98.0818 125.4592 4.0370 20.0514 -1.9445 -16.6617 -111.5416 102.0768 -2.8287 0.8014 -143.4593 -49.9525 70.0823 -180.0000 -71.4382 62.1706 -35.5832 2.2804 -35.4872 -33.5826 13.6134 -28.7395 3.3146
State:	  6.360  -7.162  12.490   0.136 -0.634  0.762 -153.374    173.01   98.08  125.46    4.04   20.05   -1.94  -16.66 -111.54  102.08   -2.83    0.80 -143.46  -49.95   70.08 -180.00  -71.44   62.17  -35.58    2.28  -35.49  -33.58   13.61  -28.74    3.31

DOCKED: MODEL       66
DOCKED: USER    Run = 66
DOCKED: USER    DPF = D:/Protein_go_brrr/autodock/final/AncA/IHP/dock.dpf
DOCKED: USER  
DOCKED: USER    Estimated Free Energy of Binding    =   +1.22 kcal/mol  [=(1)+(2)+(3)-(4)]
DOCKED: USER    
DOCKED: USER    (1) Final Intermolecular Energy     =   -5.94 kcal/mol
DOCKED: USER        vdW + Hbond + desolv Energy     =   -5.58 kcal/mol
DOCKED: USER        Electrostatic Energy            =   -0.36 kcal/mol
DOCKED: USER    (2) Final Total Internal Energy     =  -14.07 kcal/mol
DOCKED: USER    (3) Torsional Free Energy           =   +7.16 kcal/mol
DOCKED: USER    (4) Unbound System's Energy  [=(2)] =  -14.07 kcal/mol
DOCKED: USER    
DOCKED: USER    
DOCKED: USER    NEWDPF move IHP_ideal_opt.pdbqt
DOCKED: USER    NEWDPF about 0.035000 0.082000 -0.065000
DOCKED: USER    NEWDPF tran0 6.360180 -7.161846 12.490003
DOCKED: USER    NEWDPF quaternion0 0.132510 -0.616649 0.741053 -0.230271
DOCKED: USER    NEWDPF axisangle0 0.136169 -0.633678 0.761518 -153.373895
DOCKED: USER    NEWDPF quat0 0.136169 -0.633678 0.761518 -153.373895
DOCKED: USER    NEWDPF dihe0 173.01 98.08 125.46 4.04 20.05 -1.94 -16.66 -111.54 102.08 -2.83 0.80 -143.46 -49.95 70.08 -180.00 -71.44 62.17 -35.58 2.28 -35.49 -33.58 13.61 -28.74 3.31 
DOCKED: USER  keepresnum = 1 
DOCKED: USER  
DOCKED: REMARK  24 active torsions:
DOCKED: REMARK  status: ('A' for Active; 'I' for Inactive)
DOCKED: REMARK    1  A    between atoms: C_1  and  O_7 
DOCKED: REMARK    2  A    between atoms: C_2  and  O_12 
DOCKED: REMARK    3  A    between atoms: C_3  and  O_17 
DOCKED: REMARK    4  A    between atoms: C_4  and  O_22 
DOCKED: REMARK    5  A    between atoms: C_5  and  O_27 
DOCKED: REMARK    6  A    between atoms: C_6  and  O_32 
DOCKED: REMARK    7  A    between atoms: O_7  and  P_8 
DOCKED: REMARK    8  A    between atoms: P_8  and  O_10 
DOCKED: REMARK    9  A    between atoms: P_8  and  O_11 
DOCKED: REMARK   10  A    between atoms: O_12  and  P_13 
DOCKED: REMARK   11  A    between atoms: P_13  and  O_15 
DOCKED: REMARK   12  A    between atoms: P_13  and  O_16 
DOCKED: REMARK   13  A    between atoms: O_17  and  P_18 
DOCKED: REMARK   14  A    between atoms: P_18  and  O_20 
DOCKED: REMARK   15  A    between atoms: P_18  and  O_21 
DOCKED: REMARK   16  A    between atoms: O_22  and  P_23 
DOCKED: REMARK   17  A    between atoms: P_23  and  O_25 
DOCKED: REMARK   18  A    between atoms: P_23  and  O_26 
DOCKED: REMARK   19  A    between atoms: O_27  and  P_28 
DOCKED: REMARK   20  A    between atoms: P_28  and  O_30 
DOCKED: REMARK   21  A    between atoms: P_28  and  O_31 
DOCKED: REMARK   22  A    between atoms: O_32  and  P_33 
DOCKED: REMARK   23  A    between atoms: P_33  and  O_35 
DOCKED: REMARK   24  A    between atoms: P_33  and  O_36 
DOCKED: USER                              x       y       z     vdW  Elec       q    Type
DOCKED: USER                           _______ _______ _______ _____ _____    ______ ____
DOCKED: ROOT
DOCKED: ATOM      1  C   UNL d   1       5.663  -7.592  14.011 -0.08 -0.03    +0.194 C 
DOCKED: ATOM      2  C   UNL d   1       7.173  -7.347  14.022 -0.10 -0.01    +0.194 C 
DOCKED: ATOM      3  C   UNL d   1       7.859  -7.986  12.813 -0.09 +0.00    +0.194 C 
DOCKED: ATOM      4  C   UNL d   1       7.221  -7.595  11.482 -0.16 -0.01    +0.194 C 
DOCKED: ATOM      5  C   UNL d   1       5.702  -7.715  11.464 -0.18 -0.01    +0.194 C 
DOCKED: ATOM      6  C   UNL d   1       5.020  -7.130  12.703 -0.12 -0.05    +0.194 C 
DOCKED: ENDROOT
DOCKED: BRANCH   1   7
DOCKED: ATOM      7  O   UNL d   1       5.079  -6.825  15.067 -0.07 +0.08    -0.278 OA
DOCKED: BRANCH   7   8
DOCKED: ATOM      8  P   UNL d   1       4.274  -7.597  16.211 +0.01 -0.08    +0.473 P 
DOCKED: ATOM      9  O   UNL d   1       4.249  -9.078  16.074 -0.00 +0.01    -0.228 OA
DOCKED: BRANCH   8  10
DOCKED: ATOM     10  O   UNL d   1       4.958  -7.103  17.565 -0.00 +0.03    -0.303 OA
DOCKED: ATOM     11  H   UNL d   1       5.497  -6.309  17.388 +0.02 -0.03    +0.222 HD
DOCKED: ENDBRANCH   8  10
DOCKED: BRANCH   8  12
DOCKED: ATOM     12  O   UNL d   1       2.857  -6.881  16.273 -0.03 +0.11    -0.303 OA
DOCKED: ATOM     13  H   UNL d   1       2.412  -6.830  15.397 +0.06 -0.13    +0.222 HD
DOCKED: ENDBRANCH   8  12
DOCKED: ENDBRANCH   7   8
DOCKED: ENDBRANCH   1   7
DOCKED: BRANCH   2  14
DOCKED: ATOM     14  O   UNL d   1       7.417  -5.935  13.992 -0.12 +0.04    -0.278 OA
DOCKED: BRANCH  14  15
DOCKED: ATOM     15  P   UNL d   1       7.673  -5.223  15.403 -0.06 -0.04    +0.473 P 
DOCKED: ATOM     16  O   UNL d   1       8.934  -4.426  15.535 -0.09 -0.00    -0.228 OA
DOCKED: BRANCH  15  17
DOCKED: ATOM     17  O   UNL d   1       6.363  -4.348  15.639 -0.15 +0.09    -0.303 OA
DOCKED: ATOM     18  H   UNL d   1       5.585  -4.757  15.213 -0.42 -0.13    +0.222 HD
DOCKED: ENDBRANCH  15  17
DOCKED: BRANCH  15  19
DOCKED: ATOM     19  O   UNL d   1       7.480  -6.383  16.474 -0.03 +0.01    -0.303 OA
DOCKED: ATOM     20  H   UNL d   1       6.608  -6.810  16.389 +0.03 -0.02    +0.222 HD
DOCKED: ENDBRANCH  15  19
DOCKED: ENDBRANCH  14  15
DOCKED: ENDBRANCH   2  14
DOCKED: BRANCH   6  21
DOCKED: ATOM     21  O   UNL d   1       3.679  -7.615  12.702 -0.12 +0.06    -0.278 OA
DOCKED: BRANCH  21  22
DOCKED: ATOM     22  P   UNL d   1       2.477  -6.619  13.029 -0.21 -0.38    +0.473 P 
DOCKED: ATOM     23  O   UNL d   1       1.257  -7.177  13.682 -0.25 +0.26    -0.228 OA
DOCKED: BRANCH  22  24
DOCKED: ATOM     24  O   UNL d   1       3.215  -5.479  13.859 -0.24 +0.30    -0.303 OA
DOCKED: ATOM     25  H   UNL d   1       3.801  -5.915  14.528 -0.08 -0.15    +0.222 HD
DOCKED: ENDBRANCH  22  24
DOCKED: BRANCH  22  26
DOCKED: ATOM     26  O   UNL d   1       2.251  -5.904  11.612 -0.91 +0.19    -0.303 OA
DOCKED: ATOM     27  H   UNL d   1       1.565  -5.212  11.706 -0.43 -0.36    +0.222 HD
DOCKED: ENDBRANCH  22  26
DOCKED: ENDBRANCH  21  22
DOCKED: ENDBRANCH   6  21
DOCKED: BRANCH   3  28
DOCKED: ATOM     28  O   UNL d   1       9.187  -7.480  12.757 -0.06 -0.01    -0.278 OA
DOCKED: BRANCH  28  29
DOCKED: ATOM     29  P   UNL d   1      10.428  -8.478  12.749 -0.00 +0.04    +0.473 P 
DOCKED: ATOM     30  O   UNL d   1      11.076  -8.705  14.066 -0.01 -0.02    -0.228 OA
DOCKED: BRANCH  29  31
DOCKED: ATOM     31  O   UNL d   1       9.761  -9.748  12.039 -0.00 -0.03    -0.303 OA
DOCKED: ATOM     32  H   UNL d   1       9.117  -9.428  11.366 +0.02 +0.03    +0.222 HD
DOCKED: ENDBRANCH  29  31
DOCKED: BRANCH  29  33
DOCKED: ATOM     33  O   UNL d   1      11.340  -7.868  11.595 -0.01 -0.03    -0.303 OA
DOCKED: ATOM     34  H   UNL d   1      10.793  -7.759  10.778 +0.03 +0.02    +0.222 HD
DOCKED: ENDBRANCH  29  33
DOCKED: ENDBRANCH  28  29
DOCKED: ENDBRANCH   3  28
DOCKED: BRANCH   5  35
DOCKED: ATOM     35  O   UNL d   1       5.267  -6.947  10.343 -0.27 +0.04    -0.278 OA
DOCKED: BRANCH  35  36
DOCKED: ATOM     36  P   UNL d   1       4.848  -7.672   8.986 -0.13 +0.07    +0.473 P 
DOCKED: ATOM     37  O   UNL d   1       3.381  -7.704   8.697 -0.35 -0.06    -0.228 OA
DOCKED: BRANCH  36  38
DOCKED: ATOM     38  O   UNL d   1       5.709  -6.873   7.911 -0.12 -0.01    -0.303 OA
DOCKED: ATOM     39  H   UNL d   1       6.551  -6.584   8.324 -0.48 -0.05    +0.222 HD
DOCKED: ENDBRANCH  36  38
DOCKED: BRANCH  36  40
DOCKED: ATOM     40  O   UNL d   1       5.591  -9.074   9.106 -0.07 -0.09    -0.303 OA
DOCKED: ATOM     41  H   UNL d   1       6.516  -8.970   9.421 +0.06 +0.04    +0.222 HD
DOCKED: ENDBRANCH  36  40
DOCKED: ENDBRANCH  35  36
DOCKED: ENDBRANCH   5  35
DOCKED: BRANCH   4  42
DOCKED: ATOM     42  O   UNL d   1       7.726  -8.502  10.497 -0.07 -0.02    -0.278 OA
DOCKED: BRANCH  42  43
DOCKED: ATOM     43  P   UNL d   1       8.779  -7.968   9.424 -0.08 +0.03    +0.473 P 
DOCKED: ATOM     44  O   UNL d   1       9.355  -6.612   9.644 -0.19 -0.01    -0.228 OA
DOCKED: BRANCH  43  45
DOCKED: ATOM     45  O   UNL d   1       9.859  -9.136   9.383 -0.01 -0.05    -0.303 OA
DOCKED: ATOM     46  H   UNL d   1      10.403  -9.149  10.195 +0.02 +0.03    +0.222 HD
DOCKED: ENDBRANCH  43  45
DOCKED: BRANCH  43  47
DOCKED: ATOM     47  O   UNL d   1       8.018  -8.178   8.029 -0.08 -0.04    -0.303 OA
DOCKED: ATOM     48  H   UNL d   1       7.061  -8.009   8.155 +0.07 +0.02    +0.222 HD
DOCKED: ENDBRANCH  43  47
DOCKED: ENDBRANCH  42  43
DOCKED: ENDBRANCH   4  42
DOCKED: TORSDOF 24
DOCKED: TER
DOCKED: ENDMDL
________________________________________________________________________________


	BEGINNING GENETIC ALGORITHM DOCKING 67 of 100
Run: 67 Seed: 332177574 266884766 [ Run 67 of 100 GA/GALS ]
Beginning LAMARCKIAN GENETIC ALGORITHM (LGA), with a maximum of 25000000 energy evaluations.

Final-Value: -17.019


	FINAL GENETIC ALGORITHM DOCKED STATE
	_______________________________________________


Detailed state:  trans -10.974 12.557 4.905 quatxyzw -0.273921 0.053430 0.660981 0.696575 center 0.035 0.082 -0.065 ntor 24 -96.9605 21.3602 -175.2343 29.0142 155.2434 84.2330 -135.5548 -60.0752 9.2035 77.9469 25.4640 -92.1255 -180.0000 40.3507 100.9320 -16.6676 -64.5273 -16.2056 63.3856 17.4782 -48.2578 37.9292 19.6041 -56.0831
State:	-10.974  12.557   4.905  -0.382  0.074  0.921 91.694    -96.96   21.36 -175.23   29.01  155.24   84.23 -135.55  -60.08    9.20   77.95   25.46  -92.13 -180.00   40.35  100.93  -16.67  -64.53  -16.21   63.39   17.48  -48.26   37.93   19.60  -56.08

DOCKED: MODEL       67
DOCKED: USER    Run = 67
DOCKED: USER    DPF = D:/Protein_go_brrr/autodock/final/AncA/IHP/dock.dpf
DOCKED: USER  
DOCKED: USER    Estimated Free Energy of Binding    =   +3.44 kcal/mol  [=(1)+(2)+(3)-(4)]
DOCKED: USER    
DOCKED: USER    (1) Final Intermolecular Energy     =   -3.72 kcal/mol
DOCKED: USER        vdW + Hbond + desolv Energy     =   -3.46 kcal/mol
DOCKED: USER        Electrostatic Energy            =   -0.26 kcal/mol
DOCKED: USER    (2) Final Total Internal Energy     =  -13.29 kcal/mol
DOCKED: USER    (3) Torsional Free Energy           =   +7.16 kcal/mol
DOCKED: USER    (4) Unbound System's Energy  [=(2)] =  -13.29 kcal/mol
DOCKED: USER    
DOCKED: USER    
DOCKED: USER    NEWDPF move IHP_ideal_opt.pdbqt
DOCKED: USER    NEWDPF about 0.035000 0.082000 -0.065000
DOCKED: USER    NEWDPF tran0 -10.974398 12.557271 4.905474
DOCKED: USER    NEWDPF quaternion0 -0.273921 0.053430 0.660981 0.696575
DOCKED: USER    NEWDPF axisangle0 -0.381780 0.074469 0.921248 91.694313
DOCKED: USER    NEWDPF quat0 -0.381780 0.074469 0.921248 91.694313
DOCKED: USER    NEWDPF dihe0 -96.96 21.36 -175.23 29.01 155.24 84.23 -135.55 -60.08 9.20 77.95 25.46 -92.13 -180.00 40.35 100.93 -16.67 -64.53 -16.21 63.39 17.48 -48.26 37.93 19.60 -56.08 
DOCKED: USER  keepresnum = 1 
DOCKED: USER  
DOCKED: REMARK  24 active torsions:
DOCKED: REMARK  status: ('A' for Active; 'I' for Inactive)
DOCKED: REMARK    1  A    between atoms: C_1  and  O_7 
DOCKED: REMARK    2  A    between atoms: C_2  and  O_12 
DOCKED: REMARK    3  A    between atoms: C_3  and  O_17 
DOCKED: REMARK    4  A    between atoms: C_4  and  O_22 
DOCKED: REMARK    5  A    between atoms: C_5  and  O_27 
DOCKED: REMARK    6  A    between atoms: C_6  and  O_32 
DOCKED: REMARK    7  A    between atoms: O_7  and  P_8 
DOCKED: REMARK    8  A    between atoms: P_8  and  O_10 
DOCKED: REMARK    9  A    between atoms: P_8  and  O_11 
DOCKED: REMARK   10  A    between atoms: O_12  and  P_13 
DOCKED: REMARK   11  A    between atoms: P_13  and  O_15 
DOCKED: REMARK   12  A    between atoms: P_13  and  O_16 
DOCKED: REMARK   13  A    between atoms: O_17  and  P_18 
DOCKED: REMARK   14  A    between atoms: P_18  and  O_20 
DOCKED: REMARK   15  A    between atoms: P_18  and  O_21 
DOCKED: REMARK   16  A    between atoms: O_22  and  P_23 
DOCKED: REMARK   17  A    between atoms: P_23  and  O_25 
DOCKED: REMARK   18  A    between atoms: P_23  and  O_26 
DOCKED: REMARK   19  A    between atoms: O_27  and  P_28 
DOCKED: REMARK   20  A    between atoms: P_28  and  O_30 
DOCKED: REMARK   21  A    between atoms: P_28  and  O_31 
DOCKED: REMARK   22  A    between atoms: O_32  and  P_33 
DOCKED: REMARK   23  A    between atoms: P_33  and  O_35 
DOCKED: REMARK   24  A    between atoms: P_33  and  O_36 
DOCKED: USER                              x       y       z     vdW  Elec       q    Type
DOCKED: USER                           _______ _______ _______ _____ _____    ______ ____
DOCKED: ROOT
DOCKED: ATOM      1  C   UNL d   1     -11.960  11.142   4.811 -0.05 +0.02    +0.194 C 
DOCKED: ATOM      2  C   UNL d   1     -12.667  12.462   4.495 -0.01 +0.01    +0.194 C 
DOCKED: ATOM      3  C   UNL d   1     -12.273  13.565   5.479 -0.00 +0.01    +0.194 C 
DOCKED: ATOM      4  C   UNL d   1     -10.762  13.737   5.617 +0.00 +0.02    +0.194 C 
DOCKED: ATOM      5  C   UNL d   1     -10.004  12.431   5.819 -0.01 +0.03    +0.194 C 
DOCKED: ATOM      6  C   UNL d   1     -10.442  11.309   4.875 -0.04 +0.03    +0.194 C 
DOCKED: ENDROOT
DOCKED: BRANCH   1   7
DOCKED: ATOM      7  O   UNL d   1     -12.244  10.221   3.756 -0.13 -0.00    -0.278 OA
DOCKED: BRANCH   7   8
DOCKED: ATOM      8  P   UNL d   1     -13.770   9.852   3.459 -0.17 -0.00    +0.473 P 
DOCKED: ATOM      9  O   UNL d   1     -14.068   8.395   3.408 -0.24 +0.01    -0.228 OA
DOCKED: BRANCH   8  10
DOCKED: ATOM     10  O   UNL d   1     -14.581  10.620   4.597 -0.05 -0.01    -0.303 OA
DOCKED: ATOM     11  H   UNL d   1     -15.023  11.401   4.213 +0.03 +0.01    +0.222 HD
DOCKED: ENDBRANCH   8  10
DOCKED: BRANCH   8  12
DOCKED: ATOM     12  O   UNL d   1     -14.150  10.684   2.160 -0.12 -0.00    -0.303 OA
DOCKED: ATOM     13  H   UNL d   1     -13.585  11.479   2.032 +0.04 +0.01    +0.222 HD
DOCKED: ENDBRANCH   8  12
DOCKED: ENDBRANCH   7   8
DOCKED: ENDBRANCH   1   7
DOCKED: BRANCH   2  14
DOCKED: ATOM     14  O   UNL d   1     -12.305  12.879   3.173 -0.01 -0.01    -0.278 OA
DOCKED: BRANCH  14  15
DOCKED: ATOM     15  P   UNL d   1     -13.405  13.713   2.360 +0.00 +0.02    +0.473 P 
DOCKED: ATOM     16  O   UNL d   1     -13.287  15.205   2.406 -0.00 -0.01    -0.228 OA
DOCKED: BRANCH  15  17
DOCKED: ATOM     17  O   UNL d   1     -13.316  13.132   0.880 -0.01 -0.01    -0.303 OA
DOCKED: ATOM     18  H   UNL d   1     -13.913  12.368   0.765 +0.03 +0.00    +0.222 HD
DOCKED: ENDBRANCH  15  17
DOCKED: BRANCH  15  19
DOCKED: ATOM     19  O   UNL d   1     -14.796  13.120   2.853 -0.00 -0.01    -0.303 OA
DOCKED: ATOM     20  H   UNL d   1     -14.721  12.179   3.095 +0.02 +0.01    +0.222 HD
DOCKED: ENDBRANCH  15  19
DOCKED: ENDBRANCH  14  15
DOCKED: ENDBRANCH   2  14
DOCKED: BRANCH   6  21
DOCKED: ATOM     21  O   UNL d   1      -9.909  10.096   5.402 -0.08 -0.09    -0.278 OA
DOCKED: BRANCH  21  22
DOCKED: ATOM     22  P   UNL d   1      -9.545   8.896   4.416 -0.17 +0.16    +0.473 P 
DOCKED: ATOM     23  O   UNL d   1      -8.208   8.251   4.555 -0.85 -0.19    -0.228 OA
DOCKED: BRANCH  22  24
DOCKED: ATOM     24  O   UNL d   1     -10.783   7.918   4.622 -0.27 -0.02    -0.303 OA
DOCKED: ATOM     25  H   UNL d   1     -11.488   8.172   3.974 -0.32 -0.07    +0.222 HD
DOCKED: ENDBRANCH  22  24
DOCKED: BRANCH  22  26
DOCKED: ATOM     26  O   UNL d   1      -9.869   9.542   2.985 -0.10 -0.05    -0.303 OA
DOCKED: ATOM     27  H   UNL d   1     -10.803   9.364   2.755 -0.35 -0.03    +0.222 HD
DOCKED: ENDBRANCH  22  26
DOCKED: ENDBRANCH  21  22
DOCKED: ENDBRANCH   6  21
DOCKED: BRANCH   3  28
DOCKED: ATOM     28  O   UNL d   1     -12.747  14.798   4.953 +0.00 -0.01    -0.278 OA
DOCKED: BRANCH  28  29
DOCKED: ATOM     29  P   UNL d   1     -13.195  15.971   5.932 +0.00 +0.02    +0.473 P 
DOCKED: ATOM     30  O   UNL d   1     -14.004  15.553   7.105 +0.00 -0.01    -0.228 OA
DOCKED: BRANCH  29  31
DOCKED: ATOM     31  O   UNL d   1     -11.773  16.643   6.232 +0.00 -0.01    -0.303 OA
DOCKED: ATOM     32  H   UNL d   1     -11.338  16.143   6.961 +0.00 +0.01    +0.222 HD
DOCKED: ENDBRANCH  29  31
DOCKED: BRANCH  29  33
DOCKED: ATOM     33  O   UNL d   1     -13.867  17.007   4.926 +0.00 -0.01    -0.303 OA
DOCKED: ATOM     34  H   UNL d   1     -13.804  16.649   4.007 +0.00 +0.01    +0.222 HD
DOCKED: ENDBRANCH  29  33
DOCKED: ENDBRANCH  28  29
DOCKED: ENDBRANCH   3  28
DOCKED: BRANCH   5  35
DOCKED: ATOM     35  O   UNL d   1      -8.641  12.724   5.520 -0.02 -0.05    -0.278 OA
DOCKED: BRANCH  35  36
DOCKED: ATOM     36  P   UNL d   1      -7.468  11.920   6.242 -0.06 +0.20    +0.473 P 
DOCKED: ATOM     37  O   UNL d   1      -7.845  11.237   7.518 -0.50 -0.16    -0.228 OA
DOCKED: BRANCH  36  38
DOCKED: ATOM     38  O   UNL d   1      -6.990  10.933   5.087 -0.10 -0.16    -0.303 OA
DOCKED: ATOM     39  H   UNL d   1      -7.740  10.354   4.829 +0.06 +0.13    +0.222 HD
DOCKED: ENDBRANCH  36  38
DOCKED: BRANCH  36  40
DOCKED: ATOM     40  O   UNL d   1      -6.309  13.007   6.320 -0.06 -0.07    -0.303 OA
DOCKED: ATOM     41  H   UNL d   1      -6.666  13.908   6.486 +0.03 +0.03    +0.222 HD
DOCKED: ENDBRANCH  36  40
DOCKED: ENDBRANCH  35  36
DOCKED: ENDBRANCH   5  35
DOCKED: BRANCH   4  42
DOCKED: ATOM     42  O   UNL d   1     -10.540  14.537   6.783 +0.00 -0.02    -0.278 OA
DOCKED: BRANCH  42  43
DOCKED: ATOM     43  P   UNL d   1      -9.090  15.155   7.031 +0.01 +0.04    +0.473 P 
DOCKED: ATOM     44  O   UNL d   1      -8.262  15.465   5.832 -0.00 -0.02    -0.228 OA
DOCKED: BRANCH  43  45
DOCKED: ATOM     45  O   UNL d   1      -9.400  16.415   7.952 +0.00 -0.02    -0.303 OA
DOCKED: ATOM     46  H   UNL d   1     -10.139  16.947   7.594 +0.00 +0.01    +0.222 HD
DOCKED: ENDBRANCH  43  45
DOCKED: BRANCH  43  47
DOCKED: ATOM     47  O   UNL d   1      -8.433  14.137   8.081 +0.00 -0.04    -0.303 OA
DOCKED: ATOM     48  H   UNL d   1      -8.010  13.400   7.594 +0.02 +0.04    +0.222 HD
DOCKED: ENDBRANCH  43  47
DOCKED: ENDBRANCH  42  43
DOCKED: ENDBRANCH   4  42
DOCKED: TORSDOF 24
DOCKED: TER
DOCKED: ENDMDL
________________________________________________________________________________


	BEGINNING GENETIC ALGORITHM DOCKING 68 of 100
Run: 68 Seed: 1858871298 890646056 [ Run 68 of 100 GA/GALS ]
Beginning LAMARCKIAN GENETIC ALGORITHM (LGA), with a maximum of 25000000 energy evaluations.

Final-Value: -17.061


	FINAL GENETIC ALGORITHM DOCKED STATE
	_______________________________________________


Detailed state:  trans 3.904 13.488 13.344 quatxyzw 0.858008 -0.477544 0.079108 -0.171798 center 0.035 0.082 -0.065 ntor 24 60.5316 -139.3218 156.9419 -6.1729 -4.4940 154.0186 -11.6649 -152.0748 -77.0214 81.2129 -123.7994 -95.8292 159.3082 -176.4773 178.1048 107.5212 -3.3399 -115.5052 -18.9642 10.1490 -23.9678 0.1150 171.6421 159.6364
State:	  3.904  13.488  13.344   0.871 -0.485  0.080 -160.215     60.53 -139.32  156.94   -6.17   -4.49  154.02  -11.66 -152.07  -77.02   81.21 -123.80  -95.83  159.31 -176.48  178.10  107.52   -3.34 -115.51  -18.96   10.15  -23.97    0.11  171.64  159.64

DOCKED: MODEL       68
DOCKED: USER    Run = 68
DOCKED: USER    DPF = D:/Protein_go_brrr/autodock/final/AncA/IHP/dock.dpf
DOCKED: USER  
DOCKED: USER    Estimated Free Energy of Binding    =   +1.87 kcal/mol  [=(1)+(2)+(3)-(4)]
DOCKED: USER    
DOCKED: USER    (1) Final Intermolecular Energy     =   -5.29 kcal/mol
DOCKED: USER        vdW + Hbond + desolv Energy     =   -5.11 kcal/mol
DOCKED: USER        Electrostatic Energy            =   -0.18 kcal/mol
DOCKED: USER    (2) Final Total Internal Energy     =  -11.77 kcal/mol
DOCKED: USER    (3) Torsional Free Energy           =   +7.16 kcal/mol
DOCKED: USER    (4) Unbound System's Energy  [=(2)] =  -11.77 kcal/mol
DOCKED: USER    
DOCKED: USER    
DOCKED: USER    NEWDPF move IHP_ideal_opt.pdbqt
DOCKED: USER    NEWDPF about 0.035000 0.082000 -0.065000
DOCKED: USER    NEWDPF tran0 3.904162 13.488100 13.344493
DOCKED: USER    NEWDPF quaternion0 0.858008 -0.477544 0.079108 -0.171798
DOCKED: USER    NEWDPF axisangle0 0.870958 -0.484752 0.080302 -160.215215
DOCKED: USER    NEWDPF quat0 0.870958 -0.484752 0.080302 -160.215215
DOCKED: USER    NEWDPF dihe0 60.53 -139.32 156.94 -6.17 -4.49 154.02 -11.66 -152.07 -77.02 81.21 -123.80 -95.83 159.31 -176.48 178.10 107.52 -3.34 -115.51 -18.96 10.15 -23.97 0.11 171.64 159.64 
DOCKED: USER  keepresnum = 1 
DOCKED: USER  
DOCKED: REMARK  24 active torsions:
DOCKED: REMARK  status: ('A' for Active; 'I' for Inactive)
DOCKED: REMARK    1  A    between atoms: C_1  and  O_7 
DOCKED: REMARK    2  A    between atoms: C_2  and  O_12 
DOCKED: REMARK    3  A    between atoms: C_3  and  O_17 
DOCKED: REMARK    4  A    between atoms: C_4  and  O_22 
DOCKED: REMARK    5  A    between atoms: C_5  and  O_27 
DOCKED: REMARK    6  A    between atoms: C_6  and  O_32 
DOCKED: REMARK    7  A    between atoms: O_7  and  P_8 
DOCKED: REMARK    8  A    between atoms: P_8  and  O_10 
DOCKED: REMARK    9  A    between atoms: P_8  and  O_11 
DOCKED: REMARK   10  A    between atoms: O_12  and  P_13 
DOCKED: REMARK   11  A    between atoms: P_13  and  O_15 
DOCKED: REMARK   12  A    between atoms: P_13  and  O_16 
DOCKED: REMARK   13  A    between atoms: O_17  and  P_18 
DOCKED: REMARK   14  A    between atoms: P_18  and  O_20 
DOCKED: REMARK   15  A    between atoms: P_18  and  O_21 
DOCKED: REMARK   16  A    between atoms: O_22  and  P_23 
DOCKED: REMARK   17  A    between atoms: P_23  and  O_25 
DOCKED: REMARK   18  A    between atoms: P_23  and  O_26 
DOCKED: REMARK   19  A    between atoms: O_27  and  P_28 
DOCKED: REMARK   20  A    between atoms: P_28  and  O_30 
DOCKED: REMARK   21  A    between atoms: P_28  and  O_31 
DOCKED: REMARK   22  A    between atoms: O_32  and  P_33 
DOCKED: REMARK   23  A    between atoms: P_33  and  O_35 
DOCKED: REMARK   24  A    between atoms: P_33  and  O_36 
DOCKED: USER                              x       y       z     vdW  Elec       q    Type
DOCKED: USER                           _______ _______ _______ _____ _____    ______ ____
DOCKED: ROOT
DOCKED: ATOM      1  C   UNL d   1       5.299  12.633  12.791 -0.20 +0.01    +0.194 C 
DOCKED: ATOM      2  C   UNL d   1       5.327  14.148  12.583 -0.07 +0.02    +0.194 C 
DOCKED: ATOM      3  C   UNL d   1       3.984  14.675  12.074 -0.12 +0.01    +0.194 C 
DOCKED: ATOM      4  C   UNL d   1       2.800  14.232  12.930 -0.09 -0.01    +0.194 C 
DOCKED: ATOM      5  C   UNL d   1       2.795  12.744  13.258 -0.15 -0.02    +0.194 C 
DOCKED: ATOM      6  C   UNL d   1       4.154  12.204  13.709 -0.16 -0.01    +0.194 C 
DOCKED: ENDROOT
DOCKED: BRANCH   1   7
DOCKED: ATOM      7  O   UNL d   1       6.521  12.247  13.426 -0.43 -0.00    -0.278 OA
DOCKED: BRANCH   7   8
DOCKED: ATOM      8  P   UNL d   1       7.211  10.878  12.976 -0.25 -0.09    +0.473 P 
DOCKED: ATOM      9  O   UNL d   1       7.977  10.178  14.042 -0.10 +0.05    -0.228 OA
DOCKED: BRANCH   8  10
DOCKED: ATOM     10  O   UNL d   1       6.005  10.010  12.395 -0.22 +0.08    -0.303 OA
DOCKED: ATOM     11  H   UNL d   1       5.683   9.397  13.082 -0.32 -0.10    +0.222 HD
DOCKED: ENDBRANCH   8  10
DOCKED: BRANCH   8  12
DOCKED: ATOM     12  O   UNL d   1       8.025  11.239  11.660 -0.63 +0.10    -0.303 OA
DOCKED: ATOM     13  H   UNL d   1       8.559  10.487  11.318 -0.30 -0.23    +0.222 HD
DOCKED: ENDBRANCH   8  12
DOCKED: ENDBRANCH   7   8
DOCKED: ENDBRANCH   1   7
DOCKED: BRANCH   2  14
DOCKED: ATOM     14  O   UNL d   1       5.624  14.786  13.832 -0.08 -0.01    -0.278 OA
DOCKED: BRANCH  14  15
DOCKED: ATOM     15  P   UNL d   1       6.580  16.068  13.772 -0.05 +0.01    +0.473 P 
DOCKED: ATOM     16  O   UNL d   1       7.851  15.996  14.558 -0.05 -0.00    -0.228 OA
DOCKED: BRANCH  15  17
DOCKED: ATOM     17  O   UNL d   1       6.830  16.293  12.215 -0.09 -0.01    -0.303 OA
DOCKED: ATOM     18  H   UNL d   1       5.991  16.471  11.746 +0.03 +0.00    +0.222 HD
DOCKED: ENDBRANCH  15  17
DOCKED: BRANCH  15  19
DOCKED: ATOM     19  O   UNL d   1       5.626  17.292  14.122 -0.01 -0.00    -0.303 OA
DOCKED: ATOM     20  H   UNL d   1       4.948  17.429  13.434 +0.02 -0.00    +0.222 HD
DOCKED: ENDBRANCH  15  19
DOCKED: ENDBRANCH  14  15
DOCKED: ENDBRANCH   2  14
DOCKED: BRANCH   6  21
DOCKED: ATOM     21  O   UNL d   1       4.075  10.782  13.643 -0.20 +0.05    -0.278 OA
DOCKED: BRANCH  21  22
DOCKED: ATOM     22  P   UNL d   1       4.444   9.909  14.926 -0.06 -0.07    +0.473 P 
DOCKED: ATOM     23  O   UNL d   1       4.974   8.531  14.711 -0.11 +0.06    -0.228 OA
DOCKED: BRANCH  22  24
DOCKED: ATOM     24  O   UNL d   1       5.424  10.885  15.713 -0.01 +0.02    -0.303 OA
DOCKED: ATOM     25  H   UNL d   1       6.274  10.944  15.206 +0.05 -0.02    +0.222 HD
DOCKED: ENDBRANCH  22  24
DOCKED: BRANCH  22  26
DOCKED: ATOM     26  O   UNL d   1       3.100  10.018  15.793 -0.03 +0.03    -0.303 OA
DOCKED: ATOM     27  H   UNL d   1       2.588  10.797  15.495 +0.04 -0.02    +0.222 HD
DOCKED: ENDBRANCH  22  26
DOCKED: ENDBRANCH  21  22
DOCKED: ENDBRANCH   6  21
DOCKED: BRANCH   3  28
DOCKED: ATOM     28  O   UNL d   1       4.014  16.093  12.176 -0.06 -0.00    -0.278 OA
DOCKED: BRANCH  28  29
DOCKED: ATOM     29  P   UNL d   1       4.060  16.994  10.863 -0.06 -0.01    +0.473 P 
DOCKED: ATOM     30  O   UNL d   1       2.752  17.223  10.197 -0.03 +0.00    -0.228 OA
DOCKED: BRANCH  29  31
DOCKED: ATOM     31  O   UNL d   1       4.820  18.281  11.434 -0.02 +0.00    -0.303 OA
DOCKED: ATOM     32  H   UNL d   1       5.535  17.980  12.041 +0.03 -0.00    +0.222 HD
DOCKED: ENDBRANCH  29  31
DOCKED: BRANCH  29  33
DOCKED: ATOM     33  O   UNL d   1       5.189  16.272  10.003 -0.14 +0.01    -0.303 OA
DOCKED: ATOM     34  H   UNL d   1       6.059  16.702  10.189 +0.04 -0.01    +0.222 HD
DOCKED: ENDBRANCH  29  33
DOCKED: ENDBRANCH  28  29
DOCKED: ENDBRANCH   3  28
DOCKED: BRANCH   5  35
DOCKED: ATOM     35  O   UNL d   1       1.898  12.594  14.357 -0.05 +0.03    -0.278 OA
DOCKED: BRANCH  35  36
DOCKED: ATOM     36  P   UNL d   1       2.148  13.393  15.715 +0.01 -0.02    +0.473 P 
DOCKED: ATOM     37  O   UNL d   1       2.595  14.812  15.555 -0.00 +0.00    -0.228 OA
DOCKED: BRANCH  36  38
DOCKED: ATOM     38  O   UNL d   1       0.746  13.228  16.453 -0.00 +0.01    -0.303 OA
DOCKED: ATOM     39  H   UNL d   1       0.567  14.033  16.984 +0.00 -0.00    +0.222 HD
DOCKED: ENDBRANCH  36  38
DOCKED: BRANCH  36  40
DOCKED: ATOM     40  O   UNL d   1       3.118  12.416  16.511 -0.00 +0.01    -0.303 OA
DOCKED: ATOM     41  H   UNL d   1       3.781  11.999  15.918 +0.03 -0.01    +0.222 HD
DOCKED: ENDBRANCH  36  40
DOCKED: ENDBRANCH  35  36
DOCKED: ENDBRANCH   5  35
DOCKED: BRANCH   4  42
DOCKED: ATOM     42  O   UNL d   1       1.617  14.500  12.171 -0.06 +0.01    -0.278 OA
DOCKED: BRANCH  42  43
DOCKED: ATOM     43  P   UNL d   1       1.550  14.021  10.651 -0.16 -0.05    +0.473 P 
DOCKED: ATOM     44  O   UNL d   1       2.421  14.726   9.670 -0.17 +0.01    -0.228 OA
DOCKED: BRANCH  43  45
DOCKED: ATOM     45  O   UNL d   1       1.831  12.459  10.764 -0.30 +0.10    -0.303 OA
DOCKED: ATOM     46  H   UNL d   1       1.563  11.987   9.950 -0.48 -0.14    +0.222 HD
DOCKED: ENDBRANCH  43  45
DOCKED: BRANCH  43  47
DOCKED: ATOM     47  O   UNL d   1      -0.020  14.047  10.327 -0.13 +0.02    -0.303 OA
DOCKED: ATOM     48  H   UNL d   1      -0.284  14.959  10.086 +0.05 -0.01    +0.222 HD
DOCKED: ENDBRANCH  43  47
DOCKED: ENDBRANCH  42  43
DOCKED: ENDBRANCH   4  42
DOCKED: TORSDOF 24
DOCKED: TER
DOCKED: ENDMDL
________________________________________________________________________________


	BEGINNING GENETIC ALGORITHM DOCKING 69 of 100
Run: 69 Seed: 394941708 1590195100 [ Run 69 of 100 GA/GALS ]
Beginning LAMARCKIAN GENETIC ALGORITHM (LGA), with a maximum of 25000000 energy evaluations.

Final-Value: -18.822


	FINAL GENETIC ALGORITHM DOCKED STATE
	_______________________________________________


Detailed state:  trans -3.812 3.744 -15.151 quatxyzw -0.213188 0.008603 0.910857 0.353293 center 0.035 0.082 -0.065 ntor 24 25.7061 46.1243 146.3097 2.7607 134.8884 145.0840 -37.2697 -121.8474 14.4219 89.8519 57.9088 -84.5160 160.7729 -175.8647 -111.2683 123.8503 121.8472 -74.7579 47.2611 5.2315 -5.0284 -5.8296 -10.3572 -16.3183
State:	 -3.812   3.744 -15.151  -0.228  0.009  0.974 138.622     25.71   46.12  146.31    2.76  134.89  145.08  -37.27 -121.85   14.42   89.85   57.91  -84.52  160.77 -175.86 -111.27  123.85  121.85  -74.76   47.26    5.23   -5.03   -5.83  -10.36  -16.32

DOCKED: MODEL       69
DOCKED: USER    Run = 69
DOCKED: USER    DPF = D:/Protein_go_brrr/autodock/final/AncA/IHP/dock.dpf
DOCKED: USER  
DOCKED: USER    Estimated Free Energy of Binding    =   +2.70 kcal/mol  [=(1)+(2)+(3)-(4)]
DOCKED: USER    
DOCKED: USER    (1) Final Intermolecular Energy     =   -4.46 kcal/mol
DOCKED: USER        vdW + Hbond + desolv Energy     =   -4.30 kcal/mol
DOCKED: USER        Electrostatic Energy            =   -0.16 kcal/mol
DOCKED: USER    (2) Final Total Internal Energy     =  -14.36 kcal/mol
DOCKED: USER    (3) Torsional Free Energy           =   +7.16 kcal/mol
DOCKED: USER    (4) Unbound System's Energy  [=(2)] =  -14.36 kcal/mol
DOCKED: USER    
DOCKED: USER    
DOCKED: USER    NEWDPF move IHP_ideal_opt.pdbqt
DOCKED: USER    NEWDPF about 0.035000 0.082000 -0.065000
DOCKED: USER    NEWDPF tran0 -3.812473 3.744032 -15.150601
DOCKED: USER    NEWDPF quaternion0 -0.213188 0.008603 0.910857 0.353293
DOCKED: USER    NEWDPF axisangle0 -0.227884 0.009196 0.973645 138.622234
DOCKED: USER    NEWDPF quat0 -0.227884 0.009196 0.973645 138.622234
DOCKED: USER    NEWDPF dihe0 25.71 46.12 146.31 2.76 134.89 145.08 -37.27 -121.85 14.42 89.85 57.91 -84.52 160.77 -175.86 -111.27 123.85 121.85 -74.76 47.26 5.23 -5.03 -5.83 -10.36 -16.32 
DOCKED: USER  keepresnum = 1 
DOCKED: USER  
DOCKED: REMARK  24 active torsions:
DOCKED: REMARK  status: ('A' for Active; 'I' for Inactive)
DOCKED: REMARK    1  A    between atoms: C_1  and  O_7 
DOCKED: REMARK    2  A    between atoms: C_2  and  O_12 
DOCKED: REMARK    3  A    between atoms: C_3  and  O_17 
DOCKED: REMARK    4  A    between atoms: C_4  and  O_22 
DOCKED: REMARK    5  A    between atoms: C_5  and  O_27 
DOCKED: REMARK    6  A    between atoms: C_6  and  O_32 
DOCKED: REMARK    7  A    between atoms: O_7  and  P_8 
DOCKED: REMARK    8  A    between atoms: P_8  and  O_10 
DOCKED: REMARK    9  A    between atoms: P_8  and  O_11 
DOCKED: REMARK   10  A    between atoms: O_12  and  P_13 
DOCKED: REMARK   11  A    between atoms: P_13  and  O_15 
DOCKED: REMARK   12  A    between atoms: P_13  and  O_16 
DOCKED: REMARK   13  A    between atoms: O_17  and  P_18 
DOCKED: REMARK   14  A    between atoms: P_18  and  O_20 
DOCKED: REMARK   15  A    between atoms: P_18  and  O_21 
DOCKED: REMARK   16  A    between atoms: O_22  and  P_23 
DOCKED: REMARK   17  A    between atoms: P_23  and  O_25 
DOCKED: REMARK   18  A    between atoms: P_23  and  O_26 
DOCKED: REMARK   19  A    between atoms: O_27  and  P_28 
DOCKED: REMARK   20  A    between atoms: P_28  and  O_30 
DOCKED: REMARK   21  A    between atoms: P_28  and  O_31 
DOCKED: REMARK   22  A    between atoms: O_32  and  P_33 
DOCKED: REMARK   23  A    between atoms: P_33  and  O_35 
DOCKED: REMARK   24  A    between atoms: P_33  and  O_36 
DOCKED: USER                              x       y       z     vdW  Elec       q    Type
DOCKED: USER                           _______ _______ _______ _____ _____    ______ ____
DOCKED: ROOT
DOCKED: ATOM      1  C   UNL d   1      -5.519   3.492 -15.058 -0.06 +0.01    +0.194 C 
DOCKED: ATOM      2  C   UNL d   1      -5.065   4.953 -15.050 -0.03 +0.03    +0.194 C 
DOCKED: ATOM      3  C   UNL d   1      -3.850   5.164 -14.144 -0.05 +0.04    +0.194 C 
DOCKED: ATOM      4  C   UNL d   1      -2.702   4.204 -14.445 -0.04 +0.02    +0.194 C 
DOCKED: ATOM      5  C   UNL d   1      -3.128   2.748 -14.576 -0.07 +0.01    +0.194 C 
DOCKED: ATOM      6  C   UNL d   1      -4.380   2.543 -15.432 -0.05 +0.00    +0.194 C 
DOCKED: ENDROOT
DOCKED: BRANCH   1   7
DOCKED: ATOM      7  O   UNL d   1      -6.537   3.347 -16.051 -0.03 -0.00    -0.278 OA
DOCKED: BRANCH   7   8
DOCKED: ATOM      8  P   UNL d   1      -7.998   3.907 -15.727 -0.05 -0.00    +0.473 P 
DOCKED: ATOM      9  O   UNL d   1      -9.118   3.142 -16.341 -0.05 +0.03    -0.228 OA
DOCKED: BRANCH   8  10
DOCKED: ATOM     10  O   UNL d   1      -8.057   3.936 -14.133 -0.58 -0.05    -0.303 OA
DOCKED: ATOM     11  H   UNL d   1      -8.888   3.525 -13.829 +0.07 +0.01    +0.222 HD
DOCKED: ENDBRANCH   8  10
DOCKED: BRANCH   8  12
DOCKED: ATOM     12  O   UNL d   1      -7.937   5.454 -16.086 -0.02 -0.02    -0.303 OA
DOCKED: ATOM     13  H   UNL d   1      -7.060   5.735 -16.431 +0.02 +0.02    +0.222 HD
DOCKED: ENDBRANCH   8  12
DOCKED: ENDBRANCH   7   8
DOCKED: ENDBRANCH   1   7
DOCKED: BRANCH   2  14
DOCKED: ATOM     14  O   UNL d   1      -4.712   5.340 -16.384 -0.00 -0.03    -0.278 OA
DOCKED: BRANCH  14  15
DOCKED: ATOM     15  P   UNL d   1      -5.220   6.779 -16.871 +0.01 +0.06    +0.473 P 
DOCKED: ATOM     16  O   UNL d   1      -6.113   6.806 -18.072 +0.00 -0.02    -0.228 OA
DOCKED: BRANCH  15  17
DOCKED: ATOM     17  O   UNL d   1      -5.906   7.405 -15.577 -0.00 -0.07    -0.303 OA
DOCKED: ATOM     18  H   UNL d   1      -5.315   7.346 -14.802 +0.03 +0.08    +0.222 HD
DOCKED: ENDBRANCH  15  17
DOCKED: BRANCH  15  19
DOCKED: ATOM     19  O   UNL d   1      -3.894   7.650 -16.982 +0.00 -0.04    -0.303 OA
DOCKED: ATOM     20  H   UNL d   1      -3.407   7.675 -16.138 +0.01 +0.04    +0.222 HD
DOCKED: ENDBRANCH  15  19
DOCKED: ENDBRANCH  14  15
DOCKED: ENDBRANCH   2  14
DOCKED: BRANCH   6  21
DOCKED: ATOM     21  O   UNL d   1      -4.840   1.218 -15.180 -0.12 +0.01    -0.278 OA
DOCKED: BRANCH  21  22
DOCKED: ATOM     22  P   UNL d   1      -4.658   0.090 -16.294 -0.08 -0.02    +0.473 P 
DOCKED: ATOM     23  O   UNL d   1      -5.647   0.035 -17.409 -0.07 +0.01    -0.228 OA
DOCKED: BRANCH  22  24
DOCKED: ATOM     24  O   UNL d   1      -3.151   0.324 -16.750 -0.07 +0.00    -0.303 OA
DOCKED: ATOM     25  H   UNL d   1      -2.558   0.062 -16.000 +0.09 -0.01    +0.222 HD
DOCKED: ENDBRANCH  22  24
DOCKED: BRANCH  22  26
DOCKED: ATOM     26  O   UNL d   1      -4.532  -1.234 -15.399 +0.03 +0.03    -0.303 OA
DOCKED: ATOM     27  H   UNL d   1      -4.143  -1.001 -14.532 -0.33 -0.06    +0.222 HD
DOCKED: ENDBRANCH  22  26
DOCKED: ENDBRANCH  21  22
DOCKED: ENDBRANCH   6  21
DOCKED: BRANCH   3  28
DOCKED: ATOM     28  O   UNL d   1      -3.336   6.463 -14.412 -0.02 -0.08    -0.278 OA
DOCKED: BRANCH  28  29
DOCKED: ATOM     29  P   UNL d   1      -3.583   7.653 -13.383 -0.04 +0.38    +0.473 P 
DOCKED: ATOM     30  O   UNL d   1      -2.465   7.932 -12.445 -0.58 -0.22    -0.228 OA
DOCKED: BRANCH  29  31
DOCKED: ATOM     31  O   UNL d   1      -3.988   8.821 -14.399 -0.05 -0.17    -0.303 OA
DOCKED: ATOM     32  H   UNL d   1      -4.188   8.419 -15.276 +0.01 +0.07    +0.222 HD
DOCKED: ENDBRANCH  29  31
DOCKED: BRANCH  29  33
DOCKED: ATOM     33  O   UNL d   1      -4.982   7.251 -12.736 -0.12 -0.32    -0.303 OA
DOCKED: ATOM     34  H   UNL d   1      -5.673   7.248 -13.442 +0.04 +0.14    +0.222 HD
DOCKED: ENDBRANCH  29  33
DOCKED: ENDBRANCH  28  29
DOCKED: ENDBRANCH   3  28
DOCKED: BRANCH   5  35
DOCKED: ATOM     35  O   UNL d   1      -2.053   2.087 -15.240 -0.07 -0.00    -0.278 OA
DOCKED: BRANCH  35  36
DOCKED: ATOM     36  P   UNL d   1      -1.294   0.875 -14.534 -0.17 -0.01    +0.473 P 
DOCKED: ATOM     37  O   UNL d   1      -0.414   0.058 -15.426 -0.21 -0.01    -0.228 OA
DOCKED: BRANCH  36  38
DOCKED: ATOM     38  O   UNL d   1      -0.521   1.617 -13.355 -0.25 +0.02    -0.303 OA
DOCKED: ATOM     39  H   UNL d   1       0.034   2.331 -13.735 -0.28 -0.04    +0.222 HD
DOCKED: ENDBRANCH  36  38
DOCKED: BRANCH  36  40
DOCKED: ATOM     40  O   UNL d   1      -2.480   0.115 -13.796 -0.22 +0.05    -0.303 OA
DOCKED: ATOM     41  H   UNL d   1      -3.245  -0.033 -14.394 -0.04 -0.04    +0.222 HD
DOCKED: ENDBRANCH  36  40
DOCKED: ENDBRANCH  35  36
DOCKED: ENDBRANCH   5  35
DOCKED: BRANCH   4  42
DOCKED: ATOM     42  O   UNL d   1      -1.797   4.280 -13.338 -0.06 -0.03    -0.278 OA
DOCKED: BRANCH  42  43
DOCKED: ATOM     43  P   UNL d   1      -0.254   4.568 -13.622 -0.09 +0.04    +0.473 P 
DOCKED: ATOM     44  O   UNL d   1       0.303   4.107 -14.924 -0.10 -0.00    -0.228 OA
DOCKED: BRANCH  43  45
DOCKED: ATOM     45  O   UNL d   1      -0.143   6.138 -13.386 -0.05 -0.05    -0.303 OA
DOCKED: ATOM     46  H   UNL d   1      -1.024   6.561 -13.373 +0.05 +0.05    +0.222 HD
DOCKED: ENDBRANCH  43  45
DOCKED: BRANCH  43  47
DOCKED: ATOM     47  O   UNL d   1       0.473   3.990 -12.315 -0.22 -0.01    -0.303 OA
DOCKED: ATOM     48  H   UNL d   1       0.761   3.070 -12.487 -0.37 -0.01    +0.222 HD
DOCKED: ENDBRANCH  43  47
DOCKED: ENDBRANCH  42  43
DOCKED: ENDBRANCH   4  42
DOCKED: TORSDOF 24
DOCKED: TER
DOCKED: ENDMDL
________________________________________________________________________________


	BEGINNING GENETIC ALGORITHM DOCKING 70 of 100
Run: 70 Seed: 1193134710 875723558 [ Run 70 of 100 GA/GALS ]
Beginning LAMARCKIAN GENETIC ALGORITHM (LGA), with a maximum of 25000000 energy evaluations.

Final-Value: -18.350


	FINAL GENETIC ALGORITHM DOCKED STATE
	_______________________________________________


Detailed state:  trans 16.138 -7.248 -0.168 quatxyzw 0.705973 -0.043761 0.705812 0.038945 center 0.035 0.082 -0.065 ntor 24 83.5454 54.2788 58.1067 81.3245 25.5549 -171.6353 7.0004 -68.4947 58.0370 86.2442 -18.2585 -129.4493 -22.2611 148.3511 9.1394 -110.3234 143.9488 -32.3207 32.9238 -13.7460 -22.9992 -0.8684 -2.6932 164.1155
State:	 16.138  -7.248  -0.168   0.707 -0.044  0.706 175.536     83.55   54.28   58.11   81.32   25.55 -171.64    7.00  -68.49   58.04   86.24  -18.26 -129.45  -22.26  148.35    9.14 -110.32  143.95  -32.32   32.92  -13.75  -23.00   -0.87   -2.69  164.12

DOCKED: MODEL       70
DOCKED: USER    Run = 70
DOCKED: USER    DPF = D:/Protein_go_brrr/autodock/final/AncA/IHP/dock.dpf
DOCKED: USER  
DOCKED: USER    Estimated Free Energy of Binding    =   +2.88 kcal/mol  [=(1)+(2)+(3)-(4)]
DOCKED: USER    
DOCKED: USER    (1) Final Intermolecular Energy     =   -4.28 kcal/mol
DOCKED: USER        vdW + Hbond + desolv Energy     =   -3.94 kcal/mol
DOCKED: USER        Electrostatic Energy            =   -0.34 kcal/mol
DOCKED: USER    (2) Final Total Internal Energy     =  -14.07 kcal/mol
DOCKED: USER    (3) Torsional Free Energy           =   +7.16 kcal/mol
DOCKED: USER    (4) Unbound System's Energy  [=(2)] =  -14.07 kcal/mol
DOCKED: USER    
DOCKED: USER    
DOCKED: USER    NEWDPF move IHP_ideal_opt.pdbqt
DOCKED: USER    NEWDPF about 0.035000 0.082000 -0.065000
DOCKED: USER    NEWDPF tran0 16.137748 -7.247675 -0.167564
DOCKED: USER    NEWDPF quaternion0 0.705973 -0.043761 0.705812 0.038945
DOCKED: USER    NEWDPF axisangle0 0.706509 -0.043794 0.706347 175.536098
DOCKED: USER    NEWDPF quat0 0.706509 -0.043794 0.706347 175.536098
DOCKED: USER    NEWDPF dihe0 83.55 54.28 58.11 81.32 25.55 -171.64 7.00 -68.49 58.04 86.24 -18.26 -129.45 -22.26 148.35 9.14 -110.32 143.95 -32.32 32.92 -13.75 -23.00 -0.87 -2.69 164.12 
DOCKED: USER  keepresnum = 1 
DOCKED: USER  
DOCKED: REMARK  24 active torsions:
DOCKED: REMARK  status: ('A' for Active; 'I' for Inactive)
DOCKED: REMARK    1  A    between atoms: C_1  and  O_7 
DOCKED: REMARK    2  A    between atoms: C_2  and  O_12 
DOCKED: REMARK    3  A    between atoms: C_3  and  O_17 
DOCKED: REMARK    4  A    between atoms: C_4  and  O_22 
DOCKED: REMARK    5  A    between atoms: C_5  and  O_27 
DOCKED: REMARK    6  A    between atoms: C_6  and  O_32 
DOCKED: REMARK    7  A    between atoms: O_7  and  P_8 
DOCKED: REMARK    8  A    between atoms: P_8  and  O_10 
DOCKED: REMARK    9  A    between atoms: P_8  and  O_11 
DOCKED: REMARK   10  A    between atoms: O_12  and  P_13 
DOCKED: REMARK   11  A    between atoms: P_13  and  O_15 
DOCKED: REMARK   12  A    between atoms: P_13  and  O_16 
DOCKED: REMARK   13  A    between atoms: O_17  and  P_18 
DOCKED: REMARK   14  A    between atoms: P_18  and  O_20 
DOCKED: REMARK   15  A    between atoms: P_18  and  O_21 
DOCKED: REMARK   16  A    between atoms: O_22  and  P_23 
DOCKED: REMARK   17  A    between atoms: P_23  and  O_25 
DOCKED: REMARK   18  A    between atoms: P_23  and  O_26 
DOCKED: REMARK   19  A    between atoms: O_27  and  P_28 
DOCKED: REMARK   20  A    between atoms: P_28  and  O_30 
DOCKED: REMARK   21  A    between atoms: P_28  and  O_31 
DOCKED: REMARK   22  A    between atoms: O_32  and  P_33 
DOCKED: REMARK   23  A    between atoms: P_33  and  O_35 
DOCKED: REMARK   24  A    between atoms: P_33  and  O_36 
DOCKED: USER                              x       y       z     vdW  Elec       q    Type
DOCKED: USER                           _______ _______ _______ _____ _____    ______ ____
DOCKED: ROOT
DOCKED: ATOM      1  C   UNL d   1      16.935  -6.517   1.180 -0.08 +0.06    +0.194 C 
DOCKED: ATOM      2  C   UNL d   1      16.571  -5.571   0.035 -0.16 +0.08    +0.194 C 
DOCKED: ATOM      3  C   UNL d   1      16.882  -6.188  -1.331 -0.17 +0.07    +0.194 C 
DOCKED: ATOM      4  C   UNL d   1      16.276  -7.577  -1.515 -0.14 +0.05    +0.194 C 
DOCKED: ATOM      5  C   UNL d   1      16.516  -8.519  -0.343 -0.11 +0.06    +0.194 C 
DOCKED: ATOM      6  C   UNL d   1      16.264  -7.883   1.025 -0.10 +0.07    +0.194 C 
DOCKED: ENDROOT
DOCKED: BRANCH   1   7
DOCKED: ATOM      7  O   UNL d   1      16.458  -5.945   2.400 -0.04 -0.09    -0.278 OA
DOCKED: BRANCH   7   8
DOCKED: ATOM      8  P   UNL d   1      17.427  -4.964   3.208 +0.00 +0.14    +0.473 P 
DOCKED: ATOM      9  O   UNL d   1      18.398  -4.207   2.372 -0.02 -0.09    -0.228 OA
DOCKED: BRANCH   8  10
DOCKED: ATOM     10  O   UNL d   1      16.431  -4.022   4.023 -0.02 -0.08    -0.303 OA
DOCKED: ATOM     11  H   UNL d   1      16.019  -3.379   3.416 +0.07 +0.07    +0.222 HD
DOCKED: ENDBRANCH   8  10
DOCKED: BRANCH   8  12
DOCKED: ATOM     12  O   UNL d   1      18.055  -5.861   4.360 -0.00 -0.06    -0.303 OA
DOCKED: ATOM     13  H   UNL d   1      17.849  -6.817   4.259 +0.01 +0.05    +0.222 HD
DOCKED: ENDBRANCH   8  12
DOCKED: ENDBRANCH   7   8
DOCKED: ENDBRANCH   1   7
DOCKED: BRANCH   2  14
DOCKED: ATOM     14  O   UNL d   1      15.169  -5.280   0.096 -0.20 -0.12    -0.278 OA
DOCKED: BRANCH  14  15
DOCKED: ATOM     15  P   UNL d   1      14.765  -3.749   0.334 -0.27 +0.22    +0.473 P 
DOCKED: ATOM     16  O   UNL d   1      13.419  -3.495   0.935 -0.33 -0.07    -0.228 OA
DOCKED: BRANCH  15  17
DOCKED: ATOM     17  O   UNL d   1      15.956  -3.167   1.217 -0.16 -0.18    -0.303 OA
DOCKED: ATOM     18  H   UNL d   1      16.268  -3.827   1.865 +0.07 +0.10    +0.222 HD
DOCKED: ENDBRANCH  15  17
DOCKED: BRANCH  15  19
DOCKED: ATOM     19  O   UNL d   1      15.034  -3.046  -1.068 -0.17 -0.20    -0.303 OA
DOCKED: ATOM     20  H   UNL d   1      15.038  -3.690  -1.800 -0.32 +0.10    +0.222 HD
DOCKED: ENDBRANCH  15  19
DOCKED: ENDBRANCH  14  15
DOCKED: ENDBRANCH   2  14
DOCKED: BRANCH   6  21
DOCKED: ATOM     21  O   UNL d   1      16.849  -8.748   1.996 -0.04 -0.08    -0.278 OA
DOCKED: BRANCH  21  22
DOCKED: ATOM     22  P   UNL d   1      15.962  -9.299   3.203 -0.04 +0.17    +0.473 P 
DOCKED: ATOM     23  O   UNL d   1      14.552  -9.692   2.918 -0.09 -0.15    -0.228 OA
DOCKED: BRANCH  22  24
DOCKED: ATOM     24  O   UNL d   1      16.879 -10.468   3.773 -0.00 -0.07    -0.303 OA
DOCKED: ATOM     25  H   UNL d   1      17.279 -10.949   3.005 +0.01 +0.05    +0.222 HD
DOCKED: ENDBRANCH  22  24
DOCKED: BRANCH  22  26
DOCKED: ATOM     26  O   UNL d   1      16.164  -8.152   4.305 -0.01 -0.08    -0.303 OA
DOCKED: ATOM     27  H   UNL d   1      16.555  -7.362   3.879 +0.02 +0.06    +0.222 HD
DOCKED: ENDBRANCH  22  26
DOCKED: ENDBRANCH  21  22
DOCKED: ENDBRANCH   6  21
DOCKED: BRANCH   3  28
DOCKED: ATOM     28  O   UNL d   1      16.266  -5.372  -2.319 -0.19 -0.09    -0.278 OA
DOCKED: BRANCH  28  29
DOCKED: ATOM     29  P   UNL d   1      17.155  -4.476  -3.290 -0.09 +0.31    +0.473 P 
DOCKED: ATOM     30  O   UNL d   1      16.664  -3.091  -3.511 -0.54 -0.34    -0.228 OA
DOCKED: BRANCH  29  31
DOCKED: ATOM     31  O   UNL d   1      18.584  -4.637  -2.589 -0.08 -0.23    -0.303 OA
DOCKED: ATOM     32  H   UNL d   1      18.816  -5.594  -2.566 +0.04 +0.10    +0.222 HD
DOCKED: ENDBRANCH  29  31
DOCKED: BRANCH  29  33
DOCKED: ATOM     33  O   UNL d   1      17.286  -5.406  -4.576 -0.04 -0.03    -0.303 OA
DOCKED: ATOM     34  H   UNL d   1      16.930  -6.302  -4.362 -0.41 -0.04    +0.222 HD
DOCKED: ENDBRANCH  29  33
DOCKED: ENDBRANCH  28  29
DOCKED: ENDBRANCH   3  28
DOCKED: BRANCH   5  35
DOCKED: ATOM     35  O   UNL d   1      15.570  -9.575  -0.496 -0.12 -0.10    -0.278 OA
DOCKED: BRANCH  35  36
DOCKED: ATOM     36  P   UNL d   1      16.051 -11.096  -0.476 -0.04 +0.12    +0.473 P 
DOCKED: ATOM     37  O   UNL d   1      15.009 -12.107  -0.836 -0.07 -0.05    -0.228 OA
DOCKED: BRANCH  36  38
DOCKED: ATOM     38  O   UNL d   1      17.296 -11.057  -1.468 -0.01 -0.05    -0.303 OA
DOCKED: ATOM     39  H   UNL d   1      17.299 -10.200  -1.946 +0.04 +0.03    +0.222 HD
DOCKED: ENDBRANCH  36  38
DOCKED: BRANCH  36  40
DOCKED: ATOM     40  O   UNL d   1      16.713 -11.224   0.965 -0.02 -0.08    -0.303 OA
DOCKED: ATOM     41  H   UNL d   1      16.157 -10.807   1.660 +0.02 +0.08    +0.222 HD
DOCKED: ENDBRANCH  36  40
DOCKED: ENDBRANCH  35  36
DOCKED: ENDBRANCH   5  35
DOCKED: BRANCH   4  42
DOCKED: ATOM     42  O   UNL d   1      16.910  -8.157  -2.660 -0.14 -0.03    -0.278 OA
DOCKED: BRANCH  42  43
DOCKED: ATOM     43  P   UNL d   1      18.503  -8.207  -2.716 -0.01 +0.08    +0.473 P 
DOCKED: ATOM     44  O   UNL d   1      19.244  -7.929  -1.454 -0.01 -0.05    -0.228 OA
DOCKED: BRANCH  43  45
DOCKED: ATOM     45  O   UNL d   1      18.786  -9.646  -3.333 -0.01 -0.04    -0.303 OA
DOCKED: ATOM     46  H   UNL d   1      18.888 -10.322  -2.633 +0.02 +0.03    +0.222 HD
DOCKED: ENDBRANCH  43  45
DOCKED: BRANCH  43  47
DOCKED: ATOM     47  O   UNL d   1      18.857  -7.248  -3.951 -0.02 -0.05    -0.303 OA
DOCKED: ATOM     48  H   UNL d   1      18.375  -6.401  -3.849 +0.04 +0.05    +0.222 HD
DOCKED: ENDBRANCH  43  47
DOCKED: ENDBRANCH  42  43
DOCKED: ENDBRANCH   4  42
DOCKED: TORSDOF 24
DOCKED: TER
DOCKED: ENDMDL
________________________________________________________________________________


	BEGINNING GENETIC ALGORITHM DOCKING 71 of 100
Run: 71 Seed: 1223678185 1912534690 [ Run 71 of 100 GA/GALS ]
Beginning LAMARCKIAN GENETIC ALGORITHM (LGA), with a maximum of 25000000 energy evaluations.

Final-Value: -19.243


	FINAL GENETIC ALGORITHM DOCKED STATE
	_______________________________________________


Detailed state:  trans -4.831 11.474 -5.852 quatxyzw -0.711012 -0.207833 0.279965 0.610644 center 0.035 0.082 -0.065 ntor 24 106.4614 101.1082 60.6780 99.1865 -28.2020 108.2934 34.3204 -68.9464 70.3586 61.6697 143.9802 137.7351 -66.7310 -80.3759 74.8870 92.3968 117.7743 -172.9752 -152.7167 -18.5988 9.8633 -28.1238 -16.1312 14.2637
State:	 -4.831  11.474  -5.852  -0.898 -0.262  0.354 104.728    106.46  101.11   60.68   99.19  -28.20  108.29   34.32  -68.95   70.36   61.67  143.98  137.74  -66.73  -80.38   74.89   92.40  117.77 -172.98 -152.72  -18.60    9.86  -28.12  -16.13   14.26

DOCKED: MODEL       71
DOCKED: USER    Run = 71
DOCKED: USER    DPF = D:/Protein_go_brrr/autodock/final/AncA/IHP/dock.dpf
DOCKED: USER  
DOCKED: USER    Estimated Free Energy of Binding    =   +2.45 kcal/mol  [=(1)+(2)+(3)-(4)]
DOCKED: USER    
DOCKED: USER    (1) Final Intermolecular Energy     =   -4.71 kcal/mol
DOCKED: USER        vdW + Hbond + desolv Energy     =   -3.96 kcal/mol
DOCKED: USER        Electrostatic Energy            =   -0.75 kcal/mol
DOCKED: USER    (2) Final Total Internal Energy     =  -14.53 kcal/mol
DOCKED: USER    (3) Torsional Free Energy           =   +7.16 kcal/mol
DOCKED: USER    (4) Unbound System's Energy  [=(2)] =  -14.53 kcal/mol
DOCKED: USER    
DOCKED: USER    
DOCKED: USER    NEWDPF move IHP_ideal_opt.pdbqt
DOCKED: USER    NEWDPF about 0.035000 0.082000 -0.065000
DOCKED: USER    NEWDPF tran0 -4.831453 11.474073 -5.852483
DOCKED: USER    NEWDPF quaternion0 -0.711012 -0.207833 0.279965 0.610644
DOCKED: USER    NEWDPF axisangle0 -0.897850 -0.262447 0.353534 104.727778
DOCKED: USER    NEWDPF quat0 -0.897850 -0.262447 0.353534 104.727778
DOCKED: USER    NEWDPF dihe0 106.46 101.11 60.68 99.19 -28.20 108.29 34.32 -68.95 70.36 61.67 143.98 137.74 -66.73 -80.38 74.89 92.40 117.77 -172.98 -152.72 -18.60 9.86 -28.12 -16.13 14.26 
DOCKED: USER  keepresnum = 1 
DOCKED: USER  
DOCKED: REMARK  24 active torsions:
DOCKED: REMARK  status: ('A' for Active; 'I' for Inactive)
DOCKED: REMARK    1  A    between atoms: C_1  and  O_7 
DOCKED: REMARK    2  A    between atoms: C_2  and  O_12 
DOCKED: REMARK    3  A    between atoms: C_3  and  O_17 
DOCKED: REMARK    4  A    between atoms: C_4  and  O_22 
DOCKED: REMARK    5  A    between atoms: C_5  and  O_27 
DOCKED: REMARK    6  A    between atoms: C_6  and  O_32 
DOCKED: REMARK    7  A    between atoms: O_7  and  P_8 
DOCKED: REMARK    8  A    between atoms: P_8  and  O_10 
DOCKED: REMARK    9  A    between atoms: P_8  and  O_11 
DOCKED: REMARK   10  A    between atoms: O_12  and  P_13 
DOCKED: REMARK   11  A    between atoms: P_13  and  O_15 
DOCKED: REMARK   12  A    between atoms: P_13  and  O_16 
DOCKED: REMARK   13  A    between atoms: O_17  and  P_18 
DOCKED: REMARK   14  A    between atoms: P_18  and  O_20 
DOCKED: REMARK   15  A    between atoms: P_18  and  O_21 
DOCKED: REMARK   16  A    between atoms: O_22  and  P_23 
DOCKED: REMARK   17  A    between atoms: P_23  and  O_25 
DOCKED: REMARK   18  A    between atoms: P_23  and  O_26 
DOCKED: REMARK   19  A    between atoms: O_27  and  P_28 
DOCKED: REMARK   20  A    between atoms: P_28  and  O_30 
DOCKED: REMARK   21  A    between atoms: P_28  and  O_31 
DOCKED: REMARK   22  A    between atoms: O_32  and  P_33 
DOCKED: REMARK   23  A    between atoms: P_33  and  O_35 
DOCKED: REMARK   24  A    between atoms: P_33  and  O_36 
DOCKED: USER                              x       y       z     vdW  Elec       q    Type
DOCKED: USER                           _______ _______ _______ _____ _____    ______ ____
DOCKED: ROOT
DOCKED: ATOM      1  C   UNL d   1      -4.563  10.786  -7.414 -0.09 -0.00    +0.194 C 
DOCKED: ATOM      2  C   UNL d   1      -5.967  11.342  -7.169 -0.11 -0.02    +0.194 C 
DOCKED: ATOM      3  C   UNL d   1      -6.494  10.961  -5.784 -0.10 -0.12    +0.194 C 
DOCKED: ATOM      4  C   UNL d   1      -5.528  11.314  -4.655 -0.10 -0.12    +0.194 C 
DOCKED: ATOM      5  C   UNL d   1      -4.090  10.879  -4.910 +0.05 -0.19    +0.194 C 
DOCKED: ATOM      6  C   UNL d   1      -3.584  11.205  -6.317 -0.12 -0.10    +0.194 C 
DOCKED: ENDROOT
DOCKED: BRANCH   1   7
DOCKED: ATOM      7  O   UNL d   1      -4.079  11.325  -8.646 -0.48 -0.25    -0.278 OA
DOCKED: BRANCH   7   8
DOCKED: ATOM      8  P   UNL d   1      -3.381  12.762  -8.623 -0.01 +0.10    +0.473 P 
DOCKED: ATOM      9  O   UNL d   1      -3.611  13.556  -7.386 -0.00 +0.01    -0.228 OA
DOCKED: BRANCH   8  10
DOCKED: ATOM     10  O   UNL d   1      -1.840  12.448  -8.890 -0.02 -0.00    -0.303 OA
DOCKED: ATOM     11  H   UNL d   1      -1.534  11.759  -8.271 +0.04 -0.05    +0.222 HD
DOCKED: ENDBRANCH   8  10
DOCKED: BRANCH   8  12
DOCKED: ATOM     12  O   UNL d   1      -3.819  13.456  -9.984 -0.02 -0.09    -0.303 OA
DOCKED: ATOM     13  H   UNL d   1      -4.795  13.499 -10.098 +0.01 +0.07    +0.222 HD
DOCKED: ENDBRANCH   8  12
DOCKED: ENDBRANCH   7   8
DOCKED: ENDBRANCH   1   7
DOCKED: BRANCH   2  14
DOCKED: ATOM     14  O   UNL d   1      -5.926  12.772  -7.265 -0.01 -0.00    -0.278 OA
DOCKED: BRANCH  14  15
DOCKED: ATOM     15  P   UNL d   1      -6.711  13.429  -8.496 +0.01 +0.06    +0.473 P 
DOCKED: ATOM     16  O   UNL d   1      -6.911  12.567  -9.703 -0.02 -0.08    -0.228 OA
DOCKED: BRANCH  15  17
DOCKED: ATOM     17  O   UNL d   1      -8.084  13.927  -7.860 +0.01 -0.01    -0.303 OA
DOCKED: ATOM     18  H   UNL d   1      -8.390  13.317  -7.162 +0.02 -0.00    +0.222 HD
DOCKED: ENDBRANCH  15  17
DOCKED: BRANCH  15  19
DOCKED: ATOM     19  O   UNL d   1      -5.960  14.807  -8.755 +0.00 -0.03    -0.303 OA
DOCKED: ATOM     20  H   UNL d   1      -4.995  14.716  -8.655 +0.01 +0.02    +0.222 HD
DOCKED: ENDBRANCH  15  19
DOCKED: ENDBRANCH  14  15
DOCKED: ENDBRANCH   2  14
DOCKED: BRANCH   6  21
DOCKED: ATOM     21  O   UNL d   1      -2.390  10.450  -6.511 -0.15 +0.23    -0.278 OA
DOCKED: BRANCH  21  22
DOCKED: ATOM     22  P   UNL d   1      -0.976  11.102  -6.163 -0.08 -0.45    +0.473 P 
DOCKED: ATOM     23  O   UNL d   1      -0.283  10.659  -4.919 -0.27 +0.26    -0.228 OA
DOCKED: BRANCH  22  24
DOCKED: ATOM     24  O   UNL d   1      -0.162  10.849  -7.507 -0.08 +0.42    -0.303 OA
DOCKED: ATOM     25  H   UNL d   1       0.350  10.007  -7.403 -0.35 -0.62    +0.222 HD
DOCKED: ENDBRANCH  22  24
DOCKED: BRANCH  22  26
DOCKED: ATOM     26  O   UNL d   1      -1.306  12.668  -6.264 -0.03 +0.12    -0.303 OA
DOCKED: ATOM     27  H   UNL d   1      -1.525  12.891  -7.192 +0.03 -0.06    +0.222 HD
DOCKED: ENDBRANCH  22  26
DOCKED: ENDBRANCH  21  22
DOCKED: ENDBRANCH   6  21
DOCKED: BRANCH   3  28
DOCKED: ATOM     28  O   UNL d   1      -7.659  11.739  -5.540 -0.06 +0.08    -0.278 OA
DOCKED: BRANCH  28  29
DOCKED: ATOM     29  P   UNL d   1      -9.068  11.280  -6.123 -0.06 -0.09    +0.473 P 
DOCKED: ATOM     30  O   UNL d   1      -9.619  10.023  -5.554 -0.12 +0.10    -0.228 OA
DOCKED: BRANCH  29  31
DOCKED: ATOM     31  O   UNL d   1      -9.917  12.616  -5.887 -0.01 +0.02    -0.303 OA
DOCKED: ATOM     32  H   UNL d   1      -9.781  13.215  -6.657 +0.01 -0.00    +0.222 HD
DOCKED: ENDBRANCH  29  31
DOCKED: BRANCH  29  33
DOCKED: ATOM     33  O   UNL d   1      -8.804  11.304  -7.693 -0.02 +0.00    -0.303 OA
DOCKED: ATOM     34  H   UNL d   1      -7.932  11.736  -7.865 +0.03 +0.01    +0.222 HD
DOCKED: ENDBRANCH  29  33
DOCKED: ENDBRANCH  28  29
DOCKED: ENDBRANCH   3  28
DOCKED: BRANCH   5  35
DOCKED: ATOM     35  O   UNL d   1      -3.292  11.625  -3.993 -0.10 +0.15    -0.278 OA
DOCKED: BRANCH  35  36
DOCKED: ATOM     36  P   UNL d   1      -2.498  10.881  -2.827 -0.18 -0.23    +0.473 P 
DOCKED: ATOM     37  O   UNL d   1      -1.391  11.665  -2.198 -0.38 +0.05    -0.228 OA
DOCKED: BRANCH  36  38
DOCKED: ATOM     38  O   UNL d   1      -3.675  10.492  -1.828 -0.24 +0.11    -0.303 OA
DOCKED: ATOM     39  H   UNL d   1      -4.528  10.805  -2.199 +0.09 -0.08    +0.222 HD
DOCKED: ENDBRANCH  36  38
DOCKED: BRANCH  36  40
DOCKED: ATOM     40  O   UNL d   1      -2.106   9.499  -3.511 -0.21 +0.34    -0.303 OA
DOCKED: ATOM     41  H   UNL d   1      -2.139   9.556  -4.492 -0.24 -0.38    +0.222 HD
DOCKED: ENDBRANCH  36  40
DOCKED: ENDBRANCH  35  36
DOCKED: ENDBRANCH   5  35
DOCKED: BRANCH   4  42
DOCKED: ATOM     42  O   UNL d   1      -5.979  10.616  -3.490 -0.15 +0.19    -0.278 OA
DOCKED: BRANCH  42  43
DOCKED: ATOM     43  P   UNL d   1      -6.891  11.388  -2.433 -0.09 -0.12    +0.473 P 
DOCKED: ATOM     44  O   UNL d   1      -6.457  11.370  -1.008 -0.10 +0.03    -0.228 OA
DOCKED: BRANCH  43  45
DOCKED: ATOM     45  O   UNL d   1      -6.997  12.846  -3.063 -0.02 +0.05    -0.303 OA
DOCKED: ATOM     46  H   UNL d   1      -7.554  12.850  -3.866 +0.03 -0.04    +0.222 HD
DOCKED: ENDBRANCH  43  45
DOCKED: BRANCH  43  47
DOCKED: ATOM     47  O   UNL d   1      -8.356  10.804  -2.718 -0.07 +0.11    -0.303 OA
DOCKED: ATOM     48  H   UNL d   1      -8.502  10.754  -3.685 -0.21 -0.11    +0.222 HD
DOCKED: ENDBRANCH  43  47
DOCKED: ENDBRANCH  42  43
DOCKED: ENDBRANCH   4  42
DOCKED: TORSDOF 24
DOCKED: TER
DOCKED: ENDMDL
________________________________________________________________________________


	BEGINNING GENETIC ALGORITHM DOCKING 72 of 100
Run: 72 Seed: 1114175344 620013657 [ Run 72 of 100 GA/GALS ]
Beginning LAMARCKIAN GENETIC ALGORITHM (LGA), with a maximum of 25000000 energy evaluations.

Final-Value: -15.514


	FINAL GENETIC ALGORITHM DOCKED STATE
	_______________________________________________


Detailed state:  trans 0.385 15.158 10.455 quatxyzw 0.872656 0.374702 0.186463 0.251600 center 0.035 0.082 -0.065 ntor 24 -140.1277 64.7695 168.7009 -2.5305 43.4424 -93.9090 -84.9850 -12.3371 -63.9942 133.3849 -177.4366 148.5060 23.2942 177.9400 22.2560 -3.8071 5.1990 167.1822 -131.7674 14.8668 154.5934 -1.5083 133.9809 -172.4477
State:	  0.385  15.158  10.455   0.902  0.387  0.193 150.856   -140.13   64.77  168.70   -2.53   43.44  -93.91  -84.99  -12.34  -63.99  133.38 -177.44  148.51   23.29  177.94   22.26   -3.81    5.20  167.18 -131.77   14.87  154.59   -1.51  133.98 -172.45

DOCKED: MODEL       72
DOCKED: USER    Run = 72
DOCKED: USER    DPF = D:/Protein_go_brrr/autodock/final/AncA/IHP/dock.dpf
DOCKED: USER  
DOCKED: USER    Estimated Free Energy of Binding    =   +4.09 kcal/mol  [=(1)+(2)+(3)-(4)]
DOCKED: USER    
DOCKED: USER    (1) Final Intermolecular Energy     =   -3.06 kcal/mol
DOCKED: USER        vdW + Hbond + desolv Energy     =   -2.95 kcal/mol
DOCKED: USER        Electrostatic Energy            =   -0.11 kcal/mol
DOCKED: USER    (2) Final Total Internal Energy     =  -12.45 kcal/mol
DOCKED: USER    (3) Torsional Free Energy           =   +7.16 kcal/mol
DOCKED: USER    (4) Unbound System's Energy  [=(2)] =  -12.45 kcal/mol
DOCKED: USER    
DOCKED: USER    
DOCKED: USER    NEWDPF move IHP_ideal_opt.pdbqt
DOCKED: USER    NEWDPF about 0.035000 0.082000 -0.065000
DOCKED: USER    NEWDPF tran0 0.385337 15.158121 10.455226
DOCKED: USER    NEWDPF quaternion0 0.872656 0.374702 0.186463 0.251600
DOCKED: USER    NEWDPF axisangle0 0.901661 0.387156 0.192660 150.855630
DOCKED: USER    NEWDPF quat0 0.901661 0.387156 0.192660 150.855630
DOCKED: USER    NEWDPF dihe0 -140.13 64.77 168.70 -2.53 43.44 -93.91 -84.99 -12.34 -63.99 133.38 -177.44 148.51 23.29 177.94 22.26 -3.81 5.20 167.18 -131.77 14.87 154.59 -1.51 133.98 -172.45 
DOCKED: USER  keepresnum = 1 
DOCKED: USER  
DOCKED: REMARK  24 active torsions:
DOCKED: REMARK  status: ('A' for Active; 'I' for Inactive)
DOCKED: REMARK    1  A    between atoms: C_1  and  O_7 
DOCKED: REMARK    2  A    between atoms: C_2  and  O_12 
DOCKED: REMARK    3  A    between atoms: C_3  and  O_17 
DOCKED: REMARK    4  A    between atoms: C_4  and  O_22 
DOCKED: REMARK    5  A    between atoms: C_5  and  O_27 
DOCKED: REMARK    6  A    between atoms: C_6  and  O_32 
DOCKED: REMARK    7  A    between atoms: O_7  and  P_8 
DOCKED: REMARK    8  A    between atoms: P_8  and  O_10 
DOCKED: REMARK    9  A    between atoms: P_8  and  O_11 
DOCKED: REMARK   10  A    between atoms: O_12  and  P_13 
DOCKED: REMARK   11  A    between atoms: P_13  and  O_15 
DOCKED: REMARK   12  A    between atoms: P_13  and  O_16 
DOCKED: REMARK   13  A    between atoms: O_17  and  P_18 
DOCKED: REMARK   14  A    between atoms: P_18  and  O_20 
DOCKED: REMARK   15  A    between atoms: P_18  and  O_21 
DOCKED: REMARK   16  A    between atoms: O_22  and  P_23 
DOCKED: REMARK   17  A    between atoms: P_23  and  O_25 
DOCKED: REMARK   18  A    between atoms: P_23  and  O_26 
DOCKED: REMARK   19  A    between atoms: O_27  and  P_28 
DOCKED: REMARK   20  A    between atoms: P_28  and  O_30 
DOCKED: REMARK   21  A    between atoms: P_28  and  O_31 
DOCKED: REMARK   22  A    between atoms: O_32  and  P_33 
DOCKED: REMARK   23  A    between atoms: P_33  and  O_35 
DOCKED: REMARK   24  A    between atoms: P_33  and  O_36 
DOCKED: USER                              x       y       z     vdW  Elec       q    Type
DOCKED: USER                           _______ _______ _______ _____ _____    ______ ____
DOCKED: ROOT
DOCKED: ATOM      1  C   UNL d   1       0.644  16.844  10.729 -0.01 -0.00    +0.194 C 
DOCKED: ATOM      2  C   UNL d   1      -0.819  16.408  10.625 -0.02 -0.00    +0.194 C 
DOCKED: ATOM      3  C   UNL d   1      -1.034  15.415   9.481 -0.05 -0.00    +0.194 C 
DOCKED: ATOM      4  C   UNL d   1      -0.079  14.225   9.529 -0.18 -0.01    +0.194 C 
DOCKED: ATOM      5  C   UNL d   1       1.379  14.608   9.747 -0.17 -0.02    +0.194 C 
DOCKED: ATOM      6  C   UNL d   1       1.588  15.648  10.851 -0.06 -0.01    +0.194 C 
DOCKED: ENDROOT
DOCKED: BRANCH   1   7
DOCKED: ATOM      7  O   UNL d   1       0.792  17.627  11.916 -0.00 +0.00    -0.278 OA
DOCKED: BRANCH   7   8
DOCKED: ATOM      8  P   UNL d   1       1.525  16.967  13.174 +0.01 -0.00    +0.473 P 
DOCKED: ATOM      9  O   UNL d   1       3.004  16.853  13.053 -0.01 +0.00    -0.228 OA
DOCKED: BRANCH   8  10
DOCKED: ATOM     10  O   UNL d   1       1.062  17.868  14.407 +0.00 -0.00    -0.303 OA
DOCKED: ATOM     11  H   UNL d   1       0.094  17.809  14.509 +0.00 +0.00    +0.222 HD
DOCKED: ENDBRANCH   8  10
DOCKED: BRANCH   8  12
DOCKED: ATOM     12  O   UNL d   1       0.744  15.610  13.442 -0.00 +0.01    -0.303 OA
DOCKED: ATOM     13  H   UNL d   1       0.225  15.303  12.664 +0.03 -0.01    +0.222 HD
DOCKED: ENDBRANCH   8  12
DOCKED: ENDBRANCH   7   8
DOCKED: ENDBRANCH   1   7
DOCKED: BRANCH   2  14
DOCKED: ATOM     14  O   UNL d   1      -1.207  15.780  11.853 -0.01 +0.00    -0.278 OA
DOCKED: BRANCH  14  15
DOCKED: ATOM     15  P   UNL d   1      -2.727  15.988  12.314 -0.00 +0.01    +0.473 P 
DOCKED: ATOM     16  O   UNL d   1      -2.943  16.516  13.698 -0.00 -0.00    -0.228 OA
DOCKED: BRANCH  15  17
DOCKED: ATOM     17  O   UNL d   1      -3.347  16.931  11.190 -0.00 -0.01    -0.303 OA
DOCKED: ATOM     18  H   UNL d   1      -3.484  16.441  10.356 +0.01 +0.01    +0.222 HD
DOCKED: ENDBRANCH  15  17
DOCKED: BRANCH  15  19
DOCKED: ATOM     19  O   UNL d   1      -3.433  14.599  11.992 -0.01 -0.01    -0.303 OA
DOCKED: ATOM     20  H   UNL d   1      -3.414  14.398  11.038 +0.03 +0.01    +0.222 HD
DOCKED: ENDBRANCH  15  19
DOCKED: ENDBRANCH  14  15
DOCKED: ENDBRANCH   2  14
DOCKED: BRANCH   6  21
DOCKED: ATOM     21  O   UNL d   1       2.916  16.146  10.702 -0.06 +0.00    -0.278 OA
DOCKED: BRANCH  21  22
DOCKED: ATOM     22  P   UNL d   1       3.401  16.695   9.285 -0.06 -0.02    +0.473 P 
DOCKED: ATOM     23  O   UNL d   1       2.566  17.727   8.605 -0.02 +0.01    -0.228 OA
DOCKED: BRANCH  22  24
DOCKED: ATOM     24  O   UNL d   1       4.893  17.149   9.605 -0.10 +0.02    -0.303 OA
DOCKED: ATOM     25  H   UNL d   1       4.962  17.314  10.579 +0.04 -0.01    +0.222 HD
DOCKED: ENDBRANCH  22  24
DOCKED: BRANCH  22  26
DOCKED: ATOM     26  O   UNL d   1       3.637  15.333   8.472 -0.12 +0.02    -0.303 OA
DOCKED: ATOM     27  H   UNL d   1       2.816  15.100   7.991 +0.08 -0.02    +0.222 HD
DOCKED: ENDBRANCH  22  26
DOCKED: ENDBRANCH  21  22
DOCKED: ENDBRANCH   6  21
DOCKED: BRANCH   3  28
DOCKED: ATOM     28  O   UNL d   1      -2.335  14.861   9.633 -0.04 -0.01    -0.278 OA
DOCKED: BRANCH  28  29
DOCKED: ATOM     29  P   UNL d   1      -3.498  15.250   8.617 -0.01 +0.02    +0.473 P 
DOCKED: ATOM     30  O   UNL d   1      -3.402  16.607   8.021 -0.01 -0.01    -0.228 OA
DOCKED: BRANCH  29  31
DOCKED: ATOM     31  O   UNL d   1      -3.417  14.007   7.611 -0.06 -0.02    -0.303 OA
DOCKED: ATOM     32  H   UNL d   1      -2.477  13.720   7.543 +0.07 +0.01    +0.222 HD
DOCKED: ENDBRANCH  29  31
DOCKED: BRANCH  29  33
DOCKED: ATOM     33  O   UNL d   1      -4.805  14.928   9.467 -0.01 -0.02    -0.303 OA
DOCKED: ATOM     34  H   UNL d   1      -4.702  15.312  10.372 +0.01 +0.01    +0.222 HD
DOCKED: ENDBRANCH  29  33
DOCKED: ENDBRANCH  28  29
DOCKED: ENDBRANCH   3  28
DOCKED: BRANCH   5  35
DOCKED: ATOM     35  O   UNL d   1       2.035  13.413  10.166 -0.22 +0.05    -0.278 OA
DOCKED: BRANCH  35  36
DOCKED: ATOM     36  P   UNL d   1       2.241  13.111  11.719 -0.15 -0.06    +0.473 P 
DOCKED: ATOM     37  O   UNL d   1       1.021  13.254  12.572 -0.12 +0.03    -0.228 OA
DOCKED: BRANCH  36  38
DOCKED: ATOM     38  O   UNL d   1       2.848  11.639  11.687 -0.38 +0.08    -0.303 OA
DOCKED: ATOM     39  H   UNL d   1       2.389  11.088  12.357 -0.39 -0.13    +0.222 HD
DOCKED: ENDBRANCH  36  38
DOCKED: BRANCH  36  40
DOCKED: ATOM     40  O   UNL d   1       3.487  14.031  12.082 -0.13 -0.00    -0.303 OA
DOCKED: ATOM     41  H   UNL d   1       3.205  14.917  12.400 +0.05 -0.00    +0.222 HD
DOCKED: ENDBRANCH  36  40
DOCKED: ENDBRANCH  35  36
DOCKED: ENDBRANCH   5  35
DOCKED: BRANCH   4  42
DOCKED: ATOM     42  O   UNL d   1      -0.158  13.578   8.255 -0.24 +0.03    -0.278 OA
DOCKED: BRANCH  42  43
DOCKED: ATOM     43  P   UNL d   1       0.585  14.239   7.007 -0.08 -0.03    +0.473 P 
DOCKED: ATOM     44  O   UNL d   1      -0.044  14.071   5.667 -0.14 -0.00    -0.228 OA
DOCKED: BRANCH  43  45
DOCKED: ATOM     45  O   UNL d   1       0.752  15.754   7.463 -0.04 +0.01    -0.303 OA
DOCKED: ATOM     46  H   UNL d   1       1.687  15.969   7.653 +0.05 -0.01    +0.222 HD
DOCKED: ENDBRANCH  43  45
DOCKED: BRANCH  43  47
DOCKED: ATOM     47  O   UNL d   1       2.085  13.690   7.141 -0.16 +0.05    -0.303 OA
DOCKED: ATOM     48  H   UNL d   1       2.304  13.579   8.089 -0.26 -0.07    +0.222 HD
DOCKED: ENDBRANCH  43  47
DOCKED: ENDBRANCH  42  43
DOCKED: ENDBRANCH   4  42
DOCKED: TORSDOF 24
DOCKED: TER
DOCKED: ENDMDL
________________________________________________________________________________


	BEGINNING GENETIC ALGORITHM DOCKING 73 of 100
Run: 73 Seed: 702655517 69647843 [ Run 73 of 100 GA/GALS ]
Beginning LAMARCKIAN GENETIC ALGORITHM (LGA), with a maximum of 25000000 energy evaluations.

Final-Value: -18.230


	FINAL GENETIC ALGORITHM DOCKED STATE
	_______________________________________________


Detailed state:  trans 13.843 8.369 -14.377 quatxyzw -0.517479 -0.559150 -0.603349 -0.235662 center 0.035 0.082 -0.065 ntor 24 58.6848 109.8892 -174.5745 7.0473 -3.6567 74.3149 32.9922 -136.8649 51.4362 23.8762 96.8411 -129.9547 -7.0531 -177.6457 16.7866 -75.7755 147.1421 103.1032 -6.1621 16.7358 171.6738 21.8544 -15.2168 -2.8682
State:	 13.843   8.369 -14.377  -0.532 -0.575 -0.621 -152.739     58.68  109.89 -174.57    7.05   -3.66   74.31   32.99 -136.86   51.44   23.88   96.84 -129.95   -7.05 -177.65   16.79  -75.78  147.14  103.10   -6.16   16.74  171.67   21.85  -15.22   -2.87

DOCKED: MODEL       73
DOCKED: USER    Run = 73
DOCKED: USER    DPF = D:/Protein_go_brrr/autodock/final/AncA/IHP/dock.dpf
DOCKED: USER  
DOCKED: USER    Estimated Free Energy of Binding    =   +2.96 kcal/mol  [=(1)+(2)+(3)-(4)]
DOCKED: USER    
DOCKED: USER    (1) Final Intermolecular Energy     =   -4.20 kcal/mol
DOCKED: USER        vdW + Hbond + desolv Energy     =   -3.88 kcal/mol
DOCKED: USER        Electrostatic Energy            =   -0.32 kcal/mol
DOCKED: USER    (2) Final Total Internal Energy     =  -14.03 kcal/mol
DOCKED: USER    (3) Torsional Free Energy           =   +7.16 kcal/mol
DOCKED: USER    (4) Unbound System's Energy  [=(2)] =  -14.03 kcal/mol
DOCKED: USER    
DOCKED: USER    
DOCKED: USER    NEWDPF move IHP_ideal_opt.pdbqt
DOCKED: USER    NEWDPF about 0.035000 0.082000 -0.065000
DOCKED: USER    NEWDPF tran0 13.843226 8.369166 -14.376714
DOCKED: USER    NEWDPF quaternion0 -0.517479 -0.559150 -0.603349 -0.235662
DOCKED: USER    NEWDPF axisangle0 -0.532476 -0.575355 -0.620834 -152.738692
DOCKED: USER    NEWDPF quat0 -0.532476 -0.575355 -0.620834 -152.738692
DOCKED: USER    NEWDPF dihe0 58.68 109.89 -174.57 7.05 -3.66 74.31 32.99 -136.86 51.44 23.88 96.84 -129.95 -7.05 -177.65 16.79 -75.78 147.14 103.10 -6.16 16.74 171.67 21.85 -15.22 -2.87 
DOCKED: USER  keepresnum = 1 
DOCKED: USER  
DOCKED: REMARK  24 active torsions:
DOCKED: REMARK  status: ('A' for Active; 'I' for Inactive)
DOCKED: REMARK    1  A    between atoms: C_1  and  O_7 
DOCKED: REMARK    2  A    between atoms: C_2  and  O_12 
DOCKED: REMARK    3  A    between atoms: C_3  and  O_17 
DOCKED: REMARK    4  A    between atoms: C_4  and  O_22 
DOCKED: REMARK    5  A    between atoms: C_5  and  O_27 
DOCKED: REMARK    6  A    between atoms: C_6  and  O_32 
DOCKED: REMARK    7  A    between atoms: O_7  and  P_8 
DOCKED: REMARK    8  A    between atoms: P_8  and  O_10 
DOCKED: REMARK    9  A    between atoms: P_8  and  O_11 
DOCKED: REMARK   10  A    between atoms: O_12  and  P_13 
DOCKED: REMARK   11  A    between atoms: P_13  and  O_15 
DOCKED: REMARK   12  A    between atoms: P_13  and  O_16 
DOCKED: REMARK   13  A    between atoms: O_17  and  P_18 
DOCKED: REMARK   14  A    between atoms: P_18  and  O_20 
DOCKED: REMARK   15  A    between atoms: P_18  and  O_21 
DOCKED: REMARK   16  A    between atoms: O_22  and  P_23 
DOCKED: REMARK   17  A    between atoms: P_23  and  O_25 
DOCKED: REMARK   18  A    between atoms: P_23  and  O_26 
DOCKED: REMARK   19  A    between atoms: O_27  and  P_28 
DOCKED: REMARK   20  A    between atoms: P_28  and  O_30 
DOCKED: REMARK   21  A    between atoms: P_28  and  O_31 
DOCKED: REMARK   22  A    between atoms: O_32  and  P_33 
DOCKED: REMARK   23  A    between atoms: P_33  and  O_35 
DOCKED: REMARK   24  A    between atoms: P_33  and  O_36 
DOCKED: USER                              x       y       z     vdW  Elec       q    Type
DOCKED: USER                           _______ _______ _______ _____ _____    ______ ____
DOCKED: ROOT
DOCKED: ATOM      1  C   UNL d   1      12.920   9.699 -13.774 -0.13 +0.03    +0.194 C 
DOCKED: ATOM      2  C   UNL d   1      12.533   9.204 -15.169 -0.14 +0.04    +0.194 C 
DOCKED: ATOM      3  C   UNL d   1      13.766   8.914 -16.028 -0.10 +0.04    +0.194 C 
DOCKED: ATOM      4  C   UNL d   1      14.770   7.989 -15.346 -0.14 +0.03    +0.194 C 
DOCKED: ATOM      5  C   UNL d   1      15.098   8.379 -13.910 -0.19 +0.03    +0.194 C 
DOCKED: ATOM      6  C   UNL d   1      13.869   8.730 -13.068 -0.15 +0.01    +0.194 C 
DOCKED: ENDROOT
DOCKED: BRANCH   1   7
DOCKED: ATOM      7  O   UNL d   1      11.730   9.780 -12.985 -0.14 -0.06    -0.278 OA
DOCKED: BRANCH   7   8
DOCKED: ATOM      8  P   UNL d   1      11.427  11.143 -12.208 -0.07 +0.23    +0.473 P 
DOCKED: ATOM      9  O   UNL d   1      11.640  12.383 -13.003 -0.02 -0.07    -0.228 OA
DOCKED: BRANCH   8  10
DOCKED: ATOM     10  O   UNL d   1       9.924  10.973 -11.701 -0.09 -0.22    -0.303 OA
DOCKED: ATOM     11  H   UNL d   1       9.319  11.442 -12.306 +0.05 +0.10    +0.222 HD
DOCKED: ENDBRANCH   8  10
DOCKED: BRANCH   8  12
DOCKED: ATOM     12  O   UNL d   1      12.249  11.038 -10.853 -0.48 -0.28    -0.303 OA
DOCKED: ATOM     13  H   UNL d   1      13.223  11.015 -10.993 +0.07 +0.09    +0.222 HD
DOCKED: ENDBRANCH   8  12
DOCKED: ENDBRANCH   7   8
DOCKED: ENDBRANCH   1   7
DOCKED: BRANCH   2  14
DOCKED: ATOM     14  O   UNL d   1      11.770   7.998 -15.042 -0.63 -0.12    -0.278 OA
DOCKED: BRANCH  14  15
DOCKED: ATOM     15  P   UNL d   1      10.654   7.737 -16.160 -0.10 +0.30    +0.473 P 
DOCKED: ATOM     16  O   UNL d   1       9.248   7.564 -15.678 -0.35 -0.23    -0.228 OA
DOCKED: BRANCH  15  17
DOCKED: ATOM     17  O   UNL d   1      10.816   8.963 -17.164 -0.04 -0.10    -0.303 OA
DOCKED: ATOM     18  H   UNL d   1      11.457   8.757 -17.871 +0.03 +0.06    +0.222 HD
DOCKED: ENDBRANCH  15  17
DOCKED: BRANCH  15  19
DOCKED: ATOM     19  O   UNL d   1      11.234   6.536 -17.027 -0.18 -0.19    -0.303 OA
DOCKED: ATOM     20  H   UNL d   1      12.138   6.722 -17.341 +0.04 +0.09    +0.222 HD
DOCKED: ENDBRANCH  15  19
DOCKED: ENDBRANCH  14  15
DOCKED: ENDBRANCH   2  14
DOCKED: BRANCH   6  21
DOCKED: ATOM     21  O   UNL d   1      14.346   9.390 -11.898 -0.21 -0.03    -0.278 OA
DOCKED: BRANCH  21  22
DOCKED: ATOM     22  P   UNL d   1      14.980  10.849 -12.014 -0.04 +0.08    +0.473 P 
DOCKED: ATOM     23  O   UNL d   1      14.251  11.872 -12.817 -0.02 -0.04    -0.228 OA
DOCKED: BRANCH  22  24
DOCKED: ATOM     24  O   UNL d   1      15.200  11.231 -10.485 -0.07 -0.05    -0.303 OA
DOCKED: ATOM     25  H   UNL d   1      14.310  11.371 -10.072 +0.07 +0.04    +0.222 HD
DOCKED: ENDBRANCH  22  24
DOCKED: BRANCH  22  26
DOCKED: ATOM     26  O   UNL d   1      16.475  10.517 -12.490 -0.05 -0.05    -0.303 OA
DOCKED: ATOM     27  H   UNL d   1      17.075  10.557 -11.718 +0.05 +0.04    +0.222 HD
DOCKED: ENDBRANCH  22  26
DOCKED: ENDBRANCH  21  22
DOCKED: ENDBRANCH   6  21
DOCKED: BRANCH   3  28
DOCKED: ATOM     28  O   UNL d   1      13.327   8.208 -17.182 -0.08 -0.06    -0.278 OA
DOCKED: BRANCH  28  29
DOCKED: ATOM     29  P   UNL d   1      13.821   8.649 -18.631 -0.01 +0.08    +0.473 P 
DOCKED: ATOM     30  O   UNL d   1      12.845   9.435 -19.429 -0.01 -0.03    -0.228 OA
DOCKED: BRANCH  29  31
DOCKED: ATOM     31  O   UNL d   1      15.196   9.372 -18.249 -0.01 -0.04    -0.303 OA
DOCKED: ATOM     32  H   UNL d   1      15.902   8.688 -18.182 +0.01 +0.03    +0.222 HD
DOCKED: ENDBRANCH  29  31
DOCKED: BRANCH  29  33
DOCKED: ATOM     33  O   UNL d   1      14.310   7.266 -19.251 -0.02 -0.05    -0.303 OA
DOCKED: ATOM     34  H   UNL d   1      15.198   7.043 -18.878 +0.02 +0.03    +0.222 HD
DOCKED: ENDBRANCH  29  33
DOCKED: ENDBRANCH  28  29
DOCKED: ENDBRANCH   3  28
DOCKED: BRANCH   5  35
DOCKED: ATOM     35  O   UNL d   1      15.695   7.226 -13.322 -0.25 -0.04    -0.278 OA
DOCKED: BRANCH  35  36
DOCKED: ATOM     36  P   UNL d   1      17.216   7.262 -12.844 -0.14 +0.09    +0.473 P 
DOCKED: ATOM     37  O   UNL d   1      17.814   5.937 -12.494 -0.18 -0.05    -0.228 OA
DOCKED: BRANCH  36  38
DOCKED: ATOM     38  O   UNL d   1      17.924   7.997 -14.067 -0.03 -0.04    -0.303 OA
DOCKED: ATOM     39  H   UNL d   1      17.339   7.948 -14.853 +0.04 +0.03    +0.222 HD
DOCKED: ENDBRANCH  36  38
DOCKED: BRANCH  36  40
DOCKED: ATOM     40  O   UNL d   1      17.187   8.366 -11.699 -0.04 -0.11    -0.303 OA
DOCKED: ATOM     41  H   UNL d   1      16.382   8.927 -11.755 +0.08 +0.07    +0.222 HD
DOCKED: ENDBRANCH  36  40
DOCKED: ENDBRANCH  35  36
DOCKED: ENDBRANCH   5  35
DOCKED: BRANCH   4  42
DOCKED: ATOM     42  O   UNL d   1      15.988   8.075 -16.094 -0.06 -0.04    -0.278 OA
DOCKED: BRANCH  42  43
DOCKED: ATOM     43  P   UNL d   1      16.502   6.787 -16.882 -0.06 +0.07    +0.473 P 
DOCKED: ATOM     44  O   UNL d   1      17.268   7.011 -18.139 -0.02 -0.03    -0.228 OA
DOCKED: BRANCH  43  45
DOCKED: ATOM     45  O   UNL d   1      17.307   5.991 -15.763 -0.06 -0.04    -0.303 OA
DOCKED: ATOM     46  H   UNL d   1      17.000   6.229 -14.864 +0.04 +0.03    +0.222 HD
DOCKED: ENDBRANCH  43  45
DOCKED: BRANCH  43  47
DOCKED: ATOM     47  O   UNL d   1      15.179   5.895 -17.028 -0.07 -0.06    -0.303 OA
DOCKED: ATOM     48  H   UNL d   1      14.449   6.452 -17.369 +0.03 +0.05    +0.222 HD
DOCKED: ENDBRANCH  43  47
DOCKED: ENDBRANCH  42  43
DOCKED: ENDBRANCH   4  42
DOCKED: TORSDOF 24
DOCKED: TER
DOCKED: ENDMDL
________________________________________________________________________________


	BEGINNING GENETIC ALGORITHM DOCKING 74 of 100
Run: 74 Seed: 1010521772 1345506 [ Run 74 of 100 GA/GALS ]
Beginning LAMARCKIAN GENETIC ALGORITHM (LGA), with a maximum of 25000000 energy evaluations.

Final-Value: -15.861


	FINAL GENETIC ALGORITHM DOCKED STATE
	_______________________________________________


Detailed state:  trans 1.398 -13.536 -22.236 quatxyzw -0.842186 -0.397293 0.300427 0.206456 center 0.035 0.082 -0.065 ntor 24 109.7392 117.5230 32.5163 132.0390 -48.1641 178.9250 -26.8018 -171.9478 141.6751 -3.5598 -25.6215 -134.5842 -28.2456 -44.2877 179.8459 -45.9670 164.2903 -113.1309 54.6520 4.6900 -180.0000 138.2458 179.0410 142.5403
State:	  1.398 -13.536 -22.236  -0.861 -0.406  0.307 156.171    109.74  117.52   32.52  132.04  -48.16  178.92  -26.80 -171.95  141.68   -3.56  -25.62 -134.58  -28.25  -44.29  179.85  -45.97  164.29 -113.13   54.65    4.69 -180.00  138.25  179.04  142.54

DOCKED: MODEL       74
DOCKED: USER    Run = 74
DOCKED: USER    DPF = D:/Protein_go_brrr/autodock/final/AncA/IHP/dock.dpf
DOCKED: USER  
DOCKED: USER    Estimated Free Energy of Binding    =   +3.45 kcal/mol  [=(1)+(2)+(3)-(4)]
DOCKED: USER    
DOCKED: USER    (1) Final Intermolecular Energy     =   -3.70 kcal/mol
DOCKED: USER        vdW + Hbond + desolv Energy     =   -3.44 kcal/mol
DOCKED: USER        Electrostatic Energy            =   -0.27 kcal/mol
DOCKED: USER    (2) Final Total Internal Energy     =  -12.16 kcal/mol
DOCKED: USER    (3) Torsional Free Energy           =   +7.16 kcal/mol
DOCKED: USER    (4) Unbound System's Energy  [=(2)] =  -12.16 kcal/mol
DOCKED: USER    
DOCKED: USER    
DOCKED: USER    NEWDPF move IHP_ideal_opt.pdbqt
DOCKED: USER    NEWDPF about 0.035000 0.082000 -0.065000
DOCKED: USER    NEWDPF tran0 1.397588 -13.535594 -22.236058
DOCKED: USER    NEWDPF quaternion0 -0.842186 -0.397293 0.300427 0.206456
DOCKED: USER    NEWDPF axisangle0 -0.860730 -0.406041 0.307042 156.170557
DOCKED: USER    NEWDPF quat0 -0.860730 -0.406041 0.307042 156.170557
DOCKED: USER    NEWDPF dihe0 109.74 117.52 32.52 132.04 -48.16 178.92 -26.80 -171.95 141.68 -3.56 -25.62 -134.58 -28.25 -44.29 179.85 -45.97 164.29 -113.13 54.65 4.69 -180.00 138.25 179.04 142.54 
DOCKED: USER  keepresnum = 1 
DOCKED: USER  
DOCKED: REMARK  24 active torsions:
DOCKED: REMARK  status: ('A' for Active; 'I' for Inactive)
DOCKED: REMARK    1  A    between atoms: C_1  and  O_7 
DOCKED: REMARK    2  A    between atoms: C_2  and  O_12 
DOCKED: REMARK    3  A    between atoms: C_3  and  O_17 
DOCKED: REMARK    4  A    between atoms: C_4  and  O_22 
DOCKED: REMARK    5  A    between atoms: C_5  and  O_27 
DOCKED: REMARK    6  A    between atoms: C_6  and  O_32 
DOCKED: REMARK    7  A    between atoms: O_7  and  P_8 
DOCKED: REMARK    8  A    between atoms: P_8  and  O_10 
DOCKED: REMARK    9  A    between atoms: P_8  and  O_11 
DOCKED: REMARK   10  A    between atoms: O_12  and  P_13 
DOCKED: REMARK   11  A    between atoms: P_13  and  O_15 
DOCKED: REMARK   12  A    between atoms: P_13  and  O_16 
DOCKED: REMARK   13  A    between atoms: O_17  and  P_18 
DOCKED: REMARK   14  A    between atoms: P_18  and  O_20 
DOCKED: REMARK   15  A    between atoms: P_18  and  O_21 
DOCKED: REMARK   16  A    between atoms: O_22  and  P_23 
DOCKED: REMARK   17  A    between atoms: P_23  and  O_25 
DOCKED: REMARK   18  A    between atoms: P_23  and  O_26 
DOCKED: REMARK   19  A    between atoms: O_27  and  P_28 
DOCKED: REMARK   20  A    between atoms: P_28  and  O_30 
DOCKED: REMARK   21  A    between atoms: P_28  and  O_31 
DOCKED: REMARK   22  A    between atoms: O_32  and  P_33 
DOCKED: REMARK   23  A    between atoms: P_33  and  O_35 
DOCKED: REMARK   24  A    between atoms: P_33  and  O_36 
DOCKED: USER                              x       y       z     vdW  Elec       q    Type
DOCKED: USER                           _______ _______ _______ _____ _____    ______ ____
DOCKED: ROOT
DOCKED: ATOM      1  C   UNL d   1       1.054 -12.784 -23.753 +0.00 +0.07    +0.194 C 
DOCKED: ATOM      2  C   UNL d   1      -0.086 -12.767 -22.734 -0.06 +0.11    +0.194 C 
DOCKED: ATOM      3  C   UNL d   1      -0.231 -14.113 -22.021 -0.07 +0.15    +0.194 C 
DOCKED: ATOM      4  C   UNL d   1       1.078 -14.616 -21.416 -0.04 +0.11    +0.194 C 
DOCKED: ATOM      5  C   UNL d   1       2.268 -14.544 -22.363 +0.01 +0.08    +0.194 C 
DOCKED: ATOM      6  C   UNL d   1       2.377 -13.220 -23.122 +0.01 +0.07    +0.194 C 
DOCKED: ENDROOT
DOCKED: BRANCH   1   7
DOCKED: ATOM      7  O   UNL d   1       1.234 -11.454 -24.245 +0.00 -0.07    -0.278 OA
DOCKED: BRANCH   7   8
DOCKED: ATOM      8  P   UNL d   1       0.080 -10.816 -25.147 +0.01 +0.09    +0.473 P 
DOCKED: ATOM      9  O   UNL d   1      -1.271 -11.411 -24.958 -0.02 -0.06    -0.228 OA
DOCKED: BRANCH   8  10
DOCKED: ATOM     10  O   UNL d   1       0.135  -9.259 -24.800 -0.00 -0.04    -0.303 OA
DOCKED: ATOM     11  H   UNL d   1       0.158  -9.141 -23.832 +0.04 +0.03    +0.222 HD
DOCKED: ENDBRANCH   8  10
DOCKED: BRANCH   8  12
DOCKED: ATOM     12  O   UNL d   1       0.651 -10.846 -26.629 +0.00 -0.04    -0.303 OA
DOCKED: ATOM     13  H   UNL d   1       0.679 -11.752 -27.013 +0.00 +0.03    +0.222 HD
DOCKED: ENDBRANCH   8  12
DOCKED: ENDBRANCH   7   8
DOCKED: ENDBRANCH   1   7
DOCKED: BRANCH   2  14
DOCKED: ATOM     14  O   UNL d   1       0.181 -11.757 -21.752 -0.06 -0.15    -0.278 OA
DOCKED: BRANCH  14  15
DOCKED: ATOM     15  P   UNL d   1      -1.052 -10.827 -21.329 -0.19 +0.20    +0.473 P 
DOCKED: ATOM     16  O   UNL d   1      -2.409 -11.256 -21.793 -0.24 -0.15    -0.228 OA
DOCKED: BRANCH  15  17
DOCKED: ATOM     17  O   UNL d   1      -0.943 -10.737 -19.742 -0.30 -0.15    -0.303 OA
DOCKED: ATOM     18  H   UNL d   1      -1.059 -11.615 -19.331 +0.10 +0.16    +0.222 HD
DOCKED: ENDBRANCH  15  17
DOCKED: BRANCH  15  19
DOCKED: ATOM     19  O   UNL d   1      -0.611  -9.362 -21.763 -0.11 -0.04    -0.303 OA
DOCKED: ATOM     20  H   UNL d   1      -0.630  -9.251 -22.731 +0.07 +0.03    +0.222 HD
DOCKED: ENDBRANCH  15  19
DOCKED: ENDBRANCH  14  15
DOCKED: ENDBRANCH   2  14
DOCKED: BRANCH   6  21
DOCKED: ATOM     21  O   UNL d   1       3.300 -13.430 -24.188 +0.01 -0.07    -0.278 OA
DOCKED: BRANCH  21  22
DOCKED: ATOM     22  P   UNL d   1       2.831 -14.206 -25.500 +0.01 +0.09    +0.473 P 
DOCKED: ATOM     23  O   UNL d   1       3.848 -14.995 -26.253 +0.00 -0.04    -0.228 OA
DOCKED: BRANCH  22  24
DOCKED: ATOM     24  O   UNL d   1       1.599 -15.053 -24.954 +0.01 -0.08    -0.303 OA
DOCKED: ATOM     25  H   UNL d   1       1.838 -16.014 -25.008 +0.00 +0.05    +0.222 HD
DOCKED: ENDBRANCH  22  24
DOCKED: BRANCH  22  26
DOCKED: ATOM     26  O   UNL d   1       2.095 -13.042 -26.321 +0.00 -0.05    -0.303 OA
DOCKED: ATOM     27  H   UNL d   1       2.204 -12.194 -25.845 +0.00 +0.04    +0.222 HD
DOCKED: ENDBRANCH  22  26
DOCKED: ENDBRANCH  21  22
DOCKED: ENDBRANCH   6  21
DOCKED: BRANCH   3  28
DOCKED: ATOM     28  O   UNL d   1      -1.108 -13.923 -20.919 -0.02 -0.33    -0.278 OA
DOCKED: BRANCH  28  29
DOCKED: ATOM     29  P   UNL d   1      -0.556 -14.005 -19.427 -0.15 +0.42    +0.473 P 
DOCKED: ATOM     30  O   UNL d   1      -0.196 -15.366 -18.952 -0.17 -0.11    -0.228 OA
DOCKED: BRANCH  29  31
DOCKED: ATOM     31  O   UNL d   1       0.625 -12.928 -19.507 -0.30 -0.36    -0.303 OA
DOCKED: ATOM     32  H   UNL d   1       0.419 -12.289 -20.228 +0.07 +0.20    +0.222 HD
DOCKED: ENDBRANCH  29  31
DOCKED: BRANCH  29  33
DOCKED: ATOM     33  O   UNL d   1      -1.683 -13.232 -18.611 -0.88 -0.31    -0.303 OA
DOCKED: ATOM     34  H   UNL d   1      -1.302 -12.392 -18.255 +0.11 +0.18    +0.222 HD
DOCKED: ENDBRANCH  29  33
DOCKED: ENDBRANCH  28  29
DOCKED: ENDBRANCH   3  28
DOCKED: BRANCH   5  35
DOCKED: ATOM     35  O   UNL d   1       3.426 -14.652 -21.538 -0.00 -0.13    -0.278 OA
DOCKED: BRANCH  35  36
DOCKED: ATOM     36  P   UNL d   1       3.589 -13.719 -20.254 +0.06 +0.50    +0.473 P 
DOCKED: ATOM     37  O   UNL d   1       4.997 -13.404 -19.860 -0.05 -0.21    -0.228 OA
DOCKED: BRANCH  36  38
DOCKED: ATOM     38  O   UNL d   1       2.724 -12.446 -20.664 -0.20 -0.39    -0.303 OA
DOCKED: ATOM     39  H   UNL d   1       1.772 -12.685 -20.644 +0.04 +0.24    +0.222 HD
DOCKED: ENDBRANCH  36  38
DOCKED: BRANCH  36  40
DOCKED: ATOM     40  O   UNL d   1       2.687 -14.464 -19.176 -0.55 -0.33    -0.303 OA
DOCKED: ATOM     41  H   UNL d   1       1.821 -14.737 -19.552 +0.04 +0.16    +0.222 HD
DOCKED: ENDBRANCH  36  40
DOCKED: ENDBRANCH  35  36
DOCKED: ENDBRANCH   5  35
DOCKED: BRANCH   4  42
DOCKED: ATOM     42  O   UNL d   1       0.880 -15.997 -21.092 -0.01 -0.13    -0.278 OA
DOCKED: BRANCH  42  43
DOCKED: ATOM     43  P   UNL d   1      -0.107 -16.867 -21.992 -0.02 +0.24    +0.473 P 
DOCKED: ATOM     44  O   UNL d   1      -1.558 -16.531 -21.942 -0.63 -0.25    -0.228 OA
DOCKED: BRANCH  43  45
DOCKED: ATOM     45  O   UNL d   1       0.540 -16.742 -23.441 -0.00 -0.11    -0.303 OA
DOCKED: ATOM     46  H   UNL d   1       0.087 -16.062 -23.978 +0.01 +0.09    +0.222 HD
DOCKED: ENDBRANCH  43  45
DOCKED: BRANCH  43  47
DOCKED: ATOM     47  O   UNL d   1       0.268 -18.374 -21.596 +0.01 -0.09    -0.303 OA
DOCKED: ATOM     48  H   UNL d   1       0.358 -18.439 -20.623 +0.02 +0.06    +0.222 HD
DOCKED: ENDBRANCH  43  47
DOCKED: ENDBRANCH  42  43
DOCKED: ENDBRANCH   4  42
DOCKED: TORSDOF 24
DOCKED: TER
DOCKED: ENDMDL
________________________________________________________________________________


	BEGINNING GENETIC ALGORITHM DOCKING 75 of 100
Run: 75 Seed: 226659793 892912490 [ Run 75 of 100 GA/GALS ]
Beginning LAMARCKIAN GENETIC ALGORITHM (LGA), with a maximum of 25000000 energy evaluations.

Final-Value: -18.582


	FINAL GENETIC ALGORITHM DOCKED STATE
	_______________________________________________


Detailed state:  trans -7.605 11.473 -5.608 quatxyzw -0.608771 0.099828 -0.327448 0.715688 center 0.035 0.082 -0.065 ntor 24 40.6595 18.2103 43.5478 43.0817 12.6471 -56.0981 -81.6782 -44.0973 111.7432 58.4529 8.5101 -150.3463 -160.6251 173.7836 -59.8872 44.0564 124.8720 -62.4230 46.1149 -10.8500 -5.0607 -13.7003 -20.3461 30.2671
State:	 -7.605  11.473  -5.608  -0.872  0.143 -0.469 88.601     40.66   18.21   43.55   43.08   12.65  -56.10  -81.68  -44.10  111.74   58.45    8.51 -150.35 -160.63  173.78  -59.89   44.06  124.87  -62.42   46.11  -10.85   -5.06  -13.70  -20.35   30.27

DOCKED: MODEL       75
DOCKED: USER    Run = 75
DOCKED: USER    DPF = D:/Protein_go_brrr/autodock/final/AncA/IHP/dock.dpf
DOCKED: USER  
DOCKED: USER    Estimated Free Energy of Binding    =   +2.35 kcal/mol  [=(1)+(2)+(3)-(4)]
DOCKED: USER    
DOCKED: USER    (1) Final Intermolecular Energy     =   -4.81 kcal/mol
DOCKED: USER        vdW + Hbond + desolv Energy     =   -4.02 kcal/mol
DOCKED: USER        Electrostatic Energy            =   -0.79 kcal/mol
DOCKED: USER    (2) Final Total Internal Energy     =  -13.77 kcal/mol
DOCKED: USER    (3) Torsional Free Energy           =   +7.16 kcal/mol
DOCKED: USER    (4) Unbound System's Energy  [=(2)] =  -13.77 kcal/mol
DOCKED: USER    
DOCKED: USER    
DOCKED: USER    NEWDPF move IHP_ideal_opt.pdbqt
DOCKED: USER    NEWDPF about 0.035000 0.082000 -0.065000
DOCKED: USER    NEWDPF tran0 -7.604892 11.473447 -5.607875
DOCKED: USER    NEWDPF quaternion0 -0.608771 0.099828 -0.327448 0.715688
DOCKED: USER    NEWDPF axisangle0 -0.871641 0.142934 -0.468842 88.600707
DOCKED: USER    NEWDPF quat0 -0.871641 0.142934 -0.468842 88.600707
DOCKED: USER    NEWDPF dihe0 40.66 18.21 43.55 43.08 12.65 -56.10 -81.68 -44.10 111.74 58.45 8.51 -150.35 -160.63 173.78 -59.89 44.06 124.87 -62.42 46.11 -10.85 -5.06 -13.70 -20.35 30.27 
DOCKED: USER  keepresnum = 1 
DOCKED: USER  
DOCKED: REMARK  24 active torsions:
DOCKED: REMARK  status: ('A' for Active; 'I' for Inactive)
DOCKED: REMARK    1  A    between atoms: C_1  and  O_7 
DOCKED: REMARK    2  A    between atoms: C_2  and  O_12 
DOCKED: REMARK    3  A    between atoms: C_3  and  O_17 
DOCKED: REMARK    4  A    between atoms: C_4  and  O_22 
DOCKED: REMARK    5  A    between atoms: C_5  and  O_27 
DOCKED: REMARK    6  A    between atoms: C_6  and  O_32 
DOCKED: REMARK    7  A    between atoms: O_7  and  P_8 
DOCKED: REMARK    8  A    between atoms: P_8  and  O_10 
DOCKED: REMARK    9  A    between atoms: P_8  and  O_11 
DOCKED: REMARK   10  A    between atoms: O_12  and  P_13 
DOCKED: REMARK   11  A    between atoms: P_13  and  O_15 
DOCKED: REMARK   12  A    between atoms: P_13  and  O_16 
DOCKED: REMARK   13  A    between atoms: O_17  and  P_18 
DOCKED: REMARK   14  A    between atoms: P_18  and  O_20 
DOCKED: REMARK   15  A    between atoms: P_18  and  O_21 
DOCKED: REMARK   16  A    between atoms: O_22  and  P_23 
DOCKED: REMARK   17  A    between atoms: P_23  and  O_25 
DOCKED: REMARK   18  A    between atoms: P_23  and  O_26 
DOCKED: REMARK   19  A    between atoms: O_27  and  P_28 
DOCKED: REMARK   20  A    between atoms: P_28  and  O_30 
DOCKED: REMARK   21  A    between atoms: P_28  and  O_31 
DOCKED: REMARK   22  A    between atoms: O_32  and  P_33 
DOCKED: REMARK   23  A    between atoms: P_33  and  O_35 
DOCKED: REMARK   24  A    between atoms: P_33  and  O_36 
DOCKED: USER                              x       y       z     vdW  Elec       q    Type
DOCKED: USER                           _______ _______ _______ _____ _____    ______ ____
DOCKED: ROOT
DOCKED: ATOM      1  C   UNL d   1      -5.919  11.128  -5.456 -0.09 -0.13    +0.194 C 
DOCKED: ATOM      2  C   UNL d   1      -6.494  11.005  -6.868 -0.12 -0.05    +0.194 C 
DOCKED: ATOM      3  C   UNL d   1      -7.851  10.297  -6.867 -0.15 -0.06    +0.194 C 
DOCKED: ATOM      4  C   UNL d   1      -8.849  10.911  -5.889 -0.12 -0.06    +0.194 C 
DOCKED: ATOM      5  C   UNL d   1      -8.282  11.159  -4.497 -0.09 -0.08    +0.194 C 
DOCKED: ATOM      6  C   UNL d   1      -6.898  11.811  -4.499 -0.09 -0.07    +0.194 C 
DOCKED: ENDROOT
DOCKED: BRANCH   1   7
DOCKED: ATOM      7  O   UNL d   1      -4.748  11.945  -5.522 -0.06 +0.11    -0.278 OA
DOCKED: BRANCH   7   8
DOCKED: ATOM      8  P   UNL d   1      -3.404  11.300  -6.096 -0.06 -0.27    +0.473 P 
DOCKED: ATOM      9  O   UNL d   1      -2.339  11.054  -5.085 -0.15 +0.18    -0.228 OA
DOCKED: BRANCH   8  10
DOCKED: ATOM     10  O   UNL d   1      -3.895   9.969  -6.826 -0.14 +0.26    -0.303 OA
DOCKED: ATOM     11  H   UNL d   1      -3.502   9.191  -6.387 -0.42 -0.51    +0.222 HD
DOCKED: ENDBRANCH   8  10
DOCKED: BRANCH   8  12
DOCKED: ATOM     12  O   UNL d   1      -2.995  12.222  -7.324 -0.03 +0.04    -0.303 OA
DOCKED: ATOM     13  H   UNL d   1      -3.764  12.671  -7.741 +0.03 +0.01    +0.222 HD
DOCKED: ENDBRANCH   8  12
DOCKED: ENDBRANCH   7   8
DOCKED: ENDBRANCH   1   7
DOCKED: BRANCH   2  14
DOCKED: ATOM     14  O   UNL d   1      -6.664  12.317  -7.419 -0.02 -0.01    -0.278 OA
DOCKED: BRANCH  14  15
DOCKED: ATOM     15  P   UNL d   1      -5.869  12.633  -8.773 -0.02 +0.15    +0.473 P 
DOCKED: ATOM     16  O   UNL d   1      -5.077  13.902  -8.807 -0.00 -0.04    -0.228 OA
DOCKED: BRANCH  15  17
DOCKED: ATOM     17  O   UNL d   1      -4.971  11.337  -9.006 -0.30 -0.38    -0.303 OA
DOCKED: ATOM     18  H   UNL d   1      -4.448  11.124  -8.210 +0.03 +0.14    +0.222 HD
DOCKED: ENDBRANCH  15  17
DOCKED: BRANCH  15  19
DOCKED: ATOM     19  O   UNL d   1      -6.960  12.475  -9.920 -0.02 -0.12    -0.303 OA
DOCKED: ATOM     20  H   UNL d   1      -7.746  11.989  -9.606 +0.02 +0.07    +0.222 HD
DOCKED: ENDBRANCH  15  19
DOCKED: ENDBRANCH  14  15
DOCKED: ENDBRANCH   2  14
DOCKED: BRANCH   6  21
DOCKED: ATOM     21  O   UNL d   1      -6.369  11.660  -3.183 -0.08 +0.09    -0.278 OA
DOCKED: BRANCH  21  22
DOCKED: ATOM     22  P   UNL d   1      -6.273  12.928  -2.220 +0.00 -0.06    +0.473 P 
DOCKED: ATOM     23  O   UNL d   1      -6.080  14.271  -2.839 -0.00 +0.02    -0.228 OA
DOCKED: BRANCH  22  24
DOCKED: ATOM     24  O   UNL d   1      -7.598  12.778  -1.351 -0.02 +0.02    -0.303 OA
DOCKED: ATOM     25  H   UNL d   1      -8.366  12.697  -1.972 +0.03 -0.02    +0.222 HD
DOCKED: ENDBRANCH  22  24
DOCKED: BRANCH  22  26
DOCKED: ATOM     26  O   UNL d   1      -5.142  12.463  -1.182 -0.04 +0.04    -0.303 OA
DOCKED: ATOM     27  H   UNL d   1      -4.465  13.166  -1.107 +0.05 -0.02    +0.222 HD
DOCKED: ENDBRANCH  22  26
DOCKED: ENDBRANCH  21  22
DOCKED: ENDBRANCH   6  21
DOCKED: BRANCH   3  28
DOCKED: ATOM     28  O   UNL d   1      -8.427  10.474  -8.155 -0.05 -0.02    -0.278 OA
DOCKED: BRANCH  28  29
DOCKED: ATOM     29  P   UNL d   1      -8.287   9.338  -9.263 -0.11 +0.17    +0.473 P 
DOCKED: ATOM     30  O   UNL d   1      -7.920   7.991  -8.755 -0.29 -0.05    -0.228 OA
DOCKED: BRANCH  29  31
DOCKED: ATOM     31  O   UNL d   1      -9.706   9.479  -9.989 -0.06 -0.06    -0.303 OA
DOCKED: ATOM     32  H   UNL d   1     -10.367   9.794  -9.329 +0.05 +0.02    +0.222 HD
DOCKED: ENDBRANCH  29  31
DOCKED: BRANCH  29  33
DOCKED: ATOM     33  O   UNL d   1      -7.290  10.010 -10.306 -0.45 -0.37    -0.303 OA
DOCKED: ATOM     34  H   UNL d   1      -6.860  10.793  -9.882 +0.02 +0.23    +0.222 HD
DOCKED: ENDBRANCH  29  33
DOCKED: ENDBRANCH  28  29
DOCKED: ENDBRANCH   3  28
DOCKED: BRANCH   5  35
DOCKED: ATOM     35  O   UNL d   1      -9.177  12.076  -3.872 -0.06 +0.05    -0.278 OA
DOCKED: BRANCH  35  36
DOCKED: ATOM     36  P   UNL d   1     -10.107  11.599  -2.667 -0.09 -0.08    +0.473 P 
DOCKED: ATOM     37  O   UNL d   1     -10.815  12.689  -1.927 -0.04 +0.01    -0.228 OA
DOCKED: BRANCH  36  38
DOCKED: ATOM     38  O   UNL d   1     -11.076  10.564  -3.393 -0.11 +0.08    -0.303 OA
DOCKED: ATOM     39  H   UNL d   1     -10.551  10.016  -4.016 -0.45 -0.13    +0.222 HD
DOCKED: ENDBRANCH  36  38
DOCKED: BRANCH  36  40
DOCKED: ATOM     40  O   UNL d   1      -9.124  10.675  -1.824 -0.13 +0.07    -0.303 OA
DOCKED: ATOM     41  H   UNL d   1      -8.183  10.830  -2.064 +0.02 -0.05    +0.222 HD
DOCKED: ENDBRANCH  36  40
DOCKED: ENDBRANCH  35  36
DOCKED: ENDBRANCH   5  35
DOCKED: BRANCH   4  42
DOCKED: ATOM     42  O   UNL d   1      -9.921   9.973  -5.746 -0.13 +0.10    -0.278 OA
DOCKED: BRANCH  42  43
DOCKED: ATOM     43  P   UNL d   1     -11.060   9.927  -6.862 -0.09 -0.03    +0.473 P 
DOCKED: ATOM     44  O   UNL d   1     -11.166  11.093  -7.783 -0.03 -0.00    -0.228 OA
DOCKED: BRANCH  43  45
DOCKED: ATOM     45  O   UNL d   1     -10.774   8.543  -7.595 -0.17 +0.00    -0.303 OA
DOCKED: ATOM     46  H   UNL d   1      -9.907   8.550  -8.047 +0.09 -0.00    +0.222 HD
DOCKED: ENDBRANCH  43  45
DOCKED: BRANCH  43  47
DOCKED: ATOM     47  O   UNL d   1     -12.382   9.585  -6.023 -0.11 +0.01    -0.303 OA
DOCKED: ATOM     48  H   UNL d   1     -12.285   9.932  -5.112 +0.06 -0.02    +0.222 HD
DOCKED: ENDBRANCH  43  47
DOCKED: ENDBRANCH  42  43
DOCKED: ENDBRANCH   4  42
DOCKED: TORSDOF 24
DOCKED: TER
DOCKED: ENDMDL
________________________________________________________________________________


	BEGINNING GENETIC ALGORITHM DOCKING 76 of 100
Run: 76 Seed: 1261953306 1852426211 [ Run 76 of 100 GA/GALS ]
Beginning LAMARCKIAN GENETIC ALGORITHM (LGA), with a maximum of 25000000 energy evaluations.

Final-Value: -16.684


	FINAL GENETIC ALGORITHM DOCKED STATE
	_______________________________________________


Detailed state:  trans 15.844 10.242 6.981 quatxyzw -0.517248 0.473128 -0.145513 -0.698163 center 0.035 0.082 -0.065 ntor 24 86.9756 -59.9400 108.7977 174.9322 77.9365 -75.8292 -39.6938 -78.3944 142.4374 -59.6561 -4.8235 -140.0368 151.2475 63.9367 74.8385 64.4257 90.4161 -67.3170 -141.9646 -13.3218 37.6361 -17.9984 -52.6967 23.2052
State:	 15.844  10.242   6.981  -0.722  0.661 -0.203 -91.440     86.98  -59.94  108.80  174.93   77.94  -75.83  -39.69  -78.39  142.44  -59.66   -4.82 -140.04  151.25   63.94   74.84   64.43   90.42  -67.32 -141.96  -13.32   37.64  -18.00  -52.70   23.21

DOCKED: MODEL       76
DOCKED: USER    Run = 76
DOCKED: USER    DPF = D:/Protein_go_brrr/autodock/final/AncA/IHP/dock.dpf
DOCKED: USER  
DOCKED: USER    Estimated Free Energy of Binding    =   +4.00 kcal/mol  [=(1)+(2)+(3)-(4)]
DOCKED: USER    
DOCKED: USER    (1) Final Intermolecular Energy     =   -3.16 kcal/mol
DOCKED: USER        vdW + Hbond + desolv Energy     =   -3.01 kcal/mol
DOCKED: USER        Electrostatic Energy            =   -0.15 kcal/mol
DOCKED: USER    (2) Final Total Internal Energy     =  -13.52 kcal/mol
DOCKED: USER    (3) Torsional Free Energy           =   +7.16 kcal/mol
DOCKED: USER    (4) Unbound System's Energy  [=(2)] =  -13.52 kcal/mol
DOCKED: USER    
DOCKED: USER    
DOCKED: USER    NEWDPF move IHP_ideal_opt.pdbqt
DOCKED: USER    NEWDPF about 0.035000 0.082000 -0.065000
DOCKED: USER    NEWDPF tran0 15.843952 10.242010 6.980748
DOCKED: USER    NEWDPF quaternion0 -0.517248 0.473128 -0.145513 -0.698163
DOCKED: USER    NEWDPF axisangle0 -0.722474 0.660849 -0.203248 -91.440447
DOCKED: USER    NEWDPF quat0 -0.722474 0.660849 -0.203248 -91.440447
DOCKED: USER    NEWDPF dihe0 86.98 -59.94 108.80 174.93 77.94 -75.83 -39.69 -78.39 142.44 -59.66 -4.82 -140.04 151.25 63.94 74.84 64.43 90.42 -67.32 -141.96 -13.32 37.64 -18.00 -52.70 23.21 
DOCKED: USER  keepresnum = 1 
DOCKED: USER  
DOCKED: REMARK  24 active torsions:
DOCKED: REMARK  status: ('A' for Active; 'I' for Inactive)
DOCKED: REMARK    1  A    between atoms: C_1  and  O_7 
DOCKED: REMARK    2  A    between atoms: C_2  and  O_12 
DOCKED: REMARK    3  A    between atoms: C_3  and  O_17 
DOCKED: REMARK    4  A    between atoms: C_4  and  O_22 
DOCKED: REMARK    5  A    between atoms: C_5  and  O_27 
DOCKED: REMARK    6  A    between atoms: C_6  and  O_32 
DOCKED: REMARK    7  A    between atoms: O_7  and  P_8 
DOCKED: REMARK    8  A    between atoms: P_8  and  O_10 
DOCKED: REMARK    9  A    between atoms: P_8  and  O_11 
DOCKED: REMARK   10  A    between atoms: O_12  and  P_13 
DOCKED: REMARK   11  A    between atoms: P_13  and  O_15 
DOCKED: REMARK   12  A    between atoms: P_13  and  O_16 
DOCKED: REMARK   13  A    between atoms: O_17  and  P_18 
DOCKED: REMARK   14  A    between atoms: P_18  and  O_20 
DOCKED: REMARK   15  A    between atoms: P_18  and  O_21 
DOCKED: REMARK   16  A    between atoms: O_22  and  P_23 
DOCKED: REMARK   17  A    between atoms: P_23  and  O_25 
DOCKED: REMARK   18  A    between atoms: P_23  and  O_26 
DOCKED: REMARK   19  A    between atoms: O_27  and  P_28 
DOCKED: REMARK   20  A    between atoms: P_28  and  O_30 
DOCKED: REMARK   21  A    between atoms: P_28  and  O_31 
DOCKED: REMARK   22  A    between atoms: O_32  and  P_33 
DOCKED: REMARK   23  A    between atoms: P_33  and  O_35 
DOCKED: REMARK   24  A    between atoms: P_33  and  O_36 
DOCKED: USER                              x       y       z     vdW  Elec       q    Type
DOCKED: USER                           _______ _______ _______ _____ _____    ______ ____
DOCKED: ROOT
DOCKED: ATOM      1  C   UNL d   1      17.379   9.461   7.119 -0.00 +0.01    +0.194 C 
DOCKED: ATOM      2  C   UNL d   1      16.673   9.770   8.440 -0.01 +0.01    +0.194 C 
DOCKED: ATOM      3  C   UNL d   1      16.054  11.170   8.439 -0.03 -0.02    +0.194 C 
DOCKED: ATOM      4  C   UNL d   1      15.157  11.429   7.231 -0.07 -0.03    +0.194 C 
DOCKED: ATOM      5  C   UNL d   1      15.778  11.028   5.899 -0.03 -0.00    +0.194 C 
DOCKED: ATOM      6  C   UNL d   1      16.451   9.653   5.919 -0.04 +0.02    +0.194 C 
DOCKED: ENDROOT
DOCKED: BRANCH   1   7
DOCKED: ATOM      7  O   UNL d   1      17.775   8.088   7.135 -0.01 -0.04    -0.278 OA
DOCKED: BRANCH   7   8
DOCKED: ATOM      8  P   UNL d   1      16.813   7.012   6.451 +0.02 +0.12    +0.473 P 
DOCKED: ATOM      9  O   UNL d   1      16.978   5.616   6.940 -0.09 -0.06    -0.228 OA
DOCKED: BRANCH   8  10
DOCKED: ATOM     10  O   UNL d   1      15.347   7.593   6.695 -0.10 -0.10    -0.303 OA
DOCKED: ATOM     11  H   UNL d   1      15.117   7.514   7.640 +0.07 +0.08    +0.222 HD
DOCKED: ENDBRANCH   8  10
DOCKED: BRANCH   8  12
DOCKED: ATOM     12  O   UNL d   1      17.000   7.226   4.888 -0.09 -0.08    -0.303 OA
DOCKED: ATOM     13  H   UNL d   1      16.238   7.686   4.468 +0.09 +0.07    +0.222 HD
DOCKED: ENDBRANCH   8  12
DOCKED: ENDBRANCH   7   8
DOCKED: ENDBRANCH   1   7
DOCKED: BRANCH   2  14
DOCKED: ATOM     14  O   UNL d   1      15.630   8.810   8.648 -0.07 -0.05    -0.278 OA
DOCKED: BRANCH  14  15
DOCKED: ATOM     15  P   UNL d   1      15.760   7.882   9.947 -0.05 +0.16    +0.473 P 
DOCKED: ATOM     16  O   UNL d   1      14.655   7.974  10.952 -0.59 -0.19    -0.228 OA
DOCKED: BRANCH  15  17
DOCKED: ATOM     17  O   UNL d   1      15.936   6.413   9.357 -0.06 -0.11    -0.303 OA
DOCKED: ATOM     18  H   UNL d   1      16.129   6.439   8.400 +0.05 +0.07    +0.222 HD
DOCKED: ENDBRANCH  15  17
DOCKED: BRANCH  15  19
DOCKED: ATOM     19  O   UNL d   1      17.220   8.180  10.503 -0.00 -0.04    -0.303 OA
DOCKED: ATOM     20  H   UNL d   1      17.192   8.604  11.381 +0.01 +0.02    +0.222 HD
DOCKED: ENDBRANCH  15  19
DOCKED: ENDBRANCH  14  15
DOCKED: ENDBRANCH   2  14
DOCKED: BRANCH   6  21
DOCKED: ATOM     21  O   UNL d   1      17.260   9.574   4.747 -0.04 -0.03    -0.278 OA
DOCKED: BRANCH  21  22
DOCKED: ATOM     22  P   UNL d   1      16.573   9.593   3.308 -0.12 +0.05    +0.473 P 
DOCKED: ATOM     23  O   UNL d   1      16.664  10.844   2.500 -0.07 -0.00    -0.228 OA
DOCKED: BRANCH  22  24
DOCKED: ATOM     24  O   UNL d   1      17.217   8.309   2.623 -0.20 -0.06    -0.303 OA
DOCKED: ATOM     25  H   UNL d   1      17.681   7.785   3.325 +0.06 +0.06    +0.222 HD
DOCKED: ENDBRANCH  22  24
DOCKED: BRANCH  22  26
DOCKED: ATOM     26  O   UNL d   1      15.093   9.080   3.647 -0.45 -0.08    -0.303 OA
DOCKED: ATOM     27  H   UNL d   1      14.463   9.822   3.540 +0.12 +0.03    +0.222 HD
DOCKED: ENDBRANCH  22  26
DOCKED: ENDBRANCH  21  22
DOCKED: ENDBRANCH   6  21
DOCKED: BRANCH   3  28
DOCKED: ATOM     28  O   UNL d   1      15.199  11.261   9.571 -0.06 +0.10    -0.278 OA
DOCKED: BRANCH  28  29
DOCKED: ATOM     29  P   UNL d   1      15.749  11.837  10.950 -0.01 -0.10    +0.473 P 
DOCKED: ATOM     30  O   UNL d   1      16.689  12.981  10.837 -0.00 +0.02    -0.228 OA
DOCKED: BRANCH  29  31
DOCKED: ATOM     31  O   UNL d   1      14.367  12.105  11.712 -0.06 +0.13    -0.303 OA
DOCKED: ATOM     32  H   UNL d   1      13.641  11.670  11.207 -0.30 -0.25    +0.222 HD
DOCKED: ENDBRANCH  29  31
DOCKED: BRANCH  29  33
DOCKED: ATOM     33  O   UNL d   1      16.296  10.524  11.666 -0.01 +0.02    -0.303 OA
DOCKED: ATOM     34  H   UNL d   1      15.882   9.732  11.243 +0.02 -0.00    +0.222 HD
DOCKED: ENDBRANCH  29  33
DOCKED: ENDBRANCH  28  29
DOCKED: ENDBRANCH   3  28
DOCKED: BRANCH   5  35
DOCKED: ATOM     35  O   UNL d   1      14.695  10.951   4.974 -0.08 +0.01    -0.278 OA
DOCKED: BRANCH  35  36
DOCKED: ATOM     36  P   UNL d   1      14.073  12.282   4.352 -0.09 -0.07    +0.473 P 
DOCKED: ATOM     37  O   UNL d   1      13.825  12.249   2.877 -0.17 +0.04    -0.228 OA
DOCKED: BRANCH  36  38
DOCKED: ATOM     38  O   UNL d   1      12.760  12.472   5.233 -0.25 +0.08    -0.303 OA
DOCKED: ATOM     39  H   UNL d   1      13.017  12.762   6.134 +0.08 -0.06    +0.222 HD
DOCKED: ENDBRANCH  36  38
DOCKED: BRANCH  36  40
DOCKED: ATOM     40  O   UNL d   1      15.062  13.404   4.893 -0.04 +0.04    -0.303 OA
DOCKED: ATOM     41  H   UNL d   1      14.680  13.887   5.659 +0.06 -0.04    +0.222 HD
DOCKED: ENDBRANCH  36  40
DOCKED: ENDBRANCH  35  36
DOCKED: ENDBRANCH   5  35
DOCKED: BRANCH   4  42
DOCKED: ATOM     42  O   UNL d   1      14.928  12.841   7.180 -0.04 +0.05    -0.278 OA
DOCKED: BRANCH  42  43
DOCKED: ATOM     43  P   UNL d   1      13.705  13.454   8.000 -0.14 -0.16    +0.473 P 
DOCKED: ATOM     44  O   UNL d   1      12.593  12.533   8.366 -0.16 +0.17    -0.228 OA
DOCKED: BRANCH  43  45
DOCKED: ATOM     45  O   UNL d   1      14.425  14.132   9.247 -0.05 +0.08    -0.303 OA
DOCKED: ATOM     46  H   UNL d   1      14.682  13.468   9.917 +0.04 -0.07    +0.222 HD
DOCKED: ENDBRANCH  43  45
DOCKED: BRANCH  43  47
DOCKED: ATOM     47  O   UNL d   1      13.286  14.734   7.130 -0.12 +0.08    -0.303 OA
DOCKED: ATOM     48  H   UNL d   1      13.354  14.514   6.178 +0.07 -0.05    +0.222 HD
DOCKED: ENDBRANCH  43  47
DOCKED: ENDBRANCH  42  43
DOCKED: ENDBRANCH   4  42
DOCKED: TORSDOF 24
DOCKED: TER
DOCKED: ENDMDL
________________________________________________________________________________


	BEGINNING GENETIC ALGORITHM DOCKING 77 of 100
Run: 77 Seed: 1809016940 1467019871 [ Run 77 of 100 GA/GALS ]
Beginning LAMARCKIAN GENETIC ALGORITHM (LGA), with a maximum of 25000000 energy evaluations.

Final-Value: -16.963


	FINAL GENETIC ALGORITHM DOCKED STATE
	_______________________________________________


Detailed state:  trans 1.000 5.836 16.427 quatxyzw -0.090992 -0.947271 0.274760 0.137496 center 0.035 0.082 -0.065 ntor 24 -111.9375 38.0746 48.2061 42.3231 22.3325 -166.5817 -143.3295 -26.1097 101.7442 28.8907 165.6188 109.8445 -157.4110 166.5405 167.3702 66.1443 114.3591 -121.1614 36.5196 -15.5889 -18.3308 153.1771 -4.9077 -180.0000
State:	  1.000   5.836  16.427  -0.092 -0.956  0.277 164.194   -111.94   38.07   48.21   42.32   22.33 -166.58 -143.33  -26.11  101.74   28.89  165.62  109.84 -157.41  166.54  167.37   66.14  114.36 -121.16   36.52  -15.59  -18.33  153.18   -4.91 -180.00

DOCKED: MODEL       77
DOCKED: USER    Run = 77
DOCKED: USER    DPF = D:/Protein_go_brrr/autodock/final/AncA/IHP/dock.dpf
DOCKED: USER  
DOCKED: USER    Estimated Free Energy of Binding    =   +3.75 kcal/mol  [=(1)+(2)+(3)-(4)]
DOCKED: USER    
DOCKED: USER    (1) Final Intermolecular Energy     =   -3.41 kcal/mol
DOCKED: USER        vdW + Hbond + desolv Energy     =   -3.35 kcal/mol
DOCKED: USER        Electrostatic Energy            =   -0.05 kcal/mol
DOCKED: USER    (2) Final Total Internal Energy     =  -13.56 kcal/mol
DOCKED: USER    (3) Torsional Free Energy           =   +7.16 kcal/mol
DOCKED: USER    (4) Unbound System's Energy  [=(2)] =  -13.56 kcal/mol
DOCKED: USER    
DOCKED: USER    
DOCKED: USER    NEWDPF move IHP_ideal_opt.pdbqt
DOCKED: USER    NEWDPF about 0.035000 0.082000 -0.065000
DOCKED: USER    NEWDPF tran0 1.000265 5.836157 16.426926
DOCKED: USER    NEWDPF quaternion0 -0.090992 -0.947271 0.274760 0.137496
DOCKED: USER    NEWDPF axisangle0 -0.091865 -0.956354 0.277395 164.194057
DOCKED: USER    NEWDPF quat0 -0.091865 -0.956354 0.277395 164.194057
DOCKED: USER    NEWDPF dihe0 -111.94 38.07 48.21 42.32 22.33 -166.58 -143.33 -26.11 101.74 28.89 165.62 109.84 -157.41 166.54 167.37 66.14 114.36 -121.16 36.52 -15.59 -18.33 153.18 -4.91 -180.00 
DOCKED: USER  keepresnum = 1 
DOCKED: USER  
DOCKED: REMARK  24 active torsions:
DOCKED: REMARK  status: ('A' for Active; 'I' for Inactive)
DOCKED: REMARK    1  A    between atoms: C_1  and  O_7 
DOCKED: REMARK    2  A    between atoms: C_2  and  O_12 
DOCKED: REMARK    3  A    between atoms: C_3  and  O_17 
DOCKED: REMARK    4  A    between atoms: C_4  and  O_22 
DOCKED: REMARK    5  A    between atoms: C_5  and  O_27 
DOCKED: REMARK    6  A    between atoms: C_6  and  O_32 
DOCKED: REMARK    7  A    between atoms: O_7  and  P_8 
DOCKED: REMARK    8  A    between atoms: P_8  and  O_10 
DOCKED: REMARK    9  A    between atoms: P_8  and  O_11 
DOCKED: REMARK   10  A    between atoms: O_12  and  P_13 
DOCKED: REMARK   11  A    between atoms: P_13  and  O_15 
DOCKED: REMARK   12  A    between atoms: P_13  and  O_16 
DOCKED: REMARK   13  A    between atoms: O_17  and  P_18 
DOCKED: REMARK   14  A    between atoms: P_18  and  O_20 
DOCKED: REMARK   15  A    between atoms: P_18  and  O_21 
DOCKED: REMARK   16  A    between atoms: O_22  and  P_23 
DOCKED: REMARK   17  A    between atoms: P_23  and  O_25 
DOCKED: REMARK   18  A    between atoms: P_23  and  O_26 
DOCKED: REMARK   19  A    between atoms: O_27  and  P_28 
DOCKED: REMARK   20  A    between atoms: P_28  and  O_30 
DOCKED: REMARK   21  A    between atoms: P_28  and  O_31 
DOCKED: REMARK   22  A    between atoms: O_32  and  P_33 
DOCKED: REMARK   23  A    between atoms: P_33  and  O_35 
DOCKED: REMARK   24  A    between atoms: P_33  and  O_36 
DOCKED: USER                              x       y       z     vdW  Elec       q    Type
DOCKED: USER                           _______ _______ _______ _____ _____    ______ ____
DOCKED: ROOT
DOCKED: ATOM      1  C   UNL d   1      -0.238   4.787  15.836 -0.05 -0.02    +0.194 C 
DOCKED: ATOM      2  C   UNL d   1       0.665   4.198  16.921 -0.04 -0.01    +0.194 C 
DOCKED: ATOM      3  C   UNL d   1       2.136   4.542  16.682 -0.05 -0.01    +0.194 C 
DOCKED: ATOM      4  C   UNL d   1       2.379   6.035  16.477 -0.06 -0.01    +0.194 C 
DOCKED: ATOM      5  C   UNL d   1       1.424   6.689  15.486 -0.14 -0.01    +0.194 C 
DOCKED: ATOM      6  C   UNL d   1      -0.041   6.296  15.687 -0.10 -0.02    +0.194 C 
DOCKED: ENDROOT
DOCKED: BRANCH   1   7
DOCKED: ATOM      7  O   UNL d   1      -1.598   4.571  16.222 -0.04 +0.03    -0.278 OA
DOCKED: BRANCH   7   8
DOCKED: ATOM      8  P   UNL d   1      -2.285   3.181  15.836 -0.02 -0.07    +0.473 P 
DOCKED: ATOM      9  O   UNL d   1      -3.267   3.251  14.720 -0.09 +0.07    -0.228 OA
DOCKED: BRANCH   8  10
DOCKED: ATOM     10  O   UNL d   1      -1.054   2.213  15.530 -0.06 +0.04    -0.303 OA
DOCKED: ATOM     11  H   UNL d   1      -0.784   1.758  16.349 +0.04 -0.02    +0.222 HD
DOCKED: ENDBRANCH   8  10
DOCKED: BRANCH   8  12
DOCKED: ATOM     12  O   UNL d   1      -2.834   2.597  17.208 -0.00 +0.02    -0.303 OA
DOCKED: ATOM     13  H   UNL d   1      -2.553   3.122  17.990 +0.01 -0.01    +0.222 HD
DOCKED: ENDBRANCH   8  12
DOCKED: ENDBRANCH   7   8
DOCKED: ENDBRANCH   1   7
DOCKED: BRANCH   2  14
DOCKED: ATOM     14  O   UNL d   1       0.273   4.728  18.194 -0.00 +0.01    -0.278 OA
DOCKED: BRANCH  14  15
DOCKED: ATOM     15  P   UNL d   1      -0.295   3.680  19.262 +0.00 -0.01    +0.473 P 
DOCKED: ATOM     16  O   UNL d   1      -1.490   4.108  20.055 +0.00 +0.00    -0.228 OA
DOCKED: BRANCH  15  17
DOCKED: ATOM     17  O   UNL d   1      -0.560   2.361  18.408 -0.00 +0.01    -0.303 OA
DOCKED: ATOM     18  H   UNL d   1      -1.046   2.567  17.587 +0.02 -0.01    +0.222 HD
DOCKED: ENDBRANCH  15  17
DOCKED: BRANCH  15  19
DOCKED: ATOM     19  O   UNL d   1       0.978   3.256  20.117 +0.00 +0.00    -0.303 OA
DOCKED: ATOM     20  H   UNL d   1       1.810   3.482  19.661 +0.00 -0.00    +0.222 HD
DOCKED: ENDBRANCH  15  19
DOCKED: ENDBRANCH  14  15
DOCKED: ENDBRANCH   2  14
DOCKED: BRANCH   6  21
DOCKED: ATOM     21  O   UNL d   1      -0.740   6.695  14.510 -0.13 +0.06    -0.278 OA
DOCKED: BRANCH  21  22
DOCKED: ATOM     22  P   UNL d   1      -1.949   7.730  14.620 -0.09 -0.08    +0.473 P 
DOCKED: ATOM     23  O   UNL d   1      -2.901   7.826  13.476 -0.14 +0.05    -0.228 OA
DOCKED: BRANCH  22  24
DOCKED: ATOM     24  O   UNL d   1      -2.611   7.313  16.006 -0.02 +0.03    -0.303 OA
DOCKED: ATOM     25  H   UNL d   1      -2.660   6.324  16.038 +0.03 -0.02    +0.222 HD
DOCKED: ENDBRANCH  22  24
DOCKED: BRANCH  22  26
DOCKED: ATOM     26  O   UNL d   1      -1.183   9.083  15.013 -0.06 +0.03    -0.303 OA
DOCKED: ATOM     27  H   UNL d   1      -0.237   8.997  14.778 +0.06 -0.03    +0.222 HD
DOCKED: ENDBRANCH  22  26
DOCKED: ENDBRANCH  21  22
DOCKED: ENDBRANCH   6  21
DOCKED: BRANCH   3  28
DOCKED: ATOM     28  O   UNL d   1       2.853   4.202  17.862 -0.00 +0.01    -0.278 OA
DOCKED: BRANCH  28  29
DOCKED: ATOM     29  P   UNL d   1       3.170   5.313  18.959 +0.01 -0.01    +0.473 P 
DOCKED: ATOM     30  O   UNL d   1       2.075   6.279  19.228 -0.00 +0.00    -0.228 OA
DOCKED: BRANCH  29  31
DOCKED: ATOM     31  O   UNL d   1       3.631   4.381  20.175 +0.00 +0.00    -0.303 OA
DOCKED: ATOM     32  H   UNL d   1       2.844   4.176  20.730 +0.00 -0.00    +0.222 HD
DOCKED: ENDBRANCH  29  31
DOCKED: BRANCH  29  33
DOCKED: ATOM     33  O   UNL d   1       4.548   5.915  18.435 +0.00 +0.00    -0.303 OA
DOCKED: ATOM     34  H   UNL d   1       4.557   5.885  17.447 +0.02 -0.01    +0.222 HD
DOCKED: ENDBRANCH  29  33
DOCKED: ENDBRANCH  28  29
DOCKED: ENDBRANCH   3  28
DOCKED: BRANCH   5  35
DOCKED: ATOM     35  O   UNL d   1       1.519   8.092  15.725 -0.06 +0.03    -0.278 OA
DOCKED: BRANCH  35  36
DOCKED: ATOM     36  P   UNL d   1       1.861   9.090  14.529 -0.16 -0.09    +0.473 P 
DOCKED: ATOM     37  O   UNL d   1       1.461  10.515  14.744 -0.11 +0.04    -0.228 OA
DOCKED: BRANCH  36  38
DOCKED: ATOM     38  O   UNL d   1       3.429   8.869  14.358 -0.14 +0.08    -0.303 OA
DOCKED: ATOM     39  H   UNL d   1       3.649   7.941  14.589 -0.06 -0.05    +0.222 HD
DOCKED: ENDBRANCH  36  38
DOCKED: BRANCH  36  40
DOCKED: ATOM     40  O   UNL d   1       1.230   8.345  13.273 -0.09 +0.09    -0.303 OA
DOCKED: ATOM     41  H   UNL d   1       0.987   7.416  13.485 +0.06 -0.05    +0.222 HD
DOCKED: ENDBRANCH  36  40
DOCKED: ENDBRANCH  35  36
DOCKED: ENDBRANCH   5  35
DOCKED: BRANCH   4  42
DOCKED: ATOM     42  O   UNL d   1       3.699   6.171  15.941 -0.05 +0.01    -0.278 OA
DOCKED: BRANCH  42  43
DOCKED: ATOM     43  P   UNL d   1       3.986   5.657  14.458 -0.15 -0.03    +0.473 P 
DOCKED: ATOM     44  O   UNL d   1       4.098   4.186  14.251 -0.23 +0.00    -0.228 OA
DOCKED: BRANCH  43  45
DOCKED: ATOM     45  O   UNL d   1       2.824   6.346  13.618 -0.41 -0.00    -0.303 OA
DOCKED: ATOM     46  H   UNL d   1       3.110   7.205  13.249 -0.45 -0.06    +0.222 HD
DOCKED: ENDBRANCH  43  45
DOCKED: BRANCH  43  47
DOCKED: ATOM     47  O   UNL d   1       5.264   6.517  14.013 -0.14 +0.07    -0.303 OA
DOCKED: ATOM     48  H   UNL d   1       4.993   7.447  13.871 -0.47 -0.11    +0.222 HD
DOCKED: ENDBRANCH  43  47
DOCKED: ENDBRANCH  42  43
DOCKED: ENDBRANCH   4  42
DOCKED: TORSDOF 24
DOCKED: TER
DOCKED: ENDMDL
________________________________________________________________________________


	BEGINNING GENETIC ALGORITHM DOCKING 78 of 100
Run: 78 Seed: 680204256 1051824056 [ Run 78 of 100 GA/GALS ]
Beginning LAMARCKIAN GENETIC ALGORITHM (LGA), with a maximum of 25000000 energy evaluations.

Final-Value: -16.344


	FINAL GENETIC ALGORITHM DOCKED STATE
	_______________________________________________


Detailed state:  trans 15.322 -7.609 -14.467 quatxyzw 0.258314 -0.945452 0.157697 0.120525 center 0.035 0.082 -0.065 ntor 24 99.1475 112.5162 -166.3047 44.4434 -11.7336 -143.2846 45.5104 -121.1740 -7.7663 50.0561 170.6197 111.0663 -52.4002 48.7417 -60.9792 -103.0549 -70.5404 103.7979 50.3639 -2.4185 -172.5673 45.0621 34.9217 -35.7402
State:	 15.322  -7.609 -14.467   0.260 -0.952  0.159 166.155     99.15  112.52 -166.30   44.44  -11.73 -143.28   45.51 -121.17   -7.77   50.06  170.62  111.07  -52.40   48.74  -60.98 -103.05  -70.54  103.80   50.36   -2.42 -172.57   45.06   34.92  -35.74

DOCKED: MODEL       78
DOCKED: USER    Run = 78
DOCKED: USER    DPF = D:/Protein_go_brrr/autodock/final/AncA/IHP/dock.dpf
DOCKED: USER  
DOCKED: USER    Estimated Free Energy of Binding    =   +3.60 kcal/mol  [=(1)+(2)+(3)-(4)]
DOCKED: USER    
DOCKED: USER    (1) Final Intermolecular Energy     =   -3.56 kcal/mol
DOCKED: USER        vdW + Hbond + desolv Energy     =   -3.35 kcal/mol
DOCKED: USER        Electrostatic Energy            =   -0.21 kcal/mol
DOCKED: USER    (2) Final Total Internal Energy     =  -12.78 kcal/mol
DOCKED: USER    (3) Torsional Free Energy           =   +7.16 kcal/mol
DOCKED: USER    (4) Unbound System's Energy  [=(2)] =  -12.78 kcal/mol
DOCKED: USER    
DOCKED: USER    
DOCKED: USER    NEWDPF move IHP_ideal_opt.pdbqt
DOCKED: USER    NEWDPF about 0.035000 0.082000 -0.065000
DOCKED: USER    NEWDPF tran0 15.322119 -7.608912 -14.466690
DOCKED: USER    NEWDPF quaternion0 0.258314 -0.945452 0.157697 0.120525
DOCKED: USER    NEWDPF axisangle0 0.260211 -0.952395 0.158855 166.155241
DOCKED: USER    NEWDPF quat0 0.260211 -0.952395 0.158855 166.155241
DOCKED: USER    NEWDPF dihe0 99.15 112.52 -166.30 44.44 -11.73 -143.28 45.51 -121.17 -7.77 50.06 170.62 111.07 -52.40 48.74 -60.98 -103.05 -70.54 103.80 50.36 -2.42 -172.57 45.06 34.92 -35.74 
DOCKED: USER  keepresnum = 1 
DOCKED: USER  
DOCKED: REMARK  24 active torsions:
DOCKED: REMARK  status: ('A' for Active; 'I' for Inactive)
DOCKED: REMARK    1  A    between atoms: C_1  and  O_7 
DOCKED: REMARK    2  A    between atoms: C_2  and  O_12 
DOCKED: REMARK    3  A    between atoms: C_3  and  O_17 
DOCKED: REMARK    4  A    between atoms: C_4  and  O_22 
DOCKED: REMARK    5  A    between atoms: C_5  and  O_27 
DOCKED: REMARK    6  A    between atoms: C_6  and  O_32 
DOCKED: REMARK    7  A    between atoms: O_7  and  P_8 
DOCKED: REMARK    8  A    between atoms: P_8  and  O_10 
DOCKED: REMARK    9  A    between atoms: P_8  and  O_11 
DOCKED: REMARK   10  A    between atoms: O_12  and  P_13 
DOCKED: REMARK   11  A    between atoms: P_13  and  O_15 
DOCKED: REMARK   12  A    between atoms: P_13  and  O_16 
DOCKED: REMARK   13  A    between atoms: O_17  and  P_18 
DOCKED: REMARK   14  A    between atoms: P_18  and  O_20 
DOCKED: REMARK   15  A    between atoms: P_18  and  O_21 
DOCKED: REMARK   16  A    between atoms: O_22  and  P_23 
DOCKED: REMARK   17  A    between atoms: P_23  and  O_25 
DOCKED: REMARK   18  A    between atoms: P_23  and  O_26 
DOCKED: REMARK   19  A    between atoms: O_27  and  P_28 
DOCKED: REMARK   20  A    between atoms: P_28  and  O_30 
DOCKED: REMARK   21  A    between atoms: P_28  and  O_31 
DOCKED: REMARK   22  A    between atoms: O_32  and  P_33 
DOCKED: REMARK   23  A    between atoms: P_33  and  O_35 
DOCKED: REMARK   24  A    between atoms: P_33  and  O_36 
DOCKED: USER                              x       y       z     vdW  Elec       q    Type
DOCKED: USER                           _______ _______ _______ _____ _____    ______ ____
DOCKED: ROOT
DOCKED: ATOM      1  C   UNL d   1      14.917  -9.181 -15.059 -0.10 +0.01    +0.194 C 
DOCKED: ATOM      2  C   UNL d   1      16.211  -9.093 -14.246 -0.08 +0.02    +0.194 C 
DOCKED: ATOM      3  C   UNL d   1      17.037  -7.863 -14.627 -0.04 +0.01    +0.194 C 
DOCKED: ATOM      4  C   UNL d   1      16.237  -6.563 -14.580 -0.11 +0.00    +0.194 C 
DOCKED: ATOM      5  C   UNL d   1      14.887  -6.640 -15.281 -0.14 -0.00    +0.194 C 
DOCKED: ATOM      6  C   UNL d   1      14.087  -7.901 -14.948 +0.02 +0.00    +0.194 C 
DOCKED: ENDROOT
DOCKED: BRANCH   1   7
DOCKED: ATOM      7  O   UNL d   1      14.129 -10.248 -14.528 -0.10 -0.03    -0.278 OA
DOCKED: BRANCH   7   8
DOCKED: ATOM      8  P   UNL d   1      14.603 -11.749 -14.798 -0.03 +0.06    +0.473 P 
DOCKED: ATOM      9  O   UNL d   1      15.842 -11.883 -15.612 -0.01 -0.02    -0.228 OA
DOCKED: BRANCH   8  10
DOCKED: ATOM     10  O   UNL d   1      14.739 -12.381 -13.339 -0.04 -0.05    -0.303 OA
DOCKED: ATOM     11  H   UNL d   1      15.380 -11.863 -12.818 +0.02 +0.04    +0.222 HD
DOCKED: ENDBRANCH   8  10
DOCKED: BRANCH   8  12
DOCKED: ATOM     12  O   UNL d   1      13.318 -12.493 -15.364 -0.02 -0.04    -0.303 OA
DOCKED: ATOM     13  H   UNL d   1      13.044 -12.168 -16.251 +0.02 +0.03    +0.222 HD
DOCKED: ENDBRANCH   8  12
DOCKED: ENDBRANCH   7   8
DOCKED: ENDBRANCH   1   7
DOCKED: BRANCH   2  14
DOCKED: ATOM     14  O   UNL d   1      15.882  -9.010 -12.854 -0.11 -0.05    -0.278 OA
DOCKED: BRANCH  14  15
DOCKED: ATOM     15  P   UNL d   1      16.628 -10.040 -11.880 -0.04 +0.08    +0.473 P 
DOCKED: ATOM     16  O   UNL d   1      17.737  -9.488 -11.040 -0.03 -0.03    -0.228 OA
DOCKED: BRANCH  15  17
DOCKED: ATOM     17  O   UNL d   1      15.451 -10.672 -11.011 -0.45 -0.09    -0.303 OA
DOCKED: ATOM     18  H   UNL d   1      15.174 -11.536 -11.372 +0.04 +0.05    +0.222 HD
DOCKED: ENDBRANCH  15  17
DOCKED: BRANCH  15  19
DOCKED: ATOM     19  O   UNL d   1      17.022 -11.260 -12.820 -0.01 -0.04    -0.303 OA
DOCKED: ATOM     20  H   UNL d   1      16.539 -11.234 -13.667 +0.02 +0.03    +0.222 HD
DOCKED: ENDBRANCH  15  19
DOCKED: ENDBRANCH  14  15
DOCKED: ENDBRANCH   2  14
DOCKED: BRANCH   6  21
DOCKED: ATOM     21  O   UNL d   1      13.043  -7.995 -15.915 -0.11 +0.01    -0.278 OA
DOCKED: BRANCH  21  22
DOCKED: ATOM     22  P   UNL d   1      13.329  -8.688 -17.323 -0.01 +0.02    +0.473 P 
DOCKED: ATOM     23  O   UNL d   1      14.705  -8.594 -17.889 -0.01 -0.01    -0.228 OA
DOCKED: BRANCH  22  24
DOCKED: ATOM     24  O   UNL d   1      12.813 -10.172 -17.066 -0.02 -0.02    -0.303 OA
DOCKED: ATOM     25  H   UNL d   1      13.503 -10.652 -16.542 +0.03 +0.02    +0.222 HD
DOCKED: ENDBRANCH  22  24
DOCKED: BRANCH  22  26
DOCKED: ATOM     26  O   UNL d   1      12.153  -8.081 -18.229 -0.01 -0.01    -0.303 OA
DOCKED: ATOM     27  H   UNL d   1      12.060  -7.125 -18.037 +0.03 +0.00    +0.222 HD
DOCKED: ENDBRANCH  22  26
DOCKED: ENDBRANCH  21  22
DOCKED: ENDBRANCH   6  21
DOCKED: BRANCH   3  28
DOCKED: ATOM     28  O   UNL d   1      18.058  -7.713 -13.648 -0.02 -0.02    -0.278 OA
DOCKED: BRANCH  28  29
DOCKED: ATOM     29  P   UNL d   1      19.404  -6.940 -14.003 +0.01 +0.03    +0.473 P 
DOCKED: ATOM     30  O   UNL d   1      20.662  -7.660 -13.675 -0.00 -0.02    -0.228 OA
DOCKED: BRANCH  29  31
DOCKED: ATOM     31  O   UNL d   1      19.138  -6.608 -15.545 -0.00 -0.02    -0.303 OA
DOCKED: ATOM     32  H   UNL d   1      18.792  -5.688 -15.613 +0.02 +0.01    +0.222 HD
DOCKED: ENDBRANCH  29  31
DOCKED: BRANCH  29  33
DOCKED: ATOM     33  O   UNL d   1      19.177  -5.531 -13.296 -0.02 -0.01    -0.303 OA
DOCKED: ATOM     34  H   UNL d   1      18.391  -5.091 -13.702 +0.03 +0.00    +0.222 HD
DOCKED: ENDBRANCH  29  33
DOCKED: ENDBRANCH  28  29
DOCKED: ENDBRANCH   3  28
DOCKED: BRANCH   5  35
DOCKED: ATOM     35  O   UNL d   1      14.136  -5.527 -14.799 -0.15 +0.04    -0.278 OA
DOCKED: BRANCH  35  36
DOCKED: ATOM     36  P   UNL d   1      12.805  -5.069 -15.548 -0.12 -0.05    +0.473 P 
DOCKED: ATOM     37  O   UNL d   1      12.734  -5.410 -17.003 -0.04 +0.00    -0.228 OA
DOCKED: BRANCH  36  38
DOCKED: ATOM     38  O   UNL d   1      11.677  -5.757 -14.659 -0.25 +0.04    -0.303 OA
DOCKED: ATOM     39  H   UNL d   1      11.626  -6.710 -14.886 -0.38 -0.06    +0.222 HD
DOCKED: ENDBRANCH  36  38
DOCKED: BRANCH  36  40
DOCKED: ATOM     40  O   UNL d   1      12.711  -3.529 -15.162 -0.11 +0.05    -0.303 OA
DOCKED: ATOM     41  H   UNL d   1      13.521  -3.219 -14.700 -0.31 -0.08    +0.222 HD
DOCKED: ENDBRANCH  36  40
DOCKED: ENDBRANCH  35  36
DOCKED: ENDBRANCH   5  35
DOCKED: BRANCH   4  42
DOCKED: ATOM     42  O   UNL d   1      17.012  -5.575 -15.267 -0.03 -0.00    -0.278 OA
DOCKED: BRANCH  42  43
DOCKED: ATOM     43  P   UNL d   1      16.941  -4.059 -14.774 -0.06 -0.03    +0.473 P 
DOCKED: ATOM     44  O   UNL d   1      18.155  -3.218 -14.963 -0.03 +0.01    -0.228 OA
DOCKED: BRANCH  43  45
DOCKED: ATOM     45  O   UNL d   1      15.646  -3.510 -15.518 -0.07 +0.03    -0.303 OA
DOCKED: ATOM     46  H   UNL d   1      14.861  -3.532 -14.935 -0.23 -0.06    +0.222 HD
DOCKED: ENDBRANCH  43  45
DOCKED: BRANCH  43  47
DOCKED: ATOM     47  O   UNL d   1      16.417  -4.190 -13.264 -0.01 +0.06    -0.303 OA
DOCKED: ATOM     48  H   UNL d   1      15.481  -4.479 -13.271 -0.29 -0.12    +0.222 HD
DOCKED: ENDBRANCH  43  47
DOCKED: ENDBRANCH  42  43
DOCKED: ENDBRANCH   4  42
DOCKED: TORSDOF 24
DOCKED: TER
DOCKED: ENDMDL
________________________________________________________________________________


	BEGINNING GENETIC ALGORITHM DOCKING 79 of 100
Run: 79 Seed: 2016486595 608187351 [ Run 79 of 100 GA/GALS ]
Beginning LAMARCKIAN GENETIC ALGORITHM (LGA), with a maximum of 25000000 energy evaluations.

Final-Value: -18.108


	FINAL GENETIC ALGORITHM DOCKED STATE
	_______________________________________________


Detailed state:  trans -0.013 14.251 6.707 quatxyzw -0.158576 -0.684505 -0.691599 -0.167323 center 0.035 0.082 -0.065 ntor 24 132.3739 -172.1375 18.0389 108.6579 1.4493 179.9894 -90.1231 -41.3746 87.9247 4.1640 -14.2698 -81.9813 113.4557 -39.0465 163.3940 45.0735 -122.5094 -77.8414 0.4345 -26.0446 -23.5857 -32.6696 -1.5956 48.9680
State:	 -0.013  14.251   6.707  -0.161 -0.694 -0.701 -160.736    132.37 -172.14   18.04  108.66    1.45  179.99  -90.12  -41.37   87.92    4.16  -14.27  -81.98  113.46  -39.05  163.39   45.07 -122.51  -77.84    0.43  -26.04  -23.59  -32.67   -1.60   48.97

DOCKED: MODEL       79
DOCKED: USER    Run = 79
DOCKED: USER    DPF = D:/Protein_go_brrr/autodock/final/AncA/IHP/dock.dpf
DOCKED: USER  
DOCKED: USER    Estimated Free Energy of Binding    =   +2.44 kcal/mol  [=(1)+(2)+(3)-(4)]
DOCKED: USER    
DOCKED: USER    (1) Final Intermolecular Energy     =   -4.72 kcal/mol
DOCKED: USER        vdW + Hbond + desolv Energy     =   -4.60 kcal/mol
DOCKED: USER        Electrostatic Energy            =   -0.12 kcal/mol
DOCKED: USER    (2) Final Total Internal Energy     =  -13.39 kcal/mol
DOCKED: USER    (3) Torsional Free Energy           =   +7.16 kcal/mol
DOCKED: USER    (4) Unbound System's Energy  [=(2)] =  -13.39 kcal/mol
DOCKED: USER    
DOCKED: USER    
DOCKED: USER    NEWDPF move IHP_ideal_opt.pdbqt
DOCKED: USER    NEWDPF about 0.035000 0.082000 -0.065000
DOCKED: USER    NEWDPF tran0 -0.013111 14.250547 6.707328
DOCKED: USER    NEWDPF quaternion0 -0.158576 -0.684505 -0.691599 -0.167323
DOCKED: USER    NEWDPF axisangle0 -0.160844 -0.694293 -0.701488 -160.735527
DOCKED: USER    NEWDPF quat0 -0.160844 -0.694293 -0.701488 -160.735527
DOCKED: USER    NEWDPF dihe0 132.37 -172.14 18.04 108.66 1.45 179.99 -90.12 -41.37 87.92 4.16 -14.27 -81.98 113.46 -39.05 163.39 45.07 -122.51 -77.84 0.43 -26.04 -23.59 -32.67 -1.60 48.97 
DOCKED: USER  keepresnum = 1 
DOCKED: USER  
DOCKED: REMARK  24 active torsions:
DOCKED: REMARK  status: ('A' for Active; 'I' for Inactive)
DOCKED: REMARK    1  A    between atoms: C_1  and  O_7 
DOCKED: REMARK    2  A    between atoms: C_2  and  O_12 
DOCKED: REMARK    3  A    between atoms: C_3  and  O_17 
DOCKED: REMARK    4  A    between atoms: C_4  and  O_22 
DOCKED: REMARK    5  A    between atoms: C_5  and  O_27 
DOCKED: REMARK    6  A    between atoms: C_6  and  O_32 
DOCKED: REMARK    7  A    between atoms: O_7  and  P_8 
DOCKED: REMARK    8  A    between atoms: P_8  and  O_10 
DOCKED: REMARK    9  A    between atoms: P_8  and  O_11 
DOCKED: REMARK   10  A    between atoms: O_12  and  P_13 
DOCKED: REMARK   11  A    between atoms: P_13  and  O_15 
DOCKED: REMARK   12  A    between atoms: P_13  and  O_16 
DOCKED: REMARK   13  A    between atoms: O_17  and  P_18 
DOCKED: REMARK   14  A    between atoms: P_18  and  O_20 
DOCKED: REMARK   15  A    between atoms: P_18  and  O_21 
DOCKED: REMARK   16  A    between atoms: O_22  and  P_23 
DOCKED: REMARK   17  A    between atoms: P_23  and  O_25 
DOCKED: REMARK   18  A    between atoms: P_23  and  O_26 
DOCKED: REMARK   19  A    between atoms: O_27  and  P_28 
DOCKED: REMARK   20  A    between atoms: P_28  and  O_30 
DOCKED: REMARK   21  A    between atoms: P_28  and  O_31 
DOCKED: REMARK   22  A    between atoms: O_32  and  P_33 
DOCKED: REMARK   23  A    between atoms: P_33  and  O_35 
DOCKED: REMARK   24  A    between atoms: P_33  and  O_36 
DOCKED: USER                              x       y       z     vdW  Elec       q    Type
DOCKED: USER                           _______ _______ _______ _____ _____    ______ ____
DOCKED: ROOT
DOCKED: ATOM      1  C   UNL d   1      -1.539  15.030   6.486 -0.07 +0.00    +0.194 C 
DOCKED: ATOM      2  C   UNL d   1      -0.781  14.684   5.203 -0.09 +0.00    +0.194 C 
DOCKED: ATOM      3  C   UNL d   1       0.709  15.013   5.319 -0.10 -0.00    +0.194 C 
DOCKED: ATOM      4  C   UNL d   1       1.364  14.407   6.558 -0.16 -0.01    +0.194 C 
DOCKED: ATOM      5  C   UNL d   1       0.581  14.629   7.845 -0.17 -0.01    +0.194 C 
DOCKED: ATOM      6  C   UNL d   1      -0.919  14.359   7.712 -0.16 -0.00    +0.194 C 
DOCKED: ENDROOT
DOCKED: BRANCH   1   7
DOCKED: ATOM      7  O   UNL d   1      -2.875  14.537   6.360 -0.04 -0.01    -0.278 OA
DOCKED: BRANCH   7   8
DOCKED: ATOM      8  P   UNL d   1      -4.082  15.574   6.496 -0.00 +0.02    +0.473 P 
DOCKED: ATOM      9  O   UNL d   1      -5.400  15.075   6.018 -0.02 -0.02    -0.228 OA
DOCKED: BRANCH   8  10
DOCKED: ATOM     10  O   UNL d   1      -4.083  15.967   8.042 -0.01 -0.01    -0.303 OA
DOCKED: ATOM     11  H   UNL d   1      -3.684  15.245   8.563 +0.03 +0.01    +0.222 HD
DOCKED: ENDBRANCH   8  10
DOCKED: BRANCH   8  12
DOCKED: ATOM     12  O   UNL d   1      -3.558  16.910   5.814 -0.00 -0.01    -0.303 OA
DOCKED: ATOM     13  H   UNL d   1      -4.257  17.387   5.312 +0.00 +0.01    +0.222 HD
DOCKED: ENDBRANCH   8  12
DOCKED: ENDBRANCH   7   8
DOCKED: ENDBRANCH   1   7
DOCKED: BRANCH   2  14
DOCKED: ATOM     14  O   UNL d   1      -0.919  13.282   4.941 -0.11 -0.01    -0.278 OA
DOCKED: BRANCH  14  15
DOCKED: ATOM     15  P   UNL d   1      -1.912  12.870   3.755 -0.16 +0.02    +0.473 P 
DOCKED: ATOM     16  O   UNL d   1      -2.301  13.952   2.797 -0.09 -0.00    -0.228 OA
DOCKED: BRANCH  15  17
DOCKED: ATOM     17  O   UNL d   1      -1.179  11.649   3.042 -0.31 +0.00    -0.303 OA
DOCKED: ATOM     18  H   UNL d   1      -0.455  11.961   2.466 +0.12 -0.01    +0.222 HD
DOCKED: ENDBRANCH  15  17
DOCKED: BRANCH  15  19
DOCKED: ATOM     19  O   UNL d   1      -3.120  12.135   4.485 -0.14 -0.04    -0.303 OA
DOCKED: ATOM     20  H   UNL d   1      -3.453  12.653   5.241 +0.07 +0.02    +0.222 HD
DOCKED: ENDBRANCH  15  19
DOCKED: ENDBRANCH  14  15
DOCKED: ENDBRANCH   2  14
DOCKED: BRANCH   6  21
DOCKED: ATOM     21  O   UNL d   1      -1.544  14.929   8.860 -0.05 -0.00    -0.278 OA
DOCKED: BRANCH  21  22
DOCKED: ATOM     22  P   UNL d   1      -2.490  14.028   9.776 -0.07 +0.02    +0.473 P 
DOCKED: ATOM     23  O   UNL d   1      -3.363  14.710  10.774 -0.03 -0.01    -0.228 OA
DOCKED: BRANCH  22  24
DOCKED: ATOM     24  O   UNL d   1      -3.269  13.165   8.689 -0.06 -0.03    -0.303 OA
DOCKED: ATOM     25  H   UNL d   1      -3.823  13.781   8.145 +0.05 +0.02    +0.222 HD
DOCKED: ENDBRANCH  22  24
DOCKED: BRANCH  22  26
DOCKED: ATOM     26  O   UNL d   1      -1.451  12.958  10.365 -0.19 -0.00    -0.303 OA
DOCKED: ATOM     27  H   UNL d   1      -0.545  13.204  10.088 +0.06 -0.01    +0.222 HD
DOCKED: ENDBRANCH  22  26
DOCKED: ENDBRANCH  21  22
DOCKED: ENDBRANCH   6  21
DOCKED: BRANCH   3  28
DOCKED: ATOM     28  O   UNL d   1       1.368  14.412   4.212 -0.13 +0.00    -0.278 OA
DOCKED: BRANCH  28  29
DOCKED: ATOM     29  P   UNL d   1       1.300  15.089   2.771 -0.08 -0.01    +0.473 P 
DOCKED: ATOM     30  O   UNL d   1       0.922  16.525   2.755 -0.04 +0.01    -0.228 OA
DOCKED: BRANCH  29  31
DOCKED: ATOM     31  O   UNL d   1       2.753  14.713   2.217 -0.45 -0.00    -0.303 OA
DOCKED: ATOM     32  H   UNL d   1       3.400  14.788   2.956 +0.11 -0.02    +0.222 HD
DOCKED: ENDBRANCH  29  31
DOCKED: BRANCH  29  33
DOCKED: ATOM     33  O   UNL d   1       0.351  14.086   1.977 -0.13 +0.01    -0.303 OA
DOCKED: ATOM     34  H   UNL d   1      -0.142  13.528   2.627 +0.09 -0.00    +0.222 HD
DOCKED: ENDBRANCH  29  33
DOCKED: ENDBRANCH  28  29
DOCKED: ENDBRANCH   3  28
DOCKED: BRANCH   5  35
DOCKED: ATOM     35  O   UNL d   1       1.096  13.683   8.780 -0.18 +0.06    -0.278 OA
DOCKED: BRANCH  35  36
DOCKED: ATOM     36  P   UNL d   1       1.566  14.157  10.229 -0.15 -0.05    +0.473 P 
DOCKED: ATOM     37  O   UNL d   1       2.907  14.818  10.288 -0.11 -0.00    -0.228 OA
DOCKED: BRANCH  36  38
DOCKED: ATOM     38  O   UNL d   1       0.356  15.092  10.674 -0.04 +0.01    -0.303 OA
DOCKED: ATOM     39  H   UNL d   1      -0.425  14.896  10.112 +0.05 -0.01    +0.222 HD
DOCKED: ENDBRANCH  36  38
DOCKED: BRANCH  36  40
DOCKED: ATOM     40  O   UNL d   1       1.371  12.839  11.098 -0.25 +0.07    -0.303 OA
DOCKED: ATOM     41  H   UNL d   1       0.568  12.340  10.827 -0.22 -0.06    +0.222 HD
DOCKED: ENDBRANCH  36  40
DOCKED: ENDBRANCH  35  36
DOCKED: ENDBRANCH   5  35
DOCKED: BRANCH   4  42
DOCKED: ATOM     42  O   UNL d   1       2.630  15.056   6.718 -0.16 +0.03    -0.278 OA
DOCKED: BRANCH  42  43
DOCKED: ATOM     43  P   UNL d   1       3.726  14.903   5.569 -0.20 -0.10    +0.473 P 
DOCKED: ATOM     44  O   UNL d   1       3.745  13.624   4.804 -0.37 +0.06    -0.228 OA
DOCKED: BRANCH  43  45
DOCKED: ATOM     45  O   UNL d   1       3.475  16.193   4.672 -0.08 +0.04    -0.303 OA
DOCKED: ATOM     46  H   UNL d   1       2.792  16.029   3.991 +0.09 -0.02    +0.222 HD
DOCKED: ENDBRANCH  43  45
DOCKED: BRANCH  43  47
DOCKED: ATOM     47  O   UNL d   1       5.093  15.284   6.313 -0.20 +0.13    -0.303 OA
DOCKED: ATOM     48  H   UNL d   1       5.545  14.463   6.599 -0.45 -0.18    +0.222 HD
DOCKED: ENDBRANCH  43  47
DOCKED: ENDBRANCH  42  43
DOCKED: ENDBRANCH   4  42
DOCKED: TORSDOF 24
DOCKED: TER
DOCKED: ENDMDL
________________________________________________________________________________


	BEGINNING GENETIC ALGORITHM DOCKING 80 of 100
Run: 80 Seed: 274756770 70689713 [ Run 80 of 100 GA/GALS ]
Beginning LAMARCKIAN GENETIC ALGORITHM (LGA), with a maximum of 25000000 energy evaluations.

Final-Value: -18.034


	FINAL GENETIC ALGORITHM DOCKED STATE
	_______________________________________________


Detailed state:  trans -18.519 9.221 -3.124 quatxyzw -0.850142 0.224371 0.021772 -0.475858 center 0.035 0.082 -0.065 ntor 24 -120.8104 -25.9439 77.0191 98.6582 125.6617 77.7473 -116.1955 -6.4966 10.0251 29.5038 157.3173 135.5336 -155.9203 -41.8360 98.6943 55.8808 -129.3338 105.1712 45.6431 -16.9683 -47.1584 161.2311 144.7057 -43.4885
State:	-18.519   9.221  -3.124  -0.967  0.255  0.025 -123.170   -120.81  -25.94   77.02   98.66  125.66   77.75 -116.20   -6.50   10.03   29.50  157.32  135.53 -155.92  -41.84   98.69   55.88 -129.33  105.17   45.64  -16.97  -47.16  161.23  144.71  -43.49

DOCKED: MODEL       80
DOCKED: USER    Run = 80
DOCKED: USER    DPF = D:/Protein_go_brrr/autodock/final/AncA/IHP/dock.dpf
DOCKED: USER  
DOCKED: USER    Estimated Free Energy of Binding    =   +3.27 kcal/mol  [=(1)+(2)+(3)-(4)]
DOCKED: USER    
DOCKED: USER    (1) Final Intermolecular Energy     =   -3.89 kcal/mol
DOCKED: USER        vdW + Hbond + desolv Energy     =   -3.78 kcal/mol
DOCKED: USER        Electrostatic Energy            =   -0.11 kcal/mol
DOCKED: USER    (2) Final Total Internal Energy     =  -14.15 kcal/mol
DOCKED: USER    (3) Torsional Free Energy           =   +7.16 kcal/mol
DOCKED: USER    (4) Unbound System's Energy  [=(2)] =  -14.15 kcal/mol
DOCKED: USER    
DOCKED: USER    
DOCKED: USER    NEWDPF move IHP_ideal_opt.pdbqt
DOCKED: USER    NEWDPF about 0.035000 0.082000 -0.065000
DOCKED: USER    NEWDPF tran0 -18.519326 9.221398 -3.124341
DOCKED: USER    NEWDPF quaternion0 -0.850142 0.224371 0.021772 -0.475858
DOCKED: USER    NEWDPF axisangle0 -0.966596 0.255106 0.024755 -123.169500
DOCKED: USER    NEWDPF quat0 -0.966596 0.255106 0.024755 -123.169500
DOCKED: USER    NEWDPF dihe0 -120.81 -25.94 77.02 98.66 125.66 77.75 -116.20 -6.50 10.03 29.50 157.32 135.53 -155.92 -41.84 98.69 55.88 -129.33 105.17 45.64 -16.97 -47.16 161.23 144.71 -43.49 
DOCKED: USER  keepresnum = 1 
DOCKED: USER  
DOCKED: REMARK  24 active torsions:
DOCKED: REMARK  status: ('A' for Active; 'I' for Inactive)
DOCKED: REMARK    1  A    between atoms: C_1  and  O_7 
DOCKED: REMARK    2  A    between atoms: C_2  and  O_12 
DOCKED: REMARK    3  A    between atoms: C_3  and  O_17 
DOCKED: REMARK    4  A    between atoms: C_4  and  O_22 
DOCKED: REMARK    5  A    between atoms: C_5  and  O_27 
DOCKED: REMARK    6  A    between atoms: C_6  and  O_32 
DOCKED: REMARK    7  A    between atoms: O_7  and  P_8 
DOCKED: REMARK    8  A    between atoms: P_8  and  O_10 
DOCKED: REMARK    9  A    between atoms: P_8  and  O_11 
DOCKED: REMARK   10  A    between atoms: O_12  and  P_13 
DOCKED: REMARK   11  A    between atoms: P_13  and  O_15 
DOCKED: REMARK   12  A    between atoms: P_13  and  O_16 
DOCKED: REMARK   13  A    between atoms: O_17  and  P_18 
DOCKED: REMARK   14  A    between atoms: P_18  and  O_20 
DOCKED: REMARK   15  A    between atoms: P_18  and  O_21 
DOCKED: REMARK   16  A    between atoms: O_22  and  P_23 
DOCKED: REMARK   17  A    between atoms: P_23  and  O_25 
DOCKED: REMARK   18  A    between atoms: P_23  and  O_26 
DOCKED: REMARK   19  A    between atoms: O_27  and  P_28 
DOCKED: REMARK   20  A    between atoms: P_28  and  O_30 
DOCKED: REMARK   21  A    between atoms: P_28  and  O_31 
DOCKED: REMARK   22  A    between atoms: O_32  and  P_33 
DOCKED: REMARK   23  A    between atoms: P_33  and  O_35 
DOCKED: REMARK   24  A    between atoms: P_33  and  O_36 
DOCKED: USER                              x       y       z     vdW  Elec       q    Type
DOCKED: USER                           _______ _______ _______ _____ _____    ______ ____
DOCKED: ROOT
DOCKED: ATOM      1  C   UNL d   1     -16.897   9.814  -3.161 -0.09 -0.01    +0.194 C 
DOCKED: ATOM      2  C   UNL d   1     -17.760  10.321  -2.004 -0.05 -0.00    +0.194 C 
DOCKED: ATOM      3  C   UNL d   1     -19.167  10.699  -2.470 -0.01 +0.01    +0.194 C 
DOCKED: ATOM      4  C   UNL d   1     -19.857   9.590  -3.262 -0.02 +0.01    +0.194 C 
DOCKED: ATOM      5  C   UNL d   1     -18.990   8.976  -4.353 -0.03 +0.01    +0.194 C 
DOCKED: ATOM      6  C   UNL d   1     -17.563   8.654  -3.903 -0.10 -0.00    +0.194 C 
DOCKED: ENDROOT
DOCKED: BRANCH   1   7
DOCKED: ATOM      7  O   UNL d   1     -15.668   9.323  -2.619 -0.15 +0.05    -0.278 OA
DOCKED: BRANCH   7   8
DOCKED: ATOM      8  P   UNL d   1     -14.560  10.382  -2.169 -0.13 -0.04    +0.473 P 
DOCKED: ATOM      9  O   UNL d   1     -13.406  10.520  -3.098 -0.18 +0.01    -0.228 OA
DOCKED: BRANCH   8  10
DOCKED: ATOM     10  O   UNL d   1     -15.377  11.738  -1.977 -0.03 +0.00    -0.303 OA
DOCKED: ATOM     11  H   UNL d   1     -15.810  11.738  -1.103 +0.03 -0.00    +0.222 HD
DOCKED: ENDBRANCH   8  10
DOCKED: BRANCH   8  12
DOCKED: ATOM     12  O   UNL d   1     -14.202   9.994  -0.671 -0.16 +0.03    -0.303 OA
DOCKED: ATOM     13  H   UNL d   1     -14.923  10.203  -0.035 +0.03 -0.01    +0.222 HD
DOCKED: ENDBRANCH   8  12
DOCKED: ENDBRANCH   7   8
DOCKED: ENDBRANCH   1   7
DOCKED: BRANCH   2  14
DOCKED: ATOM     14  O   UNL d   1     -17.868   9.289  -1.015 -0.09 +0.00    -0.278 OA
DOCKED: BRANCH  14  15
DOCKED: ATOM     15  P   UNL d   1     -17.198   9.588   0.408 -0.12 -0.02    +0.473 P 
DOCKED: ATOM     16  O   UNL d   1     -16.806  11.006   0.682 -0.04 -0.00    -0.228 OA
DOCKED: BRANCH  15  17
DOCKED: ATOM     17  O   UNL d   1     -18.254   9.025   1.460 -0.07 -0.00    -0.303 OA
DOCKED: ATOM     18  H   UNL d   1     -19.135   8.920   1.052 +0.04 +0.01    +0.222 HD
DOCKED: ENDBRANCH  15  17
DOCKED: BRANCH  15  19
DOCKED: ATOM     19  O   UNL d   1     -16.027   8.518   0.528 -0.20 +0.06    -0.303 OA
DOCKED: ATOM     20  H   UNL d   1     -15.573   8.383  -0.325 -0.35 -0.12    +0.222 HD
DOCKED: ENDBRANCH  15  19
DOCKED: ENDBRANCH  14  15
DOCKED: ENDBRANCH   2  14
DOCKED: BRANCH   6  21
DOCKED: ATOM     21  O   UNL d   1     -16.800   8.422  -5.085 -0.07 +0.00    -0.278 OA
DOCKED: BRANCH  21  22
DOCKED: ATOM     22  P   UNL d   1     -15.570   7.407  -5.047 -0.22 -0.01    +0.473 P 
DOCKED: ATOM     23  O   UNL d   1     -15.509   6.335  -6.083 -0.29 -0.00    -0.228 OA
DOCKED: BRANCH  22  24
DOCKED: ATOM     24  O   UNL d   1     -14.328   8.402  -5.042 -0.16 +0.00    -0.303 OA
DOCKED: ATOM     25  H   UNL d   1     -14.399   8.980  -4.241 +0.07 -0.01    +0.222 HD
DOCKED: ENDBRANCH  22  24
DOCKED: BRANCH  22  26
DOCKED: ATOM     26  O   UNL d   1     -15.604   6.912  -3.523 -0.37 +0.04    -0.303 OA
DOCKED: ATOM     27  H   UNL d   1     -14.969   7.441  -2.999 -0.47 -0.10    +0.222 HD
DOCKED: ENDBRANCH  22  26
DOCKED: ENDBRANCH  21  22
DOCKED: ENDBRANCH   6  21
DOCKED: BRANCH   3  28
DOCKED: ATOM     28  O   UNL d   1     -19.967  10.887  -1.309 -0.00 -0.01    -0.278 OA
DOCKED: BRANCH  28  29
DOCKED: ATOM     29  P   UNL d   1     -20.733   9.655  -0.652 -0.01 +0.03    +0.473 P 
DOCKED: ATOM     30  O   UNL d   1     -20.080   8.331  -0.819 -0.06 -0.02    -0.228 OA
DOCKED: BRANCH  29  31
DOCKED: ATOM     31  O   UNL d   1     -20.902  10.197   0.844 -0.00 -0.02    -0.303 OA
DOCKED: ATOM     32  H   UNL d   1     -20.008  10.295   1.245 +0.02 +0.01    +0.222 HD
DOCKED: ENDBRANCH  29  31
DOCKED: BRANCH  29  33
DOCKED: ATOM     33  O   UNL d   1     -22.199   9.815  -1.252 -0.00 -0.02    -0.303 OA
DOCKED: ATOM     34  H   UNL d   1     -22.138   9.882  -2.236 +0.00 +0.01    +0.222 HD
DOCKED: ENDBRANCH  29  33
DOCKED: ENDBRANCH  28  29
DOCKED: ENDBRANCH   3  28
DOCKED: BRANCH   5  35
DOCKED: ATOM     35  O   UNL d   1     -19.612   7.738  -4.691 -0.03 -0.01    -0.278 OA
DOCKED: BRANCH  35  36
DOCKED: ATOM     36  P   UNL d   1     -19.304   6.424  -3.841 -0.12 +0.03    +0.473 P 
DOCKED: ATOM     37  O   UNL d   1     -18.082   5.664  -4.248 -0.30 +0.01    -0.228 OA
DOCKED: BRANCH  36  38
DOCKED: ATOM     38  O   UNL d   1     -19.252   7.001  -2.357 -0.12 -0.03    -0.303 OA
DOCKED: ATOM     39  H   UNL d   1     -18.541   7.675  -2.299 +0.07 +0.01    +0.222 HD
DOCKED: ENDBRANCH  36  38
DOCKED: BRANCH  36  40
DOCKED: ATOM     40  O   UNL d   1     -20.691   5.647  -3.901 -0.07 -0.03    -0.303 OA
DOCKED: ATOM     41  H   UNL d   1     -21.412   6.217  -4.249 +0.03 +0.02    +0.222 HD
DOCKED: ENDBRANCH  36  40
DOCKED: ENDBRANCH  35  36
DOCKED: ENDBRANCH   5  35
DOCKED: BRANCH   4  42
DOCKED: ATOM     42  O   UNL d   1     -20.988  10.184  -3.907 -0.00 -0.01    -0.278 OA
DOCKED: BRANCH  42  43
DOCKED: ATOM     43  P   UNL d   1     -22.231   9.260  -4.290 -0.00 +0.03    +0.473 P 
DOCKED: ATOM     44  O   UNL d   1     -23.576   9.897  -4.323 +0.00 -0.01    -0.228 OA
DOCKED: BRANCH  43  45
DOCKED: ATOM     45  O   UNL d   1     -21.778   8.623  -5.676 -0.00 -0.02    -0.303 OA
DOCKED: ATOM     46  H   UNL d   1     -21.218   7.832  -5.541 +0.01 +0.01    +0.222 HD
DOCKED: ENDBRANCH  43  45
DOCKED: BRANCH  43  47
DOCKED: ATOM     47  O   UNL d   1     -22.080   8.013  -3.294 -0.01 -0.02    -0.303 OA
DOCKED: ATOM     48  H   UNL d   1     -21.146   7.717  -3.286 +0.03 +0.02    +0.222 HD
DOCKED: ENDBRANCH  43  47
DOCKED: ENDBRANCH  42  43
DOCKED: ENDBRANCH   4  42
DOCKED: TORSDOF 24
DOCKED: TER
DOCKED: ENDMDL
________________________________________________________________________________


	BEGINNING GENETIC ALGORITHM DOCKING 81 of 100
Run: 81 Seed: 2092555170 516010241 [ Run 81 of 100 GA/GALS ]
Beginning LAMARCKIAN GENETIC ALGORITHM (LGA), with a maximum of 25000000 energy evaluations.

Final-Value: -17.734


	FINAL GENETIC ALGORITHM DOCKED STATE
	_______________________________________________


Detailed state:  trans 0.972 8.733 15.766 quatxyzw -0.433743 0.162926 -0.853906 0.236994 center 0.035 0.082 -0.065 ntor 24 104.5546 115.6007 142.1470 21.9484 7.9310 91.6693 -99.5598 18.7467 -43.5853 35.4522 -80.2709 -141.7848 -76.1180 33.3629 179.9737 -141.8710 10.9754 -15.5047 -147.0766 -23.8867 14.2894 -36.4862 -167.1203 153.5537
State:	  0.972   8.733  15.766  -0.446  0.168 -0.879 152.582    104.55  115.60  142.15   21.95    7.93   91.67  -99.56   18.75  -43.59   35.45  -80.27 -141.78  -76.12   33.36  179.97 -141.87   10.98  -15.50 -147.08  -23.89   14.29  -36.49 -167.12  153.55

DOCKED: MODEL       81
DOCKED: USER    Run = 81
DOCKED: USER    DPF = D:/Protein_go_brrr/autodock/final/AncA/IHP/dock.dpf
DOCKED: USER  
DOCKED: USER    Estimated Free Energy of Binding    =   +2.75 kcal/mol  [=(1)+(2)+(3)-(4)]
DOCKED: USER    
DOCKED: USER    (1) Final Intermolecular Energy     =   -4.41 kcal/mol
DOCKED: USER        vdW + Hbond + desolv Energy     =   -4.23 kcal/mol
DOCKED: USER        Electrostatic Energy            =   -0.18 kcal/mol
DOCKED: USER    (2) Final Total Internal Energy     =  -13.33 kcal/mol
DOCKED: USER    (3) Torsional Free Energy           =   +7.16 kcal/mol
DOCKED: USER    (4) Unbound System's Energy  [=(2)] =  -13.33 kcal/mol
DOCKED: USER    
DOCKED: USER    
DOCKED: USER    NEWDPF move IHP_ideal_opt.pdbqt
DOCKED: USER    NEWDPF about 0.035000 0.082000 -0.065000
DOCKED: USER    NEWDPF tran0 0.972438 8.733355 15.766265
DOCKED: USER    NEWDPF quaternion0 -0.433743 0.162926 -0.853906 0.236994
DOCKED: USER    NEWDPF axisangle0 -0.446462 0.167704 -0.878947 152.581619
DOCKED: USER    NEWDPF quat0 -0.446462 0.167704 -0.878947 152.581619
DOCKED: USER    NEWDPF dihe0 104.55 115.60 142.15 21.95 7.93 91.67 -99.56 18.75 -43.59 35.45 -80.27 -141.78 -76.12 33.36 179.97 -141.87 10.98 -15.50 -147.08 -23.89 14.29 -36.49 -167.12 153.55 
DOCKED: USER  keepresnum = 1 
DOCKED: USER  
DOCKED: REMARK  24 active torsions:
DOCKED: REMARK  status: ('A' for Active; 'I' for Inactive)
DOCKED: REMARK    1  A    between atoms: C_1  and  O_7 
DOCKED: REMARK    2  A    between atoms: C_2  and  O_12 
DOCKED: REMARK    3  A    between atoms: C_3  and  O_17 
DOCKED: REMARK    4  A    between atoms: C_4  and  O_22 
DOCKED: REMARK    5  A    between atoms: C_5  and  O_27 
DOCKED: REMARK    6  A    between atoms: C_6  and  O_32 
DOCKED: REMARK    7  A    between atoms: O_7  and  P_8 
DOCKED: REMARK    8  A    between atoms: P_8  and  O_10 
DOCKED: REMARK    9  A    between atoms: P_8  and  O_11 
DOCKED: REMARK   10  A    between atoms: O_12  and  P_13 
DOCKED: REMARK   11  A    between atoms: P_13  and  O_15 
DOCKED: REMARK   12  A    between atoms: P_13  and  O_16 
DOCKED: REMARK   13  A    between atoms: O_17  and  P_18 
DOCKED: REMARK   14  A    between atoms: P_18  and  O_20 
DOCKED: REMARK   15  A    between atoms: P_18  and  O_21 
DOCKED: REMARK   16  A    between atoms: O_22  and  P_23 
DOCKED: REMARK   17  A    between atoms: P_23  and  O_25 
DOCKED: REMARK   18  A    between atoms: P_23  and  O_26 
DOCKED: REMARK   19  A    between atoms: O_27  and  P_28 
DOCKED: REMARK   20  A    between atoms: P_28  and  O_30 
DOCKED: REMARK   21  A    between atoms: P_28  and  O_31 
DOCKED: REMARK   22  A    between atoms: O_32  and  P_33 
DOCKED: REMARK   23  A    between atoms: P_33  and  O_35 
DOCKED: REMARK   24  A    between atoms: P_33  and  O_36 
DOCKED: USER                              x       y       z     vdW  Elec       q    Type
DOCKED: USER                           _______ _______ _______ _____ _____    ______ ____
DOCKED: ROOT
DOCKED: ATOM      1  C   UNL d   1       1.341   9.422  17.307 -0.01 -0.01    +0.194 C 
DOCKED: ATOM      2  C   UNL d   1       2.174   9.943  16.134 -0.04 -0.02    +0.194 C 
DOCKED: ATOM      3  C   UNL d   1       2.620   8.809  15.208 -0.14 -0.03    +0.194 C 
DOCKED: ATOM      4  C   UNL d   1       1.467   7.920  14.748 -0.23 -0.03    +0.194 C 
DOCKED: ATOM      5  C   UNL d   1       0.543   7.470  15.873 -0.09 -0.02    +0.194 C 
DOCKED: ATOM      6  C   UNL d   1       0.147   8.592  16.835 -0.02 -0.01    +0.194 C 
DOCKED: ENDROOT
DOCKED: BRANCH   1   7
DOCKED: ATOM      7  O   UNL d   1       0.823  10.547  18.021 -0.00 +0.01    -0.278 OA
DOCKED: BRANCH   7   8
DOCKED: ATOM      8  P   UNL d   1      -0.600  11.129  17.589 +0.00 -0.01    +0.473 P 
DOCKED: ATOM      9  O   UNL d   1      -0.997  10.848  16.183 -0.02 +0.01    -0.228 OA
DOCKED: BRANCH   8  10
DOCKED: ATOM     10  O   UNL d   1      -1.610  10.516  18.662 -0.00 +0.00    -0.303 OA
DOCKED: ATOM     11  H   UNL d   1      -1.507   9.547  18.691 +0.00 -0.00    +0.222 HD
DOCKED: ENDBRANCH   8  10
DOCKED: BRANCH   8  12
DOCKED: ATOM     12  O   UNL d   1      -0.563  12.662  18.006 -0.00 +0.00    -0.303 OA
DOCKED: ATOM     13  H   UNL d   1       0.043  13.199  17.447 +0.00 -0.00    +0.222 HD
DOCKED: ENDBRANCH   8  12
DOCKED: ENDBRANCH   7   8
DOCKED: ENDBRANCH   1   7
DOCKED: BRANCH   2  14
DOCKED: ATOM     14  O   UNL d   1       1.385  10.868  15.376 -0.04 +0.03    -0.278 OA
DOCKED: BRANCH  14  15
DOCKED: ATOM     15  P   UNL d   1       1.778  12.415  15.501 +0.00 -0.03    +0.473 P 
DOCKED: ATOM     16  O   UNL d   1       2.803  12.928  14.538 -0.04 +0.01    -0.228 OA
DOCKED: BRANCH  15  17
DOCKED: ATOM     17  O   UNL d   1       0.385  13.180  15.386 -0.01 +0.01    -0.303 OA
DOCKED: ATOM     18  H   UNL d   1      -0.292  12.764  15.953 +0.01 -0.01    +0.222 HD
DOCKED: ENDBRANCH  15  17
DOCKED: BRANCH  15  19
DOCKED: ATOM     19  O   UNL d   1       2.125  12.612  17.041 -0.00 +0.01    -0.303 OA
DOCKED: ATOM     20  H   UNL d   1       1.531  12.092  17.614 +0.00 -0.00    +0.222 HD
DOCKED: ENDBRANCH  15  19
DOCKED: ENDBRANCH  14  15
DOCKED: ENDBRANCH   2  14
DOCKED: BRANCH   6  21
DOCKED: ATOM     21  O   UNL d   1      -0.412   7.968  17.989 -0.00 +0.01    -0.278 OA
DOCKED: BRANCH  21  22
DOCKED: ATOM     22  P   UNL d   1      -1.971   7.632  18.031 +0.01 -0.01    +0.473 P 
DOCKED: ATOM     23  O   UNL d   1      -2.658   7.641  19.355 +0.00 +0.00    -0.228 OA
DOCKED: BRANCH  22  24
DOCKED: ATOM     24  O   UNL d   1      -2.555   8.664  16.969 -0.00 +0.01    -0.303 OA
DOCKED: ATOM     25  H   UNL d   1      -2.311   9.579  17.262 +0.01 -0.01    +0.222 HD
DOCKED: ENDBRANCH  22  24
DOCKED: BRANCH  22  26
DOCKED: ATOM     26  O   UNL d   1      -2.029   6.252  17.218 -0.01 +0.02    -0.303 OA
DOCKED: ATOM     27  H   UNL d   1      -2.041   6.444  16.258 +0.03 -0.02    +0.222 HD
DOCKED: ENDBRANCH  22  26
DOCKED: ENDBRANCH  21  22
DOCKED: ENDBRANCH   6  21
DOCKED: BRANCH   3  28
DOCKED: ATOM     28  O   UNL d   1       3.135   9.402  14.023 -0.20 +0.08    -0.278 OA
DOCKED: BRANCH  28  29
DOCKED: ATOM     29  P   UNL d   1       4.561  10.111  14.033 -0.07 -0.11    +0.473 P 
DOCKED: ATOM     30  O   UNL d   1       4.877  10.932  12.836 -0.32 +0.04    -0.228 OA
DOCKED: BRANCH  29  31
DOCKED: ATOM     31  O   UNL d   1       4.484  10.873  15.438 -0.02 +0.03    -0.303 OA
DOCKED: ATOM     32  H   UNL d   1       3.622  11.346  15.491 +0.04 -0.02    +0.222 HD
DOCKED: ENDBRANCH  29  31
DOCKED: BRANCH  29  33
DOCKED: ATOM     33  O   UNL d   1       5.538   8.893  14.347 -0.10 +0.08    -0.303 OA
DOCKED: ATOM     34  H   UNL d   1       5.667   8.363  13.522 -0.45 -0.12    +0.222 HD
DOCKED: ENDBRANCH  29  33
DOCKED: ENDBRANCH  28  29
DOCKED: ENDBRANCH   3  28
DOCKED: BRANCH   5  35
DOCKED: ATOM     35  O   UNL d   1      -0.652   7.022  15.236 -0.10 +0.04    -0.278 OA
DOCKED: BRANCH  35  36
DOCKED: ATOM     36  P   UNL d   1      -1.200   7.767  13.937 -0.15 -0.10    +0.473 P 
DOCKED: ATOM     37  O   UNL d   1      -0.233   7.877  12.801 -0.34 +0.07    -0.228 OA
DOCKED: BRANCH  36  38
DOCKED: ATOM     38  O   UNL d   1      -2.508   6.922  13.603 -0.17 +0.10    -0.303 OA
DOCKED: ATOM     39  H   UNL d   1      -2.378   6.453  12.751 +0.07 -0.14    +0.222 HD
DOCKED: ENDBRANCH  36  38
DOCKED: BRANCH  36  40
DOCKED: ATOM     40  O   UNL d   1      -1.765   9.127  14.538 -0.08 +0.03    -0.303 OA
DOCKED: ATOM     41  H   UNL d   1      -1.734   9.131  15.520 +0.04 -0.02    +0.222 HD
DOCKED: ENDBRANCH  36  40
DOCKED: ENDBRANCH  35  36
DOCKED: ENDBRANCH   5  35
DOCKED: BRANCH   4  42
DOCKED: ATOM     42  O   UNL d   1       2.052   6.740  14.187 -0.39 +0.01    -0.278 OA
DOCKED: BRANCH  42  43
DOCKED: ATOM     43  P   UNL d   1       3.288   6.061  14.934 -0.13 -0.02    +0.473 P 
DOCKED: ATOM     44  O   UNL d   1       3.355   6.200  16.416 -0.04 +0.01    -0.228 OA
DOCKED: BRANCH  43  45
DOCKED: ATOM     45  O   UNL d   1       3.220   4.556  14.424 -0.68 -0.02    -0.303 OA
DOCKED: ATOM     46  H   UNL d   1       3.616   3.940  15.073 +0.06 -0.00    +0.222 HD
DOCKED: ENDBRANCH  43  45
DOCKED: BRANCH  43  47
DOCKED: ATOM     47  O   UNL d   1       4.555   6.622  14.129 -0.11 +0.08    -0.303 OA
DOCKED: ATOM     48  H   UNL d   1       4.390   7.553  13.874 -0.51 -0.12    +0.222 HD
DOCKED: ENDBRANCH  43  47
DOCKED: ENDBRANCH  42  43
DOCKED: ENDBRANCH   4  42
DOCKED: TORSDOF 24
DOCKED: TER
DOCKED: ENDMDL
________________________________________________________________________________


	BEGINNING GENETIC ALGORITHM DOCKING 82 of 100
Run: 82 Seed: 1358830768 1034669028 [ Run 82 of 100 GA/GALS ]
Beginning LAMARCKIAN GENETIC ALGORITHM (LGA), with a maximum of 25000000 energy evaluations.

Final-Value: -18.333


	FINAL GENETIC ALGORITHM DOCKED STATE
	_______________________________________________


Detailed state:  trans 6.750 6.236 15.700 quatxyzw 0.316483 -0.856494 -0.359894 -0.191661 center 0.035 0.082 -0.065 ntor 24 111.3088 83.7908 31.4530 23.3240 -78.7638 164.1677 -150.4744 -24.8383 111.0361 -46.5645 0.7095 56.8124 -179.9144 -149.4154 -170.1827 49.8779 174.4024 -70.0640 27.0345 -41.0026 -180.0000 -41.1666 17.4788 -149.4280
State:	  6.750   6.236  15.700   0.322 -0.873 -0.367 -157.901    111.31   83.79   31.45   23.32  -78.76  164.17 -150.47  -24.84  111.04  -46.56    0.71   56.81 -179.91 -149.42 -170.18   49.88  174.40  -70.06   27.03  -41.00 -180.00  -41.17   17.48 -149.43

DOCKED: MODEL       82
DOCKED: USER    Run = 82
DOCKED: USER    DPF = D:/Protein_go_brrr/autodock/final/AncA/IHP/dock.dpf
DOCKED: USER  
DOCKED: USER    Estimated Free Energy of Binding    =   +1.84 kcal/mol  [=(1)+(2)+(3)-(4)]
DOCKED: USER    
DOCKED: USER    (1) Final Intermolecular Energy     =   -5.32 kcal/mol
DOCKED: USER        vdW + Hbond + desolv Energy     =   -4.98 kcal/mol
DOCKED: USER        Electrostatic Energy            =   -0.34 kcal/mol
DOCKED: USER    (2) Final Total Internal Energy     =  -13.01 kcal/mol
DOCKED: USER    (3) Torsional Free Energy           =   +7.16 kcal/mol
DOCKED: USER    (4) Unbound System's Energy  [=(2)] =  -13.01 kcal/mol
DOCKED: USER    
DOCKED: USER    
DOCKED: USER    NEWDPF move IHP_ideal_opt.pdbqt
DOCKED: USER    NEWDPF about 0.035000 0.082000 -0.065000
DOCKED: USER    NEWDPF tran0 6.750496 6.235871 15.700425
DOCKED: USER    NEWDPF quaternion0 0.316483 -0.856494 -0.359894 -0.191661
DOCKED: USER    NEWDPF axisangle0 0.322461 -0.872672 -0.366692 -157.900585
DOCKED: USER    NEWDPF quat0 0.322461 -0.872672 -0.366692 -157.900585
DOCKED: USER    NEWDPF dihe0 111.31 83.79 31.45 23.32 -78.76 164.17 -150.47 -24.84 111.04 -46.56 0.71 56.81 -179.91 -149.42 -170.18 49.88 174.40 -70.06 27.03 -41.00 -180.00 -41.17 17.48 -149.43 
DOCKED: USER  keepresnum = 1 
DOCKED: USER  
DOCKED: REMARK  24 active torsions:
DOCKED: REMARK  status: ('A' for Active; 'I' for Inactive)
DOCKED: REMARK    1  A    between atoms: C_1  and  O_7 
DOCKED: REMARK    2  A    between atoms: C_2  and  O_12 
DOCKED: REMARK    3  A    between atoms: C_3  and  O_17 
DOCKED: REMARK    4  A    between atoms: C_4  and  O_22 
DOCKED: REMARK    5  A    between atoms: C_5  and  O_27 
DOCKED: REMARK    6  A    between atoms: C_6  and  O_32 
DOCKED: REMARK    7  A    between atoms: O_7  and  P_8 
DOCKED: REMARK    8  A    between atoms: P_8  and  O_10 
DOCKED: REMARK    9  A    between atoms: P_8  and  O_11 
DOCKED: REMARK   10  A    between atoms: O_12  and  P_13 
DOCKED: REMARK   11  A    between atoms: P_13  and  O_15 
DOCKED: REMARK   12  A    between atoms: P_13  and  O_16 
DOCKED: REMARK   13  A    between atoms: O_17  and  P_18 
DOCKED: REMARK   14  A    between atoms: P_18  and  O_20 
DOCKED: REMARK   15  A    between atoms: P_18  and  O_21 
DOCKED: REMARK   16  A    between atoms: O_22  and  P_23 
DOCKED: REMARK   17  A    between atoms: P_23  and  O_25 
DOCKED: REMARK   18  A    between atoms: P_23  and  O_26 
DOCKED: REMARK   19  A    between atoms: O_27  and  P_28 
DOCKED: REMARK   20  A    between atoms: P_28  and  O_30 
DOCKED: REMARK   21  A    between atoms: P_28  and  O_31 
DOCKED: REMARK   22  A    between atoms: O_32  and  P_33 
DOCKED: REMARK   23  A    between atoms: P_33  and  O_35 
DOCKED: REMARK   24  A    between atoms: P_33  and  O_36 
DOCKED: USER                              x       y       z     vdW  Elec       q    Type
DOCKED: USER                           _______ _______ _______ _____ _____    ______ ____
DOCKED: ROOT
DOCKED: ATOM      1  C   UNL d   1       5.760   5.295  14.643 -0.13 -0.01    +0.194 C 
DOCKED: ATOM      2  C   UNL d   1       7.196   5.527  14.171 -0.14 -0.01    +0.194 C 
DOCKED: ATOM      3  C   UNL d   1       7.642   6.973  14.399 -0.11 -0.02    +0.194 C 
DOCKED: ATOM      4  C   UNL d   1       7.421   7.451  15.832 -0.02 -0.01    +0.194 C 
DOCKED: ATOM      5  C   UNL d   1       6.036   7.138  16.385 -0.02 -0.01    +0.194 C 
DOCKED: ATOM      6  C   UNL d   1       5.565   5.709  16.102 -0.03 -0.01    +0.194 C 
DOCKED: ENDROOT
DOCKED: BRANCH   1   7
DOCKED: ATOM      7  O   UNL d   1       5.482   3.896  14.557 -0.09 +0.00    -0.278 OA
DOCKED: BRANCH   7   8
DOCKED: ATOM      8  P   UNL d   1       4.751   3.346  13.247 -0.22 -0.00    +0.473 P 
DOCKED: ATOM      9  O   UNL d   1       3.544   2.513  13.501 -0.26 +0.01    -0.228 OA
DOCKED: BRANCH   8  10
DOCKED: ATOM     10  O   UNL d   1       4.440   4.660  12.397 -0.31 +0.01    -0.303 OA
DOCKED: ATOM     11  H   UNL d   1       4.054   5.341  12.979 +0.02 -0.01    +0.222 HD
DOCKED: ENDBRANCH   8  10
DOCKED: BRANCH   8  12
DOCKED: ATOM     12  O   UNL d   1       5.900   2.660  12.390 -0.40 -0.01    -0.303 OA
DOCKED: ATOM     13  H   UNL d   1       6.552   2.172  12.941 +0.10 +0.01    +0.222 HD
DOCKED: ENDBRANCH   8  12
DOCKED: ENDBRANCH   7   8
DOCKED: ENDBRANCH   1   7
DOCKED: BRANCH   2  14
DOCKED: ATOM     14  O   UNL d   1       8.073   4.658  14.900 -0.04 -0.01    -0.278 OA
DOCKED: BRANCH  14  15
DOCKED: ATOM     15  P   UNL d   1       8.355   3.220  14.254 -0.08 +0.03    +0.473 P 
DOCKED: ATOM     16  O   UNL d   1       7.483   2.095  14.714 -0.13 -0.01    -0.228 OA
DOCKED: BRANCH  15  17
DOCKED: ATOM     17  O   UNL d   1       8.259   3.474  12.685 -0.25 -0.03    -0.303 OA
DOCKED: ATOM     18  H   UNL d   1       7.357   3.744  12.427 +0.12 +0.01    +0.222 HD
DOCKED: ENDBRANCH  15  17
DOCKED: BRANCH  15  19
DOCKED: ATOM     19  O   UNL d   1       9.919   2.999  14.447 -0.05 -0.03    -0.303 OA
DOCKED: ATOM     20  H   UNL d   1      10.416   3.831  14.341 +0.05 +0.03    +0.222 HD
DOCKED: ENDBRANCH  15  19
DOCKED: ENDBRANCH  14  15
DOCKED: ENDBRANCH   2  14
DOCKED: BRANCH   6  21
DOCKED: ATOM     21  O   UNL d   1       4.164   5.678  16.363 -0.02 +0.01    -0.278 OA
DOCKED: BRANCH  21  22
DOCKED: ATOM     22  P   UNL d   1       3.146   6.284  15.294 -0.11 -0.02    +0.473 P 
DOCKED: ATOM     23  O   UNL d   1       1.977   7.062  15.796 -0.10 +0.02    -0.228 OA
DOCKED: BRANCH  22  24
DOCKED: ATOM     24  O   UNL d   1       4.125   7.094  14.336 -0.07 +0.08    -0.303 OA
DOCKED: ATOM     25  H   UNL d   1       3.651   7.909  14.029 -0.43 -0.08    +0.222 HD
DOCKED: ENDBRANCH  22  24
DOCKED: BRANCH  22  26
DOCKED: ATOM     26  O   UNL d   1       2.803   4.995  14.405 -0.73 -0.05    -0.303 OA
DOCKED: ATOM     27  H   UNL d   1       3.409   4.266  14.648 +0.07 +0.00    +0.222 HD
DOCKED: ENDBRANCH  22  26
DOCKED: ENDBRANCH  21  22
DOCKED: ENDBRANCH   6  21
DOCKED: BRANCH   3  28
DOCKED: ATOM     28  O   UNL d   1       9.048   7.025  14.196 -0.07 +0.01    -0.278 OA
DOCKED: BRANCH  28  29
DOCKED: ATOM     29  P   UNL d   1       9.658   6.837  12.737 -0.10 +0.06    +0.473 P 
DOCKED: ATOM     30  O   UNL d   1       8.742   7.161  11.613 -0.41 +0.00    -0.228 OA
DOCKED: BRANCH  29  31
DOCKED: ATOM     31  O   UNL d   1      10.983   7.723  12.872 -0.34 -0.03    -0.303 OA
DOCKED: ATOM     32  H   UNL d   1      10.812   8.607  12.473 -0.52 -0.23    +0.222 HD
DOCKED: ENDBRANCH  29  31
DOCKED: BRANCH  29  33
DOCKED: ATOM     33  O   UNL d   1      10.221   5.349  12.799 -0.16 -0.11    -0.303 OA
DOCKED: ATOM     34  H   UNL d   1       9.628   4.804  13.372 +0.07 +0.04    +0.222 HD
DOCKED: ENDBRANCH  29  33
DOCKED: ENDBRANCH  28  29
DOCKED: ENDBRANCH   3  28
DOCKED: BRANCH   5  35
DOCKED: ATOM     35  O   UNL d   1       6.145   7.272  17.800 -0.00 +0.01    -0.278 OA
DOCKED: BRANCH  35  36
DOCKED: ATOM     36  P   UNL d   1       4.897   7.771  18.659 +0.00 -0.01    +0.473 P 
DOCKED: ATOM     37  O   UNL d   1       5.221   8.695  19.790 -0.00 +0.00    -0.228 OA
DOCKED: BRANCH  36  38
DOCKED: ATOM     38  O   UNL d   1       3.964   8.409  17.538 -0.00 +0.01    -0.303 OA
DOCKED: ATOM     39  H   UNL d   1       3.979   7.835  16.743 +0.03 -0.01    +0.222 HD
DOCKED: ENDBRANCH  36  38
DOCKED: BRANCH  36  40
DOCKED: ATOM     40  O   UNL d   1       4.172   6.405  19.029 +0.00 +0.00    -0.303 OA
DOCKED: ATOM     41  H   UNL d   1       3.525   6.137  18.339 +0.01 -0.00    +0.222 HD
DOCKED: ENDBRANCH  36  40
DOCKED: ENDBRANCH  35  36
DOCKED: ENDBRANCH   5  35
DOCKED: BRANCH   4  42
DOCKED: ATOM     42  O   UNL d   1       7.557   8.876  15.819 -0.01 +0.02    -0.278 OA
DOCKED: BRANCH  42  43
DOCKED: ATOM     43  P   UNL d   1       6.240   9.776  15.788 +0.00 -0.04    +0.473 P 
DOCKED: ATOM     44  O   UNL d   1       5.002   9.163  15.230 -0.08 +0.03    -0.228 OA
DOCKED: BRANCH  43  45
DOCKED: ATOM     45  O   UNL d   1       6.106  10.251  17.301 +0.00 +0.01    -0.303 OA
DOCKED: ATOM     46  H   UNL d   1       5.822   9.517  17.883 +0.00 -0.01    +0.222 HD
DOCKED: ENDBRANCH  43  45
DOCKED: BRANCH  43  47
DOCKED: ATOM     47  O   UNL d   1       6.732  11.120  15.067 -0.02 +0.03    -0.303 OA
DOCKED: ATOM     48  H   UNL d   1       6.539  11.886  15.647 +0.03 -0.01    +0.222 HD
DOCKED: ENDBRANCH  43  47
DOCKED: ENDBRANCH  42  43
DOCKED: ENDBRANCH   4  42
DOCKED: TORSDOF 24
DOCKED: TER
DOCKED: ENDMDL
________________________________________________________________________________


	BEGINNING GENETIC ALGORITHM DOCKING 83 of 100
Run: 83 Seed: 1425761434 1281664939 [ Run 83 of 100 GA/GALS ]
Beginning LAMARCKIAN GENETIC ALGORITHM (LGA), with a maximum of 25000000 energy evaluations.

Final-Value: -19.846


	FINAL GENETIC ALGORITHM DOCKED STATE
	_______________________________________________


Detailed state:  trans 12.950 8.638 -15.459 quatxyzw 0.502384 0.226985 -0.552679 -0.625007 center 0.035 0.082 -0.065 ntor 24 -176.7647 -45.0016 114.7210 102.8610 84.1705 159.9690 -7.8288 -101.4616 126.0115 -33.0199 96.2379 -121.6624 -123.5860 97.7102 -106.6872 -83.5297 -122.0864 103.1529 40.5963 -6.0019 -12.2895 10.7558 -6.4326 -2.3264
State:	 12.950   8.638 -15.459   0.644  0.291 -0.708 -102.635   -176.76  -45.00  114.72  102.86   84.17  159.97   -7.83 -101.46  126.01  -33.02   96.24 -121.66 -123.59   97.71 -106.69  -83.53 -122.09  103.15   40.60   -6.00  -12.29   10.76   -6.43   -2.33

DOCKED: MODEL       83
DOCKED: USER    Run = 83
DOCKED: USER    DPF = D:/Protein_go_brrr/autodock/final/AncA/IHP/dock.dpf
DOCKED: USER  
DOCKED: USER    Estimated Free Energy of Binding    =   +2.81 kcal/mol  [=(1)+(2)+(3)-(4)]
DOCKED: USER    
DOCKED: USER    (1) Final Intermolecular Energy     =   -4.34 kcal/mol
DOCKED: USER        vdW + Hbond + desolv Energy     =   -4.28 kcal/mol
DOCKED: USER        Electrostatic Energy            =   -0.07 kcal/mol
DOCKED: USER    (2) Final Total Internal Energy     =  -15.50 kcal/mol
DOCKED: USER    (3) Torsional Free Energy           =   +7.16 kcal/mol
DOCKED: USER    (4) Unbound System's Energy  [=(2)] =  -15.50 kcal/mol
DOCKED: USER    
DOCKED: USER    
DOCKED: USER    NEWDPF move IHP_ideal_opt.pdbqt
DOCKED: USER    NEWDPF about 0.035000 0.082000 -0.065000
DOCKED: USER    NEWDPF tran0 12.950342 8.638324 -15.458877
DOCKED: USER    NEWDPF quaternion0 0.502384 0.226985 -0.552679 -0.625007
DOCKED: USER    NEWDPF axisangle0 0.643572 0.290776 -0.708001 -102.634565
DOCKED: USER    NEWDPF quat0 0.643572 0.290776 -0.708001 -102.634565
DOCKED: USER    NEWDPF dihe0 -176.76 -45.00 114.72 102.86 84.17 159.97 -7.83 -101.46 126.01 -33.02 96.24 -121.66 -123.59 97.71 -106.69 -83.53 -122.09 103.15 40.60 -6.00 -12.29 10.76 -6.43 -2.33 
DOCKED: USER  keepresnum = 1 
DOCKED: USER  
DOCKED: REMARK  24 active torsions:
DOCKED: REMARK  status: ('A' for Active; 'I' for Inactive)
DOCKED: REMARK    1  A    between atoms: C_1  and  O_7 
DOCKED: REMARK    2  A    between atoms: C_2  and  O_12 
DOCKED: REMARK    3  A    between atoms: C_3  and  O_17 
DOCKED: REMARK    4  A    between atoms: C_4  and  O_22 
DOCKED: REMARK    5  A    between atoms: C_5  and  O_27 
DOCKED: REMARK    6  A    between atoms: C_6  and  O_32 
DOCKED: REMARK    7  A    between atoms: O_7  and  P_8 
DOCKED: REMARK    8  A    between atoms: P_8  and  O_10 
DOCKED: REMARK    9  A    between atoms: P_8  and  O_11 
DOCKED: REMARK   10  A    between atoms: O_12  and  P_13 
DOCKED: REMARK   11  A    between atoms: P_13  and  O_15 
DOCKED: REMARK   12  A    between atoms: P_13  and  O_16 
DOCKED: REMARK   13  A    between atoms: O_17  and  P_18 
DOCKED: REMARK   14  A    between atoms: P_18  and  O_20 
DOCKED: REMARK   15  A    between atoms: P_18  and  O_21 
DOCKED: REMARK   16  A    between atoms: O_22  and  P_23 
DOCKED: REMARK   17  A    between atoms: P_23  and  O_25 
DOCKED: REMARK   18  A    between atoms: P_23  and  O_26 
DOCKED: REMARK   19  A    between atoms: O_27  and  P_28 
DOCKED: REMARK   20  A    between atoms: P_28  and  O_30 
DOCKED: REMARK   21  A    between atoms: P_28  and  O_31 
DOCKED: REMARK   22  A    between atoms: O_32  and  P_33 
DOCKED: REMARK   23  A    between atoms: P_33  and  O_35 
DOCKED: REMARK   24  A    between atoms: P_33  and  O_36 
DOCKED: USER                              x       y       z     vdW  Elec       q    Type
DOCKED: USER                           _______ _______ _______ _____ _____    ______ ____
DOCKED: ROOT
DOCKED: ATOM      1  C   UNL d   1      12.278   7.466 -16.535 -0.12 +0.07    +0.194 C 
DOCKED: ATOM      2  C   UNL d   1      11.282   8.461 -15.936 -0.19 +0.08    +0.194 C 
DOCKED: ATOM      3  C   UNL d   1      11.537   8.688 -14.444 -0.20 +0.06    +0.194 C 
DOCKED: ATOM      4  C   UNL d   1      12.984   9.060 -14.131 -0.17 +0.03    +0.194 C 
DOCKED: ATOM      5  C   UNL d   1      14.015   8.162 -14.802 -0.16 +0.03    +0.194 C 
DOCKED: ATOM      6  C   UNL d   1      13.726   7.885 -16.279 -0.13 +0.04    +0.194 C 
DOCKED: ENDROOT
DOCKED: BRANCH   1   7
DOCKED: ATOM      7  O   UNL d   1      12.085   7.441 -17.951 -0.08 -0.09    -0.278 OA
DOCKED: BRANCH   7   8
DOCKED: ATOM      8  P   UNL d   1      10.906   6.539 -18.541 -0.09 +0.21    +0.473 P 
DOCKED: ATOM      9  O   UNL d   1      11.142   5.071 -18.479 -0.12 -0.12    -0.228 OA
DOCKED: BRANCH   8  10
DOCKED: ATOM     10  O   UNL d   1       9.618   7.003 -17.722 -0.12 -0.22    -0.303 OA
DOCKED: ATOM     11  H   UNL d   1       9.744   7.917 -17.404 +0.04 +0.12    +0.222 HD
DOCKED: ENDBRANCH   8  10
DOCKED: BRANCH   8  12
DOCKED: ATOM     12  O   UNL d   1      10.614   7.134 -19.985 -0.01 -0.09    -0.303 OA
DOCKED: ATOM     13  H   UNL d   1       9.931   7.842 -19.980 +0.02 +0.06    +0.222 HD
DOCKED: ENDBRANCH   8  12
DOCKED: ENDBRANCH   7   8
DOCKED: ENDBRANCH   1   7
DOCKED: BRANCH   2  14
DOCKED: ATOM     14  O   UNL d   1      11.409   9.715 -16.617 -0.03 -0.07    -0.278 OA
DOCKED: BRANCH  14  15
DOCKED: ATOM     15  P   UNL d   1      10.069  10.325 -17.248 +0.00 +0.11    +0.473 P 
DOCKED: ATOM     16  O   UNL d   1      10.013  11.813 -17.396 -0.00 -0.04    -0.228 OA
DOCKED: BRANCH  15  17
DOCKED: ATOM     17  O   UNL d   1       9.912   9.560 -18.636 -0.00 -0.07    -0.303 OA
DOCKED: ATOM     18  H   UNL d   1      10.440   8.739 -18.647 +0.03 +0.06    +0.222 HD
DOCKED: ENDBRANCH  15  17
DOCKED: BRANCH  15  19
DOCKED: ATOM     19  O   UNL d   1       8.896   9.676 -16.391 -0.04 -0.11    -0.303 OA
DOCKED: ATOM     20  H   UNL d   1       9.104   9.674 -15.439 +0.05 +0.08    +0.222 HD
DOCKED: ENDBRANCH  15  19
DOCKED: ENDBRANCH  14  15
DOCKED: ENDBRANCH   2  14
DOCKED: BRANCH   6  21
DOCKED: ATOM     21  O   UNL d   1      14.553   6.787 -16.662 -0.10 -0.06    -0.278 OA
DOCKED: BRANCH  21  22
DOCKED: ATOM     22  P   UNL d   1      15.709   7.005 -17.738 -0.06 +0.07    +0.473 P 
DOCKED: ATOM     23  O   UNL d   1      15.324   7.107 -19.176 -0.02 -0.03    -0.228 OA
DOCKED: BRANCH  22  24
DOCKED: ATOM     24  O   UNL d   1      16.460   8.282 -17.157 -0.02 -0.04    -0.303 OA
DOCKED: ATOM     25  H   UNL d   1      16.207   8.381 -16.204 +0.03 +0.03    +0.222 HD
DOCKED: ENDBRANCH  22  24
DOCKED: BRANCH  22  26
DOCKED: ATOM     26  O   UNL d   1      16.728   5.824 -17.365 -0.06 -0.04    -0.303 OA
DOCKED: ATOM     27  H   UNL d   1      16.493   5.463 -16.486 +0.03 +0.04    +0.222 HD
DOCKED: ENDBRANCH  22  26
DOCKED: ENDBRANCH  21  22
DOCKED: ENDBRANCH   6  21
DOCKED: BRANCH   3  28
DOCKED: ATOM     28  O   UNL d   1      10.763   9.812 -14.044 -0.11 -0.08    -0.278 OA
DOCKED: BRANCH  28  29
DOCKED: ATOM     29  P   UNL d   1       9.677   9.671 -12.888 -0.18 +0.19    +0.473 P 
DOCKED: ATOM     30  O   UNL d   1       8.260   9.750 -13.328 -0.19 -0.09    -0.228 OA
DOCKED: BRANCH  29  31
DOCKED: ATOM     31  O   UNL d   1      10.155   8.297 -12.222 -0.32 -0.08    -0.303 OA
DOCKED: ATOM     32  H   UNL d   1      11.136   8.314 -12.136 -0.37 -0.02    +0.222 HD
DOCKED: ENDBRANCH  29  31
DOCKED: BRANCH  29  33
DOCKED: ATOM     33  O   UNL d   1      10.165  10.761 -11.835 -0.12 -0.20    -0.303 OA
DOCKED: ATOM     34  H   UNL d   1      11.149  10.711 -11.754 +0.07 +0.14    +0.222 HD
DOCKED: ENDBRANCH  29  33
DOCKED: ENDBRANCH  28  29
DOCKED: ENDBRANCH   3  28
DOCKED: BRANCH   5  35
DOCKED: ATOM     35  O   UNL d   1      15.248   8.876 -14.742 -0.07 -0.04    -0.278 OA
DOCKED: BRANCH  35  36
DOCKED: ATOM     36  P   UNL d   1      16.531   8.211 -14.067 -0.08 +0.07    +0.473 P 
DOCKED: ATOM     37  O   UNL d   1      16.547   8.213 -12.571 -0.18 -0.05    -0.228 OA
DOCKED: BRANCH  36  38
DOCKED: ATOM     38  O   UNL d   1      16.527   6.758 -14.720 -0.10 -0.05    -0.303 OA
DOCKED: ATOM     39  H   UNL d   1      16.536   6.845 -15.697 +0.04 +0.03    +0.222 HD
DOCKED: ENDBRANCH  36  38
DOCKED: BRANCH  36  40
DOCKED: ATOM     40  O   UNL d   1      17.727   8.958 -14.802 -0.01 -0.04    -0.303 OA
DOCKED: ATOM     41  H   UNL d   1      17.848   8.634 -15.723 +0.02 +0.03    +0.222 HD
DOCKED: ENDBRANCH  36  40
DOCKED: ENDBRANCH  35  36
DOCKED: ENDBRANCH   5  35
DOCKED: BRANCH   4  42
DOCKED: ATOM     42  O   UNL d   1      13.153   8.912 -12.717 -0.13 +0.01    -0.278 OA
DOCKED: BRANCH  42  43
DOCKED: ATOM     43  P   UNL d   1      13.424  10.211 -11.832 -0.16 +0.09    +0.473 P 
DOCKED: ATOM     44  O   UNL d   1      12.915  10.206 -10.432 -0.84 -0.08    -0.228 OA
DOCKED: BRANCH  43  45
DOCKED: ATOM     45  O   UNL d   1      15.001  10.391 -11.951 -0.09 -0.05    -0.303 OA
DOCKED: ATOM     46  H   UNL d   1      15.351   9.962 -12.756 +0.06 +0.03    +0.222 HD
DOCKED: ENDBRANCH  43  45
DOCKED: BRANCH  43  47
DOCKED: ATOM     47  O   UNL d   1      12.889  11.404 -12.759 -0.03 -0.08    -0.303 OA
DOCKED: ATOM     48  H   UNL d   1      11.948  11.243 -12.980 +0.06 +0.07    +0.222 HD
DOCKED: ENDBRANCH  43  47
DOCKED: ENDBRANCH  42  43
DOCKED: ENDBRANCH   4  42
DOCKED: TORSDOF 24
DOCKED: TER
DOCKED: ENDMDL
________________________________________________________________________________


	BEGINNING GENETIC ALGORITHM DOCKING 84 of 100
Run: 84 Seed: 1363893442 806593927 [ Run 84 of 100 GA/GALS ]
Beginning LAMARCKIAN GENETIC ALGORITHM (LGA), with a maximum of 25000000 energy evaluations.

Final-Value: -16.494


	FINAL GENETIC ALGORITHM DOCKED STATE
	_______________________________________________


Detailed state:  trans -8.972 -15.200 2.641 quatxyzw 0.638232 -0.216042 0.248937 0.695713 center 0.035 0.082 -0.065 ntor 24 85.6730 -64.1362 96.0344 8.2251 117.2680 -139.1164 -145.4691 170.7042 96.2867 107.8116 1.4127 2.2483 147.9816 -112.4129 54.9470 19.8568 35.6283 -82.5338 -138.1517 -33.5824 45.4883 -180.0000 -169.3276 -159.1082
State:	 -8.972 -15.200   2.641   0.889 -0.301  0.347 91.832     85.67  -64.14   96.03    8.23  117.27 -139.12 -145.47  170.70   96.29  107.81    1.41    2.25  147.98 -112.41   54.95   19.86   35.63  -82.53 -138.15  -33.58   45.49 -180.00 -169.33 -159.11

DOCKED: MODEL       84
DOCKED: USER    Run = 84
DOCKED: USER    DPF = D:/Protein_go_brrr/autodock/final/AncA/IHP/dock.dpf
DOCKED: USER  
DOCKED: USER    Estimated Free Energy of Binding    =   +2.25 kcal/mol  [=(1)+(2)+(3)-(4)]
DOCKED: USER    
DOCKED: USER    (1) Final Intermolecular Energy     =   -4.91 kcal/mol
DOCKED: USER        vdW + Hbond + desolv Energy     =   -4.69 kcal/mol
DOCKED: USER        Electrostatic Energy            =   -0.22 kcal/mol
DOCKED: USER    (2) Final Total Internal Energy     =  -11.58 kcal/mol
DOCKED: USER    (3) Torsional Free Energy           =   +7.16 kcal/mol
DOCKED: USER    (4) Unbound System's Energy  [=(2)] =  -11.58 kcal/mol
DOCKED: USER    
DOCKED: USER    
DOCKED: USER    NEWDPF move IHP_ideal_opt.pdbqt
DOCKED: USER    NEWDPF about 0.035000 0.082000 -0.065000
DOCKED: USER    NEWDPF tran0 -8.972411 -15.199537 2.640686
DOCKED: USER    NEWDPF quaternion0 0.638232 -0.216042 0.248937 0.695713
DOCKED: USER    NEWDPF axisangle0 0.888506 -0.300760 0.346555 91.831912
DOCKED: USER    NEWDPF quat0 0.888506 -0.300760 0.346555 91.831912
DOCKED: USER    NEWDPF dihe0 85.67 -64.14 96.03 8.23 117.27 -139.12 -145.47 170.70 96.29 107.81 1.41 2.25 147.98 -112.41 54.95 19.86 35.63 -82.53 -138.15 -33.58 45.49 -180.00 -169.33 -159.11 
DOCKED: USER  keepresnum = 1 
DOCKED: USER  
DOCKED: REMARK  24 active torsions:
DOCKED: REMARK  status: ('A' for Active; 'I' for Inactive)
DOCKED: REMARK    1  A    between atoms: C_1  and  O_7 
DOCKED: REMARK    2  A    between atoms: C_2  and  O_12 
DOCKED: REMARK    3  A    between atoms: C_3  and  O_17 
DOCKED: REMARK    4  A    between atoms: C_4  and  O_22 
DOCKED: REMARK    5  A    between atoms: C_5  and  O_27 
DOCKED: REMARK    6  A    between atoms: C_6  and  O_32 
DOCKED: REMARK    7  A    between atoms: O_7  and  P_8 
DOCKED: REMARK    8  A    between atoms: P_8  and  O_10 
DOCKED: REMARK    9  A    between atoms: P_8  and  O_11 
DOCKED: REMARK   10  A    between atoms: O_12  and  P_13 
DOCKED: REMARK   11  A    between atoms: P_13  and  O_15 
DOCKED: REMARK   12  A    between atoms: P_13  and  O_16 
DOCKED: REMARK   13  A    between atoms: O_17  and  P_18 
DOCKED: REMARK   14  A    between atoms: P_18  and  O_20 
DOCKED: REMARK   15  A    between atoms: P_18  and  O_21 
DOCKED: REMARK   16  A    between atoms: O_22  and  P_23 
DOCKED: REMARK   17  A    between atoms: P_23  and  O_25 
DOCKED: REMARK   18  A    between atoms: P_23  and  O_26 
DOCKED: REMARK   19  A    between atoms: O_27  and  P_28 
DOCKED: REMARK   20  A    between atoms: P_28  and  O_30 
DOCKED: REMARK   21  A    between atoms: P_28  and  O_31 
DOCKED: REMARK   22  A    between atoms: O_32  and  P_33 
DOCKED: REMARK   23  A    between atoms: P_33  and  O_35 
DOCKED: REMARK   24  A    between atoms: P_33  and  O_36 
DOCKED: USER                              x       y       z     vdW  Elec       q    Type
DOCKED: USER                           _______ _______ _______ _____ _____    ______ ____
DOCKED: ROOT
DOCKED: ATOM      1  C   UNL d   1      -7.565 -15.416   3.619 +0.10 +0.29    +0.194 C 
DOCKED: ATOM      2  C   UNL d   1      -8.827 -14.977   4.364 -0.09 +0.14    +0.194 C 
DOCKED: ATOM      3  C   UNL d   1      -9.582 -13.884   3.605 -0.19 +0.12    +0.194 C 
DOCKED: ATOM      4  C   UNL d   1      -9.869 -14.251   2.150 -0.16 +0.12    +0.194 C 
DOCKED: ATOM      5  C   UNL d   1      -8.663 -14.803   1.400 -0.09 +0.18    +0.194 C 
DOCKED: ATOM      6  C   UNL d   1      -7.872 -15.851   2.185 -0.05 +0.24    +0.194 C 
DOCKED: ENDROOT
DOCKED: BRANCH   1   7
DOCKED: ATOM      7  O   UNL d   1      -7.016 -16.547   4.299 -0.16 -0.34    -0.278 OA
DOCKED: BRANCH   7   8
DOCKED: ATOM      8  P   UNL d   1      -7.319 -18.004   3.716 -0.01 +0.34    +0.473 P 
DOCKED: ATOM      9  O   UNL d   1      -7.126 -19.122   4.680 -0.00 -0.11    -0.228 OA
DOCKED: BRANCH   8  10
DOCKED: ATOM     10  O   UNL d   1      -8.813 -17.898   3.168 +0.00 -0.16    -0.303 OA
DOCKED: ATOM     11  H   UNL d   1      -9.435 -17.857   3.918 +0.01 +0.10    +0.222 HD
DOCKED: ENDBRANCH   8  10
DOCKED: BRANCH   8  12
DOCKED: ATOM     12  O   UNL d   1      -6.476 -18.094   2.372 -0.02 -0.28    -0.303 OA
DOCKED: ATOM     13  H   UNL d   1      -7.037 -18.081   1.564 +0.01 +0.18    +0.222 HD
DOCKED: ENDBRANCH   8  12
DOCKED: ENDBRANCH   7   8
DOCKED: ENDBRANCH   1   7
DOCKED: BRANCH   2  14
DOCKED: ATOM     14  O   UNL d   1      -9.694 -16.107   4.520 -0.02 -0.14    -0.278 OA
DOCKED: BRANCH  14  15
DOCKED: ATOM     15  P   UNL d   1      -9.636 -16.865   5.930 +0.02 +0.18    +0.473 P 
DOCKED: ATOM     16  O   UNL d   1      -8.300 -17.384   6.360 -0.01 -0.09    -0.228 OA
DOCKED: BRANCH  15  17
DOCKED: ATOM     17  O   UNL d   1     -10.251 -15.815   6.959 -0.04 -0.10    -0.303 OA
DOCKED: ATOM     18  H   UNL d   1     -10.513 -14.991   6.506 +0.07 +0.09    +0.222 HD
DOCKED: ENDBRANCH  15  17
DOCKED: BRANCH  15  19
DOCKED: ATOM     19  O   UNL d   1     -10.798 -17.948   5.846 +0.00 -0.08    -0.303 OA
DOCKED: ATOM     20  H   UNL d   1     -11.646 -17.548   5.578 +0.02 +0.06    +0.222 HD
DOCKED: ENDBRANCH  15  19
DOCKED: ENDBRANCH  14  15
DOCKED: ENDBRANCH   2  14
DOCKED: BRANCH   6  21
DOCKED: ATOM     21  O   UNL d   1      -6.621 -16.008   1.519 -0.08 -0.55    -0.278 OA
DOCKED: BRANCH  21  22
DOCKED: ATOM     22  P   UNL d   1      -6.591 -16.416  -0.023 -0.05 +0.64    +0.473 P 
DOCKED: ATOM     23  O   UNL d   1      -6.710 -15.333  -1.041 -0.53 -0.38    -0.228 OA
DOCKED: BRANCH  22  24
DOCKED: ATOM     24  O   UNL d   1      -5.249 -17.267  -0.108 -0.06 -0.39    -0.303 OA
DOCKED: ATOM     25  H   UNL d   1      -5.274 -17.954   0.606 +0.02 +0.23    +0.222 HD
DOCKED: ENDBRANCH  22  24
DOCKED: BRANCH  22  26
DOCKED: ATOM     26  O   UNL d   1      -7.713 -17.560  -0.079 +0.00 -0.24    -0.303 OA
DOCKED: ATOM     27  H   UNL d   1      -8.511 -17.251   0.398 +0.02 +0.15    +0.222 HD
DOCKED: ENDBRANCH  22  26
DOCKED: ENDBRANCH  21  22
DOCKED: ENDBRANCH   6  21
DOCKED: BRANCH   3  28
DOCKED: ATOM     28  O   UNL d   1     -10.858 -13.741   4.216 -0.26 -0.12    -0.278 OA
DOCKED: BRANCH  28  29
DOCKED: ATOM     29  P   UNL d   1     -11.948 -14.895   4.082 -0.15 +0.17    +0.473 P 
DOCKED: ATOM     30  O   UNL d   1     -11.585 -16.018   3.181 -0.07 -0.08    -0.228 OA
DOCKED: BRANCH  29  31
DOCKED: ATOM     31  O   UNL d   1     -12.172 -15.247   5.627 -0.61 -0.13    -0.303 OA
DOCKED: ATOM     32  H   UNL d   1     -11.579 -15.996   5.868 +0.05 +0.07    +0.222 HD
DOCKED: ENDBRANCH  29  31
DOCKED: BRANCH  29  33
DOCKED: ATOM     33  O   UNL d   1     -13.261 -14.073   3.715 -0.27 -0.07    -0.303 OA
DOCKED: ATOM     34  H   UNL d   1     -13.995 -14.356   4.313 +0.02 +0.04    +0.222 HD
DOCKED: ENDBRANCH  29  33
DOCKED: ENDBRANCH  28  29
DOCKED: ENDBRANCH   3  28
DOCKED: BRANCH   5  35
DOCKED: ATOM     35  O   UNL d   1      -9.190 -15.452   0.245 -0.02 -0.19    -0.278 OA
DOCKED: BRANCH  35  36
DOCKED: ATOM     36  P   UNL d   1     -10.544 -16.289   0.340 -0.01 +0.21    +0.473 P 
DOCKED: ATOM     37  O   UNL d   1     -11.804 -15.484   0.310 -0.12 -0.07    -0.228 OA
DOCKED: BRANCH  36  38
DOCKED: ATOM     38  O   UNL d   1     -10.387 -17.304  -0.877 -0.00 -0.13    -0.303 OA
DOCKED: ATOM     39  H   UNL d   1      -9.432 -17.442  -1.058 +0.02 +0.12    +0.222 HD
DOCKED: ENDBRANCH  36  38
DOCKED: BRANCH  36  40
DOCKED: ATOM     40  O   UNL d   1     -10.296 -17.193   1.626 -0.00 -0.13    -0.303 OA
DOCKED: ATOM     41  H   UNL d   1     -10.240 -16.652   2.445 +0.03 +0.10    +0.222 HD
DOCKED: ENDBRANCH  36  40
DOCKED: ENDBRANCH  35  36
DOCKED: ENDBRANCH   5  35
DOCKED: BRANCH   4  42
DOCKED: ATOM     42  O   UNL d   1     -10.260 -13.044   1.488 -0.67 -0.18    -0.278 OA
DOCKED: BRANCH  42  43
DOCKED: ATOM     43  P   UNL d   1      -9.137 -12.137   0.809 -0.16 +0.32    +0.473 P 
DOCKED: ATOM     44  O   UNL d   1      -7.824 -12.034   1.505 -0.76 -0.27    -0.228 OA
DOCKED: BRANCH  43  45
DOCKED: ATOM     45  O   UNL d   1      -9.048 -12.736  -0.663 -0.16 -0.20    -0.303 OA
DOCKED: ATOM     46  H   UNL d   1      -8.624 -13.617  -0.666 +0.08 +0.18    +0.222 HD
DOCKED: ENDBRANCH  43  45
DOCKED: BRANCH  43  47
DOCKED: ATOM     47  O   UNL d   1      -9.894 -10.748   0.551 -0.49 -0.12    -0.303 OA
DOCKED: ATOM     48  H   UNL d   1      -9.281 -10.123   0.112 +0.12 +0.07    +0.222 HD
DOCKED: ENDBRANCH  43  47
DOCKED: ENDBRANCH  42  43
DOCKED: ENDBRANCH   4  42
DOCKED: TORSDOF 24
DOCKED: TER
DOCKED: ENDMDL
________________________________________________________________________________


	BEGINNING GENETIC ALGORITHM DOCKING 85 of 100
Run: 85 Seed: 462964581 1764152832 [ Run 85 of 100 GA/GALS ]
Beginning LAMARCKIAN GENETIC ALGORITHM (LGA), with a maximum of 25000000 energy evaluations.

Final-Value: -18.188


	FINAL GENETIC ALGORITHM DOCKED STATE
	_______________________________________________


Detailed state:  trans -15.531 3.659 -9.797 quatxyzw -0.164960 -0.113045 -0.818173 0.539075 center 0.035 0.082 -0.065 ntor 24 -159.5665 19.7425 -180.0000 136.4545 106.1669 85.3237 -90.4752 27.3553 -50.2255 69.5253 53.5389 131.0241 32.9014 -78.6436 176.4460 16.1484 -59.2591 173.3022 -129.7435 -44.9743 17.5322 -180.0000 170.2449 8.4744
State:	-15.531   3.659  -9.797  -0.196 -0.134 -0.971 114.759   -159.57   19.74 -180.00  136.45  106.17   85.32  -90.48   27.36  -50.23   69.53   53.54  131.02   32.90  -78.64  176.45   16.15  -59.26  173.30 -129.74  -44.97   17.53 -180.00  170.24    8.47

DOCKED: MODEL       85
DOCKED: USER    Run = 85
DOCKED: USER    DPF = D:/Protein_go_brrr/autodock/final/AncA/IHP/dock.dpf
DOCKED: USER  
DOCKED: USER    Estimated Free Energy of Binding    =   +4.16 kcal/mol  [=(1)+(2)+(3)-(4)]
DOCKED: USER    
DOCKED: USER    (1) Final Intermolecular Energy     =   -2.99 kcal/mol
DOCKED: USER        vdW + Hbond + desolv Energy     =   -3.07 kcal/mol
DOCKED: USER        Electrostatic Energy            =   +0.08 kcal/mol
DOCKED: USER    (2) Final Total Internal Energy     =  -15.19 kcal/mol
DOCKED: USER    (3) Torsional Free Energy           =   +7.16 kcal/mol
DOCKED: USER    (4) Unbound System's Energy  [=(2)] =  -15.19 kcal/mol
DOCKED: USER    
DOCKED: USER    
DOCKED: USER    NEWDPF move IHP_ideal_opt.pdbqt
DOCKED: USER    NEWDPF about 0.035000 0.082000 -0.065000
DOCKED: USER    NEWDPF tran0 -15.531404 3.659265 -9.797033
DOCKED: USER    NEWDPF quaternion0 -0.164960 -0.113045 -0.818173 0.539075
DOCKED: USER    NEWDPF axisangle0 -0.195855 -0.134217 -0.971404 114.758669
DOCKED: USER    NEWDPF quat0 -0.195855 -0.134217 -0.971404 114.758669
DOCKED: USER    NEWDPF dihe0 -159.57 19.74 -180.00 136.45 106.17 85.32 -90.48 27.36 -50.23 69.53 53.54 131.02 32.90 -78.64 176.45 16.15 -59.26 173.30 -129.74 -44.97 17.53 -180.00 170.24 8.47 
DOCKED: USER  keepresnum = 1 
DOCKED: USER  
DOCKED: REMARK  24 active torsions:
DOCKED: REMARK  status: ('A' for Active; 'I' for Inactive)
DOCKED: REMARK    1  A    between atoms: C_1  and  O_7 
DOCKED: REMARK    2  A    between atoms: C_2  and  O_12 
DOCKED: REMARK    3  A    between atoms: C_3  and  O_17 
DOCKED: REMARK    4  A    between atoms: C_4  and  O_22 
DOCKED: REMARK    5  A    between atoms: C_5  and  O_27 
DOCKED: REMARK    6  A    between atoms: C_6  and  O_32 
DOCKED: REMARK    7  A    between atoms: O_7  and  P_8 
DOCKED: REMARK    8  A    between atoms: P_8  and  O_10 
DOCKED: REMARK    9  A    between atoms: P_8  and  O_11 
DOCKED: REMARK   10  A    between atoms: O_12  and  P_13 
DOCKED: REMARK   11  A    between atoms: P_13  and  O_15 
DOCKED: REMARK   12  A    between atoms: P_13  and  O_16 
DOCKED: REMARK   13  A    between atoms: O_17  and  P_18 
DOCKED: REMARK   14  A    between atoms: P_18  and  O_20 
DOCKED: REMARK   15  A    between atoms: P_18  and  O_21 
DOCKED: REMARK   16  A    between atoms: O_22  and  P_23 
DOCKED: REMARK   17  A    between atoms: P_23  and  O_25 
DOCKED: REMARK   18  A    between atoms: P_23  and  O_26 
DOCKED: REMARK   19  A    between atoms: O_27  and  P_28 
DOCKED: REMARK   20  A    between atoms: P_28  and  O_30 
DOCKED: REMARK   21  A    between atoms: P_28  and  O_31 
DOCKED: REMARK   22  A    between atoms: O_32  and  P_33 
DOCKED: REMARK   23  A    between atoms: P_33  and  O_35 
DOCKED: REMARK   24  A    between atoms: P_33  and  O_36 
DOCKED: USER                              x       y       z     vdW  Elec       q    Type
DOCKED: USER                           _______ _______ _______ _____ _____    ______ ____
DOCKED: ROOT
DOCKED: ATOM      1  C   UNL d   1     -14.928   5.166  -9.206 -0.17 +0.01    +0.194 C 
DOCKED: ATOM      2  C   UNL d   1     -13.938   4.332 -10.022 -0.16 +0.00    +0.194 C 
DOCKED: ATOM      3  C   UNL d   1     -13.997   2.851  -9.642 -0.24 +0.01    +0.194 C 
DOCKED: ATOM      4  C   UNL d   1     -15.411   2.275  -9.685 -0.14 +0.01    +0.194 C 
DOCKED: ATOM      5  C   UNL d   1     -16.453   3.134  -8.980 +0.15 +0.03    +0.194 C 
DOCKED: ATOM      6  C   UNL d   1     -16.354   4.625  -9.313 -0.12 +0.01    +0.194 C 
DOCKED: ENDROOT
DOCKED: BRANCH   1   7
DOCKED: ATOM      7  O   UNL d   1     -14.935   6.494  -9.736 -0.05 -0.01    -0.278 OA
DOCKED: BRANCH   7   8
DOCKED: ATOM      8  P   UNL d   1     -16.213   6.972 -10.568 +0.01 +0.01    +0.473 P 
DOCKED: ATOM      9  O   UNL d   1     -17.340   7.494  -9.748 -0.01 -0.01    -0.228 OA
DOCKED: BRANCH   8  10
DOCKED: ATOM     10  O   UNL d   1     -15.628   8.049 -11.589 +0.00 -0.01    -0.303 OA
DOCKED: ATOM     11  H   UNL d   1     -14.786   7.724 -11.960 +0.02 +0.00    +0.222 HD
DOCKED: ENDBRANCH   8  10
DOCKED: BRANCH   8  12
DOCKED: ATOM     12  O   UNL d   1     -16.559   5.755 -11.529 -0.00 -0.00    -0.303 OA
DOCKED: ATOM     13  H   UNL d   1     -15.781   5.187 -11.727 +0.03 -0.00    +0.222 HD
DOCKED: ENDBRANCH   8  12
DOCKED: ENDBRANCH   7   8
DOCKED: ENDBRANCH   1   7
DOCKED: BRANCH   2  14
DOCKED: ATOM     14  O   UNL d   1     -14.257   4.460 -11.413 -0.09 +0.02    -0.278 OA
DOCKED: BRANCH  14  15
DOCKED: ATOM     15  P   UNL d   1     -13.608   5.704 -12.185 -0.07 -0.03    +0.473 P 
DOCKED: ATOM     16  O   UNL d   1     -13.200   6.875 -11.348 -0.11 +0.00    -0.228 OA
DOCKED: BRANCH  15  17
DOCKED: ATOM     17  O   UNL d   1     -12.391   5.067 -12.992 -0.14 +0.04    -0.303 OA
DOCKED: ATOM     18  H   UNL d   1     -12.690   4.692 -13.842 +0.03 -0.03    +0.222 HD
DOCKED: ENDBRANCH  15  17
DOCKED: BRANCH  15  19
DOCKED: ATOM     19  O   UNL d   1     -14.635   6.023 -13.357 -0.01 +0.01    -0.303 OA
DOCKED: ATOM     20  H   UNL d   1     -15.423   6.494 -13.027 +0.01 -0.00    +0.222 HD
DOCKED: ENDBRANCH  15  19
DOCKED: ENDBRANCH  14  15
DOCKED: ENDBRANCH   2  14
DOCKED: BRANCH   6  21
DOCKED: ATOM     21  O   UNL d   1     -17.138   5.316  -8.343 -0.11 -0.02    -0.278 OA
DOCKED: BRANCH  21  22
DOCKED: ATOM     22  P   UNL d   1     -18.709   5.482  -8.567 -0.04 +0.03    +0.473 P 
DOCKED: ATOM     23  O   UNL d   1     -19.391   6.649  -7.936 -0.02 -0.01    -0.228 OA
DOCKED: BRANCH  22  24
DOCKED: ATOM     24  O   UNL d   1     -18.819   5.422 -10.154 -0.01 -0.01    -0.303 OA
DOCKED: ATOM     25  H   UNL d   1     -18.194   4.727 -10.480 +0.02 +0.01    +0.222 HD
DOCKED: ENDBRANCH  22  24
DOCKED: BRANCH  22  26
DOCKED: ATOM     26  O   UNL d   1     -19.253   4.035  -8.142 -0.08 -0.03    -0.303 OA
DOCKED: ATOM     27  H   UNL d   1     -19.250   3.448  -8.925 +0.03 +0.02    +0.222 HD
DOCKED: ENDBRANCH  22  26
DOCKED: ENDBRANCH  21  22
DOCKED: ENDBRANCH   6  21
DOCKED: BRANCH   3  28
DOCKED: ATOM     28  O   UNL d   1     -13.265   2.128 -10.623 -0.20 +0.04    -0.278 OA
DOCKED: BRANCH  28  29
DOCKED: ATOM     29  P   UNL d   1     -13.824   1.996 -12.109 -0.11 -0.16    +0.473 P 
DOCKED: ATOM     30  O   UNL d   1     -15.219   2.466 -12.313 -0.04 +0.03    -0.228 OA
DOCKED: BRANCH  29  31
DOCKED: ATOM     31  O   UNL d   1     -12.673   2.767 -12.910 -0.18 +0.11    -0.303 OA
DOCKED: ATOM     32  H   UNL d   1     -12.388   3.545 -12.377 +0.06 -0.05    +0.222 HD
DOCKED: ENDBRANCH  29  31
DOCKED: BRANCH  29  33
DOCKED: ATOM     33  O   UNL d   1     -13.523   0.469 -12.444 -0.11 +0.27    -0.303 OA
DOCKED: ATOM     34  H   UNL d   1     -14.276  -0.085 -12.123 +0.08 -0.13    +0.222 HD
DOCKED: ENDBRANCH  29  33
DOCKED: ENDBRANCH  28  29
DOCKED: ENDBRANCH   3  28
DOCKED: BRANCH   5  35
DOCKED: ATOM     35  O   UNL d   1     -17.717   2.680  -9.459 -0.08 -0.03    -0.278 OA
DOCKED: BRANCH  35  36
DOCKED: ATOM     36  P   UNL d   1     -18.053   2.732 -11.017 -0.00 +0.01    +0.473 P 
DOCKED: ATOM     37  O   UNL d   1     -17.140   3.579 -11.846 -0.01 +0.00    -0.228 OA
DOCKED: BRANCH  36  38
DOCKED: ATOM     38  O   UNL d   1     -18.044   1.188 -11.405 -0.01 -0.00    -0.303 OA
DOCKED: ATOM     39  H   UNL d   1     -17.362   1.033 -12.093 +0.03 -0.01    +0.222 HD
DOCKED: ENDBRANCH  36  38
DOCKED: BRANCH  36  40
DOCKED: ATOM     40  O   UNL d   1     -19.596   3.119 -11.019 -0.01 -0.01    -0.303 OA
DOCKED: ATOM     41  H   UNL d   1     -19.842   3.637 -10.221 +0.02 +0.01    +0.222 HD
DOCKED: ENDBRANCH  36  40
DOCKED: ENDBRANCH  35  36
DOCKED: ENDBRANCH   5  35
DOCKED: BRANCH   4  42
DOCKED: ATOM     42  O   UNL d   1     -15.367   1.019  -8.999 -0.12 -0.03    -0.278 OA
DOCKED: BRANCH  42  43
DOCKED: ATOM     43  P   UNL d   1     -15.350  -0.327  -9.855 -0.14 +0.00    +0.473 P 
DOCKED: ATOM     44  O   UNL d   1     -16.145  -1.477  -9.342 -0.20 -0.01    -0.228 OA
DOCKED: BRANCH  43  45
DOCKED: ATOM     45  O   UNL d   1     -15.787   0.174 -11.301 -0.04 +0.04    -0.303 OA
DOCKED: ATOM     46  H   UNL d   1     -16.239   1.040 -11.258 +0.06 -0.01    +0.222 HD
DOCKED: ENDBRANCH  43  45
DOCKED: BRANCH  43  47
DOCKED: ATOM     47  O   UNL d   1     -13.785  -0.606 -10.066 -0.94 -0.02    -0.303 OA
DOCKED: ATOM     48  H   UNL d   1     -13.354   0.208 -10.397 +0.13 -0.04    +0.222 HD
DOCKED: ENDBRANCH  43  47
DOCKED: ENDBRANCH  42  43
DOCKED: ENDBRANCH   4  42
DOCKED: TORSDOF 24
DOCKED: TER
DOCKED: ENDMDL
________________________________________________________________________________


	BEGINNING GENETIC ALGORITHM DOCKING 86 of 100
Run: 86 Seed: 2015887171 17052228 [ Run 86 of 100 GA/GALS ]
Beginning LAMARCKIAN GENETIC ALGORITHM (LGA), with a maximum of 25000000 energy evaluations.

Final-Value: -17.307


	FINAL GENETIC ALGORITHM DOCKED STATE
	_______________________________________________


Detailed state:  trans -8.175 -16.115 2.509 quatxyzw -0.478088 0.507180 0.523996 0.489519 center 0.035 0.082 -0.065 ntor 24 -132.4798 -11.3343 -171.5964 -33.1655 -12.8099 180.0000 -132.6620 -63.8691 64.3177 113.3604 -94.6429 -169.7773 62.5415 -180.0000 173.2806 -135.9957 50.7754 4.2252 38.7195 15.2655 172.3465 -1.4797 31.3341 -21.6540
State:	 -8.175 -16.115   2.509  -0.548  0.582  0.601 121.382   -132.48  -11.33 -171.60  -33.17  -12.81  180.00 -132.66  -63.87   64.32  113.36  -94.64 -169.78   62.54 -180.00  173.28 -136.00   50.78    4.23   38.72   15.27  172.35   -1.48   31.33  -21.65

DOCKED: MODEL       86
DOCKED: USER    Run = 86
DOCKED: USER    DPF = D:/Protein_go_brrr/autodock/final/AncA/IHP/dock.dpf
DOCKED: USER  
DOCKED: USER    Estimated Free Energy of Binding    =   +2.18 kcal/mol  [=(1)+(2)+(3)-(4)]
DOCKED: USER    
DOCKED: USER    (1) Final Intermolecular Energy     =   -4.98 kcal/mol
DOCKED: USER        vdW + Hbond + desolv Energy     =   -4.62 kcal/mol
DOCKED: USER        Electrostatic Energy            =   -0.36 kcal/mol
DOCKED: USER    (2) Final Total Internal Energy     =  -12.33 kcal/mol
DOCKED: USER    (3) Torsional Free Energy           =   +7.16 kcal/mol
DOCKED: USER    (4) Unbound System's Energy  [=(2)] =  -12.33 kcal/mol
DOCKED: USER    
DOCKED: USER    
DOCKED: USER    NEWDPF move IHP_ideal_opt.pdbqt
DOCKED: USER    NEWDPF about 0.035000 0.082000 -0.065000
DOCKED: USER    NEWDPF tran0 -8.174644 -16.114804 2.508501
DOCKED: USER    NEWDPF quaternion0 -0.478088 0.507180 0.523996 0.489519
DOCKED: USER    NEWDPF axisangle0 -0.548270 0.581633 0.600918 121.382106
DOCKED: USER    NEWDPF quat0 -0.548270 0.581633 0.600918 121.382106
DOCKED: USER    NEWDPF dihe0 -132.48 -11.33 -171.60 -33.17 -12.81 180.00 -132.66 -63.87 64.32 113.36 -94.64 -169.78 62.54 -180.00 173.28 -136.00 50.78 4.23 38.72 15.27 172.35 -1.48 31.33 -21.65 
DOCKED: USER  keepresnum = 1 
DOCKED: USER  
DOCKED: REMARK  24 active torsions:
DOCKED: REMARK  status: ('A' for Active; 'I' for Inactive)
DOCKED: REMARK    1  A    between atoms: C_1  and  O_7 
DOCKED: REMARK    2  A    between atoms: C_2  and  O_12 
DOCKED: REMARK    3  A    between atoms: C_3  and  O_17 
DOCKED: REMARK    4  A    between atoms: C_4  and  O_22 
DOCKED: REMARK    5  A    between atoms: C_5  and  O_27 
DOCKED: REMARK    6  A    between atoms: C_6  and  O_32 
DOCKED: REMARK    7  A    between atoms: O_7  and  P_8 
DOCKED: REMARK    8  A    between atoms: P_8  and  O_10 
DOCKED: REMARK    9  A    between atoms: P_8  and  O_11 
DOCKED: REMARK   10  A    between atoms: O_12  and  P_13 
DOCKED: REMARK   11  A    between atoms: P_13  and  O_15 
DOCKED: REMARK   12  A    between atoms: P_13  and  O_16 
DOCKED: REMARK   13  A    between atoms: O_17  and  P_18 
DOCKED: REMARK   14  A    between atoms: P_18  and  O_20 
DOCKED: REMARK   15  A    between atoms: P_18  and  O_21 
DOCKED: REMARK   16  A    between atoms: O_22  and  P_23 
DOCKED: REMARK   17  A    between atoms: P_23  and  O_25 
DOCKED: REMARK   18  A    between atoms: P_23  and  O_26 
DOCKED: REMARK   19  A    between atoms: O_27  and  P_28 
DOCKED: REMARK   20  A    between atoms: P_28  and  O_30 
DOCKED: REMARK   21  A    between atoms: P_28  and  O_31 
DOCKED: REMARK   22  A    between atoms: O_32  and  P_33 
DOCKED: REMARK   23  A    between atoms: P_33  and  O_35 
DOCKED: REMARK   24  A    between atoms: P_33  and  O_36 
DOCKED: USER                              x       y       z     vdW  Elec       q    Type
DOCKED: USER                           _______ _______ _______ _____ _____    ______ ____
DOCKED: ROOT
DOCKED: ATOM      1  C   UNL d   1      -9.068 -17.309   1.638 +0.00 +0.11    +0.194 C 
DOCKED: ATOM      2  C   UNL d   1      -8.643 -16.082   0.829 -0.02 +0.15    +0.194 C 
DOCKED: ATOM      3  C   UNL d   1      -8.855 -14.786   1.614 -0.09 +0.17    +0.194 C 
DOCKED: ATOM      4  C   UNL d   1      -8.219 -14.812   3.001 -0.10 +0.23    +0.194 C 
DOCKED: ATOM      5  C   UNL d   1      -8.523 -16.072   3.800 -0.05 +0.16    +0.194 C 
DOCKED: ATOM      6  C   UNL d   1      -8.371 -17.366   2.997 -0.01 +0.13    +0.194 C 
DOCKED: ENDROOT
DOCKED: BRANCH   1   7
DOCKED: ATOM      7  O   UNL d   1      -8.681 -18.478   0.911 +0.01 -0.14    -0.278 OA
DOCKED: BRANCH   7   8
DOCKED: ATOM      8  P   UNL d   1      -9.653 -19.015  -0.237 +0.02 +0.19    +0.473 P 
DOCKED: ATOM      9  O   UNL d   1      -9.103 -18.935  -1.618 +0.00 -0.11    -0.228 OA
DOCKED: BRANCH   8  10
DOCKED: ATOM     10  O   UNL d   1     -10.001 -20.504   0.215 +0.00 -0.09    -0.303 OA
DOCKED: ATOM     11  H   UNL d   1     -10.571 -20.481   1.007 +0.00 +0.06    +0.222 HD
DOCKED: ENDBRANCH   8  10
DOCKED: BRANCH   8  12
DOCKED: ATOM     12  O   UNL d   1     -11.032 -18.263   0.004 +0.00 -0.10    -0.303 OA
DOCKED: ATOM     13  H   UNL d   1     -11.395 -18.404   0.908 +0.01 +0.07    +0.222 HD
DOCKED: ENDBRANCH   8  12
DOCKED: ENDBRANCH   7   8
DOCKED: ENDBRANCH   1   7
DOCKED: BRANCH   2  14
DOCKED: ATOM     14  O   UNL d   1      -7.253 -16.197   0.503 -0.07 -0.34    -0.278 OA
DOCKED: BRANCH  14  15
DOCKED: ATOM     15  P   UNL d   1      -6.793 -15.576  -0.899 -0.03 +0.73    +0.473 P 
DOCKED: ATOM     16  O   UNL d   1      -6.081 -16.497  -1.841 -0.44 -0.45    -0.228 OA
DOCKED: BRANCH  15  17
DOCKED: ATOM     17  O   UNL d   1      -8.134 -14.978  -1.517 -0.09 -0.31    -0.303 OA
DOCKED: ATOM     18  H   UNL d   1      -8.241 -14.037  -1.280 +0.07 +0.21    +0.222 HD
DOCKED: ENDBRANCH  15  17
DOCKED: BRANCH  15  19
DOCKED: ATOM     19  O   UNL d   1      -6.003 -14.252  -0.508 -0.39 -0.57    -0.303 OA
DOCKED: ATOM     20  H   UNL d   1      -6.587 -13.471  -0.506 +0.07 +0.32    +0.222 HD
DOCKED: ENDBRANCH  15  19
DOCKED: ENDBRANCH  14  15
DOCKED: ENDBRANCH   2  14
DOCKED: BRANCH   6  21
DOCKED: ATOM     21  O   UNL d   1      -9.006 -18.396   3.751 +0.00 -0.12    -0.278 OA
DOCKED: BRANCH  21  22
DOCKED: ATOM     22  P   UNL d   1     -10.595 -18.407   3.895 +0.02 +0.15    +0.473 P 
DOCKED: ATOM     23  O   UNL d   1     -11.192 -19.118   5.062 +0.00 -0.05    -0.228 OA
DOCKED: BRANCH  22  24
DOCKED: ATOM     24  O   UNL d   1     -10.940 -16.855   3.810 -0.01 -0.11    -0.303 OA
DOCKED: ATOM     25  H   UNL d   1     -10.748 -16.448   4.693 +0.04 +0.08    +0.222 HD
DOCKED: ENDBRANCH  22  24
DOCKED: BRANCH  22  26
DOCKED: ATOM     26  O   UNL d   1     -11.049 -18.926   2.448 +0.00 -0.09    -0.303 OA
DOCKED: ATOM     27  H   UNL d   1     -10.256 -19.176   1.932 +0.00 +0.07    +0.222 HD
DOCKED: ENDBRANCH  22  26
DOCKED: ENDBRANCH  21  22
DOCKED: ENDBRANCH   6  21
DOCKED: BRANCH   3  28
DOCKED: ATOM     28  O   UNL d   1      -8.187 -13.746   0.911 -0.12 -0.29    -0.278 OA
DOCKED: BRANCH  28  29
DOCKED: ATOM     29  P   UNL d   1      -9.022 -12.626   0.146 -0.15 +0.33    +0.473 P 
DOCKED: ATOM     30  O   UNL d   1      -8.270 -11.854  -0.877 -0.19 -0.15    -0.228 OA
DOCKED: BRANCH  29  31
DOCKED: ATOM     31  O   UNL d   1     -10.258 -13.503  -0.369 -0.39 -0.17    -0.303 OA
DOCKED: ATOM     32  H   UNL d   1      -9.984 -13.982  -1.185 +0.07 +0.12    +0.222 HD
DOCKED: ENDBRANCH  29  31
DOCKED: BRANCH  29  33
DOCKED: ATOM     33  O   UNL d   1      -9.655 -11.800   1.351 -0.57 -0.18    -0.303 OA
DOCKED: ATOM     34  H   UNL d   1      -9.424 -12.246   2.202 +0.13 +0.14    +0.222 HD
DOCKED: ENDBRANCH  29  33
DOCKED: ENDBRANCH  28  29
DOCKED: ENDBRANCH   3  28
DOCKED: BRANCH   5  35
DOCKED: ATOM     35  O   UNL d   1      -7.554 -16.111   4.846 -0.06 -0.27    -0.278 OA
DOCKED: BRANCH  35  36
DOCKED: ATOM     36  P   UNL d   1      -7.794 -17.025   6.131 +0.01 +0.24    +0.473 P 
DOCKED: ATOM     37  O   UNL d   1      -7.164 -18.381   6.084 -0.00 -0.10    -0.228 OA
DOCKED: BRANCH  36  38
DOCKED: ATOM     38  O   UNL d   1      -7.251 -16.092   7.301 -0.02 -0.14    -0.303 OA
DOCKED: ATOM     39  H   UNL d   1      -6.849 -15.286   6.910 +0.06 +0.14    +0.222 HD
DOCKED: ENDBRANCH  36  38
DOCKED: BRANCH  36  40
DOCKED: ATOM     40  O   UNL d   1      -9.374 -16.969   6.299 -0.00 -0.11    -0.303 OA
DOCKED: ATOM     41  H   UNL d   1      -9.833 -17.483   5.597 +0.02 +0.08    +0.222 HD
DOCKED: ENDBRANCH  36  40
DOCKED: ENDBRANCH  35  36
DOCKED: ENDBRANCH   5  35
DOCKED: BRANCH   4  42
DOCKED: ATOM     42  O   UNL d   1      -8.769 -13.709   3.730 -0.17 -0.23    -0.278 OA
DOCKED: BRANCH  42  43
DOCKED: ATOM     43  P   UNL d   1      -7.783 -12.751   4.539 -0.30 +0.43    +0.473 P 
DOCKED: ATOM     44  O   UNL d   1      -6.596 -12.216   3.815 -0.99 -0.34    -0.228 OA
DOCKED: BRANCH  43  45
DOCKED: ATOM     45  O   UNL d   1      -8.765 -11.630   5.097 -0.36 -0.11    -0.303 OA
DOCKED: ATOM     46  H   UNL d   1      -8.270 -10.866   5.455 -0.43 -0.02    +0.222 HD
DOCKED: ENDBRANCH  43  45
DOCKED: BRANCH  43  47
DOCKED: ATOM     47  O   UNL d   1      -7.463 -13.592   5.866 -0.18 -0.23    -0.303 OA
DOCKED: ATOM     48  H   UNL d   1      -7.819 -14.499   5.767 +0.09 +0.17    +0.222 HD
DOCKED: ENDBRANCH  43  47
DOCKED: ENDBRANCH  42  43
DOCKED: ENDBRANCH   4  42
DOCKED: TORSDOF 24
DOCKED: TER
DOCKED: ENDMDL
________________________________________________________________________________


	BEGINNING GENETIC ALGORITHM DOCKING 87 of 100
Run: 87 Seed: 603157296 1409000681 [ Run 87 of 100 GA/GALS ]
Beginning LAMARCKIAN GENETIC ALGORITHM (LGA), with a maximum of 25000000 energy evaluations.

Final-Value: -19.749


	FINAL GENETIC ALGORITHM DOCKED STATE
	_______________________________________________


Detailed state:  trans -10.662 -13.451 -3.116 quatxyzw 0.170928 -0.151504 -0.829693 -0.509352 center 0.035 0.082 -0.065 ntor 24 63.5279 103.2212 180.0000 114.4706 -19.4390 -149.1128 -41.1656 54.1013 73.2353 -3.8770 -22.9388 -94.3102 -79.9227 -74.7835 -47.6196 119.5344 -135.8040 -44.1640 -142.8616 -35.9361 25.9733 60.0181 -32.7517 -167.9850
State:	-10.662 -13.451  -3.116   0.199 -0.176 -0.964 -118.759     63.53  103.22  180.00  114.47  -19.44 -149.11  -41.17   54.10   73.24   -3.88  -22.94  -94.31  -79.92  -74.78  -47.62  119.53 -135.80  -44.16 -142.86  -35.94   25.97   60.02  -32.75 -167.99

DOCKED: MODEL       87
DOCKED: USER    Run = 87
DOCKED: USER    DPF = D:/Protein_go_brrr/autodock/final/AncA/IHP/dock.dpf
DOCKED: USER  
DOCKED: USER    Estimated Free Energy of Binding    =   +0.13 kcal/mol  [=(1)+(2)+(3)-(4)]
DOCKED: USER    
DOCKED: USER    (1) Final Intermolecular Energy     =   -7.03 kcal/mol
DOCKED: USER        vdW + Hbond + desolv Energy     =   -6.66 kcal/mol
DOCKED: USER        Electrostatic Energy            =   -0.37 kcal/mol
DOCKED: USER    (2) Final Total Internal Energy     =  -12.72 kcal/mol
DOCKED: USER    (3) Torsional Free Energy           =   +7.16 kcal/mol
DOCKED: USER    (4) Unbound System's Energy  [=(2)] =  -12.72 kcal/mol
DOCKED: USER    
DOCKED: USER    
DOCKED: USER    NEWDPF move IHP_ideal_opt.pdbqt
DOCKED: USER    NEWDPF about 0.035000 0.082000 -0.065000
DOCKED: USER    NEWDPF tran0 -10.662494 -13.451427 -3.115980
DOCKED: USER    NEWDPF quaternion0 0.170928 -0.151504 -0.829693 -0.509352
DOCKED: USER    NEWDPF axisangle0 0.198624 -0.176053 -0.964134 -118.758647
DOCKED: USER    NEWDPF quat0 0.198624 -0.176053 -0.964134 -118.758647
DOCKED: USER    NEWDPF dihe0 63.53 103.22 180.00 114.47 -19.44 -149.11 -41.17 54.10 73.24 -3.88 -22.94 -94.31 -79.92 -74.78 -47.62 119.53 -135.80 -44.16 -142.86 -35.94 25.97 60.02 -32.75 -167.99 
DOCKED: USER  keepresnum = 1 
DOCKED: USER  
DOCKED: REMARK  24 active torsions:
DOCKED: REMARK  status: ('A' for Active; 'I' for Inactive)
DOCKED: REMARK    1  A    between atoms: C_1  and  O_7 
DOCKED: REMARK    2  A    between atoms: C_2  and  O_12 
DOCKED: REMARK    3  A    between atoms: C_3  and  O_17 
DOCKED: REMARK    4  A    between atoms: C_4  and  O_22 
DOCKED: REMARK    5  A    between atoms: C_5  and  O_27 
DOCKED: REMARK    6  A    between atoms: C_6  and  O_32 
DOCKED: REMARK    7  A    between atoms: O_7  and  P_8 
DOCKED: REMARK    8  A    between atoms: P_8  and  O_10 
DOCKED: REMARK    9  A    between atoms: P_8  and  O_11 
DOCKED: REMARK   10  A    between atoms: O_12  and  P_13 
DOCKED: REMARK   11  A    between atoms: P_13  and  O_15 
DOCKED: REMARK   12  A    between atoms: P_13  and  O_16 
DOCKED: REMARK   13  A    between atoms: O_17  and  P_18 
DOCKED: REMARK   14  A    between atoms: P_18  and  O_20 
DOCKED: REMARK   15  A    between atoms: P_18  and  O_21 
DOCKED: REMARK   16  A    between atoms: O_22  and  P_23 
DOCKED: REMARK   17  A    between atoms: P_23  and  O_25 
DOCKED: REMARK   18  A    between atoms: P_23  and  O_26 
DOCKED: REMARK   19  A    between atoms: O_27  and  P_28 
DOCKED: REMARK   20  A    between atoms: P_28  and  O_30 
DOCKED: REMARK   21  A    between atoms: P_28  and  O_31 
DOCKED: REMARK   22  A    between atoms: O_32  and  P_33 
DOCKED: REMARK   23  A    between atoms: P_33  and  O_35 
DOCKED: REMARK   24  A    between atoms: P_33  and  O_36 
DOCKED: USER                              x       y       z     vdW  Elec       q    Type
DOCKED: USER                           _______ _______ _______ _____ _____    ______ ____
DOCKED: ROOT
DOCKED: ATOM      1  C   UNL d   1     -12.243 -14.128  -2.947 -0.15 +0.04    +0.194 C 
DOCKED: ATOM      2  C   UNL d   1     -12.192 -12.687  -3.459 -0.19 +0.03    +0.194 C 
DOCKED: ATOM      3  C   UNL d   1     -11.177 -11.846  -2.682 -0.18 +0.04    +0.194 C 
DOCKED: ATOM      4  C   UNL d   1      -9.792 -12.485  -2.616 -0.15 +0.09    +0.194 C 
DOCKED: ATOM      5  C   UNL d   1      -9.805 -13.956  -2.221 -0.13 +0.10    +0.194 C 
DOCKED: ATOM      6  C   UNL d   1     -10.862 -14.784  -2.953 -0.10 +0.08    +0.194 C 
DOCKED: ENDROOT
DOCKED: BRANCH   1   7
DOCKED: ATOM      7  O   UNL d   1     -13.078 -14.884  -3.828 -0.06 -0.06    -0.278 OA
DOCKED: BRANCH   7   8
DOCKED: ATOM      8  P   UNL d   1     -12.388 -15.696  -5.018 -0.04 +0.12    +0.473 P 
DOCKED: ATOM      9  O   UNL d   1     -11.110 -15.120  -5.516 -0.10 -0.08    -0.228 OA
DOCKED: BRANCH   8  10
DOCKED: ATOM     10  O   UNL d   1     -12.227 -17.173  -4.436 -0.01 -0.09    -0.303 OA
DOCKED: ATOM     11  H   UNL d   1     -11.338 -17.276  -4.047 +0.03 +0.08    +0.222 HD
DOCKED: ENDBRANCH   8  10
DOCKED: BRANCH   8  12
DOCKED: ATOM     12  O   UNL d   1     -13.532 -15.889  -6.103 -0.03 -0.06    -0.303 OA
DOCKED: ATOM     13  H   UNL d   1     -13.913 -15.038  -6.418 +0.05 +0.04    +0.222 HD
DOCKED: ENDBRANCH   8  12
DOCKED: ENDBRANCH   7   8
DOCKED: ENDBRANCH   1   7
DOCKED: BRANCH   2  14
DOCKED: ATOM     14  O   UNL d   1     -11.815 -12.695  -4.841 -0.12 -0.06    -0.278 OA
DOCKED: BRANCH  14  15
DOCKED: ATOM     15  P   UNL d   1     -13.008 -12.642  -5.908 -0.16 +0.05    +0.473 P 
DOCKED: ATOM     16  O   UNL d   1     -14.367 -13.033  -5.417 -0.08 -0.02    -0.228 OA
DOCKED: BRANCH  15  17
DOCKED: ATOM     17  O   UNL d   1     -12.959 -11.153  -6.471 -0.22 +0.01    -0.303 OA
DOCKED: ATOM     18  H   UNL d   1     -12.306 -11.070  -7.192 -0.46 -0.07    +0.222 HD
DOCKED: ENDBRANCH  15  17
DOCKED: BRANCH  15  19
DOCKED: ATOM     19  O   UNL d   1     -12.464 -13.471  -7.152 -0.25 -0.03    -0.303 OA
DOCKED: ATOM     20  H   UNL d   1     -12.178 -14.366  -6.892 +0.02 +0.03    +0.222 HD
DOCKED: ENDBRANCH  15  19
DOCKED: ENDBRANCH  14  15
DOCKED: ENDBRANCH   2  14
DOCKED: BRANCH   6  21
DOCKED: ATOM     21  O   UNL d   1     -10.982 -16.017  -2.247 -0.03 -0.11    -0.278 OA
DOCKED: BRANCH  21  22
DOCKED: ATOM     22  P   UNL d   1      -9.862 -17.140  -2.419 +0.00 +0.24    +0.473 P 
DOCKED: ATOM     23  O   UNL d   1      -8.944 -17.046  -3.590 -0.06 -0.15    -0.228 OA
DOCKED: BRANCH  22  24
DOCKED: ATOM     24  O   UNL d   1      -9.141 -17.101  -1.000 +0.00 -0.18    -0.303 OA
DOCKED: ATOM     25  H   UNL d   1      -8.448 -16.393  -1.027 +0.03 +0.18    +0.222 HD
DOCKED: ENDBRANCH  22  24
DOCKED: BRANCH  22  26
DOCKED: ATOM     26  O   UNL d   1     -10.730 -18.484  -2.312 +0.00 -0.11    -0.303 OA
DOCKED: ATOM     27  H   UNL d   1     -11.595 -18.344  -2.747 +0.01 +0.07    +0.222 HD
DOCKED: ENDBRANCH  22  26
DOCKED: ENDBRANCH  21  22
DOCKED: ENDBRANCH   6  21
DOCKED: BRANCH   3  28
DOCKED: ATOM     28  O   UNL d   1     -10.997 -10.627  -3.393 -0.27 -0.04    -0.278 OA
DOCKED: BRANCH  28  29
DOCKED: ATOM     29  P   UNL d   1     -10.172  -9.431  -2.742 -0.32 +0.08    +0.473 P 
DOCKED: ATOM     30  O   UNL d   1      -8.728  -9.385  -3.089 -0.31 -0.07    -0.228 OA
DOCKED: BRANCH  29  31
DOCKED: ATOM     31  O   UNL d   1     -11.070  -8.189  -3.203 -0.37 -0.03    -0.303 OA
DOCKED: ATOM     32  H   UNL d   1     -11.912  -8.534  -3.579 -0.21 -0.01    +0.222 HD
DOCKED: ENDBRANCH  29  31
DOCKED: BRANCH  29  33
DOCKED: ATOM     33  O   UNL d   1     -10.536  -9.574  -1.198 -0.33 -0.05    -0.303 OA
DOCKED: ATOM     34  H   UNL d   1      -9.724  -9.837  -0.699 +0.12 +0.06    +0.222 HD
DOCKED: ENDBRANCH  29  33
DOCKED: ENDBRANCH  28  29
DOCKED: ENDBRANCH   3  28
DOCKED: BRANCH   5  35
DOCKED: ATOM     35  O   UNL d   1      -8.530 -14.470  -2.602 -0.12 -0.25    -0.278 OA
DOCKED: BRANCH  35  36
DOCKED: ATOM     36  P   UNL d   1      -7.362 -14.604  -1.524 -0.05 +0.66    +0.473 P 
DOCKED: ATOM     37  O   UNL d   1      -6.453 -13.422  -1.407 -0.25 -0.37    -0.228 OA
DOCKED: BRANCH  36  38
DOCKED: ATOM     38  O   UNL d   1      -8.179 -14.936  -0.197 -0.04 -0.30    -0.303 OA
DOCKED: ATOM     39  H   UNL d   1      -9.132 -15.013  -0.418 +0.05 +0.16    +0.222 HD
DOCKED: ENDBRANCH  36  38
DOCKED: BRANCH  36  40
DOCKED: ATOM     40  O   UNL d   1      -6.693 -15.992  -1.919 -0.59 -0.57    -0.303 OA
DOCKED: ATOM     41  H   UNL d   1      -7.368 -16.688  -2.083 +0.03 +0.26    +0.222 HD
DOCKED: ENDBRANCH  36  40
DOCKED: ENDBRANCH  35  36
DOCKED: ENDBRANCH   5  35
DOCKED: BRANCH   4  42
DOCKED: ATOM     42  O   UNL d   1      -9.059 -11.784  -1.605 -0.18 -0.14    -0.278 OA
DOCKED: BRANCH  42  43
DOCKED: ATOM     43  P   UNL d   1      -9.296 -12.168  -0.075 -0.17 +0.29    +0.473 P 
DOCKED: ATOM     44  O   UNL d   1     -10.252 -13.273   0.216 -0.60 -0.15    -0.228 OA
DOCKED: BRANCH  43  45
DOCKED: ATOM     45  O   UNL d   1      -7.817 -12.431   0.451 -0.47 -0.30    -0.303 OA
DOCKED: ATOM     46  H   UNL d   1      -7.592 -13.382   0.426 +0.08 +0.26    +0.222 HD
DOCKED: ENDBRANCH  43  45
DOCKED: BRANCH  43  47
DOCKED: ATOM     47  O   UNL d   1      -9.639 -10.759   0.608 -0.44 -0.13    -0.303 OA
DOCKED: ATOM     48  H   UNL d   1     -10.594 -10.571   0.497 +0.12 +0.07    +0.222 HD
DOCKED: ENDBRANCH  43  47
DOCKED: ENDBRANCH  42  43
DOCKED: ENDBRANCH   4  42
DOCKED: TORSDOF 24
DOCKED: TER
DOCKED: ENDMDL
________________________________________________________________________________


	BEGINNING GENETIC ALGORITHM DOCKING 88 of 100
Run: 88 Seed: 1241083698 38891635 [ Run 88 of 100 GA/GALS ]
Beginning LAMARCKIAN GENETIC ALGORITHM (LGA), with a maximum of 25000000 energy evaluations.

Final-Value: -17.626


	FINAL GENETIC ALGORITHM DOCKED STATE
	_______________________________________________


Detailed state:  trans 17.740 -6.242 -11.731 quatxyzw -0.460126 -0.526720 -0.169815 -0.694272 center 0.035 0.082 -0.065 ntor 24 -25.1967 94.4318 65.6010 111.1915 93.9624 57.4530 -123.3053 1.3358 94.9999 163.5177 158.8694 147.9913 -32.2983 -31.3510 -149.9286 48.1573 95.2681 96.4214 25.7819 -19.5862 -40.0077 160.3066 152.2301 -34.2414
State:	 17.740  -6.242 -11.731  -0.639 -0.732 -0.236 -92.062    -25.20   94.43   65.60  111.19   93.96   57.45 -123.31    1.34   95.00  163.52  158.87  147.99  -32.30  -31.35 -149.93   48.16   95.27   96.42   25.78  -19.59  -40.01  160.31  152.23  -34.24

DOCKED: MODEL       88
DOCKED: USER    Run = 88
DOCKED: USER    DPF = D:/Protein_go_brrr/autodock/final/AncA/IHP/dock.dpf
DOCKED: USER  
DOCKED: USER    Estimated Free Energy of Binding    =   +3.07 kcal/mol  [=(1)+(2)+(3)-(4)]
DOCKED: USER    
DOCKED: USER    (1) Final Intermolecular Energy     =   -4.09 kcal/mol
DOCKED: USER        vdW + Hbond + desolv Energy     =   -3.93 kcal/mol
DOCKED: USER        Electrostatic Energy            =   -0.16 kcal/mol
DOCKED: USER    (2) Final Total Internal Energy     =  -13.54 kcal/mol
DOCKED: USER    (3) Torsional Free Energy           =   +7.16 kcal/mol
DOCKED: USER    (4) Unbound System's Energy  [=(2)] =  -13.54 kcal/mol
DOCKED: USER    
DOCKED: USER    
DOCKED: USER    NEWDPF move IHP_ideal_opt.pdbqt
DOCKED: USER    NEWDPF about 0.035000 0.082000 -0.065000
DOCKED: USER    NEWDPF tran0 17.740166 -6.242105 -11.731372
DOCKED: USER    NEWDPF quaternion0 -0.460126 -0.526720 -0.169815 -0.694272
DOCKED: USER    NEWDPF axisangle0 -0.639319 -0.731847 -0.235948 -92.061569
DOCKED: USER    NEWDPF quat0 -0.639319 -0.731847 -0.235948 -92.061569
DOCKED: USER    NEWDPF dihe0 -25.20 94.43 65.60 111.19 93.96 57.45 -123.31 1.34 95.00 163.52 158.87 147.99 -32.30 -31.35 -149.93 48.16 95.27 96.42 25.78 -19.59 -40.01 160.31 152.23 -34.24 
DOCKED: USER  keepresnum = 1 
DOCKED: USER  
DOCKED: REMARK  24 active torsions:
DOCKED: REMARK  status: ('A' for Active; 'I' for Inactive)
DOCKED: REMARK    1  A    between atoms: C_1  and  O_7 
DOCKED: REMARK    2  A    between atoms: C_2  and  O_12 
DOCKED: REMARK    3  A    between atoms: C_3  and  O_17 
DOCKED: REMARK    4  A    between atoms: C_4  and  O_22 
DOCKED: REMARK    5  A    between atoms: C_5  and  O_27 
DOCKED: REMARK    6  A    between atoms: C_6  and  O_32 
DOCKED: REMARK    7  A    between atoms: O_7  and  P_8 
DOCKED: REMARK    8  A    between atoms: P_8  and  O_10 
DOCKED: REMARK    9  A    between atoms: P_8  and  O_11 
DOCKED: REMARK   10  A    between atoms: O_12  and  P_13 
DOCKED: REMARK   11  A    between atoms: P_13  and  O_15 
DOCKED: REMARK   12  A    between atoms: P_13  and  O_16 
DOCKED: REMARK   13  A    between atoms: O_17  and  P_18 
DOCKED: REMARK   14  A    between atoms: P_18  and  O_20 
DOCKED: REMARK   15  A    between atoms: P_18  and  O_21 
DOCKED: REMARK   16  A    between atoms: O_22  and  P_23 
DOCKED: REMARK   17  A    between atoms: P_23  and  O_25 
DOCKED: REMARK   18  A    between atoms: P_23  and  O_26 
DOCKED: REMARK   19  A    between atoms: O_27  and  P_28 
DOCKED: REMARK   20  A    between atoms: P_28  and  O_30 
DOCKED: REMARK   21  A    between atoms: P_28  and  O_31 
DOCKED: REMARK   22  A    between atoms: O_32  and  P_33 
DOCKED: REMARK   23  A    between atoms: P_33  and  O_35 
DOCKED: REMARK   24  A    between atoms: P_33  and  O_36 
DOCKED: USER                              x       y       z     vdW  Elec       q    Type
DOCKED: USER                           _______ _______ _______ _____ _____    ______ ____
DOCKED: ROOT
DOCKED: ATOM      1  C   UNL d   1      17.131  -5.744 -10.193 -0.03 +0.02    +0.194 C 
DOCKED: ATOM      2  C   UNL d   1      16.280  -6.774 -10.939 -0.20 +0.03    +0.194 C 
DOCKED: ATOM      3  C   UNL d   1      16.156  -6.435 -12.427 -0.14 +0.02    +0.194 C 
DOCKED: ATOM      4  C   UNL d   1      17.503  -6.200 -13.104 -0.10 +0.01    +0.194 C 
DOCKED: ATOM      5  C   UNL d   1      18.431  -5.267 -12.335 -0.08 +0.00    +0.194 C 
DOCKED: ATOM      6  C   UNL d   1      18.507  -5.568 -10.837 -0.09 +0.00    +0.194 C 
DOCKED: ENDROOT
DOCKED: BRANCH   1   7
DOCKED: ATOM      7  O   UNL d   1      17.341  -6.220  -8.862 -0.11 -0.02    -0.278 OA
DOCKED: BRANCH   7   8
DOCKED: ATOM      8  P   UNL d   1      16.382  -5.681  -7.703 -0.26 +0.04    +0.473 P 
DOCKED: ATOM      9  O   UNL d   1      15.097  -5.094  -8.170 -0.85 -0.08    -0.228 OA
DOCKED: BRANCH   8  10
DOCKED: ATOM     10  O   UNL d   1      16.185  -6.943  -6.747 -0.23 -0.00    -0.303 OA
DOCKED: ATOM     11  H   UNL d   1      15.645  -6.688  -5.976 -0.47 -0.07    +0.222 HD
DOCKED: ENDBRANCH   8  10
DOCKED: BRANCH   8  12
DOCKED: ATOM     12  O   UNL d   1      17.298  -4.732  -6.817 -0.17 -0.01    -0.303 OA
DOCKED: ATOM     13  H   UNL d   1      17.804  -4.079  -7.350 +0.04 -0.04    +0.222 HD
DOCKED: ENDBRANCH   8  12
DOCKED: ENDBRANCH   7   8
DOCKED: ENDBRANCH   1   7
DOCKED: BRANCH   2  14
DOCKED: ATOM     14  O   UNL d   1      16.892  -8.064 -10.814 -0.09 -0.04    -0.278 OA
DOCKED: BRANCH  14  15
DOCKED: ATOM     15  P   UNL d   1      16.104  -9.148  -9.938 -0.08 +0.10    +0.473 P 
DOCKED: ATOM     16  O   UNL d   1      14.626  -8.957  -9.803 -0.65 -0.09    -0.228 OA
DOCKED: BRANCH  15  17
DOCKED: ATOM     17  O   UNL d   1      16.488 -10.541 -10.608 -0.07 -0.05    -0.303 OA
DOCKED: ATOM     18  H   UNL d   1      16.659 -10.436 -11.564 +0.03 +0.04    +0.222 HD
DOCKED: ENDBRANCH  15  17
DOCKED: BRANCH  15  19
DOCKED: ATOM     19  O   UNL d   1      16.914  -9.217  -8.571 -0.05 -0.04    -0.303 OA
DOCKED: ATOM     20  H   UNL d   1      17.050  -8.331  -8.187 +0.07 +0.02    +0.222 HD
DOCKED: ENDBRANCH  15  19
DOCKED: ENDBRANCH  14  15
DOCKED: ENDBRANCH   2  14
DOCKED: BRANCH   6  21
DOCKED: ATOM     21  O   UNL d   1      19.115  -4.435 -10.220 -0.10 +0.04    -0.278 OA
DOCKED: BRANCH  21  22
DOCKED: ATOM     22  P   UNL d   1      20.131  -4.644  -9.008 -0.02 -0.01    +0.473 P 
DOCKED: ATOM     23  O   UNL d   1      19.795  -4.026  -7.692 -0.05 +0.00    -0.228 OA
DOCKED: BRANCH  22  24
DOCKED: ATOM     24  O   UNL d   1      20.285  -6.228  -8.982 -0.00 -0.02    -0.303 OA
DOCKED: ATOM     25  H   UNL d   1      20.129  -6.568  -9.899 +0.02 +0.01    +0.222 HD
DOCKED: ENDBRANCH  22  24
DOCKED: BRANCH  22  26
DOCKED: ATOM     26  O   UNL d   1      21.520  -4.186  -9.665 -0.00 -0.01    -0.303 OA
DOCKED: ATOM     27  H   UNL d   1      22.131  -4.950  -9.689 +0.01 +0.01    +0.222 HD
DOCKED: ENDBRANCH  22  26
DOCKED: ENDBRANCH  21  22
DOCKED: ENDBRANCH   6  21
DOCKED: BRANCH   3  28
DOCKED: ATOM     28  O   UNL d   1      15.599  -7.569 -13.079 -0.13 -0.04    -0.278 OA
DOCKED: BRANCH  28  29
DOCKED: ATOM     29  P   UNL d   1      16.546  -8.717 -13.646 -0.06 +0.05    +0.473 P 
DOCKED: ATOM     30  O   UNL d   1      17.895  -8.797 -13.030 -0.02 -0.02    -0.228 OA
DOCKED: BRANCH  29  31
DOCKED: ATOM     31  O   UNL d   1      15.587  -9.986 -13.464 -0.07 -0.04    -0.303 OA
DOCKED: ATOM     32  H   UNL d   1      15.519 -10.192 -12.503 +0.03 +0.05    +0.222 HD
DOCKED: ENDBRANCH  29  31
DOCKED: BRANCH  29  33
DOCKED: ATOM     33  O   UNL d   1      16.486  -8.454 -15.215 -0.02 -0.02    -0.303 OA
DOCKED: ATOM     34  H   UNL d   1      16.829  -7.546 -15.402 +0.03 +0.01    +0.222 HD
DOCKED: ENDBRANCH  29  33
DOCKED: ENDBRANCH  28  29
DOCKED: ENDBRANCH   3  28
DOCKED: BRANCH   5  35
DOCKED: ATOM     35  O   UNL d   1      19.733  -5.485 -12.874 -0.01 -0.01    -0.278 OA
DOCKED: BRANCH  35  36
DOCKED: ATOM     36  P   UNL d   1      20.568  -6.780 -12.461 +0.01 +0.03    +0.473 P 
DOCKED: ATOM     37  O   UNL d   1      21.328  -7.438 -13.569 -0.00 -0.02    -0.228 OA
DOCKED: BRANCH  36  38
DOCKED: ATOM     38  O   UNL d   1      21.481  -6.217 -11.285 -0.00 -0.02    -0.303 OA
DOCKED: ATOM     39  H   UNL d   1      21.041  -5.439 -10.880 +0.02 +0.01    +0.222 HD
DOCKED: ENDBRANCH  36  38
DOCKED: BRANCH  36  40
DOCKED: ATOM     40  O   UNL d   1      19.478  -7.663 -11.711 -0.00 -0.02    -0.303 OA
DOCKED: ATOM     41  H   UNL d   1      19.369  -8.544 -12.133 +0.02 +0.02    +0.222 HD
DOCKED: ENDBRANCH  36  40
DOCKED: ENDBRANCH  35  36
DOCKED: ENDBRANCH   5  35
DOCKED: BRANCH   4  42
DOCKED: ATOM     42  O   UNL d   1      17.230  -5.577 -14.364 -0.06 +0.00    -0.278 OA
DOCKED: BRANCH  42  43
DOCKED: ATOM     43  P   UNL d   1      18.161  -5.922 -15.613 +0.01 +0.02    +0.473 P 
DOCKED: ATOM     44  O   UNL d   1      17.506  -6.041 -16.945 -0.01 -0.01    -0.228 OA
DOCKED: BRANCH  43  45
DOCKED: ATOM     45  O   UNL d   1      19.280  -4.793 -15.536 -0.00 -0.01    -0.303 OA
DOCKED: ATOM     46  H   UNL d   1      20.010  -5.053 -14.938 +0.01 +0.01    +0.222 HD
DOCKED: ENDBRANCH  43  45
DOCKED: BRANCH  43  47
DOCKED: ATOM     47  O   UNL d   1      18.969  -7.216 -15.121 -0.00 -0.02    -0.303 OA
DOCKED: ATOM     48  H   UNL d   1      19.121  -7.154 -14.155 +0.02 +0.01    +0.222 HD
DOCKED: ENDBRANCH  43  47
DOCKED: ENDBRANCH  42  43
DOCKED: ENDBRANCH   4  42
DOCKED: TORSDOF 24
DOCKED: TER
DOCKED: ENDMDL
________________________________________________________________________________


	BEGINNING GENETIC ALGORITHM DOCKING 89 of 100
Run: 89 Seed: 1244446570 2039319208 [ Run 89 of 100 GA/GALS ]
Beginning LAMARCKIAN GENETIC ALGORITHM (LGA), with a maximum of 25000000 energy evaluations.

Final-Value: -17.099


	FINAL GENETIC ALGORITHM DOCKED STATE
	_______________________________________________


Detailed state:  trans 15.262 0.144 11.111 quatxyzw 0.062126 0.212473 0.038469 -0.974431 center 0.035 0.082 -0.065 ntor 24 140.7821 124.6980 -172.7302 36.4844 48.8238 -26.3066 -0.3700 -113.0565 137.8721 -32.8982 90.9263 127.7136 -94.3321 174.8289 -59.0302 -78.5686 115.4839 -137.8192 -139.6648 19.6263 -175.4954 21.9045 149.4335 -8.2992
State:	 15.262   0.144  11.111   0.276  0.946  0.171 -25.969    140.78  124.70 -172.73   36.48   48.82  -26.31   -0.37 -113.06  137.87  -32.90   90.93  127.71  -94.33  174.83  -59.03  -78.57  115.48 -137.82 -139.66   19.63 -175.50   21.90  149.43   -8.30

DOCKED: MODEL       89
DOCKED: USER    Run = 89
DOCKED: USER    DPF = D:/Protein_go_brrr/autodock/final/AncA/IHP/dock.dpf
DOCKED: USER  
DOCKED: USER    Estimated Free Energy of Binding    =   +4.37 kcal/mol  [=(1)+(2)+(3)-(4)]
DOCKED: USER    
DOCKED: USER    (1) Final Intermolecular Energy     =   -2.79 kcal/mol
DOCKED: USER        vdW + Hbond + desolv Energy     =   -2.64 kcal/mol
DOCKED: USER        Electrostatic Energy            =   -0.15 kcal/mol
DOCKED: USER    (2) Final Total Internal Energy     =  -14.31 kcal/mol
DOCKED: USER    (3) Torsional Free Energy           =   +7.16 kcal/mol
DOCKED: USER    (4) Unbound System's Energy  [=(2)] =  -14.31 kcal/mol
DOCKED: USER    
DOCKED: USER    
DOCKED: USER    NEWDPF move IHP_ideal_opt.pdbqt
DOCKED: USER    NEWDPF about 0.035000 0.082000 -0.065000
DOCKED: USER    NEWDPF tran0 15.262119 0.144063 11.111437
DOCKED: USER    NEWDPF quaternion0 0.062126 0.212473 0.038469 -0.974431
DOCKED: USER    NEWDPF axisangle0 0.276498 0.945640 0.171213 -25.968980
DOCKED: USER    NEWDPF quat0 0.276498 0.945640 0.171213 -25.968980
DOCKED: USER    NEWDPF dihe0 140.78 124.70 -172.73 36.48 48.82 -26.31 -0.37 -113.06 137.87 -32.90 90.93 127.71 -94.33 174.83 -59.03 -78.57 115.48 -137.82 -139.66 19.63 -175.50 21.90 149.43 -8.30 
DOCKED: USER  keepresnum = 1 
DOCKED: USER  
DOCKED: REMARK  24 active torsions:
DOCKED: REMARK  status: ('A' for Active; 'I' for Inactive)
DOCKED: REMARK    1  A    between atoms: C_1  and  O_7 
DOCKED: REMARK    2  A    between atoms: C_2  and  O_12 
DOCKED: REMARK    3  A    between atoms: C_3  and  O_17 
DOCKED: REMARK    4  A    between atoms: C_4  and  O_22 
DOCKED: REMARK    5  A    between atoms: C_5  and  O_27 
DOCKED: REMARK    6  A    between atoms: C_6  and  O_32 
DOCKED: REMARK    7  A    between atoms: O_7  and  P_8 
DOCKED: REMARK    8  A    between atoms: P_8  and  O_10 
DOCKED: REMARK    9  A    between atoms: P_8  and  O_11 
DOCKED: REMARK   10  A    between atoms: O_12  and  P_13 
DOCKED: REMARK   11  A    between atoms: P_13  and  O_15 
DOCKED: REMARK   12  A    between atoms: P_13  and  O_16 
DOCKED: REMARK   13  A    between atoms: O_17  and  P_18 
DOCKED: REMARK   14  A    between atoms: P_18  and  O_20 
DOCKED: REMARK   15  A    between atoms: P_18  and  O_21 
DOCKED: REMARK   16  A    between atoms: O_22  and  P_23 
DOCKED: REMARK   17  A    between atoms: P_23  and  O_25 
DOCKED: REMARK   18  A    between atoms: P_23  and  O_26 
DOCKED: REMARK   19  A    between atoms: O_27  and  P_28 
DOCKED: REMARK   20  A    between atoms: P_28  and  O_30 
DOCKED: REMARK   21  A    between atoms: P_28  and  O_31 
DOCKED: REMARK   22  A    between atoms: O_32  and  P_33 
DOCKED: REMARK   23  A    between atoms: P_33  and  O_35 
DOCKED: REMARK   24  A    between atoms: P_33  and  O_36 
DOCKED: USER                              x       y       z     vdW  Elec       q    Type
DOCKED: USER                           _______ _______ _______ _____ _____    ______ ____
DOCKED: ROOT
DOCKED: ATOM      1  C   UNL d   1      16.773  -0.690  11.190 -0.01 +0.02    +0.194 C 
DOCKED: ATOM      2  C   UNL d   1      15.526  -1.574  11.258 -0.03 +0.01    +0.194 C 
DOCKED: ATOM      3  C   UNL d   1      14.456  -0.975  12.174 -0.05 +0.01    +0.194 C 
DOCKED: ATOM      4  C   UNL d   1      14.119   0.475  11.837 -0.10 +0.01    +0.194 C 
DOCKED: ATOM      5  C   UNL d   1      15.338   1.368  11.647 -0.05 +0.02    +0.194 C 
DOCKED: ATOM      6  C   UNL d   1      16.434   0.744  10.781 -0.03 +0.02    +0.194 C 
DOCKED: ENDROOT
DOCKED: BRANCH   1   7
DOCKED: ATOM      7  O   UNL d   1      17.644  -1.224  10.190 -0.00 -0.03    -0.278 OA
DOCKED: BRANCH   7   8
DOCKED: ATOM      8  P   UNL d   1      17.616  -0.572   8.732 +0.01 +0.06    +0.473 P 
DOCKED: ATOM      9  O   UNL d   1      16.258  -0.266   8.204 -0.06 -0.03    -0.228 OA
DOCKED: BRANCH   8  10
DOCKED: ATOM     10  O   UNL d   1      18.543   0.719   8.868 -0.00 -0.03    -0.303 OA
DOCKED: ATOM     11  H   UNL d   1      18.661   0.939   9.811 +0.01 +0.02    +0.222 HD
DOCKED: ENDBRANCH   8  10
DOCKED: BRANCH   8  12
DOCKED: ATOM     12  O   UNL d   1      18.510  -1.530   7.834 -0.00 -0.04    -0.303 OA
DOCKED: ATOM     13  H   UNL d   1      18.035  -2.342   7.545 +0.01 +0.03    +0.222 HD
DOCKED: ENDBRANCH   8  12
DOCKED: ENDBRANCH   7   8
DOCKED: ENDBRANCH   1   7
DOCKED: BRANCH   2  14
DOCKED: ATOM     14  O   UNL d   1      14.976  -1.707   9.941 -0.07 -0.02    -0.278 OA
DOCKED: BRANCH  14  15
DOCKED: ATOM     15  P   UNL d   1      14.175  -3.059   9.633 -0.05 +0.03    +0.473 P 
DOCKED: ATOM     16  O   UNL d   1      14.558  -3.799   8.390 -0.05 -0.03    -0.228 OA
DOCKED: BRANCH  15  17
DOCKED: ATOM     17  O   UNL d   1      14.364  -3.930  10.953 -0.02 -0.02    -0.303 OA
DOCKED: ATOM     18  H   UNL d   1      13.637  -3.773  11.586 +0.04 +0.01    +0.222 HD
DOCKED: ENDBRANCH  15  17
DOCKED: BRANCH  15  19
DOCKED: ATOM     19  O   UNL d   1      12.643  -2.645   9.740 -0.07 +0.04    -0.303 OA
DOCKED: ATOM     20  H   UNL d   1      12.521  -1.851  10.292 -0.49 -0.08    +0.222 HD
DOCKED: ENDBRANCH  15  19
DOCKED: ENDBRANCH  14  15
DOCKED: ENDBRANCH   2  14
DOCKED: BRANCH   6  21
DOCKED: ATOM     21  O   UNL d   1      17.611   1.524  10.979 -0.00 -0.03    -0.278 OA
DOCKED: BRANCH  21  22
DOCKED: ATOM     22  P   UNL d   1      18.533   1.257  12.253 +0.00 +0.04    +0.473 P 
DOCKED: ATOM     23  O   UNL d   1      17.889   0.726  13.490 -0.00 -0.02    -0.228 OA
DOCKED: BRANCH  22  24
DOCKED: ATOM     24  O   UNL d   1      19.672   0.328  11.642 +0.00 -0.02    -0.303 OA
DOCKED: ATOM     25  H   UNL d   1      19.344  -0.034  10.780 +0.00 +0.02    +0.222 HD
DOCKED: ENDBRANCH  22  24
DOCKED: BRANCH  22  26
DOCKED: ATOM     26  O   UNL d   1      19.295   2.659  12.404 +0.00 -0.03    -0.303 OA
DOCKED: ATOM     27  H   UNL d   1      19.639   2.743  13.317 +0.00 +0.02    +0.222 HD
DOCKED: ENDBRANCH  22  26
DOCKED: ENDBRANCH  21  22
DOCKED: ENDBRANCH   6  21
DOCKED: BRANCH   3  28
DOCKED: ATOM     28  O   UNL d   1      13.253  -1.702  11.960 -0.08 +0.01    -0.278 OA
DOCKED: BRANCH  28  29
DOCKED: ATOM     29  P   UNL d   1      12.402  -2.232  13.197 -0.04 +0.01    +0.473 P 
DOCKED: ATOM     30  O   UNL d   1      12.508  -3.688  13.471 -0.04 -0.01    -0.228 OA
DOCKED: BRANCH  29  31
DOCKED: ATOM     31  O   UNL d   1      12.923  -1.239  14.340 -0.01 -0.01    -0.303 OA
DOCKED: ATOM     32  H   UNL d   1      12.843  -0.313  14.011 +0.03 +0.01    +0.222 HD
DOCKED: ENDBRANCH  29  31
DOCKED: BRANCH  29  33
DOCKED: ATOM     33  O   UNL d   1      10.951  -1.664  12.872 -0.12 -0.00    -0.303 OA
DOCKED: ATOM     34  H   UNL d   1      11.013  -0.688  12.727 +0.06 -0.01    +0.222 HD
DOCKED: ENDBRANCH  29  33
DOCKED: ENDBRANCH  28  29
DOCKED: ENDBRANCH   3  28
DOCKED: BRANCH   5  35
DOCKED: ATOM     35  O   UNL d   1      14.868   2.525  10.959 -0.08 -0.05    -0.278 OA
DOCKED: BRANCH  35  36
DOCKED: ATOM     36  P   UNL d   1      14.636   2.485   9.381 -0.17 +0.08    +0.473 P 
DOCKED: ATOM     37  O   UNL d   1      13.727   3.539   8.836 -0.30 -0.05    -0.228 OA
DOCKED: BRANCH  36  38
DOCKED: ATOM     38  O   UNL d   1      16.129   2.558   8.831 -0.05 -0.05    -0.303 OA
DOCKED: ATOM     39  H   UNL d   1      16.598   1.728   9.064 +0.04 +0.03    +0.222 HD
DOCKED: ENDBRANCH  36  38
DOCKED: BRANCH  36  40
DOCKED: ATOM     40  O   UNL d   1      14.213   0.971   9.139 -0.15 -0.05    -0.303 OA
DOCKED: ATOM     41  H   UNL d   1      14.983   0.363   9.203 +0.06 +0.03    +0.222 HD
DOCKED: ENDBRANCH  36  40
DOCKED: ENDBRANCH  35  36
DOCKED: ENDBRANCH   5  35
DOCKED: BRANCH   4  42
DOCKED: ATOM     42  O   UNL d   1      13.383   0.999  12.948 -0.05 -0.02    -0.278 OA
DOCKED: BRANCH  42  43
DOCKED: ATOM     43  P   UNL d   1      11.896   1.523  12.710 -0.14 +0.04    +0.473 P 
DOCKED: ATOM     44  O   UNL d   1      11.719   2.968  12.394 -0.16 -0.06    -0.228 OA
DOCKED: BRANCH  43  45
DOCKED: ATOM     45  O   UNL d   1      11.356   0.540  11.581 -0.09 +0.03    -0.303 OA
DOCKED: ATOM     46  H   UNL d   1      11.903  -0.268  11.518 -0.31 -0.06    +0.222 HD
DOCKED: ENDBRANCH  43  45
DOCKED: BRANCH  43  47
DOCKED: ATOM     47  O   UNL d   1      11.110   0.996  14.003 -0.06 -0.02    -0.303 OA
DOCKED: ATOM     48  H   UNL d   1      11.252   0.032  14.097 +0.06 +0.01    +0.222 HD
DOCKED: ENDBRANCH  43  47
DOCKED: ENDBRANCH  42  43
DOCKED: ENDBRANCH   4  42
DOCKED: TORSDOF 24
DOCKED: TER
DOCKED: ENDMDL
________________________________________________________________________________


	BEGINNING GENETIC ALGORITHM DOCKING 90 of 100
Run: 90 Seed: 1640233065 1387275741 [ Run 90 of 100 GA/GALS ]
Beginning LAMARCKIAN GENETIC ALGORITHM (LGA), with a maximum of 25000000 energy evaluations.

Final-Value: -19.441


	FINAL GENETIC ALGORITHM DOCKED STATE
	_______________________________________________


Detailed state:  trans -17.926 8.615 -0.017 quatxyzw -0.206207 0.696678 0.684975 0.054113 center 0.035 0.082 -0.065 ntor 24 119.2970 92.1391 58.3780 50.6960 25.1700 -94.7072 -17.1380 -67.5439 96.6472 77.4012 160.5709 179.5102 177.6459 161.5602 -42.0430 89.6088 111.4817 32.3053 16.4434 -16.0506 174.1475 -22.5106 -12.3275 -6.5995
State:	-17.926   8.615  -0.017  -0.207  0.698  0.686 173.796    119.30   92.14   58.38   50.70   25.17  -94.71  -17.14  -67.54   96.65   77.40  160.57  179.51  177.65  161.56  -42.04   89.61  111.48   32.31   16.44  -16.05  174.15  -22.51  -12.33   -6.60

DOCKED: MODEL       90
DOCKED: USER    Run = 90
DOCKED: USER    DPF = D:/Protein_go_brrr/autodock/final/AncA/IHP/dock.dpf
DOCKED: USER  
DOCKED: USER    Estimated Free Energy of Binding    =   +3.12 kcal/mol  [=(1)+(2)+(3)-(4)]
DOCKED: USER    
DOCKED: USER    (1) Final Intermolecular Energy     =   -4.04 kcal/mol
DOCKED: USER        vdW + Hbond + desolv Energy     =   -3.95 kcal/mol
DOCKED: USER        Electrostatic Energy            =   -0.08 kcal/mol
DOCKED: USER    (2) Final Total Internal Energy     =  -15.40 kcal/mol
DOCKED: USER    (3) Torsional Free Energy           =   +7.16 kcal/mol
DOCKED: USER    (4) Unbound System's Energy  [=(2)] =  -15.40 kcal/mol
DOCKED: USER    
DOCKED: USER    
DOCKED: USER    NEWDPF move IHP_ideal_opt.pdbqt
DOCKED: USER    NEWDPF about 0.035000 0.082000 -0.065000
DOCKED: USER    NEWDPF tran0 -17.926182 8.615404 -0.016712
DOCKED: USER    NEWDPF quaternion0 -0.206207 0.696678 0.684975 0.054113
DOCKED: USER    NEWDPF axisangle0 -0.206510 0.697700 0.685980 173.796056
DOCKED: USER    NEWDPF quat0 -0.206510 0.697700 0.685980 173.796056
DOCKED: USER    NEWDPF dihe0 119.30 92.14 58.38 50.70 25.17 -94.71 -17.14 -67.54 96.65 77.40 160.57 179.51 177.65 161.56 -42.04 89.61 111.48 32.31 16.44 -16.05 174.15 -22.51 -12.33 -6.60 
DOCKED: USER  keepresnum = 1 
DOCKED: USER  
DOCKED: REMARK  24 active torsions:
DOCKED: REMARK  status: ('A' for Active; 'I' for Inactive)
DOCKED: REMARK    1  A    between atoms: C_1  and  O_7 
DOCKED: REMARK    2  A    between atoms: C_2  and  O_12 
DOCKED: REMARK    3  A    between atoms: C_3  and  O_17 
DOCKED: REMARK    4  A    between atoms: C_4  and  O_22 
DOCKED: REMARK    5  A    between atoms: C_5  and  O_27 
DOCKED: REMARK    6  A    between atoms: C_6  and  O_32 
DOCKED: REMARK    7  A    between atoms: O_7  and  P_8 
DOCKED: REMARK    8  A    between atoms: P_8  and  O_10 
DOCKED: REMARK    9  A    between atoms: P_8  and  O_11 
DOCKED: REMARK   10  A    between atoms: O_12  and  P_13 
DOCKED: REMARK   11  A    between atoms: P_13  and  O_15 
DOCKED: REMARK   12  A    between atoms: P_13  and  O_16 
DOCKED: REMARK   13  A    between atoms: O_17  and  P_18 
DOCKED: REMARK   14  A    between atoms: P_18  and  O_20 
DOCKED: REMARK   15  A    between atoms: P_18  and  O_21 
DOCKED: REMARK   16  A    between atoms: O_22  and  P_23 
DOCKED: REMARK   17  A    between atoms: P_23  and  O_25 
DOCKED: REMARK   18  A    between atoms: P_23  and  O_26 
DOCKED: REMARK   19  A    between atoms: O_27  and  P_28 
DOCKED: REMARK   20  A    between atoms: P_28  and  O_30 
DOCKED: REMARK   21  A    between atoms: P_28  and  O_31 
DOCKED: REMARK   22  A    between atoms: O_32  and  P_33 
DOCKED: REMARK   23  A    between atoms: P_33  and  O_35 
DOCKED: REMARK   24  A    between atoms: P_33  and  O_36 
DOCKED: USER                              x       y       z     vdW  Elec       q    Type
DOCKED: USER                           _______ _______ _______ _____ _____    ______ ____
DOCKED: ROOT
DOCKED: ATOM      1  C   UNL d   1     -19.159   8.921  -1.188 -0.08 +0.01    +0.194 C 
DOCKED: ATOM      2  C   UNL d   1     -17.721   9.047  -1.694 -0.13 -0.01    +0.194 C 
DOCKED: ATOM      3  C   UNL d   1     -16.831   9.787  -0.694 -0.14 -0.01    +0.194 C 
DOCKED: ATOM      4  C   UNL d   1     -16.898   9.205   0.716 -0.21 -0.01    +0.194 C 
DOCKED: ATOM      5  C   UNL d   1     -18.314   8.956   1.218 -0.12 +0.00    +0.194 C 
DOCKED: ATOM      6  C   UNL d   1     -19.222   8.270   0.195 -0.11 +0.01    +0.194 C 
DOCKED: ENDROOT
DOCKED: BRANCH   1   7
DOCKED: ATOM      7  O   UNL d   1     -19.877   8.075  -2.089 -0.06 -0.02    -0.278 OA
DOCKED: BRANCH   7   8
DOCKED: ATOM      8  P   UNL d   1     -20.932   8.747  -3.083 -0.00 +0.03    +0.473 P 
DOCKED: ATOM      9  O   UNL d   1     -22.272   8.101  -3.112 -0.01 -0.02    -0.228 OA
DOCKED: BRANCH   8  10
DOCKED: ATOM     10  O   UNL d   1     -20.980  10.273  -2.622 -0.00 -0.02    -0.303 OA
DOCKED: ATOM     11  H   UNL d   1     -20.930  10.322  -1.649 +0.01 +0.01    +0.222 HD
DOCKED: ENDBRANCH   8  10
DOCKED: BRANCH   8  12
DOCKED: ATOM     12  O   UNL d   1     -20.179   8.846  -4.479 -0.01 -0.01    -0.303 OA
DOCKED: ATOM     13  H   UNL d   1     -19.721   8.012  -4.730 +0.03 +0.01    +0.222 HD
DOCKED: ENDBRANCH   8  12
DOCKED: ENDBRANCH   7   8
DOCKED: ENDBRANCH   1   7
DOCKED: BRANCH   2  14
DOCKED: ATOM     14  O   UNL d   1     -17.182   7.735  -1.901 -0.20 +0.03    -0.278 OA
DOCKED: BRANCH  14  15
DOCKED: ATOM     15  P   UNL d   1     -16.810   7.343  -3.408 -0.19 -0.04    +0.473 P 
DOCKED: ATOM     16  O   UNL d   1     -17.073   5.929  -3.820 -0.24 +0.03    -0.228 OA
DOCKED: BRANCH  15  17
DOCKED: ATOM     17  O   UNL d   1     -17.607   8.402  -4.292 -0.06 +0.00    -0.303 OA
DOCKED: ATOM     18  H   UNL d   1     -18.482   8.597  -3.903 +0.05 +0.00    +0.222 HD
DOCKED: ENDBRANCH  15  17
DOCKED: BRANCH  15  19
DOCKED: ATOM     19  O   UNL d   1     -15.310   7.842  -3.588 -0.25 +0.05    -0.303 OA
DOCKED: ATOM     20  H   UNL d   1     -15.015   8.379  -2.830 -0.42 -0.09    +0.222 HD
DOCKED: ENDBRANCH  15  19
DOCKED: ENDBRANCH  14  15
DOCKED: ENDBRANCH   2  14
DOCKED: BRANCH   6  21
DOCKED: ATOM     21  O   UNL d   1     -20.559   8.418   0.666 -0.03 -0.03    -0.278 OA
DOCKED: BRANCH  21  22
DOCKED: ATOM     22  P   UNL d   1     -21.265   9.847   0.612 -0.00 +0.03    +0.473 P 
DOCKED: ATOM     23  O   UNL d   1     -20.418  11.040   0.320 -0.00 -0.01    -0.228 OA
DOCKED: BRANCH  22  24
DOCKED: ATOM     24  O   UNL d   1     -22.439   9.591  -0.432 -0.00 -0.02    -0.303 OA
DOCKED: ATOM     25  H   UNL d   1     -22.081   9.033  -1.168 +0.01 +0.02    +0.222 HD
DOCKED: ENDBRANCH  22  24
DOCKED: BRANCH  22  26
DOCKED: ATOM     26  O   UNL d   1     -22.059   9.872   2.004 -0.00 -0.02    -0.303 OA
DOCKED: ATOM     27  H   UNL d   1     -21.490  10.273   2.692 +0.00 +0.02    +0.222 HD
DOCKED: ENDBRANCH  22  26
DOCKED: ENDBRANCH  21  22
DOCKED: ENDBRANCH   6  21
DOCKED: BRANCH   3  28
DOCKED: ATOM     28  O   UNL d   1     -15.483   9.614  -1.110 -0.12 +0.06    -0.278 OA
DOCKED: BRANCH  28  29
DOCKED: ATOM     29  P   UNL d   1     -14.823  10.630  -2.144 -0.11 -0.03    +0.473 P 
DOCKED: ATOM     30  O   UNL d   1     -14.697  12.033  -1.672 -0.04 +0.00    -0.228 OA
DOCKED: BRANCH  29  31
DOCKED: ATOM     31  O   UNL d   1     -13.465   9.850  -2.474 -0.23 +0.03    -0.303 OA
DOCKED: ATOM     32  H   UNL d   1     -13.647   8.882  -2.458 -0.25 -0.06    +0.222 HD
DOCKED: ENDBRANCH  29  31
DOCKED: BRANCH  29  33
DOCKED: ATOM     33  O   UNL d   1     -15.695  10.387  -3.454 -0.06 +0.01    -0.303 OA
DOCKED: ATOM     34  H   UNL d   1     -16.284   9.606  -3.307 +0.06 -0.01    +0.222 HD
DOCKED: ENDBRANCH  29  33
DOCKED: ENDBRANCH  28  29
DOCKED: ENDBRANCH   3  28
DOCKED: BRANCH   5  35
DOCKED: ATOM     35  O   UNL d   1     -18.181   8.065   2.324 -0.14 +0.00    -0.278 OA
DOCKED: BRANCH  35  36
DOCKED: ATOM     36  P   UNL d   1     -18.655   8.514   3.780 -0.06 +0.03    +0.473 P 
DOCKED: ATOM     37  O   UNL d   1     -19.004   7.402   4.717 -0.07 -0.03    -0.228 OA
DOCKED: BRANCH  36  38
DOCKED: ATOM     38  O   UNL d   1     -17.430   9.413   4.258 -0.06 -0.01    -0.303 OA
DOCKED: ATOM     39  H   UNL d   1     -16.981   9.789   3.471 +0.05 +0.01    +0.222 HD
DOCKED: ENDBRANCH  36  38
DOCKED: BRANCH  36  40
DOCKED: ATOM     40  O   UNL d   1     -19.799   9.570   3.455 -0.01 -0.02    -0.303 OA
DOCKED: ATOM     41  H   UNL d   1     -20.315   9.313   2.658 +0.02 +0.02    +0.222 HD
DOCKED: ENDBRANCH  36  40
DOCKED: ENDBRANCH  35  36
DOCKED: ENDBRANCH   5  35
DOCKED: BRANCH   4  42
DOCKED: ATOM     42  O   UNL d   1     -16.305  10.171   1.592 -0.10 +0.00    -0.278 OA
DOCKED: BRANCH  42  43
DOCKED: ATOM     43  P   UNL d   1     -14.992   9.772   2.404 -0.18 -0.00    +0.473 P 
DOCKED: ATOM     44  O   UNL d   1     -13.698   9.784   1.666 -0.18 -0.00    -0.228 OA
DOCKED: BRANCH  43  45
DOCKED: ATOM     45  O   UNL d   1     -15.039  10.759   3.651 -0.05 -0.01    -0.303 OA
DOCKED: ATOM     46  H   UNL d   1     -15.560  10.382   4.387 +0.04 +0.01    +0.222 HD
DOCKED: ENDBRANCH  43  45
DOCKED: BRANCH  43  47
DOCKED: ATOM     47  O   UNL d   1     -15.389   8.374   3.080 -0.18 +0.03    -0.303 OA
DOCKED: ATOM     48  H   UNL d   1     -16.314   8.153   2.844 -0.12 -0.04    +0.222 HD
DOCKED: ENDBRANCH  43  47
DOCKED: ENDBRANCH  42  43
DOCKED: ENDBRANCH   4  42
DOCKED: TORSDOF 24
DOCKED: TER
DOCKED: ENDMDL
________________________________________________________________________________


	BEGINNING GENETIC ALGORITHM DOCKING 91 of 100
Run: 91 Seed: 1529623618 832299852 [ Run 91 of 100 GA/GALS ]
Beginning LAMARCKIAN GENETIC ALGORITHM (LGA), with a maximum of 25000000 energy evaluations.

Final-Value: -14.929


	FINAL GENETIC ALGORITHM DOCKED STATE
	_______________________________________________


Detailed state:  trans -11.109 3.459 12.320 quatxyzw 0.263506 0.361206 0.893568 0.040384 center 0.035 0.082 -0.065 ntor 24 -130.3484 149.7552 16.8207 32.2502 -32.0792 175.4458 -29.3759 97.1162 9.0125 177.5549 130.8556 -65.5046 70.4441 -179.9435 174.7515 -38.7934 -109.8596 -125.9268 60.6640 -6.3450 -175.7746 137.6894 137.2421 143.3688
State:	-11.109   3.459  12.320   0.264  0.362  0.894 175.371   -130.35  149.76   16.82   32.25  -32.08  175.45  -29.38   97.12    9.01  177.55  130.86  -65.50   70.44 -179.94  174.75  -38.79 -109.86 -125.93   60.66   -6.34 -175.77  137.69  137.24  143.37

DOCKED: MODEL       91
DOCKED: USER    Run = 91
DOCKED: USER    DPF = D:/Protein_go_brrr/autodock/final/AncA/IHP/dock.dpf
DOCKED: USER  
DOCKED: USER    Estimated Free Energy of Binding    =   +2.91 kcal/mol  [=(1)+(2)+(3)-(4)]
DOCKED: USER    
DOCKED: USER    (1) Final Intermolecular Energy     =   -4.25 kcal/mol
DOCKED: USER        vdW + Hbond + desolv Energy     =   -4.06 kcal/mol
DOCKED: USER        Electrostatic Energy            =   -0.19 kcal/mol
DOCKED: USER    (2) Final Total Internal Energy     =  -10.68 kcal/mol
DOCKED: USER    (3) Torsional Free Energy           =   +7.16 kcal/mol
DOCKED: USER    (4) Unbound System's Energy  [=(2)] =  -10.68 kcal/mol
DOCKED: USER    
DOCKED: USER    
DOCKED: USER    NEWDPF move IHP_ideal_opt.pdbqt
DOCKED: USER    NEWDPF about 0.035000 0.082000 -0.065000
DOCKED: USER    NEWDPF tran0 -11.109215 3.459231 12.320360
DOCKED: USER    NEWDPF quaternion0 0.263506 0.361206 0.893568 0.040384
DOCKED: USER    NEWDPF axisangle0 0.263721 0.361501 0.894298 175.371068
DOCKED: USER    NEWDPF quat0 0.263721 0.361501 0.894298 175.371068
DOCKED: USER    NEWDPF dihe0 -130.35 149.76 16.82 32.25 -32.08 175.45 -29.38 97.12 9.01 177.55 130.86 -65.50 70.44 -179.94 174.75 -38.79 -109.86 -125.93 60.66 -6.34 -175.77 137.69 137.24 143.37 
DOCKED: USER  keepresnum = 1 
DOCKED: USER  
DOCKED: REMARK  24 active torsions:
DOCKED: REMARK  status: ('A' for Active; 'I' for Inactive)
DOCKED: REMARK    1  A    between atoms: C_1  and  O_7 
DOCKED: REMARK    2  A    between atoms: C_2  and  O_12 
DOCKED: REMARK    3  A    between atoms: C_3  and  O_17 
DOCKED: REMARK    4  A    between atoms: C_4  and  O_22 
DOCKED: REMARK    5  A    between atoms: C_5  and  O_27 
DOCKED: REMARK    6  A    between atoms: C_6  and  O_32 
DOCKED: REMARK    7  A    between atoms: O_7  and  P_8 
DOCKED: REMARK    8  A    between atoms: P_8  and  O_10 
DOCKED: REMARK    9  A    between atoms: P_8  and  O_11 
DOCKED: REMARK   10  A    between atoms: O_12  and  P_13 
DOCKED: REMARK   11  A    between atoms: P_13  and  O_15 
DOCKED: REMARK   12  A    between atoms: P_13  and  O_16 
DOCKED: REMARK   13  A    between atoms: O_17  and  P_18 
DOCKED: REMARK   14  A    between atoms: P_18  and  O_20 
DOCKED: REMARK   15  A    between atoms: P_18  and  O_21 
DOCKED: REMARK   16  A    between atoms: O_22  and  P_23 
DOCKED: REMARK   17  A    between atoms: P_23  and  O_25 
DOCKED: REMARK   18  A    between atoms: P_23  and  O_26 
DOCKED: REMARK   19  A    between atoms: O_27  and  P_28 
DOCKED: REMARK   20  A    between atoms: P_28  and  O_30 
DOCKED: REMARK   21  A    between atoms: P_28  and  O_31 
DOCKED: REMARK   22  A    between atoms: O_32  and  P_33 
DOCKED: REMARK   23  A    between atoms: P_33  and  O_35 
DOCKED: REMARK   24  A    between atoms: P_33  and  O_36 
DOCKED: USER                              x       y       z     vdW  Elec       q    Type
DOCKED: USER                           _______ _______ _______ _____ _____    ______ ____
DOCKED: ROOT
DOCKED: ATOM      1  C   UNL d   1     -12.068   4.788  12.867 -0.01 +0.01    +0.194 C 
DOCKED: ATOM      2  C   UNL d   1     -11.371   4.986  11.520 -0.02 +0.02    +0.194 C 
DOCKED: ATOM      3  C   UNL d   1      -9.928   4.479  11.548 -0.05 +0.02    +0.194 C 
DOCKED: ATOM      4  C   UNL d   1      -9.805   3.044  12.056 -0.09 +0.02    +0.194 C 
DOCKED: ATOM      5  C   UNL d   1     -10.580   2.772  13.339 -0.05 +0.02    +0.194 C 
DOCKED: ATOM      6  C   UNL d   1     -12.003   3.333  13.335 -0.02 +0.01    +0.194 C 
DOCKED: ENDROOT
DOCKED: BRANCH   1   7
DOCKED: ATOM      7  O   UNL d   1     -13.448   5.124  12.709 -0.00 -0.02    -0.278 OA
DOCKED: BRANCH   7   8
DOCKED: ATOM      8  P   UNL d   1     -13.823   6.619  12.290 -0.00 +0.04    +0.473 P 
DOCKED: ATOM      9  O   UNL d   1     -14.612   6.743  11.034 -0.02 -0.02    -0.228 OA
DOCKED: BRANCH   8  10
DOCKED: ATOM     10  O   UNL d   1     -14.581   7.201  13.567 -0.00 -0.02    -0.303 OA
DOCKED: ATOM     11  H   UNL d   1     -13.940   7.350  14.287 +0.00 +0.01    +0.222 HD
DOCKED: ENDBRANCH   8  10
DOCKED: BRANCH   8  12
DOCKED: ATOM     12  O   UNL d   1     -12.449   7.415  12.327 -0.00 -0.02    -0.303 OA
DOCKED: ATOM     13  H   UNL d   1     -12.084   7.597  11.432 +0.01 +0.02    +0.222 HD
DOCKED: ENDBRANCH   8  12
DOCKED: ENDBRANCH   7   8
DOCKED: ENDBRANCH   1   7
DOCKED: BRANCH   2  14
DOCKED: ATOM     14  O   UNL d   1     -12.090   4.264  10.512 -0.04 -0.03    -0.278 OA
DOCKED: BRANCH  14  15
DOCKED: ATOM     15  P   UNL d   1     -12.570   5.102   9.235 -0.06 +0.06    +0.473 P 
DOCKED: ATOM     16  O   UNL d   1     -14.032   5.063   8.916 -0.07 -0.03    -0.228 OA
DOCKED: BRANCH  15  17
DOCKED: ATOM     17  O   UNL d   1     -12.040   6.578   9.519 -0.04 -0.05    -0.303 OA
DOCKED: ATOM     18  H   UNL d   1     -12.621   7.045  10.150 +0.03 +0.03    +0.222 HD
DOCKED: ENDBRANCH  15  17
DOCKED: BRANCH  15  19
DOCKED: ATOM     19  O   UNL d   1     -11.600   4.634   8.065 -0.24 -0.05    -0.303 OA
DOCKED: ATOM     20  H   UNL d   1     -10.737   4.337   8.409 +0.12 +0.04    +0.222 HD
DOCKED: ENDBRANCH  15  19
DOCKED: ENDBRANCH  14  15
DOCKED: ENDBRANCH   2  14
DOCKED: BRANCH   6  21
DOCKED: ATOM     21  O   UNL d   1     -12.461   3.307  14.684 -0.00 -0.02    -0.278 OA
DOCKED: BRANCH  21  22
DOCKED: ATOM     22  P   UNL d   1     -12.046   4.478  15.685 +0.00 +0.02    +0.473 P 
DOCKED: ATOM     23  O   UNL d   1     -12.031   4.184  17.147 +0.00 -0.01    -0.228 OA
DOCKED: BRANCH  22  24
DOCKED: ATOM     24  O   UNL d   1     -10.648   4.941  15.082 +0.00 -0.01    -0.303 OA
DOCKED: ATOM     25  H   UNL d   1      -9.928   4.505  15.604 +0.00 +0.01    +0.222 HD
DOCKED: ENDBRANCH  22  24
DOCKED: BRANCH  22  26
DOCKED: ATOM     26  O   UNL d   1     -13.018   5.665  15.217 +0.00 -0.01    -0.303 OA
DOCKED: ATOM     27  H   UNL d   1     -13.589   5.345  14.489 +0.00 +0.01    +0.222 HD
DOCKED: ENDBRANCH  22  26
DOCKED: ENDBRANCH  21  22
DOCKED: ENDBRANCH   6  21
DOCKED: BRANCH   3  28
DOCKED: ATOM     28  O   UNL d   1      -9.460   4.445  10.206 -0.12 -0.03    -0.278 OA
DOCKED: BRANCH  28  29
DOCKED: ATOM     29  P   UNL d   1      -9.165   3.052   9.492 -0.23 +0.07    +0.473 P 
DOCKED: ATOM     30  O   UNL d   1      -8.059   2.253  10.078 -0.25 -0.03    -0.228 OA
DOCKED: BRANCH  29  31
DOCKED: ATOM     31  O   UNL d   1     -10.628   2.405   9.529 -0.18 -0.07    -0.303 OA
DOCKED: ATOM     32  H   UNL d   1     -11.290   3.129   9.619 +0.11 +0.04    +0.222 HD
DOCKED: ENDBRANCH  29  31
DOCKED: BRANCH  29  33
DOCKED: ATOM     33  O   UNL d   1      -9.011   3.485   7.967 -0.37 -0.04    -0.303 OA
DOCKED: ATOM     34  H   UNL d   1      -8.466   2.809   7.495 -0.44 -0.01    +0.222 HD
DOCKED: ENDBRANCH  29  33
DOCKED: ENDBRANCH  28  29
DOCKED: ENDBRANCH   3  28
DOCKED: BRANCH   5  35
DOCKED: ATOM     35  O   UNL d   1     -10.689   1.353  13.432 -0.11 -0.04    -0.278 OA
DOCKED: BRANCH  35  36
DOCKED: ATOM     36  P   UNL d   1     -11.958   0.602  12.824 -0.15 +0.09    +0.473 P 
DOCKED: ATOM     37  O   UNL d   1     -13.265   0.905  13.487 -0.09 -0.02    -0.228 OA
DOCKED: BRANCH  36  38
DOCKED: ATOM     38  O   UNL d   1     -11.888   1.030  11.292 -0.73 -0.12    -0.303 OA
DOCKED: ATOM     39  H   UNL d   1     -11.965   2.006  11.227 +0.08 +0.05    +0.222 HD
DOCKED: ENDBRANCH  36  38
DOCKED: BRANCH  36  40
DOCKED: ATOM     40  O   UNL d   1     -11.486  -0.916  12.820 -0.56 -0.12    -0.303 OA
DOCKED: ATOM     41  H   UNL d   1     -12.190  -1.518  13.149 -0.21 +0.02    +0.222 HD
DOCKED: ENDBRANCH  36  40
DOCKED: ENDBRANCH  35  36
DOCKED: ENDBRANCH   5  35
DOCKED: BRANCH   4  42
DOCKED: ATOM     42  O   UNL d   1      -8.420   2.824  12.346 -0.09 -0.00    -0.278 OA
DOCKED: BRANCH  42  43
DOCKED: ATOM     43  P   UNL d   1      -7.536   4.048  12.862 -0.04 -0.06    +0.473 P 
DOCKED: ATOM     44  O   UNL d   1      -7.031   5.008  11.841 -0.17 +0.07    -0.228 OA
DOCKED: BRANCH  43  45
DOCKED: ATOM     45  O   UNL d   1      -8.467   4.708  13.971 -0.00 +0.01    -0.303 OA
DOCKED: ATOM     46  H   UNL d   1      -8.699   4.066  14.672 +0.02 -0.00    +0.222 HD
DOCKED: ENDBRANCH  43  45
DOCKED: BRANCH  43  47
DOCKED: ATOM     47  O   UNL d   1      -6.414   3.337  13.758 -0.05 +0.06    -0.303 OA
DOCKED: ATOM     48  H   UNL d   1      -5.540   3.450  13.330 +0.06 -0.10    +0.222 HD
DOCKED: ENDBRANCH  43  47
DOCKED: ENDBRANCH  42  43
DOCKED: ENDBRANCH   4  42
DOCKED: TORSDOF 24
DOCKED: TER
DOCKED: ENDMDL
________________________________________________________________________________


	BEGINNING GENETIC ALGORITHM DOCKING 92 of 100
Run: 92 Seed: 2093571051 1580256289 [ Run 92 of 100 GA/GALS ]
Beginning LAMARCKIAN GENETIC ALGORITHM (LGA), with a maximum of 25000000 energy evaluations.

Final-Value: -20.143


	FINAL GENETIC ALGORITHM DOCKED STATE
	_______________________________________________


Detailed state:  trans -14.758 7.042 -7.271 quatxyzw 0.153771 -0.844837 -0.393966 -0.327713 center 0.035 0.082 -0.065 ntor 24 130.4251 73.4594 67.3084 64.2964 166.9706 123.1047 -106.1450 -20.8768 32.8294 110.6859 25.3346 179.1135 -24.3920 129.6267 -149.2274 -164.2492 -25.9398 161.6836 -7.3763 -20.1989 7.8145 3.9276 -24.0843 -5.6945
State:	-14.758   7.042  -7.271   0.163 -0.894 -0.417 -141.740    130.43   73.46   67.31   64.30  166.97  123.10 -106.15  -20.88   32.83  110.69   25.33  179.11  -24.39  129.63 -149.23 -164.25  -25.94  161.68   -7.38  -20.20    7.81    3.93  -24.08   -5.69

DOCKED: MODEL       92
DOCKED: USER    Run = 92
DOCKED: USER    DPF = D:/Protein_go_brrr/autodock/final/AncA/IHP/dock.dpf
DOCKED: USER  
DOCKED: USER    Estimated Free Energy of Binding    =   +1.89 kcal/mol  [=(1)+(2)+(3)-(4)]
DOCKED: USER    
DOCKED: USER    (1) Final Intermolecular Energy     =   -5.27 kcal/mol
DOCKED: USER        vdW + Hbond + desolv Energy     =   -5.18 kcal/mol
DOCKED: USER        Electrostatic Energy            =   -0.09 kcal/mol
DOCKED: USER    (2) Final Total Internal Energy     =  -14.87 kcal/mol
DOCKED: USER    (3) Torsional Free Energy           =   +7.16 kcal/mol
DOCKED: USER    (4) Unbound System's Energy  [=(2)] =  -14.87 kcal/mol
DOCKED: USER    
DOCKED: USER    
DOCKED: USER    NEWDPF move IHP_ideal_opt.pdbqt
DOCKED: USER    NEWDPF about 0.035000 0.082000 -0.065000
DOCKED: USER    NEWDPF tran0 -14.758412 7.042211 -7.270533
DOCKED: USER    NEWDPF quaternion0 0.153771 -0.844837 -0.393966 -0.327713
DOCKED: USER    NEWDPF axisangle0 0.162759 -0.894218 -0.416994 -141.739926
DOCKED: USER    NEWDPF quat0 0.162759 -0.894218 -0.416994 -141.739926
DOCKED: USER    NEWDPF dihe0 130.43 73.46 67.31 64.30 166.97 123.10 -106.15 -20.88 32.83 110.69 25.33 179.11 -24.39 129.63 -149.23 -164.25 -25.94 161.68 -7.38 -20.20 7.81 3.93 -24.08 -5.69 
DOCKED: USER  keepresnum = 1 
DOCKED: USER  
DOCKED: REMARK  24 active torsions:
DOCKED: REMARK  status: ('A' for Active; 'I' for Inactive)
DOCKED: REMARK    1  A    between atoms: C_1  and  O_7 
DOCKED: REMARK    2  A    between atoms: C_2  and  O_12 
DOCKED: REMARK    3  A    between atoms: C_3  and  O_17 
DOCKED: REMARK    4  A    between atoms: C_4  and  O_22 
DOCKED: REMARK    5  A    between atoms: C_5  and  O_27 
DOCKED: REMARK    6  A    between atoms: C_6  and  O_32 
DOCKED: REMARK    7  A    between atoms: O_7  and  P_8 
DOCKED: REMARK    8  A    between atoms: P_8  and  O_10 
DOCKED: REMARK    9  A    between atoms: P_8  and  O_11 
DOCKED: REMARK   10  A    between atoms: O_12  and  P_13 
DOCKED: REMARK   11  A    between atoms: P_13  and  O_15 
DOCKED: REMARK   12  A    between atoms: P_13  and  O_16 
DOCKED: REMARK   13  A    between atoms: O_17  and  P_18 
DOCKED: REMARK   14  A    between atoms: P_18  and  O_20 
DOCKED: REMARK   15  A    between atoms: P_18  and  O_21 
DOCKED: REMARK   16  A    between atoms: O_22  and  P_23 
DOCKED: REMARK   17  A    between atoms: P_23  and  O_25 
DOCKED: REMARK   18  A    between atoms: P_23  and  O_26 
DOCKED: REMARK   19  A    between atoms: O_27  and  P_28 
DOCKED: REMARK   20  A    between atoms: P_28  and  O_30 
DOCKED: REMARK   21  A    between atoms: P_28  and  O_31 
DOCKED: REMARK   22  A    between atoms: O_32  and  P_33 
DOCKED: REMARK   23  A    between atoms: P_33  and  O_35 
DOCKED: REMARK   24  A    between atoms: P_33  and  O_36 
DOCKED: USER                              x       y       z     vdW  Elec       q    Type
DOCKED: USER                           _______ _______ _______ _____ _____    ______ ____
DOCKED: ROOT
DOCKED: ATOM      1  C   UNL d   1     -16.215   6.270  -7.785 -0.14 +0.01    +0.194 C 
DOCKED: ATOM      2  C   UNL d   1     -15.044   6.191  -8.766 -0.14 +0.01    +0.194 C 
DOCKED: ATOM      3  C   UNL d   1     -14.311   7.529  -8.881 -0.09 +0.01    +0.194 C 
DOCKED: ATOM      4  C   UNL d   1     -13.895   8.106  -7.530 -0.14 +0.01    +0.194 C 
DOCKED: ATOM      5  C   UNL d   1     -15.002   8.097  -6.484 -0.15 +0.01    +0.194 C 
DOCKED: ATOM      6  C   UNL d   1     -15.776   6.779  -6.411 -0.20 +0.00    +0.194 C 
DOCKED: ENDROOT
DOCKED: BRANCH   1   7
DOCKED: ATOM      7  O   UNL d   1     -16.735   4.950  -7.604 -0.10 -0.02    -0.278 OA
DOCKED: BRANCH   7   8
DOCKED: ATOM      8  P   UNL d   1     -18.309   4.725  -7.759 -0.09 +0.04    +0.473 P 
DOCKED: ATOM      9  O   UNL d   1     -18.998   5.691  -8.658 -0.03 -0.01    -0.228 OA
DOCKED: BRANCH   8  10
DOCKED: ATOM     10  O   UNL d   1     -18.437   3.212  -8.247 -0.10 -0.05    -0.303 OA
DOCKED: ATOM     11  H   UNL d   1     -17.630   2.954  -8.730 +0.04 +0.04    +0.222 HD
DOCKED: ENDBRANCH   8  10
DOCKED: BRANCH   8  12
DOCKED: ATOM     12  O   UNL d   1     -18.863   4.644  -6.273 -0.17 -0.02    -0.303 OA
DOCKED: ATOM     13  H   UNL d   1     -18.320   5.154  -5.630 -0.03 -0.01    +0.222 HD
DOCKED: ENDBRANCH   8  12
DOCKED: ENDBRANCH   7   8
DOCKED: ENDBRANCH   1   7
DOCKED: BRANCH   2  14
DOCKED: ATOM     14  O   UNL d   1     -14.116   5.200  -8.307 -0.19 -0.03    -0.278 OA
DOCKED: BRANCH  14  15
DOCKED: ATOM     15  P   UNL d   1     -13.995   3.870  -9.189 -0.10 +0.04    +0.473 P 
DOCKED: ATOM     16  O   UNL d   1     -13.116   2.784  -8.651 -0.73 -0.03    -0.228 OA
DOCKED: BRANCH  15  17
DOCKED: ATOM     17  O   UNL d   1     -15.504   3.400  -9.391 -0.13 -0.03    -0.303 OA
DOCKED: ATOM     18  H   UNL d   1     -16.064   3.685  -8.644 +0.06 +0.03    +0.222 HD
DOCKED: ENDBRANCH  15  17
DOCKED: BRANCH  15  19
DOCKED: ATOM     19  O   UNL d   1     -13.625   4.392 -10.645 -0.10 +0.02    -0.303 OA
DOCKED: ATOM     20  H   UNL d   1     -13.488   5.357 -10.658 +0.05 -0.01    +0.222 HD
DOCKED: ENDBRANCH  15  19
DOCKED: ENDBRANCH  14  15
DOCKED: ENDBRANCH   2  14
DOCKED: BRANCH   6  21
DOCKED: ATOM     21  O   UNL d   1     -16.961   7.037  -5.662 -0.14 +0.01    -0.278 OA
DOCKED: BRANCH  21  22
DOCKED: ATOM     22  P   UNL d   1     -16.985   6.749  -4.093 -0.22 -0.03    +0.473 P 
DOCKED: ATOM     23  O   UNL d   1     -17.962   5.749  -3.574 -0.23 -0.00    -0.228 OA
DOCKED: BRANCH  22  24
DOCKED: ATOM     24  O   UNL d   1     -15.458   6.403  -3.803 -0.34 +0.03    -0.303 OA
DOCKED: ATOM     25  H   UNL d   1     -15.030   7.205  -3.409 -0.28 -0.05    +0.222 HD
DOCKED: ENDBRANCH  22  24
DOCKED: BRANCH  22  26
DOCKED: ATOM     26  O   UNL d   1     -17.108   8.230  -3.492 -0.13 +0.01    -0.303 OA
DOCKED: ATOM     27  H   UNL d   1     -16.418   8.798  -3.891 +0.07 -0.01    +0.222 HD
DOCKED: ENDBRANCH  22  26
DOCKED: ENDBRANCH  21  22
DOCKED: ENDBRANCH   6  21
DOCKED: BRANCH   3  28
DOCKED: ATOM     28  O   UNL d   1     -13.096   7.293  -9.581 -0.26 -0.03    -0.278 OA
DOCKED: BRANCH  28  29
DOCKED: ATOM     29  P   UNL d   1     -12.857   7.939 -11.017 -0.06 +0.02    +0.473 P 
DOCKED: ATOM     30  O   UNL d   1     -11.475   7.823 -11.549 -0.03 -0.01    -0.228 OA
DOCKED: BRANCH  29  31
DOCKED: ATOM     31  O   UNL d   1     -14.017   7.212 -11.846 -0.04 -0.00    -0.303 OA
DOCKED: ATOM     32  H   UNL d   1     -13.919   6.238 -11.736 +0.03 -0.00    +0.222 HD
DOCKED: ENDBRANCH  29  31
DOCKED: BRANCH  29  33
DOCKED: ATOM     33  O   UNL d   1     -13.433   9.410 -10.822 -0.01 -0.01    -0.303 OA
DOCKED: ATOM     34  H   UNL d   1     -13.196   9.730  -9.917 +0.02 +0.01    +0.222 HD
DOCKED: ENDBRANCH  29  33
DOCKED: ENDBRANCH  28  29
DOCKED: ENDBRANCH   3  28
DOCKED: BRANCH   5  35
DOCKED: ATOM     35  O   UNL d   1     -14.350   8.270  -5.228 -0.17 -0.00    -0.278 OA
DOCKED: BRANCH  35  36
DOCKED: ATOM     36  P   UNL d   1     -14.449   9.662  -4.455 -0.10 -0.02    +0.473 P 
DOCKED: ATOM     37  O   UNL d   1     -15.565  10.561  -4.885 -0.04 +0.00    -0.228 OA
DOCKED: BRANCH  36  38
DOCKED: ATOM     38  O   UNL d   1     -14.539   9.187  -2.937 -0.18 +0.06    -0.303 OA
DOCKED: ATOM     39  H   UNL d   1     -15.079   8.368  -2.889 -0.40 -0.08    +0.222 HD
DOCKED: ENDBRANCH  36  38
DOCKED: BRANCH  36  40
DOCKED: ATOM     40  O   UNL d   1     -12.970  10.232  -4.590 -0.11 +0.02    -0.303 OA
DOCKED: ATOM     41  H   UNL d   1     -12.761  10.485  -5.516 +0.05 -0.01    +0.222 HD
DOCKED: ENDBRANCH  36  40
DOCKED: ENDBRANCH  35  36
DOCKED: ENDBRANCH   5  35
DOCKED: BRANCH   4  42
DOCKED: ATOM     42  O   UNL d   1     -13.539   9.474  -7.754 -0.04 -0.01    -0.278 OA
DOCKED: BRANCH  42  43
DOCKED: ATOM     43  P   UNL d   1     -12.036   9.934  -7.480 -0.05 -0.00    +0.473 P 
DOCKED: ATOM     44  O   UNL d   1     -11.812  11.359  -7.108 -0.03 +0.00    -0.228 OA
DOCKED: BRANCH  43  45
DOCKED: ATOM     45  O   UNL d   1     -11.546   8.890  -6.384 -0.12 +0.02    -0.303 OA
DOCKED: ATOM     46  H   UNL d   1     -12.199   8.795  -5.663 +0.10 -0.01    +0.222 HD
DOCKED: ENDBRANCH  43  45
DOCKED: BRANCH  43  47
DOCKED: ATOM     47  O   UNL d   1     -11.254   9.429  -8.785 -0.05 -0.02    -0.303 OA
DOCKED: ATOM     48  H   UNL d   1     -11.880   8.957  -9.373 +0.05 +0.02    +0.222 HD
DOCKED: ENDBRANCH  43  47
DOCKED: ENDBRANCH  42  43
DOCKED: ENDBRANCH   4  42
DOCKED: TORSDOF 24
DOCKED: TER
DOCKED: ENDMDL
________________________________________________________________________________


	BEGINNING GENETIC ALGORITHM DOCKING 93 of 100
Run: 93 Seed: 1009445056 586838391 [ Run 93 of 100 GA/GALS ]
Beginning LAMARCKIAN GENETIC ALGORITHM (LGA), with a maximum of 25000000 energy evaluations.

Final-Value: -15.820


	FINAL GENETIC ALGORITHM DOCKED STATE
	_______________________________________________


Detailed state:  trans 3.813 -15.930 -4.084 quatxyzw 0.373603 0.319554 0.801577 0.340266 center 0.035 0.082 -0.065 ntor 24 -164.9952 -35.9362 69.7151 73.6461 -107.1175 -76.8371 -29.8620 2.2890 74.1479 75.0636 12.1930 -12.1721 -129.9070 126.9522 22.2901 160.7899 -85.7578 -82.8297 32.6470 -7.1330 152.8749 19.9288 -150.3684 -163.1365
State:	  3.813 -15.930  -4.084   0.397  0.340  0.852 140.214   -165.00  -35.94   69.72   73.65 -107.12  -76.84  -29.86    2.29   74.15   75.06   12.19  -12.17 -129.91  126.95   22.29  160.79  -85.76  -82.83   32.65   -7.13  152.87   19.93 -150.37 -163.14

DOCKED: MODEL       93
DOCKED: USER    Run = 93
DOCKED: USER    DPF = D:/Protein_go_brrr/autodock/final/AncA/IHP/dock.dpf
DOCKED: USER  
DOCKED: USER    Estimated Free Energy of Binding    =   +3.27 kcal/mol  [=(1)+(2)+(3)-(4)]
DOCKED: USER    
DOCKED: USER    (1) Final Intermolecular Energy     =   -3.89 kcal/mol
DOCKED: USER        vdW + Hbond + desolv Energy     =   -3.60 kcal/mol
DOCKED: USER        Electrostatic Energy            =   -0.29 kcal/mol
DOCKED: USER    (2) Final Total Internal Energy     =  -11.93 kcal/mol
DOCKED: USER    (3) Torsional Free Energy           =   +7.16 kcal/mol
DOCKED: USER    (4) Unbound System's Energy  [=(2)] =  -11.93 kcal/mol
DOCKED: USER    
DOCKED: USER    
DOCKED: USER    NEWDPF move IHP_ideal_opt.pdbqt
DOCKED: USER    NEWDPF about 0.035000 0.082000 -0.065000
DOCKED: USER    NEWDPF tran0 3.813380 -15.929864 -4.083540
DOCKED: USER    NEWDPF quaternion0 0.373603 0.319554 0.801577 0.340266
DOCKED: USER    NEWDPF axisangle0 0.397311 0.339832 0.852443 140.213887
DOCKED: USER    NEWDPF quat0 0.397311 0.339832 0.852443 140.213887
DOCKED: USER    NEWDPF dihe0 -165.00 -35.94 69.72 73.65 -107.12 -76.84 -29.86 2.29 74.15 75.06 12.19 -12.17 -129.91 126.95 22.29 160.79 -85.76 -82.83 32.65 -7.13 152.87 19.93 -150.37 -163.14 
DOCKED: USER  keepresnum = 1 
DOCKED: USER  
DOCKED: REMARK  24 active torsions:
DOCKED: REMARK  status: ('A' for Active; 'I' for Inactive)
DOCKED: REMARK    1  A    between atoms: C_1  and  O_7 
DOCKED: REMARK    2  A    between atoms: C_2  and  O_12 
DOCKED: REMARK    3  A    between atoms: C_3  and  O_17 
DOCKED: REMARK    4  A    between atoms: C_4  and  O_22 
DOCKED: REMARK    5  A    between atoms: C_5  and  O_27 
DOCKED: REMARK    6  A    between atoms: C_6  and  O_32 
DOCKED: REMARK    7  A    between atoms: O_7  and  P_8 
DOCKED: REMARK    8  A    between atoms: P_8  and  O_10 
DOCKED: REMARK    9  A    between atoms: P_8  and  O_11 
DOCKED: REMARK   10  A    between atoms: O_12  and  P_13 
DOCKED: REMARK   11  A    between atoms: P_13  and  O_15 
DOCKED: REMARK   12  A    between atoms: P_13  and  O_16 
DOCKED: REMARK   13  A    between atoms: O_17  and  P_18 
DOCKED: REMARK   14  A    between atoms: P_18  and  O_20 
DOCKED: REMARK   15  A    between atoms: P_18  and  O_21 
DOCKED: REMARK   16  A    between atoms: O_22  and  P_23 
DOCKED: REMARK   17  A    between atoms: P_23  and  O_25 
DOCKED: REMARK   18  A    between atoms: P_23  and  O_26 
DOCKED: REMARK   19  A    between atoms: O_27  and  P_28 
DOCKED: REMARK   20  A    between atoms: P_28  and  O_30 
DOCKED: REMARK   21  A    between atoms: P_28  and  O_31 
DOCKED: REMARK   22  A    between atoms: O_32  and  P_33 
DOCKED: REMARK   23  A    between atoms: P_33  and  O_35 
DOCKED: REMARK   24  A    between atoms: P_33  and  O_36 
DOCKED: USER                              x       y       z     vdW  Elec       q    Type
DOCKED: USER                           _______ _______ _______ _____ _____    ______ ____
DOCKED: ROOT
DOCKED: ATOM      1  C   UNL d   1       2.806 -15.207  -2.881 -0.03 +0.08    +0.194 C 
DOCKED: ATOM      2  C   UNL d   1       2.645 -14.653  -4.298 -0.09 +0.08    +0.194 C 
DOCKED: ATOM      3  C   UNL d   1       3.998 -14.452  -4.984 -0.12 +0.07    +0.194 C 
DOCKED: ATOM      4  C   UNL d   1       4.882 -15.696  -4.947 -0.08 +0.09    +0.194 C 
DOCKED: ATOM      5  C   UNL d   1       4.978 -16.348  -3.574 -0.02 +0.08    +0.194 C 
DOCKED: ATOM      6  C   UNL d   1       3.632 -16.493  -2.862 -0.01 +0.08    +0.194 C 
DOCKED: ENDROOT
DOCKED: BRANCH   1   7
DOCKED: ATOM      7  O   UNL d   1       1.507 -15.527  -2.377 -0.01 -0.14    -0.278 OA
DOCKED: BRANCH   7   8
DOCKED: ATOM      8  P   UNL d   1       0.697 -14.397  -1.591 -0.01 +0.27    +0.473 P 
DOCKED: ATOM      9  O   UNL d   1       1.125 -14.179  -0.182 -0.05 -0.11    -0.228 OA
DOCKED: BRANCH   8  10
DOCKED: ATOM     10  O   UNL d   1       0.859 -13.099  -2.504 -0.08 -0.15    -0.303 OA
DOCKED: ATOM     11  H   UNL d   1       0.833 -13.356  -3.445 +0.08 +0.12    +0.222 HD
DOCKED: ENDBRANCH   8  10
DOCKED: BRANCH   8  12
DOCKED: ATOM     12  O   UNL d   1      -0.834 -14.763  -1.802 -0.06 -0.29    -0.303 OA
DOCKED: ATOM     13  H   UNL d   1      -1.187 -14.461  -2.670 +0.06 +0.26    +0.222 HD
DOCKED: ENDBRANCH   8  12
DOCKED: ENDBRANCH   7   8
DOCKED: ENDBRANCH   1   7
DOCKED: BRANCH   2  14
DOCKED: ATOM     14  O   UNL d   1       1.872 -15.576  -5.075 -0.09 -0.15    -0.278 OA
DOCKED: BRANCH  14  15
DOCKED: ATOM     15  P   UNL d   1       0.556 -14.994  -5.777 -0.20 +0.28    +0.473 P 
DOCKED: ATOM     16  O   UNL d   1      -0.284 -15.968  -6.543 -0.24 -0.15    -0.228 OA
DOCKED: BRANCH  15  17
DOCKED: ATOM     17  O   UNL d   1      -0.240 -14.294  -4.588 -0.16 -0.23    -0.303 OA
DOCKED: ATOM     18  H   UNL d   1      -0.016 -14.699  -3.728 +0.07 +0.17    +0.222 HD
DOCKED: ENDBRANCH  15  17
DOCKED: BRANCH  15  19
DOCKED: ATOM     19  O   UNL d   1       1.070 -13.735  -6.602 -0.15 -0.14    -0.303 OA
DOCKED: ATOM     20  H   UNL d   1       2.042 -13.729  -6.682 +0.10 +0.10    +0.222 HD
DOCKED: ENDBRANCH  15  19
DOCKED: ENDBRANCH  14  15
DOCKED: ENDBRANCH   2  14
DOCKED: BRANCH   6  21
DOCKED: ATOM     21  O   UNL d   1       3.918 -16.786  -1.496 +0.00 -0.09    -0.278 OA
DOCKED: BRANCH  21  22
DOCKED: ATOM     22  P   UNL d   1       4.945 -15.871  -0.688 +0.01 +0.12    +0.473 P 
DOCKED: ATOM     23  O   UNL d   1       4.723 -14.396  -0.686 -0.01 -0.05    -0.228 OA
DOCKED: BRANCH  22  24
DOCKED: ATOM     24  O   UNL d   1       4.924 -16.551   0.751 +0.00 -0.08    -0.303 OA
DOCKED: ATOM     25  H   UNL d   1       5.454 -15.984   1.367 +0.00 +0.05    +0.222 HD
DOCKED: ENDBRANCH  22  24
DOCKED: BRANCH  22  26
DOCKED: ATOM     26  O   UNL d   1       6.353 -16.370  -1.270 +0.00 -0.06    -0.303 OA
DOCKED: ATOM     27  H   UNL d   1       6.734 -15.668  -1.836 +0.02 +0.04    +0.222 HD
DOCKED: ENDBRANCH  22  26
DOCKED: ENDBRANCH  21  22
DOCKED: ENDBRANCH   6  21
DOCKED: BRANCH   3  28
DOCKED: ATOM     28  O   UNL d   1       3.747 -14.208  -6.363 -0.22 -0.12    -0.278 OA
DOCKED: BRANCH  28  29
DOCKED: ATOM     29  P   UNL d   1       4.427 -12.970  -7.098 -0.27 +0.11    +0.473 P 
DOCKED: ATOM     30  O   UNL d   1       5.014 -13.260  -8.431 -0.77 -0.08    -0.228 OA
DOCKED: BRANCH  29  31
DOCKED: ATOM     31  O   UNL d   1       3.222 -11.918  -7.048 -0.43 -0.10    -0.303 OA
DOCKED: ATOM     32  H   UNL d   1       2.608 -12.178  -6.322 +0.12 +0.08    +0.222 HD
DOCKED: ENDBRANCH  29  31
DOCKED: BRANCH  29  33
DOCKED: ATOM     33  O   UNL d   1       5.419 -12.421  -5.979 -0.12 +0.02    -0.303 OA
DOCKED: ATOM     34  H   UNL d   1       6.075 -13.127  -5.757 +0.05 +0.01    +0.222 HD
DOCKED: ENDBRANCH  29  33
DOCKED: ENDBRANCH  28  29
DOCKED: ENDBRANCH   3  28
DOCKED: BRANCH   5  35
DOCKED: ATOM     35  O   UNL d   1       5.475 -17.665  -3.805 -0.01 -0.14    -0.278 OA
DOCKED: BRANCH  35  36
DOCKED: ATOM     36  P   UNL d   1       5.361 -18.325  -5.253 -0.05 +0.48    +0.473 P 
DOCKED: ATOM     37  O   UNL d   1       4.068 -18.093  -5.967 -0.12 -0.26    -0.228 OA
DOCKED: BRANCH  36  38
DOCKED: ATOM     38  O   UNL d   1       6.635 -17.716  -5.990 -0.50 -0.40    -0.303 OA
DOCKED: ATOM     39  H   UNL d   1       7.150 -17.179  -5.350 +0.02 +0.16    +0.222 HD
DOCKED: ENDBRANCH  36  38
DOCKED: BRANCH  36  40
DOCKED: ATOM     40  O   UNL d   1       5.769 -19.836  -4.970 -0.04 -0.26    -0.303 OA
DOCKED: ATOM     41  H   UNL d   1       5.479 -20.131  -4.078 +0.01 +0.13    +0.222 HD
DOCKED: ENDBRANCH  36  40
DOCKED: ENDBRANCH  35  36
DOCKED: ENDBRANCH   5  35
DOCKED: BRANCH   4  42
DOCKED: ATOM     42  O   UNL d   1       6.203 -15.276  -5.308 -0.05 -0.11    -0.278 OA
DOCKED: BRANCH  42  43
DOCKED: ATOM     43  P   UNL d   1       7.168 -14.708  -4.172 -0.02 +0.05    +0.473 P 
DOCKED: ATOM     44  O   UNL d   1       6.554 -13.873  -3.103 -0.08 -0.01    -0.228 OA
DOCKED: BRANCH  43  45
DOCKED: ATOM     45  O   UNL d   1       7.889 -16.023  -3.638 -0.00 -0.06    -0.303 OA
DOCKED: ATOM     46  H   UNL d   1       7.245 -16.659  -3.269 +0.02 +0.06    +0.222 HD
DOCKED: ENDBRANCH  43  45
DOCKED: BRANCH  43  47
DOCKED: ATOM     47  O   UNL d   1       8.344 -14.009  -5.008 -0.08 +0.03    -0.303 OA
DOCKED: ATOM     48  H   UNL d   1       8.878 -13.449  -4.406 +0.01 -0.11    +0.222 HD
DOCKED: ENDBRANCH  43  47
DOCKED: ENDBRANCH  42  43
DOCKED: ENDBRANCH   4  42
DOCKED: TORSDOF 24
DOCKED: TER
DOCKED: ENDMDL
________________________________________________________________________________


	BEGINNING GENETIC ALGORITHM DOCKING 94 of 100
Run: 94 Seed: 758901756 1621820773 [ Run 94 of 100 GA/GALS ]
Beginning LAMARCKIAN GENETIC ALGORITHM (LGA), with a maximum of 25000000 energy evaluations.

Final-Value: -18.974


	FINAL GENETIC ALGORITHM DOCKED STATE
	_______________________________________________


Detailed state:  trans -11.265 -15.187 0.925 quatxyzw -0.485911 0.339253 -0.722058 0.356972 center 0.035 0.082 -0.065 ntor 24 62.8622 -127.5239 26.6745 -119.6804 9.2077 -180.0000 63.6617 -57.2008 87.4896 108.6955 92.3017 -110.3696 168.2652 -98.4861 175.3421 -123.5735 113.5260 110.7161 -21.4395 -0.2616 -20.5182 5.9095 -2.6800 -1.1407
State:	-11.265 -15.187   0.925  -0.520  0.363 -0.773 138.171     62.86 -127.52   26.67 -119.68    9.21 -180.00   63.66  -57.20   87.49  108.70   92.30 -110.37  168.27  -98.49  175.34 -123.57  113.53  110.72  -21.44   -0.26  -20.52    5.91   -2.68   -1.14

DOCKED: MODEL       94
DOCKED: USER    Run = 94
DOCKED: USER    DPF = D:/Protein_go_brrr/autodock/final/AncA/IHP/dock.dpf
DOCKED: USER  
DOCKED: USER    Estimated Free Energy of Binding    =   +1.74 kcal/mol  [=(1)+(2)+(3)-(4)]
DOCKED: USER    
DOCKED: USER    (1) Final Intermolecular Energy     =   -5.42 kcal/mol
DOCKED: USER        vdW + Hbond + desolv Energy     =   -5.13 kcal/mol
DOCKED: USER        Electrostatic Energy            =   -0.29 kcal/mol
DOCKED: USER    (2) Final Total Internal Energy     =  -13.56 kcal/mol
DOCKED: USER    (3) Torsional Free Energy           =   +7.16 kcal/mol
DOCKED: USER    (4) Unbound System's Energy  [=(2)] =  -13.56 kcal/mol
DOCKED: USER    
DOCKED: USER    
DOCKED: USER    NEWDPF move IHP_ideal_opt.pdbqt
DOCKED: USER    NEWDPF about 0.035000 0.082000 -0.065000
DOCKED: USER    NEWDPF tran0 -11.265277 -15.186880 0.924875
DOCKED: USER    NEWDPF quaternion0 -0.485911 0.339253 -0.722058 0.356972
DOCKED: USER    NEWDPF axisangle0 -0.520184 0.363181 -0.772987 138.171236
DOCKED: USER    NEWDPF quat0 -0.520184 0.363181 -0.772987 138.171236
DOCKED: USER    NEWDPF dihe0 62.86 -127.52 26.67 -119.68 9.21 -180.00 63.66 -57.20 87.49 108.70 92.30 -110.37 168.27 -98.49 175.34 -123.57 113.53 110.72 -21.44 -0.26 -20.52 5.91 -2.68 -1.14 
DOCKED: USER  keepresnum = 1 
DOCKED: USER  
DOCKED: REMARK  24 active torsions:
DOCKED: REMARK  status: ('A' for Active; 'I' for Inactive)
DOCKED: REMARK    1  A    between atoms: C_1  and  O_7 
DOCKED: REMARK    2  A    between atoms: C_2  and  O_12 
DOCKED: REMARK    3  A    between atoms: C_3  and  O_17 
DOCKED: REMARK    4  A    between atoms: C_4  and  O_22 
DOCKED: REMARK    5  A    between atoms: C_5  and  O_27 
DOCKED: REMARK    6  A    between atoms: C_6  and  O_32 
DOCKED: REMARK    7  A    between atoms: O_7  and  P_8 
DOCKED: REMARK    8  A    between atoms: P_8  and  O_10 
DOCKED: REMARK    9  A    between atoms: P_8  and  O_11 
DOCKED: REMARK   10  A    between atoms: O_12  and  P_13 
DOCKED: REMARK   11  A    between atoms: P_13  and  O_15 
DOCKED: REMARK   12  A    between atoms: P_13  and  O_16 
DOCKED: REMARK   13  A    between atoms: O_17  and  P_18 
DOCKED: REMARK   14  A    between atoms: P_18  and  O_20 
DOCKED: REMARK   15  A    between atoms: P_18  and  O_21 
DOCKED: REMARK   16  A    between atoms: O_22  and  P_23 
DOCKED: REMARK   17  A    between atoms: P_23  and  O_25 
DOCKED: REMARK   18  A    between atoms: P_23  and  O_26 
DOCKED: REMARK   19  A    between atoms: O_27  and  P_28 
DOCKED: REMARK   20  A    between atoms: P_28  and  O_30 
DOCKED: REMARK   21  A    between atoms: P_28  and  O_31 
DOCKED: REMARK   22  A    between atoms: O_32  and  P_33 
DOCKED: REMARK   23  A    between atoms: P_33  and  O_35 
DOCKED: REMARK   24  A    between atoms: P_33  and  O_36 
DOCKED: USER                              x       y       z     vdW  Elec       q    Type
DOCKED: USER                           _______ _______ _______ _____ _____    ______ ____
DOCKED: ROOT
DOCKED: ATOM      1  C   UNL d   1     -10.493 -15.159   2.470 -0.11 +0.09    +0.194 C 
DOCKED: ATOM      2  C   UNL d   1      -9.643 -14.668   1.297 -0.11 +0.13    +0.194 C 
DOCKED: ATOM      3  C   UNL d   1      -9.798 -15.567   0.069 -0.05 +0.11    +0.194 C 
DOCKED: ATOM      4  C   UNL d   1     -11.254 -15.795  -0.329 -0.08 +0.07    +0.194 C 
DOCKED: ATOM      5  C   UNL d   1     -12.163 -16.175   0.832 -0.09 +0.06    +0.194 C 
DOCKED: ATOM      6  C   UNL d   1     -11.964 -15.315   2.082 -0.06 +0.06    +0.194 C 
DOCKED: ENDROOT
DOCKED: BRANCH   1   7
DOCKED: ATOM      7  O   UNL d   1     -10.428 -14.179   3.509 -0.15 -0.13    -0.278 OA
DOCKED: BRANCH   7   8
DOCKED: ATOM      8  P   UNL d   1     -10.416 -14.680   5.026 -0.10 +0.22    +0.473 P 
DOCKED: ATOM      9  O   UNL d   1     -11.226 -13.861   5.968 -0.64 -0.13    -0.228 OA
DOCKED: BRANCH   8  10
DOCKED: ATOM     10  O   UNL d   1     -10.902 -16.197   4.935 -0.03 -0.11    -0.303 OA
DOCKED: ATOM     11  H   UNL d   1     -11.864 -16.242   5.093 +0.05 +0.07    +0.222 HD
DOCKED: ENDBRANCH   8  10
DOCKED: BRANCH   8  12
DOCKED: ATOM     12  O   UNL d   1      -8.879 -14.845   5.394 -0.06 -0.18    -0.303 OA
DOCKED: ATOM     13  H   UNL d   1      -8.736 -15.261   6.274 +0.07 +0.11    +0.222 HD
DOCKED: ENDBRANCH   8  12
DOCKED: ENDBRANCH   7   8
DOCKED: ENDBRANCH   1   7
DOCKED: BRANCH   2  14
DOCKED: ATOM     14  O   UNL d   1     -10.053 -13.341   0.946 -0.65 -0.18    -0.278 OA
DOCKED: BRANCH  14  15
DOCKED: ATOM     15  P   UNL d   1      -8.890 -12.253   0.774 -0.13 +0.35    +0.473 P 
DOCKED: ATOM     16  O   UNL d   1      -7.802 -12.265   1.801 -0.88 -0.27    -0.228 OA
DOCKED: BRANCH  15  17
DOCKED: ATOM     17  O   UNL d   1      -8.347 -12.497  -0.704 -0.14 -0.23    -0.303 OA
DOCKED: ATOM     18  H   UNL d   1      -7.876 -13.350  -0.768 +0.08 +0.22    +0.222 HD
DOCKED: ENDBRANCH  15  17
DOCKED: BRANCH  15  19
DOCKED: ATOM     19  O   UNL d   1      -9.661 -10.872   0.606 -0.47 -0.13    -0.303 OA
DOCKED: ATOM     20  H   UNL d   1      -9.043 -10.127   0.483 +0.12 +0.07    +0.222 HD
DOCKED: ENDBRANCH  15  19
DOCKED: ENDBRANCH  14  15
DOCKED: ENDBRANCH   2  14
DOCKED: BRANCH   6  21
DOCKED: ATOM     21  O   UNL d   1     -12.611 -15.993   3.156 -0.09 -0.07    -0.278 OA
DOCKED: BRANCH  21  22
DOCKED: ATOM     22  P   UNL d   1     -13.752 -15.250   3.989 -0.18 +0.10    +0.473 P 
DOCKED: ATOM     23  O   UNL d   1     -14.000 -15.691   5.392 -0.18 -0.05    -0.228 OA
DOCKED: BRANCH  22  24
DOCKED: ATOM     24  O   UNL d   1     -13.328 -13.724   3.833 -0.32 -0.07    -0.303 OA
DOCKED: ATOM     25  H   UNL d   1     -12.401 -13.626   4.171 +0.09 +0.08    +0.222 HD
DOCKED: ENDBRANCH  22  24
DOCKED: BRANCH  22  26
DOCKED: ATOM     26  O   UNL d   1     -15.001 -15.350   2.989 -0.20 -0.04    -0.303 OA
DOCKED: ATOM     27  H   UNL d   1     -14.754 -15.902   2.219 +0.05 +0.04    +0.222 HD
DOCKED: ENDBRANCH  22  26
DOCKED: ENDBRANCH  21  22
DOCKED: ENDBRANCH   6  21
DOCKED: BRANCH   3  28
DOCKED: ATOM     28  O   UNL d   1      -9.206 -14.892  -1.034 -0.04 -0.19    -0.278 OA
DOCKED: BRANCH  28  29
DOCKED: ATOM     29  P   UNL d   1      -7.938 -15.514  -1.771 -0.05 +0.52    +0.473 P 
DOCKED: ATOM     30  O   UNL d   1      -6.998 -14.530  -2.367 -0.45 -0.45    -0.228 OA
DOCKED: BRANCH  29  31
DOCKED: ATOM     31  O   UNL d   1      -7.367 -16.449  -0.604 -0.04 -0.33    -0.303 OA
DOCKED: ATOM     32  H   UNL d   1      -7.433 -17.388  -0.893 +0.02 +0.20    +0.222 HD
DOCKED: ENDBRANCH  29  31
DOCKED: BRANCH  29  33
DOCKED: ATOM     33  O   UNL d   1      -8.609 -16.561  -2.764 -0.05 -0.24    -0.303 OA
DOCKED: ATOM     34  H   UNL d   1      -9.592 -16.510  -2.669 +0.04 +0.13    +0.222 HD
DOCKED: ENDBRANCH  29  33
DOCKED: ENDBRANCH  28  29
DOCKED: ENDBRANCH   3  28
DOCKED: BRANCH   5  35
DOCKED: ATOM     35  O   UNL d   1     -13.494 -15.947   0.373 -0.11 -0.06    -0.278 OA
DOCKED: BRANCH  35  36
DOCKED: ATOM     36  P   UNL d   1     -14.594 -17.097   0.491 -0.06 +0.09    +0.473 P 
DOCKED: ATOM     37  O   UNL d   1     -16.015 -16.632   0.478 -0.10 -0.04    -0.228 OA
DOCKED: BRANCH  36  38
DOCKED: ATOM     38  O   UNL d   1     -14.204 -18.046  -0.727 -0.01 -0.06    -0.303 OA
DOCKED: ATOM     39  H   UNL d   1     -13.289 -17.841  -1.014 +0.02 +0.05    +0.222 HD
DOCKED: ENDBRANCH  36  38
DOCKED: BRANCH  36  40
DOCKED: ATOM     40  O   UNL d   1     -14.108 -17.901   1.774 -0.02 -0.06    -0.303 OA
DOCKED: ATOM     41  H   UNL d   1     -14.190 -17.364   2.593 +0.04 +0.04    +0.222 HD
DOCKED: ENDBRANCH  36  40
DOCKED: ENDBRANCH  35  36
DOCKED: ENDBRANCH   5  35
DOCKED: BRANCH   4  42
DOCKED: ATOM     42  O   UNL d   1     -11.265 -16.892  -1.249 -0.02 -0.10    -0.278 OA
DOCKED: BRANCH  42  43
DOCKED: ATOM     43  P   UNL d   1     -11.656 -16.618  -2.771 -0.01 +0.15    +0.473 P 
DOCKED: ATOM     44  O   UNL d   1     -11.164 -17.586  -3.791 -0.02 -0.08    -0.228 OA
DOCKED: BRANCH  43  45
DOCKED: ATOM     45  O   UNL d   1     -13.241 -16.491  -2.707 -0.02 -0.07    -0.303 OA
DOCKED: ATOM     46  H   UNL d   1     -13.549 -16.302  -1.798 +0.03 +0.05    +0.222 HD
DOCKED: ENDBRANCH  43  45
DOCKED: BRANCH  43  47
DOCKED: ATOM     47  O   UNL d   1     -11.215 -15.093  -2.994 -0.06 -0.11    -0.303 OA
DOCKED: ATOM     48  H   UNL d   1     -10.238 -15.033  -2.967 +0.05 +0.11    +0.222 HD
DOCKED: ENDBRANCH  43  47
DOCKED: ENDBRANCH  42  43
DOCKED: ENDBRANCH   4  42
DOCKED: TORSDOF 24
DOCKED: TER
DOCKED: ENDMDL
________________________________________________________________________________


	BEGINNING GENETIC ALGORITHM DOCKING 95 of 100
Run: 95 Seed: 572005572 641205593 [ Run 95 of 100 GA/GALS ]
Beginning LAMARCKIAN GENETIC ALGORITHM (LGA), with a maximum of 25000000 energy evaluations.

Final-Value: -17.480


	FINAL GENETIC ALGORITHM DOCKED STATE
	_______________________________________________


Detailed state:  trans 14.760 13.768 6.752 quatxyzw -0.179076 -0.663580 0.121628 -0.716100 center 0.035 0.082 -0.065 ntor 24 85.8315 -29.7784 -168.7116 7.8039 26.6919 -150.6263 -57.3690 14.8891 -58.7266 106.9693 69.9634 179.7731 -159.4207 85.5202 -47.1731 48.3295 28.5932 -103.7541 9.8322 -41.3480 157.2774 -50.6540 36.2724 6.6634
State:	 14.760  13.768   6.752  -0.257 -0.951  0.174 -88.533     85.83  -29.78 -168.71    7.80   26.69 -150.63  -57.37   14.89  -58.73  106.97   69.96  179.77 -159.42   85.52  -47.17   48.33   28.59 -103.75    9.83  -41.35  157.28  -50.65   36.27    6.66

DOCKED: MODEL       95
DOCKED: USER    Run = 95
DOCKED: USER    DPF = D:/Protein_go_brrr/autodock/final/AncA/IHP/dock.dpf
DOCKED: USER  
DOCKED: USER    Estimated Free Energy of Binding    =   +2.01 kcal/mol  [=(1)+(2)+(3)-(4)]
DOCKED: USER    
DOCKED: USER    (1) Final Intermolecular Energy     =   -5.15 kcal/mol
DOCKED: USER        vdW + Hbond + desolv Energy     =   -4.52 kcal/mol
DOCKED: USER        Electrostatic Energy            =   -0.62 kcal/mol
DOCKED: USER    (2) Final Total Internal Energy     =  -12.33 kcal/mol
DOCKED: USER    (3) Torsional Free Energy           =   +7.16 kcal/mol
DOCKED: USER    (4) Unbound System's Energy  [=(2)] =  -12.33 kcal/mol
DOCKED: USER    
DOCKED: USER    
DOCKED: USER    NEWDPF move IHP_ideal_opt.pdbqt
DOCKED: USER    NEWDPF about 0.035000 0.082000 -0.065000
DOCKED: USER    NEWDPF tran0 14.759749 13.768002 6.751578
DOCKED: USER    NEWDPF quaternion0 -0.179076 -0.663580 0.121628 -0.716100
DOCKED: USER    NEWDPF axisangle0 -0.256557 -0.950692 0.174252 -88.533096
DOCKED: USER    NEWDPF quat0 -0.256557 -0.950692 0.174252 -88.533096
DOCKED: USER    NEWDPF dihe0 85.83 -29.78 -168.71 7.80 26.69 -150.63 -57.37 14.89 -58.73 106.97 69.96 179.77 -159.42 85.52 -47.17 48.33 28.59 -103.75 9.83 -41.35 157.28 -50.65 36.27 6.66 
DOCKED: USER  keepresnum = 1 
DOCKED: USER  
DOCKED: REMARK  24 active torsions:
DOCKED: REMARK  status: ('A' for Active; 'I' for Inactive)
DOCKED: REMARK    1  A    between atoms: C_1  and  O_7 
DOCKED: REMARK    2  A    between atoms: C_2  and  O_12 
DOCKED: REMARK    3  A    between atoms: C_3  and  O_17 
DOCKED: REMARK    4  A    between atoms: C_4  and  O_22 
DOCKED: REMARK    5  A    between atoms: C_5  and  O_27 
DOCKED: REMARK    6  A    between atoms: C_6  and  O_32 
DOCKED: REMARK    7  A    between atoms: O_7  and  P_8 
DOCKED: REMARK    8  A    between atoms: P_8  and  O_10 
DOCKED: REMARK    9  A    between atoms: P_8  and  O_11 
DOCKED: REMARK   10  A    between atoms: O_12  and  P_13 
DOCKED: REMARK   11  A    between atoms: P_13  and  O_15 
DOCKED: REMARK   12  A    between atoms: P_13  and  O_16 
DOCKED: REMARK   13  A    between atoms: O_17  and  P_18 
DOCKED: REMARK   14  A    between atoms: P_18  and  O_20 
DOCKED: REMARK   15  A    between atoms: P_18  and  O_21 
DOCKED: REMARK   16  A    between atoms: O_22  and  P_23 
DOCKED: REMARK   17  A    between atoms: P_23  and  O_25 
DOCKED: REMARK   18  A    between atoms: P_23  and  O_26 
DOCKED: REMARK   19  A    between atoms: O_27  and  P_28 
DOCKED: REMARK   20  A    between atoms: P_28  and  O_30 
DOCKED: REMARK   21  A    between atoms: P_28  and  O_31 
DOCKED: REMARK   22  A    between atoms: O_32  and  P_33 
DOCKED: REMARK   23  A    between atoms: P_33  and  O_35 
DOCKED: REMARK   24  A    between atoms: P_33  and  O_36 
DOCKED: USER                              x       y       z     vdW  Elec       q    Type
DOCKED: USER                           _______ _______ _______ _____ _____    ______ ____
DOCKED: ROOT
DOCKED: ATOM      1  C   UNL d   1      14.030  13.554   8.303 -0.14 -0.06    +0.194 C 
DOCKED: ATOM      2  C   UNL d   1      14.233  12.277   7.486 -0.15 -0.05    +0.194 C 
DOCKED: ATOM      3  C   UNL d   1      13.853  12.476   6.018 -0.18 -0.04    +0.194 C 
DOCKED: ATOM      4  C   UNL d   1      14.534  13.684   5.379 -0.09 -0.03    +0.194 C 
DOCKED: ATOM      5  C   UNL d   1      14.454  14.955   6.214 -0.07 -0.03    +0.194 C 
DOCKED: ATOM      6  C   UNL d   1      14.775  14.744   7.695 -0.05 -0.03    +0.194 C 
DOCKED: ENDROOT
DOCKED: BRANCH   1   7
DOCKED: ATOM      7  O   UNL d   1      14.566  13.339   9.610 -0.06 +0.09    -0.278 OA
DOCKED: BRANCH   7   8
DOCKED: ATOM      8  P   UNL d   1      13.555  13.289  10.846 -0.11 -0.23    +0.473 P 
DOCKED: ATOM      9  O   UNL d   1      13.600  14.473  11.747 -0.06 +0.05    -0.228 OA
DOCKED: BRANCH   8  10
DOCKED: ATOM     10  O   UNL d   1      12.127  13.069  10.169 -0.16 +0.27    -0.303 OA
DOCKED: ATOM     11  H   UNL d   1      11.848  13.889   9.721 -0.05 -0.16    +0.222 HD
DOCKED: ENDBRANCH   8  10
DOCKED: BRANCH   8  12
DOCKED: ATOM     12  O   UNL d   1      13.815  11.882  11.536 -0.07 +0.23    -0.303 OA
DOCKED: ATOM     13  H   UNL d   1      13.435  11.128  11.031 -0.43 -0.42    +0.222 HD
DOCKED: ENDBRANCH   8  12
DOCKED: ENDBRANCH   7   8
DOCKED: ENDBRANCH   1   7
DOCKED: BRANCH   2  14
DOCKED: ATOM     14  O   UNL d   1      15.613  11.895   7.553 -0.02 +0.04    -0.278 OA
DOCKED: BRANCH  14  15
DOCKED: ATOM     15  P   UNL d   1      16.027  10.912   8.748 -0.01 -0.05    +0.473 P 
DOCKED: ATOM     16  O   UNL d   1      17.025   9.845   8.424 -0.01 -0.01    -0.228 OA
DOCKED: BRANCH  15  17
DOCKED: ATOM     17  O   UNL d   1      16.523  11.893   9.902 -0.00 +0.03    -0.303 OA
DOCKED: ATOM     18  H   UNL d   1      15.804  12.082  10.535 +0.03 -0.05    +0.222 HD
DOCKED: ENDBRANCH  15  17
DOCKED: BRANCH  15  19
DOCKED: ATOM     19  O   UNL d   1      14.642  10.400   9.338 -0.07 +0.15    -0.303 OA
DOCKED: ATOM     20  H   UNL d   1      14.044  11.140   9.549 -0.48 -0.27    +0.222 HD
DOCKED: ENDBRANCH  15  19
DOCKED: ENDBRANCH  14  15
DOCKED: ENDBRANCH   2  14
DOCKED: BRANCH   6  21
DOCKED: ATOM     21  O   UNL d   1      14.331  15.911   8.383 -0.03 +0.04    -0.278 OA
DOCKED: BRANCH  21  22
DOCKED: ATOM     22  P   UNL d   1      12.818  16.394   8.229 -0.06 -0.11    +0.473 P 
DOCKED: ATOM     23  O   UNL d   1      12.019  15.856   7.090 -0.03 +0.08    -0.228 OA
DOCKED: BRANCH  22  24
DOCKED: ATOM     24  O   UNL d   1      12.225  16.074   9.671 -0.12 +0.08    -0.303 OA
DOCKED: ATOM     25  H   UNL d   1      12.603  15.209   9.974 +0.02 -0.07    +0.222 HD
DOCKED: ENDBRANCH  22  24
DOCKED: BRANCH  22  26
DOCKED: ATOM     26  O   UNL d   1      12.979  17.989   8.284 -0.02 +0.04    -0.303 OA
DOCKED: ATOM     27  H   UNL d   1      13.816  18.243   7.844 +0.02 -0.02    +0.222 HD
DOCKED: ENDBRANCH  22  26
DOCKED: ENDBRANCH  21  22
DOCKED: ENDBRANCH   6  21
DOCKED: BRANCH   3  28
DOCKED: ATOM     28  O   UNL d   1      14.330  11.348   5.295 -0.10 +0.02    -0.278 OA
DOCKED: BRANCH  28  29
DOCKED: ATOM     29  P   UNL d   1      13.819   9.884   5.660 -0.16 +0.02    +0.473 P 
DOCKED: ATOM     30  O   UNL d   1      12.516   9.819   6.370 -0.31 +0.02    -0.228 OA
DOCKED: BRANCH  29  31
DOCKED: ATOM     31  O   UNL d   1      13.895   9.194   4.218 -0.77 -0.11    -0.303 OA
DOCKED: ATOM     32  H   UNL d   1      14.133   9.881   3.553 +0.13 +0.03    +0.222 HD
DOCKED: ENDBRANCH  29  31
DOCKED: BRANCH  29  33
DOCKED: ATOM     33  O   UNL d   1      15.080   9.268   6.412 -0.08 -0.04    -0.303 OA
DOCKED: ATOM     34  H   UNL d   1      15.145   9.671   7.312 +0.07 +0.01    +0.222 HD
DOCKED: ENDBRANCH  29  33
DOCKED: ENDBRANCH  28  29
DOCKED: ENDBRANCH   3  28
DOCKED: BRANCH   5  35
DOCKED: ATOM     35  O   UNL d   1      15.453  15.827   5.688 -0.02 +0.04    -0.278 OA
DOCKED: BRANCH  35  36
DOCKED: ATOM     36  P   UNL d   1      15.470  17.369   6.095 -0.00 -0.05    +0.473 P 
DOCKED: ATOM     37  O   UNL d   1      15.924  17.663   7.489 -0.00 +0.02    -0.228 OA
DOCKED: BRANCH  36  38
DOCKED: ATOM     38  O   UNL d   1      16.394  17.995   4.960 -0.00 +0.03    -0.303 OA
DOCKED: ATOM     39  H   UNL d   1      17.099  18.533   5.380 +0.00 -0.02    +0.222 HD
DOCKED: ENDBRANCH  36  38
DOCKED: BRANCH  36  40
DOCKED: ATOM     40  O   UNL d   1      14.004  17.841   5.698 -0.03 +0.05    -0.303 OA
DOCKED: ATOM     41  H   UNL d   1      13.318  17.399   6.247 +0.04 -0.04    +0.222 HD
DOCKED: ENDBRANCH  36  40
DOCKED: ENDBRANCH  35  36
DOCKED: ENDBRANCH   5  35
DOCKED: BRANCH   4  42
DOCKED: ATOM     42  O   UNL d   1      13.847  13.944   4.149 -0.12 +0.07    -0.278 OA
DOCKED: BRANCH  42  43
DOCKED: ATOM     43  P   UNL d   1      14.542  13.529   2.775 -0.11 -0.12    +0.473 P 
DOCKED: ATOM     44  O   UNL d   1      15.881  14.112   2.479 -0.04 +0.04    -0.228 OA
DOCKED: BRANCH  43  45
DOCKED: ATOM     45  O   UNL d   1      14.526  11.939   2.842 -0.10 +0.03    -0.303 OA
DOCKED: ATOM     46  H   UNL d   1      14.158  11.620   3.691 +0.11 -0.02    +0.222 HD
DOCKED: ENDBRANCH  43  45
DOCKED: BRANCH  43  47
DOCKED: ATOM     47  O   UNL d   1      13.404  13.821   1.686 -0.28 +0.16    -0.303 OA
DOCKED: ATOM     48  H   UNL d   1      12.599  14.148   2.139 -0.34 -0.22    +0.222 HD
DOCKED: ENDBRANCH  43  47
DOCKED: ENDBRANCH  42  43
DOCKED: ENDBRANCH   4  42
DOCKED: TORSDOF 24
DOCKED: TER
DOCKED: ENDMDL
________________________________________________________________________________


	BEGINNING GENETIC ALGORITHM DOCKING 96 of 100
Run: 96 Seed: 2066688006 1050939998 [ Run 96 of 100 GA/GALS ]
Beginning LAMARCKIAN GENETIC ALGORITHM (LGA), with a maximum of 25000000 energy evaluations.

Final-Value: -17.281


	FINAL GENETIC ALGORITHM DOCKED STATE
	_______________________________________________


Detailed state:  trans -1.663 -12.173 14.930 quatxyzw 0.114644 -0.069651 0.876203 0.462898 center 0.035 0.082 -0.065 ntor 24 98.3269 88.5429 55.6470 0.3704 -1.0223 1.7863 -16.0408 -27.7078 154.9746 -82.4550 63.1080 129.3066 -16.5388 -145.7604 -66.3428 21.6222 157.6006 179.7364 52.5268 -20.8288 -145.9692 -38.0003 -177.8916 31.2430
State:	 -1.663 -12.173  14.930   0.129 -0.079  0.988 124.852     98.33   88.54   55.65    0.37   -1.02    1.79  -16.04  -27.71  154.97  -82.46   63.11  129.31  -16.54 -145.76  -66.34   21.62  157.60  179.74   52.53  -20.83 -145.97  -38.00 -177.89   31.24

DOCKED: MODEL       96
DOCKED: USER    Run = 96
DOCKED: USER    DPF = D:/Protein_go_brrr/autodock/final/AncA/IHP/dock.dpf
DOCKED: USER  
DOCKED: USER    Estimated Free Energy of Binding    =   +1.75 kcal/mol  [=(1)+(2)+(3)-(4)]
DOCKED: USER    
DOCKED: USER    (1) Final Intermolecular Energy     =   -5.41 kcal/mol
DOCKED: USER        vdW + Hbond + desolv Energy     =   -4.03 kcal/mol
DOCKED: USER        Electrostatic Energy            =   -1.38 kcal/mol
DOCKED: USER    (2) Final Total Internal Energy     =  -11.88 kcal/mol
DOCKED: USER    (3) Torsional Free Energy           =   +7.16 kcal/mol
DOCKED: USER    (4) Unbound System's Energy  [=(2)] =  -11.88 kcal/mol
DOCKED: USER    
DOCKED: USER    
DOCKED: USER    NEWDPF move IHP_ideal_opt.pdbqt
DOCKED: USER    NEWDPF about 0.035000 0.082000 -0.065000
DOCKED: USER    NEWDPF tran0 -1.662927 -12.173400 14.930101
DOCKED: USER    NEWDPF quaternion0 0.114644 -0.069651 0.876203 0.462898
DOCKED: USER    NEWDPF axisangle0 0.129335 -0.078577 0.988483 124.851526
DOCKED: USER    NEWDPF quat0 0.129335 -0.078577 0.988483 124.851526
DOCKED: USER    NEWDPF dihe0 98.33 88.54 55.65 0.37 -1.02 1.79 -16.04 -27.71 154.97 -82.46 63.11 129.31 -16.54 -145.76 -66.34 21.62 157.60 179.74 52.53 -20.83 -145.97 -38.00 -177.89 31.24 
DOCKED: USER  keepresnum = 1 
DOCKED: USER  
DOCKED: REMARK  24 active torsions:
DOCKED: REMARK  status: ('A' for Active; 'I' for Inactive)
DOCKED: REMARK    1  A    between atoms: C_1  and  O_7 
DOCKED: REMARK    2  A    between atoms: C_2  and  O_12 
DOCKED: REMARK    3  A    between atoms: C_3  and  O_17 
DOCKED: REMARK    4  A    between atoms: C_4  and  O_22 
DOCKED: REMARK    5  A    between atoms: C_5  and  O_27 
DOCKED: REMARK    6  A    between atoms: C_6  and  O_32 
DOCKED: REMARK    7  A    between atoms: O_7  and  P_8 
DOCKED: REMARK    8  A    between atoms: P_8  and  O_10 
DOCKED: REMARK    9  A    between atoms: P_8  and  O_11 
DOCKED: REMARK   10  A    between atoms: O_12  and  P_13 
DOCKED: REMARK   11  A    between atoms: P_13  and  O_15 
DOCKED: REMARK   12  A    between atoms: P_13  and  O_16 
DOCKED: REMARK   13  A    between atoms: O_17  and  P_18 
DOCKED: REMARK   14  A    between atoms: P_18  and  O_20 
DOCKED: REMARK   15  A    between atoms: P_18  and  O_21 
DOCKED: REMARK   16  A    between atoms: O_22  and  P_23 
DOCKED: REMARK   17  A    between atoms: P_23  and  O_25 
DOCKED: REMARK   18  A    between atoms: P_23  and  O_26 
DOCKED: REMARK   19  A    between atoms: O_27  and  P_28 
DOCKED: REMARK   20  A    between atoms: P_28  and  O_30 
DOCKED: REMARK   21  A    between atoms: P_28  and  O_31 
DOCKED: REMARK   22  A    between atoms: O_32  and  P_33 
DOCKED: REMARK   23  A    between atoms: P_33  and  O_35 
DOCKED: REMARK   24  A    between atoms: P_33  and  O_36 
DOCKED: USER                              x       y       z     vdW  Elec       q    Type
DOCKED: USER                           _______ _______ _______ _____ _____    ______ ____
DOCKED: ROOT
DOCKED: ATOM      1  C   UNL d   1      -2.842 -12.724  16.066 +0.00 -0.00    +0.194 C 
DOCKED: ATOM      2  C   UNL d   1      -2.899 -11.234  15.724 -0.03 -0.03    +0.194 C 
DOCKED: ATOM      3  C   UNL d   1      -1.503 -10.609  15.677 -0.04 -0.05    +0.194 C 
DOCKED: ATOM      4  C   UNL d   1      -0.533 -11.372  14.778 -0.05 -0.04    +0.194 C 
DOCKED: ATOM      5  C   UNL d   1      -0.527 -12.878  15.007 -0.00 +0.01    +0.194 C 
DOCKED: ATOM      6  C   UNL d   1      -1.924 -13.493  15.115 +0.00 +0.01    +0.194 C 
DOCKED: ENDROOT
DOCKED: BRANCH   1   7
DOCKED: ATOM      7  O   UNL d   1      -4.157 -13.265  15.920 -0.00 -0.01    -0.278 OA
DOCKED: BRANCH   7   8
DOCKED: ATOM      8  P   UNL d   1      -5.275 -12.839  16.979 +0.01 +0.03    +0.473 P 
DOCKED: ATOM      9  O   UNL d   1      -5.178 -11.438  17.469 -0.01 -0.02    -0.228 OA
DOCKED: BRANCH   8  10
DOCKED: ATOM     10  O   UNL d   1      -6.651 -13.150  16.233 -0.02 -0.03    -0.303 OA
DOCKED: ATOM     11  H   UNL d   1      -6.701 -12.631  15.409 +0.04 +0.02    +0.222 HD
DOCKED: ENDBRANCH   8  10
DOCKED: BRANCH   8  12
DOCKED: ATOM     12  O   UNL d   1      -5.239 -13.969  18.095 -0.00 -0.02    -0.303 OA
DOCKED: ATOM     13  H   UNL d   1      -4.326 -14.225  18.355 +0.00 +0.02    +0.222 HD
DOCKED: ENDBRANCH   8  12
DOCKED: ENDBRANCH   7   8
DOCKED: ENDBRANCH   1   7
DOCKED: BRANCH   2  14
DOCKED: ATOM     14  O   UNL d   1      -3.514 -11.073  14.439 -0.09 +0.11    -0.278 OA
DOCKED: BRANCH  14  15
DOCKED: ATOM     15  P   UNL d   1      -4.967 -10.401  14.420 -0.12 -0.08    +0.473 P 
DOCKED: ATOM     16  O   UNL d   1      -6.138 -11.328  14.523 -0.13 -0.01    -0.228 OA
DOCKED: BRANCH  15  17
DOCKED: ATOM     17  O   UNL d   1      -4.917  -9.336  15.604 -0.14 -0.06    -0.303 OA
DOCKED: ATOM     18  H   UNL d   1      -4.442  -9.693  16.379 +0.05 +0.03    +0.222 HD
DOCKED: ENDBRANCH  15  17
DOCKED: BRANCH  15  19
DOCKED: ATOM     19  O   UNL d   1      -4.951  -9.456  13.140 -0.14 +0.17    -0.303 OA
DOCKED: ATOM     20  H   UNL d   1      -4.247  -8.784  13.197 -0.33 -0.38    +0.222 HD
DOCKED: ENDBRANCH  15  19
DOCKED: ENDBRANCH  14  15
DOCKED: ENDBRANCH   2  14
DOCKED: BRANCH   6  21
DOCKED: ATOM     21  O   UNL d   1      -1.758 -14.800  15.660 +0.00 -0.03    -0.278 OA
DOCKED: BRANCH  21  22
DOCKED: ATOM     22  P   UNL d   1      -2.291 -15.119  17.129 +0.00 +0.04    +0.473 P 
DOCKED: ATOM     23  O   UNL d   1      -2.186 -14.051  18.165 +0.00 -0.01    -0.228 OA
DOCKED: BRANCH  22  24
DOCKED: ATOM     24  O   UNL d   1      -3.773 -15.620  16.836 +0.00 -0.03    -0.303 OA
DOCKED: ATOM     25  H   UNL d   1      -4.296 -14.851  16.493 +0.00 +0.02    +0.222 HD
DOCKED: ENDBRANCH  22  24
DOCKED: BRANCH  22  26
DOCKED: ATOM     26  O   UNL d   1      -1.536 -16.494  17.458 +0.00 -0.03    -0.303 OA
DOCKED: ATOM     27  H   UNL d   1      -1.882 -16.858  18.299 +0.00 +0.02    +0.222 HD
DOCKED: ENDBRANCH  22  26
DOCKED: ENDBRANCH  21  22
DOCKED: ENDBRANCH   6  21
DOCKED: BRANCH   3  28
DOCKED: ATOM     28  O   UNL d   1      -1.629  -9.321  15.089 -0.09 +0.22    -0.278 OA
DOCKED: BRANCH  28  29
DOCKED: ATOM     29  P   UNL d   1      -2.300  -8.127  15.903 -0.11 -0.13    +0.473 P 
DOCKED: ATOM     30  O   UNL d   1      -2.851  -8.490  17.234 -0.04 -0.02    -0.228 OA
DOCKED: BRANCH  29  31
DOCKED: ATOM     31  O   UNL d   1      -1.102  -7.066  15.878 -0.07 +0.28    -0.303 OA
DOCKED: ATOM     32  H   UNL d   1      -0.636  -7.139  15.014 -0.43 -0.35    +0.222 HD
DOCKED: ENDBRANCH  29  31
DOCKED: BRANCH  29  33
DOCKED: ATOM     33  O   UNL d   1      -3.322  -7.530  14.839 -0.24 -0.05    -0.303 OA
DOCKED: ATOM     34  H   UNL d   1      -3.639  -8.260  14.253 -0.46 -0.23    +0.222 HD
DOCKED: ENDBRANCH  29  33
DOCKED: ENDBRANCH  28  29
DOCKED: ENDBRANCH   3  28
DOCKED: BRANCH   5  35
DOCKED: ATOM     35  O   UNL d   1       0.092 -13.442  13.853 -0.02 -0.08    -0.278 OA
DOCKED: BRANCH  35  36
DOCKED: ATOM     36  P   UNL d   1      -0.352 -12.977  12.393 -0.04 +0.28    +0.473 P 
DOCKED: ATOM     37  O   UNL d   1      -0.048 -13.940  11.290 -0.49 -0.28    -0.228 OA
DOCKED: BRANCH  36  38
DOCKED: ATOM     38  O   UNL d   1      -1.904 -12.688  12.601 -0.08 +0.03    -0.303 OA
DOCKED: ATOM     39  H   UNL d   1      -2.017 -11.775  12.943 -0.01 -0.13    +0.222 HD
DOCKED: ENDBRANCH  36  38
DOCKED: BRANCH  36  40
DOCKED: ATOM     40  O   UNL d   1       0.297 -11.529  12.286 -0.19 -0.25    -0.303 OA
DOCKED: ATOM     41  H   UNL d   1      -0.376 -10.843  12.078 -0.46 -0.25    +0.222 HD
DOCKED: ENDBRANCH  36  40
DOCKED: ENDBRANCH  35  36
DOCKED: ENDBRANCH   5  35
DOCKED: BRANCH   4  42
DOCKED: ATOM     42  O   UNL d   1       0.781 -10.894  15.088 -0.02 +0.02    -0.278 OA
DOCKED: BRANCH  42  43
DOCKED: ATOM     43  P   UNL d   1       1.267  -9.511  14.459 -0.05 -0.12    +0.473 P 
DOCKED: ATOM     44  O   UNL d   1       2.635  -9.466  13.871 -0.05 -0.01    -0.228 OA
DOCKED: BRANCH  43  45
DOCKED: ATOM     45  O   UNL d   1       0.104  -9.169  13.428 -0.02 +0.33    -0.303 OA
DOCKED: ATOM     46  H   UNL d   1      -0.508  -9.924  13.315 -0.18 -0.31    +0.222 HD
DOCKED: ENDBRANCH  43  45
DOCKED: BRANCH  43  47
DOCKED: ATOM     47  O   UNL d   1       0.983  -8.456  15.632 -0.04 +0.13    -0.303 OA
DOCKED: ATOM     48  H   UNL d   1       0.056  -8.551  15.934 +0.04 -0.10    +0.222 HD
DOCKED: ENDBRANCH  43  47
DOCKED: ENDBRANCH  42  43
DOCKED: ENDBRANCH   4  42
DOCKED: TORSDOF 24
DOCKED: TER
DOCKED: ENDMDL
________________________________________________________________________________


	BEGINNING GENETIC ALGORITHM DOCKING 97 of 100
Run: 97 Seed: 175514995 933607869 [ Run 97 of 100 GA/GALS ]
Beginning LAMARCKIAN GENETIC ALGORITHM (LGA), with a maximum of 25000000 energy evaluations.

Final-Value: -16.526


	FINAL GENETIC ALGORITHM DOCKED STATE
	_______________________________________________


Detailed state:  trans -19.671 0.906 8.799 quatxyzw -0.254193 0.250696 0.384214 -0.851421 center 0.035 0.082 -0.065 ntor 24 138.1134 100.6531 98.9999 -179.9298 41.9802 -57.7730 119.4472 25.3487 22.2711 119.5210 -6.7149 -56.9989 -94.3741 84.3531 -65.9027 24.3334 4.4596 -134.3486 -138.9396 -14.5100 -170.3810 -41.0249 148.9167 -61.6067
State:	-19.671   0.906   8.799  -0.485  0.478  0.733 -63.267    138.11  100.65   99.00 -179.93   41.98  -57.77  119.45   25.35   22.27  119.52   -6.71  -57.00  -94.37   84.35  -65.90   24.33    4.46 -134.35 -138.94  -14.51 -170.38  -41.02  148.92  -61.61

DOCKED: MODEL       97
DOCKED: USER    Run = 97
DOCKED: USER    DPF = D:/Protein_go_brrr/autodock/final/AncA/IHP/dock.dpf
DOCKED: USER  
DOCKED: USER    Estimated Free Energy of Binding    =   +2.90 kcal/mol  [=(1)+(2)+(3)-(4)]
DOCKED: USER    
DOCKED: USER    (1) Final Intermolecular Energy     =   -4.26 kcal/mol
DOCKED: USER        vdW + Hbond + desolv Energy     =   -3.78 kcal/mol
DOCKED: USER        Electrostatic Energy            =   -0.48 kcal/mol
DOCKED: USER    (2) Final Total Internal Energy     =  -12.26 kcal/mol
DOCKED: USER    (3) Torsional Free Energy           =   +7.16 kcal/mol
DOCKED: USER    (4) Unbound System's Energy  [=(2)] =  -12.26 kcal/mol
DOCKED: USER    
DOCKED: USER    
DOCKED: USER    NEWDPF move IHP_ideal_opt.pdbqt
DOCKED: USER    NEWDPF about 0.035000 0.082000 -0.065000
DOCKED: USER    NEWDPF tran0 -19.671380 0.905891 8.798576
DOCKED: USER    NEWDPF quaternion0 -0.254193 0.250696 0.384214 -0.851421
DOCKED: USER    NEWDPF axisangle0 -0.484654 0.477986 0.732557 -63.266972
DOCKED: USER    NEWDPF quat0 -0.484654 0.477986 0.732557 -63.266972
DOCKED: USER    NEWDPF dihe0 138.11 100.65 99.00 -179.93 41.98 -57.77 119.45 25.35 22.27 119.52 -6.71 -57.00 -94.37 84.35 -65.90 24.33 4.46 -134.35 -138.94 -14.51 -170.38 -41.02 148.92 -61.61 
DOCKED: USER  keepresnum = 1 
DOCKED: USER  
DOCKED: REMARK  24 active torsions:
DOCKED: REMARK  status: ('A' for Active; 'I' for Inactive)
DOCKED: REMARK    1  A    between atoms: C_1  and  O_7 
DOCKED: REMARK    2  A    between atoms: C_2  and  O_12 
DOCKED: REMARK    3  A    between atoms: C_3  and  O_17 
DOCKED: REMARK    4  A    between atoms: C_4  and  O_22 
DOCKED: REMARK    5  A    between atoms: C_5  and  O_27 
DOCKED: REMARK    6  A    between atoms: C_6  and  O_32 
DOCKED: REMARK    7  A    between atoms: O_7  and  P_8 
DOCKED: REMARK    8  A    between atoms: P_8  and  O_10 
DOCKED: REMARK    9  A    between atoms: P_8  and  O_11 
DOCKED: REMARK   10  A    between atoms: O_12  and  P_13 
DOCKED: REMARK   11  A    between atoms: P_13  and  O_15 
DOCKED: REMARK   12  A    between atoms: P_13  and  O_16 
DOCKED: REMARK   13  A    between atoms: O_17  and  P_18 
DOCKED: REMARK   14  A    between atoms: P_18  and  O_20 
DOCKED: REMARK   15  A    between atoms: P_18  and  O_21 
DOCKED: REMARK   16  A    between atoms: O_22  and  P_23 
DOCKED: REMARK   17  A    between atoms: P_23  and  O_25 
DOCKED: REMARK   18  A    between atoms: P_23  and  O_26 
DOCKED: REMARK   19  A    between atoms: O_27  and  P_28 
DOCKED: REMARK   20  A    between atoms: P_28  and  O_30 
DOCKED: REMARK   21  A    between atoms: P_28  and  O_31 
DOCKED: REMARK   22  A    between atoms: O_32  and  P_33 
DOCKED: REMARK   23  A    between atoms: P_33  and  O_35 
DOCKED: REMARK   24  A    between atoms: P_33  and  O_36 
DOCKED: USER                              x       y       z     vdW  Elec       q    Type
DOCKED: USER                           _______ _______ _______ _____ _____    ______ ____
DOCKED: ROOT
DOCKED: ATOM      1  C   UNL d   1     -18.068   1.550   8.822 -0.03 +0.05    +0.194 C 
DOCKED: ATOM      2  C   UNL d   1     -18.248   0.199   9.516 -0.03 +0.02    +0.194 C 
DOCKED: ATOM      3  C   UNL d   1     -19.520   0.163  10.366 +0.00 +0.01    +0.194 C 
DOCKED: ATOM      4  C   UNL d   1     -20.769   0.587   9.597 +0.01 +0.03    +0.194 C 
DOCKED: ATOM      5  C   UNL d   1     -20.598   1.872   8.795 +0.00 +0.04    +0.194 C 
DOCKED: ATOM      6  C   UNL d   1     -19.296   1.933   7.994 -0.03 +0.07    +0.194 C 
DOCKED: ENDROOT
DOCKED: BRANCH   1   7
DOCKED: ATOM      7  O   UNL d   1     -16.963   1.445   7.921 -0.08 -0.09    -0.278 OA
DOCKED: BRANCH   7   8
DOCKED: ATOM      8  P   UNL d   1     -17.267   1.182   6.375 -0.13 +0.44    +0.473 P 
DOCKED: ATOM      9  O   UNL d   1     -18.324   0.171   6.102 -0.39 -0.32    -0.228 OA
DOCKED: BRANCH   8  10
DOCKED: ATOM     10  O   UNL d   1     -17.617   2.628   5.798 -0.52 -0.35    -0.303 OA
DOCKED: ATOM     11  H   UNL d   1     -17.866   3.220   6.531 +0.06 +0.14    +0.222 HD
DOCKED: ENDBRANCH   8  10
DOCKED: BRANCH   8  12
DOCKED: ATOM     12  O   UNL d   1     -15.848   0.897   5.718 -0.36 -0.21    -0.303 OA
DOCKED: ATOM     13  H   UNL d   1     -15.361   0.162   6.156 +0.15 +0.09    +0.222 HD
DOCKED: ENDBRANCH   8  12
DOCKED: ENDBRANCH   7   8
DOCKED: ENDBRANCH   1   7
DOCKED: BRANCH   2  14
DOCKED: ATOM     14  O   UNL d   1     -18.334  -0.830   8.522 -0.06 -0.04    -0.278 OA
DOCKED: BRANCH  14  15
DOCKED: ATOM     15  P   UNL d   1     -17.178  -1.938   8.537 -0.19 -0.03    +0.473 P 
DOCKED: ATOM     16  O   UNL d   1     -17.599  -3.352   8.285 -0.81 +0.00    -0.228 OA
DOCKED: BRANCH  15  17
DOCKED: ATOM     17  O   UNL d   1     -16.121  -1.409   7.469 -0.15 -0.06    -0.303 OA
DOCKED: ATOM     18  H   UNL d   1     -16.389  -0.542   7.109 +0.12 +0.08    +0.222 HD
DOCKED: ENDBRANCH  15  17
DOCKED: BRANCH  15  19
DOCKED: ATOM     19  O   UNL d   1     -16.404  -1.686   9.904 -0.26 +0.14    -0.303 OA
DOCKED: ATOM     20  H   UNL d   1     -16.426  -2.472  10.481 -0.45 -0.30    +0.222 HD
DOCKED: ENDBRANCH  15  19
DOCKED: ENDBRANCH  14  15
DOCKED: ENDBRANCH   2  14
DOCKED: BRANCH   6  21
DOCKED: ATOM     21  O   UNL d   1     -19.123   3.290   7.593 -0.03 -0.11    -0.278 OA
DOCKED: BRANCH  21  22
DOCKED: ATOM     22  P   UNL d   1     -18.379   4.314   8.564 -0.02 +0.10    +0.473 P 
DOCKED: ATOM     23  O   UNL d   1     -18.588   4.170  10.034 -0.01 -0.03    -0.228 OA
DOCKED: BRANCH  22  24
DOCKED: ATOM     24  O   UNL d   1     -16.867   4.175   8.088 -0.07 -0.07    -0.303 OA
DOCKED: ATOM     25  H   UNL d   1     -16.758   3.286   7.663 +0.06 +0.07    +0.222 HD
DOCKED: ENDBRANCH  22  24
DOCKED: BRANCH  22  26
DOCKED: ATOM     26  O   UNL d   1     -18.797   5.726   7.930 -0.03 -0.06    -0.303 OA
DOCKED: ATOM     27  H   UNL d   1     -19.165   6.299   8.634 +0.01 +0.03    +0.222 HD
DOCKED: ENDBRANCH  22  26
DOCKED: ENDBRANCH  21  22
DOCKED: ENDBRANCH   6  21
DOCKED: BRANCH   3  28
DOCKED: ATOM     28  O   UNL d   1     -19.748  -1.190  10.739 -0.01 +0.01    -0.278 OA
DOCKED: BRANCH  28  29
DOCKED: ATOM     29  P   UNL d   1     -18.779  -1.913  11.775 -0.03 -0.12    +0.473 P 
DOCKED: ATOM     30  O   UNL d   1     -17.640  -1.095  12.265 -0.07 +0.05    -0.228 OA
DOCKED: BRANCH  29  31
DOCKED: ATOM     31  O   UNL d   1     -19.846  -2.399  12.864 -0.01 +0.04    -0.303 OA
DOCKED: ATOM     32  H   UNL d   1     -19.392  -2.995  13.504 +0.03 -0.05    +0.222 HD
DOCKED: ENDBRANCH  29  31
DOCKED: BRANCH  29  33
DOCKED: ATOM     33  O   UNL d   1     -18.418  -3.262  11.009 -0.14 +0.20    -0.303 OA
DOCKED: ATOM     34  H   UNL d   1     -17.665  -3.090  10.392 -0.28 -0.24    +0.222 HD
DOCKED: ENDBRANCH  29  33
DOCKED: ENDBRANCH  28  29
DOCKED: ENDBRANCH   3  28
DOCKED: BRANCH   5  35
DOCKED: ATOM     35  O   UNL d   1     -21.671   1.887   7.855 +0.00 -0.08    -0.278 OA
DOCKED: BRANCH  35  36
DOCKED: ATOM     36  P   UNL d   1     -21.574   1.035   6.511 -0.02 +0.24    +0.473 P 
DOCKED: ATOM     37  O   UNL d   1     -21.155  -0.391   6.680 -0.03 -0.11    -0.228 OA
DOCKED: BRANCH  36  38
DOCKED: ATOM     38  O   UNL d   1     -23.034   1.220   5.902 +0.00 -0.10    -0.303 OA
DOCKED: ATOM     39  H   UNL d   1     -23.699   1.054   6.604 +0.00 +0.05    +0.222 HD
DOCKED: ENDBRANCH  36  38
DOCKED: BRANCH  36  40
DOCKED: ATOM     40  O   UNL d   1     -20.656   1.953   5.592 -0.04 -0.31    -0.303 OA
DOCKED: ATOM     41  H   UNL d   1     -19.707   1.879   5.836 +0.04 +0.29    +0.222 HD
DOCKED: ENDBRANCH  36  40
DOCKED: ENDBRANCH  35  36
DOCKED: ENDBRANCH   5  35
DOCKED: BRANCH   4  42
DOCKED: ATOM     42  O   UNL d   1     -21.792   0.830  10.568 +0.00 -0.02    -0.278 OA
DOCKED: BRANCH  42  43
DOCKED: ATOM     43  P   UNL d   1     -23.278   1.122  10.067 +0.00 +0.05    +0.473 P 
DOCKED: ATOM     44  O   UNL d   1     -23.640   2.539   9.780 +0.00 -0.02    -0.228 OA
DOCKED: BRANCH  43  45
DOCKED: ATOM     45  O   UNL d   1     -23.423   0.148   8.818 +0.00 -0.04    -0.303 OA
DOCKED: ATOM     46  H   UNL d   1     -22.996   0.521   8.021 +0.00 +0.04    +0.222 HD
DOCKED: ENDBRANCH  43  45
DOCKED: BRANCH  43  47
DOCKED: ATOM     47  O   UNL d   1     -24.186   0.385  11.163 +0.00 -0.02    -0.303 OA
DOCKED: ATOM     48  H   UNL d   1     -24.788   1.038  11.576 +0.00 +0.01    +0.222 HD
DOCKED: ENDBRANCH  43  47
DOCKED: ENDBRANCH  42  43
DOCKED: ENDBRANCH   4  42
DOCKED: TORSDOF 24
DOCKED: TER
DOCKED: ENDMDL
________________________________________________________________________________


	BEGINNING GENETIC ALGORITHM DOCKING 98 of 100
Run: 98 Seed: 6931580 100969591 [ Run 98 of 100 GA/GALS ]
Beginning LAMARCKIAN GENETIC ALGORITHM (LGA), with a maximum of 25000000 energy evaluations.

Final-Value: -18.961


	FINAL GENETIC ALGORITHM DOCKED STATE
	_______________________________________________


Detailed state:  trans 6.687 -14.137 -4.622 quatxyzw 0.256176 -0.732979 -0.553148 0.301898 center 0.035 0.082 -0.065 ntor 24 77.4167 -179.7661 124.8357 -21.0093 117.5269 90.6402 -110.5450 19.3890 159.3717 34.0769 54.5728 -179.7274 -34.3171 75.2253 -177.4588 31.7608 -161.6978 166.4178 46.2815 -21.2765 -1.2659 -37.9349 171.0875 9.7936
State:	  6.687 -14.137  -4.622   0.269 -0.769 -0.580 144.857     77.42 -179.77  124.84  -21.01  117.53   90.64 -110.55   19.39  159.37   34.08   54.57 -179.73  -34.32   75.23 -177.46   31.76 -161.70  166.42   46.28  -21.28   -1.27  -37.93  171.09    9.79

DOCKED: MODEL       98
DOCKED: USER    Run = 98
DOCKED: USER    DPF = D:/Protein_go_brrr/autodock/final/AncA/IHP/dock.dpf
DOCKED: USER  
DOCKED: USER    Estimated Free Energy of Binding    =   +1.24 kcal/mol  [=(1)+(2)+(3)-(4)]
DOCKED: USER    
DOCKED: USER    (1) Final Intermolecular Energy     =   -5.92 kcal/mol
DOCKED: USER        vdW + Hbond + desolv Energy     =   -5.34 kcal/mol
DOCKED: USER        Electrostatic Energy            =   -0.58 kcal/mol
DOCKED: USER    (2) Final Total Internal Energy     =  -13.04 kcal/mol
DOCKED: USER    (3) Torsional Free Energy           =   +7.16 kcal/mol
DOCKED: USER    (4) Unbound System's Energy  [=(2)] =  -13.04 kcal/mol
DOCKED: USER    
DOCKED: USER    
DOCKED: USER    NEWDPF move IHP_ideal_opt.pdbqt
DOCKED: USER    NEWDPF about 0.035000 0.082000 -0.065000
DOCKED: USER    NEWDPF tran0 6.686923 -14.136792 -4.622434
DOCKED: USER    NEWDPF quaternion0 0.256176 -0.732979 -0.553148 0.301898
DOCKED: USER    NEWDPF axisangle0 0.268714 -0.768854 -0.580221 144.856762
DOCKED: USER    NEWDPF quat0 0.268714 -0.768854 -0.580221 144.856762
DOCKED: USER    NEWDPF dihe0 77.42 -179.77 124.84 -21.01 117.53 90.64 -110.55 19.39 159.37 34.08 54.57 -179.73 -34.32 75.23 -177.46 31.76 -161.70 166.42 46.28 -21.28 -1.27 -37.93 171.09 9.79 
DOCKED: USER  keepresnum = 1 
DOCKED: USER  
DOCKED: REMARK  24 active torsions:
DOCKED: REMARK  status: ('A' for Active; 'I' for Inactive)
DOCKED: REMARK    1  A    between atoms: C_1  and  O_7 
DOCKED: REMARK    2  A    between atoms: C_2  and  O_12 
DOCKED: REMARK    3  A    between atoms: C_3  and  O_17 
DOCKED: REMARK    4  A    between atoms: C_4  and  O_22 
DOCKED: REMARK    5  A    between atoms: C_5  and  O_27 
DOCKED: REMARK    6  A    between atoms: C_6  and  O_32 
DOCKED: REMARK    7  A    between atoms: O_7  and  P_8 
DOCKED: REMARK    8  A    between atoms: P_8  and  O_10 
DOCKED: REMARK    9  A    between atoms: P_8  and  O_11 
DOCKED: REMARK   10  A    between atoms: O_12  and  P_13 
DOCKED: REMARK   11  A    between atoms: P_13  and  O_15 
DOCKED: REMARK   12  A    between atoms: P_13  and  O_16 
DOCKED: REMARK   13  A    between atoms: O_17  and  P_18 
DOCKED: REMARK   14  A    between atoms: P_18  and  O_20 
DOCKED: REMARK   15  A    between atoms: P_18  and  O_21 
DOCKED: REMARK   16  A    between atoms: O_22  and  P_23 
DOCKED: REMARK   17  A    between atoms: P_23  and  O_25 
DOCKED: REMARK   18  A    between atoms: P_23  and  O_26 
DOCKED: REMARK   19  A    between atoms: O_27  and  P_28 
DOCKED: REMARK   20  A    between atoms: P_28  and  O_30 
DOCKED: REMARK   21  A    between atoms: P_28  and  O_31 
DOCKED: REMARK   22  A    between atoms: O_32  and  P_33 
DOCKED: REMARK   23  A    between atoms: P_33  and  O_35 
DOCKED: REMARK   24  A    between atoms: P_33  and  O_36 
DOCKED: USER                              x       y       z     vdW  Elec       q    Type
DOCKED: USER                           _______ _______ _______ _____ _____    ______ ____
DOCKED: ROOT
DOCKED: ATOM      1  C   UNL d   1       6.583 -13.653  -6.278 -0.17 +0.02    +0.194 C 
DOCKED: ATOM      2  C   UNL d   1       7.951 -14.164  -5.823 -0.11 +0.01    +0.194 C 
DOCKED: ATOM      3  C   UNL d   1       8.337 -13.608  -4.451 -0.11 -0.06    +0.194 C 
DOCKED: ATOM      4  C   UNL d   1       7.259 -13.823  -3.391 -0.10 -0.02    +0.194 C 
DOCKED: ATOM      5  C   UNL d   1       5.857 -13.433  -3.843 -0.10 +0.02    +0.194 C 
DOCKED: ATOM      6  C   UNL d   1       5.495 -13.937  -5.241 -0.13 +0.04    +0.194 C 
DOCKED: ENDROOT
DOCKED: BRANCH   1   7
DOCKED: ATOM      7  O   UNL d   1       6.223 -14.347  -7.474 -0.21 -0.10    -0.278 OA
DOCKED: BRANCH   7   8
DOCKED: ATOM      8  P   UNL d   1       6.927 -13.917  -8.842 -0.25 +0.10    +0.473 P 
DOCKED: ATOM      9  O   UNL d   1       8.172 -13.117  -8.687 -0.23 +0.01    -0.228 OA
DOCKED: BRANCH   8  10
DOCKED: ATOM     10  O   UNL d   1       7.159 -15.297  -9.608 -0.17 -0.18    -0.303 OA
DOCKED: ATOM     11  H   UNL d   1       7.955 -15.737  -9.256 +0.06 +0.14    +0.222 HD
DOCKED: ENDBRANCH   8  10
DOCKED: BRANCH   8  12
DOCKED: ATOM     12  O   UNL d   1       5.775 -13.246  -9.707 -1.04 -0.11    -0.303 OA
DOCKED: ATOM     13  H   UNL d   1       6.055 -12.408 -10.138 -0.38 +0.01    +0.222 HD
DOCKED: ENDBRANCH   8  12
DOCKED: ENDBRANCH   7   8
DOCKED: ENDBRANCH   1   7
DOCKED: BRANCH   2  14
DOCKED: ATOM     14  O   UNL d   1       7.912 -15.594  -5.742 -0.03 -0.09    -0.278 OA
DOCKED: BRANCH  14  15
DOCKED: ATOM     15  P   UNL d   1       8.762 -16.397  -6.836 -0.03 +0.25    +0.473 P 
DOCKED: ATOM     16  O   UNL d   1       9.666 -17.476  -6.326 -0.01 -0.10    -0.228 OA
DOCKED: BRANCH  15  17
DOCKED: ATOM     17  O   UNL d   1       7.665 -16.941  -7.855 -0.46 -0.42    -0.303 OA
DOCKED: ATOM     18  H   UNL d   1       6.890 -16.348  -7.887 +0.04 +0.29    +0.222 HD
DOCKED: ENDBRANCH  15  17
DOCKED: BRANCH  15  19
DOCKED: ATOM     19  O   UNL d   1       9.467 -15.263  -7.701 -0.02 -0.08    -0.303 OA
DOCKED: ATOM     20  H   UNL d   1       8.862 -14.891  -8.368 +0.07 +0.06    +0.222 HD
DOCKED: ENDBRANCH  15  19
DOCKED: ENDBRANCH  14  15
DOCKED: ENDBRANCH   2  14
DOCKED: BRANCH   6  21
DOCKED: ATOM     21  O   UNL d   1       4.331 -13.222  -5.649 -0.16 -0.07    -0.278 OA
DOCKED: BRANCH  21  22
DOCKED: ATOM     22  P   UNL d   1       2.907 -13.939  -5.613 -0.18 +0.19    +0.473 P 
DOCKED: ATOM     23  O   UNL d   1       1.898 -13.556  -6.643 -0.26 -0.10    -0.228 OA
DOCKED: BRANCH  22  24
DOCKED: ATOM     24  O   UNL d   1       3.317 -15.477  -5.620 -0.11 -0.16    -0.303 OA
DOCKED: ATOM     25  H   UNL d   1       3.982 -15.622  -4.900 +0.05 +0.11    +0.222 HD
DOCKED: ENDBRANCH  22  24
DOCKED: BRANCH  22  26
DOCKED: ATOM     26  O   UNL d   1       2.471 -13.720  -4.086 -0.07 -0.12    -0.303 OA
DOCKED: ATOM     27  H   UNL d   1       2.878 -14.417  -3.532 +0.06 +0.08    +0.222 HD
DOCKED: ENDBRANCH  22  26
DOCKED: ENDBRANCH  21  22
DOCKED: ENDBRANCH   6  21
DOCKED: BRANCH   3  28
DOCKED: ATOM     28  O   UNL d   1       9.467 -14.340  -3.994 -0.08 +0.09    -0.278 OA
DOCKED: BRANCH  28  29
DOCKED: ATOM     29  P   UNL d   1      10.897 -14.107  -4.655 -0.05 -0.18    +0.473 P 
DOCKED: ATOM     30  O   UNL d   1      10.971 -13.006  -5.650 -0.19 +0.11    -0.228 OA
DOCKED: BRANCH  29  31
DOCKED: ATOM     31  O   UNL d   1      11.792 -13.956  -3.336 -0.09 +0.16    -0.303 OA
DOCKED: ATOM     32  H   UNL d   1      11.446 -13.201  -2.807 -0.43 -0.29    +0.222 HD
DOCKED: ENDBRANCH  29  31
DOCKED: BRANCH  29  33
DOCKED: ATOM     33  O   UNL d   1      11.270 -15.567  -5.168 -0.01 -0.01    -0.303 OA
DOCKED: ATOM     34  H   UNL d   1      10.783 -15.746  -6.009 +0.03 +0.03    +0.222 HD
DOCKED: ENDBRANCH  29  33
DOCKED: ENDBRANCH  28  29
DOCKED: ENDBRANCH   3  28
DOCKED: BRANCH   5  35
DOCKED: ATOM     35  O   UNL d   1       4.966 -14.063  -2.925 -0.03 -0.06    -0.278 OA
DOCKED: BRANCH  35  36
DOCKED: ATOM     36  P   UNL d   1       4.986 -15.648  -2.743 +0.01 +0.14    +0.473 P 
DOCKED: ATOM     37  O   UNL d   1       3.724 -16.356  -3.119 -0.01 -0.09    -0.228 OA
DOCKED: BRANCH  36  38
DOCKED: ATOM     38  O   UNL d   1       6.253 -16.060  -3.615 -0.01 -0.09    -0.303 OA
DOCKED: ATOM     39  H   UNL d   1       7.054 -16.040  -3.048 +0.02 +0.05    +0.222 HD
DOCKED: ENDBRANCH  36  38
DOCKED: BRANCH  36  40
DOCKED: ATOM     40  O   UNL d   1       5.486 -15.811  -1.242 +0.00 -0.07    -0.303 OA
DOCKED: ATOM     41  H   UNL d   1       5.764 -14.951  -0.855 +0.02 +0.04    +0.222 HD
DOCKED: ENDBRANCH  36  40
DOCKED: ENDBRANCH  35  36
DOCKED: ENDBRANCH   5  35
DOCKED: BRANCH   4  42
DOCKED: ATOM     42  O   UNL d   1       7.594 -12.980  -2.283 -0.09 +0.10    -0.278 OA
DOCKED: BRANCH  42  43
DOCKED: ATOM     43  P   UNL d   1       8.293 -13.628  -1.004 -0.04 -0.13    +0.473 P 
DOCKED: ATOM     44  O   UNL d   1       7.990 -13.026   0.324 -0.12 +0.01    -0.228 OA
DOCKED: BRANCH  43  45
DOCKED: ATOM     45  O   UNL d   1       7.893 -15.164  -1.129 -0.02 -0.01    -0.303 OA
DOCKED: ATOM     46  H   UNL d   1       7.129 -15.287  -1.726 +0.02 +0.02    +0.222 HD
DOCKED: ENDBRANCH  43  45
DOCKED: BRANCH  43  47
DOCKED: ATOM     47  O   UNL d   1       9.843 -13.661  -1.412 -0.11 +0.19    -0.303 OA
DOCKED: ATOM     48  H   UNL d   1       9.947 -13.297  -2.315 -0.13 -0.31    +0.222 HD
DOCKED: ENDBRANCH  43  47
DOCKED: ENDBRANCH  42  43
DOCKED: ENDBRANCH   4  42
DOCKED: TORSDOF 24
DOCKED: TER
DOCKED: ENDMDL
________________________________________________________________________________


	BEGINNING GENETIC ALGORITHM DOCKING 99 of 100
Run: 99 Seed: 613718973 359558116 [ Run 99 of 100 GA/GALS ]
Beginning LAMARCKIAN GENETIC ALGORITHM (LGA), with a maximum of 25000000 energy evaluations.

Final-Value: -17.361


	FINAL GENETIC ALGORITHM DOCKED STATE
	_______________________________________________


Detailed state:  trans 6.329 -7.614 14.343 quatxyzw 0.670403 0.210525 0.270721 0.657989 center 0.035 0.082 -0.065 ntor 24 94.3076 -61.9910 -180.0000 14.0563 86.9022 -171.2307 55.4600 -174.9806 140.9145 22.5912 34.0242 -180.0000 151.6322 173.8379 67.9350 -65.7202 170.1297 -71.4778 -141.3458 -9.4515 34.4065 -17.6517 180.0000 27.8064
State:	  6.329  -7.614  14.343   0.890  0.280  0.360 97.707     94.31  -61.99 -180.00   14.06   86.90 -171.23   55.46 -174.98  140.91   22.59   34.02 -180.00  151.63  173.84   67.94  -65.72  170.13  -71.48 -141.35   -9.45   34.41  -17.65  180.00   27.81

DOCKED: MODEL       99
DOCKED: USER    Run = 99
DOCKED: USER    DPF = D:/Protein_go_brrr/autodock/final/AncA/IHP/dock.dpf
DOCKED: USER  
DOCKED: USER    Estimated Free Energy of Binding    =   +2.23 kcal/mol  [=(1)+(2)+(3)-(4)]
DOCKED: USER    
DOCKED: USER    (1) Final Intermolecular Energy     =   -4.93 kcal/mol
DOCKED: USER        vdW + Hbond + desolv Energy     =   -4.20 kcal/mol
DOCKED: USER        Electrostatic Energy            =   -0.73 kcal/mol
DOCKED: USER    (2) Final Total Internal Energy     =  -12.43 kcal/mol
DOCKED: USER    (3) Torsional Free Energy           =   +7.16 kcal/mol
DOCKED: USER    (4) Unbound System's Energy  [=(2)] =  -12.43 kcal/mol
DOCKED: USER    
DOCKED: USER    
DOCKED: USER    NEWDPF move IHP_ideal_opt.pdbqt
DOCKED: USER    NEWDPF about 0.035000 0.082000 -0.065000
DOCKED: USER    NEWDPF tran0 6.329336 -7.614129 14.343334
DOCKED: USER    NEWDPF quaternion0 0.670403 0.210525 0.270721 0.657989
DOCKED: USER    NEWDPF axisangle0 0.890277 0.279571 0.359510 97.706676
DOCKED: USER    NEWDPF quat0 0.890277 0.279571 0.359510 97.706676
DOCKED: USER    NEWDPF dihe0 94.31 -61.99 -180.00 14.06 86.90 -171.23 55.46 -174.98 140.91 22.59 34.02 -180.00 151.63 173.84 67.94 -65.72 170.13 -71.48 -141.35 -9.45 34.41 -17.65 180.00 27.81 
DOCKED: USER  keepresnum = 1 
DOCKED: USER  
DOCKED: REMARK  24 active torsions:
DOCKED: REMARK  status: ('A' for Active; 'I' for Inactive)
DOCKED: REMARK    1  A    between atoms: C_1  and  O_7 
DOCKED: REMARK    2  A    between atoms: C_2  and  O_12 
DOCKED: REMARK    3  A    between atoms: C_3  and  O_17 
DOCKED: REMARK    4  A    between atoms: C_4  and  O_22 
DOCKED: REMARK    5  A    between atoms: C_5  and  O_27 
DOCKED: REMARK    6  A    between atoms: C_6  and  O_32 
DOCKED: REMARK    7  A    between atoms: O_7  and  P_8 
DOCKED: REMARK    8  A    between atoms: P_8  and  O_10 
DOCKED: REMARK    9  A    between atoms: P_8  and  O_11 
DOCKED: REMARK   10  A    between atoms: O_12  and  P_13 
DOCKED: REMARK   11  A    between atoms: P_13  and  O_15 
DOCKED: REMARK   12  A    between atoms: P_13  and  O_16 
DOCKED: REMARK   13  A    between atoms: O_17  and  P_18 
DOCKED: REMARK   14  A    between atoms: P_18  and  O_20 
DOCKED: REMARK   15  A    between atoms: P_18  and  O_21 
DOCKED: REMARK   16  A    between atoms: O_22  and  P_23 
DOCKED: REMARK   17  A    between atoms: P_23  and  O_25 
DOCKED: REMARK   18  A    between atoms: P_23  and  O_26 
DOCKED: REMARK   19  A    between atoms: O_27  and  P_28 
DOCKED: REMARK   20  A    between atoms: P_28  and  O_30 
DOCKED: REMARK   21  A    between atoms: P_28  and  O_31 
DOCKED: REMARK   22  A    between atoms: O_32  and  P_33 
DOCKED: REMARK   23  A    between atoms: P_33  and  O_35 
DOCKED: REMARK   24  A    between atoms: P_33  and  O_36 
DOCKED: USER                              x       y       z     vdW  Elec       q    Type
DOCKED: USER                           _______ _______ _______ _____ _____    ______ ____
DOCKED: ROOT
DOCKED: ATOM      1  C   UNL d   1       6.789  -6.878  15.837 -0.06 -0.02    +0.194 C 
DOCKED: ATOM      2  C   UNL d   1       5.289  -7.117  15.652 -0.05 -0.03    +0.194 C 
DOCKED: ATOM      3  C   UNL d   1       4.826  -6.742  14.242 +0.04 -0.08    +0.194 C 
DOCKED: ATOM      4  C   UNL d   1       5.656  -7.399  13.142 -0.10 -0.03    +0.194 C 
DOCKED: ATOM      5  C   UNL d   1       7.161  -7.285  13.347 -0.13 -0.01    +0.194 C 
DOCKED: ATOM      6  C   UNL d   1       7.617  -7.600  14.774 -0.06 -0.00    +0.194 C 
DOCKED: ENDROOT
DOCKED: BRANCH   1   7
DOCKED: ATOM      7  O   UNL d   1       7.171  -7.410  17.108 -0.01 +0.00    -0.278 OA
DOCKED: BRANCH   7   8
DOCKED: ATOM      8  P   UNL d   1       7.786  -8.884  17.161 +0.00 +0.02    +0.473 P 
DOCKED: ATOM      9  O   UNL d   1       7.659  -9.574  18.473 -0.00 -0.01    -0.228 OA
DOCKED: BRANCH   8  10
DOCKED: ATOM     10  O   UNL d   1       7.049  -9.653  15.973 -0.00 -0.01    -0.303 OA
DOCKED: ATOM     11  H   UNL d   1       6.092  -9.700  16.158 +0.01 +0.01    +0.222 HD
DOCKED: ENDBRANCH   8  10
DOCKED: BRANCH   8  12
DOCKED: ATOM     12  O   UNL d   1       9.263  -8.735  16.595 -0.00 -0.01    -0.303 OA
DOCKED: ATOM     13  H   UNL d   1       9.370  -9.111  15.692 +0.01 +0.01    +0.222 HD
DOCKED: ENDBRANCH   8  12
DOCKED: ENDBRANCH   7   8
DOCKED: ENDBRANCH   1   7
DOCKED: BRANCH   2  14
DOCKED: ATOM     14  O   UNL d   1       5.006  -8.505  15.871 -0.01 +0.01    -0.278 OA
DOCKED: BRANCH  14  15
DOCKED: ATOM     15  P   UNL d   1       3.946  -8.846  17.021 +0.01 -0.03    +0.473 P 
DOCKED: ATOM     16  O   UNL d   1       4.348  -9.885  18.020 +0.00 -0.00    -0.228 OA
DOCKED: BRANCH  15  17
DOCKED: ATOM     17  O   UNL d   1       3.633  -7.435  17.691 -0.00 +0.04    -0.303 OA
DOCKED: ATOM     18  H   UNL d   1       2.943  -6.955  17.193 +0.03 -0.05    +0.222 HD
DOCKED: ENDBRANCH  15  17
DOCKED: BRANCH  15  19
DOCKED: ATOM     19  O   UNL d   1       2.591  -9.135  16.239 +0.00 +0.03    -0.303 OA
DOCKED: ATOM     20  H   UNL d   1       2.421  -8.464  15.552 +0.04 -0.05    +0.222 HD
DOCKED: ENDBRANCH  15  19
DOCKED: ENDBRANCH  14  15
DOCKED: ENDBRANCH   2  14
DOCKED: BRANCH   6  21
DOCKED: ATOM     21  O   UNL d   1       8.956  -7.125  14.892 -0.03 -0.01    -0.278 OA
DOCKED: BRANCH  21  22
DOCKED: ATOM     22  P   UNL d   1      10.125  -7.837  14.073 -0.01 +0.03    +0.473 P 
DOCKED: ATOM     23  O   UNL d   1      10.563  -7.218  12.788 -0.04 -0.01    -0.228 OA
DOCKED: BRANCH  22  24
DOCKED: ATOM     24  O   UNL d   1      11.265  -7.964  15.176 -0.00 -0.02    -0.303 OA
DOCKED: ATOM     25  H   UNL d   1      10.839  -7.901  16.068 +0.01 +0.01    +0.222 HD
DOCKED: ENDBRANCH  22  24
DOCKED: BRANCH  22  26
DOCKED: ATOM     26  O   UNL d   1       9.585  -9.344  13.979 -0.00 -0.02    -0.303 OA
DOCKED: ATOM     27  H   UNL d   1       8.636  -9.361  14.218 +0.01 +0.02    +0.222 HD
DOCKED: ENDBRANCH  22  26
DOCKED: ENDBRANCH  21  22
DOCKED: ENDBRANCH   6  21
DOCKED: BRANCH   3  28
DOCKED: ATOM     28  O   UNL d   1       3.508  -7.250  14.075 -0.09 +0.11    -0.278 OA
DOCKED: BRANCH  28  29
DOCKED: ATOM     29  P   UNL d   1       2.246  -6.333  14.397 -0.09 -0.48    +0.473 P 
DOCKED: ATOM     30  O   UNL d   1       1.722  -6.429  15.783 -0.11 +0.18    -0.228 OA
DOCKED: BRANCH  29  31
DOCKED: ATOM     31  O   UNL d   1       2.809  -4.910  13.930 -0.30 +0.39    -0.303 OA
DOCKED: ATOM     32  H   UNL d   1       2.366  -4.659  13.086 -0.37 -0.45    +0.222 HD
DOCKED: ENDBRANCH  29  31
DOCKED: BRANCH  29  33
DOCKED: ATOM     33  O   UNL d   1       1.245  -6.719  13.220 -0.26 +0.43    -0.303 OA
DOCKED: ATOM     34  H   UNL d   1       1.091  -5.922  12.655 -0.43 -0.51    +0.222 HD
DOCKED: ENDBRANCH  29  33
DOCKED: ENDBRANCH  28  29
DOCKED: ENDBRANCH   3  28
DOCKED: BRANCH   5  35
DOCKED: ATOM     35  O   UNL d   1       7.744  -8.267  12.493 -0.05 -0.01    -0.278 OA
DOCKED: BRANCH  35  36
DOCKED: ATOM     36  P   UNL d   1       7.204  -9.768  12.508 +0.01 +0.06    +0.473 P 
DOCKED: ATOM     37  O   UNL d   1       8.236 -10.827  12.283 -0.00 -0.04    -0.228 OA
DOCKED: BRANCH  36  38
DOCKED: ATOM     38  O   UNL d   1       6.487  -9.843  13.928 -0.00 -0.03    -0.303 OA
DOCKED: ATOM     39  H   UNL d   1       5.669  -9.303  13.903 +0.03 +0.02    +0.222 HD
DOCKED: ENDBRANCH  36  38
DOCKED: BRANCH  36  40
DOCKED: ATOM     40  O   UNL d   1       5.998  -9.705  11.473 -0.02 -0.08    -0.303 OA
DOCKED: ATOM     41  H   UNL d   1       5.691  -8.783  11.327 +0.07 +0.03    +0.222 HD
DOCKED: ENDBRANCH  36  40
DOCKED: ENDBRANCH  35  36
DOCKED: ENDBRANCH   5  35
DOCKED: BRANCH   4  42
DOCKED: ATOM     42  O   UNL d   1       5.344  -6.716  11.923 -0.22 +0.08    -0.278 OA
DOCKED: BRANCH  42  43
DOCKED: ATOM     43  P   UNL d   1       4.043  -7.148  11.107 -0.27 -0.03    +0.473 P 
DOCKED: ATOM     44  O   UNL d   1       3.555  -8.545  11.283 -0.17 -0.06    -0.228 OA
DOCKED: BRANCH  43  45
DOCKED: ATOM     45  O   UNL d   1       2.986  -6.032  11.519 -0.89 +0.12    -0.303 OA
DOCKED: ATOM     46  H   UNL d   1       3.064  -5.797  12.465 +0.02 -0.17    +0.222 HD
DOCKED: ENDBRANCH  43  45
DOCKED: BRANCH  43  47
DOCKED: ATOM     47  O   UNL d   1       4.397  -6.724   9.603 -0.33 -0.01    -0.303 OA
DOCKED: ATOM     48  H   UNL d   1       5.284  -6.308   9.585 -0.38 -0.06    +0.222 HD
DOCKED: ENDBRANCH  43  47
DOCKED: ENDBRANCH  42  43
DOCKED: ENDBRANCH   4  42
DOCKED: TORSDOF 24
DOCKED: TER
DOCKED: ENDMDL
________________________________________________________________________________


	BEGINNING GENETIC ALGORITHM DOCKING 100 of 100
Run: 100 Seed: 793613268 1863170510 [ Run 100 of 100 GA/GALS ]
Beginning LAMARCKIAN GENETIC ALGORITHM (LGA), with a maximum of 25000000 energy evaluations.

Final-Value: -16.766


	FINAL GENETIC ALGORITHM DOCKED STATE
	_______________________________________________


Detailed state:  trans -4.630 -2.562 -19.038 quatxyzw 0.698797 -0.688198 -0.193446 0.025399 center 0.035 0.082 -0.065 ntor 24 117.2113 47.0316 75.4772 1.5294 -75.4647 98.9496 161.1992 14.6956 150.4230 13.5326 63.3712 -132.8793 -40.0086 88.7173 -176.0214 41.4725 32.8728 124.7754 33.6383 -36.7909 -180.0000 -51.1435 -9.0514 -7.9658
State:	 -4.630  -2.562 -19.038   0.699 -0.688 -0.194 177.089    117.21   47.03   75.48    1.53  -75.46   98.95  161.20   14.70  150.42   13.53   63.37 -132.88  -40.01   88.72 -176.02   41.47   32.87  124.78   33.64  -36.79 -180.00  -51.14   -9.05   -7.97

DOCKED: MODEL      100
DOCKED: USER    Run = 100
DOCKED: USER    DPF = D:/Protein_go_brrr/autodock/final/AncA/IHP/dock.dpf
DOCKED: USER  
DOCKED: USER    Estimated Free Energy of Binding    =   +3.08 kcal/mol  [=(1)+(2)+(3)-(4)]
DOCKED: USER    
DOCKED: USER    (1) Final Intermolecular Energy     =   -4.08 kcal/mol
DOCKED: USER        vdW + Hbond + desolv Energy     =   -4.14 kcal/mol
DOCKED: USER        Electrostatic Energy            =   +0.06 kcal/mol
DOCKED: USER    (2) Final Total Internal Energy     =  -12.69 kcal/mol
DOCKED: USER    (3) Torsional Free Energy           =   +7.16 kcal/mol
DOCKED: USER    (4) Unbound System's Energy  [=(2)] =  -12.69 kcal/mol
DOCKED: USER    
DOCKED: USER    
DOCKED: USER    NEWDPF move IHP_ideal_opt.pdbqt
DOCKED: USER    NEWDPF about 0.035000 0.082000 -0.065000
DOCKED: USER    NEWDPF tran0 -4.629861 -2.561556 -19.037884
DOCKED: USER    NEWDPF quaternion0 0.698797 -0.688198 -0.193446 0.025399
DOCKED: USER    NEWDPF axisangle0 0.699022 -0.688420 -0.193509 177.089139
DOCKED: USER    NEWDPF quat0 0.699022 -0.688420 -0.193509 177.089139
DOCKED: USER    NEWDPF dihe0 117.21 47.03 75.48 1.53 -75.46 98.95 161.20 14.70 150.42 13.53 63.37 -132.88 -40.01 88.72 -176.02 41.47 32.87 124.78 33.64 -36.79 -180.00 -51.14 -9.05 -7.97 
DOCKED: USER  keepresnum = 1 
DOCKED: USER  
DOCKED: REMARK  24 active torsions:
DOCKED: REMARK  status: ('A' for Active; 'I' for Inactive)
DOCKED: REMARK    1  A    between atoms: C_1  and  O_7 
DOCKED: REMARK    2  A    between atoms: C_2  and  O_12 
DOCKED: REMARK    3  A    between atoms: C_3  and  O_17 
DOCKED: REMARK    4  A    between atoms: C_4  and  O_22 
DOCKED: REMARK    5  A    between atoms: C_5  and  O_27 
DOCKED: REMARK    6  A    between atoms: C_6  and  O_32 
DOCKED: REMARK    7  A    between atoms: O_7  and  P_8 
DOCKED: REMARK    8  A    between atoms: P_8  and  O_10 
DOCKED: REMARK    9  A    between atoms: P_8  and  O_11 
DOCKED: REMARK   10  A    between atoms: O_12  and  P_13 
DOCKED: REMARK   11  A    between atoms: P_13  and  O_15 
DOCKED: REMARK   12  A    between atoms: P_13  and  O_16 
DOCKED: REMARK   13  A    between atoms: O_17  and  P_18 
DOCKED: REMARK   14  A    between atoms: P_18  and  O_20 
DOCKED: REMARK   15  A    between atoms: P_18  and  O_21 
DOCKED: REMARK   16  A    between atoms: O_22  and  P_23 
DOCKED: REMARK   17  A    between atoms: P_23  and  O_25 
DOCKED: REMARK   18  A    between atoms: P_23  and  O_26 
DOCKED: REMARK   19  A    between atoms: O_27  and  P_28 
DOCKED: REMARK   20  A    between atoms: P_28  and  O_30 
DOCKED: REMARK   21  A    between atoms: P_28  and  O_31 
DOCKED: REMARK   22  A    between atoms: O_32  and  P_33 
DOCKED: REMARK   23  A    between atoms: P_33  and  O_35 
DOCKED: REMARK   24  A    between atoms: P_33  and  O_36 
DOCKED: USER                              x       y       z     vdW  Elec       q    Type
DOCKED: USER                           _______ _______ _______ _____ _____    ______ ____
DOCKED: ROOT
DOCKED: ATOM      1  C   UNL d   1      -3.981  -3.470 -20.356 -0.15 -0.04    +0.194 C 
DOCKED: ATOM      2  C   UNL d   1      -3.085  -2.352 -19.820 -0.08 -0.02    +0.194 C 
DOCKED: ATOM      3  C   UNL d   1      -3.879  -1.074 -19.542 -0.04 -0.01    +0.194 C 
DOCKED: ATOM      4  C   UNL d   1      -5.104  -1.306 -18.660 -0.08 -0.02    +0.194 C 
DOCKED: ATOM      5  C   UNL d   1      -5.965  -2.486 -19.092 -0.12 -0.03    +0.194 C 
DOCKED: ATOM      6  C   UNL d   1      -5.165  -3.746 -19.429 -0.22 -0.05    +0.194 C 
DOCKED: ENDROOT
DOCKED: BRANCH   1   7
DOCKED: ATOM      7  O   UNL d   1      -3.205  -4.669 -20.425 -0.18 +0.11    -0.278 OA
DOCKED: BRANCH   7   8
DOCKED: ATOM      8  P   UNL d   1      -2.389  -4.969 -21.765 -0.08 -0.13    +0.473 P 
DOCKED: ATOM      9  O   UNL d   1      -2.302  -3.830 -22.719 -0.03 +0.03    -0.228 OA
DOCKED: BRANCH   8  10
DOCKED: ATOM     10  O   UNL d   1      -0.963  -5.464 -21.246 -0.12 +0.06    -0.303 OA
DOCKED: ATOM     11  H   UNL d   1      -0.685  -4.920 -20.486 +0.07 -0.04    +0.222 HD
DOCKED: ENDBRANCH   8  10
DOCKED: BRANCH   8  12
DOCKED: ATOM     12  O   UNL d   1      -3.018  -6.310 -22.340 -0.15 +0.13    -0.303 OA
DOCKED: ATOM     13  H   UNL d   1      -3.765  -6.649 -21.797 -0.51 -0.18    +0.222 HD
DOCKED: ENDBRANCH   8  12
DOCKED: ENDBRANCH   7   8
DOCKED: ENDBRANCH   1   7
DOCKED: BRANCH   2  14
DOCKED: ATOM     14  O   UNL d   1      -2.477  -2.787 -18.597 -0.17 +0.03    -0.278 OA
DOCKED: BRANCH  14  15
DOCKED: ATOM     15  P   UNL d   1      -1.015  -3.428 -18.713 -0.16 -0.06    +0.473 P 
DOCKED: ATOM     16  O   UNL d   1      -0.064  -3.140 -17.594 -0.35 +0.02    -0.228 OA
DOCKED: BRANCH  15  17
DOCKED: ATOM     17  O   UNL d   1      -1.290  -4.986 -18.904 -0.20 +0.09    -0.303 OA
DOCKED: ATOM     18  H   UNL d   1      -2.184  -5.226 -18.595 -0.42 -0.11    +0.222 HD
DOCKED: ENDBRANCH  15  17
DOCKED: BRANCH  15  19
DOCKED: ATOM     19  O   UNL d   1      -0.513  -3.012 -20.164 -0.06 +0.02    -0.303 OA
DOCKED: ATOM     20  H   UNL d   1      -1.117  -3.332 -20.860 +0.06 -0.02    +0.222 HD
DOCKED: ENDBRANCH  15  19
DOCKED: ENDBRANCH  14  15
DOCKED: ENDBRANCH   2  14
DOCKED: BRANCH   6  21
DOCKED: ATOM     21  O   UNL d   1      -6.049  -4.620 -20.128 -0.26 +0.14    -0.278 OA
DOCKED: BRANCH  21  22
DOCKED: ATOM     22  P   UNL d   1      -6.377  -4.350 -21.666 -0.12 -0.33    +0.473 P 
DOCKED: ATOM     23  O   UNL d   1      -7.743  -4.683 -22.164 -0.13 +0.25    -0.228 OA
DOCKED: BRANCH  22  24
DOCKED: ATOM     24  O   UNL d   1      -5.963  -2.822 -21.824 -0.03 +0.08    -0.303 OA
DOCKED: ATOM     25  H   UNL d   1      -6.621  -2.384 -22.421 +0.02 -0.05    +0.222 HD
DOCKED: ENDBRANCH  22  24
DOCKED: BRANCH  22  26
DOCKED: ATOM     26  O   UNL d   1      -5.161  -5.100 -22.394 -0.18 +0.22    -0.303 OA
DOCKED: ATOM     27  H   UNL d   1      -4.349  -4.562 -22.300 +0.05 -0.09    +0.222 HD
DOCKED: ENDBRANCH  22  26
DOCKED: ENDBRANCH  21  22
DOCKED: ENDBRANCH   6  21
DOCKED: BRANCH   3  28
DOCKED: ATOM     28  O   UNL d   1      -3.039  -0.200 -18.799 -0.02 +0.01    -0.278 OA
DOCKED: BRANCH  28  29
DOCKED: ATOM     29  P   UNL d   1      -1.650   0.288 -19.405 +0.01 +0.00    +0.473 P 
DOCKED: ATOM     30  O   UNL d   1      -1.479   0.080 -20.866 -0.01 -0.00    -0.228 OA
DOCKED: BRANCH  29  31
DOCKED: ATOM     31  O   UNL d   1      -1.632   1.800 -18.879 -0.01 -0.01    -0.303 OA
DOCKED: ATOM     32  H   UNL d   1      -1.171   2.359 -19.547 +0.01 +0.01    +0.222 HD
DOCKED: ENDBRANCH  29  31
DOCKED: BRANCH  29  33
DOCKED: ATOM     33  O   UNL d   1      -0.598  -0.429 -18.448 -0.05 -0.00    -0.303 OA
DOCKED: ATOM     34  H   UNL d   1      -0.569  -1.392 -18.667 +0.08 -0.01    +0.222 HD
DOCKED: ENDBRANCH  29  33
DOCKED: ENDBRANCH  28  29
DOCKED: ENDBRANCH   3  28
DOCKED: BRANCH   5  35
DOCKED: ATOM     35  O   UNL d   1      -6.786  -2.798 -17.968 -0.17 +0.04    -0.278 OA
DOCKED: BRANCH  35  36
DOCKED: ATOM     36  P   UNL d   1      -8.375  -2.767 -18.100 -0.09 -0.11    +0.473 P 
DOCKED: ATOM     37  O   UNL d   1      -8.989  -3.944 -18.788 -0.11 +0.08    -0.228 OA
DOCKED: BRANCH  36  38
DOCKED: ATOM     38  O   UNL d   1      -8.824  -2.589 -16.582 -0.14 +0.09    -0.303 OA
DOCKED: ATOM     39  H   UNL d   1      -8.740  -1.644 -16.331 +0.08 -0.09    +0.222 HD
DOCKED: ENDBRANCH  36  38
DOCKED: BRANCH  36  40
DOCKED: ATOM     40  O   UNL d   1      -8.635  -1.336 -18.746 -0.02 +0.06    -0.303 OA
DOCKED: ATOM     41  H   UNL d   1      -7.931  -0.695 -18.504 +0.05 -0.04    +0.222 HD
DOCKED: ENDBRANCH  36  40
DOCKED: ENDBRANCH  35  36
DOCKED: ENDBRANCH   5  35
DOCKED: BRANCH   4  42
DOCKED: ATOM     42  O   UNL d   1      -5.916  -0.132 -18.761 -0.02 +0.02    -0.278 OA
DOCKED: BRANCH  42  43
DOCKED: ATOM     43  P   UNL d   1      -6.216   0.715 -17.443 -0.03 -0.03    +0.473 P 
DOCKED: ATOM     44  O   UNL d   1      -6.877   2.039 -17.612 -0.02 +0.01    -0.228 OA
DOCKED: BRANCH  43  45
DOCKED: ATOM     45  O   UNL d   1      -7.036  -0.313 -16.547 -0.13 +0.04    -0.303 OA
DOCKED: ATOM     46  H   UNL d   1      -7.283  -1.112 -17.053 +0.08 -0.03    +0.222 HD
DOCKED: ENDBRANCH  43  45
DOCKED: BRANCH  43  47
DOCKED: ATOM     47  O   UNL d   1      -4.798   0.740 -16.694 -0.05 +0.01    -0.303 OA
DOCKED: ATOM     48  H   UNL d   1      -4.096   0.958 -17.341 +0.05 -0.00    +0.222 HD
DOCKED: ENDBRANCH  43  47
DOCKED: ENDBRANCH  42  43
DOCKED: ENDBRANCH   4  42
DOCKED: TORSDOF 24
DOCKED: TER
DOCKED: ENDMDL
________________________________________________________________________________

DPF> analysis                             # perform a ranked cluster analysis


		CLUSTER ANALYSIS OF CONFORMATIONS
		_________________________________

Number of conformations = 100

RMSD cluster analysis will be performed using the ligand atoms only (48 / 48 total atoms).

Outputting structurally similar clusters, ranked in order of increasing energy.


________________________________________________________________________________

Number of distinct conformational clusters found = 88,  out of 100 runs,
Using an rmsd-tolerance of 2.0 A


	CLUSTERING HISTOGRAM
	____________________

________________________________________________________________________________
     |           |     |           |     |                                    
Clus | Lowest    | Run | Mean      | Num | Histogram                          
-ter | Binding   |     | Binding   | in  |                                    
Rank | Energy    |     | Energy    | Clus|    5    10   15   20   25   30   35
_____|___________|_____|___________|_____|____:____|____:____|____:____|____:___
   1 |     -0.56 |  12 |     -0.56 |   1 |#
   2 |     -0.40 |  48 |     +0.56 |   2 |##
   3 |     +0.12 |  39 |     +0.12 |   1 |#
   4 |     +0.13 |  87 |     +1.37 |   2 |##
   5 |     +1.22 |  66 |     +1.22 |   1 |#
   6 |     +1.24 |  98 |     +1.24 |   1 |#
   7 |     +1.26 |   8 |     +1.50 |   2 |##
   8 |     +1.30 |  23 |     +1.30 |   1 |#
   9 |     +1.60 |  49 |     +1.60 |   1 |#
  10 |     +1.74 |   7 |     +1.74 |   1 |#
  11 |     +1.75 |  96 |     +1.75 |   1 |#
  12 |     +1.84 |  82 |     +1.84 |   1 |#
  13 |     +1.86 |  54 |     +1.86 |   1 |#
  14 |     +1.87 |  68 |     +1.87 |   1 |#
  15 |     +1.89 |  92 |     +1.89 |   1 |#
  16 |     +1.97 |  29 |     +1.97 |   1 |#
  17 |     +2.01 |  95 |     +2.01 |   1 |#
  18 |     +2.10 |  16 |     +2.10 |   1 |#
  19 |     +2.10 |  22 |     +3.10 |   2 |##
  20 |     +2.15 |  45 |     +2.15 |   1 |#
  21 |     +2.16 |  37 |     +2.16 |   1 |#
  22 |     +2.18 |  86 |     +2.18 |   1 |#
  23 |     +2.23 |  99 |     +2.23 |   1 |#
  24 |     +2.24 |  20 |     +2.24 |   1 |#
  25 |     +2.25 |  31 |     +2.25 |   1 |#
  26 |     +2.25 |  84 |     +2.25 |   1 |#
  27 |     +2.26 |  60 |     +2.26 |   1 |#
  28 |     +2.31 |   5 |     +2.31 |   1 |#
  29 |     +2.32 |  40 |     +2.32 |   1 |#
  30 |     +2.35 |  25 |     +2.35 |   1 |#
  31 |     +2.35 |  75 |     +2.35 |   1 |#
  32 |     +2.44 |  62 |     +2.44 |   1 |#
  33 |     +2.44 |  79 |     +2.44 |   1 |#
  34 |     +2.45 |  71 |     +2.45 |   1 |#
  35 |     +2.46 |  57 |     +2.46 |   1 |#
  36 |     +2.48 |  51 |     +2.48 |   1 |#
  37 |     +2.51 |  59 |     +2.51 |   1 |#
  38 |     +2.70 |  69 |     +2.70 |   1 |#
  39 |     +2.74 |  43 |     +2.74 |   1 |#
  40 |     +2.75 |  81 |     +2.75 |   1 |#
  41 |     +2.76 |  65 |     +2.76 |   1 |#
  42 |     +2.76 |  58 |     +2.76 |   1 |#
  43 |     +2.76 |  14 |     +2.76 |   1 |#
  44 |     +2.81 |  83 |     +2.89 |   2 |##
  45 |     +2.84 |  47 |     +2.84 |   1 |#
  46 |     +2.88 |  70 |     +2.88 |   1 |#
  47 |     +2.90 |  97 |     +2.90 |   1 |#
  48 |     +2.90 |  17 |     +3.36 |   3 |###
  49 |     +2.91 |  91 |     +2.91 |   1 |#
  50 |     +2.91 |   4 |     +2.91 |   1 |#
  51 |     +2.97 |   3 |     +2.97 |   1 |#
  52 |     +2.99 |   2 |     +2.99 |   1 |#
  53 |     +3.02 |   1 |     +3.02 |   1 |#
  54 |     +3.07 |  88 |     +3.07 |   1 |#
  55 |     +3.08 | 100 |     +3.08 |   1 |#
  56 |     +3.10 |  13 |     +3.10 |   1 |#
  57 |     +3.10 |  52 |     +3.32 |   3 |###
  58 |     +3.12 |  90 |     +3.20 |   2 |##
  59 |     +3.15 |  36 |     +3.21 |   2 |##
  60 |     +3.16 |  42 |     +3.16 |   1 |#
  61 |     +3.20 |  53 |     +3.20 |   1 |#
  62 |     +3.30 |  33 |     +3.67 |   2 |##
  63 |     +3.41 |  41 |     +3.41 |   1 |#
  64 |     +3.44 |  67 |     +3.44 |   1 |#
  65 |     +3.45 |  74 |     +3.45 |   1 |#
  66 |     +3.47 |   9 |     +3.47 |   1 |#
  67 |     +3.55 |  44 |     +3.55 |   1 |#
  68 |     +3.58 |  28 |     +3.58 |   1 |#
  69 |     +3.60 |  78 |     +3.60 |   1 |#
  70 |     +3.63 |  11 |     +3.63 |   1 |#
  71 |     +3.68 |  21 |     +3.68 |   1 |#
  72 |     +3.68 |  32 |     +3.68 |   1 |#
  73 |     +3.72 |  35 |     +3.72 |   1 |#
  74 |     +3.75 |  77 |     +3.75 |   1 |#
  75 |     +3.84 |  10 |     +3.84 |   1 |#
  76 |     +3.90 |  50 |     +3.90 |   1 |#
  77 |     +3.92 |  55 |     +3.92 |   1 |#
  78 |     +3.95 |  18 |     +3.95 |   1 |#
  79 |     +3.95 |  30 |     +3.95 |   1 |#
  80 |     +4.00 |  76 |     +4.00 |   1 |#
  81 |     +4.09 |  72 |     +4.09 |   1 |#
  82 |     +4.16 |  85 |     +4.16 |   1 |#
  83 |     +4.16 |  46 |     +4.16 |   1 |#
  84 |     +4.21 |  19 |     +4.21 |   1 |#
  85 |     +4.37 |  89 |     +4.37 |   1 |#
  86 |     +4.42 |  27 |     +4.42 |   1 |#
  87 |     +4.64 |   6 |     +4.64 |   1 |#
  88 |     +4.69 |  56 |     +4.69 |   1 |#
_____|___________|_____|___________|_____|______________________________________


Number of multi-member conformational clusters found = 10, out of 100 runs.

	RMSD TABLE
	__________

_____________________________________________________________________
     |      |      |           |         |                 |
Rank | Sub- | Run  | Binding   | Cluster | Reference       | Grep
     | Rank |      | Energy    | RMSD    | RMSD            | Pattern
_____|______|______|___________|_________|_________________|___________
   1      1     12       -0.56      0.00     18.12           RANKING
   2      1     48       -0.40      0.00     16.91           RANKING
   2      2     26       +1.52      1.59     16.69           RANKING
   3      1     39       +0.12      0.00     17.86           RANKING
   4      1     87       +0.13      0.00     13.74           RANKING
   4      2     64       +2.62      1.68     14.93           RANKING
   5      1     66       +1.22      0.00     12.94           RANKING
   6      1     98       +1.24      0.00     13.56           RANKING
   7      1      8       +1.26      0.00     14.74           RANKING
   7      2     94       +1.74      1.95     15.12           RANKING
   8      1     23       +1.30      0.00     10.52           RANKING
   9      1     49       +1.60      0.00     20.58           RANKING
  10      1      7       +1.74      0.00     14.79           RANKING
  11      1     96       +1.75      0.00     16.87           RANKING
  12      1     82       +1.84      0.00     15.46           RANKING
  13      1     54       +1.86      0.00     15.36           RANKING
  14      1     68       +1.87      0.00     16.57           RANKING
  15      1     92       +1.89      0.00     14.53           RANKING
  16      1     29       +1.97      0.00     13.89           RANKING
  17      1     95       +2.01      0.00     17.11           RANKING
  18      1     16       +2.10      0.00     16.83           RANKING
  19      1     22       +2.10      0.00     17.97           RANKING
  19      2     24       +4.10      1.97     18.80           RANKING
  20      1     45       +2.15      0.00     16.05           RANKING
  21      1     37       +2.16      0.00     16.11           RANKING
  22      1     86       +2.18      0.00     14.63           RANKING
  23      1     99       +2.23      0.00     14.43           RANKING
  24      1     20       +2.24      0.00     17.50           RANKING
  25      1     31       +2.25      0.00     18.22           RANKING
  26      1     84       +2.25      0.00     14.63           RANKING
  27      1     60       +2.26      0.00     14.46           RANKING
  28      1      5       +2.31      0.00     15.56           RANKING
  29      1     40       +2.32      0.00     14.47           RANKING
  30      1     25       +2.35      0.00     19.83           RANKING
  31      1     75       +2.35      0.00     11.51           RANKING
  32      1     62       +2.44      0.00     16.44           RANKING
  33      1     79       +2.44      0.00     12.76           RANKING
  34      1     71       +2.45      0.00     10.94           RANKING
  35      1     57       +2.46      0.00     10.66           RANKING
  36      1     51       +2.48      0.00     19.77           RANKING
  37      1     59       +2.51      0.00     17.46           RANKING
  38      1     69       +2.70      0.00     14.19           RANKING
  39      1     43       +2.74      0.00     19.75           RANKING
  40      1     81       +2.75      0.00     16.50           RANKING
  41      1     65       +2.76      0.00     19.04           RANKING
  42      1     58       +2.76      0.00     11.33           RANKING
  43      1     14       +2.76      0.00     17.46           RANKING
  44      1     83       +2.81      0.00     18.87           RANKING
  44      2     73       +2.96      1.80     19.13           RANKING
  45      1     47       +2.84      0.00     14.21           RANKING
  46      1     70       +2.88      0.00     14.01           RANKING
  47      1     97       +2.90      0.00     17.49           RANKING
  48      1     17       +2.90      0.00     15.67           RANKING
  48      2     63       +3.56      1.67     15.60           RANKING
  48      3     34       +3.61      1.80     15.11           RANKING
  49      1     91       +2.91      0.00     13.93           RANKING
  50      1      4       +2.91      0.00     17.92           RANKING
  51      1      3       +2.97      0.00     15.16           RANKING
  52      1      2       +2.99      0.00     16.74           RANKING
  53      1      1       +3.02      0.00     16.16           RANKING
  54      1     88       +3.07      0.00     19.21           RANKING
  55      1    100       +3.08      0.00     17.86           RANKING
  56      1     13       +3.10      0.00     14.44           RANKING
  57      1     52       +3.10      0.00     16.49           RANKING
  57      2     15       +3.18      1.73     16.41           RANKING
  57      3     61       +3.68      1.89     16.87           RANKING
  58      1     90       +3.12      0.00     16.19           RANKING
  58      2     80       +3.27      1.89     16.60           RANKING
  59      1     36       +3.15      0.00     13.03           RANKING
  59      2     93       +3.27      1.57     12.90           RANKING
  60      1     42       +3.16      0.00     11.02           RANKING
  61      1     53       +3.20      0.00     17.62           RANKING
  62      1     33       +3.30      0.00     14.89           RANKING
  62      2     38       +4.03      1.97     14.34           RANKING
  63      1     41       +3.41      0.00     20.18           RANKING
  64      1     67       +3.44      0.00     14.13           RANKING
  65      1     74       +3.45      0.00     22.61           RANKING
  66      1      9       +3.47      0.00     16.15           RANKING
  67      1     44       +3.55      0.00     15.27           RANKING
  68      1     28       +3.58      0.00     19.11           RANKING
  69      1     78       +3.60      0.00     19.99           RANKING
  70      1     11       +3.63      0.00     10.54           RANKING
  71      1     21       +3.68      0.00     13.78           RANKING
  72      1     32       +3.68      0.00     16.74           RANKING
  73      1     35       +3.72      0.00     22.32           RANKING
  74      1     77       +3.75      0.00     16.03           RANKING
  75      1     10       +3.84      0.00     20.02           RANKING
  76      1     50       +3.90      0.00     21.02           RANKING
  77      1     55       +3.92      0.00     25.14           RANKING
  78      1     18       +3.95      0.00     24.08           RANKING
  79      1     30       +3.95      0.00     18.04           RANKING
  80      1     76       +4.00      0.00     16.23           RANKING
  81      1     72       +4.09      0.00     15.55           RANKING
  82      1     85       +4.16      0.00     16.24           RANKING
  83      1     46       +4.16      0.00     16.41           RANKING
  84      1     19       +4.21      0.00     19.77           RANKING
  85      1     89       +4.37      0.00     15.29           RANKING
  86      1     27       +4.42      0.00     13.85           RANKING
  87      1      6       +4.64      0.00     21.94           RANKING
  88      1     56       +4.69      0.00     13.63           RANKING
_______________________________________________________________________



	INFORMATION ENTROPY ANALYSIS FOR THIS CLUSTERING
	________________________________________________


Information entropy for this clustering = 0.96  (rmstol = 2.00 Angstrom)

_______________________________________________________________________


	STATISTICAL MECHANICAL ANALYSIS
	_______________________________


Partition function, Q =    99.53            at Temperature, T = 298.15 K
Free energy,        A ~ -2725.68 kcal/mol   at Temperature, T = 298.15 K
Internal energy,    U =     2.79 kcal/mol   at Temperature, T = 298.15 K
Entropy,            S =     9.15 kcal/mol/K at Temperature, T = 298.15 K

_______________________________________________________________________


	LOWEST ENERGY DOCKED CONFORMATION from EACH CLUSTER
	___________________________________________________



Keeping original residue number (specified in the input PDBQ file) for outputting.

MODEL       12
USER    Run = 12
USER    Cluster Rank = 1
USER    Number of conformations in this cluster = 1
USER  
USER    RMSD from reference structure       = 18.124 A
USER  
USER    Estimated Free Energy of Binding    =   -0.56 kcal/mol  [=(1)+(2)+(3)-(4)]
USER    Estimated Inhibition Constant, Ki   =  389.49 mM (millimolar)  [Temperature = 298.15 K]
USER    
USER    (1) Final Intermolecular Energy     =   -7.72 kcal/mol
USER        vdW + Hbond + desolv Energy     =   -7.21 kcal/mol
USER        Electrostatic Energy            =   -0.51 kcal/mol
USER    (2) Final Total Internal Energy     =  -13.19 kcal/mol
USER    (3) Torsional Free Energy           =   +7.16 kcal/mol
USER    (4) Unbound System's Energy  [=(2)] =  -13.19 kcal/mol
USER    
USER    
USER  
USER    DPF = D:/Protein_go_brrr/autodock/final/AncA/IHP/dock.dpf
USER    NEWDPF move	IHP_ideal_opt.pdbqt
USER    NEWDPF about	0.035000 0.082000 -0.065000
USER    NEWDPF tran0	11.562519 -0.893687 -16.201364
USER    NEWDPF axisangle0	0.658366 -0.605492 0.447140 92.484015
USER    NEWDPF quaternion0	0.475516 -0.437327 0.322955 0.691614
USER    NEWDPF dihe0	-131.50 39.68 171.25 123.81 6.07 180.00 -19.94 156.78 104.96 89.45 142.47 90.81 -128.12 105.21 -29.26 148.02 42.67 92.27 -25.54 -34.35 154.04 -48.18 22.53 -50.26 
USER  
USER                              x       y       z    vdW   Elec        q     RMS 
ATOM      1  C   UNL d   1      12.769  -1.979 -15.609 -0.08 -0.00    +0.194    18.124
ATOM      2  C   UNL d   1      11.897  -1.314 -14.542 -0.14 +0.00    +0.194    18.124
ATOM      3  C   UNL d   1      11.684   0.174 -14.832 -0.16 +0.03    +0.194    18.124
ATOM      4  C   UNL d   1      11.174   0.444 -16.245 -0.11 +0.05    +0.194    18.124
ATOM      5  C   UNL d   1      11.944  -0.292 -17.334 -0.03 +0.03    +0.194    18.124
ATOM      6  C   UNL d   1      12.211  -1.764 -17.016 -0.02 +0.01    +0.194    18.124
ATOM      7  O   UNL d   1      12.777  -3.387 -15.364 -0.11 +0.03    -0.278    18.124
ATOM      8  P   UNL d   1      14.090  -4.216 -15.739 -0.03 -0.06    +0.473    18.124
ATOM      9  O   UNL d   1      14.269  -4.491 -17.191 -0.02 +0.00    -0.228    18.124
ATOM     10  O   UNL d   1      15.280  -3.360 -15.110 -0.08 +0.06    -0.303    18.124
ATOM     11  H   UNL d   1      15.253  -3.427 -14.137 -0.53 -0.10    +0.222    18.124
ATOM     12  O   UNL d   1      14.059  -5.490 -14.790 -0.14 +0.05    -0.303    18.124
ATOM     13  H   UNL d   1      13.325  -5.466 -14.136 -0.47 -0.05    +0.222    18.124
ATOM     14  O   UNL d   1      10.619  -1.961 -14.513 -0.10 -0.01    -0.278    18.124
ATOM     15  P   UNL d   1      10.414  -3.091 -13.397 -0.22 +0.04    +0.473    18.124
ATOM     16  O   UNL d   1       9.002  -3.451 -13.058 -0.79 -0.03    -0.228    18.124
ATOM     17  O   UNL d   1      11.254  -4.330 -13.942 -0.30 +0.01    -0.303    18.124
ATOM     18  H   UNL d   1      12.211  -4.188 -13.817 -0.33 -0.05    +0.222    18.124
ATOM     19  O   UNL d   1      11.311  -2.609 -12.176 -0.87 -0.03    -0.303    18.124
ATOM     20  H   UNL d   1      10.991  -1.767 -11.803 +0.06 -0.00    +0.222    18.124
ATOM     21  O   UNL d   1      13.207  -2.210 -17.934 -0.01 -0.01    -0.278    18.124
ATOM     22  P   UNL d   1      14.562  -1.383 -18.094 -0.00 +0.03    +0.473    18.124
ATOM     23  O   UNL d   1      14.750  -0.167 -17.252 -0.03 -0.02    -0.228    18.124
ATOM     24  O   UNL d   1      15.661  -2.515 -17.886 -0.00 -0.01    -0.303    18.124
ATOM     25  H   UNL d   1      15.537  -2.903 -16.982 +0.02 +0.00    +0.222    18.124
ATOM     26  O   UNL d   1      14.619  -1.156 -19.680 -0.00 -0.02    -0.303    18.124
ATOM     27  H   UNL d   1      13.791  -1.488 -20.083 +0.00 +0.02    +0.222    18.124
ATOM     28  O   UNL d   1      10.656   0.636 -13.965 -0.17 -0.04    -0.278    18.124
ATOM     29  P   UNL d   1      10.858   0.598 -12.385 -0.26 +0.04    +0.473    18.124
ATOM     30  O   UNL d   1      10.734   1.906 -11.692 -0.56 -0.04    -0.228    18.124
ATOM     31  O   UNL d   1       9.797  -0.535 -11.995 -0.25 -0.02    -0.303    18.124
ATOM     32  H   UNL d   1       9.740  -1.180 -12.737 +0.14 +0.02    +0.222    18.124
ATOM     33  O   UNL d   1      12.251  -0.162 -12.245 -0.26 +0.03    -0.303    18.124
ATOM     34  H   UNL d   1      12.224  -0.736 -11.441 -0.43 -0.09    +0.222    18.124
ATOM     35  O   UNL d   1      11.110  -0.256 -18.490 -0.01 -0.05    -0.278    18.124
ATOM     36  P   UNL d   1      11.751  -0.325 -19.948 +0.00 +0.06    +0.473    18.124
ATOM     37  O   UNL d   1      11.984  -1.702 -20.486 -0.00 -0.02    -0.228    18.124
ATOM     38  O   UNL d   1      10.723   0.545 -20.799 +0.00 -0.05    -0.303    18.124
ATOM     39  H   UNL d   1      10.384   1.277 -20.240 +0.01 +0.05    +0.222    18.124
ATOM     40  O   UNL d   1      13.024   0.618 -19.805 -0.01 -0.04    -0.303    18.124
ATOM     41  H   UNL d   1      13.543   0.409 -18.997 +0.02 +0.03    +0.222    18.124
ATOM     42  O   UNL d   1      11.342   1.846 -16.485 -0.13 -0.12    -0.278    18.124
ATOM     43  P   UNL d   1      10.515   2.531 -17.665 -0.09 +0.35    +0.473    18.124
ATOM     44  O   UNL d   1       9.913   3.866 -17.396 -0.65 -0.40    -0.228    18.124
ATOM     45  O   UNL d   1      11.552   2.515 -18.872 -0.05 -0.11    -0.303    18.124
ATOM     46  H   UNL d   1      11.711   1.606 -19.195 +0.02 +0.06    +0.222    18.124
ATOM     47  O   UNL d   1       9.486   1.383 -18.104 -0.07 -0.18    -0.303    18.124
ATOM     48  H   UNL d   1       9.892   0.838 -18.810 +0.02 +0.08    +0.222    18.124
TER
ENDMDL
MODEL       48
USER    Run = 48
USER    Cluster Rank = 2
USER    Number of conformations in this cluster = 2
USER  
USER    RMSD from reference structure       = 16.910 A
USER  
USER    Estimated Free Energy of Binding    =   -0.40 kcal/mol  [=(1)+(2)+(3)-(4)]
USER    Estimated Inhibition Constant, Ki   =  506.50 mM (millimolar)  [Temperature = 298.15 K]
USER    
USER    (1) Final Intermolecular Energy     =   -7.56 kcal/mol
USER        vdW + Hbond + desolv Energy     =   -7.66 kcal/mol
USER        Electrostatic Energy            =   +0.10 kcal/mol
USER    (2) Final Total Internal Energy     =  -12.64 kcal/mol
USER    (3) Torsional Free Energy           =   +7.16 kcal/mol
USER    (4) Unbound System's Energy  [=(2)] =  -12.64 kcal/mol
USER    
USER    
USER  
USER    DPF = D:/Protein_go_brrr/autodock/final/AncA/IHP/dock.dpf
USER    NEWDPF move	IHP_ideal_opt.pdbqt
USER    NEWDPF about	0.035000 0.082000 -0.065000
USER    NEWDPF tran0	11.440593 -0.259284 -15.525127
USER    NEWDPF axisangle0	-0.795688 -0.512935 -0.322148 -95.395297
USER    NEWDPF quaternion0	-0.588493 -0.379368 -0.238262 -0.673043
USER    NEWDPF dihe0	180.00 100.08 18.57 153.54 51.55 -143.82 14.03 -75.22 116.15 -18.11 88.06 142.21 89.50 -21.59 140.53 -147.57 -116.86 30.79 4.70 -37.35 -9.86 16.38 -9.40 179.08 
USER  
USER                              x       y       z    vdW   Elec        q     RMS 
ATOM      1  C   UNL d   1      11.327   0.496 -13.976 -0.22 +0.03    +0.194    16.910
ATOM      2  C   UNL d   1      10.048  -0.176 -14.478 -0.14 +0.04    +0.194    16.910
ATOM      3  C   UNL d   1       9.798   0.119 -15.959 -0.11 +0.06    +0.194    16.910
ATOM      4  C   UNL d   1      11.000  -0.192 -16.846 -0.05 +0.04    +0.194    16.910
ATOM      5  C   UNL d   1      12.319   0.362 -16.321 -0.09 +0.03    +0.194    16.910
ATOM      6  C   UNL d   1      12.541   0.121 -14.827 -0.15 +0.02    +0.194    16.910
ATOM      7  O   UNL d   1      11.580   0.035 -12.646 -0.23 -0.01    -0.278    16.910
ATOM      8  P   UNL d   1      11.581   1.104 -11.459 -0.28 +0.04    +0.473    16.910
ATOM      9  O   UNL d   1      10.964   0.636 -10.188 -0.24 +0.03    -0.228    16.910
ATOM     10  O   UNL d   1      13.117   1.504 -11.301 -0.94 -0.06    -0.303    16.910
ATOM     11  H   UNL d   1      13.593   1.308 -12.129 +0.12 +0.02    +0.222    16.910
ATOM     12  O   UNL d   1      10.957   2.422 -12.090 -0.40 -0.08    -0.303    16.910
ATOM     13  H   UNL d   1      10.074   2.273 -12.497 -0.38 -0.01    +0.222    16.910
ATOM     14  O   UNL d   1      10.168  -1.594 -14.310 -0.10 -0.01    -0.278    16.910
ATOM     15  P   UNL d   1       9.562  -2.208 -12.961 -0.22 +0.05    +0.473    16.910
ATOM     16  O   UNL d   1       8.336  -1.547 -12.413 -0.27 -0.02    -0.228    16.910
ATOM     17  O   UNL d   1       9.332  -3.747 -13.304 -0.90 -0.05    -0.303    16.910
ATOM     18  H   UNL d   1       8.532  -3.869 -13.850 -0.43 -0.05    +0.222    16.910
ATOM     19  O   UNL d   1      10.802  -2.285 -11.967 -1.00 -0.04    -0.303    16.910
ATOM     20  H   UNL d   1      10.862  -1.491 -11.403 -0.05 -0.02    +0.222    16.910
ATOM     21  O   UNL d   1      13.612   0.973 -14.426 -0.17 -0.03    -0.278    16.910
ATOM     22  P   UNL d   1      15.008   0.337 -13.989 -0.14 -0.05    +0.473    16.910
ATOM     23  O   UNL d   1      16.166   1.254 -13.781 -0.15 +0.01    -0.228    16.910
ATOM     24  O   UNL d   1      14.592  -0.514 -12.710 -0.21 +0.14    -0.303    16.910
ATOM     25  H   UNL d   1      13.689  -0.222 -12.426 +0.09 -0.05    +0.222    16.910
ATOM     26  O   UNL d   1      15.207  -0.806 -15.096 -0.06 +0.02    -0.303    16.910
ATOM     27  H   UNL d   1      14.949  -0.453 -15.972 +0.04 +0.01    +0.222    16.910
ATOM     28  O   UNL d   1       8.767  -0.754 -16.401 -0.03 -0.05    -0.278    16.910
ATOM     29  P   UNL d   1       7.477  -0.171 -17.133 -0.02 +0.14    +0.473    16.910
ATOM     30  O   UNL d   1       6.401  -1.156 -17.416 -0.07 +0.01    -0.228    16.910
ATOM     31  O   UNL d   1       7.117   1.035 -16.145 -0.26 -0.29    -0.303    16.910
ATOM     32  H   UNL d   1       7.842   1.701 -16.185 +0.03 +0.41    +0.222    16.910
ATOM     33  O   UNL d   1       8.114   0.578 -18.385 -0.02 -0.13    -0.303    16.910
ATOM     34  H   UNL d   1       9.082   0.702 -18.227 +0.03 +0.10    +0.222    16.910
ATOM     35  O   UNL d   1      13.341  -0.347 -17.018 -0.03 -0.03    -0.278    16.910
ATOM     36  P   UNL d   1      14.408   0.443 -17.903 -0.02 +0.05    +0.473    16.910
ATOM     37  O   UNL d   1      13.888   1.006 -19.188 -0.02 -0.03    -0.228    16.910
ATOM     38  O   UNL d   1      14.939   1.537 -16.876 -0.08 -0.04    -0.303    16.910
ATOM     39  H   UNL d   1      15.130   1.104 -16.016 +0.04 +0.02    +0.222    16.910
ATOM     40  O   UNL d   1      15.604  -0.600 -18.004 -0.01 -0.02    -0.303    16.910
ATOM     41  H   UNL d   1      15.959  -0.835 -17.118 +0.02 +0.01    +0.222    16.910
ATOM     42  O   UNL d   1      10.755   0.432 -18.111 -0.02 -0.08    -0.278    16.910
ATOM     43  P   UNL d   1      10.751   2.025 -18.197 -0.09 +0.23    +0.473    16.910
ATOM     44  O   UNL d   1      12.070   2.717 -18.182 +0.02 -0.08    -0.228    16.910
ATOM     45  O   UNL d   1       9.886   2.301 -19.504 -0.03 -0.13    -0.303    16.910
ATOM     46  H   UNL d   1       9.390   1.505 -19.780 +0.02 +0.08    +0.222    16.910
ATOM     47  O   UNL d   1       9.732   2.452 -17.036 -0.46 -0.40    -0.303    16.910
ATOM     48  H   UNL d   1       8.982   1.822 -17.017 +0.03 +0.28    +0.222    16.910
TER
ENDMDL
MODEL       39
USER    Run = 39
USER    Cluster Rank = 3
USER    Number of conformations in this cluster = 1
USER  
USER    RMSD from reference structure       = 17.861 A
USER  
USER    Estimated Free Energy of Binding    =   +0.12 kcal/mol  [=(1)+(2)+(3)-(4)]
USER    
USER    (1) Final Intermolecular Energy     =   -7.04 kcal/mol
USER        vdW + Hbond + desolv Energy     =   -6.36 kcal/mol
USER        Electrostatic Energy            =   -0.69 kcal/mol
USER    (2) Final Total Internal Energy     =  -14.21 kcal/mol
USER    (3) Torsional Free Energy           =   +7.16 kcal/mol
USER    (4) Unbound System's Energy  [=(2)] =  -14.21 kcal/mol
USER    
USER    
USER  
USER    DPF = D:/Protein_go_brrr/autodock/final/AncA/IHP/dock.dpf
USER    NEWDPF move	IHP_ideal_opt.pdbqt
USER    NEWDPF about	0.035000 0.082000 -0.065000
USER    NEWDPF tran0	10.888472 -1.133717 -16.518213
USER    NEWDPF axisangle0	-0.668655 0.021212 -0.743271 161.470056
USER    NEWDPF quaternion0	-0.659932 0.020936 -0.733574 0.161000
USER    NEWDPF dihe0	166.34 36.59 -180.00 -18.73 145.41 174.46 -27.65 -160.24 171.61 -2.70 39.43 154.03 23.18 175.58 39.38 -51.67 -23.70 169.05 -4.52 16.79 -24.89 4.49 166.75 -6.65 
USER  
USER                              x       y       z    vdW   Elec        q     RMS 
ATOM      1  C   UNL d   1      11.787  -0.224 -15.357 -0.10 +0.03    +0.194    17.861
ATOM      2  C   UNL d   1      11.740   0.367 -16.767 -0.08 +0.04    +0.194    17.861
ATOM      3  C   UNL d   1      11.940  -0.707 -17.838 -0.02 +0.02    +0.194    17.861
ATOM      4  C   UNL d   1      10.997  -1.897 -17.680 -0.00 +0.01    +0.194    17.861
ATOM      5  C   UNL d   1      10.925  -2.447 -16.261 -0.04 -0.00    +0.194    17.861
ATOM      6  C   UNL d   1      10.787  -1.368 -15.185 -0.08 +0.01    +0.194    17.861
ATOM      7  O   UNL d   1      11.423   0.803 -14.431 -0.19 -0.05    -0.278    17.861
ATOM      8  P   UNL d   1      12.404   1.104 -13.207 -0.24 +0.07    +0.473    17.861
ATOM      9  O   UNL d   1      13.644   1.848 -13.560 -0.16 -0.05    -0.228    17.861
ATOM     10  O   UNL d   1      11.486   1.878 -12.156 -0.73 -0.08    -0.303    17.861
ATOM     11  H   UNL d   1      10.557   1.851 -12.452 -0.33 +0.02    +0.222    17.861
ATOM     12  O   UNL d   1      12.617  -0.299 -12.493 -0.26 +0.03    -0.303    17.861
ATOM     13  H   UNL d   1      12.024  -1.003 -12.842 +0.11 -0.01    +0.222    17.861
ATOM     14  O   UNL d   1      10.464   0.986 -16.972 -0.10 -0.12    -0.278    17.861
ATOM     15  P   UNL d   1      10.433   2.260 -17.941 -0.12 +0.31    +0.473    17.861
ATOM     16  O   UNL d   1       9.762   3.490 -17.413 -0.70 -0.41    -0.228    17.861
ATOM     17  O   UNL d   1      11.964   2.503 -18.310 -0.05 -0.11    -0.303    17.861
ATOM     18  H   UNL d   1      12.239   1.938 -19.058 +0.02 +0.05    +0.222    17.861
ATOM     19  O   UNL d   1       9.858   1.701 -19.314 -0.02 -0.12    -0.303    17.861
ATOM     20  H   UNL d   1      10.539   1.224 -19.823 +0.02 +0.06    +0.222    17.861
ATOM     21  O   UNL d   1      11.076  -1.992 -13.936 -0.18 -0.00    -0.278    17.861
ATOM     22  P   UNL d   1      10.041  -1.866 -12.729 -0.25 +0.05    +0.473    17.861
ATOM     23  O   UNL d   1       8.737  -2.581 -12.841 -0.37 -0.02    -0.228    17.861
ATOM     24  O   UNL d   1      10.936  -2.299 -11.486 -1.00 -0.03    -0.303    17.861
ATOM     25  H   UNL d   1      11.499  -1.525 -11.227 -0.30 -0.07    +0.222    17.861
ATOM     26  O   UNL d   1       9.956  -0.276 -12.538 -0.21 -0.03    -0.303    17.861
ATOM     27  H   UNL d   1      10.537   0.158 -13.195 +0.12 +0.02    +0.222    17.861
ATOM     28  O   UNL d   1      11.608  -0.127 -19.093 -0.01 -0.04    -0.278    17.861
ATOM     29  P   UNL d   1      12.725   0.061 -20.214 -0.00 +0.06    +0.473    17.861
ATOM     30  O   UNL d   1      13.647   1.207 -20.013 -0.02 -0.03    -0.228    17.861
ATOM     31  O   UNL d   1      13.373  -1.403 -20.208 -0.00 -0.03    -0.303    17.861
ATOM     32  H   UNL d   1      12.706  -2.040 -19.863 +0.00 +0.02    +0.222    17.861
ATOM     33  O   UNL d   1      11.860   0.057 -21.551 -0.00 -0.04    -0.303    17.861
ATOM     34  H   UNL d   1      11.930  -0.832 -21.976 +0.00 +0.02    +0.222    17.861
ATOM     35  O   UNL d   1       9.741  -3.241 -16.214 -0.08 +0.05    -0.278    17.861
ATOM     36  P   UNL d   1       8.312  -2.570 -16.446 -0.03 -0.13    +0.473    17.861
ATOM     37  O   UNL d   1       8.325  -1.257 -17.163 -0.03 -0.01    -0.228    17.861
ATOM     38  O   UNL d   1       7.529  -3.726 -17.211 -0.07 +0.21    -0.303    17.861
ATOM     39  H   UNL d   1       6.935  -4.185 -16.578 -0.40 -0.32    +0.222    17.861
ATOM     40  O   UNL d   1       7.687  -2.587 -14.983 -0.15 +0.13    -0.303    17.861
ATOM     41  H   UNL d   1       7.835  -3.449 -14.534 -0.38 -0.17    +0.222    17.861
ATOM     42  O   UNL d   1      11.507  -2.944 -18.512 -0.00 -0.01    -0.278    17.861
ATOM     43  P   UNL d   1      10.610  -3.478 -19.717 +0.01 +0.01    +0.473    17.861
ATOM     44  O   UNL d   1      10.695  -4.928 -20.047 -0.00 -0.00    -0.228    17.861
ATOM     45  O   UNL d   1       9.152  -2.987 -19.311 -0.00 +0.01    -0.303    17.861
ATOM     46  H   UNL d   1       9.028  -2.996 -18.341 +0.03 -0.02    +0.222    17.861
ATOM     47  O   UNL d   1      10.970  -2.475 -20.915 +0.00 -0.02    -0.303    17.861
ATOM     48  H   UNL d   1      11.250  -1.614 -20.541 +0.00 +0.02    +0.222    17.861
TER
ENDMDL
MODEL       87
USER    Run = 87
USER    Cluster Rank = 4
USER    Number of conformations in this cluster = 2
USER  
USER    RMSD from reference structure       = 13.741 A
USER  
USER    Estimated Free Energy of Binding    =   +0.13 kcal/mol  [=(1)+(2)+(3)-(4)]
USER    
USER    (1) Final Intermolecular Energy     =   -7.03 kcal/mol
USER        vdW + Hbond + desolv Energy     =   -6.66 kcal/mol
USER        Electrostatic Energy            =   -0.37 kcal/mol
USER    (2) Final Total Internal Energy     =  -12.72 kcal/mol
USER    (3) Torsional Free Energy           =   +7.16 kcal/mol
USER    (4) Unbound System's Energy  [=(2)] =  -12.72 kcal/mol
USER    
USER    
USER  
USER    DPF = D:/Protein_go_brrr/autodock/final/AncA/IHP/dock.dpf
USER    NEWDPF move	IHP_ideal_opt.pdbqt
USER    NEWDPF about	0.035000 0.082000 -0.065000
USER    NEWDPF tran0	-10.662494 -13.451427 -3.115980
USER    NEWDPF axisangle0	0.198624 -0.176053 -0.964134 -118.758647
USER    NEWDPF quaternion0	0.170928 -0.151504 -0.829693 -0.509352
USER    NEWDPF dihe0	63.53 103.22 180.00 114.47 -19.44 -149.11 -41.17 54.10 73.24 -3.88 -22.94 -94.31 -79.92 -74.78 -47.62 119.53 -135.80 -44.16 -142.86 -35.94 25.97 60.02 -32.75 -167.99 
USER  
USER                              x       y       z    vdW   Elec        q     RMS 
ATOM      1  C   UNL d   1     -12.243 -14.128  -2.947 -0.15 +0.04    +0.194    13.741
ATOM      2  C   UNL d   1     -12.192 -12.687  -3.459 -0.19 +0.03    +0.194    13.741
ATOM      3  C   UNL d   1     -11.177 -11.846  -2.682 -0.18 +0.04    +0.194    13.741
ATOM      4  C   UNL d   1      -9.792 -12.485  -2.616 -0.15 +0.09    +0.194    13.741
ATOM      5  C   UNL d   1      -9.805 -13.956  -2.221 -0.13 +0.10    +0.194    13.741
ATOM      6  C   UNL d   1     -10.862 -14.784  -2.953 -0.10 +0.08    +0.194    13.741
ATOM      7  O   UNL d   1     -13.078 -14.884  -3.828 -0.06 -0.06    -0.278    13.741
ATOM      8  P   UNL d   1     -12.388 -15.696  -5.018 -0.04 +0.12    +0.473    13.741
ATOM      9  O   UNL d   1     -11.110 -15.120  -5.516 -0.10 -0.08    -0.228    13.741
ATOM     10  O   UNL d   1     -12.227 -17.173  -4.436 -0.01 -0.09    -0.303    13.741
ATOM     11  H   UNL d   1     -11.338 -17.276  -4.047 +0.03 +0.08    +0.222    13.741
ATOM     12  O   UNL d   1     -13.532 -15.889  -6.103 -0.03 -0.06    -0.303    13.741
ATOM     13  H   UNL d   1     -13.913 -15.038  -6.418 +0.05 +0.04    +0.222    13.741
ATOM     14  O   UNL d   1     -11.815 -12.695  -4.841 -0.12 -0.06    -0.278    13.741
ATOM     15  P   UNL d   1     -13.008 -12.642  -5.908 -0.16 +0.05    +0.473    13.741
ATOM     16  O   UNL d   1     -14.367 -13.033  -5.417 -0.08 -0.02    -0.228    13.741
ATOM     17  O   UNL d   1     -12.959 -11.153  -6.471 -0.22 +0.01    -0.303    13.741
ATOM     18  H   UNL d   1     -12.306 -11.070  -7.192 -0.46 -0.07    +0.222    13.741
ATOM     19  O   UNL d   1     -12.464 -13.471  -7.152 -0.25 -0.03    -0.303    13.741
ATOM     20  H   UNL d   1     -12.178 -14.366  -6.892 +0.02 +0.03    +0.222    13.741
ATOM     21  O   UNL d   1     -10.982 -16.017  -2.247 -0.03 -0.11    -0.278    13.741
ATOM     22  P   UNL d   1      -9.862 -17.140  -2.419 +0.00 +0.24    +0.473    13.741
ATOM     23  O   UNL d   1      -8.944 -17.046  -3.590 -0.06 -0.15    -0.228    13.741
ATOM     24  O   UNL d   1      -9.141 -17.101  -1.000 +0.00 -0.18    -0.303    13.741
ATOM     25  H   UNL d   1      -8.448 -16.393  -1.027 +0.03 +0.18    +0.222    13.741
ATOM     26  O   UNL d   1     -10.730 -18.484  -2.312 +0.00 -0.11    -0.303    13.741
ATOM     27  H   UNL d   1     -11.595 -18.344  -2.747 +0.01 +0.07    +0.222    13.741
ATOM     28  O   UNL d   1     -10.997 -10.627  -3.393 -0.27 -0.04    -0.278    13.741
ATOM     29  P   UNL d   1     -10.172  -9.431  -2.742 -0.32 +0.08    +0.473    13.741
ATOM     30  O   UNL d   1      -8.728  -9.385  -3.089 -0.31 -0.07    -0.228    13.741
ATOM     31  O   UNL d   1     -11.070  -8.189  -3.203 -0.37 -0.03    -0.303    13.741
ATOM     32  H   UNL d   1     -11.912  -8.534  -3.579 -0.21 -0.01    +0.222    13.741
ATOM     33  O   UNL d   1     -10.536  -9.574  -1.198 -0.33 -0.05    -0.303    13.741
ATOM     34  H   UNL d   1      -9.724  -9.837  -0.699 +0.12 +0.06    +0.222    13.741
ATOM     35  O   UNL d   1      -8.530 -14.470  -2.602 -0.12 -0.25    -0.278    13.741
ATOM     36  P   UNL d   1      -7.362 -14.604  -1.524 -0.05 +0.66    +0.473    13.741
ATOM     37  O   UNL d   1      -6.453 -13.422  -1.407 -0.25 -0.37    -0.228    13.741
ATOM     38  O   UNL d   1      -8.179 -14.936  -0.197 -0.04 -0.30    -0.303    13.741
ATOM     39  H   UNL d   1      -9.132 -15.013  -0.418 +0.05 +0.16    +0.222    13.741
ATOM     40  O   UNL d   1      -6.693 -15.992  -1.919 -0.59 -0.57    -0.303    13.741
ATOM     41  H   UNL d   1      -7.368 -16.688  -2.083 +0.03 +0.26    +0.222    13.741
ATOM     42  O   UNL d   1      -9.059 -11.784  -1.605 -0.18 -0.14    -0.278    13.741
ATOM     43  P   UNL d   1      -9.296 -12.168  -0.075 -0.17 +0.29    +0.473    13.741
ATOM     44  O   UNL d   1     -10.252 -13.273   0.216 -0.60 -0.15    -0.228    13.741
ATOM     45  O   UNL d   1      -7.817 -12.431   0.451 -0.47 -0.30    -0.303    13.741
ATOM     46  H   UNL d   1      -7.592 -13.382   0.426 +0.08 +0.26    +0.222    13.741
ATOM     47  O   UNL d   1      -9.639 -10.759   0.608 -0.44 -0.13    -0.303    13.741
ATOM     48  H   UNL d   1     -10.594 -10.571   0.497 +0.12 +0.07    +0.222    13.741
TER
ENDMDL
MODEL       66
USER    Run = 66
USER    Cluster Rank = 5
USER    Number of conformations in this cluster = 1
USER  
USER    RMSD from reference structure       = 12.945 A
USER  
USER    Estimated Free Energy of Binding    =   +1.22 kcal/mol  [=(1)+(2)+(3)-(4)]
USER    
USER    (1) Final Intermolecular Energy     =   -5.94 kcal/mol
USER        vdW + Hbond + desolv Energy     =   -5.58 kcal/mol
USER        Electrostatic Energy            =   -0.36 kcal/mol
USER    (2) Final Total Internal Energy     =  -14.07 kcal/mol
USER    (3) Torsional Free Energy           =   +7.16 kcal/mol
USER    (4) Unbound System's Energy  [=(2)] =  -14.07 kcal/mol
USER    
USER    
USER  
USER    DPF = D:/Protein_go_brrr/autodock/final/AncA/IHP/dock.dpf
USER    NEWDPF move	IHP_ideal_opt.pdbqt
USER    NEWDPF about	0.035000 0.082000 -0.065000
USER    NEWDPF tran0	6.360180 -7.161846 12.490003
USER    NEWDPF axisangle0	0.136169 -0.633678 0.761518 -153.373895
USER    NEWDPF quaternion0	0.132510 -0.616649 0.741053 -0.230271
USER    NEWDPF dihe0	173.01 98.08 125.46 4.04 20.05 -1.94 -16.66 -111.54 102.08 -2.83 0.80 -143.46 -49.95 70.08 -180.00 -71.44 62.17 -35.58 2.28 -35.49 -33.58 13.61 -28.74 3.31 
USER  
USER                              x       y       z    vdW   Elec        q     RMS 
ATOM      1  C   UNL d   1       5.663  -7.592  14.011 -0.08 -0.03    +0.194    12.945
ATOM      2  C   UNL d   1       7.173  -7.347  14.022 -0.10 -0.01    +0.194    12.945
ATOM      3  C   UNL d   1       7.859  -7.986  12.813 -0.09 +0.00    +0.194    12.945
ATOM      4  C   UNL d   1       7.221  -7.595  11.482 -0.16 -0.01    +0.194    12.945
ATOM      5  C   UNL d   1       5.702  -7.715  11.464 -0.18 -0.01    +0.194    12.945
ATOM      6  C   UNL d   1       5.020  -7.130  12.703 -0.12 -0.05    +0.194    12.945
ATOM      7  O   UNL d   1       5.079  -6.825  15.067 -0.07 +0.08    -0.278    12.945
ATOM      8  P   UNL d   1       4.274  -7.597  16.211 +0.01 -0.08    +0.473    12.945
ATOM      9  O   UNL d   1       4.249  -9.078  16.074 -0.00 +0.01    -0.228    12.945
ATOM     10  O   UNL d   1       4.958  -7.103  17.565 -0.00 +0.03    -0.303    12.945
ATOM     11  H   UNL d   1       5.497  -6.309  17.388 +0.02 -0.03    +0.222    12.945
ATOM     12  O   UNL d   1       2.857  -6.881  16.273 -0.03 +0.11    -0.303    12.945
ATOM     13  H   UNL d   1       2.412  -6.830  15.397 +0.06 -0.13    +0.222    12.945
ATOM     14  O   UNL d   1       7.417  -5.935  13.992 -0.12 +0.04    -0.278    12.945
ATOM     15  P   UNL d   1       7.673  -5.223  15.403 -0.06 -0.04    +0.473    12.945
ATOM     16  O   UNL d   1       8.934  -4.426  15.535 -0.09 -0.00    -0.228    12.945
ATOM     17  O   UNL d   1       6.363  -4.348  15.639 -0.15 +0.09    -0.303    12.945
ATOM     18  H   UNL d   1       5.585  -4.757  15.213 -0.42 -0.13    +0.222    12.945
ATOM     19  O   UNL d   1       7.480  -6.383  16.474 -0.03 +0.01    -0.303    12.945
ATOM     20  H   UNL d   1       6.608  -6.810  16.389 +0.03 -0.02    +0.222    12.945
ATOM     21  O   UNL d   1       3.679  -7.615  12.702 -0.12 +0.06    -0.278    12.945
ATOM     22  P   UNL d   1       2.477  -6.619  13.029 -0.21 -0.38    +0.473    12.945
ATOM     23  O   UNL d   1       1.257  -7.177  13.682 -0.25 +0.26    -0.228    12.945
ATOM     24  O   UNL d   1       3.215  -5.479  13.859 -0.24 +0.30    -0.303    12.945
ATOM     25  H   UNL d   1       3.801  -5.915  14.528 -0.08 -0.15    +0.222    12.945
ATOM     26  O   UNL d   1       2.251  -5.904  11.612 -0.91 +0.19    -0.303    12.945
ATOM     27  H   UNL d   1       1.565  -5.212  11.706 -0.43 -0.36    +0.222    12.945
ATOM     28  O   UNL d   1       9.187  -7.480  12.757 -0.06 -0.01    -0.278    12.945
ATOM     29  P   UNL d   1      10.428  -8.478  12.749 -0.00 +0.04    +0.473    12.945
ATOM     30  O   UNL d   1      11.076  -8.705  14.066 -0.01 -0.02    -0.228    12.945
ATOM     31  O   UNL d   1       9.761  -9.748  12.039 -0.00 -0.03    -0.303    12.945
ATOM     32  H   UNL d   1       9.117  -9.428  11.366 +0.02 +0.03    +0.222    12.945
ATOM     33  O   UNL d   1      11.340  -7.868  11.595 -0.01 -0.03    -0.303    12.945
ATOM     34  H   UNL d   1      10.793  -7.759  10.778 +0.03 +0.02    +0.222    12.945
ATOM     35  O   UNL d   1       5.267  -6.947  10.343 -0.27 +0.04    -0.278    12.945
ATOM     36  P   UNL d   1       4.848  -7.672   8.986 -0.13 +0.07    +0.473    12.945
ATOM     37  O   UNL d   1       3.381  -7.704   8.697 -0.35 -0.06    -0.228    12.945
ATOM     38  O   UNL d   1       5.709  -6.873   7.911 -0.12 -0.01    -0.303    12.945
ATOM     39  H   UNL d   1       6.551  -6.584   8.324 -0.48 -0.05    +0.222    12.945
ATOM     40  O   UNL d   1       5.591  -9.074   9.106 -0.07 -0.09    -0.303    12.945
ATOM     41  H   UNL d   1       6.516  -8.970   9.421 +0.06 +0.04    +0.222    12.945
ATOM     42  O   UNL d   1       7.726  -8.502  10.497 -0.07 -0.02    -0.278    12.945
ATOM     43  P   UNL d   1       8.779  -7.968   9.424 -0.08 +0.03    +0.473    12.945
ATOM     44  O   UNL d   1       9.355  -6.612   9.644 -0.19 -0.01    -0.228    12.945
ATOM     45  O   UNL d   1       9.859  -9.136   9.383 -0.01 -0.05    -0.303    12.945
ATOM     46  H   UNL d   1      10.403  -9.149  10.195 +0.02 +0.03    +0.222    12.945
ATOM     47  O   UNL d   1       8.018  -8.178   8.029 -0.08 -0.04    -0.303    12.945
ATOM     48  H   UNL d   1       7.061  -8.009   8.155 +0.07 +0.02    +0.222    12.945
TER
ENDMDL
MODEL       98
USER    Run = 98
USER    Cluster Rank = 6
USER    Number of conformations in this cluster = 1
USER  
USER    RMSD from reference structure       = 13.557 A
USER  
USER    Estimated Free Energy of Binding    =   +1.24 kcal/mol  [=(1)+(2)+(3)-(4)]
USER    
USER    (1) Final Intermolecular Energy     =   -5.92 kcal/mol
USER        vdW + Hbond + desolv Energy     =   -5.34 kcal/mol
USER        Electrostatic Energy            =   -0.58 kcal/mol
USER    (2) Final Total Internal Energy     =  -13.04 kcal/mol
USER    (3) Torsional Free Energy           =   +7.16 kcal/mol
USER    (4) Unbound System's Energy  [=(2)] =  -13.04 kcal/mol
USER    
USER    
USER  
USER    DPF = D:/Protein_go_brrr/autodock/final/AncA/IHP/dock.dpf
USER    NEWDPF move	IHP_ideal_opt.pdbqt
USER    NEWDPF about	0.035000 0.082000 -0.065000
USER    NEWDPF tran0	6.686923 -14.136792 -4.622434
USER    NEWDPF axisangle0	0.268714 -0.768854 -0.580221 144.856762
USER    NEWDPF quaternion0	0.256176 -0.732979 -0.553148 0.301898
USER    NEWDPF dihe0	77.42 -179.77 124.84 -21.01 117.53 90.64 -110.55 19.39 159.37 34.08 54.57 -179.73 -34.32 75.23 -177.46 31.76 -161.70 166.42 46.28 -21.28 -1.27 -37.93 171.09 9.79 
USER  
USER                              x       y       z    vdW   Elec        q     RMS 
ATOM      1  C   UNL d   1       6.583 -13.653  -6.278 -0.17 +0.02    +0.194    13.557
ATOM      2  C   UNL d   1       7.951 -14.164  -5.823 -0.11 +0.01    +0.194    13.557
ATOM      3  C   UNL d   1       8.337 -13.608  -4.451 -0.11 -0.06    +0.194    13.557
ATOM      4  C   UNL d   1       7.259 -13.823  -3.391 -0.10 -0.02    +0.194    13.557
ATOM      5  C   UNL d   1       5.857 -13.433  -3.843 -0.10 +0.02    +0.194    13.557
ATOM      6  C   UNL d   1       5.495 -13.937  -5.241 -0.13 +0.04    +0.194    13.557
ATOM      7  O   UNL d   1       6.223 -14.347  -7.474 -0.21 -0.10    -0.278    13.557
ATOM      8  P   UNL d   1       6.927 -13.917  -8.842 -0.25 +0.10    +0.473    13.557
ATOM      9  O   UNL d   1       8.172 -13.117  -8.687 -0.23 +0.01    -0.228    13.557
ATOM     10  O   UNL d   1       7.159 -15.297  -9.608 -0.17 -0.18    -0.303    13.557
ATOM     11  H   UNL d   1       7.955 -15.737  -9.256 +0.06 +0.14    +0.222    13.557
ATOM     12  O   UNL d   1       5.775 -13.246  -9.707 -1.04 -0.11    -0.303    13.557
ATOM     13  H   UNL d   1       6.055 -12.408 -10.138 -0.38 +0.01    +0.222    13.557
ATOM     14  O   UNL d   1       7.912 -15.594  -5.742 -0.03 -0.09    -0.278    13.557
ATOM     15  P   UNL d   1       8.762 -16.397  -6.836 -0.03 +0.25    +0.473    13.557
ATOM     16  O   UNL d   1       9.666 -17.476  -6.326 -0.01 -0.10    -0.228    13.557
ATOM     17  O   UNL d   1       7.665 -16.941  -7.855 -0.46 -0.42    -0.303    13.557
ATOM     18  H   UNL d   1       6.890 -16.348  -7.887 +0.04 +0.29    +0.222    13.557
ATOM     19  O   UNL d   1       9.467 -15.263  -7.701 -0.02 -0.08    -0.303    13.557
ATOM     20  H   UNL d   1       8.862 -14.891  -8.368 +0.07 +0.06    +0.222    13.557
ATOM     21  O   UNL d   1       4.331 -13.222  -5.649 -0.16 -0.07    -0.278    13.557
ATOM     22  P   UNL d   1       2.907 -13.939  -5.613 -0.18 +0.19    +0.473    13.557
ATOM     23  O   UNL d   1       1.898 -13.556  -6.643 -0.26 -0.10    -0.228    13.557
ATOM     24  O   UNL d   1       3.317 -15.477  -5.620 -0.11 -0.16    -0.303    13.557
ATOM     25  H   UNL d   1       3.982 -15.622  -4.900 +0.05 +0.11    +0.222    13.557
ATOM     26  O   UNL d   1       2.471 -13.720  -4.086 -0.07 -0.12    -0.303    13.557
ATOM     27  H   UNL d   1       2.878 -14.417  -3.532 +0.06 +0.08    +0.222    13.557
ATOM     28  O   UNL d   1       9.467 -14.340  -3.994 -0.08 +0.09    -0.278    13.557
ATOM     29  P   UNL d   1      10.897 -14.107  -4.655 -0.05 -0.18    +0.473    13.557
ATOM     30  O   UNL d   1      10.971 -13.006  -5.650 -0.19 +0.11    -0.228    13.557
ATOM     31  O   UNL d   1      11.792 -13.956  -3.336 -0.09 +0.16    -0.303    13.557
ATOM     32  H   UNL d   1      11.446 -13.201  -2.807 -0.43 -0.29    +0.222    13.557
ATOM     33  O   UNL d   1      11.270 -15.567  -5.168 -0.01 -0.01    -0.303    13.557
ATOM     34  H   UNL d   1      10.783 -15.746  -6.009 +0.03 +0.03    +0.222    13.557
ATOM     35  O   UNL d   1       4.966 -14.063  -2.925 -0.03 -0.06    -0.278    13.557
ATOM     36  P   UNL d   1       4.986 -15.648  -2.743 +0.01 +0.14    +0.473    13.557
ATOM     37  O   UNL d   1       3.724 -16.356  -3.119 -0.01 -0.09    -0.228    13.557
ATOM     38  O   UNL d   1       6.253 -16.060  -3.615 -0.01 -0.09    -0.303    13.557
ATOM     39  H   UNL d   1       7.054 -16.040  -3.048 +0.02 +0.05    +0.222    13.557
ATOM     40  O   UNL d   1       5.486 -15.811  -1.242 +0.00 -0.07    -0.303    13.557
ATOM     41  H   UNL d   1       5.764 -14.951  -0.855 +0.02 +0.04    +0.222    13.557
ATOM     42  O   UNL d   1       7.594 -12.980  -2.283 -0.09 +0.10    -0.278    13.557
ATOM     43  P   UNL d   1       8.293 -13.628  -1.004 -0.04 -0.13    +0.473    13.557
ATOM     44  O   UNL d   1       7.990 -13.026   0.324 -0.12 +0.01    -0.228    13.557
ATOM     45  O   UNL d   1       7.893 -15.164  -1.129 -0.02 -0.01    -0.303    13.557
ATOM     46  H   UNL d   1       7.129 -15.287  -1.726 +0.02 +0.02    +0.222    13.557
ATOM     47  O   UNL d   1       9.843 -13.661  -1.412 -0.11 +0.19    -0.303    13.557
ATOM     48  H   UNL d   1       9.947 -13.297  -2.315 -0.13 -0.31    +0.222    13.557
TER
ENDMDL
MODEL        8
USER    Run = 8
USER    Cluster Rank = 7
USER    Number of conformations in this cluster = 2
USER  
USER    RMSD from reference structure       = 14.739 A
USER  
USER    Estimated Free Energy of Binding    =   +1.26 kcal/mol  [=(1)+(2)+(3)-(4)]
USER    
USER    (1) Final Intermolecular Energy     =   -5.89 kcal/mol
USER        vdW + Hbond + desolv Energy     =   -5.75 kcal/mol
USER        Electrostatic Energy            =   -0.14 kcal/mol
USER    (2) Final Total Internal Energy     =  -15.04 kcal/mol
USER    (3) Torsional Free Energy           =   +7.16 kcal/mol
USER    (4) Unbound System's Energy  [=(2)] =  -15.04 kcal/mol
USER    
USER    
USER  
USER    DPF = D:/Protein_go_brrr/autodock/final/AncA/IHP/dock.dpf
USER    NEWDPF move	IHP_ideal_opt.pdbqt
USER    NEWDPF about	0.035000 0.082000 -0.065000
USER    NEWDPF tran0	-10.390691 -15.290137 2.364466
USER    NEWDPF axisangle0	-0.246310 0.746355 0.618293 138.689250
USER    NEWDPF quaternion0	-0.230477 0.698378 0.578548 0.352746
USER    NEWDPF dihe0	97.63 107.99 137.72 27.44 48.23 -138.04 -14.29 -167.89 33.54 -6.90 1.34 179.88 -72.66 29.97 -63.54 -59.50 136.63 156.77 -147.84 -21.32 168.04 20.64 -10.19 -18.45 
USER  
USER                              x       y       z    vdW   Elec        q     RMS 
ATOM      1  C   UNL d   1     -11.876 -15.894   1.721 -0.10 +0.06    +0.194    14.739
ATOM      2  C   UNL d   1     -10.860 -15.401   0.689 -0.09 +0.08    +0.194    14.739
ATOM      3  C   UNL d   1     -10.206 -14.087   1.120 -0.13 +0.11    +0.194    14.739
ATOM      4  C   UNL d   1      -9.618 -14.142   2.528 -0.16 +0.13    +0.194    14.739
ATOM      5  C   UNL d   1     -10.557 -14.734   3.570 -0.15 +0.09    +0.194    14.739
ATOM      6  C   UNL d   1     -11.259 -16.015   3.115 -0.07 +0.07    +0.194    14.739
ATOM      7  O   UNL d   1     -12.310 -17.199   1.332 -0.03 -0.08    -0.278    14.739
ATOM      8  P   UNL d   1     -11.494 -18.462   1.870 +0.01 +0.14    +0.473    14.739
ATOM      9  O   UNL d   1     -10.103 -18.173   2.312 +0.00 -0.09    -0.228    14.739
ATOM     10  O   UNL d   1     -12.413 -19.050   3.034 +0.00 -0.07    -0.303    14.739
ATOM     11  H   UNL d   1     -12.535 -18.374   3.726 +0.02 +0.05    +0.222    14.739
ATOM     12  O   UNL d   1     -11.646 -19.565   0.737 -0.00 -0.08    -0.303    14.739
ATOM     13  H   UNL d   1     -11.248 -19.295  -0.121 +0.00 +0.06    +0.222    14.739
ATOM     14  O   UNL d   1      -9.836 -16.391   0.532 -0.01 -0.15    -0.278    14.739
ATOM     15  P   UNL d   1      -9.811 -17.181  -0.861 +0.02 +0.23    +0.473    14.739
ATOM     16  O   UNL d   1      -9.070 -16.533  -1.988 -0.03 -0.15    -0.228    14.739
ATOM     17  O   UNL d   1      -9.230 -18.615  -0.483 +0.01 -0.14    -0.303    14.739
ATOM     18  H   UNL d   1      -9.615 -18.942   0.353 +0.01 +0.09    +0.222    14.739
ATOM     19  O   UNL d   1     -11.338 -17.521  -1.151 -0.01 -0.10    -0.303    14.739
ATOM     20  H   UNL d   1     -11.837 -17.669  -0.327 +0.02 +0.07    +0.222    14.739
ATOM     21  O   UNL d   1     -12.330 -16.246   4.028 -0.06 -0.08    -0.278    14.739
ATOM     22  P   UNL d   1     -13.551 -15.221   4.091 -0.17 +0.11    +0.473    14.739
ATOM     23  O   UNL d   1     -13.273 -13.777   3.839 -0.38 -0.05    -0.228    14.739
ATOM     24  O   UNL d   1     -14.587 -15.887   3.083 -0.15 -0.05    -0.303    14.739
ATOM     25  H   UNL d   1     -14.094 -16.532   2.515 +0.05 +0.04    +0.222    14.739
ATOM     26  O   UNL d   1     -14.199 -15.574   5.514 -0.14 -0.06    -0.303    14.739
ATOM     27  H   UNL d   1     -13.491 -15.615   6.189 +0.06 +0.06    +0.222    14.739
ATOM     28  O   UNL d   1      -9.099 -13.856   0.258 -0.12 -0.21    -0.278    14.739
ATOM     29  P   UNL d   1      -8.903 -12.437  -0.438 -0.15 +0.31    +0.473    14.739
ATOM     30  O   UNL d   1      -9.640 -12.241  -1.713 -0.20 -0.11    -0.228    14.739
ATOM     31  O   UNL d   1      -9.291 -11.473   0.780 -0.51 -0.18    -0.303    14.739
ATOM     32  H   UNL d   1      -8.950 -11.870   1.615 +0.12 +0.16    +0.222    14.739
ATOM     33  O   UNL d   1      -7.317 -12.309  -0.496 -0.17 -0.29    -0.303    14.739
ATOM     34  H   UNL d   1      -7.026 -11.625   0.155 +0.11 +0.22    +0.222    14.739
ATOM     35  O   UNL d   1      -9.734 -15.079   4.682 -0.06 -0.15    -0.278    14.739
ATOM     36  P   UNL d   1      -9.999 -14.426   6.113 -0.12 +0.21    +0.473    14.739
ATOM     37  O   UNL d   1      -9.058 -14.845   7.198 -0.11 -0.09    -0.228    14.739
ATOM     38  O   UNL d   1      -9.957 -12.871   5.775 -0.33 -0.15    -0.303    14.739
ATOM     39  H   UNL d   1      -9.274 -12.710   5.088 +0.13 +0.11    +0.222    14.739
ATOM     40  O   UNL d   1     -11.544 -14.726   6.343 -0.63 -0.15    -0.303    14.739
ATOM     41  H   UNL d   1     -12.083 -14.479   5.559 +0.08 +0.14    +0.222    14.739
ATOM     42  O   UNL d   1      -9.353 -12.790   2.919 -0.21 -0.18    -0.278    14.739
ATOM     43  P   UNL d   1      -7.912 -12.423   3.497 -0.29 +0.48    +0.473    14.739
ATOM     44  O   UNL d   1      -7.804 -11.208   4.351 -0.49 -0.12    -0.228    14.739
ATOM     45  O   UNL d   1      -7.473 -13.770   4.223 -0.53 -0.46    -0.303    14.739
ATOM     46  H   UNL d   1      -7.986 -13.918   5.043 +0.10 +0.20    +0.222    14.739
ATOM     47  O   UNL d   1      -6.980 -12.438   2.193 -0.98 -0.49    -0.303    14.739
ATOM     48  H   UNL d   1      -7.520 -12.679   1.413 +0.09 +0.29    +0.222    14.739
TER
ENDMDL
MODEL       23
USER    Run = 23
USER    Cluster Rank = 8
USER    Number of conformations in this cluster = 1
USER  
USER    RMSD from reference structure       = 10.517 A
USER  
USER    Estimated Free Energy of Binding    =   +1.30 kcal/mol  [=(1)+(2)+(3)-(4)]
USER    
USER    (1) Final Intermolecular Energy     =   -5.86 kcal/mol
USER        vdW + Hbond + desolv Energy     =   -5.45 kcal/mol
USER        Electrostatic Energy            =   -0.41 kcal/mol
USER    (2) Final Total Internal Energy     =  -10.69 kcal/mol
USER    (3) Torsional Free Energy           =   +7.16 kcal/mol
USER    (4) Unbound System's Energy  [=(2)] =  -10.69 kcal/mol
USER    
USER    
USER  
USER    DPF = D:/Protein_go_brrr/autodock/final/AncA/IHP/dock.dpf
USER    NEWDPF move	IHP_ideal_opt.pdbqt
USER    NEWDPF about	0.035000 0.082000 -0.065000
USER    NEWDPF tran0	9.620533 -7.856822 6.669580
USER    NEWDPF axisangle0	-0.105089 0.631229 -0.768444 159.703880
USER    NEWDPF quaternion0	-0.103445 0.621354 -0.756422 0.176192
USER    NEWDPF dihe0	136.08 35.54 118.42 -55.81 19.76 -176.34 10.16 48.30 47.82 -174.37 -33.39 -148.37 -94.56 90.15 166.34 -39.16 -172.09 -30.86 35.09 -11.79 -21.85 141.24 -28.48 159.92 
USER  
USER                              x       y       z    vdW   Elec        q     RMS 
ATOM      1  C   UNL d   1       8.774  -8.309   8.106 -0.09 +0.03    +0.194    10.517
ATOM      2  C   UNL d   1      10.258  -7.988   8.287 -0.07 +0.03    +0.194    10.517
ATOM      3  C   UNL d   1      11.111  -8.601   7.175 -0.03 +0.05    +0.194    10.517
ATOM      4  C   UNL d   1      10.612  -8.254   5.774 -0.08 +0.08    +0.194    10.517
ATOM      5  C   UNL d   1       9.114  -8.451   5.582 -0.10 +0.07    +0.194    10.517
ATOM      6  C   UNL d   1       8.265  -7.891   6.725 -0.14 +0.04    +0.194    10.517
ATOM      7  O   UNL d   1       8.034  -7.564   9.076 -0.13 +0.00    -0.278    10.517
ATOM      8  P   UNL d   1       7.814  -8.208  10.521 -0.07 +0.02    +0.473    10.517
ATOM      9  O   UNL d   1       7.456  -9.653  10.520 -0.02 -0.04    -0.228    10.517
ATOM     10  O   UNL d   1       9.174  -7.899  11.294 -0.06 -0.02    -0.303    10.517
ATOM     11  H   UNL d   1       9.887  -7.734  10.649 +0.04 +0.02    +0.222    10.517
ATOM     12  O   UNL d   1       6.788  -7.240  11.253 -0.17 +0.04    -0.303    10.517
ATOM     13  H   UNL d   1       6.627  -6.405  10.759 -0.49 -0.12    +0.222    10.517
ATOM     14  O   UNL d   1      10.434  -6.566   8.266 -0.09 -0.05    -0.278    10.517
ATOM     15  P   UNL d   1      11.063  -5.903   9.581 -0.04 +0.05    +0.473    10.517
ATOM     16  O   UNL d   1      11.955  -4.718   9.375 -0.13 -0.02    -0.228    10.517
ATOM     17  O   UNL d   1       9.799  -5.573  10.492 -0.18 -0.01    -0.303    10.517
ATOM     18  H   UNL d   1       9.036  -6.132  10.250 +0.01 -0.01    +0.222    10.517
ATOM     19  O   UNL d   1      11.714  -7.122  10.368 -0.03 -0.03    -0.303    10.517
ATOM     20  H   UNL d   1      11.275  -7.274  11.225 +0.03 +0.02    +0.222    10.517
ATOM     21  O   UNL d   1       6.958  -8.444   6.577 -0.08 -0.06    -0.278    10.517
ATOM     22  P   UNL d   1       5.696  -7.474   6.468 -0.13 +0.10    +0.473    10.517
ATOM     23  O   UNL d   1       4.340  -8.054   6.689 -0.26 -0.06    -0.228    10.517
ATOM     24  O   UNL d   1       6.095  -6.307   7.475 -0.11 -0.01    -0.303    10.517
ATOM     25  H   UNL d   1       6.429  -6.722   8.311 -0.47 -0.04    +0.222    10.517
ATOM     26  O   UNL d   1       5.940  -6.780   5.044 -0.31 -0.06    -0.303    10.517
ATOM     27  H   UNL d   1       6.674  -7.237   4.585 +0.14 +0.05    +0.222    10.517
ATOM     28  O   UNL d   1      12.409  -8.029   7.266 -0.01 -0.06    -0.278    10.517
ATOM     29  P   UNL d   1      12.905  -6.981   6.174 -0.02 +0.13    +0.473    10.517
ATOM     30  O   UNL d   1      13.058  -7.515   4.796 -0.08 -0.10    -0.228    10.517
ATOM     31  O   UNL d   1      11.822  -5.822   6.387 -0.13 -0.07    -0.303    10.517
ATOM     32  H   UNL d   1      11.905  -5.480   7.307 +0.07 +0.04    +0.222    10.517
ATOM     33  O   UNL d   1      14.208  -6.375   6.860 -0.01 -0.06    -0.303    10.517
ATOM     34  H   UNL d   1      15.007  -6.721   6.393 +0.02 +0.05    +0.222    10.517
ATOM     35  O   UNL d   1       8.774  -7.715   4.408 -0.18 -0.12    -0.278    10.517
ATOM     36  P   UNL d   1       8.546  -8.472   3.023 -0.24 +0.29    +0.473    10.517
ATOM     37  O   UNL d   1       9.332  -7.946   1.864 -0.26 -0.19    -0.228    10.517
ATOM     38  O   UNL d   1       8.886  -9.978   3.414 -0.58 -0.28    -0.303    10.517
ATOM     39  H   UNL d   1       9.455  -9.982   4.214 +0.05 +0.18    +0.222    10.517
ATOM     40  O   UNL d   1       6.962  -8.460   2.886 -0.28 -0.08    -0.303    10.517
ATOM     41  H   UNL d   1       6.678  -8.349   1.951 -0.44 -0.01    +0.222    10.517
ATOM     42  O   UNL d   1      11.273  -9.142   4.867 -0.08 -0.19    -0.278    10.517
ATOM     43  P   UNL d   1      11.288 -10.704   5.190 -0.03 +0.28    +0.473    10.517
ATOM     44  O   UNL d   1      10.338 -11.201   6.225 -0.00 -0.08    -0.228    10.517
ATOM     45  O   UNL d   1      11.088 -11.360   3.754 -0.22 -0.38    -0.303    10.517
ATOM     46  H   UNL d   1      10.187 -11.727   3.651 +0.03 +0.23    +0.222    10.517
ATOM     47  O   UNL d   1      12.837 -11.005   5.473 -0.01 -0.13    -0.303    10.517
ATOM     48  H   UNL d   1      13.257 -10.206   5.853 +0.01 +0.08    +0.222    10.517
TER
ENDMDL
MODEL       49
USER    Run = 49
USER    Cluster Rank = 9
USER    Number of conformations in this cluster = 1
USER  
USER    RMSD from reference structure       = 20.581 A
USER  
USER    Estimated Free Energy of Binding    =   +1.60 kcal/mol  [=(1)+(2)+(3)-(4)]
USER    
USER    (1) Final Intermolecular Energy     =   -5.56 kcal/mol
USER        vdW + Hbond + desolv Energy     =   -4.90 kcal/mol
USER        Electrostatic Energy            =   -0.66 kcal/mol
USER    (2) Final Total Internal Energy     =  -13.34 kcal/mol
USER    (3) Torsional Free Energy           =   +7.16 kcal/mol
USER    (4) Unbound System's Energy  [=(2)] =  -13.34 kcal/mol
USER    
USER    
USER  
USER    DPF = D:/Protein_go_brrr/autodock/final/AncA/IHP/dock.dpf
USER    NEWDPF move	IHP_ideal_opt.pdbqt
USER    NEWDPF about	0.035000 0.082000 -0.065000
USER    NEWDPF tran0	-12.671148 -9.000293 -18.243496
USER    NEWDPF axisangle0	-0.871855 -0.016633 -0.489482 -124.545422
USER    NEWDPF quaternion0	-0.771742 -0.014723 -0.433276 -0.465264
USER    NEWDPF dihe0	103.91 77.89 22.43 114.79 151.91 85.47 -35.39 -7.28 136.12 21.96 138.55 135.64 -174.45 -43.00 80.22 164.70 121.23 -115.17 19.20 -32.92 -179.91 -33.33 -19.32 167.37 
USER  
USER                              x       y       z    vdW   Elec        q     RMS 
ATOM      1  C   UNL d   1     -11.749  -8.396 -16.914 -0.09 -0.00    +0.194    20.581
ATOM      2  C   UNL d   1     -13.112  -7.735 -17.127 -0.03 -0.00    +0.194    20.581
ATOM      3  C   UNL d   1     -13.379  -7.452 -18.607 -0.00 -0.01    +0.194    20.581
ATOM      4  C   UNL d   1     -13.184  -8.676 -19.498 -0.00 -0.01    +0.194    20.581
ATOM      5  C   UNL d   1     -11.888  -9.433 -19.239 -0.04 -0.03    +0.194    20.581
ATOM      6  C   UNL d   1     -11.591  -9.662 -17.756 -0.08 +0.01    +0.194    20.581
ATOM      7  O   UNL d   1     -11.651  -8.782 -15.541 -0.19 -0.02    -0.278    20.581
ATOM      8  P   UNL d   1     -10.760  -7.887 -14.562 -0.28 -0.01    +0.473    20.581
ATOM      9  O   UNL d   1      -9.666  -8.615 -13.864 -0.48 +0.01    -0.228    20.581
ATOM     10  O   UNL d   1     -10.232  -6.704 -15.493 -0.20 +0.04    -0.303    20.581
ATOM     11  H   UNL d   1      -9.792  -7.078 -16.280 +0.13 -0.03    +0.222    20.581
ATOM     12  O   UNL d   1     -11.801  -7.135 -13.627 -0.27 +0.05    -0.303    20.581
ATOM     13  H   UNL d   1     -12.608  -7.667 -13.443 -0.12 -0.03    +0.222    20.581
ATOM     14  O   UNL d   1     -14.137  -8.609 -16.638 -0.03 -0.04    -0.278    20.581
ATOM     15  P   UNL d   1     -14.706  -8.297 -15.174 -0.05 +0.07    +0.473    20.581
ATOM     16  O   UNL d   1     -14.334  -6.976 -14.577 -0.08 +0.01    -0.228    20.581
ATOM     17  O   UNL d   1     -16.280  -8.487 -15.322 -0.02 -0.06    -0.303    20.581
ATOM     18  H   UNL d   1     -16.679  -7.747 -15.818 +0.02 +0.03    +0.222    20.581
ATOM     19  O   UNL d   1     -14.309  -9.574 -14.314 -0.14 -0.13    -0.303    20.581
ATOM     20  H   UNL d   1     -13.351  -9.753 -14.355 +0.08 +0.11    +0.222    20.581
ATOM     21  O   UNL d   1     -10.224 -10.057 -17.665 -0.13 +0.01    -0.278    20.581
ATOM     22  P   UNL d   1      -9.073  -8.958 -17.780 -0.26 -0.11    +0.473    20.581
ATOM     23  O   UNL d   1      -8.282  -8.635 -16.558 -0.36 +0.01    -0.228    20.581
ATOM     24  O   UNL d   1      -8.218  -9.509 -19.004 -0.67 +0.13    -0.303    20.581
ATOM     25  H   UNL d   1      -8.627  -9.175 -19.842 -0.48 -0.41    +0.222    20.581
ATOM     26  O   UNL d   1      -9.860  -7.733 -18.452 -0.18 +0.18    -0.303    20.581
ATOM     27  H   UNL d   1      -9.816  -7.818 -19.427 -0.47 -0.31    +0.222    20.581
ATOM     28  O   UNL d   1     -14.751  -7.105 -18.737 +0.00 +0.00    -0.278    20.581
ATOM     29  P   UNL d   1     -15.257  -5.653 -18.320 +0.01 -0.02    +0.473    20.581
ATOM     30  O   UNL d   1     -16.250  -5.034 -19.235 +0.00 +0.01    -0.228    20.581
ATOM     31  O   UNL d   1     -15.733  -5.943 -16.820 -0.00 +0.01    -0.303    20.581
ATOM     32  H   UNL d   1     -15.346  -6.800 -16.528 +0.02 +0.00    +0.222    20.581
ATOM     33  O   UNL d   1     -13.887  -4.870 -18.109 -0.00 +0.05    -0.303    20.581
ATOM     34  H   UNL d   1     -13.322  -4.989 -18.912 +0.02 -0.04    +0.222    20.581
ATOM     35  O   UNL d   1     -12.064 -10.717 -19.835 -0.01 -0.00    -0.278    20.581
ATOM     36  P   UNL d   1     -11.222 -11.126 -21.127 -0.01 -0.05    +0.473    20.581
ATOM     37  O   UNL d   1     -11.230 -12.583 -21.467 -0.01 -0.02    -0.228    20.581
ATOM     38  O   UNL d   1     -11.864 -10.190 -22.244 -0.02 +0.06    -0.303    20.581
ATOM     39  H   UNL d   1     -11.660  -9.253 -22.034 +0.02 -0.09    +0.222    20.581
ATOM     40  O   UNL d   1      -9.808 -10.460 -20.836 -0.15 +0.16    -0.303    20.581
ATOM     41  H   UNL d   1      -9.873  -9.746 -20.164 -0.13 -0.19    +0.222    20.581
ATOM     42  O   UNL d   1     -13.132  -8.203 -20.848 -0.01 +0.04    -0.278    20.581
ATOM     43  P   UNL d   1     -12.047  -7.100 -21.238 -0.03 -0.21    +0.473    20.581
ATOM     44  O   UNL d   1     -12.232  -5.729 -20.685 -0.02 +0.07    -0.228    20.581
ATOM     45  O   UNL d   1     -10.678  -7.794 -20.815 +0.17 +0.40    -0.303    20.581
ATOM     46  H   UNL d   1     -10.495  -8.585 -21.359 -0.33 -0.31    +0.222    20.581
ATOM     47  O   UNL d   1     -11.982  -7.199 -22.836 -0.03 +0.13    -0.303    20.581
ATOM     48  H   UNL d   1     -11.941  -8.141 -23.100 +0.02 -0.08    +0.222    20.581
TER
ENDMDL
MODEL        7
USER    Run = 7
USER    Cluster Rank = 10
USER    Number of conformations in this cluster = 1
USER  
USER    RMSD from reference structure       = 14.793 A
USER  
USER    Estimated Free Energy of Binding    =   +1.74 kcal/mol  [=(1)+(2)+(3)-(4)]
USER    
USER    (1) Final Intermolecular Energy     =   -5.42 kcal/mol
USER        vdW + Hbond + desolv Energy     =   -5.35 kcal/mol
USER        Electrostatic Energy            =   -0.07 kcal/mol
USER    (2) Final Total Internal Energy     =  -13.37 kcal/mol
USER    (3) Torsional Free Energy           =   +7.16 kcal/mol
USER    (4) Unbound System's Energy  [=(2)] =  -13.37 kcal/mol
USER    
USER    
USER  
USER    DPF = D:/Protein_go_brrr/autodock/final/AncA/IHP/dock.dpf
USER    NEWDPF move	IHP_ideal_opt.pdbqt
USER    NEWDPF about	0.035000 0.082000 -0.065000
USER    NEWDPF tran0	-4.579554 0.301450 -15.139894
USER    NEWDPF axisangle0	-0.083256 -0.849464 -0.521036 163.378510
USER    NEWDPF quaternion0	-0.082382 -0.840544 -0.515565 0.144542
USER    NEWDPF dihe0	124.35 122.18 54.80 39.06 -10.10 173.42 -42.86 -42.35 13.34 -16.08 -175.46 -141.18 -45.31 171.08 -175.76 173.66 62.45 -20.15 44.95 -13.98 177.16 -17.61 -23.88 149.24 
USER  
USER                              x       y       z    vdW   Elec        q     RMS 
ATOM      1  C   UNL d   1      -5.494   0.925 -16.466 -0.10 -0.01    +0.194    14.793
ATOM      2  C   UNL d   1      -4.428  -0.111 -16.827 -0.13 -0.01    +0.194    14.793
ATOM      3  C   UNL d   1      -3.120   0.136 -16.074 -0.16 -0.01    +0.194    14.793
ATOM      4  C   UNL d   1      -3.310   0.266 -14.564 -0.23 -0.02    +0.194    14.793
ATOM      5  C   UNL d   1      -4.442   1.203 -14.160 -0.24 -0.01    +0.194    14.793
ATOM      6  C   UNL d   1      -5.731   0.996 -14.957 -0.18 -0.01    +0.194    14.793
ATOM      7  O   UNL d   1      -6.726   0.526 -17.072 -0.07 +0.03    -0.278    14.793
ATOM      8  P   UNL d   1      -6.925   0.793 -18.635 +0.00 -0.04    +0.473    14.793
ATOM      9  O   UNL d   1      -5.723   1.310 -19.344 -0.01 +0.01    -0.228    14.793
ATOM     10  O   UNL d   1      -7.436  -0.606 -19.204 -0.01 +0.04    -0.303    14.793
ATOM     11  H   UNL d   1      -7.025  -1.334 -18.702 +0.06 -0.03    +0.222    14.793
ATOM     12  O   UNL d   1      -8.231   1.692 -18.738 -0.00 +0.03    -0.303    14.793
ATOM     13  H   UNL d   1      -8.072   2.633 -18.499 +0.02 -0.01    +0.222    14.793
ATOM     14  O   UNL d   1      -4.911  -1.417 -16.487 -0.20 +0.01    -0.278    14.793
ATOM     15  P   UNL d   1      -5.090  -2.451 -17.697 -0.17 -0.04    +0.473    14.793
ATOM     16  O   UNL d   1      -6.374  -3.219 -17.739 -0.25 +0.03    -0.228    14.793
ATOM     17  O   UNL d   1      -4.857  -1.566 -19.001 -0.04 +0.03    -0.303    14.793
ATOM     18  H   UNL d   1      -5.285  -0.693 -18.915 +0.04 -0.02    +0.222    14.793
ATOM     19  O   UNL d   1      -3.765  -3.330 -17.667 -0.27 +0.05    -0.303    14.793
ATOM     20  H   UNL d   1      -3.043  -2.878 -17.192 +0.02 -0.02    +0.222    14.793
ATOM     21  O   UNL d   1      -6.552   2.137 -14.716 -0.17 +0.02    -0.278    14.793
ATOM     22  P   UNL d   1      -6.201   3.527 -15.417 -0.02 +0.02    +0.473    14.793
ATOM     23  O   UNL d   1      -6.475   4.785 -14.663 -0.11 -0.03    -0.228    14.793
ATOM     24  O   UNL d   1      -4.677   3.311 -15.823 -0.01 -0.01    -0.303    14.793
ATOM     25  H   UNL d   1      -4.124   3.403 -15.006 +0.06 +0.01    +0.222    14.793
ATOM     26  O   UNL d   1      -6.945   3.377 -16.829 -0.01 +0.00    -0.303    14.793
ATOM     27  H   UNL d   1      -7.382   2.502 -16.871 +0.04 -0.01    +0.222    14.793
ATOM     28  O   UNL d   1      -2.299  -1.011 -16.253 +0.01 -0.00    -0.278    14.793
ATOM     29  P   UNL d   1      -1.240  -1.064 -17.441 -0.14 -0.00    +0.473    14.793
ATOM     30  O   UNL d   1      -0.001  -1.834 -17.161 -0.32 +0.01    -0.228    14.793
ATOM     31  O   UNL d   1      -2.175  -1.598 -18.625 -0.07 +0.01    -0.303    14.793
ATOM     32  H   UNL d   1      -3.110  -1.592 -18.314 +0.08 -0.01    +0.222    14.793
ATOM     33  O   UNL d   1      -1.063   0.477 -17.801 -0.05 -0.00    -0.303    14.793
ATOM     34  H   UNL d   1      -1.414   1.023 -17.055 +0.05 +0.00    +0.222    14.793
ATOM     35  O   UNL d   1      -4.734   0.891 -12.800 -0.24 +0.04    -0.278    14.793
ATOM     36  P   UNL d   1      -4.299   1.889 -11.634 -0.21 -0.03    +0.473    14.793
ATOM     37  O   UNL d   1      -5.409   2.665 -11.001 -0.53 -0.01    -0.228    14.793
ATOM     38  O   UNL d   1      -3.532   0.912 -10.637 -0.38 +0.01    -0.303    14.793
ATOM     39  H   UNL d   1      -4.134   0.181 -10.378 -0.34 -0.05    +0.222    14.793
ATOM     40  O   UNL d   1      -3.133   2.726 -12.321 -0.15 -0.02    -0.303    14.793
ATOM     41  H   UNL d   1      -2.408   2.145 -12.640 +0.14 +0.01    +0.222    14.793
ATOM     42  O   UNL d   1      -2.098   0.819 -14.039 -0.27 +0.02    -0.278    14.793
ATOM     43  P   UNL d   1      -1.336   1.942 -14.877 -0.13 -0.01    +0.473    14.793
ATOM     44  O   UNL d   1      -2.147   2.768 -15.815 -0.04 -0.01    -0.228    14.793
ATOM     45  O   UNL d   1      -0.596   2.780 -13.745 -0.19 +0.01    -0.303    14.793
ATOM     46  H   UNL d   1       0.374   2.662 -13.789 -0.35 -0.05    +0.222    14.793
ATOM     47  O   UNL d   1      -0.116   1.140 -15.539 -0.16 +0.02    -0.303    14.793
ATOM     48  H   UNL d   1      -0.421   0.247 -15.800 +0.08 +0.00    +0.222    14.793
TER
ENDMDL
MODEL       96
USER    Run = 96
USER    Cluster Rank = 11
USER    Number of conformations in this cluster = 1
USER  
USER    RMSD from reference structure       = 16.867 A
USER  
USER    Estimated Free Energy of Binding    =   +1.75 kcal/mol  [=(1)+(2)+(3)-(4)]
USER    
USER    (1) Final Intermolecular Energy     =   -5.41 kcal/mol
USER        vdW + Hbond + desolv Energy     =   -4.03 kcal/mol
USER        Electrostatic Energy            =   -1.38 kcal/mol
USER    (2) Final Total Internal Energy     =  -11.88 kcal/mol
USER    (3) Torsional Free Energy           =   +7.16 kcal/mol
USER    (4) Unbound System's Energy  [=(2)] =  -11.88 kcal/mol
USER    
USER    
USER  
USER    DPF = D:/Protein_go_brrr/autodock/final/AncA/IHP/dock.dpf
USER    NEWDPF move	IHP_ideal_opt.pdbqt
USER    NEWDPF about	0.035000 0.082000 -0.065000
USER    NEWDPF tran0	-1.662927 -12.173400 14.930101
USER    NEWDPF axisangle0	0.129335 -0.078577 0.988483 124.851526
USER    NEWDPF quaternion0	0.114644 -0.069651 0.876203 0.462898
USER    NEWDPF dihe0	98.33 88.54 55.65 0.37 -1.02 1.79 -16.04 -27.71 154.97 -82.46 63.11 129.31 -16.54 -145.76 -66.34 21.62 157.60 179.74 52.53 -20.83 -145.97 -38.00 -177.89 31.24 
USER  
USER                              x       y       z    vdW   Elec        q     RMS 
ATOM      1  C   UNL d   1      -2.842 -12.724  16.066 +0.00 -0.00    +0.194    16.867
ATOM      2  C   UNL d   1      -2.899 -11.234  15.724 -0.03 -0.03    +0.194    16.867
ATOM      3  C   UNL d   1      -1.503 -10.609  15.677 -0.04 -0.05    +0.194    16.867
ATOM      4  C   UNL d   1      -0.533 -11.372  14.778 -0.05 -0.04    +0.194    16.867
ATOM      5  C   UNL d   1      -0.527 -12.878  15.007 -0.00 +0.01    +0.194    16.867
ATOM      6  C   UNL d   1      -1.924 -13.493  15.115 +0.00 +0.01    +0.194    16.867
ATOM      7  O   UNL d   1      -4.157 -13.265  15.920 -0.00 -0.01    -0.278    16.867
ATOM      8  P   UNL d   1      -5.275 -12.839  16.979 +0.01 +0.03    +0.473    16.867
ATOM      9  O   UNL d   1      -5.178 -11.438  17.469 -0.01 -0.02    -0.228    16.867
ATOM     10  O   UNL d   1      -6.651 -13.150  16.233 -0.02 -0.03    -0.303    16.867
ATOM     11  H   UNL d   1      -6.701 -12.631  15.409 +0.04 +0.02    +0.222    16.867
ATOM     12  O   UNL d   1      -5.239 -13.969  18.095 -0.00 -0.02    -0.303    16.867
ATOM     13  H   UNL d   1      -4.326 -14.225  18.355 +0.00 +0.02    +0.222    16.867
ATOM     14  O   UNL d   1      -3.514 -11.073  14.439 -0.09 +0.11    -0.278    16.867
ATOM     15  P   UNL d   1      -4.967 -10.401  14.420 -0.12 -0.08    +0.473    16.867
ATOM     16  O   UNL d   1      -6.138 -11.328  14.523 -0.13 -0.01    -0.228    16.867
ATOM     17  O   UNL d   1      -4.917  -9.336  15.604 -0.14 -0.06    -0.303    16.867
ATOM     18  H   UNL d   1      -4.442  -9.693  16.379 +0.05 +0.03    +0.222    16.867
ATOM     19  O   UNL d   1      -4.951  -9.456  13.140 -0.14 +0.17    -0.303    16.867
ATOM     20  H   UNL d   1      -4.247  -8.784  13.197 -0.33 -0.38    +0.222    16.867
ATOM     21  O   UNL d   1      -1.758 -14.800  15.660 +0.00 -0.03    -0.278    16.867
ATOM     22  P   UNL d   1      -2.291 -15.119  17.129 +0.00 +0.04    +0.473    16.867
ATOM     23  O   UNL d   1      -2.186 -14.051  18.165 +0.00 -0.01    -0.228    16.867
ATOM     24  O   UNL d   1      -3.773 -15.620  16.836 +0.00 -0.03    -0.303    16.867
ATOM     25  H   UNL d   1      -4.296 -14.851  16.493 +0.00 +0.02    +0.222    16.867
ATOM     26  O   UNL d   1      -1.536 -16.494  17.458 +0.00 -0.03    -0.303    16.867
ATOM     27  H   UNL d   1      -1.882 -16.858  18.299 +0.00 +0.02    +0.222    16.867
ATOM     28  O   UNL d   1      -1.629  -9.321  15.089 -0.09 +0.22    -0.278    16.867
ATOM     29  P   UNL d   1      -2.300  -8.127  15.903 -0.11 -0.13    +0.473    16.867
ATOM     30  O   UNL d   1      -2.851  -8.490  17.234 -0.04 -0.02    -0.228    16.867
ATOM     31  O   UNL d   1      -1.102  -7.066  15.878 -0.07 +0.28    -0.303    16.867
ATOM     32  H   UNL d   1      -0.636  -7.139  15.014 -0.43 -0.35    +0.222    16.867
ATOM     33  O   UNL d   1      -3.322  -7.530  14.839 -0.24 -0.05    -0.303    16.867
ATOM     34  H   UNL d   1      -3.639  -8.260  14.253 -0.46 -0.23    +0.222    16.867
ATOM     35  O   UNL d   1       0.092 -13.442  13.853 -0.02 -0.08    -0.278    16.867
ATOM     36  P   UNL d   1      -0.352 -12.977  12.393 -0.04 +0.28    +0.473    16.867
ATOM     37  O   UNL d   1      -0.048 -13.940  11.290 -0.49 -0.28    -0.228    16.867
ATOM     38  O   UNL d   1      -1.904 -12.688  12.601 -0.08 +0.03    -0.303    16.867
ATOM     39  H   UNL d   1      -2.017 -11.775  12.943 -0.01 -0.13    +0.222    16.867
ATOM     40  O   UNL d   1       0.297 -11.529  12.286 -0.19 -0.25    -0.303    16.867
ATOM     41  H   UNL d   1      -0.376 -10.843  12.078 -0.46 -0.25    +0.222    16.867
ATOM     42  O   UNL d   1       0.781 -10.894  15.088 -0.02 +0.02    -0.278    16.867
ATOM     43  P   UNL d   1       1.267  -9.511  14.459 -0.05 -0.12    +0.473    16.867
ATOM     44  O   UNL d   1       2.635  -9.466  13.871 -0.05 -0.01    -0.228    16.867
ATOM     45  O   UNL d   1       0.104  -9.169  13.428 -0.02 +0.33    -0.303    16.867
ATOM     46  H   UNL d   1      -0.508  -9.924  13.315 -0.18 -0.31    +0.222    16.867
ATOM     47  O   UNL d   1       0.983  -8.456  15.632 -0.04 +0.13    -0.303    16.867
ATOM     48  H   UNL d   1       0.056  -8.551  15.934 +0.04 -0.10    +0.222    16.867
TER
ENDMDL
MODEL       82
USER    Run = 82
USER    Cluster Rank = 12
USER    Number of conformations in this cluster = 1
USER  
USER    RMSD from reference structure       = 15.460 A
USER  
USER    Estimated Free Energy of Binding    =   +1.84 kcal/mol  [=(1)+(2)+(3)-(4)]
USER    
USER    (1) Final Intermolecular Energy     =   -5.32 kcal/mol
USER        vdW + Hbond + desolv Energy     =   -4.98 kcal/mol
USER        Electrostatic Energy            =   -0.34 kcal/mol
USER    (2) Final Total Internal Energy     =  -13.01 kcal/mol
USER    (3) Torsional Free Energy           =   +7.16 kcal/mol
USER    (4) Unbound System's Energy  [=(2)] =  -13.01 kcal/mol
USER    
USER    
USER  
USER    DPF = D:/Protein_go_brrr/autodock/final/AncA/IHP/dock.dpf
USER    NEWDPF move	IHP_ideal_opt.pdbqt
USER    NEWDPF about	0.035000 0.082000 -0.065000
USER    NEWDPF tran0	6.750496 6.235871 15.700425
USER    NEWDPF axisangle0	0.322461 -0.872672 -0.366692 -157.900585
USER    NEWDPF quaternion0	0.316483 -0.856494 -0.359894 -0.191661
USER    NEWDPF dihe0	111.31 83.79 31.45 23.32 -78.76 164.17 -150.47 -24.84 111.04 -46.56 0.71 56.81 -179.91 -149.42 -170.18 49.88 174.40 -70.06 27.03 -41.00 -180.00 -41.17 17.48 -149.43 
USER  
USER                              x       y       z    vdW   Elec        q     RMS 
ATOM      1  C   UNL d   1       5.760   5.295  14.643 -0.13 -0.01    +0.194    15.460
ATOM      2  C   UNL d   1       7.196   5.527  14.171 -0.14 -0.01    +0.194    15.460
ATOM      3  C   UNL d   1       7.642   6.973  14.399 -0.11 -0.02    +0.194    15.460
ATOM      4  C   UNL d   1       7.421   7.451  15.832 -0.02 -0.01    +0.194    15.460
ATOM      5  C   UNL d   1       6.036   7.138  16.385 -0.02 -0.01    +0.194    15.460
ATOM      6  C   UNL d   1       5.565   5.709  16.102 -0.03 -0.01    +0.194    15.460
ATOM      7  O   UNL d   1       5.482   3.896  14.557 -0.09 +0.00    -0.278    15.460
ATOM      8  P   UNL d   1       4.751   3.346  13.247 -0.22 -0.00    +0.473    15.460
ATOM      9  O   UNL d   1       3.544   2.513  13.501 -0.26 +0.01    -0.228    15.460
ATOM     10  O   UNL d   1       4.440   4.660  12.397 -0.31 +0.01    -0.303    15.460
ATOM     11  H   UNL d   1       4.054   5.341  12.979 +0.02 -0.01    +0.222    15.460
ATOM     12  O   UNL d   1       5.900   2.660  12.390 -0.40 -0.01    -0.303    15.460
ATOM     13  H   UNL d   1       6.552   2.172  12.941 +0.10 +0.01    +0.222    15.460
ATOM     14  O   UNL d   1       8.073   4.658  14.900 -0.04 -0.01    -0.278    15.460
ATOM     15  P   UNL d   1       8.355   3.220  14.254 -0.08 +0.03    +0.473    15.460
ATOM     16  O   UNL d   1       7.483   2.095  14.714 -0.13 -0.01    -0.228    15.460
ATOM     17  O   UNL d   1       8.259   3.474  12.685 -0.25 -0.03    -0.303    15.460
ATOM     18  H   UNL d   1       7.357   3.744  12.427 +0.12 +0.01    +0.222    15.460
ATOM     19  O   UNL d   1       9.919   2.999  14.447 -0.05 -0.03    -0.303    15.460
ATOM     20  H   UNL d   1      10.416   3.831  14.341 +0.05 +0.03    +0.222    15.460
ATOM     21  O   UNL d   1       4.164   5.678  16.363 -0.02 +0.01    -0.278    15.460
ATOM     22  P   UNL d   1       3.146   6.284  15.294 -0.11 -0.02    +0.473    15.460
ATOM     23  O   UNL d   1       1.977   7.062  15.796 -0.10 +0.02    -0.228    15.460
ATOM     24  O   UNL d   1       4.125   7.094  14.336 -0.07 +0.08    -0.303    15.460
ATOM     25  H   UNL d   1       3.651   7.909  14.029 -0.43 -0.08    +0.222    15.460
ATOM     26  O   UNL d   1       2.803   4.995  14.405 -0.73 -0.05    -0.303    15.460
ATOM     27  H   UNL d   1       3.409   4.266  14.648 +0.07 +0.00    +0.222    15.460
ATOM     28  O   UNL d   1       9.048   7.025  14.196 -0.07 +0.01    -0.278    15.460
ATOM     29  P   UNL d   1       9.658   6.837  12.737 -0.10 +0.06    +0.473    15.460
ATOM     30  O   UNL d   1       8.742   7.161  11.613 -0.41 +0.00    -0.228    15.460
ATOM     31  O   UNL d   1      10.983   7.723  12.872 -0.34 -0.03    -0.303    15.460
ATOM     32  H   UNL d   1      10.812   8.607  12.473 -0.52 -0.23    +0.222    15.460
ATOM     33  O   UNL d   1      10.221   5.349  12.799 -0.16 -0.11    -0.303    15.460
ATOM     34  H   UNL d   1       9.628   4.804  13.372 +0.07 +0.04    +0.222    15.460
ATOM     35  O   UNL d   1       6.145   7.272  17.800 -0.00 +0.01    -0.278    15.460
ATOM     36  P   UNL d   1       4.897   7.771  18.659 +0.00 -0.01    +0.473    15.460
ATOM     37  O   UNL d   1       5.221   8.695  19.790 -0.00 +0.00    -0.228    15.460
ATOM     38  O   UNL d   1       3.964   8.409  17.538 -0.00 +0.01    -0.303    15.460
ATOM     39  H   UNL d   1       3.979   7.835  16.743 +0.03 -0.01    +0.222    15.460
ATOM     40  O   UNL d   1       4.172   6.405  19.029 +0.00 +0.00    -0.303    15.460
ATOM     41  H   UNL d   1       3.525   6.137  18.339 +0.01 -0.00    +0.222    15.460
ATOM     42  O   UNL d   1       7.557   8.876  15.819 -0.01 +0.02    -0.278    15.460
ATOM     43  P   UNL d   1       6.240   9.776  15.788 +0.00 -0.04    +0.473    15.460
ATOM     44  O   UNL d   1       5.002   9.163  15.230 -0.08 +0.03    -0.228    15.460
ATOM     45  O   UNL d   1       6.106  10.251  17.301 +0.00 +0.01    -0.303    15.460
ATOM     46  H   UNL d   1       5.822   9.517  17.883 +0.00 -0.01    +0.222    15.460
ATOM     47  O   UNL d   1       6.732  11.120  15.067 -0.02 +0.03    -0.303    15.460
ATOM     48  H   UNL d   1       6.539  11.886  15.647 +0.03 -0.01    +0.222    15.460
TER
ENDMDL
MODEL       54
USER    Run = 54
USER    Cluster Rank = 13
USER    Number of conformations in this cluster = 1
USER  
USER    RMSD from reference structure       = 15.364 A
USER  
USER    Estimated Free Energy of Binding    =   +1.86 kcal/mol  [=(1)+(2)+(3)-(4)]
USER    
USER    (1) Final Intermolecular Energy     =   -5.30 kcal/mol
USER        vdW + Hbond + desolv Energy     =   -4.80 kcal/mol
USER        Electrostatic Energy            =   -0.50 kcal/mol
USER    (2) Final Total Internal Energy     =  -13.06 kcal/mol
USER    (3) Torsional Free Energy           =   +7.16 kcal/mol
USER    (4) Unbound System's Energy  [=(2)] =  -13.06 kcal/mol
USER    
USER    
USER  
USER    DPF = D:/Protein_go_brrr/autodock/final/AncA/IHP/dock.dpf
USER    NEWDPF move	IHP_ideal_opt.pdbqt
USER    NEWDPF about	0.035000 0.082000 -0.065000
USER    NEWDPF tran0	4.780324 -7.732732 15.019555
USER    NEWDPF axisangle0	-0.238970 -0.532377 0.812076 -67.610279
USER    NEWDPF quaternion0	-0.132956 -0.296199 0.451815 -0.830935
USER    NEWDPF dihe0	-106.44 28.38 -138.53 49.93 179.80 -74.89 25.28 179.96 18.18 123.92 -0.38 -140.48 -179.71 55.83 19.84 118.92 -12.64 -55.92 58.44 6.15 107.85 -23.69 -68.03 25.78 
USER  
USER                              x       y       z    vdW   Elec        q     RMS 
ATOM      1  C   UNL d   1       5.414  -7.224  16.544 -0.03 -0.02    +0.194    15.364
ATOM      2  C   UNL d   1       5.661  -8.690  16.181 -0.01 -0.00    +0.194    15.364
ATOM      3  C   UNL d   1       4.416  -9.341  15.577 +0.00 -0.00    +0.194    15.364
ATOM      4  C   UNL d   1       3.828  -8.549  14.411 -0.03 -0.02    +0.194    15.364
ATOM      5  C   UNL d   1       3.672  -7.060  14.689 -0.10 -0.07    +0.194    15.364
ATOM      6  C   UNL d   1       4.895  -6.421  15.351 -0.07 -0.06    +0.194    15.364
ATOM      7  O   UNL d   1       6.661  -6.646  16.936 -0.02 +0.02    -0.278    15.364
ATOM      8  P   UNL d   1       7.381  -7.210  18.246 -0.00 -0.00    +0.473    15.364
ATOM      9  O   UNL d   1       7.771  -6.179  19.246 -0.00 -0.00    -0.228    15.364
ATOM     10  O   UNL d   1       6.352  -8.285  18.820 -0.00 -0.00    -0.303    15.364
ATOM     11  H   UNL d   1       6.599  -9.175  18.505 +0.00 +0.01    +0.222    15.364
ATOM     12  O   UNL d   1       8.558  -8.132  17.706 -0.00 -0.01    -0.303    15.364
ATOM     13  H   UNL d   1       8.450  -8.379  16.760 +0.01 +0.01    +0.222    15.364
ATOM     14  O   UNL d   1       6.724  -8.761  15.223 -0.01 -0.00    -0.278    15.364
ATOM     15  P   UNL d   1       7.806  -9.922  15.439 +0.00 +0.03    +0.473    15.364
ATOM     16  O   UNL d   1       7.815 -11.028  14.431 +0.00 -0.03    -0.228    15.364
ATOM     17  O   UNL d   1       9.196  -9.147  15.517 -0.00 -0.02    -0.303    15.364
ATOM     18  H   UNL d   1       9.679  -9.373  16.335 +0.00 +0.01    +0.222    15.364
ATOM     19  O   UNL d   1       7.607 -10.373  16.951 -0.00 -0.02    -0.303    15.364
ATOM     20  H   UNL d   1       7.013  -9.768  17.433 +0.00 +0.01    +0.222    15.364
ATOM     21  O   UNL d   1       4.478  -5.152  15.850 -0.13 +0.13    -0.278    15.364
ATOM     22  P   UNL d   1       2.941  -4.734  15.766 -0.15 -0.35    +0.473    15.364
ATOM     23  O   UNL d   1       1.920  -5.699  16.269 -0.11 +0.17    -0.228    15.364
ATOM     24  O   UNL d   1       2.946  -3.324  16.503 -0.10 +0.19    -0.303    15.364
ATOM     25  H   UNL d   1       2.722  -2.626  15.836 -0.51 -0.23    +0.222    15.364
ATOM     26  O   UNL d   1       2.804  -4.304  14.228 -0.30 +0.40    -0.303    15.364
ATOM     27  H   UNL d   1       2.247  -4.958  13.759 -0.30 -0.43    +0.222    15.364
ATOM     28  O   UNL d   1       4.811 -10.590  15.023 +0.00 -0.03    -0.278    15.364
ATOM     29  P   UNL d   1       4.844 -11.898  15.930 +0.01 +0.06    +0.473    15.364
ATOM     30  O   UNL d   1       3.606 -12.720  15.914 +0.00 -0.04    -0.228    15.364
ATOM     31  O   UNL d   1       6.180 -12.586  15.380 +0.00 -0.04    -0.303    15.364
ATOM     32  H   UNL d   1       6.956 -12.115  15.763 +0.00 +0.03    +0.222    15.364
ATOM     33  O   UNL d   1       5.303 -11.316  17.340 +0.00 -0.02    -0.303    15.364
ATOM     34  H   UNL d   1       6.142 -11.760  17.612 +0.00 +0.02    +0.222    15.364
ATOM     35  O   UNL d   1       3.514  -6.442  13.414 -0.20 +0.17    -0.278    15.364
ATOM     36  P   UNL d   1       2.261  -6.803  12.494 -0.22 -0.33    +0.473    15.364
ATOM     37  O   UNL d   1       1.004  -7.152  13.225 -0.31 +0.28    -0.228    15.364
ATOM     38  O   UNL d   1       2.147  -5.508  11.576 -0.80 +0.23    -0.303    15.364
ATOM     39  H   UNL d   1       2.127  -4.710  12.147 -0.44 -0.43    +0.222    15.364
ATOM     40  O   UNL d   1       2.862  -7.910  11.522 -0.21 +0.01    -0.303    15.364
ATOM     41  H   UNL d   1       2.865  -8.799  11.940 +0.09 +0.05    +0.222    15.364
ATOM     42  O   UNL d   1       2.517  -9.073  14.173 -0.03 +0.03    -0.278    15.364
ATOM     43  P   UNL d   1       2.357 -10.353  13.234 -0.06 +0.20    +0.473    15.364
ATOM     44  O   UNL d   1       3.555 -10.797  12.468 -0.11 -0.20    -0.228    15.364
ATOM     45  O   UNL d   1       1.781 -11.449  14.233 -0.03 -0.08    -0.303    15.364
ATOM     46  H   UNL d   1       2.469 -11.769  14.849 +0.02 +0.05    +0.222    15.364
ATOM     47  O   UNL d   1       1.064 -10.002  12.354 -0.71 -0.06    -0.303    15.364
ATOM     48  H   UNL d   1       1.078  -9.049  12.125 +0.04 -0.09    +0.222    15.364
TER
ENDMDL
MODEL       68
USER    Run = 68
USER    Cluster Rank = 14
USER    Number of conformations in this cluster = 1
USER  
USER    RMSD from reference structure       = 16.570 A
USER  
USER    Estimated Free Energy of Binding    =   +1.87 kcal/mol  [=(1)+(2)+(3)-(4)]
USER    
USER    (1) Final Intermolecular Energy     =   -5.29 kcal/mol
USER        vdW + Hbond + desolv Energy     =   -5.11 kcal/mol
USER        Electrostatic Energy            =   -0.18 kcal/mol
USER    (2) Final Total Internal Energy     =  -11.77 kcal/mol
USER    (3) Torsional Free Energy           =   +7.16 kcal/mol
USER    (4) Unbound System's Energy  [=(2)] =  -11.77 kcal/mol
USER    
USER    
USER  
USER    DPF = D:/Protein_go_brrr/autodock/final/AncA/IHP/dock.dpf
USER    NEWDPF move	IHP_ideal_opt.pdbqt
USER    NEWDPF about	0.035000 0.082000 -0.065000
USER    NEWDPF tran0	3.904162 13.488100 13.344493
USER    NEWDPF axisangle0	0.870958 -0.484752 0.080302 -160.215215
USER    NEWDPF quaternion0	0.858008 -0.477544 0.079108 -0.171798
USER    NEWDPF dihe0	60.53 -139.32 156.94 -6.17 -4.49 154.02 -11.66 -152.07 -77.02 81.21 -123.80 -95.83 159.31 -176.48 178.10 107.52 -3.34 -115.51 -18.96 10.15 -23.97 0.11 171.64 159.64 
USER  
USER                              x       y       z    vdW   Elec        q     RMS 
ATOM      1  C   UNL d   1       5.299  12.633  12.791 -0.20 +0.01    +0.194    16.570
ATOM      2  C   UNL d   1       5.327  14.148  12.583 -0.07 +0.02    +0.194    16.570
ATOM      3  C   UNL d   1       3.984  14.675  12.074 -0.12 +0.01    +0.194    16.570
ATOM      4  C   UNL d   1       2.800  14.232  12.930 -0.09 -0.01    +0.194    16.570
ATOM      5  C   UNL d   1       2.795  12.744  13.258 -0.15 -0.02    +0.194    16.570
ATOM      6  C   UNL d   1       4.154  12.204  13.709 -0.16 -0.01    +0.194    16.570
ATOM      7  O   UNL d   1       6.521  12.247  13.426 -0.43 -0.00    -0.278    16.570
ATOM      8  P   UNL d   1       7.211  10.878  12.976 -0.25 -0.09    +0.473    16.570
ATOM      9  O   UNL d   1       7.977  10.178  14.042 -0.10 +0.05    -0.228    16.570
ATOM     10  O   UNL d   1       6.005  10.010  12.395 -0.22 +0.08    -0.303    16.570
ATOM     11  H   UNL d   1       5.683   9.397  13.082 -0.32 -0.10    +0.222    16.570
ATOM     12  O   UNL d   1       8.025  11.239  11.660 -0.63 +0.10    -0.303    16.570
ATOM     13  H   UNL d   1       8.559  10.487  11.318 -0.30 -0.23    +0.222    16.570
ATOM     14  O   UNL d   1       5.624  14.786  13.832 -0.08 -0.01    -0.278    16.570
ATOM     15  P   UNL d   1       6.580  16.068  13.772 -0.05 +0.01    +0.473    16.570
ATOM     16  O   UNL d   1       7.851  15.996  14.558 -0.05 -0.00    -0.228    16.570
ATOM     17  O   UNL d   1       6.830  16.293  12.215 -0.09 -0.01    -0.303    16.570
ATOM     18  H   UNL d   1       5.991  16.471  11.746 +0.03 +0.00    +0.222    16.570
ATOM     19  O   UNL d   1       5.626  17.292  14.122 -0.01 -0.00    -0.303    16.570
ATOM     20  H   UNL d   1       4.948  17.429  13.434 +0.02 -0.00    +0.222    16.570
ATOM     21  O   UNL d   1       4.075  10.782  13.643 -0.20 +0.05    -0.278    16.570
ATOM     22  P   UNL d   1       4.444   9.909  14.926 -0.06 -0.07    +0.473    16.570
ATOM     23  O   UNL d   1       4.974   8.531  14.711 -0.11 +0.06    -0.228    16.570
ATOM     24  O   UNL d   1       5.424  10.885  15.713 -0.01 +0.02    -0.303    16.570
ATOM     25  H   UNL d   1       6.274  10.944  15.206 +0.05 -0.02    +0.222    16.570
ATOM     26  O   UNL d   1       3.100  10.018  15.793 -0.03 +0.03    -0.303    16.570
ATOM     27  H   UNL d   1       2.588  10.797  15.495 +0.04 -0.02    +0.222    16.570
ATOM     28  O   UNL d   1       4.014  16.093  12.176 -0.06 -0.00    -0.278    16.570
ATOM     29  P   UNL d   1       4.060  16.994  10.863 -0.06 -0.01    +0.473    16.570
ATOM     30  O   UNL d   1       2.752  17.223  10.197 -0.03 +0.00    -0.228    16.570
ATOM     31  O   UNL d   1       4.820  18.281  11.434 -0.02 +0.00    -0.303    16.570
ATOM     32  H   UNL d   1       5.535  17.980  12.041 +0.03 -0.00    +0.222    16.570
ATOM     33  O   UNL d   1       5.189  16.272  10.003 -0.14 +0.01    -0.303    16.570
ATOM     34  H   UNL d   1       6.059  16.702  10.189 +0.04 -0.01    +0.222    16.570
ATOM     35  O   UNL d   1       1.898  12.594  14.357 -0.05 +0.03    -0.278    16.570
ATOM     36  P   UNL d   1       2.148  13.393  15.715 +0.01 -0.02    +0.473    16.570
ATOM     37  O   UNL d   1       2.595  14.812  15.555 -0.00 +0.00    -0.228    16.570
ATOM     38  O   UNL d   1       0.746  13.228  16.453 -0.00 +0.01    -0.303    16.570
ATOM     39  H   UNL d   1       0.567  14.033  16.984 +0.00 -0.00    +0.222    16.570
ATOM     40  O   UNL d   1       3.118  12.416  16.511 -0.00 +0.01    -0.303    16.570
ATOM     41  H   UNL d   1       3.781  11.999  15.918 +0.03 -0.01    +0.222    16.570
ATOM     42  O   UNL d   1       1.617  14.500  12.171 -0.06 +0.01    -0.278    16.570
ATOM     43  P   UNL d   1       1.550  14.021  10.651 -0.16 -0.05    +0.473    16.570
ATOM     44  O   UNL d   1       2.421  14.726   9.670 -0.17 +0.01    -0.228    16.570
ATOM     45  O   UNL d   1       1.831  12.459  10.764 -0.30 +0.10    -0.303    16.570
ATOM     46  H   UNL d   1       1.563  11.987   9.950 -0.48 -0.14    +0.222    16.570
ATOM     47  O   UNL d   1      -0.020  14.047  10.327 -0.13 +0.02    -0.303    16.570
ATOM     48  H   UNL d   1      -0.284  14.959  10.086 +0.05 -0.01    +0.222    16.570
TER
ENDMDL
MODEL       92
USER    Run = 92
USER    Cluster Rank = 15
USER    Number of conformations in this cluster = 1
USER  
USER    RMSD from reference structure       = 14.528 A
USER  
USER    Estimated Free Energy of Binding    =   +1.89 kcal/mol  [=(1)+(2)+(3)-(4)]
USER    
USER    (1) Final Intermolecular Energy     =   -5.27 kcal/mol
USER        vdW + Hbond + desolv Energy     =   -5.18 kcal/mol
USER        Electrostatic Energy            =   -0.09 kcal/mol
USER    (2) Final Total Internal Energy     =  -14.87 kcal/mol
USER    (3) Torsional Free Energy           =   +7.16 kcal/mol
USER    (4) Unbound System's Energy  [=(2)] =  -14.87 kcal/mol
USER    
USER    
USER  
USER    DPF = D:/Protein_go_brrr/autodock/final/AncA/IHP/dock.dpf
USER    NEWDPF move	IHP_ideal_opt.pdbqt
USER    NEWDPF about	0.035000 0.082000 -0.065000
USER    NEWDPF tran0	-14.758412 7.042211 -7.270533
USER    NEWDPF axisangle0	0.162759 -0.894218 -0.416994 -141.739926
USER    NEWDPF quaternion0	0.153771 -0.844837 -0.393966 -0.327713
USER    NEWDPF dihe0	130.43 73.46 67.31 64.30 166.97 123.10 -106.15 -20.88 32.83 110.69 25.33 179.11 -24.39 129.63 -149.23 -164.25 -25.94 161.68 -7.38 -20.20 7.81 3.93 -24.08 -5.69 
USER  
USER                              x       y       z    vdW   Elec        q     RMS 
ATOM      1  C   UNL d   1     -16.215   6.270  -7.785 -0.14 +0.01    +0.194    14.528
ATOM      2  C   UNL d   1     -15.044   6.191  -8.766 -0.14 +0.01    +0.194    14.528
ATOM      3  C   UNL d   1     -14.311   7.529  -8.881 -0.09 +0.01    +0.194    14.528
ATOM      4  C   UNL d   1     -13.895   8.106  -7.530 -0.14 +0.01    +0.194    14.528
ATOM      5  C   UNL d   1     -15.002   8.097  -6.484 -0.15 +0.01    +0.194    14.528
ATOM      6  C   UNL d   1     -15.776   6.779  -6.411 -0.20 +0.00    +0.194    14.528
ATOM      7  O   UNL d   1     -16.735   4.950  -7.604 -0.10 -0.02    -0.278    14.528
ATOM      8  P   UNL d   1     -18.309   4.725  -7.759 -0.09 +0.04    +0.473    14.528
ATOM      9  O   UNL d   1     -18.998   5.691  -8.658 -0.03 -0.01    -0.228    14.528
ATOM     10  O   UNL d   1     -18.437   3.212  -8.247 -0.10 -0.05    -0.303    14.528
ATOM     11  H   UNL d   1     -17.630   2.954  -8.730 +0.04 +0.04    +0.222    14.528
ATOM     12  O   UNL d   1     -18.863   4.644  -6.273 -0.17 -0.02    -0.303    14.528
ATOM     13  H   UNL d   1     -18.320   5.154  -5.630 -0.03 -0.01    +0.222    14.528
ATOM     14  O   UNL d   1     -14.116   5.200  -8.307 -0.19 -0.03    -0.278    14.528
ATOM     15  P   UNL d   1     -13.995   3.870  -9.189 -0.10 +0.04    +0.473    14.528
ATOM     16  O   UNL d   1     -13.116   2.784  -8.651 -0.73 -0.03    -0.228    14.528
ATOM     17  O   UNL d   1     -15.504   3.400  -9.391 -0.13 -0.03    -0.303    14.528
ATOM     18  H   UNL d   1     -16.064   3.685  -8.644 +0.06 +0.03    +0.222    14.528
ATOM     19  O   UNL d   1     -13.625   4.392 -10.645 -0.10 +0.02    -0.303    14.528
ATOM     20  H   UNL d   1     -13.488   5.357 -10.658 +0.05 -0.01    +0.222    14.528
ATOM     21  O   UNL d   1     -16.961   7.037  -5.662 -0.14 +0.01    -0.278    14.528
ATOM     22  P   UNL d   1     -16.985   6.749  -4.093 -0.22 -0.03    +0.473    14.528
ATOM     23  O   UNL d   1     -17.962   5.749  -3.574 -0.23 -0.00    -0.228    14.528
ATOM     24  O   UNL d   1     -15.458   6.403  -3.803 -0.34 +0.03    -0.303    14.528
ATOM     25  H   UNL d   1     -15.030   7.205  -3.409 -0.28 -0.05    +0.222    14.528
ATOM     26  O   UNL d   1     -17.108   8.230  -3.492 -0.13 +0.01    -0.303    14.528
ATOM     27  H   UNL d   1     -16.418   8.798  -3.891 +0.07 -0.01    +0.222    14.528
ATOM     28  O   UNL d   1     -13.096   7.293  -9.581 -0.26 -0.03    -0.278    14.528
ATOM     29  P   UNL d   1     -12.857   7.939 -11.017 -0.06 +0.02    +0.473    14.528
ATOM     30  O   UNL d   1     -11.475   7.823 -11.549 -0.03 -0.01    -0.228    14.528
ATOM     31  O   UNL d   1     -14.017   7.212 -11.846 -0.04 -0.00    -0.303    14.528
ATOM     32  H   UNL d   1     -13.919   6.238 -11.736 +0.03 -0.00    +0.222    14.528
ATOM     33  O   UNL d   1     -13.433   9.410 -10.822 -0.01 -0.01    -0.303    14.528
ATOM     34  H   UNL d   1     -13.196   9.730  -9.917 +0.02 +0.01    +0.222    14.528
ATOM     35  O   UNL d   1     -14.350   8.270  -5.228 -0.17 -0.00    -0.278    14.528
ATOM     36  P   UNL d   1     -14.449   9.662  -4.455 -0.10 -0.02    +0.473    14.528
ATOM     37  O   UNL d   1     -15.565  10.561  -4.885 -0.04 +0.00    -0.228    14.528
ATOM     38  O   UNL d   1     -14.539   9.187  -2.937 -0.18 +0.06    -0.303    14.528
ATOM     39  H   UNL d   1     -15.079   8.368  -2.889 -0.40 -0.08    +0.222    14.528
ATOM     40  O   UNL d   1     -12.970  10.232  -4.590 -0.11 +0.02    -0.303    14.528
ATOM     41  H   UNL d   1     -12.761  10.485  -5.516 +0.05 -0.01    +0.222    14.528
ATOM     42  O   UNL d   1     -13.539   9.474  -7.754 -0.04 -0.01    -0.278    14.528
ATOM     43  P   UNL d   1     -12.036   9.934  -7.480 -0.05 -0.00    +0.473    14.528
ATOM     44  O   UNL d   1     -11.812  11.359  -7.108 -0.03 +0.00    -0.228    14.528
ATOM     45  O   UNL d   1     -11.546   8.890  -6.384 -0.12 +0.02    -0.303    14.528
ATOM     46  H   UNL d   1     -12.199   8.795  -5.663 +0.10 -0.01    +0.222    14.528
ATOM     47  O   UNL d   1     -11.254   9.429  -8.785 -0.05 -0.02    -0.303    14.528
ATOM     48  H   UNL d   1     -11.880   8.957  -9.373 +0.05 +0.02    +0.222    14.528
TER
ENDMDL
MODEL       29
USER    Run = 29
USER    Cluster Rank = 16
USER    Number of conformations in this cluster = 1
USER  
USER    RMSD from reference structure       = 13.891 A
USER  
USER    Estimated Free Energy of Binding    =   +1.97 kcal/mol  [=(1)+(2)+(3)-(4)]
USER    
USER    (1) Final Intermolecular Energy     =   -5.19 kcal/mol
USER        vdW + Hbond + desolv Energy     =   -5.08 kcal/mol
USER        Electrostatic Energy            =   -0.11 kcal/mol
USER    (2) Final Total Internal Energy     =  -13.28 kcal/mol
USER    (3) Torsional Free Energy           =   +7.16 kcal/mol
USER    (4) Unbound System's Energy  [=(2)] =  -13.28 kcal/mol
USER    
USER    
USER  
USER    DPF = D:/Protein_go_brrr/autodock/final/AncA/IHP/dock.dpf
USER    NEWDPF move	IHP_ideal_opt.pdbqt
USER    NEWDPF about	0.035000 0.082000 -0.065000
USER    NEWDPF tran0	5.769981 -14.677522 -5.856628
USER    NEWDPF axisangle0	0.245174 -0.909506 0.335690 -171.453370
USER    NEWDPF quaternion0	0.244493 -0.906978 0.334757 -0.074514
USER    NEWDPF dihe0	129.64 99.94 61.19 68.69 18.95 171.16 -117.17 -27.22 0.39 46.38 -37.29 96.00 -46.00 131.98 173.73 -180.00 5.20 40.84 -2.74 -18.78 -24.40 6.87 171.16 -173.52 
USER  
USER                              x       y       z    vdW   Elec        q     RMS 
ATOM      1  C   UNL d   1       5.141 -16.263  -5.580 -0.11 +0.13    +0.194    13.891
ATOM      2  C   UNL d   1       6.612 -16.062  -5.212 -0.06 +0.10    +0.194    13.891
ATOM      3  C   UNL d   1       7.358 -15.254  -6.277 -0.09 +0.08    +0.194    13.891
ATOM      4  C   UNL d   1       6.666 -13.940  -6.629 -0.17 +0.03    +0.194    13.891
ATOM      5  C   UNL d   1       5.172 -14.076  -6.892 -0.26 +0.07    +0.194    13.891
ATOM      6  C   UNL d   1       4.437 -14.935  -5.860 -0.16 +0.09    +0.194    13.891
ATOM      7  O   UNL d   1       4.482 -16.868  -4.466 -0.04 -0.15    -0.278    13.891
ATOM      8  P   UNL d   1       3.679 -18.229  -4.707 -0.05 +0.32    +0.473    13.891
ATOM      9  O   UNL d   1       3.812 -18.806  -6.072 -0.21 -0.28    -0.228    13.891
ATOM     10  O   UNL d   1       4.213 -19.200  -3.559 -0.00 -0.15    -0.303    13.891
ATOM     11  H   UNL d   1       5.124 -18.951  -3.317 +0.01 +0.10    +0.222    13.891
ATOM     12  O   UNL d   1       2.197 -17.925  -4.223 -0.01 -0.16    -0.303    13.891
ATOM     13  H   UNL d   1       1.801 -17.139  -4.662 +0.04 +0.13    +0.222    13.891
ATOM     14  O   UNL d   1       6.690 -15.356  -3.967 -0.02 -0.06    -0.278    13.891
ATOM     15  P   UNL d   1       7.277 -16.170  -2.719 +0.01 +0.09    +0.473    13.891
ATOM     16  O   UNL d   1       7.201 -15.499  -1.383 -0.01 -0.03    -0.228    13.891
ATOM     17  O   UNL d   1       6.495 -17.557  -2.758 +0.00 -0.10    -0.303    13.891
ATOM     18  H   UNL d   1       5.579 -17.436  -3.071 +0.01 +0.08    +0.222    13.891
ATOM     19  O   UNL d   1       8.734 -16.610  -3.182 +0.00 -0.05    -0.303    13.891
ATOM     20  H   UNL d   1       8.989 -16.185  -4.022 +0.02 +0.03    +0.222    13.891
ATOM     21  O   UNL d   1       3.162 -15.246  -6.417 -0.11 -0.16    -0.278    13.891
ATOM     22  P   UNL d   1       1.837 -14.935  -5.584 -0.16 +0.24    +0.473    13.891
ATOM     23  O   UNL d   1       0.607 -15.719  -5.897 -0.18 -0.14    -0.228    13.891
ATOM     24  O   UNL d   1       2.354 -15.074  -4.085 -0.04 -0.14    -0.303    13.891
ATOM     25  H   UNL d   1       2.879 -15.911  -4.017 +0.04 +0.10    +0.222    13.891
ATOM     26  O   UNL d   1       1.717 -13.345  -5.747 -0.26 -0.13    -0.303    13.891
ATOM     27  H   UNL d   1       2.487 -13.014  -6.252 +0.11 +0.08    +0.222    13.891
ATOM     28  O   UNL d   1       8.617 -14.883  -5.730 -0.03 -0.03    -0.278    13.891
ATOM     29  P   UNL d   1       9.967 -15.402  -6.396 +0.01 +0.07    +0.473    13.891
ATOM     30  O   UNL d   1      11.160 -14.544  -6.178 -0.04 +0.01    -0.228    13.891
ATOM     31  O   UNL d   1      10.022 -16.886  -5.798 +0.00 -0.09    -0.303    13.891
ATOM     32  H   UNL d   1      10.141 -16.827  -4.822 +0.02 +0.04    +0.222    13.891
ATOM     33  O   UNL d   1       9.523 -15.647  -7.905 -0.02 -0.10    -0.303    13.891
ATOM     34  H   UNL d   1       8.821 -14.994  -8.143 +0.07 +0.07    +0.222    13.891
ATOM     35  O   UNL d   1       4.640 -12.756  -6.794 -0.30 -0.04    -0.278    13.891
ATOM     36  P   UNL d   1       4.815 -11.915  -5.450 -0.14 +0.02    +0.473    13.891
ATOM     37  O   UNL d   1       6.205 -11.860  -4.900 -0.23 +0.02    -0.228    13.891
ATOM     38  O   UNL d   1       4.222 -10.498  -5.872 -0.36 -0.02    -0.303    13.891
ATOM     39  H   UNL d   1       4.832 -10.074  -6.514 -0.25 -0.02    +0.222    13.891
ATOM     40  O   UNL d   1       3.691 -12.536  -4.512 -0.12 -0.07    -0.303    13.891
ATOM     41  H   UNL d   1       3.240 -13.298  -4.939 +0.10 +0.07    +0.222    13.891
ATOM     42  O   UNL d   1       7.265 -13.467  -7.840 -0.19 -0.01    -0.278    13.891
ATOM     43  P   UNL d   1       6.878 -14.171  -9.218 -0.27 +0.14    +0.473    13.891
ATOM     44  O   UNL d   1       5.670 -13.670  -9.930 -1.05 -0.12    -0.228    13.891
ATOM     45  O   UNL d   1       8.225 -14.056 -10.058 -0.15 -0.03    -0.303    13.891
ATOM     46  H   UNL d   1       8.130 -13.427 -10.802 -0.37 -0.06    +0.222    13.891
ATOM     47  O   UNL d   1       6.862 -15.729  -8.841 -0.13 -0.27    -0.303    13.891
ATOM     48  H   UNL d   1       7.772 -16.087  -8.908 +0.05 +0.18    +0.222    13.891
TER
ENDMDL
MODEL       95
USER    Run = 95
USER    Cluster Rank = 17
USER    Number of conformations in this cluster = 1
USER  
USER    RMSD from reference structure       = 17.105 A
USER  
USER    Estimated Free Energy of Binding    =   +2.01 kcal/mol  [=(1)+(2)+(3)-(4)]
USER    
USER    (1) Final Intermolecular Energy     =   -5.15 kcal/mol
USER        vdW + Hbond + desolv Energy     =   -4.52 kcal/mol
USER        Electrostatic Energy            =   -0.62 kcal/mol
USER    (2) Final Total Internal Energy     =  -12.33 kcal/mol
USER    (3) Torsional Free Energy           =   +7.16 kcal/mol
USER    (4) Unbound System's Energy  [=(2)] =  -12.33 kcal/mol
USER    
USER    
USER  
USER    DPF = D:/Protein_go_brrr/autodock/final/AncA/IHP/dock.dpf
USER    NEWDPF move	IHP_ideal_opt.pdbqt
USER    NEWDPF about	0.035000 0.082000 -0.065000
USER    NEWDPF tran0	14.759749 13.768002 6.751578
USER    NEWDPF axisangle0	-0.256557 -0.950692 0.174252 -88.533096
USER    NEWDPF quaternion0	-0.179076 -0.663580 0.121628 -0.716100
USER    NEWDPF dihe0	85.83 -29.78 -168.71 7.80 26.69 -150.63 -57.37 14.89 -58.73 106.97 69.96 179.77 -159.42 85.52 -47.17 48.33 28.59 -103.75 9.83 -41.35 157.28 -50.65 36.27 6.66 
USER  
USER                              x       y       z    vdW   Elec        q     RMS 
ATOM      1  C   UNL d   1      14.030  13.554   8.303 -0.14 -0.06    +0.194    17.105
ATOM      2  C   UNL d   1      14.233  12.277   7.486 -0.15 -0.05    +0.194    17.105
ATOM      3  C   UNL d   1      13.853  12.476   6.018 -0.18 -0.04    +0.194    17.105
ATOM      4  C   UNL d   1      14.534  13.684   5.379 -0.09 -0.03    +0.194    17.105
ATOM      5  C   UNL d   1      14.454  14.955   6.214 -0.07 -0.03    +0.194    17.105
ATOM      6  C   UNL d   1      14.775  14.744   7.695 -0.05 -0.03    +0.194    17.105
ATOM      7  O   UNL d   1      14.566  13.339   9.610 -0.06 +0.09    -0.278    17.105
ATOM      8  P   UNL d   1      13.555  13.289  10.846 -0.11 -0.23    +0.473    17.105
ATOM      9  O   UNL d   1      13.600  14.473  11.747 -0.06 +0.05    -0.228    17.105
ATOM     10  O   UNL d   1      12.127  13.069  10.169 -0.16 +0.27    -0.303    17.105
ATOM     11  H   UNL d   1      11.848  13.889   9.721 -0.05 -0.16    +0.222    17.105
ATOM     12  O   UNL d   1      13.815  11.882  11.536 -0.07 +0.23    -0.303    17.105
ATOM     13  H   UNL d   1      13.435  11.128  11.031 -0.43 -0.42    +0.222    17.105
ATOM     14  O   UNL d   1      15.613  11.895   7.553 -0.02 +0.04    -0.278    17.105
ATOM     15  P   UNL d   1      16.027  10.912   8.748 -0.01 -0.05    +0.473    17.105
ATOM     16  O   UNL d   1      17.025   9.845   8.424 -0.01 -0.01    -0.228    17.105
ATOM     17  O   UNL d   1      16.523  11.893   9.902 -0.00 +0.03    -0.303    17.105
ATOM     18  H   UNL d   1      15.804  12.082  10.535 +0.03 -0.05    +0.222    17.105
ATOM     19  O   UNL d   1      14.642  10.400   9.338 -0.07 +0.15    -0.303    17.105
ATOM     20  H   UNL d   1      14.044  11.140   9.549 -0.48 -0.27    +0.222    17.105
ATOM     21  O   UNL d   1      14.331  15.911   8.383 -0.03 +0.04    -0.278    17.105
ATOM     22  P   UNL d   1      12.818  16.394   8.229 -0.06 -0.11    +0.473    17.105
ATOM     23  O   UNL d   1      12.019  15.856   7.090 -0.03 +0.08    -0.228    17.105
ATOM     24  O   UNL d   1      12.225  16.074   9.671 -0.12 +0.08    -0.303    17.105
ATOM     25  H   UNL d   1      12.603  15.209   9.974 +0.02 -0.07    +0.222    17.105
ATOM     26  O   UNL d   1      12.979  17.989   8.284 -0.02 +0.04    -0.303    17.105
ATOM     27  H   UNL d   1      13.816  18.243   7.844 +0.02 -0.02    +0.222    17.105
ATOM     28  O   UNL d   1      14.330  11.348   5.295 -0.10 +0.02    -0.278    17.105
ATOM     29  P   UNL d   1      13.819   9.884   5.660 -0.16 +0.02    +0.473    17.105
ATOM     30  O   UNL d   1      12.516   9.819   6.370 -0.31 +0.02    -0.228    17.105
ATOM     31  O   UNL d   1      13.895   9.194   4.218 -0.77 -0.11    -0.303    17.105
ATOM     32  H   UNL d   1      14.133   9.881   3.553 +0.13 +0.03    +0.222    17.105
ATOM     33  O   UNL d   1      15.080   9.268   6.412 -0.08 -0.04    -0.303    17.105
ATOM     34  H   UNL d   1      15.145   9.671   7.312 +0.07 +0.01    +0.222    17.105
ATOM     35  O   UNL d   1      15.453  15.827   5.688 -0.02 +0.04    -0.278    17.105
ATOM     36  P   UNL d   1      15.470  17.369   6.095 -0.00 -0.05    +0.473    17.105
ATOM     37  O   UNL d   1      15.924  17.663   7.489 -0.00 +0.02    -0.228    17.105
ATOM     38  O   UNL d   1      16.394  17.995   4.960 -0.00 +0.03    -0.303    17.105
ATOM     39  H   UNL d   1      17.099  18.533   5.380 +0.00 -0.02    +0.222    17.105
ATOM     40  O   UNL d   1      14.004  17.841   5.698 -0.03 +0.05    -0.303    17.105
ATOM     41  H   UNL d   1      13.318  17.399   6.247 +0.04 -0.04    +0.222    17.105
ATOM     42  O   UNL d   1      13.847  13.944   4.149 -0.12 +0.07    -0.278    17.105
ATOM     43  P   UNL d   1      14.542  13.529   2.775 -0.11 -0.12    +0.473    17.105
ATOM     44  O   UNL d   1      15.881  14.112   2.479 -0.04 +0.04    -0.228    17.105
ATOM     45  O   UNL d   1      14.526  11.939   2.842 -0.10 +0.03    -0.303    17.105
ATOM     46  H   UNL d   1      14.158  11.620   3.691 +0.11 -0.02    +0.222    17.105
ATOM     47  O   UNL d   1      13.404  13.821   1.686 -0.28 +0.16    -0.303    17.105
ATOM     48  H   UNL d   1      12.599  14.148   2.139 -0.34 -0.22    +0.222    17.105
TER
ENDMDL
MODEL       16
USER    Run = 16
USER    Cluster Rank = 18
USER    Number of conformations in this cluster = 1
USER  
USER    RMSD from reference structure       = 16.834 A
USER  
USER    Estimated Free Energy of Binding    =   +2.10 kcal/mol  [=(1)+(2)+(3)-(4)]
USER    
USER    (1) Final Intermolecular Energy     =   -5.06 kcal/mol
USER        vdW + Hbond + desolv Energy     =   -4.91 kcal/mol
USER        Electrostatic Energy            =   -0.15 kcal/mol
USER    (2) Final Total Internal Energy     =  -13.42 kcal/mol
USER    (3) Torsional Free Energy           =   +7.16 kcal/mol
USER    (4) Unbound System's Energy  [=(2)] =  -13.42 kcal/mol
USER    
USER    
USER  
USER    DPF = D:/Protein_go_brrr/autodock/final/AncA/IHP/dock.dpf
USER    NEWDPF move	IHP_ideal_opt.pdbqt
USER    NEWDPF about	0.035000 0.082000 -0.065000
USER    NEWDPF tran0	-14.059602 -15.023187 -5.573972
USER    NEWDPF axisangle0	0.160873 0.658405 0.735271 -83.185571
USER    NEWDPF quaternion0	0.106793 0.437070 0.488096 -0.747882
USER    NEWDPF dihe0	177.68 105.57 131.38 138.91 28.65 -108.09 -69.05 -35.42 77.12 119.49 -171.12 162.35 -95.76 69.15 -56.89 175.32 103.95 163.61 -135.42 -20.58 -172.38 -20.91 5.06 177.08 
USER  
USER                              x       y       z    vdW   Elec        q     RMS 
ATOM      1  C   UNL d   1     -12.717 -14.225  -6.312 -0.20 +0.03    +0.194    16.834
ATOM      2  C   UNL d   1     -12.662 -15.754  -6.318 -0.12 +0.04    +0.194    16.834
ATOM      3  C   UNL d   1     -13.094 -16.341  -4.973 -0.04 +0.04    +0.194    16.834
ATOM      4  C   UNL d   1     -14.444 -15.814  -4.492 -0.02 +0.03    +0.194    16.834
ATOM      5  C   UNL d   1     -14.586 -14.300  -4.578 -0.06 +0.03    +0.194    16.834
ATOM      6  C   UNL d   1     -14.096 -13.706  -5.901 -0.09 +0.03    +0.194    16.834
ATOM      7  O   UNL d   1     -12.469 -13.765  -7.643 -0.15 +0.00    -0.278    16.834
ATOM      8  P   UNL d   1     -13.713 -13.292  -8.527 -0.14 +0.02    +0.473    16.834
ATOM      9  O   UNL d   1     -14.906 -14.179  -8.464 -0.07 -0.03    -0.228    16.834
ATOM     10  O   UNL d   1     -14.006 -11.808  -8.019 -0.16 +0.02    -0.303    16.834
ATOM     11  H   UNL d   1     -13.216 -11.455  -7.568 -0.36 -0.05    +0.222    16.834
ATOM     12  O   UNL d   1     -13.115 -13.035  -9.977 -0.26 -0.01    -0.303    16.834
ATOM     13  H   UNL d   1     -12.712 -13.839 -10.375 -0.32 -0.02    +0.222    16.834
ATOM     14  O   UNL d   1     -13.540 -16.249  -7.336 -0.06 -0.05    -0.278    16.834
ATOM     15  P   UNL d   1     -12.848 -16.939  -8.605 -0.07 +0.09    +0.473    16.834
ATOM     16  O   UNL d   1     -13.281 -18.334  -8.931 -0.03 -0.06    -0.228    16.834
ATOM     17  O   UNL d   1     -13.114 -15.915  -9.796 -0.09 -0.03    -0.303    16.834
ATOM     18  H   UNL d   1     -13.079 -14.991  -9.480 -0.44 -0.02    +0.222    16.834
ATOM     19  O   UNL d   1     -11.288 -16.745  -8.360 -0.14 -0.07    -0.303    16.834
ATOM     20  H   UNL d   1     -10.940 -17.396  -7.722 +0.06 +0.08    +0.222    16.834
ATOM     21  O   UNL d   1     -13.970 -12.300  -5.699 -0.11 -0.02    -0.278    16.834
ATOM     22  P   UNL d   1     -12.628 -11.706  -5.074 -0.21 +0.05    +0.473    16.834
ATOM     23  O   UNL d   1     -11.817 -12.585  -4.182 -0.19 -0.05    -0.228    16.834
ATOM     24  O   UNL d   1     -11.866 -11.186  -6.371 -0.20 -0.02    -0.303    16.834
ATOM     25  H   UNL d   1     -12.034 -11.830  -7.105 -0.32 +0.00    +0.222    16.834
ATOM     26  O   UNL d   1     -13.150 -10.336  -4.425 +0.03 +0.04    -0.303    16.834
ATOM     27  H   UNL d   1     -13.606 -10.533  -3.581 -0.38 -0.09    +0.222    16.834
ATOM     28  O   UNL d   1     -13.278 -17.739  -5.155 -0.01 -0.07    -0.278    16.834
ATOM     29  P   UNL d   1     -12.063 -18.746  -4.936 -0.00 +0.14    +0.473    16.834
ATOM     30  O   UNL d   1     -12.433 -20.101  -4.453 -0.00 -0.06    -0.228    16.834
ATOM     31  O   UNL d   1     -11.360 -18.652  -6.370 -0.02 -0.11    -0.303    16.834
ATOM     32  H   UNL d   1     -12.002 -18.264  -7.009 +0.04 +0.07    +0.222    16.834
ATOM     33  O   UNL d   1     -11.087 -17.894  -4.010 -0.01 -0.11    -0.303    16.834
ATOM     34  H   UNL d   1     -11.615 -17.209  -3.531 +0.03 +0.07    +0.222    16.834
ATOM     35  O   UNL d   1     -15.985 -14.036  -4.492 -0.03 -0.03    -0.278    16.834
ATOM     36  P   UNL d   1     -16.526 -12.861  -3.560 -0.13 +0.04    +0.473    16.834
ATOM     37  O   UNL d   1     -17.770 -12.180  -4.037 -0.11 -0.01    -0.228    16.834
ATOM     38  O   UNL d   1     -16.682 -13.602  -2.159 -0.18 -0.04    -0.303    16.834
ATOM     39  H   UNL d   1     -16.305 -14.505  -2.230 +0.05 +0.03    +0.222    16.834
ATOM     40  O   UNL d   1     -15.234 -11.953  -3.372 -0.30 -0.02    -0.303    16.834
ATOM     41  H   UNL d   1     -15.062 -11.396  -4.163 +0.10 +0.00    +0.222    16.834
ATOM     42  O   UNL d   1     -14.561 -16.170  -3.111 -0.03 -0.05    -0.278    16.834
ATOM     43  P   UNL d   1     -13.564 -15.507  -2.057 -0.09 +0.09    +0.473    16.834
ATOM     44  O   UNL d   1     -13.221 -16.300  -0.843 -0.10 -0.05    -0.228    16.834
ATOM     45  O   UNL d   1     -12.310 -15.120  -2.957 -0.07 -0.08    -0.303    16.834
ATOM     46  H   UNL d   1     -12.177 -14.152  -2.989 +0.06 +0.05    +0.222    16.834
ATOM     47  O   UNL d   1     -14.223 -14.072  -1.782 +0.00 -0.01    -0.303    16.834
ATOM     48  H   UNL d   1     -14.845 -13.858  -2.509 +0.05 +0.02    +0.222    16.834
TER
ENDMDL
MODEL       22
USER    Run = 22
USER    Cluster Rank = 19
USER    Number of conformations in this cluster = 2
USER  
USER    RMSD from reference structure       = 17.973 A
USER  
USER    Estimated Free Energy of Binding    =   +2.10 kcal/mol  [=(1)+(2)+(3)-(4)]
USER    
USER    (1) Final Intermolecular Energy     =   -5.06 kcal/mol
USER        vdW + Hbond + desolv Energy     =   -4.80 kcal/mol
USER        Electrostatic Energy            =   -0.26 kcal/mol
USER    (2) Final Total Internal Energy     =  -11.74 kcal/mol
USER    (3) Torsional Free Energy           =   +7.16 kcal/mol
USER    (4) Unbound System's Energy  [=(2)] =  -11.74 kcal/mol
USER    
USER    
USER  
USER    DPF = D:/Protein_go_brrr/autodock/final/AncA/IHP/dock.dpf
USER    NEWDPF move	IHP_ideal_opt.pdbqt
USER    NEWDPF about	0.035000 0.082000 -0.065000
USER    NEWDPF tran0	-13.355241 -15.301675 7.597219
USER    NEWDPF axisangle0	0.979159 -0.195040 -0.056626 -74.036337
USER    NEWDPF quaternion0	0.589521 -0.117428 -0.034093 -0.798445
USER    NEWDPF dihe0	72.38 -154.43 26.51 -179.70 141.43 121.83 -35.20 -103.23 102.44 9.33 158.50 97.56 159.80 -86.02 -145.28 90.57 -138.92 63.60 -23.71 -2.89 3.13 -16.41 -21.08 11.27 
USER  
USER                              x       y       z    vdW   Elec        q     RMS 
ATOM      1  C   UNL d   1     -12.245 -16.550   7.158 -0.06 +0.05    +0.194    17.973
ATOM      2  C   UNL d   1     -13.304 -16.209   6.109 -0.09 +0.05    +0.194    17.973
ATOM      3  C   UNL d   1     -14.687 -16.023   6.738 -0.10 +0.03    +0.194    17.973
ATOM      4  C   UNL d   1     -14.689 -15.036   7.903 +0.11 +0.02    +0.194    17.973
ATOM      5  C   UNL d   1     -13.576 -15.270   8.917 -0.11 +0.03    +0.194    17.973
ATOM      6  C   UNL d   1     -12.205 -15.517   8.285 -0.11 +0.05    +0.194    17.973
ATOM      7  O   UNL d   1     -10.965 -16.537   6.521 -0.03 -0.08    -0.278    17.973
ATOM      8  P   UNL d   1      -9.854 -17.566   7.028 +0.01 +0.13    +0.473    17.973
ATOM      9  O   UNL d   1      -8.450 -17.085   6.915 -0.01 -0.09    -0.228    17.973
ATOM     10  O   UNL d   1     -10.287 -17.895   8.528 -0.00 -0.06    -0.303    17.973
ATOM     11  H   UNL d   1      -9.922 -17.219   9.129 +0.02 +0.05    +0.222    17.973
ATOM     12  O   UNL d   1     -10.183 -18.929   6.281 +0.00 -0.08    -0.303    17.973
ATOM     13  H   UNL d   1      -9.420 -19.550   6.257 +0.00 +0.06    +0.222    17.973
ATOM     14  O   UNL d   1     -12.934 -14.990   5.452 -0.37 -0.13    -0.278    17.973
ATOM     15  P   UNL d   1     -12.916 -15.017   3.851 -0.17 +0.13    +0.473    17.973
ATOM     16  O   UNL d   1     -12.583 -16.325   3.204 -0.08 -0.06    -0.228    17.973
ATOM     17  O   UNL d   1     -14.355 -14.473   3.437 -0.19 -0.03    -0.303    17.973
ATOM     18  H   UNL d   1     -15.054 -15.116   3.668 -0.05 +0.01    +0.222    17.973
ATOM     19  O   UNL d   1     -11.984 -13.794   3.444 -0.22 -0.10    -0.303    17.973
ATOM     20  H   UNL d   1     -11.214 -14.085   2.921 +0.09 +0.09    +0.222    17.973
ATOM     21  O   UNL d   1     -11.368 -16.049   9.310 -0.04 -0.06    -0.278    17.973
ATOM     22  P   UNL d   1     -10.350 -15.090  10.077 -0.09 +0.11    +0.473    17.973
ATOM     23  O   UNL d   1      -8.888 -15.341   9.915 -0.07 -0.05    -0.228    17.973
ATOM     24  O   UNL d   1     -10.837 -13.651   9.603 -0.18 -0.10    -0.303    17.973
ATOM     25  H   UNL d   1     -11.673 -13.434  10.088 +0.08 +0.07    +0.222    17.973
ATOM     26  O   UNL d   1     -10.911 -15.152  11.577 -0.07 -0.05    -0.303    17.973
ATOM     27  H   UNL d   1     -11.868 -14.945  11.572 +0.05 +0.04    +0.222    17.973
ATOM     28  O   UNL d   1     -15.532 -15.444   5.752 -0.15 -0.02    -0.278    17.973
ATOM     29  P   UNL d   1     -16.449 -16.369   4.835 -0.06 +0.03    +0.473    17.973
ATOM     30  O   UNL d   1     -17.509 -17.128   5.548 -0.02 -0.02    -0.228    17.973
ATOM     31  O   UNL d   1     -16.929 -15.297   3.749 -0.15 +0.00    -0.303    17.973
ATOM     32  H   UNL d   1     -16.338 -14.511   3.801 -0.51 -0.07    +0.222    17.973
ATOM     33  O   UNL d   1     -15.368 -17.222   4.035 -0.03 -0.04    -0.303    17.973
ATOM     34  H   UNL d   1     -14.647 -16.620   3.728 +0.05 +0.04    +0.222    17.973
ATOM     35  O   UNL d   1     -13.480 -14.064   9.671 -0.14 -0.05    -0.278    17.973
ATOM     36  P   UNL d   1     -13.954 -14.026  11.194 -0.08 +0.05    +0.473    17.973
ATOM     37  O   UNL d   1     -15.357 -13.563  11.421 -0.10 +0.00    -0.228    17.973
ATOM     38  O   UNL d   1     -13.676 -15.524  11.658 -0.02 -0.03    -0.303    17.973
ATOM     39  H   UNL d   1     -12.895 -15.870  11.176 +0.03 +0.03    +0.222    17.973
ATOM     40  O   UNL d   1     -12.795 -13.189  11.890 -0.16 -0.05    -0.303    17.973
ATOM     41  H   UNL d   1     -11.926 -13.339  11.456 +0.06 +0.05    +0.222    17.973
ATOM     42  O   UNL d   1     -15.931 -15.213   8.593 -0.09 -0.01    -0.278    17.973
ATOM     43  P   UNL d   1     -17.121 -14.188   8.315 -0.14 -0.02    +0.473    17.973
ATOM     44  O   UNL d   1     -18.297 -14.692   7.552 -0.10 -0.01    -0.228    17.973
ATOM     45  O   UNL d   1     -17.470 -13.654   9.772 -0.07 +0.05    -0.303    17.973
ATOM     46  H   UNL d   1     -16.895 -12.905  10.027 -0.51 -0.12    +0.222    17.973
ATOM     47  O   UNL d   1     -16.372 -12.923   7.675 -0.48 +0.04    -0.303    17.973
ATOM     48  H   UNL d   1     -16.017 -12.360   8.394 -0.47 -0.12    +0.222    17.973
TER
ENDMDL
MODEL       45
USER    Run = 45
USER    Cluster Rank = 20
USER    Number of conformations in this cluster = 1
USER  
USER    RMSD from reference structure       = 16.045 A
USER  
USER    Estimated Free Energy of Binding    =   +2.15 kcal/mol  [=(1)+(2)+(3)-(4)]
USER    
USER    (1) Final Intermolecular Energy     =   -5.01 kcal/mol
USER        vdW + Hbond + desolv Energy     =   -4.98 kcal/mol
USER        Electrostatic Energy            =   -0.03 kcal/mol
USER    (2) Final Total Internal Energy     =  -13.26 kcal/mol
USER    (3) Torsional Free Energy           =   +7.16 kcal/mol
USER    (4) Unbound System's Energy  [=(2)] =  -13.26 kcal/mol
USER    
USER    
USER  
USER    DPF = D:/Protein_go_brrr/autodock/final/AncA/IHP/dock.dpf
USER    NEWDPF move	IHP_ideal_opt.pdbqt
USER    NEWDPF about	0.035000 0.082000 -0.065000
USER    NEWDPF tran0	4.437057 9.115561 14.972842
USER    NEWDPF axisangle0	0.291862 -0.083675 0.952793 82.809482
USER    NEWDPF quaternion0	0.193030 -0.055341 0.630153 0.750056
USER    NEWDPF dihe0	132.67 107.81 61.86 47.95 -83.60 172.69 11.26 -163.77 115.22 20.40 143.96 173.71 -85.72 -37.82 23.57 -52.67 109.58 -134.71 -147.91 -5.31 153.84 142.76 -56.33 158.61 
USER  
USER                              x       y       z    vdW   Elec        q     RMS 
ATOM      1  C   UNL d   1       4.125   7.962  16.220 -0.05 -0.02    +0.194    16.045
ATOM      2  C   UNL d   1       3.012   8.981  15.970 -0.06 -0.02    +0.194    16.045
ATOM      3  C   UNL d   1       3.571  10.393  15.778 -0.04 -0.02    +0.194    16.045
ATOM      4  C   UNL d   1       4.670  10.467  14.721 -0.11 -0.03    +0.194    16.045
ATOM      5  C   UNL d   1       5.742   9.394  14.864 -0.09 -0.03    +0.194    16.045
ATOM      6  C   UNL d   1       5.185   7.992  15.118 -0.09 -0.03    +0.194    16.045
ATOM      7  O   UNL d   1       3.542   6.656  16.216 -0.04 +0.02    -0.278    16.045
ATOM      8  P   UNL d   1       3.447   5.872  14.827 -0.13 -0.02    +0.473    16.045
ATOM      9  O   UNL d   1       3.210   6.729  13.633 -0.23 +0.04    -0.228    16.045
ATOM     10  O   UNL d   1       4.814   5.053  14.751 -0.10 +0.01    -0.303    16.045
ATOM     11  H   UNL d   1       5.494   5.501  15.289 +0.06 -0.01    +0.222    16.045
ATOM     12  O   UNL d   1       2.382   4.719  15.076 -0.62 -0.02    -0.303    16.045
ATOM     13  H   UNL d   1       1.486   5.062  15.291 +0.04 +0.01    +0.222    16.045
ATOM     14  O   UNL d   1       2.295   8.609  14.786 -0.16 +0.05    -0.278    16.045
ATOM     15  P   UNL d   1       0.707   8.463  14.927 -0.15 -0.07    +0.473    16.045
ATOM     16  O   UNL d   1       0.077   9.105  16.123 -0.03 +0.02    -0.228    16.045
ATOM     17  O   UNL d   1       0.141   9.032  13.551 -0.19 +0.09    -0.303    16.045
ATOM     18  H   UNL d   1       0.697   9.762  13.217 -0.34 -0.13    +0.222    16.045
ATOM     19  O   UNL d   1       0.436   6.904  14.764 -0.16 +0.04    -0.303    16.045
ATOM     20  H   UNL d   1       1.226   6.433  14.440 +0.05 -0.01    +0.222    16.045
ATOM     21  O   UNL d   1       6.275   7.189  15.564 -0.04 +0.02    -0.278    16.045
ATOM     22  P   UNL d   1       7.189   7.695  16.770 +0.01 -0.02    +0.473    16.045
ATOM     23  O   UNL d   1       6.521   8.077  18.048 -0.00 +0.00    -0.228    16.045
ATOM     24  O   UNL d   1       8.246   6.512  16.896 -0.00 +0.00    -0.303    16.045
ATOM     25  H   UNL d   1       8.528   6.451  17.844 +0.00 +0.00    +0.222    16.045
ATOM     26  O   UNL d   1       8.058   8.841  16.061 -0.00 +0.02    -0.303    16.045
ATOM     27  H   UNL d   1       7.811   8.893  15.116 +0.05 -0.03    +0.222    16.045
ATOM     28  O   UNL d   1       2.515  11.207  15.282 -0.04 +0.03    -0.278    16.045
ATOM     29  P   UNL d   1       2.506  11.673  13.759 -0.10 -0.09    +0.473    16.045
ATOM     30  O   UNL d   1       3.407  12.807  13.430 -0.12 +0.02    -0.228    16.045
ATOM     31  O   UNL d   1       2.805  10.275  13.038 -0.06 +0.12    -0.303    16.045
ATOM     32  H   UNL d   1       2.064   9.656  13.234 -0.47 -0.11    +0.222    16.045
ATOM     33  O   UNL d   1       0.952  11.884  13.484 -0.10 +0.07    -0.303    16.045
ATOM     34  H   UNL d   1       0.615  11.129  12.943 -0.46 -0.12    +0.222    16.045
ATOM     35  O   UNL d   1       6.421   9.355  13.611 -0.18 +0.07    -0.278    16.045
ATOM     36  P   UNL d   1       7.437  10.518  13.211 -0.22 -0.11    +0.473    16.045
ATOM     37  O   UNL d   1       8.510  10.132  12.242 -0.20 +0.19    -0.228    16.045
ATOM     38  O   UNL d   1       6.448  11.646  12.676 -0.71 -0.00    -0.303    16.045
ATOM     39  H   UNL d   1       5.693  11.731  13.297 +0.08 -0.01    +0.222    16.045
ATOM     40  O   UNL d   1       7.907  11.062  14.629 -0.04 +0.04    -0.303    16.045
ATOM     41  H   UNL d   1       7.266  10.833  15.338 +0.05 -0.02    +0.222    16.045
ATOM     42  O   UNL d   1       5.317  11.733  14.883 -0.04 +0.02    -0.278    16.045
ATOM     43  P   UNL d   1       5.750  12.196  16.347 +0.01 -0.02    +0.473    16.045
ATOM     44  O   UNL d   1       4.752  12.955  17.151 -0.00 +0.00    -0.228    16.045
ATOM     45  O   UNL d   1       6.225  10.833  17.017 +0.00 +0.01    -0.303    16.045
ATOM     46  H   UNL d   1       7.070  10.521  16.635 +0.02 -0.01    +0.222    16.045
ATOM     47  O   UNL d   1       7.148  12.940  16.097 -0.01 +0.01    -0.303    16.045
ATOM     48  H   UNL d   1       7.418  12.815  15.164 +0.04 -0.01    +0.222    16.045
TER
ENDMDL
MODEL       37
USER    Run = 37
USER    Cluster Rank = 21
USER    Number of conformations in this cluster = 1
USER  
USER    RMSD from reference structure       = 16.115 A
USER  
USER    Estimated Free Energy of Binding    =   +2.16 kcal/mol  [=(1)+(2)+(3)-(4)]
USER    
USER    (1) Final Intermolecular Energy     =   -5.00 kcal/mol
USER        vdW + Hbond + desolv Energy     =   -4.66 kcal/mol
USER        Electrostatic Energy            =   -0.34 kcal/mol
USER    (2) Final Total Internal Energy     =  -13.02 kcal/mol
USER    (3) Torsional Free Energy           =   +7.16 kcal/mol
USER    (4) Unbound System's Energy  [=(2)] =  -13.02 kcal/mol
USER    
USER    
USER  
USER    DPF = D:/Protein_go_brrr/autodock/final/AncA/IHP/dock.dpf
USER    NEWDPF move	IHP_ideal_opt.pdbqt
USER    NEWDPF about	0.035000 0.082000 -0.065000
USER    NEWDPF tran0	-17.592191 7.569473 4.841489
USER    NEWDPF axisangle0	0.592311 -0.397117 -0.701046 -166.635869
USER    NEWDPF quaternion0	0.588288 -0.394419 -0.696284 -0.116360
USER    NEWDPF dihe0	165.03 -152.28 -164.42 -8.85 48.93 -170.79 0.99 -10.05 107.78 -1.49 -17.81 180.00 -78.71 179.26 167.41 153.50 99.15 -49.04 73.80 19.45 -15.91 22.11 -15.59 -176.81 
USER  
USER                              x       y       z    vdW   Elec        q     RMS 
ATOM      1  C   UNL d   1     -18.396   7.699   3.318 -0.15 +0.01    +0.194    16.115
ATOM      2  C   UNL d   1     -17.467   8.860   3.675 -0.13 +0.00    +0.194    16.115
ATOM      3  C   UNL d   1     -17.627   9.285   5.137 -0.07 +0.01    +0.194    16.115
ATOM      4  C   UNL d   1     -17.502   8.122   6.118 -0.04 +0.02    +0.194    16.115
ATOM      5  C   UNL d   1     -18.324   6.898   5.738 -0.10 +0.03    +0.194    16.115
ATOM      6  C   UNL d   1     -18.212   6.510   4.262 -0.18 +0.03    +0.194    16.115
ATOM      7  O   UNL d   1     -18.066   7.252   2.001 -0.17 +0.02    -0.278    16.115
ATOM      8  P   UNL d   1     -17.924   8.343   0.843 -0.15 -0.02    +0.473    16.115
ATOM      9  O   UNL d   1     -18.723   9.583   1.042 -0.05 -0.01    -0.228    16.115
ATOM     10  O   UNL d   1     -16.354   8.614   0.757 -0.25 +0.05    -0.303    16.115
ATOM     11  H   UNL d   1     -15.882   7.983   1.331 -0.41 -0.07    +0.222    16.115
ATOM     12  O   UNL d   1     -18.199   7.551  -0.507 -0.16 -0.01    -0.303    16.115
ATOM     13  H   UNL d   1     -18.411   8.141  -1.264 +0.06 +0.01    +0.222    16.115
ATOM     14  O   UNL d   1     -16.109   8.454   3.464 -0.19 +0.02    -0.278    16.115
ATOM     15  P   UNL d   1     -15.068   9.608   3.078 -0.18 -0.00    +0.473    16.115
ATOM     16  O   UNL d   1     -14.278   9.407   1.823 -0.18 -0.00    -0.228    16.115
ATOM     17  O   UNL d   1     -15.953  10.932   3.045 -0.04 -0.01    -0.303    16.115
ATOM     18  H   UNL d   1     -15.850  11.444   3.871 +0.03 +0.01    +0.222    16.115
ATOM     19  O   UNL d   1     -14.212   9.828   4.400 -0.11 -0.01    -0.303    16.115
ATOM     20  H   UNL d   1     -14.744  10.227   5.112 +0.04 +0.01    +0.222    16.115
ATOM     21  O   UNL d   1     -19.273   5.595   3.995 -0.12 -0.10    -0.278    16.115
ATOM     22  P   UNL d   1     -18.937   4.109   3.522 -0.12 +0.47    +0.473    16.115
ATOM     23  O   UNL d   1     -20.020   3.313   2.876 -0.25 -0.31    -0.228    16.115
ATOM     24  O   UNL d   1     -17.647   4.339   2.618 -0.32 -0.14    -0.303    16.115
ATOM     25  H   UNL d   1     -17.602   5.301   2.385 -0.47 -0.01    +0.222    16.115
ATOM     26  O   UNL d   1     -18.300   3.481   4.853 -0.71 -0.41    -0.303    16.115
ATOM     27  H   UNL d   1     -18.510   4.059   5.614 +0.06 +0.16    +0.222    16.115
ATOM     28  O   UNL d   1     -16.550  10.160   5.449 -0.04 -0.02    -0.278    16.115
ATOM     29  P   UNL d   1     -16.824  11.535   6.205 -0.01 +0.03    +0.473    16.115
ATOM     30  O   UNL d   1     -16.010  11.769   7.425 -0.01 -0.01    -0.228    16.115
ATOM     31  O   UNL d   1     -16.630  12.562   4.993 -0.00 -0.01    -0.303    16.115
ATOM     32  H   UNL d   1     -17.203  12.277   4.244 +0.01 +0.01    +0.222    16.115
ATOM     33  O   UNL d   1     -18.406  11.505   6.390 -0.00 -0.02    -0.303    16.115
ATOM     34  H   UNL d   1     -18.668  10.629   6.767 +0.01 +0.02    +0.222    16.115
ATOM     35  O   UNL d   1     -17.785   5.818   6.498 -0.12 -0.07    -0.278    16.115
ATOM     36  P   UNL d   1     -18.670   5.098   7.613 -0.04 +0.11    +0.473    16.115
ATOM     37  O   UNL d   1     -18.469   3.621   7.741 -0.05 -0.08    -0.228    16.115
ATOM     38  O   UNL d   1     -18.287   5.926   8.918 -0.02 -0.04    -0.303    16.115
ATOM     39  H   UNL d   1     -18.183   6.872   8.678 +0.02 +0.03    +0.222    16.115
ATOM     40  O   UNL d   1     -20.137   5.598   7.258 -0.01 -0.06    -0.303    16.115
ATOM     41  H   UNL d   1     -20.153   6.558   7.045 +0.02 +0.04    +0.222    16.115
ATOM     42  O   UNL d   1     -17.997   8.587   7.378 -0.03 -0.03    -0.278    16.115
ATOM     43  P   UNL d   1     -19.566   8.813   7.554 -0.01 +0.04    +0.473    16.115
ATOM     44  O   UNL d   1     -20.429   8.596   6.360 -0.01 -0.02    -0.228    16.115
ATOM     45  O   UNL d   1     -19.917   7.875   8.791 -0.00 -0.03    -0.303    16.115
ATOM     46  H   UNL d   1     -20.172   6.978   8.498 +0.01 +0.03    +0.222    16.115
ATOM     47  O   UNL d   1     -19.654  10.271   8.215 -0.00 -0.02    -0.303    16.115
ATOM     48  H   UNL d   1     -18.749  10.620   8.348 +0.00 +0.01    +0.222    16.115
TER
ENDMDL
MODEL       86
USER    Run = 86
USER    Cluster Rank = 22
USER    Number of conformations in this cluster = 1
USER  
USER    RMSD from reference structure       = 14.630 A
USER  
USER    Estimated Free Energy of Binding    =   +2.18 kcal/mol  [=(1)+(2)+(3)-(4)]
USER    
USER    (1) Final Intermolecular Energy     =   -4.98 kcal/mol
USER        vdW + Hbond + desolv Energy     =   -4.62 kcal/mol
USER        Electrostatic Energy            =   -0.36 kcal/mol
USER    (2) Final Total Internal Energy     =  -12.33 kcal/mol
USER    (3) Torsional Free Energy           =   +7.16 kcal/mol
USER    (4) Unbound System's Energy  [=(2)] =  -12.33 kcal/mol
USER    
USER    
USER  
USER    DPF = D:/Protein_go_brrr/autodock/final/AncA/IHP/dock.dpf
USER    NEWDPF move	IHP_ideal_opt.pdbqt
USER    NEWDPF about	0.035000 0.082000 -0.065000
USER    NEWDPF tran0	-8.174644 -16.114804 2.508501
USER    NEWDPF axisangle0	-0.548270 0.581633 0.600918 121.382106
USER    NEWDPF quaternion0	-0.478088 0.507180 0.523996 0.489519
USER    NEWDPF dihe0	-132.48 -11.33 -171.60 -33.17 -12.81 180.00 -132.66 -63.87 64.32 113.36 -94.64 -169.78 62.54 -180.00 173.28 -136.00 50.78 4.23 38.72 15.27 172.35 -1.48 31.33 -21.65 
USER  
USER                              x       y       z    vdW   Elec        q     RMS 
ATOM      1  C   UNL d   1      -9.068 -17.309   1.638 +0.00 +0.11    +0.194    14.630
ATOM      2  C   UNL d   1      -8.643 -16.082   0.829 -0.02 +0.15    +0.194    14.630
ATOM      3  C   UNL d   1      -8.855 -14.786   1.614 -0.09 +0.17    +0.194    14.630
ATOM      4  C   UNL d   1      -8.219 -14.812   3.001 -0.10 +0.23    +0.194    14.630
ATOM      5  C   UNL d   1      -8.523 -16.072   3.800 -0.05 +0.16    +0.194    14.630
ATOM      6  C   UNL d   1      -8.371 -17.366   2.997 -0.01 +0.13    +0.194    14.630
ATOM      7  O   UNL d   1      -8.681 -18.478   0.911 +0.01 -0.14    -0.278    14.630
ATOM      8  P   UNL d   1      -9.653 -19.015  -0.237 +0.02 +0.19    +0.473    14.630
ATOM      9  O   UNL d   1      -9.103 -18.935  -1.618 +0.00 -0.11    -0.228    14.630
ATOM     10  O   UNL d   1     -10.001 -20.504   0.215 +0.00 -0.09    -0.303    14.630
ATOM     11  H   UNL d   1     -10.571 -20.481   1.007 +0.00 +0.06    +0.222    14.630
ATOM     12  O   UNL d   1     -11.032 -18.263   0.004 +0.00 -0.10    -0.303    14.630
ATOM     13  H   UNL d   1     -11.395 -18.404   0.908 +0.01 +0.07    +0.222    14.630
ATOM     14  O   UNL d   1      -7.253 -16.197   0.503 -0.07 -0.34    -0.278    14.630
ATOM     15  P   UNL d   1      -6.793 -15.576  -0.899 -0.03 +0.73    +0.473    14.630
ATOM     16  O   UNL d   1      -6.081 -16.497  -1.841 -0.44 -0.45    -0.228    14.630
ATOM     17  O   UNL d   1      -8.134 -14.978  -1.517 -0.09 -0.31    -0.303    14.630
ATOM     18  H   UNL d   1      -8.241 -14.037  -1.280 +0.07 +0.21    +0.222    14.630
ATOM     19  O   UNL d   1      -6.003 -14.252  -0.508 -0.39 -0.57    -0.303    14.630
ATOM     20  H   UNL d   1      -6.587 -13.471  -0.506 +0.07 +0.32    +0.222    14.630
ATOM     21  O   UNL d   1      -9.006 -18.396   3.751 +0.00 -0.12    -0.278    14.630
ATOM     22  P   UNL d   1     -10.595 -18.407   3.895 +0.02 +0.15    +0.473    14.630
ATOM     23  O   UNL d   1     -11.192 -19.118   5.062 +0.00 -0.05    -0.228    14.630
ATOM     24  O   UNL d   1     -10.940 -16.855   3.810 -0.01 -0.11    -0.303    14.630
ATOM     25  H   UNL d   1     -10.748 -16.448   4.693 +0.04 +0.08    +0.222    14.630
ATOM     26  O   UNL d   1     -11.049 -18.926   2.448 +0.00 -0.09    -0.303    14.630
ATOM     27  H   UNL d   1     -10.256 -19.176   1.932 +0.00 +0.07    +0.222    14.630
ATOM     28  O   UNL d   1      -8.187 -13.746   0.911 -0.12 -0.29    -0.278    14.630
ATOM     29  P   UNL d   1      -9.022 -12.626   0.146 -0.15 +0.33    +0.473    14.630
ATOM     30  O   UNL d   1      -8.270 -11.854  -0.877 -0.19 -0.15    -0.228    14.630
ATOM     31  O   UNL d   1     -10.258 -13.503  -0.369 -0.39 -0.17    -0.303    14.630
ATOM     32  H   UNL d   1      -9.984 -13.982  -1.185 +0.07 +0.12    +0.222    14.630
ATOM     33  O   UNL d   1      -9.655 -11.800   1.351 -0.57 -0.18    -0.303    14.630
ATOM     34  H   UNL d   1      -9.424 -12.246   2.202 +0.13 +0.14    +0.222    14.630
ATOM     35  O   UNL d   1      -7.554 -16.111   4.846 -0.06 -0.27    -0.278    14.630
ATOM     36  P   UNL d   1      -7.794 -17.025   6.131 +0.01 +0.24    +0.473    14.630
ATOM     37  O   UNL d   1      -7.164 -18.381   6.084 -0.00 -0.10    -0.228    14.630
ATOM     38  O   UNL d   1      -7.251 -16.092   7.301 -0.02 -0.14    -0.303    14.630
ATOM     39  H   UNL d   1      -6.849 -15.286   6.910 +0.06 +0.14    +0.222    14.630
ATOM     40  O   UNL d   1      -9.374 -16.969   6.299 -0.00 -0.11    -0.303    14.630
ATOM     41  H   UNL d   1      -9.833 -17.483   5.597 +0.02 +0.08    +0.222    14.630
ATOM     42  O   UNL d   1      -8.769 -13.709   3.730 -0.17 -0.23    -0.278    14.630
ATOM     43  P   UNL d   1      -7.783 -12.751   4.539 -0.30 +0.43    +0.473    14.630
ATOM     44  O   UNL d   1      -6.596 -12.216   3.815 -0.99 -0.34    -0.228    14.630
ATOM     45  O   UNL d   1      -8.765 -11.630   5.097 -0.36 -0.11    -0.303    14.630
ATOM     46  H   UNL d   1      -8.270 -10.866   5.455 -0.43 -0.02    +0.222    14.630
ATOM     47  O   UNL d   1      -7.463 -13.592   5.866 -0.18 -0.23    -0.303    14.630
ATOM     48  H   UNL d   1      -7.819 -14.499   5.767 +0.09 +0.17    +0.222    14.630
TER
ENDMDL
MODEL       99
USER    Run = 99
USER    Cluster Rank = 23
USER    Number of conformations in this cluster = 1
USER  
USER    RMSD from reference structure       = 14.426 A
USER  
USER    Estimated Free Energy of Binding    =   +2.23 kcal/mol  [=(1)+(2)+(3)-(4)]
USER    
USER    (1) Final Intermolecular Energy     =   -4.93 kcal/mol
USER        vdW + Hbond + desolv Energy     =   -4.20 kcal/mol
USER        Electrostatic Energy            =   -0.73 kcal/mol
USER    (2) Final Total Internal Energy     =  -12.43 kcal/mol
USER    (3) Torsional Free Energy           =   +7.16 kcal/mol
USER    (4) Unbound System's Energy  [=(2)] =  -12.43 kcal/mol
USER    
USER    
USER  
USER    DPF = D:/Protein_go_brrr/autodock/final/AncA/IHP/dock.dpf
USER    NEWDPF move	IHP_ideal_opt.pdbqt
USER    NEWDPF about	0.035000 0.082000 -0.065000
USER    NEWDPF tran0	6.329336 -7.614129 14.343334
USER    NEWDPF axisangle0	0.890277 0.279571 0.359510 97.706676
USER    NEWDPF quaternion0	0.670403 0.210525 0.270721 0.657989
USER    NEWDPF dihe0	94.31 -61.99 -180.00 14.06 86.90 -171.23 55.46 -174.98 140.91 22.59 34.02 -180.00 151.63 173.84 67.94 -65.72 170.13 -71.48 -141.35 -9.45 34.41 -17.65 180.00 27.81 
USER  
USER                              x       y       z    vdW   Elec        q     RMS 
ATOM      1  C   UNL d   1       6.789  -6.878  15.837 -0.06 -0.02    +0.194    14.426
ATOM      2  C   UNL d   1       5.289  -7.117  15.652 -0.05 -0.03    +0.194    14.426
ATOM      3  C   UNL d   1       4.826  -6.742  14.242 +0.04 -0.08    +0.194    14.426
ATOM      4  C   UNL d   1       5.656  -7.399  13.142 -0.10 -0.03    +0.194    14.426
ATOM      5  C   UNL d   1       7.161  -7.285  13.347 -0.13 -0.01    +0.194    14.426
ATOM      6  C   UNL d   1       7.617  -7.600  14.774 -0.06 -0.00    +0.194    14.426
ATOM      7  O   UNL d   1       7.171  -7.410  17.108 -0.01 +0.00    -0.278    14.426
ATOM      8  P   UNL d   1       7.786  -8.884  17.161 +0.00 +0.02    +0.473    14.426
ATOM      9  O   UNL d   1       7.659  -9.574  18.473 -0.00 -0.01    -0.228    14.426
ATOM     10  O   UNL d   1       7.049  -9.653  15.973 -0.00 -0.01    -0.303    14.426
ATOM     11  H   UNL d   1       6.092  -9.700  16.158 +0.01 +0.01    +0.222    14.426
ATOM     12  O   UNL d   1       9.263  -8.735  16.595 -0.00 -0.01    -0.303    14.426
ATOM     13  H   UNL d   1       9.370  -9.111  15.692 +0.01 +0.01    +0.222    14.426
ATOM     14  O   UNL d   1       5.006  -8.505  15.871 -0.01 +0.01    -0.278    14.426
ATOM     15  P   UNL d   1       3.946  -8.846  17.021 +0.01 -0.03    +0.473    14.426
ATOM     16  O   UNL d   1       4.348  -9.885  18.020 +0.00 -0.00    -0.228    14.426
ATOM     17  O   UNL d   1       3.633  -7.435  17.691 -0.00 +0.04    -0.303    14.426
ATOM     18  H   UNL d   1       2.943  -6.955  17.193 +0.03 -0.05    +0.222    14.426
ATOM     19  O   UNL d   1       2.591  -9.135  16.239 +0.00 +0.03    -0.303    14.426
ATOM     20  H   UNL d   1       2.421  -8.464  15.552 +0.04 -0.05    +0.222    14.426
ATOM     21  O   UNL d   1       8.956  -7.125  14.892 -0.03 -0.01    -0.278    14.426
ATOM     22  P   UNL d   1      10.125  -7.837  14.073 -0.01 +0.03    +0.473    14.426
ATOM     23  O   UNL d   1      10.563  -7.218  12.788 -0.04 -0.01    -0.228    14.426
ATOM     24  O   UNL d   1      11.265  -7.964  15.176 -0.00 -0.02    -0.303    14.426
ATOM     25  H   UNL d   1      10.839  -7.901  16.068 +0.01 +0.01    +0.222    14.426
ATOM     26  O   UNL d   1       9.585  -9.344  13.979 -0.00 -0.02    -0.303    14.426
ATOM     27  H   UNL d   1       8.636  -9.361  14.218 +0.01 +0.02    +0.222    14.426
ATOM     28  O   UNL d   1       3.508  -7.250  14.075 -0.09 +0.11    -0.278    14.426
ATOM     29  P   UNL d   1       2.246  -6.333  14.397 -0.09 -0.48    +0.473    14.426
ATOM     30  O   UNL d   1       1.722  -6.429  15.783 -0.11 +0.18    -0.228    14.426
ATOM     31  O   UNL d   1       2.809  -4.910  13.930 -0.30 +0.39    -0.303    14.426
ATOM     32  H   UNL d   1       2.366  -4.659  13.086 -0.37 -0.45    +0.222    14.426
ATOM     33  O   UNL d   1       1.245  -6.719  13.220 -0.26 +0.43    -0.303    14.426
ATOM     34  H   UNL d   1       1.091  -5.922  12.655 -0.43 -0.51    +0.222    14.426
ATOM     35  O   UNL d   1       7.744  -8.267  12.493 -0.05 -0.01    -0.278    14.426
ATOM     36  P   UNL d   1       7.204  -9.768  12.508 +0.01 +0.06    +0.473    14.426
ATOM     37  O   UNL d   1       8.236 -10.827  12.283 -0.00 -0.04    -0.228    14.426
ATOM     38  O   UNL d   1       6.487  -9.843  13.928 -0.00 -0.03    -0.303    14.426
ATOM     39  H   UNL d   1       5.669  -9.303  13.903 +0.03 +0.02    +0.222    14.426
ATOM     40  O   UNL d   1       5.998  -9.705  11.473 -0.02 -0.08    -0.303    14.426
ATOM     41  H   UNL d   1       5.691  -8.783  11.327 +0.07 +0.03    +0.222    14.426
ATOM     42  O   UNL d   1       5.344  -6.716  11.923 -0.22 +0.08    -0.278    14.426
ATOM     43  P   UNL d   1       4.043  -7.148  11.107 -0.27 -0.03    +0.473    14.426
ATOM     44  O   UNL d   1       3.555  -8.545  11.283 -0.17 -0.06    -0.228    14.426
ATOM     45  O   UNL d   1       2.986  -6.032  11.519 -0.89 +0.12    -0.303    14.426
ATOM     46  H   UNL d   1       3.064  -5.797  12.465 +0.02 -0.17    +0.222    14.426
ATOM     47  O   UNL d   1       4.397  -6.724   9.603 -0.33 -0.01    -0.303    14.426
ATOM     48  H   UNL d   1       5.284  -6.308   9.585 -0.38 -0.06    +0.222    14.426
TER
ENDMDL
MODEL       20
USER    Run = 20
USER    Cluster Rank = 24
USER    Number of conformations in this cluster = 1
USER  
USER    RMSD from reference structure       = 17.504 A
USER  
USER    Estimated Free Energy of Binding    =   +2.24 kcal/mol  [=(1)+(2)+(3)-(4)]
USER    
USER    (1) Final Intermolecular Energy     =   -4.92 kcal/mol
USER        vdW + Hbond + desolv Energy     =   -4.42 kcal/mol
USER        Electrostatic Energy            =   -0.50 kcal/mol
USER    (2) Final Total Internal Energy     =  -14.45 kcal/mol
USER    (3) Torsional Free Energy           =   +7.16 kcal/mol
USER    (4) Unbound System's Energy  [=(2)] =  -14.45 kcal/mol
USER    
USER    
USER  
USER    DPF = D:/Protein_go_brrr/autodock/final/AncA/IHP/dock.dpf
USER    NEWDPF move	IHP_ideal_opt.pdbqt
USER    NEWDPF about	0.035000 0.082000 -0.065000
USER    NEWDPF tran0	-16.046420 -4.386950 -11.660660
USER    NEWDPF axisangle0	-0.358909 -0.040340 -0.932500 140.348072
USER    NEWDPF quaternion0	-0.337635 -0.037949 -0.877229 0.339164
USER    NEWDPF dihe0	-102.70 32.62 36.83 -11.21 163.94 163.92 -83.58 9.17 162.55 -7.25 179.96 151.24 -142.40 -158.71 -125.31 14.56 -177.39 173.25 27.52 -49.03 -46.79 176.87 29.69 1.03 
USER  
USER                              x       y       z    vdW   Elec        q     RMS 
ATOM      1  C   UNL d   1     -15.731  -3.057 -10.605 +0.08 -0.02    +0.194    17.504
ATOM      2  C   UNL d   1     -14.825  -3.155 -11.833 -0.01 -0.06    +0.194    17.504
ATOM      3  C   UNL d   1     -14.372  -4.593 -12.090 -0.12 -0.07    +0.194    17.504
ATOM      4  C   UNL d   1     -15.530  -5.587 -12.146 -0.17 -0.03    +0.194    17.504
ATOM      5  C   UNL d   1     -16.523  -5.449 -10.999 -0.13 -0.02    +0.194    17.504
ATOM      6  C   UNL d   1     -16.928  -4.003 -10.702 -0.12 -0.02    +0.194    17.504
ATOM      7  O   UNL d   1     -16.246  -1.725 -10.535 -0.09 +0.01    -0.278    17.504
ATOM      8  P   UNL d   1     -15.483  -0.663  -9.617 -0.16 +0.02    +0.473    17.504
ATOM      9  O   UNL d   1     -15.964  -0.584  -8.211 -0.29 -0.03    -0.228    17.504
ATOM     10  O   UNL d   1     -13.948  -1.084  -9.732 -1.11 -0.08    -0.303    17.504
ATOM     11  H   UNL d   1     -13.499  -0.508 -10.379 +0.13 -0.01    +0.222    17.504
ATOM     12  O   UNL d   1     -15.518   0.695 -10.440 -0.07 +0.01    -0.303    17.504
ATOM     13  H   UNL d   1     -15.798   0.573 -11.375 +0.07 -0.03    +0.222    17.504
ATOM     14  O   UNL d   1     -15.544  -2.690 -12.983 -0.10 +0.10    -0.278    17.504
ATOM     15  P   UNL d   1     -15.584  -1.106 -13.210 -0.04 -0.20    +0.473    17.504
ATOM     16  O   UNL d   1     -16.857  -0.406 -12.847 -0.02 +0.03    -0.228    17.504
ATOM     17  O   UNL d   1     -14.328  -0.565 -12.393 -0.12 +0.22    -0.303    17.504
ATOM     18  H   UNL d   1     -14.392  -0.805 -11.449 +0.10 -0.08    +0.222    17.504
ATOM     19  O   UNL d   1     -15.098  -0.908 -14.712 -0.06 +0.20    -0.303    17.504
ATOM     20  H   UNL d   1     -14.147  -1.097 -14.811 -0.32 -0.33    +0.222    17.504
ATOM     21  O   UNL d   1     -17.563  -4.007  -9.426 -0.14 +0.02    -0.278    17.504
ATOM     22  P   UNL d   1     -18.713  -2.947  -9.110 -0.08 +0.01    +0.473    17.504
ATOM     23  O   UNL d   1     -18.334  -1.684  -8.413 -0.18 -0.01    -0.228    17.504
ATOM     24  O   UNL d   1     -19.373  -2.746 -10.544 -0.01 -0.01    -0.303    17.504
ATOM     25  H   UNL d   1     -20.178  -3.321 -10.596 +0.02 +0.01    +0.222    17.504
ATOM     26  O   UNL d   1     -19.802  -3.860  -8.369 -0.09 -0.02    -0.303    17.504
ATOM     27  H   UNL d   1     -19.550  -4.801  -8.460 +0.04 +0.01    +0.222    17.504
ATOM     28  O   UNL d   1     -13.779  -4.632 -13.382 -0.21 +0.11    -0.278    17.504
ATOM     29  P   UNL d   1     -14.686  -4.523 -14.687 -0.05 -0.15    +0.473    17.504
ATOM     30  O   UNL d   1     -16.149  -4.649 -14.463 -0.02 +0.03    -0.228    17.504
ATOM     31  O   UNL d   1     -14.159  -3.132 -15.278 -0.08 +0.23    -0.303    17.504
ATOM     32  H   UNL d   1     -13.896  -2.551 -14.527 -0.53 -0.34    +0.222    17.504
ATOM     33  O   UNL d   1     -14.012  -5.593 -15.653 -0.03 +0.05    -0.303    17.504
ATOM     34  H   UNL d   1     -14.169  -6.499 -15.289 +0.06 -0.02    +0.222    17.504
ATOM     35  O   UNL d   1     -17.699  -6.136 -11.420 -0.03 -0.00    -0.278    17.504
ATOM     36  P   UNL d   1     -18.776  -6.618 -10.347 -0.01 +0.02    +0.473    17.504
ATOM     37  O   UNL d   1     -19.255  -8.027 -10.502 -0.01 -0.02    -0.228    17.504
ATOM     38  O   UNL d   1     -18.021  -6.331  -8.975 -0.10 -0.00    -0.303    17.504
ATOM     39  H   UNL d   1     -18.262  -5.434  -8.657 +0.05 -0.01    +0.222    17.504
ATOM     40  O   UNL d   1     -19.873  -5.470 -10.428 -0.01 -0.01    -0.303    17.504
ATOM     41  H   UNL d   1     -19.469  -4.575 -10.376 +0.03 +0.01    +0.222    17.504
ATOM     42  O   UNL d   1     -14.957  -6.896 -12.052 -0.18 +0.05    -0.278    17.504
ATOM     43  P   UNL d   1     -14.982  -7.843 -13.335 -0.10 +0.01    +0.473    17.504
ATOM     44  O   UNL d   1     -15.251  -9.292 -13.114 -0.17 -0.06    -0.228    17.504
ATOM     45  O   UNL d   1     -16.039  -7.122 -14.281 -0.02 -0.01    -0.303    17.504
ATOM     46  H   UNL d   1     -15.601  -6.679 -15.035 +0.04 -0.00    +0.222    17.504
ATOM     47  O   UNL d   1     -13.600  -7.500 -14.070 -0.16 +0.01    -0.303    17.504
ATOM     48  H   UNL d   1     -13.356  -6.570 -13.881 +0.09 -0.04    +0.222    17.504
TER
ENDMDL
MODEL       31
USER    Run = 31
USER    Cluster Rank = 25
USER    Number of conformations in this cluster = 1
USER  
USER    RMSD from reference structure       = 18.220 A
USER  
USER    Estimated Free Energy of Binding    =   +2.25 kcal/mol  [=(1)+(2)+(3)-(4)]
USER    
USER    (1) Final Intermolecular Energy     =   -4.91 kcal/mol
USER        vdW + Hbond + desolv Energy     =   -4.74 kcal/mol
USER        Electrostatic Energy            =   -0.18 kcal/mol
USER    (2) Final Total Internal Energy     =  -13.84 kcal/mol
USER    (3) Torsional Free Energy           =   +7.16 kcal/mol
USER    (4) Unbound System's Energy  [=(2)] =  -13.84 kcal/mol
USER    
USER    
USER  
USER    DPF = D:/Protein_go_brrr/autodock/final/AncA/IHP/dock.dpf
USER    NEWDPF move	IHP_ideal_opt.pdbqt
USER    NEWDPF about	0.035000 0.082000 -0.065000
USER    NEWDPF tran0	-17.050040 -13.096938 -7.180804
USER    NEWDPF axisangle0	0.605134 -0.210103 0.767900 157.058895
USER    NEWDPF quaternion0	0.593047 -0.205907 0.752562 0.198864
USER    NEWDPF dihe0	170.11 -0.72 142.99 -5.53 133.89 86.18 -79.51 15.54 -35.55 -18.37 -13.47 -60.19 42.38 -175.94 91.45 140.15 62.04 -26.86 24.30 4.94 -50.10 -1.43 -26.27 147.24 
USER  
USER                              x       y       z    vdW   Elec        q     RMS 
ATOM      1  C   UNL d   1     -16.601 -13.094  -5.513 -0.03 +0.02    +0.194    18.220
ATOM      2  C   UNL d   1     -16.733 -11.716  -6.164 -0.06 +0.02    +0.194    18.220
ATOM      3  C   UNL d   1     -16.103 -11.685  -7.558 -0.07 +0.02    +0.194    18.220
ATOM      4  C   UNL d   1     -16.603 -12.805  -8.468 -0.03 +0.03    +0.194    18.220
ATOM      5  C   UNL d   1     -16.597 -14.183  -7.819 -0.01 +0.03    +0.194    18.220
ATOM      6  C   UNL d   1     -17.170 -14.201  -6.401 -0.00 +0.03    +0.194    18.220
ATOM      7  O   UNL d   1     -17.357 -13.089  -4.300 -0.05 -0.03    -0.278    18.220
ATOM      8  P   UNL d   1     -16.585 -12.840  -2.924 -0.13 +0.05    +0.473    18.220
ATOM      9  O   UNL d   1     -16.558 -11.425  -2.462 -0.77 -0.03    -0.228    18.220
ATOM     10  O   UNL d   1     -17.303 -13.823  -1.894 -0.18 -0.04    -0.303    18.220
ATOM     11  H   UNL d   1     -17.872 -14.448  -2.381 +0.05 +0.03    +0.222    18.220
ATOM     12  O   UNL d   1     -15.168 -13.534  -3.114 -0.14 -0.03    -0.303    18.220
ATOM     13  H   UNL d   1     -15.230 -14.434  -3.507 +0.05 +0.03    +0.222    18.220
ATOM     14  O   UNL d   1     -18.123 -11.388  -6.283 -0.03 -0.03    -0.278    18.220
ATOM     15  P   UNL d   1     -18.541  -9.893  -5.891 -0.09 +0.03    +0.473    18.220
ATOM     16  O   UNL d   1     -19.536  -9.742  -4.783 -0.62 -0.05    -0.228    18.220
ATOM     17  O   UNL d   1     -17.155  -9.172  -5.579 -0.11 +0.04    -0.303    18.220
ATOM     18  H   UNL d   1     -16.498  -9.355  -6.278 +0.08 -0.00    +0.222    18.220
ATOM     19  O   UNL d   1     -18.948  -9.219  -7.273 -0.05 -0.02    -0.303    18.220
ATOM     20  H   UNL d   1     -18.185  -9.144  -7.876 +0.06 +0.01    +0.222    18.220
ATOM     21  O   UNL d   1     -16.786 -15.444  -5.817 -0.00 -0.04    -0.278    18.220
ATOM     22  P   UNL d   1     -17.690 -16.097  -4.676 +0.01 +0.06    +0.473    18.220
ATOM     23  O   UNL d   1     -18.241 -17.464  -4.909 -0.00 -0.03    -0.228    18.220
ATOM     24  O   UNL d   1     -16.750 -15.964  -3.400 -0.01 -0.04    -0.303    18.220
ATOM     25  H   UNL d   1     -16.663 -15.002  -3.179 +0.04 +0.03    +0.222    18.220
ATOM     26  O   UNL d   1     -18.769 -14.940  -4.415 -0.00 -0.04    -0.303    18.220
ATOM     27  H   UNL d   1     -18.421 -14.322  -3.740 +0.04 +0.02    +0.222    18.220
ATOM     28  O   UNL d   1     -16.512 -10.477  -8.186 -0.05 -0.02    -0.278    18.220
ATOM     29  P   UNL d   1     -15.466  -9.301  -8.427 -0.16 -0.00    +0.473    18.220
ATOM     30  O   UNL d   1     -15.158  -8.997  -9.848 -0.27 +0.01    -0.228    18.220
ATOM     31  O   UNL d   1     -16.150  -8.138  -7.567 -0.24 +0.00    -0.303    18.220
ATOM     32  H   UNL d   1     -17.123  -8.294  -7.545 +0.09 +0.00    +0.222    18.220
ATOM     33  O   UNL d   1     -14.245  -9.747  -7.506 -0.25 +0.03    -0.303    18.220
ATOM     34  H   UNL d   1     -13.770 -10.496  -7.943 -0.34 -0.06    +0.222    18.220
ATOM     35  O   UNL d   1     -17.447 -14.995  -8.626 -0.00 -0.05    -0.278    18.220
ATOM     36  P   UNL d   1     -16.821 -16.068  -9.627 +0.01 +0.11    +0.473    18.220
ATOM     37  O   UNL d   1     -16.953 -17.497  -9.206 +0.00 -0.05    -0.228    18.220
ATOM     38  O   UNL d   1     -17.565 -15.715 -10.990 -0.00 -0.09    -0.303    18.220
ATOM     39  H   UNL d   1     -18.243 -16.402 -11.173 +0.01 +0.06    +0.222    18.220
ATOM     40  O   UNL d   1     -15.346 -15.512  -9.842 -0.03 -0.08    -0.303    18.220
ATOM     41  H   UNL d   1     -15.350 -14.607 -10.228 +0.05 +0.07    +0.222    18.220
ATOM     42  O   UNL d   1     -15.709 -12.861  -9.585 -0.07 -0.06    -0.278    18.220
ATOM     43  P   UNL d   1     -14.157 -12.581  -9.345 -0.17 +0.04    +0.473    18.220
ATOM     44  O   UNL d   1     -13.645 -12.700  -7.952 -0.24 -0.00    -0.228    18.220
ATOM     45  O   UNL d   1     -13.461 -13.569 -10.381 -0.28 -0.06    -0.303    18.220
ATOM     46  H   UNL d   1     -13.334 -14.459  -9.997 -0.25 +0.01    +0.222    18.220
ATOM     47  O   UNL d   1     -13.929 -11.159 -10.048 -0.15 -0.00    -0.303    18.220
ATOM     48  H   UNL d   1     -13.628 -10.512  -9.376 -0.34 -0.09    +0.222    18.220
TER
ENDMDL
MODEL       84
USER    Run = 84
USER    Cluster Rank = 26
USER    Number of conformations in this cluster = 1
USER  
USER    RMSD from reference structure       = 14.631 A
USER  
USER    Estimated Free Energy of Binding    =   +2.25 kcal/mol  [=(1)+(2)+(3)-(4)]
USER    
USER    (1) Final Intermolecular Energy     =   -4.91 kcal/mol
USER        vdW + Hbond + desolv Energy     =   -4.69 kcal/mol
USER        Electrostatic Energy            =   -0.22 kcal/mol
USER    (2) Final Total Internal Energy     =  -11.58 kcal/mol
USER    (3) Torsional Free Energy           =   +7.16 kcal/mol
USER    (4) Unbound System's Energy  [=(2)] =  -11.58 kcal/mol
USER    
USER    
USER  
USER    DPF = D:/Protein_go_brrr/autodock/final/AncA/IHP/dock.dpf
USER    NEWDPF move	IHP_ideal_opt.pdbqt
USER    NEWDPF about	0.035000 0.082000 -0.065000
USER    NEWDPF tran0	-8.972411 -15.199537 2.640686
USER    NEWDPF axisangle0	0.888506 -0.300760 0.346555 91.831912
USER    NEWDPF quaternion0	0.638232 -0.216042 0.248937 0.695713
USER    NEWDPF dihe0	85.67 -64.14 96.03 8.23 117.27 -139.12 -145.47 170.70 96.29 107.81 1.41 2.25 147.98 -112.41 54.95 19.86 35.63 -82.53 -138.15 -33.58 45.49 -180.00 -169.33 -159.11 
USER  
USER                              x       y       z    vdW   Elec        q     RMS 
ATOM      1  C   UNL d   1      -7.565 -15.416   3.619 +0.10 +0.29    +0.194    14.631
ATOM      2  C   UNL d   1      -8.827 -14.977   4.364 -0.09 +0.14    +0.194    14.631
ATOM      3  C   UNL d   1      -9.582 -13.884   3.605 -0.19 +0.12    +0.194    14.631
ATOM      4  C   UNL d   1      -9.869 -14.251   2.150 -0.16 +0.12    +0.194    14.631
ATOM      5  C   UNL d   1      -8.663 -14.803   1.400 -0.09 +0.18    +0.194    14.631
ATOM      6  C   UNL d   1      -7.872 -15.851   2.185 -0.05 +0.24    +0.194    14.631
ATOM      7  O   UNL d   1      -7.016 -16.547   4.299 -0.16 -0.34    -0.278    14.631
ATOM      8  P   UNL d   1      -7.319 -18.004   3.716 -0.01 +0.34    +0.473    14.631
ATOM      9  O   UNL d   1      -7.126 -19.122   4.680 -0.00 -0.11    -0.228    14.631
ATOM     10  O   UNL d   1      -8.813 -17.898   3.168 +0.00 -0.16    -0.303    14.631
ATOM     11  H   UNL d   1      -9.435 -17.857   3.918 +0.01 +0.10    +0.222    14.631
ATOM     12  O   UNL d   1      -6.476 -18.094   2.372 -0.02 -0.28    -0.303    14.631
ATOM     13  H   UNL d   1      -7.037 -18.081   1.564 +0.01 +0.18    +0.222    14.631
ATOM     14  O   UNL d   1      -9.694 -16.107   4.520 -0.02 -0.14    -0.278    14.631
ATOM     15  P   UNL d   1      -9.636 -16.865   5.930 +0.02 +0.18    +0.473    14.631
ATOM     16  O   UNL d   1      -8.300 -17.384   6.360 -0.01 -0.09    -0.228    14.631
ATOM     17  O   UNL d   1     -10.251 -15.815   6.959 -0.04 -0.10    -0.303    14.631
ATOM     18  H   UNL d   1     -10.513 -14.991   6.506 +0.07 +0.09    +0.222    14.631
ATOM     19  O   UNL d   1     -10.798 -17.948   5.846 +0.00 -0.08    -0.303    14.631
ATOM     20  H   UNL d   1     -11.646 -17.548   5.578 +0.02 +0.06    +0.222    14.631
ATOM     21  O   UNL d   1      -6.621 -16.008   1.519 -0.08 -0.55    -0.278    14.631
ATOM     22  P   UNL d   1      -6.591 -16.416  -0.023 -0.05 +0.64    +0.473    14.631
ATOM     23  O   UNL d   1      -6.710 -15.333  -1.041 -0.53 -0.38    -0.228    14.631
ATOM     24  O   UNL d   1      -5.249 -17.267  -0.108 -0.06 -0.39    -0.303    14.631
ATOM     25  H   UNL d   1      -5.274 -17.954   0.606 +0.02 +0.23    +0.222    14.631
ATOM     26  O   UNL d   1      -7.713 -17.560  -0.079 +0.00 -0.24    -0.303    14.631
ATOM     27  H   UNL d   1      -8.511 -17.251   0.398 +0.02 +0.15    +0.222    14.631
ATOM     28  O   UNL d   1     -10.858 -13.741   4.216 -0.26 -0.12    -0.278    14.631
ATOM     29  P   UNL d   1     -11.948 -14.895   4.082 -0.15 +0.17    +0.473    14.631
ATOM     30  O   UNL d   1     -11.585 -16.018   3.181 -0.07 -0.08    -0.228    14.631
ATOM     31  O   UNL d   1     -12.172 -15.247   5.627 -0.61 -0.13    -0.303    14.631
ATOM     32  H   UNL d   1     -11.579 -15.996   5.868 +0.05 +0.07    +0.222    14.631
ATOM     33  O   UNL d   1     -13.261 -14.073   3.715 -0.27 -0.07    -0.303    14.631
ATOM     34  H   UNL d   1     -13.995 -14.356   4.313 +0.02 +0.04    +0.222    14.631
ATOM     35  O   UNL d   1      -9.190 -15.452   0.245 -0.02 -0.19    -0.278    14.631
ATOM     36  P   UNL d   1     -10.544 -16.289   0.340 -0.01 +0.21    +0.473    14.631
ATOM     37  O   UNL d   1     -11.804 -15.484   0.310 -0.12 -0.07    -0.228    14.631
ATOM     38  O   UNL d   1     -10.387 -17.304  -0.877 -0.00 -0.13    -0.303    14.631
ATOM     39  H   UNL d   1      -9.432 -17.442  -1.058 +0.02 +0.12    +0.222    14.631
ATOM     40  O   UNL d   1     -10.296 -17.193   1.626 -0.00 -0.13    -0.303    14.631
ATOM     41  H   UNL d   1     -10.240 -16.652   2.445 +0.03 +0.10    +0.222    14.631
ATOM     42  O   UNL d   1     -10.260 -13.044   1.488 -0.67 -0.18    -0.278    14.631
ATOM     43  P   UNL d   1      -9.137 -12.137   0.809 -0.16 +0.32    +0.473    14.631
ATOM     44  O   UNL d   1      -7.824 -12.034   1.505 -0.76 -0.27    -0.228    14.631
ATOM     45  O   UNL d   1      -9.048 -12.736  -0.663 -0.16 -0.20    -0.303    14.631
ATOM     46  H   UNL d   1      -8.624 -13.617  -0.666 +0.08 +0.18    +0.222    14.631
ATOM     47  O   UNL d   1      -9.894 -10.748   0.551 -0.49 -0.12    -0.303    14.631
ATOM     48  H   UNL d   1      -9.281 -10.123   0.112 +0.12 +0.07    +0.222    14.631
TER
ENDMDL
MODEL       60
USER    Run = 60
USER    Cluster Rank = 27
USER    Number of conformations in this cluster = 1
USER  
USER    RMSD from reference structure       = 14.458 A
USER  
USER    Estimated Free Energy of Binding    =   +2.26 kcal/mol  [=(1)+(2)+(3)-(4)]
USER    
USER    (1) Final Intermolecular Energy     =   -4.90 kcal/mol
USER        vdW + Hbond + desolv Energy     =   -4.69 kcal/mol
USER        Electrostatic Energy            =   -0.21 kcal/mol
USER    (2) Final Total Internal Energy     =  -14.22 kcal/mol
USER    (3) Torsional Free Energy           =   +7.16 kcal/mol
USER    (4) Unbound System's Energy  [=(2)] =  -14.22 kcal/mol
USER    
USER    
USER  
USER    DPF = D:/Protein_go_brrr/autodock/final/AncA/IHP/dock.dpf
USER    NEWDPF move	IHP_ideal_opt.pdbqt
USER    NEWDPF about	0.035000 0.082000 -0.065000
USER    NEWDPF tran0	-12.857166 10.621533 -4.849774
USER    NEWDPF axisangle0	-0.023745 0.846946 0.531149 100.715801
USER    NEWDPF quaternion0	-0.018285 0.652186 0.409008 0.637990
USER    NEWDPF dihe0	30.25 23.28 117.32 89.07 -10.45 -170.24 -104.10 -3.33 89.46 -37.86 -29.17 180.00 -25.06 95.38 -179.93 165.64 -179.62 158.90 52.48 -2.97 177.47 16.50 17.45 180.00 
USER  
USER                              x       y       z    vdW   Elec        q     RMS 
ATOM      1  C   UNL d   1     -14.202   9.751  -4.203 -0.16 -0.01    +0.194    14.458
ATOM      2  C   UNL d   1     -14.058   9.709  -5.725 -0.11 -0.00    +0.194    14.458
ATOM      3  C   UNL d   1     -13.705  11.083  -6.299 -0.04 +0.00    +0.194    14.458
ATOM      4  C   UNL d   1     -12.495  11.724  -5.622 -0.05 -0.01    +0.194    14.458
ATOM      5  C   UNL d   1     -12.542  11.685  -4.100 -0.09 -0.01    +0.194    14.458
ATOM      6  C   UNL d   1     -12.956  10.327  -3.528 -0.06 -0.01    +0.194    14.458
ATOM      7  O   UNL d   1     -14.359   8.410  -3.733 -0.11 +0.04    -0.278    14.458
ATOM      8  P   UNL d   1     -15.723   7.646  -4.060 -0.22 -0.04    +0.473    14.458
ATOM      9  O   UNL d   1     -16.428   8.110  -5.286 -0.11 +0.00    -0.228    14.458
ATOM     10  O   UNL d   1     -15.300   6.109  -4.122 -0.26 +0.02    -0.303    14.458
ATOM     11  H   UNL d   1     -15.611   5.719  -4.961 -0.39 -0.05    +0.222    14.458
ATOM     12  O   UNL d   1     -16.563   7.705  -2.712 -0.21 +0.05    -0.303    14.458
ATOM     13  H   UNL d   1     -16.004   7.853  -1.916 -0.40 -0.13    +0.222    14.458
ATOM     14  O   UNL d   1     -13.016   8.788  -6.071 -0.12 -0.00    -0.278    14.458
ATOM     15  P   UNL d   1     -13.381   7.671  -7.158 -0.17 +0.03    +0.473    14.458
ATOM     16  O   UNL d   1     -12.257   7.169  -8.009 -0.79 -0.04    -0.228    14.458
ATOM     17  O   UNL d   1     -14.075   6.515  -6.309 -0.44 -0.05    -0.303    14.458
ATOM     18  H   UNL d   1     -14.421   6.860  -5.463 +0.09 +0.02    +0.222    14.458
ATOM     19  O   UNL d   1     -14.622   8.276  -7.949 -0.04 -0.01    -0.303    14.458
ATOM     20  H   UNL d   1     -14.598   9.250  -7.964 +0.04 +0.01    +0.222    14.458
ATOM     21  O   UNL d   1     -13.284  10.540  -2.157 -0.19 +0.02    -0.278    14.458
ATOM     22  P   UNL d   1     -14.661  11.248  -1.773 -0.08 -0.02    +0.473    14.458
ATOM     23  O   UNL d   1     -14.711  12.059  -0.522 -0.04 -0.00    -0.228    14.458
ATOM     24  O   UNL d   1     -14.996  12.053  -3.104 -0.02 +0.00    -0.303    14.458
ATOM     25  H   UNL d   1     -14.416  12.856  -3.133 +0.02 +0.00    +0.222    14.458
ATOM     26  O   UNL d   1     -15.691  10.023  -1.858 -0.12 +0.03    -0.303    14.458
ATOM     27  H   UNL d   1     -15.191   9.181  -1.864 -0.49 -0.08    +0.222    14.458
ATOM     28  O   UNL d   1     -13.323  10.895  -7.655 -0.01 -0.00    -0.278    14.458
ATOM     29  P   UNL d   1     -14.017  11.743  -8.811 +0.00 +0.01    +0.473    14.458
ATOM     30  O   UNL d   1     -13.111  12.223  -9.886 -0.00 -0.01    -0.228    14.458
ATOM     31  O   UNL d   1     -15.180  10.730  -9.240 +0.00 -0.01    -0.303    14.458
ATOM     32  H   UNL d   1     -14.777   9.852  -9.430 +0.02 +0.01    +0.222    14.458
ATOM     33  O   UNL d   1     -14.805  12.853  -7.985 -0.00 -0.01    -0.303    14.458
ATOM     34  H   UNL d   1     -14.167  13.332  -7.401 +0.00 +0.01    +0.222    14.458
ATOM     35  O   UNL d   1     -11.207  11.934  -3.665 -0.08 +0.03    -0.278    14.458
ATOM     36  P   UNL d   1     -10.938  12.702  -2.293 -0.04 -0.02    +0.473    14.458
ATOM     37  O   UNL d   1      -9.889  13.766  -2.344 -0.01 +0.01    -0.228    14.458
ATOM     38  O   UNL d   1     -12.394  13.234  -1.927 -0.02 +0.00    -0.303    14.458
ATOM     39  H   UNL d   1     -13.061  12.713  -2.424 +0.03 -0.00    +0.222    14.458
ATOM     40  O   UNL d   1     -10.702  11.504  -1.274 -0.10 +0.01    -0.303    14.458
ATOM     41  H   UNL d   1     -11.549  11.101  -0.982 +0.05 -0.00    +0.222    14.458
ATOM     42  O   UNL d   1     -12.487  13.103  -6.008 -0.01 +0.00    -0.278    14.458
ATOM     43  P   UNL d   1     -13.632  14.065  -5.454 +0.00 +0.01    +0.473    14.458
ATOM     44  O   UNL d   1     -13.953  15.281  -6.253 -0.00 -0.00    -0.228    14.458
ATOM     45  O   UNL d   1     -14.859  13.071  -5.259 -0.00 -0.00    -0.303    14.458
ATOM     46  H   UNL d   1     -15.509  13.158  -5.986 +0.00 +0.00    +0.222    14.458
ATOM     47  O   UNL d   1     -13.185  14.332  -3.938 -0.00 -0.00    -0.303    14.458
ATOM     48  H   UNL d   1     -12.361  13.836  -3.752 +0.01 -0.00    +0.222    14.458
TER
ENDMDL
MODEL        5
USER    Run = 5
USER    Cluster Rank = 28
USER    Number of conformations in this cluster = 1
USER  
USER    RMSD from reference structure       = 15.559 A
USER  
USER    Estimated Free Energy of Binding    =   +2.31 kcal/mol  [=(1)+(2)+(3)-(4)]
USER    
USER    (1) Final Intermolecular Energy     =   -4.85 kcal/mol
USER        vdW + Hbond + desolv Energy     =   -4.40 kcal/mol
USER        Electrostatic Energy            =   -0.45 kcal/mol
USER    (2) Final Total Internal Energy     =  -15.61 kcal/mol
USER    (3) Torsional Free Energy           =   +7.16 kcal/mol
USER    (4) Unbound System's Energy  [=(2)] =  -15.61 kcal/mol
USER    
USER    
USER  
USER    DPF = D:/Protein_go_brrr/autodock/final/AncA/IHP/dock.dpf
USER    NEWDPF move	IHP_ideal_opt.pdbqt
USER    NEWDPF about	0.035000 0.082000 -0.065000
USER    NEWDPF tran0	-16.912425 2.448150 9.212232
USER    NEWDPF axisangle0	0.810182 -0.221659 0.542653 121.025132
USER    NEWDPF quaternion0	0.705234 -0.192947 0.472360 0.492233
USER    NEWDPF dihe0	105.51 78.65 154.16 4.44 11.29 179.60 -15.55 -119.82 98.57 82.81 131.04 149.66 178.87 84.24 -47.09 -71.79 113.51 -147.96 22.52 -28.05 -179.99 19.22 -6.36 -6.56 
USER  
USER                              x       y       z    vdW   Elec        q     RMS 
ATOM      1  C   UNL d   1     -15.806   2.321  10.533 -0.05 +0.02    +0.194    15.559
ATOM      2  C   UNL d   1     -16.875   3.407  10.669 -0.02 +0.02    +0.194    15.559
ATOM      3  C   UNL d   1     -17.071   4.175   9.360 -0.05 +0.03    +0.194    15.559
ATOM      4  C   UNL d   1     -17.322   3.266   8.160 -0.08 +0.05    +0.194    15.559
ATOM      5  C   UNL d   1     -16.346   2.101   8.050 -0.10 +0.05    +0.194    15.559
ATOM      6  C   UNL d   1     -16.103   1.370   9.373 -0.11 +0.03    +0.194    15.559
ATOM      7  O   UNL d   1     -15.805   1.543  11.732 -0.04 -0.02    -0.278    15.559
ATOM      8  P   UNL d   1     -14.688   1.845  12.832 -0.01 +0.03    +0.473    15.559
ATOM      9  O   UNL d   1     -13.939   0.653  13.315 -0.09 -0.01    -0.228    15.559
ATOM     10  O   UNL d   1     -13.751   2.937  12.143 -0.02 -0.03    -0.303    15.559
ATOM     11  H   UNL d   1     -13.467   2.618  11.266 +0.05 +0.03    +0.222    15.559
ATOM     12  O   UNL d   1     -15.428   2.698  13.950 +0.00 -0.01    -0.303    15.559
ATOM     13  H   UNL d   1     -16.372   2.447  14.065 +0.01 +0.01    +0.222    15.559
ATOM     14  O   UNL d   1     -18.119   2.794  11.029 -0.00 -0.03    -0.278    15.559
ATOM     15  P   UNL d   1     -18.569   2.934  12.560 +0.00 +0.03    +0.473    15.559
ATOM     16  O   UNL d   1     -20.021   3.195  12.812 +0.00 -0.01    -0.228    15.559
ATOM     17  O   UNL d   1     -18.056   1.588  13.240 +0.00 -0.00    -0.303    15.559
ATOM     18  H   UNL d   1     -17.090   1.489  13.138 +0.02 +0.00    +0.222    15.559
ATOM     19  O   UNL d   1     -17.564   4.005  13.172 -0.00 -0.02    -0.303    15.559
ATOM     20  H   UNL d   1     -16.634   3.743  13.040 +0.01 +0.01    +0.222    15.559
ATOM     21  O   UNL d   1     -14.944   0.560   9.189 -0.20 -0.03    -0.278    15.559
ATOM     22  P   UNL d   1     -13.496   1.228   9.228 -0.18 +0.08    +0.473    15.559
ATOM     23  O   UNL d   1     -13.399   2.709   9.072 -0.17 -0.03    -0.228    15.559
ATOM     24  O   UNL d   1     -12.913   0.661  10.596 -0.46 -0.11    -0.303    15.559
ATOM     25  H   UNL d   1     -13.552   0.885  11.320 +0.07 +0.05    +0.222    15.559
ATOM     26  O   UNL d   1     -12.704   0.354   8.142 -0.23 -0.03    -0.303    15.559
ATOM     27  H   UNL d   1     -13.329  -0.263   7.708 -0.26 -0.05    +0.222    15.559
ATOM     28  O   UNL d   1     -18.252   4.956   9.495 -0.02 -0.04    -0.278    15.559
ATOM     29  P   UNL d   1     -18.236   6.508   9.139 -0.02 +0.06    +0.473    15.559
ATOM     30  O   UNL d   1     -18.074   7.428  10.294 -0.01 -0.02    -0.228    15.559
ATOM     31  O   UNL d   1     -17.085   6.527   8.027 -0.08 -0.05    -0.303    15.559
ATOM     32  H   UNL d   1     -17.148   5.700   7.496 +0.03 +0.05    +0.222    15.559
ATOM     33  O   UNL d   1     -19.563   6.666   8.274 -0.01 -0.04    -0.303    15.559
ATOM     34  H   UNL d   1     -19.494   6.092   7.472 +0.02 +0.04    +0.222    15.559
ATOM     35  O   UNL d   1     -16.957   1.167   7.161 -0.13 -0.14    -0.278    15.559
ATOM     36  P   UNL d   1     -16.184   0.677   5.855 -0.30 +0.37    +0.473    15.559
ATOM     37  O   UNL d   1     -16.643  -0.628   5.286 -0.40 -0.23    -0.228    15.559
ATOM     38  O   UNL d   1     -16.375   1.919   4.877 -0.45 -0.37    -0.303    15.559
ATOM     39  H   UNL d   1     -16.463   2.738   5.412 +0.10 +0.19    +0.222    15.559
ATOM     40  O   UNL d   1     -14.662   0.773   6.304 -0.41 -0.07    -0.303    15.559
ATOM     41  H   UNL d   1     -14.533   0.454   7.225 +0.14 +0.03    +0.222    15.559
ATOM     42  O   UNL d   1     -17.151   4.070   6.988 -0.06 -0.10    -0.278    15.559
ATOM     43  P   UNL d   1     -18.394   4.284   6.011 -0.13 +0.26    +0.473    15.559
ATOM     44  O   UNL d   1     -18.425   3.485   4.754 -0.71 -0.32    -0.228    15.559
ATOM     45  O   UNL d   1     -19.638   4.035   6.971 -0.02 -0.12    -0.303    15.559
ATOM     46  H   UNL d   1     -19.629   4.647   7.735 +0.02 +0.06    +0.222    15.559
ATOM     47  O   UNL d   1     -18.441   5.874   5.821 -0.10 -0.08    -0.303    15.559
ATOM     48  H   UNL d   1     -18.116   6.307   6.639 +0.03 +0.05    +0.222    15.559
TER
ENDMDL
MODEL       40
USER    Run = 40
USER    Cluster Rank = 29
USER    Number of conformations in this cluster = 1
USER  
USER    RMSD from reference structure       = 14.467 A
USER  
USER    Estimated Free Energy of Binding    =   +2.32 kcal/mol  [=(1)+(2)+(3)-(4)]
USER    
USER    (1) Final Intermolecular Energy     =   -4.84 kcal/mol
USER        vdW + Hbond + desolv Energy     =   -4.54 kcal/mol
USER        Electrostatic Energy            =   -0.30 kcal/mol
USER    (2) Final Total Internal Energy     =  -14.28 kcal/mol
USER    (3) Torsional Free Energy           =   +7.16 kcal/mol
USER    (4) Unbound System's Energy  [=(2)] =  -14.28 kcal/mol
USER    
USER    
USER  
USER    DPF = D:/Protein_go_brrr/autodock/final/AncA/IHP/dock.dpf
USER    NEWDPF move	IHP_ideal_opt.pdbqt
USER    NEWDPF about	0.035000 0.082000 -0.065000
USER    NEWDPF tran0	17.981539 -0.772246 2.634715
USER    NEWDPF axisangle0	0.121986 0.184296 0.975271 -126.289485
USER    NEWDPF quaternion0	0.108830 0.164420 0.870089 -0.451738
USER    NEWDPF dihe0	116.83 67.79 162.16 5.71 23.34 -166.62 -96.92 43.66 -26.36 109.95 172.93 162.41 179.88 94.46 -36.38 16.93 -87.82 173.24 12.83 -36.29 169.44 176.07 21.24 -3.33 
USER  
USER                              x       y       z    vdW   Elec        q     RMS 
ATOM      1  C   UNL d   1      18.203   0.884   3.074 -0.14 +0.07    +0.194    14.467
ATOM      2  C   UNL d   1      19.391   0.221   2.374 -0.09 +0.09    +0.194    14.467
ATOM      3  C   UNL d   1      19.649  -1.189   2.909 -0.04 +0.07    +0.194    14.467
ATOM      4  C   UNL d   1      18.405  -2.074   2.897 -0.07 +0.08    +0.194    14.467
ATOM      5  C   UNL d   1      17.166  -1.410   3.483 -0.12 +0.07    +0.194    14.467
ATOM      6  C   UNL d   1      16.942   0.023   2.995 +0.06 +0.08    +0.194    14.467
ATOM      7  O   UNL d   1      17.921   2.115   2.405 -0.21 -0.11    -0.278    14.467
ATOM      8  P   UNL d   1      18.246   3.483   3.164 -0.20 +0.13    +0.473    14.467
ATOM      9  O   UNL d   1      17.124   4.458   3.215 -0.36 -0.05    -0.228    14.467
ATOM     10  O   UNL d   1      18.739   3.017   4.607 -0.05 -0.07    -0.303    14.467
ATOM     11  H   UNL d   1      18.180   2.282   4.922 +0.06 +0.05    +0.222    14.467
ATOM     12  O   UNL d   1      19.594   4.010   2.506 -0.15 -0.10    -0.303    14.467
ATOM     13  H   UNL d   1      19.751   3.646   1.606 +0.07 +0.08    +0.222    14.467
ATOM     14  O   UNL d   1      19.116   0.133   0.970 -0.12 -0.24    -0.278    14.467
ATOM     15  P   UNL d   1      19.693   1.312   0.052 -0.08 +0.37    +0.473    14.467
ATOM     16  O   UNL d   1      20.044   0.955  -1.358 -0.31 -0.27    -0.228    14.467
ATOM     17  O   UNL d   1      18.584   2.452   0.143 -0.26 -0.19    -0.303    14.467
ATOM     18  H   UNL d   1      18.529   2.818   1.046 +0.09 +0.11    +0.222    14.467
ATOM     19  O   UNL d   1      20.872   1.944   0.914 -0.04 -0.12    -0.303    14.467
ATOM     20  H   UNL d   1      20.569   2.206   1.802 +0.05 +0.07    +0.222    14.467
ATOM     21  O   UNL d   1      15.979   0.610   3.868 -0.18 -0.06    -0.278    14.467
ATOM     22  P   UNL d   1      16.356   0.882   5.394 -0.14 +0.07    +0.473    14.467
ATOM     23  O   UNL d   1      17.668   0.380   5.896 -0.04 -0.04    -0.228    14.467
ATOM     24  O   UNL d   1      16.159   2.458   5.502 -0.21 -0.06    -0.303    14.467
ATOM     25  H   UNL d   1      16.547   2.873   4.690 +0.09 +0.05    +0.222    14.467
ATOM     26  O   UNL d   1      15.056   0.332   6.153 -0.22 -0.03    -0.303    14.467
ATOM     27  H   UNL d   1      14.565  -0.269   5.557 -0.01 +0.02    +0.222    14.467
ATOM     28  O   UNL d   1      20.569  -1.820   2.027 -0.02 -0.12    -0.278    14.467
ATOM     29  P   UNL d   1      20.097  -2.307   0.586 -0.06 +0.40    +0.473    14.467
ATOM     30  O   UNL d   1      18.634  -2.247   0.337 -0.58 -0.37    -0.228    14.467
ATOM     31  O   UNL d   1      21.029  -1.391  -0.338 -0.09 -0.25    -0.303    14.467
ATOM     32  H   UNL d   1      21.009  -0.470   0.011 +0.02 +0.16    +0.222    14.467
ATOM     33  O   UNL d   1      20.788  -3.737   0.474 -0.01 -0.15    -0.303    14.467
ATOM     34  H   UNL d   1      20.108  -4.436   0.636 +0.02 +0.10    +0.222    14.467
ATOM     35  O   UNL d   1      16.059  -2.186   3.028 -0.13 -0.10    -0.278    14.467
ATOM     36  P   UNL d   1      14.722  -2.265   3.894 -0.18 +0.12    +0.473    14.467
ATOM     37  O   UNL d   1      14.916  -2.446   5.366 -0.13 -0.04    -0.228    14.467
ATOM     38  O   UNL d   1      13.994  -0.906   3.492 -0.32 -0.05    -0.303    14.467
ATOM     39  H   UNL d   1      14.192  -0.224   4.169 -0.36 -0.02    +0.222    14.467
ATOM     40  O   UNL d   1      13.889  -3.385   3.132 -0.18 -0.08    -0.303    14.467
ATOM     41  H   UNL d   1      14.302  -4.272   3.225 +0.10 +0.07    +0.222    14.467
ATOM     42  O   UNL d   1      18.699  -3.212   3.714 -0.01 -0.08    -0.278    14.467
ATOM     43  P   UNL d   1      18.777  -4.652   3.032 +0.00 +0.14    +0.473    14.467
ATOM     44  O   UNL d   1      18.211  -5.803   3.790 -0.01 -0.05    -0.228    14.467
ATOM     45  O   UNL d   1      18.092  -4.405   1.617 -0.03 -0.14    -0.303    14.467
ATOM     46  H   UNL d   1      18.760  -4.290   0.911 +0.03 +0.12    +0.222    14.467
ATOM     47  O   UNL d   1      20.323  -4.783   2.628 +0.00 -0.08    -0.303    14.467
ATOM     48  H   UNL d   1      20.730  -3.892   2.617 +0.01 +0.06    +0.222    14.467
TER
ENDMDL
MODEL       25
USER    Run = 25
USER    Cluster Rank = 30
USER    Number of conformations in this cluster = 1
USER  
USER    RMSD from reference structure       = 19.827 A
USER  
USER    Estimated Free Energy of Binding    =   +2.35 kcal/mol  [=(1)+(2)+(3)-(4)]
USER    
USER    (1) Final Intermolecular Energy     =   -4.81 kcal/mol
USER        vdW + Hbond + desolv Energy     =   -4.18 kcal/mol
USER        Electrostatic Energy            =   -0.63 kcal/mol
USER    (2) Final Total Internal Energy     =  -12.80 kcal/mol
USER    (3) Torsional Free Energy           =   +7.16 kcal/mol
USER    (4) Unbound System's Energy  [=(2)] =  -12.80 kcal/mol
USER    
USER    
USER  
USER    DPF = D:/Protein_go_brrr/autodock/final/AncA/IHP/dock.dpf
USER    NEWDPF move	IHP_ideal_opt.pdbqt
USER    NEWDPF about	0.035000 0.082000 -0.065000
USER    NEWDPF tran0	-14.181541 -8.479710 16.540617
USER    NEWDPF axisangle0	0.446276 -0.890662 -0.086943 159.049798
USER    NEWDPF quaternion0	0.438839 -0.875818 -0.085494 0.181808
USER    NEWDPF dihe0	178.84 -14.72 90.76 106.25 -20.04 -169.86 -11.79 55.11 141.17 -38.11 -147.40 73.85 24.00 90.00 -179.78 121.52 113.44 158.13 -135.67 -10.80 -180.00 -17.31 153.78 179.95 
USER  
USER                              x       y       z    vdW   Elec        q     RMS 
ATOM      1  C   UNL d   1     -13.966  -9.692  15.329 -0.10 +0.00    +0.194    19.827
ATOM      2  C   UNL d   1     -12.728  -9.368  16.167 -0.10 +0.01    +0.194    19.827
ATOM      3  C   UNL d   1     -12.563  -7.861  16.375 -0.14 -0.01    +0.194    19.827
ATOM      4  C   UNL d   1     -13.820  -7.187  16.918 -0.05 -0.02    +0.194    19.827
ATOM      5  C   UNL d   1     -15.098  -7.572  16.183 -0.05 -0.03    +0.194    19.827
ATOM      6  C   UNL d   1     -15.233  -9.073  15.921 -0.04 -0.01    +0.194    19.827
ATOM      7  O   UNL d   1     -14.146 -11.111  15.328 -0.07 -0.02    -0.278    19.827
ATOM      8  P   UNL d   1     -15.260 -11.736  16.286 -0.00 +0.02    +0.473    19.827
ATOM      9  O   UNL d   1     -16.663 -11.564  15.818 -0.01 -0.00    -0.228    19.827
ATOM     10  O   UNL d   1     -14.830 -13.265  16.433 -0.01 -0.02    -0.303    19.827
ATOM     11  H   UNL d   1     -13.885 -13.361  16.215 +0.01 +0.02    +0.222    19.827
ATOM     12  O   UNL d   1     -14.935 -11.159  17.730 -0.01 -0.01    -0.303    19.827
ATOM     13  H   UNL d   1     -14.037 -11.404  18.050 +0.01 +0.01    +0.222    19.827
ATOM     14  O   UNL d   1     -12.856  -9.994  17.450 -0.04 -0.01    -0.278    19.827
ATOM     15  P   UNL d   1     -11.712 -11.039  17.854 -0.04 +0.04    +0.473    19.827
ATOM     16  O   UNL d   1     -11.334 -11.095  19.301 -0.01 -0.02    -0.228    19.827
ATOM     17  O   UNL d   1     -12.248 -12.434  17.301 -0.03 -0.03    -0.303    19.827
ATOM     18  H   UNL d   1     -13.148 -12.344  16.934 +0.02 +0.02    +0.222    19.827
ATOM     19  O   UNL d   1     -10.521 -10.732  16.845 -0.08 -0.04    -0.303    19.827
ATOM     20  H   UNL d   1     -10.343  -9.776  16.778 +0.04 +0.03    +0.222    19.827
ATOM     21  O   UNL d   1     -16.268  -9.231  14.952 -0.03 +0.03    -0.278    19.827
ATOM     22  P   UNL d   1     -15.964  -8.935  13.414 -0.08 -0.10    +0.473    19.827
ATOM     23  O   UNL d   1     -17.079  -8.434  12.559 -0.10 +0.05    -0.228    19.827
ATOM     24  O   UNL d   1     -14.709  -7.961  13.512 -0.20 +0.18    -0.303    19.827
ATOM     25  H   UNL d   1     -15.045  -7.035  13.623 -0.48 -0.32    +0.222    19.827
ATOM     26  O   UNL d   1     -15.282 -10.308  12.947 -0.12 +0.00    -0.303    19.827
ATOM     27  H   UNL d   1     -15.469 -11.003  13.611 +0.07 +0.00    +0.222    19.827
ATOM     28  O   UNL d   1     -11.571  -7.673  17.376 -0.06 -0.00    -0.278    19.827
ATOM     29  P   UNL d   1     -10.046  -7.462  16.968 -0.08 +0.02    +0.473    19.827
ATOM     30  O   UNL d   1      -9.597  -6.049  16.877 -0.14 -0.02    -0.228    19.827
ATOM     31  O   UNL d   1      -9.333  -8.381  18.068 -0.03 -0.04    -0.303    19.827
ATOM     32  H   UNL d   1      -9.868  -9.199  18.187 +0.03 +0.02    +0.222    19.827
ATOM     33  O   UNL d   1      -9.929  -8.341  15.646 -0.23 +0.00    -0.303    19.827
ATOM     34  H   UNL d   1      -9.755  -7.743  14.877 -0.47 -0.09    +0.222    19.827
ATOM     35  O   UNL d   1     -16.169  -7.198  17.046 -0.01 +0.03    -0.278    19.827
ATOM     36  P   UNL d   1     -16.512  -8.078  18.331 +0.01 -0.01    +0.473    19.827
ATOM     37  O   UNL d   1     -17.258  -7.371  19.417 +0.00 -0.00    -0.228    19.827
ATOM     38  O   UNL d   1     -17.298  -9.304  17.687 +0.00 +0.00    -0.303    19.827
ATOM     39  H   UNL d   1     -16.666  -9.864  17.188 +0.01 -0.00    +0.222    19.827
ATOM     40  O   UNL d   1     -15.094  -8.691  18.711 -0.00 -0.00    -0.303    19.827
ATOM     41  H   UNL d   1     -14.866  -9.461  18.144 +0.01 +0.00    +0.222    19.827
ATOM     42  O   UNL d   1     -13.643  -5.777  16.744 -0.04 +0.04    -0.278    19.827
ATOM     43  P   UNL d   1     -13.644  -5.176  15.267 -0.16 -0.23    +0.473    19.827
ATOM     44  O   UNL d   1     -12.944  -3.879  15.052 -0.25 +0.08    -0.228    19.827
ATOM     45  O   UNL d   1     -13.067  -6.379  14.400 -0.28 +0.16    -0.303    19.827
ATOM     46  H   UNL d   1     -13.542  -6.468  13.550 -0.40 -0.26    +0.222    19.827
ATOM     47  O   UNL d   1     -15.195  -5.199  14.863 -0.09 +0.28    -0.303    19.827
ATOM     48  H   UNL d   1     -15.347  -5.911  14.207 -0.37 -0.37    +0.222    19.827
TER
ENDMDL
MODEL       75
USER    Run = 75
USER    Cluster Rank = 31
USER    Number of conformations in this cluster = 1
USER  
USER    RMSD from reference structure       = 11.506 A
USER  
USER    Estimated Free Energy of Binding    =   +2.35 kcal/mol  [=(1)+(2)+(3)-(4)]
USER    
USER    (1) Final Intermolecular Energy     =   -4.81 kcal/mol
USER        vdW + Hbond + desolv Energy     =   -4.02 kcal/mol
USER        Electrostatic Energy            =   -0.79 kcal/mol
USER    (2) Final Total Internal Energy     =  -13.77 kcal/mol
USER    (3) Torsional Free Energy           =   +7.16 kcal/mol
USER    (4) Unbound System's Energy  [=(2)] =  -13.77 kcal/mol
USER    
USER    
USER  
USER    DPF = D:/Protein_go_brrr/autodock/final/AncA/IHP/dock.dpf
USER    NEWDPF move	IHP_ideal_opt.pdbqt
USER    NEWDPF about	0.035000 0.082000 -0.065000
USER    NEWDPF tran0	-7.604892 11.473447 -5.607875
USER    NEWDPF axisangle0	-0.871641 0.142934 -0.468842 88.600707
USER    NEWDPF quaternion0	-0.608771 0.099828 -0.327448 0.715688
USER    NEWDPF dihe0	40.66 18.21 43.55 43.08 12.65 -56.10 -81.68 -44.10 111.74 58.45 8.51 -150.35 -160.63 173.78 -59.89 44.06 124.87 -62.42 46.11 -10.85 -5.06 -13.70 -20.35 30.27 
USER  
USER                              x       y       z    vdW   Elec        q     RMS 
ATOM      1  C   UNL d   1      -5.919  11.128  -5.456 -0.09 -0.13    +0.194    11.506
ATOM      2  C   UNL d   1      -6.494  11.005  -6.868 -0.12 -0.05    +0.194    11.506
ATOM      3  C   UNL d   1      -7.851  10.297  -6.867 -0.15 -0.06    +0.194    11.506
ATOM      4  C   UNL d   1      -8.849  10.911  -5.889 -0.12 -0.06    +0.194    11.506
ATOM      5  C   UNL d   1      -8.282  11.159  -4.497 -0.09 -0.08    +0.194    11.506
ATOM      6  C   UNL d   1      -6.898  11.811  -4.499 -0.09 -0.07    +0.194    11.506
ATOM      7  O   UNL d   1      -4.748  11.945  -5.522 -0.06 +0.11    -0.278    11.506
ATOM      8  P   UNL d   1      -3.404  11.300  -6.096 -0.06 -0.27    +0.473    11.506
ATOM      9  O   UNL d   1      -2.339  11.054  -5.085 -0.15 +0.18    -0.228    11.506
ATOM     10  O   UNL d   1      -3.895   9.969  -6.826 -0.14 +0.26    -0.303    11.506
ATOM     11  H   UNL d   1      -3.502   9.191  -6.387 -0.42 -0.51    +0.222    11.506
ATOM     12  O   UNL d   1      -2.995  12.222  -7.324 -0.03 +0.04    -0.303    11.506
ATOM     13  H   UNL d   1      -3.764  12.671  -7.741 +0.03 +0.01    +0.222    11.506
ATOM     14  O   UNL d   1      -6.664  12.317  -7.419 -0.02 -0.01    -0.278    11.506
ATOM     15  P   UNL d   1      -5.869  12.633  -8.773 -0.02 +0.15    +0.473    11.506
ATOM     16  O   UNL d   1      -5.077  13.902  -8.807 -0.00 -0.04    -0.228    11.506
ATOM     17  O   UNL d   1      -4.971  11.337  -9.006 -0.30 -0.38    -0.303    11.506
ATOM     18  H   UNL d   1      -4.448  11.124  -8.210 +0.03 +0.14    +0.222    11.506
ATOM     19  O   UNL d   1      -6.960  12.475  -9.920 -0.02 -0.12    -0.303    11.506
ATOM     20  H   UNL d   1      -7.746  11.989  -9.606 +0.02 +0.07    +0.222    11.506
ATOM     21  O   UNL d   1      -6.369  11.660  -3.183 -0.08 +0.09    -0.278    11.506
ATOM     22  P   UNL d   1      -6.273  12.928  -2.220 +0.00 -0.06    +0.473    11.506
ATOM     23  O   UNL d   1      -6.080  14.271  -2.839 -0.00 +0.02    -0.228    11.506
ATOM     24  O   UNL d   1      -7.598  12.778  -1.351 -0.02 +0.02    -0.303    11.506
ATOM     25  H   UNL d   1      -8.366  12.697  -1.972 +0.03 -0.02    +0.222    11.506
ATOM     26  O   UNL d   1      -5.142  12.463  -1.182 -0.04 +0.04    -0.303    11.506
ATOM     27  H   UNL d   1      -4.465  13.166  -1.107 +0.05 -0.02    +0.222    11.506
ATOM     28  O   UNL d   1      -8.427  10.474  -8.155 -0.05 -0.02    -0.278    11.506
ATOM     29  P   UNL d   1      -8.287   9.338  -9.263 -0.11 +0.17    +0.473    11.506
ATOM     30  O   UNL d   1      -7.920   7.991  -8.755 -0.29 -0.05    -0.228    11.506
ATOM     31  O   UNL d   1      -9.706   9.479  -9.989 -0.06 -0.06    -0.303    11.506
ATOM     32  H   UNL d   1     -10.367   9.794  -9.329 +0.05 +0.02    +0.222    11.506
ATOM     33  O   UNL d   1      -7.290  10.010 -10.306 -0.45 -0.37    -0.303    11.506
ATOM     34  H   UNL d   1      -6.860  10.793  -9.882 +0.02 +0.23    +0.222    11.506
ATOM     35  O   UNL d   1      -9.177  12.076  -3.872 -0.06 +0.05    -0.278    11.506
ATOM     36  P   UNL d   1     -10.107  11.599  -2.667 -0.09 -0.08    +0.473    11.506
ATOM     37  O   UNL d   1     -10.815  12.689  -1.927 -0.04 +0.01    -0.228    11.506
ATOM     38  O   UNL d   1     -11.076  10.564  -3.393 -0.11 +0.08    -0.303    11.506
ATOM     39  H   UNL d   1     -10.551  10.016  -4.016 -0.45 -0.13    +0.222    11.506
ATOM     40  O   UNL d   1      -9.124  10.675  -1.824 -0.13 +0.07    -0.303    11.506
ATOM     41  H   UNL d   1      -8.183  10.830  -2.064 +0.02 -0.05    +0.222    11.506
ATOM     42  O   UNL d   1      -9.921   9.973  -5.746 -0.13 +0.10    -0.278    11.506
ATOM     43  P   UNL d   1     -11.060   9.927  -6.862 -0.09 -0.03    +0.473    11.506
ATOM     44  O   UNL d   1     -11.166  11.093  -7.783 -0.03 -0.00    -0.228    11.506
ATOM     45  O   UNL d   1     -10.774   8.543  -7.595 -0.17 +0.00    -0.303    11.506
ATOM     46  H   UNL d   1      -9.907   8.550  -8.047 +0.09 -0.00    +0.222    11.506
ATOM     47  O   UNL d   1     -12.382   9.585  -6.023 -0.11 +0.01    -0.303    11.506
ATOM     48  H   UNL d   1     -12.285   9.932  -5.112 +0.06 -0.02    +0.222    11.506
TER
ENDMDL
MODEL       62
USER    Run = 62
USER    Cluster Rank = 32
USER    Number of conformations in this cluster = 1
USER  
USER    RMSD from reference structure       = 16.436 A
USER  
USER    Estimated Free Energy of Binding    =   +2.44 kcal/mol  [=(1)+(2)+(3)-(4)]
USER    
USER    (1) Final Intermolecular Energy     =   -4.72 kcal/mol
USER        vdW + Hbond + desolv Energy     =   -4.29 kcal/mol
USER        Electrostatic Energy            =   -0.43 kcal/mol
USER    (2) Final Total Internal Energy     =  -14.89 kcal/mol
USER    (3) Torsional Free Energy           =   +7.16 kcal/mol
USER    (4) Unbound System's Energy  [=(2)] =  -14.89 kcal/mol
USER    
USER    
USER  
USER    DPF = D:/Protein_go_brrr/autodock/final/AncA/IHP/dock.dpf
USER    NEWDPF move	IHP_ideal_opt.pdbqt
USER    NEWDPF about	0.035000 0.082000 -0.065000
USER    NEWDPF tran0	12.114179 -13.947866 -7.373025
USER    NEWDPF axisangle0	-0.777012 0.577424 -0.250668 150.822671
USER    NEWDPF quaternion0	-0.751960 0.558807 -0.242586 0.251878
USER    NEWDPF dihe0	92.25 103.01 17.98 61.21 106.81 86.18 -106.04 -96.41 172.19 -94.30 94.13 -127.47 -69.62 153.59 -175.83 -138.02 54.60 -14.58 -147.97 -25.88 11.44 -36.91 -174.46 130.43 
USER  
USER                              x       y       z    vdW   Elec        q     RMS 
ATOM      1  C   UNL d   1      13.358 -15.141  -7.256 -0.01 +0.02    +0.194    16.436
ATOM      2  C   UNL d   1      13.779 -13.805  -7.871 -0.05 +0.02    +0.194    16.436
ATOM      3  C   UNL d   1      12.734 -13.280  -8.856 -0.08 +0.02    +0.194    16.436
ATOM      4  C   UNL d   1      11.326 -13.226  -8.268 -0.14 +0.01    +0.194    16.436
ATOM      5  C   UNL d   1      10.907 -14.499  -7.544 -0.04 +0.02    +0.194    16.436
ATOM      6  C   UNL d   1      11.977 -15.059  -6.605 -0.02 +0.01    +0.194    16.436
ATOM      7  O   UNL d   1      14.294 -15.475  -6.229 -0.00 -0.03    -0.278    16.436
ATOM      8  P   UNL d   1      14.009 -14.959  -4.744 -0.00 +0.02    +0.473    16.436
ATOM      9  O   UNL d   1      13.029 -13.843  -4.642 -0.10 +0.03    -0.228    16.436
ATOM     10  O   UNL d   1      13.550 -16.271  -3.961 +0.00 -0.02    -0.303    16.436
ATOM     11  H   UNL d   1      12.703 -16.589  -4.325 +0.01 +0.02    +0.222    16.436
ATOM     12  O   UNL d   1      15.443 -14.683  -4.120 -0.00 -0.02    -0.303    16.436
ATOM     13  H   UNL d   1      15.971 -14.034  -4.637 +0.02 +0.02    +0.222    16.436
ATOM     14  O   UNL d   1      13.945 -12.841  -6.824 -0.38 -0.03    -0.278    16.436
ATOM     15  P   UNL d   1      15.450 -12.453  -6.439 +0.17 +0.09    +0.473    16.436
ATOM     16  O   UNL d   1      15.695 -12.031  -5.024 -0.49 -0.04    -0.228    16.436
ATOM     17  O   UNL d   1      16.300 -13.733  -6.858 -0.02 -0.03    -0.303    16.436
ATOM     18  H   UNL d   1      16.208 -14.447  -6.198 +0.01 +0.02    +0.222    16.436
ATOM     19  O   UNL d   1      15.885 -11.403  -7.552 -0.16 -0.04    -0.303    16.436
ATOM     20  H   UNL d   1      15.160 -11.220  -8.179 +0.05 +0.03    +0.222    16.436
ATOM     21  O   UNL d   1      11.586 -16.391  -6.282 +0.00 -0.04    -0.278    16.436
ATOM     22  P   UNL d   1      10.677 -16.662  -5.000 +0.02 +0.07    +0.473    16.436
ATOM     23  O   UNL d   1      10.895 -17.923  -4.234 +0.00 -0.04    -0.228    16.436
ATOM     24  O   UNL d   1      10.891 -15.326  -4.161 -0.02 +0.02    -0.303    16.436
ATOM     25  H   UNL d   1      10.889 -14.562  -4.793 +0.04 -0.05    +0.222    16.436
ATOM     26  O   UNL d   1       9.204 -16.446  -5.594 -0.01 -0.09    -0.303    16.436
ATOM     27  H   UNL d   1       8.964 -15.500  -5.525 +0.04 +0.04    +0.222    16.436
ATOM     28  O   UNL d   1      13.068 -11.931  -9.158 -0.14 -0.03    -0.278    16.436
ATOM     29  P   UNL d   1      14.307 -11.602 -10.103 -0.06 +0.10    +0.473    16.436
ATOM     30  O   UNL d   1      14.793 -10.199 -10.056 -0.72 -0.08    -0.228    16.436
ATOM     31  O   UNL d   1      15.329 -12.740  -9.631 -0.02 -0.04    -0.303    16.436
ATOM     32  H   UNL d   1      15.439 -12.677  -8.654 +0.03 +0.03    +0.222    16.436
ATOM     33  O   UNL d   1      13.805 -12.143 -11.513 -0.07 -0.07    -0.303    16.436
ATOM     34  H   UNL d   1      13.285 -12.972 -11.372 +0.04 +0.04    +0.222    16.436
ATOM     35  O   UNL d   1       9.788 -14.135  -6.737 -0.06 -0.00    -0.278    16.436
ATOM     36  P   UNL d   1       9.811 -12.782  -5.894 -0.15 -0.19    +0.473    16.436
ATOM     37  O   UNL d   1       9.094 -11.624  -6.513 -0.27 +0.06    -0.228    16.436
ATOM     38  O   UNL d   1       9.206 -13.256  -4.500 -0.10 +0.21    -0.303    16.436
ATOM     39  H   UNL d   1       9.937 -13.368  -3.854 -0.23 -0.26    +0.222    16.436
ATOM     40  O   UNL d   1      11.362 -12.594  -5.595 -0.15 +0.17    -0.303    16.436
ATOM     41  H   UNL d   1      11.523 -12.331  -4.661 -0.42 -0.28    +0.222    16.436
ATOM     42  O   UNL d   1      10.424 -13.049  -9.365 -0.17 -0.02    -0.278    16.436
ATOM     43  P   UNL d   1      10.920 -13.411 -10.837 -0.08 +0.06    +0.473    16.436
ATOM     44  O   UNL d   1      11.917 -14.510 -10.975 -0.03 -0.04    -0.228    16.436
ATOM     45  O   UNL d   1       9.554 -13.671 -11.612 -0.11 -0.02    -0.303    16.436
ATOM     46  H   UNL d   1       8.799 -13.246 -11.158 -0.28 -0.05    +0.222    16.436
ATOM     47  O   UNL d   1      11.368 -11.992 -11.433 -0.23 -0.06    -0.303    16.436
ATOM     48  H   UNL d   1      11.982 -11.558 -10.805 +0.07 +0.04    +0.222    16.436
TER
ENDMDL
MODEL       79
USER    Run = 79
USER    Cluster Rank = 33
USER    Number of conformations in this cluster = 1
USER  
USER    RMSD from reference structure       = 12.761 A
USER  
USER    Estimated Free Energy of Binding    =   +2.44 kcal/mol  [=(1)+(2)+(3)-(4)]
USER    
USER    (1) Final Intermolecular Energy     =   -4.72 kcal/mol
USER        vdW + Hbond + desolv Energy     =   -4.60 kcal/mol
USER        Electrostatic Energy            =   -0.12 kcal/mol
USER    (2) Final Total Internal Energy     =  -13.39 kcal/mol
USER    (3) Torsional Free Energy           =   +7.16 kcal/mol
USER    (4) Unbound System's Energy  [=(2)] =  -13.39 kcal/mol
USER    
USER    
USER  
USER    DPF = D:/Protein_go_brrr/autodock/final/AncA/IHP/dock.dpf
USER    NEWDPF move	IHP_ideal_opt.pdbqt
USER    NEWDPF about	0.035000 0.082000 -0.065000
USER    NEWDPF tran0	-0.013111 14.250547 6.707328
USER    NEWDPF axisangle0	-0.160844 -0.694293 -0.701488 -160.735527
USER    NEWDPF quaternion0	-0.158576 -0.684505 -0.691599 -0.167323
USER    NEWDPF dihe0	132.37 -172.14 18.04 108.66 1.45 179.99 -90.12 -41.37 87.92 4.16 -14.27 -81.98 113.46 -39.05 163.39 45.07 -122.51 -77.84 0.43 -26.04 -23.59 -32.67 -1.60 48.97 
USER  
USER                              x       y       z    vdW   Elec        q     RMS 
ATOM      1  C   UNL d   1      -1.539  15.030   6.486 -0.07 +0.00    +0.194    12.761
ATOM      2  C   UNL d   1      -0.781  14.684   5.203 -0.09 +0.00    +0.194    12.761
ATOM      3  C   UNL d   1       0.709  15.013   5.319 -0.10 -0.00    +0.194    12.761
ATOM      4  C   UNL d   1       1.364  14.407   6.558 -0.16 -0.01    +0.194    12.761
ATOM      5  C   UNL d   1       0.581  14.629   7.845 -0.17 -0.01    +0.194    12.761
ATOM      6  C   UNL d   1      -0.919  14.359   7.712 -0.16 -0.00    +0.194    12.761
ATOM      7  O   UNL d   1      -2.875  14.537   6.360 -0.04 -0.01    -0.278    12.761
ATOM      8  P   UNL d   1      -4.082  15.574   6.496 -0.00 +0.02    +0.473    12.761
ATOM      9  O   UNL d   1      -5.400  15.075   6.018 -0.02 -0.02    -0.228    12.761
ATOM     10  O   UNL d   1      -4.083  15.967   8.042 -0.01 -0.01    -0.303    12.761
ATOM     11  H   UNL d   1      -3.684  15.245   8.563 +0.03 +0.01    +0.222    12.761
ATOM     12  O   UNL d   1      -3.558  16.910   5.814 -0.00 -0.01    -0.303    12.761
ATOM     13  H   UNL d   1      -4.257  17.387   5.312 +0.00 +0.01    +0.222    12.761
ATOM     14  O   UNL d   1      -0.919  13.282   4.941 -0.11 -0.01    -0.278    12.761
ATOM     15  P   UNL d   1      -1.912  12.870   3.755 -0.16 +0.02    +0.473    12.761
ATOM     16  O   UNL d   1      -2.301  13.952   2.797 -0.09 -0.00    -0.228    12.761
ATOM     17  O   UNL d   1      -1.179  11.649   3.042 -0.31 +0.00    -0.303    12.761
ATOM     18  H   UNL d   1      -0.455  11.961   2.466 +0.12 -0.01    +0.222    12.761
ATOM     19  O   UNL d   1      -3.120  12.135   4.485 -0.14 -0.04    -0.303    12.761
ATOM     20  H   UNL d   1      -3.453  12.653   5.241 +0.07 +0.02    +0.222    12.761
ATOM     21  O   UNL d   1      -1.544  14.929   8.860 -0.05 -0.00    -0.278    12.761
ATOM     22  P   UNL d   1      -2.490  14.028   9.776 -0.07 +0.02    +0.473    12.761
ATOM     23  O   UNL d   1      -3.363  14.710  10.774 -0.03 -0.01    -0.228    12.761
ATOM     24  O   UNL d   1      -3.269  13.165   8.689 -0.06 -0.03    -0.303    12.761
ATOM     25  H   UNL d   1      -3.823  13.781   8.145 +0.05 +0.02    +0.222    12.761
ATOM     26  O   UNL d   1      -1.451  12.958  10.365 -0.19 -0.00    -0.303    12.761
ATOM     27  H   UNL d   1      -0.545  13.204  10.088 +0.06 -0.01    +0.222    12.761
ATOM     28  O   UNL d   1       1.368  14.412   4.212 -0.13 +0.00    -0.278    12.761
ATOM     29  P   UNL d   1       1.300  15.089   2.771 -0.08 -0.01    +0.473    12.761
ATOM     30  O   UNL d   1       0.922  16.525   2.755 -0.04 +0.01    -0.228    12.761
ATOM     31  O   UNL d   1       2.753  14.713   2.217 -0.45 -0.00    -0.303    12.761
ATOM     32  H   UNL d   1       3.400  14.788   2.956 +0.11 -0.02    +0.222    12.761
ATOM     33  O   UNL d   1       0.351  14.086   1.977 -0.13 +0.01    -0.303    12.761
ATOM     34  H   UNL d   1      -0.142  13.528   2.627 +0.09 -0.00    +0.222    12.761
ATOM     35  O   UNL d   1       1.096  13.683   8.780 -0.18 +0.06    -0.278    12.761
ATOM     36  P   UNL d   1       1.566  14.157  10.229 -0.15 -0.05    +0.473    12.761
ATOM     37  O   UNL d   1       2.907  14.818  10.288 -0.11 -0.00    -0.228    12.761
ATOM     38  O   UNL d   1       0.356  15.092  10.674 -0.04 +0.01    -0.303    12.761
ATOM     39  H   UNL d   1      -0.425  14.896  10.112 +0.05 -0.01    +0.222    12.761
ATOM     40  O   UNL d   1       1.371  12.839  11.098 -0.25 +0.07    -0.303    12.761
ATOM     41  H   UNL d   1       0.568  12.340  10.827 -0.22 -0.06    +0.222    12.761
ATOM     42  O   UNL d   1       2.630  15.056   6.718 -0.16 +0.03    -0.278    12.761
ATOM     43  P   UNL d   1       3.726  14.903   5.569 -0.20 -0.10    +0.473    12.761
ATOM     44  O   UNL d   1       3.745  13.624   4.804 -0.37 +0.06    -0.228    12.761
ATOM     45  O   UNL d   1       3.475  16.193   4.672 -0.08 +0.04    -0.303    12.761
ATOM     46  H   UNL d   1       2.792  16.029   3.991 +0.09 -0.02    +0.222    12.761
ATOM     47  O   UNL d   1       5.093  15.284   6.313 -0.20 +0.13    -0.303    12.761
ATOM     48  H   UNL d   1       5.545  14.463   6.599 -0.45 -0.18    +0.222    12.761
TER
ENDMDL
MODEL       71
USER    Run = 71
USER    Cluster Rank = 34
USER    Number of conformations in this cluster = 1
USER  
USER    RMSD from reference structure       = 10.940 A
USER  
USER    Estimated Free Energy of Binding    =   +2.45 kcal/mol  [=(1)+(2)+(3)-(4)]
USER    
USER    (1) Final Intermolecular Energy     =   -4.71 kcal/mol
USER        vdW + Hbond + desolv Energy     =   -3.96 kcal/mol
USER        Electrostatic Energy            =   -0.75 kcal/mol
USER    (2) Final Total Internal Energy     =  -14.53 kcal/mol
USER    (3) Torsional Free Energy           =   +7.16 kcal/mol
USER    (4) Unbound System's Energy  [=(2)] =  -14.53 kcal/mol
USER    
USER    
USER  
USER    DPF = D:/Protein_go_brrr/autodock/final/AncA/IHP/dock.dpf
USER    NEWDPF move	IHP_ideal_opt.pdbqt
USER    NEWDPF about	0.035000 0.082000 -0.065000
USER    NEWDPF tran0	-4.831453 11.474073 -5.852483
USER    NEWDPF axisangle0	-0.897850 -0.262447 0.353534 104.727778
USER    NEWDPF quaternion0	-0.711012 -0.207833 0.279965 0.610644
USER    NEWDPF dihe0	106.46 101.11 60.68 99.19 -28.20 108.29 34.32 -68.95 70.36 61.67 143.98 137.74 -66.73 -80.38 74.89 92.40 117.77 -172.98 -152.72 -18.60 9.86 -28.12 -16.13 14.26 
USER  
USER                              x       y       z    vdW   Elec        q     RMS 
ATOM      1  C   UNL d   1      -4.563  10.786  -7.414 -0.09 -0.00    +0.194    10.940
ATOM      2  C   UNL d   1      -5.967  11.342  -7.169 -0.11 -0.02    +0.194    10.940
ATOM      3  C   UNL d   1      -6.494  10.961  -5.784 -0.10 -0.12    +0.194    10.940
ATOM      4  C   UNL d   1      -5.528  11.314  -4.655 -0.10 -0.12    +0.194    10.940
ATOM      5  C   UNL d   1      -4.090  10.879  -4.910 +0.05 -0.19    +0.194    10.940
ATOM      6  C   UNL d   1      -3.584  11.205  -6.317 -0.12 -0.10    +0.194    10.940
ATOM      7  O   UNL d   1      -4.079  11.325  -8.646 -0.48 -0.25    -0.278    10.940
ATOM      8  P   UNL d   1      -3.381  12.762  -8.623 -0.01 +0.10    +0.473    10.940
ATOM      9  O   UNL d   1      -3.611  13.556  -7.386 -0.00 +0.01    -0.228    10.940
ATOM     10  O   UNL d   1      -1.840  12.448  -8.890 -0.02 -0.00    -0.303    10.940
ATOM     11  H   UNL d   1      -1.534  11.759  -8.271 +0.04 -0.05    +0.222    10.940
ATOM     12  O   UNL d   1      -3.819  13.456  -9.984 -0.02 -0.09    -0.303    10.940
ATOM     13  H   UNL d   1      -4.795  13.499 -10.098 +0.01 +0.07    +0.222    10.940
ATOM     14  O   UNL d   1      -5.926  12.772  -7.265 -0.01 -0.00    -0.278    10.940
ATOM     15  P   UNL d   1      -6.711  13.429  -8.496 +0.01 +0.06    +0.473    10.940
ATOM     16  O   UNL d   1      -6.911  12.567  -9.703 -0.02 -0.08    -0.228    10.940
ATOM     17  O   UNL d   1      -8.084  13.927  -7.860 +0.01 -0.01    -0.303    10.940
ATOM     18  H   UNL d   1      -8.390  13.317  -7.162 +0.02 -0.00    +0.222    10.940
ATOM     19  O   UNL d   1      -5.960  14.807  -8.755 +0.00 -0.03    -0.303    10.940
ATOM     20  H   UNL d   1      -4.995  14.716  -8.655 +0.01 +0.02    +0.222    10.940
ATOM     21  O   UNL d   1      -2.390  10.450  -6.511 -0.15 +0.23    -0.278    10.940
ATOM     22  P   UNL d   1      -0.976  11.102  -6.163 -0.08 -0.45    +0.473    10.940
ATOM     23  O   UNL d   1      -0.283  10.659  -4.919 -0.27 +0.26    -0.228    10.940
ATOM     24  O   UNL d   1      -0.162  10.849  -7.507 -0.08 +0.42    -0.303    10.940
ATOM     25  H   UNL d   1       0.350  10.007  -7.403 -0.35 -0.62    +0.222    10.940
ATOM     26  O   UNL d   1      -1.306  12.668  -6.264 -0.03 +0.12    -0.303    10.940
ATOM     27  H   UNL d   1      -1.525  12.891  -7.192 +0.03 -0.06    +0.222    10.940
ATOM     28  O   UNL d   1      -7.659  11.739  -5.540 -0.06 +0.08    -0.278    10.940
ATOM     29  P   UNL d   1      -9.068  11.280  -6.123 -0.06 -0.09    +0.473    10.940
ATOM     30  O   UNL d   1      -9.619  10.023  -5.554 -0.12 +0.10    -0.228    10.940
ATOM     31  O   UNL d   1      -9.917  12.616  -5.887 -0.01 +0.02    -0.303    10.940
ATOM     32  H   UNL d   1      -9.781  13.215  -6.657 +0.01 -0.00    +0.222    10.940
ATOM     33  O   UNL d   1      -8.804  11.304  -7.693 -0.02 +0.00    -0.303    10.940
ATOM     34  H   UNL d   1      -7.932  11.736  -7.865 +0.03 +0.01    +0.222    10.940
ATOM     35  O   UNL d   1      -3.292  11.625  -3.993 -0.10 +0.15    -0.278    10.940
ATOM     36  P   UNL d   1      -2.498  10.881  -2.827 -0.18 -0.23    +0.473    10.940
ATOM     37  O   UNL d   1      -1.391  11.665  -2.198 -0.38 +0.05    -0.228    10.940
ATOM     38  O   UNL d   1      -3.675  10.492  -1.828 -0.24 +0.11    -0.303    10.940
ATOM     39  H   UNL d   1      -4.528  10.805  -2.199 +0.09 -0.08    +0.222    10.940
ATOM     40  O   UNL d   1      -2.106   9.499  -3.511 -0.21 +0.34    -0.303    10.940
ATOM     41  H   UNL d   1      -2.139   9.556  -4.492 -0.24 -0.38    +0.222    10.940
ATOM     42  O   UNL d   1      -5.979  10.616  -3.490 -0.15 +0.19    -0.278    10.940
ATOM     43  P   UNL d   1      -6.891  11.388  -2.433 -0.09 -0.12    +0.473    10.940
ATOM     44  O   UNL d   1      -6.457  11.370  -1.008 -0.10 +0.03    -0.228    10.940
ATOM     45  O   UNL d   1      -6.997  12.846  -3.063 -0.02 +0.05    -0.303    10.940
ATOM     46  H   UNL d   1      -7.554  12.850  -3.866 +0.03 -0.04    +0.222    10.940
ATOM     47  O   UNL d   1      -8.356  10.804  -2.718 -0.07 +0.11    -0.303    10.940
ATOM     48  H   UNL d   1      -8.502  10.754  -3.685 -0.21 -0.11    +0.222    10.940
TER
ENDMDL
MODEL       57
USER    Run = 57
USER    Cluster Rank = 35
USER    Number of conformations in this cluster = 1
USER  
USER    RMSD from reference structure       = 10.657 A
USER  
USER    Estimated Free Energy of Binding    =   +2.46 kcal/mol  [=(1)+(2)+(3)-(4)]
USER    
USER    (1) Final Intermolecular Energy     =   -4.70 kcal/mol
USER        vdW + Hbond + desolv Energy     =   -4.38 kcal/mol
USER        Electrostatic Energy            =   -0.32 kcal/mol
USER    (2) Final Total Internal Energy     =  -13.86 kcal/mol
USER    (3) Torsional Free Energy           =   +7.16 kcal/mol
USER    (4) Unbound System's Energy  [=(2)] =  -13.86 kcal/mol
USER    
USER    
USER  
USER    DPF = D:/Protein_go_brrr/autodock/final/AncA/IHP/dock.dpf
USER    NEWDPF move	IHP_ideal_opt.pdbqt
USER    NEWDPF about	0.035000 0.082000 -0.065000
USER    NEWDPF tran0	1.859184 -13.442825 -2.627110
USER    NEWDPF axisangle0	0.480774 0.664884 -0.571651 -103.020215
USER    NEWDPF quaternion0	0.376311 0.520417 -0.447442 -0.622377
USER    NEWDPF dihe0	34.36 58.87 -177.94 -1.16 45.36 -143.60 30.62 -96.73 91.36 -3.54 58.31 -102.62 147.63 177.66 145.40 -95.30 61.34 -39.66 58.48 22.71 -18.19 35.78 -13.84 -23.46 
USER  
USER                              x       y       z    vdW   Elec        q     RMS 
ATOM      1  C   UNL d   1       1.335 -14.670  -3.725 -0.09 +0.10    +0.194    10.657
ATOM      2  C   UNL d   1       0.386 -14.373  -2.563 -0.08 +0.12    +0.194    10.657
ATOM      3  C   UNL d   1       1.140 -14.213  -1.241 -0.05 +0.09    +0.194    10.657
ATOM      4  C   UNL d   1       2.286 -13.207  -1.321 -0.08 +0.07    +0.194    10.657
ATOM      5  C   UNL d   1       3.193 -13.395  -2.530 -0.07 +0.06    +0.194    10.657
ATOM      6  C   UNL d   1       2.438 -13.617  -3.843 -0.12 +0.07    +0.194    10.657
ATOM      7  O   UNL d   1       0.580 -14.634  -4.938 -0.15 -0.17    -0.278    10.657
ATOM      8  P   UNL d   1      -0.573 -15.719  -5.147 -0.13 +0.40    +0.473    10.657
ATOM      9  O   UNL d   1      -1.003 -15.919  -6.558 -0.25 -0.17    -0.228    10.657
ATOM     10  O   UNL d   1       0.014 -17.042  -4.475 -0.03 -0.21    -0.303    10.657
ATOM     11  H   UNL d   1       0.021 -17.765  -5.130 +0.05 +0.15    +0.222    10.657
ATOM     12  O   UNL d   1      -1.718 -15.307  -4.125 -0.29 -0.49    -0.303    10.657
ATOM     13  H   UNL d   1      -1.597 -14.403  -3.755 +0.06 +0.33    +0.222    10.657
ATOM     14  O   UNL d   1      -0.321 -13.157  -2.836 -0.11 -0.20    -0.278    10.657
ATOM     15  P   UNL d   1      -1.750 -12.986  -2.134 -0.13 +0.54    +0.473    10.657
ATOM     16  O   UNL d   1      -2.903 -12.658  -3.030 -0.67 -0.44    -0.228    10.657
ATOM     17  O   UNL d   1      -1.956 -14.350  -1.337 -0.11 -0.41    -0.303    10.657
ATOM     18  H   UNL d   1      -1.547 -14.304  -0.451 +0.05 +0.24    +0.222    10.657
ATOM     19  O   UNL d   1      -1.489 -11.959  -0.948 -0.19 -0.23    -0.303    10.657
ATOM     20  H   UNL d   1      -0.839 -12.304  -0.309 +0.08 +0.15    +0.222    10.657
ATOM     21  O   UNL d   1       3.387 -14.109  -4.786 -0.08 -0.10    -0.278    10.657
ATOM     22  P   UNL d   1       3.659 -13.298  -6.132 -0.25 +0.15    +0.473    10.657
ATOM     23  O   UNL d   1       4.730 -13.790  -7.047 -0.30 -0.08    -0.228    10.657
ATOM     24  O   UNL d   1       2.205 -13.241  -6.777 -0.19 -0.12    -0.303    10.657
ATOM     25  H   UNL d   1       1.662 -13.967  -6.377 +0.10 +0.10    +0.222    10.657
ATOM     26  O   UNL d   1       3.837 -11.803  -5.582 -0.26 -0.06    -0.303    10.657
ATOM     27  H   UNL d   1       4.380 -11.822  -4.768 +0.12 +0.03    +0.222    10.657
ATOM     28  O   UNL d   1       0.230 -13.673  -0.291 -0.09 -0.17    -0.278    10.657
ATOM     29  P   UNL d   1       0.333 -14.082   1.244 -0.08 +0.28    +0.473    10.657
ATOM     30  O   UNL d   1      -0.882 -14.713   1.822 -0.12 -0.21    -0.228    10.657
ATOM     31  O   UNL d   1       1.665 -14.969   1.208 -0.02 -0.13    -0.303    10.657
ATOM     32  H   UNL d   1       2.444 -14.367   1.244 +0.04 +0.08    +0.222    10.657
ATOM     33  O   UNL d   1       0.831 -12.728   1.918 -0.18 -0.15    -0.303    10.657
ATOM     34  H   UNL d   1       1.474 -12.285   1.312 +0.08 +0.08    +0.222    10.657
ATOM     35  O   UNL d   1       3.917 -12.174  -2.664 -0.10 -0.06    -0.278    10.657
ATOM     36  P   UNL d   1       5.504 -12.157  -2.503 -0.08 +0.03    +0.473    10.657
ATOM     37  O   UNL d   1       6.280 -12.008  -3.773 -0.13 +0.01    -0.228    10.657
ATOM     38  O   UNL d   1       5.714 -10.968  -1.464 -0.16 -0.00    -0.303    10.657
ATOM     39  H   UNL d   1       4.878 -10.821  -0.971 +0.08 +0.01    +0.222    10.657
ATOM     40  O   UNL d   1       5.772 -13.468  -1.643 -0.05 -0.03    -0.303    10.657
ATOM     41  H   UNL d   1       5.142 -13.546  -0.892 +0.04 +0.04    +0.222    10.657
ATOM     42  O   UNL d   1       3.092 -13.404  -0.155 -0.04 -0.08    -0.278    10.657
ATOM     43  P   UNL d   1       3.578 -12.129   0.671 -0.11 +0.11    +0.473    10.657
ATOM     44  O   UNL d   1       3.047 -10.800   0.258 -0.28 -0.04    -0.228    10.657
ATOM     45  O   UNL d   1       3.230 -12.531   2.171 -0.08 -0.09    -0.303    10.657
ATOM     46  H   UNL d   1       2.624 -13.298   2.204 +0.06 +0.08    +0.222    10.657
ATOM     47  O   UNL d   1       5.175 -12.270   0.658 -0.08 -0.05    -0.303    10.657
ATOM     48  H   UNL d   1       5.515 -12.003  -0.221 +0.08 +0.02    +0.222    10.657
TER
ENDMDL
MODEL       51
USER    Run = 51
USER    Cluster Rank = 36
USER    Number of conformations in this cluster = 1
USER  
USER    RMSD from reference structure       = 19.769 A
USER  
USER    Estimated Free Energy of Binding    =   +2.48 kcal/mol  [=(1)+(2)+(3)-(4)]
USER    
USER    (1) Final Intermolecular Energy     =   -4.67 kcal/mol
USER        vdW + Hbond + desolv Energy     =   -4.40 kcal/mol
USER        Electrostatic Energy            =   -0.28 kcal/mol
USER    (2) Final Total Internal Energy     =  -13.23 kcal/mol
USER    (3) Torsional Free Energy           =   +7.16 kcal/mol
USER    (4) Unbound System's Energy  [=(2)] =  -13.23 kcal/mol
USER    
USER    
USER  
USER    DPF = D:/Protein_go_brrr/autodock/final/AncA/IHP/dock.dpf
USER    NEWDPF move	IHP_ideal_opt.pdbqt
USER    NEWDPF about	0.035000 0.082000 -0.065000
USER    NEWDPF tran0	-10.126722 -19.338486 -7.997792
USER    NEWDPF axisangle0	0.314981 0.894697 0.316708 -159.076938
USER    NEWDPF quaternion0	0.309745 0.879825 0.311443 -0.181575
USER    NEWDPF dihe0	-176.15 -2.36 45.25 55.30 10.48 162.13 -105.73 20.16 -9.68 135.05 9.20 -38.76 45.34 154.25 -11.77 -142.01 74.31 -78.69 1.40 -19.27 -21.17 -29.98 23.03 17.56 
USER  
USER                              x       y       z    vdW   Elec        q     RMS 
ATOM      1  C   UNL d   1     -11.035 -18.715  -9.328 -0.14 +0.08    +0.194    19.769
ATOM      2  C   UNL d   1     -10.645 -20.190  -9.428 -0.06 +0.09    +0.194    19.769
ATOM      3  C   UNL d   1      -9.198 -20.425  -8.991 -0.11 +0.14    +0.194    19.769
ATOM      4  C   UNL d   1      -8.881 -19.836  -7.619 -0.12 +0.16    +0.194    19.769
ATOM      5  C   UNL d   1      -9.356 -18.400  -7.435 -0.16 +0.13    +0.194    19.769
ATOM      6  C   UNL d   1     -10.782 -18.152  -7.929 -0.16 +0.08    +0.194    19.769
ATOM      7  O   UNL d   1     -12.437 -18.605  -9.585 -0.04 -0.09    -0.278    19.769
ATOM      8  P   UNL d   1     -12.917 -17.688 -10.802 -0.07 +0.15    +0.473    19.769
ATOM      9  O   UNL d   1     -13.194 -18.417 -12.070 -0.04 -0.09    -0.228    19.769
ATOM     10  O   UNL d   1     -14.191 -16.920 -10.228 -0.04 -0.08    -0.303    19.769
ATOM     11  H   UNL d   1     -14.123 -16.854  -9.257 +0.04 +0.05    +0.222    19.769
ATOM     12  O   UNL d   1     -11.839 -16.524 -10.892 -0.19 -0.07    -0.303    19.769
ATOM     13  H   UNL d   1     -11.639 -16.116 -10.019 -0.49 -0.01    +0.222    19.769
ATOM     14  O   UNL d   1     -11.508 -20.960  -8.582 -0.01 -0.10    -0.278    19.769
ATOM     15  P   UNL d   1     -12.528 -21.954  -9.313 +0.00 +0.13    +0.473    19.769
ATOM     16  O   UNL d   1     -13.822 -22.225  -8.612 +0.00 -0.05    -0.228    19.769
ATOM     17  O   UNL d   1     -12.730 -21.309 -10.756 -0.00 -0.08    -0.303    19.769
ATOM     18  H   UNL d   1     -12.955 -20.361 -10.689 +0.02 +0.06    +0.222    19.769
ATOM     19  O   UNL d   1     -11.653 -23.237  -9.657 +0.00 -0.08    -0.303    19.769
ATOM     20  H   UNL d   1     -10.716 -23.108  -9.421 +0.01 +0.07    +0.222    19.769
ATOM     21  O   UNL d   1     -10.950 -16.738  -8.010 -0.20 -0.08    -0.278    19.769
ATOM     22  P   UNL d   1     -12.136 -16.034  -7.209 -0.11 +0.09    +0.473    19.769
ATOM     23  O   UNL d   1     -12.771 -16.784  -6.087 -0.04 -0.06    -0.228    19.769
ATOM     24  O   UNL d   1     -11.471 -14.649  -6.793 -0.23 -0.06    -0.303    19.769
ATOM     25  H   UNL d   1     -10.636 -14.845  -6.297 +0.08 +0.08    +0.222    19.769
ATOM     26  O   UNL d   1     -13.113 -15.588  -8.399 -0.11 -0.02    -0.303    19.769
ATOM     27  H   UNL d   1     -12.646 -15.686  -9.253 -0.48 -0.02    +0.222    19.769
ATOM     28  O   UNL d   1      -9.014 -21.828  -8.851 -0.04 -0.18    -0.278    19.769
ATOM     29  P   UNL d   1      -8.744 -22.736 -10.131 -0.02 +0.26    +0.473    19.769
ATOM     30  O   UNL d   1      -8.844 -24.201  -9.910 -0.00 -0.09    -0.228    19.769
ATOM     31  O   UNL d   1      -9.781 -22.083 -11.161 -0.01 -0.13    -0.303    19.769
ATOM     32  H   UNL d   1     -10.675 -22.083 -10.747 +0.02 +0.08    +0.222    19.769
ATOM     33  O   UNL d   1      -7.343 -22.180 -10.644 -0.07 -0.28    -0.303    19.769
ATOM     34  H   UNL d   1      -6.621 -22.566 -10.090 +0.01 +0.25    +0.222    19.769
ATOM     35  O   UNL d   1      -9.353 -18.169  -6.028 -0.08 -0.17    -0.278    19.769
ATOM     36  P   UNL d   1      -9.172 -16.691  -5.456 -0.13 +0.30    +0.473    19.769
ATOM     37  O   UNL d   1     -10.315 -16.170  -4.642 -0.09 -0.11    -0.228    19.769
ATOM     38  O   UNL d   1      -7.802 -16.816  -4.655 -0.13 -0.30    -0.303    19.769
ATOM     39  H   UNL d   1      -7.976 -17.235  -3.784 +0.05 +0.20    +0.222    19.769
ATOM     40  O   UNL d   1      -8.780 -15.868  -6.759 -0.27 -0.21    -0.303    19.769
ATOM     41  H   UNL d   1      -9.568 -15.465  -7.186 +0.08 +0.11    +0.222    19.769
ATOM     42  O   UNL d   1      -7.455 -19.828  -7.490 -0.39 -0.41    -0.278    19.769
ATOM     43  P   UNL d   1      -6.737 -21.065  -6.784 -0.00 +0.61    +0.473    19.769
ATOM     44  O   UNL d   1      -7.474 -21.752  -5.686 -0.02 -0.15    -0.228    19.769
ATOM     45  O   UNL d   1      -6.376 -22.007  -8.014 -0.44 -0.49    -0.303    19.769
ATOM     46  H   UNL d   1      -7.181 -22.329  -8.467 +0.01 +0.24    +0.222    19.769
ATOM     47  O   UNL d   1      -5.299 -20.478  -6.390 -0.22 -0.46    -0.303    19.769
ATOM     48  H   UNL d   1      -5.045 -20.813  -5.506 +0.02 +0.22    +0.222    19.769
TER
ENDMDL
MODEL       59
USER    Run = 59
USER    Cluster Rank = 37
USER    Number of conformations in this cluster = 1
USER  
USER    RMSD from reference structure       = 17.461 A
USER  
USER    Estimated Free Energy of Binding    =   +2.51 kcal/mol  [=(1)+(2)+(3)-(4)]
USER    
USER    (1) Final Intermolecular Energy     =   -4.65 kcal/mol
USER        vdW + Hbond + desolv Energy     =   -3.90 kcal/mol
USER        Electrostatic Energy            =   -0.75 kcal/mol
USER    (2) Final Total Internal Energy     =  -11.97 kcal/mol
USER    (3) Torsional Free Energy           =   +7.16 kcal/mol
USER    (4) Unbound System's Energy  [=(2)] =  -11.97 kcal/mol
USER    
USER    
USER  
USER    DPF = D:/Protein_go_brrr/autodock/final/AncA/IHP/dock.dpf
USER    NEWDPF move	IHP_ideal_opt.pdbqt
USER    NEWDPF about	0.035000 0.082000 -0.065000
USER    NEWDPF tran0	-16.494158 0.294063 -12.620708
USER    NEWDPF axisangle0	0.878184 -0.217971 0.425772 -69.602076
USER    NEWDPF quaternion0	0.501204 -0.124402 0.243000 -0.821139
USER    NEWDPF dihe0	165.26 73.36 144.26 -14.73 -46.67 166.31 10.00 -121.51 93.73 92.05 -135.96 135.65 -91.30 84.15 40.43 -43.29 96.84 165.24 -142.98 -14.98 -174.20 144.29 6.20 -178.42 
USER  
USER                              x       y       z    vdW   Elec        q     RMS 
ATOM      1  C   UNL d   1     -14.932  -0.398 -12.368 -0.11 -0.09    +0.194    17.461
ATOM      2  C   UNL d   1     -15.587  -0.720 -13.712 -0.06 -0.09    +0.194    17.461
ATOM      3  C   UNL d   1     -17.071  -1.059 -13.552 -0.01 -0.03    +0.194    17.461
ATOM      4  C   UNL d   1     -17.848  -0.004 -12.769 -0.00 -0.01    +0.194    17.461
ATOM      5  C   UNL d   1     -17.172   0.431 -11.475 -0.02 -0.01    +0.194    17.461
ATOM      6  C   UNL d   1     -15.675   0.711 -11.622 -0.06 -0.03    +0.194    17.461
ATOM      7  O   UNL d   1     -13.605   0.072 -12.619 +0.16 +0.30    -0.278    17.461
ATOM      8  P   UNL d   1     -13.366   1.648 -12.725 -0.11 -0.28    +0.473    17.461
ATOM      9  O   UNL d   1     -14.430   2.402 -13.442 -0.05 +0.06    -0.228    17.461
ATOM     10  O   UNL d   1     -13.180   2.114 -11.210 -0.19 +0.08    -0.303    17.461
ATOM     11  H   UNL d   1     -13.140   1.330 -10.630 +0.12 -0.06    +0.222    17.461
ATOM     12  O   UNL d   1     -11.895   1.805 -13.303 -0.15 +0.28    -0.303    17.461
ATOM     13  H   UNL d   1     -11.619   1.046 -13.865 -0.29 -0.39    +0.222    17.461
ATOM     14  O   UNL d   1     -15.469   0.420 -14.573 -0.03 +0.11    -0.278    17.461
ATOM     15  P   UNL d   1     -14.602   0.224 -15.905 -0.02 -0.24    +0.473    17.461
ATOM     16  O   UNL d   1     -15.131   0.861 -17.151 -0.01 +0.05    -0.228    17.461
ATOM     17  O   UNL d   1     -13.154   0.757 -15.506 -0.08 +0.28    -0.303    17.461
ATOM     18  H   UNL d   1     -12.861   0.375 -14.657 -0.33 -0.40    +0.222    17.461
ATOM     19  O   UNL d   1     -14.353  -1.345 -15.989 -0.06 +0.23    -0.303    17.461
ATOM     20  H   UNL d   1     -13.689  -1.640 -15.338 -0.49 -0.39    +0.222    17.461
ATOM     21  O   UNL d   1     -15.134   0.763 -10.303 -0.11 +0.01    -0.278    17.461
ATOM     22  P   UNL d   1     -14.729  -0.588  -9.559 -0.19 +0.03    +0.473    17.461
ATOM     23  O   UNL d   1     -13.534  -1.333 -10.052 -0.93 -0.08    -0.228    17.461
ATOM     24  O   UNL d   1     -14.641  -0.111  -8.043 -0.37 -0.03    -0.303    17.461
ATOM     25  H   UNL d   1     -13.693  -0.166  -7.758 -0.38 -0.04    +0.222    17.461
ATOM     26  O   UNL d   1     -16.115  -1.395  -9.572 -0.14 -0.01    -0.303    17.461
ATOM     27  H   UNL d   1     -16.825  -0.808  -9.903 +0.08 +0.00    +0.222    17.461
ATOM     28  O   UNL d   1     -17.650  -1.067 -14.851 -0.00 +0.03    -0.278    17.461
ATOM     29  P   UNL d   1     -18.578   0.137 -15.326 +0.00 -0.02    +0.473    17.461
ATOM     30  O   UNL d   1     -19.894   0.238 -14.644 +0.00 -0.00    -0.228    17.461
ATOM     31  O   UNL d   1     -17.566   1.361 -15.135 +0.00 +0.02    -0.303    17.461
ATOM     32  H   UNL d   1     -16.789   1.221 -15.725 +0.01 -0.03    +0.222    17.461
ATOM     33  O   UNL d   1     -18.599  -0.060 -16.905 +0.00 +0.01    -0.303    17.461
ATOM     34  H   UNL d   1     -17.679   0.040 -17.254 +0.00 -0.01    +0.222    17.461
ATOM     35  O   UNL d   1     -17.795   1.660 -11.107 -0.01 -0.00    -0.278    17.461
ATOM     36  P   UNL d   1     -18.205   1.932  -9.590 -0.04 +0.05    +0.473    17.461
ATOM     37  O   UNL d   1     -17.985   3.329  -9.103 -0.10 -0.03    -0.228    17.461
ATOM     38  O   UNL d   1     -19.728   1.466  -9.575 -0.03 -0.03    -0.303    17.461
ATOM     39  H   UNL d   1     -19.875   0.827 -10.306 +0.02 +0.01    +0.222    17.461
ATOM     40  O   UNL d   1     -17.442   0.770  -8.818 -0.09 -0.05    -0.303    17.461
ATOM     41  H   UNL d   1     -16.492   0.728  -9.069 +0.08 +0.03    +0.222    17.461
ATOM     42  O   UNL d   1     -19.102  -0.594 -12.411 -0.00 +0.00    -0.278    17.461
ATOM     43  P   UNL d   1     -19.125  -1.750 -11.312 +0.01 +0.01    +0.473    17.461
ATOM     44  O   UNL d   1     -20.181  -2.794 -11.436 -0.01 -0.01    -0.228    17.461
ATOM     45  O   UNL d   1     -17.639  -2.317 -11.371 -0.01 +0.01    -0.303    17.461
ATOM     46  H   UNL d   1     -17.361  -2.681 -10.507 +0.06 -0.01    +0.222    17.461
ATOM     47  O   UNL d   1     -19.111  -0.941  -9.929 -0.02 -0.02    -0.303    17.461
ATOM     48  H   UNL d   1     -18.439  -0.230  -9.978 +0.05 +0.01    +0.222    17.461
TER
ENDMDL
MODEL       69
USER    Run = 69
USER    Cluster Rank = 38
USER    Number of conformations in this cluster = 1
USER  
USER    RMSD from reference structure       = 14.188 A
USER  
USER    Estimated Free Energy of Binding    =   +2.70 kcal/mol  [=(1)+(2)+(3)-(4)]
USER    
USER    (1) Final Intermolecular Energy     =   -4.46 kcal/mol
USER        vdW + Hbond + desolv Energy     =   -4.30 kcal/mol
USER        Electrostatic Energy            =   -0.16 kcal/mol
USER    (2) Final Total Internal Energy     =  -14.36 kcal/mol
USER    (3) Torsional Free Energy           =   +7.16 kcal/mol
USER    (4) Unbound System's Energy  [=(2)] =  -14.36 kcal/mol
USER    
USER    
USER  
USER    DPF = D:/Protein_go_brrr/autodock/final/AncA/IHP/dock.dpf
USER    NEWDPF move	IHP_ideal_opt.pdbqt
USER    NEWDPF about	0.035000 0.082000 -0.065000
USER    NEWDPF tran0	-3.812473 3.744032 -15.150601
USER    NEWDPF axisangle0	-0.227884 0.009196 0.973645 138.622234
USER    NEWDPF quaternion0	-0.213188 0.008603 0.910857 0.353293
USER    NEWDPF dihe0	25.71 46.12 146.31 2.76 134.89 145.08 -37.27 -121.85 14.42 89.85 57.91 -84.52 160.77 -175.86 -111.27 123.85 121.85 -74.76 47.26 5.23 -5.03 -5.83 -10.36 -16.32 
USER  
USER                              x       y       z    vdW   Elec        q     RMS 
ATOM      1  C   UNL d   1      -5.519   3.492 -15.058 -0.06 +0.01    +0.194    14.188
ATOM      2  C   UNL d   1      -5.065   4.953 -15.050 -0.03 +0.03    +0.194    14.188
ATOM      3  C   UNL d   1      -3.850   5.164 -14.144 -0.05 +0.04    +0.194    14.188
ATOM      4  C   UNL d   1      -2.702   4.204 -14.445 -0.04 +0.02    +0.194    14.188
ATOM      5  C   UNL d   1      -3.128   2.748 -14.576 -0.07 +0.01    +0.194    14.188
ATOM      6  C   UNL d   1      -4.380   2.543 -15.432 -0.05 +0.00    +0.194    14.188
ATOM      7  O   UNL d   1      -6.537   3.347 -16.051 -0.03 -0.00    -0.278    14.188
ATOM      8  P   UNL d   1      -7.998   3.907 -15.727 -0.05 -0.00    +0.473    14.188
ATOM      9  O   UNL d   1      -9.118   3.142 -16.341 -0.05 +0.03    -0.228    14.188
ATOM     10  O   UNL d   1      -8.057   3.936 -14.133 -0.58 -0.05    -0.303    14.188
ATOM     11  H   UNL d   1      -8.888   3.525 -13.829 +0.07 +0.01    +0.222    14.188
ATOM     12  O   UNL d   1      -7.937   5.454 -16.086 -0.02 -0.02    -0.303    14.188
ATOM     13  H   UNL d   1      -7.060   5.735 -16.431 +0.02 +0.02    +0.222    14.188
ATOM     14  O   UNL d   1      -4.712   5.340 -16.384 -0.00 -0.03    -0.278    14.188
ATOM     15  P   UNL d   1      -5.220   6.779 -16.871 +0.01 +0.06    +0.473    14.188
ATOM     16  O   UNL d   1      -6.113   6.806 -18.072 +0.00 -0.02    -0.228    14.188
ATOM     17  O   UNL d   1      -5.906   7.405 -15.577 -0.00 -0.07    -0.303    14.188
ATOM     18  H   UNL d   1      -5.315   7.346 -14.802 +0.03 +0.08    +0.222    14.188
ATOM     19  O   UNL d   1      -3.894   7.650 -16.982 +0.00 -0.04    -0.303    14.188
ATOM     20  H   UNL d   1      -3.407   7.675 -16.138 +0.01 +0.04    +0.222    14.188
ATOM     21  O   UNL d   1      -4.840   1.218 -15.180 -0.12 +0.01    -0.278    14.188
ATOM     22  P   UNL d   1      -4.658   0.090 -16.294 -0.08 -0.02    +0.473    14.188
ATOM     23  O   UNL d   1      -5.647   0.035 -17.409 -0.07 +0.01    -0.228    14.188
ATOM     24  O   UNL d   1      -3.151   0.324 -16.750 -0.07 +0.00    -0.303    14.188
ATOM     25  H   UNL d   1      -2.558   0.062 -16.000 +0.09 -0.01    +0.222    14.188
ATOM     26  O   UNL d   1      -4.532  -1.234 -15.399 +0.03 +0.03    -0.303    14.188
ATOM     27  H   UNL d   1      -4.143  -1.001 -14.532 -0.33 -0.06    +0.222    14.188
ATOM     28  O   UNL d   1      -3.336   6.463 -14.412 -0.02 -0.08    -0.278    14.188
ATOM     29  P   UNL d   1      -3.583   7.653 -13.383 -0.04 +0.38    +0.473    14.188
ATOM     30  O   UNL d   1      -2.465   7.932 -12.445 -0.58 -0.22    -0.228    14.188
ATOM     31  O   UNL d   1      -3.988   8.821 -14.399 -0.05 -0.17    -0.303    14.188
ATOM     32  H   UNL d   1      -4.188   8.419 -15.276 +0.01 +0.07    +0.222    14.188
ATOM     33  O   UNL d   1      -4.982   7.251 -12.736 -0.12 -0.32    -0.303    14.188
ATOM     34  H   UNL d   1      -5.673   7.248 -13.442 +0.04 +0.14    +0.222    14.188
ATOM     35  O   UNL d   1      -2.053   2.087 -15.240 -0.07 -0.00    -0.278    14.188
ATOM     36  P   UNL d   1      -1.294   0.875 -14.534 -0.17 -0.01    +0.473    14.188
ATOM     37  O   UNL d   1      -0.414   0.058 -15.426 -0.21 -0.01    -0.228    14.188
ATOM     38  O   UNL d   1      -0.521   1.617 -13.355 -0.25 +0.02    -0.303    14.188
ATOM     39  H   UNL d   1       0.034   2.331 -13.735 -0.28 -0.04    +0.222    14.188
ATOM     40  O   UNL d   1      -2.480   0.115 -13.796 -0.22 +0.05    -0.303    14.188
ATOM     41  H   UNL d   1      -3.245  -0.033 -14.394 -0.04 -0.04    +0.222    14.188
ATOM     42  O   UNL d   1      -1.797   4.280 -13.338 -0.06 -0.03    -0.278    14.188
ATOM     43  P   UNL d   1      -0.254   4.568 -13.622 -0.09 +0.04    +0.473    14.188
ATOM     44  O   UNL d   1       0.303   4.107 -14.924 -0.10 -0.00    -0.228    14.188
ATOM     45  O   UNL d   1      -0.143   6.138 -13.386 -0.05 -0.05    -0.303    14.188
ATOM     46  H   UNL d   1      -1.024   6.561 -13.373 +0.05 +0.05    +0.222    14.188
ATOM     47  O   UNL d   1       0.473   3.990 -12.315 -0.22 -0.01    -0.303    14.188
ATOM     48  H   UNL d   1       0.761   3.070 -12.487 -0.37 -0.01    +0.222    14.188
TER
ENDMDL
MODEL       43
USER    Run = 43
USER    Cluster Rank = 39
USER    Number of conformations in this cluster = 1
USER  
USER    RMSD from reference structure       = 19.746 A
USER  
USER    Estimated Free Energy of Binding    =   +2.74 kcal/mol  [=(1)+(2)+(3)-(4)]
USER    
USER    (1) Final Intermolecular Energy     =   -4.42 kcal/mol
USER        vdW + Hbond + desolv Energy     =   -4.11 kcal/mol
USER        Electrostatic Energy            =   -0.31 kcal/mol
USER    (2) Final Total Internal Energy     =  -12.51 kcal/mol
USER    (3) Torsional Free Energy           =   +7.16 kcal/mol
USER    (4) Unbound System's Energy  [=(2)] =  -12.51 kcal/mol
USER    
USER    
USER  
USER    DPF = D:/Protein_go_brrr/autodock/final/AncA/IHP/dock.dpf
USER    NEWDPF move	IHP_ideal_opt.pdbqt
USER    NEWDPF about	0.035000 0.082000 -0.065000
USER    NEWDPF tran0	12.142462 7.808415 -16.541773
USER    NEWDPF axisangle0	-0.446521 0.787193 0.425378 170.820890
USER    NEWDPF quaternion0	-0.445089 0.784669 0.424014 0.080017
USER    NEWDPF dihe0	91.66 44.16 77.72 93.09 -42.32 171.99 -124.70 -15.57 121.86 130.36 144.13 107.04 -141.81 117.12 -130.24 -176.51 7.56 32.99 -31.24 -9.88 146.74 9.82 -34.86 -176.38 
USER  
USER                              x       y       z    vdW   Elec        q     RMS 
ATOM      1  C   UNL d   1      11.564   7.101 -18.008 -0.12 +0.07    +0.194    19.746
ATOM      2  C   UNL d   1      12.994   7.642 -18.054 -0.08 +0.05    +0.194    19.746
ATOM      3  C   UNL d   1      13.109   9.002 -17.362 -0.05 +0.04    +0.194    19.746
ATOM      4  C   UNL d   1      12.535   9.006 -15.947 -0.12 +0.05    +0.194    19.746
ATOM      5  C   UNL d   1      11.155   8.371 -15.834 -0.21 +0.09    +0.194    19.746
ATOM      6  C   UNL d   1      11.023   7.041 -16.579 -0.14 +0.13    +0.194    19.746
ATOM      7  O   UNL d   1      11.576   5.765 -18.516 -0.09 -0.12    -0.278    19.746
ATOM      8  P   UNL d   1      10.237   5.190 -19.172 -0.08 +0.26    +0.473    19.746
ATOM      9  O   UNL d   1       9.319   4.498 -18.227 -0.60 -0.32    -0.228    19.746
ATOM     10  O   UNL d   1       9.575   6.460 -19.875 -0.01 -0.12    -0.303    19.746
ATOM     11  H   UNL d   1       9.301   7.104 -19.195 +0.03 +0.10    +0.222    19.746
ATOM     12  O   UNL d   1      10.723   4.335 -20.419 -0.01 -0.10    -0.303    19.746
ATOM     13  H   UNL d   1      11.699   4.346 -20.538 +0.02 +0.05    +0.222    19.746
ATOM     14  O   UNL d   1      13.865   6.717 -17.391 -0.09 -0.07    -0.278    19.746
ATOM     15  P   UNL d   1      15.072   6.122 -18.258 -0.06 +0.08    +0.473    19.746
ATOM     16  O   UNL d   1      16.080   5.293 -17.526 -0.09 -0.04    -0.228    19.746
ATOM     17  O   UNL d   1      14.350   5.323 -19.431 -0.04 -0.05    -0.303    19.746
ATOM     18  H   UNL d   1      13.418   5.136 -19.208 +0.02 +0.05    +0.222    19.746
ATOM     19  O   UNL d   1      15.656   7.379 -19.040 -0.02 -0.04    -0.303    19.746
ATOM     20  H   UNL d   1      15.585   8.196 -18.513 +0.01 +0.03    +0.222    19.746
ATOM     21  O   UNL d   1       9.629   6.756 -16.671 -0.17 -0.30    -0.278    19.746
ATOM     22  P   UNL d   1       8.610   7.913 -17.081 -0.11 +0.32    +0.473    19.746
ATOM     23  O   UNL d   1       7.839   8.590 -15.998 -0.15 -0.14    -0.228    19.746
ATOM     24  O   UNL d   1       9.541   8.877 -17.939 -0.02 -0.11    -0.303    19.746
ATOM     25  H   UNL d   1       9.706   9.699 -17.410 +0.03 +0.06    +0.222    19.746
ATOM     26  O   UNL d   1       7.741   7.193 -18.219 -0.07 -0.21    -0.303    19.746
ATOM     27  H   UNL d   1       8.087   6.289 -18.364 +0.03 +0.21    +0.222    19.746
ATOM     28  O   UNL d   1      14.493   9.290 -17.209 -0.02 -0.04    -0.278    19.746
ATOM     29  P   UNL d   1      15.121  10.595 -17.872 -0.00 +0.05    +0.473    19.746
ATOM     30  O   UNL d   1      16.382  11.082 -17.257 -0.00 -0.02    -0.228    19.746
ATOM     31  O   UNL d   1      15.192  10.125 -19.400 -0.00 -0.03    -0.303    19.746
ATOM     32  H   UNL d   1      15.920   9.467 -19.493 +0.01 +0.02    +0.222    19.746
ATOM     33  O   UNL d   1      13.885  11.598 -17.870 -0.00 -0.03    -0.303    19.746
ATOM     34  H   UNL d   1      13.422  11.537 -16.998 +0.01 +0.03    +0.222    19.746
ATOM     35  O   UNL d   1      10.968   8.097 -14.448 -0.81 -0.15    -0.278    19.746
ATOM     36  P   UNL d   1      10.180   9.130 -13.522 -0.19 +0.18    +0.473    19.746
ATOM     37  O   UNL d   1       8.836   9.552 -14.025 -0.17 -0.09    -0.228    19.746
ATOM     38  O   UNL d   1      10.146   8.360 -12.129 -0.34 -0.08    -0.303    19.746
ATOM     39  H   UNL d   1      11.056   8.079 -11.895 -0.33 -0.04    +0.222    19.746
ATOM     40  O   UNL d   1      11.259  10.277 -13.299 -0.08 -0.09    -0.303    19.746
ATOM     41  H   UNL d   1      11.214  10.962 -14.003 +0.05 +0.06    +0.222    19.746
ATOM     42  O   UNL d   1      12.400  10.378 -15.559 -0.02 -0.05    -0.278    19.746
ATOM     43  P   UNL d   1      11.246  11.257 -16.222 +0.01 +0.09    +0.473    19.746
ATOM     44  O   UNL d   1       9.863  11.083 -15.697 -0.02 -0.05    -0.228    19.746
ATOM     45  O   UNL d   1      11.813  12.738 -16.084 +0.00 -0.04    -0.303    19.746
ATOM     46  H   UNL d   1      12.566  12.890 -16.689 +0.00 +0.03    +0.222    19.746
ATOM     47  O   UNL d   1      11.431  10.982 -17.790 -0.00 -0.05    -0.303    19.746
ATOM     48  H   UNL d   1      12.222  11.462 -18.111 +0.00 +0.03    +0.222    19.746
TER
ENDMDL
MODEL       81
USER    Run = 81
USER    Cluster Rank = 40
USER    Number of conformations in this cluster = 1
USER  
USER    RMSD from reference structure       = 16.498 A
USER  
USER    Estimated Free Energy of Binding    =   +2.75 kcal/mol  [=(1)+(2)+(3)-(4)]
USER    
USER    (1) Final Intermolecular Energy     =   -4.41 kcal/mol
USER        vdW + Hbond + desolv Energy     =   -4.23 kcal/mol
USER        Electrostatic Energy            =   -0.18 kcal/mol
USER    (2) Final Total Internal Energy     =  -13.33 kcal/mol
USER    (3) Torsional Free Energy           =   +7.16 kcal/mol
USER    (4) Unbound System's Energy  [=(2)] =  -13.33 kcal/mol
USER    
USER    
USER  
USER    DPF = D:/Protein_go_brrr/autodock/final/AncA/IHP/dock.dpf
USER    NEWDPF move	IHP_ideal_opt.pdbqt
USER    NEWDPF about	0.035000 0.082000 -0.065000
USER    NEWDPF tran0	0.972438 8.733355 15.766265
USER    NEWDPF axisangle0	-0.446462 0.167704 -0.878947 152.581619
USER    NEWDPF quaternion0	-0.433743 0.162926 -0.853906 0.236994
USER    NEWDPF dihe0	104.55 115.60 142.15 21.95 7.93 91.67 -99.56 18.75 -43.59 35.45 -80.27 -141.78 -76.12 33.36 179.97 -141.87 10.98 -15.50 -147.08 -23.89 14.29 -36.49 -167.12 153.55 
USER  
USER                              x       y       z    vdW   Elec        q     RMS 
ATOM      1  C   UNL d   1       1.341   9.422  17.307 -0.01 -0.01    +0.194    16.498
ATOM      2  C   UNL d   1       2.174   9.943  16.134 -0.04 -0.02    +0.194    16.498
ATOM      3  C   UNL d   1       2.620   8.809  15.208 -0.14 -0.03    +0.194    16.498
ATOM      4  C   UNL d   1       1.467   7.920  14.748 -0.23 -0.03    +0.194    16.498
ATOM      5  C   UNL d   1       0.543   7.470  15.873 -0.09 -0.02    +0.194    16.498
ATOM      6  C   UNL d   1       0.147   8.592  16.835 -0.02 -0.01    +0.194    16.498
ATOM      7  O   UNL d   1       0.823  10.547  18.021 -0.00 +0.01    -0.278    16.498
ATOM      8  P   UNL d   1      -0.600  11.129  17.589 +0.00 -0.01    +0.473    16.498
ATOM      9  O   UNL d   1      -0.997  10.848  16.183 -0.02 +0.01    -0.228    16.498
ATOM     10  O   UNL d   1      -1.610  10.516  18.662 -0.00 +0.00    -0.303    16.498
ATOM     11  H   UNL d   1      -1.507   9.547  18.691 +0.00 -0.00    +0.222    16.498
ATOM     12  O   UNL d   1      -0.563  12.662  18.006 -0.00 +0.00    -0.303    16.498
ATOM     13  H   UNL d   1       0.043  13.199  17.447 +0.00 -0.00    +0.222    16.498
ATOM     14  O   UNL d   1       1.385  10.868  15.376 -0.04 +0.03    -0.278    16.498
ATOM     15  P   UNL d   1       1.778  12.415  15.501 +0.00 -0.03    +0.473    16.498
ATOM     16  O   UNL d   1       2.803  12.928  14.538 -0.04 +0.01    -0.228    16.498
ATOM     17  O   UNL d   1       0.385  13.180  15.386 -0.01 +0.01    -0.303    16.498
ATOM     18  H   UNL d   1      -0.292  12.764  15.953 +0.01 -0.01    +0.222    16.498
ATOM     19  O   UNL d   1       2.125  12.612  17.041 -0.00 +0.01    -0.303    16.498
ATOM     20  H   UNL d   1       1.531  12.092  17.614 +0.00 -0.00    +0.222    16.498
ATOM     21  O   UNL d   1      -0.412   7.968  17.989 -0.00 +0.01    -0.278    16.498
ATOM     22  P   UNL d   1      -1.971   7.632  18.031 +0.01 -0.01    +0.473    16.498
ATOM     23  O   UNL d   1      -2.658   7.641  19.355 +0.00 +0.00    -0.228    16.498
ATOM     24  O   UNL d   1      -2.555   8.664  16.969 -0.00 +0.01    -0.303    16.498
ATOM     25  H   UNL d   1      -2.311   9.579  17.262 +0.01 -0.01    +0.222    16.498
ATOM     26  O   UNL d   1      -2.029   6.252  17.218 -0.01 +0.02    -0.303    16.498
ATOM     27  H   UNL d   1      -2.041   6.444  16.258 +0.03 -0.02    +0.222    16.498
ATOM     28  O   UNL d   1       3.135   9.402  14.023 -0.20 +0.08    -0.278    16.498
ATOM     29  P   UNL d   1       4.561  10.111  14.033 -0.07 -0.11    +0.473    16.498
ATOM     30  O   UNL d   1       4.877  10.932  12.836 -0.32 +0.04    -0.228    16.498
ATOM     31  O   UNL d   1       4.484  10.873  15.438 -0.02 +0.03    -0.303    16.498
ATOM     32  H   UNL d   1       3.622  11.346  15.491 +0.04 -0.02    +0.222    16.498
ATOM     33  O   UNL d   1       5.538   8.893  14.347 -0.10 +0.08    -0.303    16.498
ATOM     34  H   UNL d   1       5.667   8.363  13.522 -0.45 -0.12    +0.222    16.498
ATOM     35  O   UNL d   1      -0.652   7.022  15.236 -0.10 +0.04    -0.278    16.498
ATOM     36  P   UNL d   1      -1.200   7.767  13.937 -0.15 -0.10    +0.473    16.498
ATOM     37  O   UNL d   1      -0.233   7.877  12.801 -0.34 +0.07    -0.228    16.498
ATOM     38  O   UNL d   1      -2.508   6.922  13.603 -0.17 +0.10    -0.303    16.498
ATOM     39  H   UNL d   1      -2.378   6.453  12.751 +0.07 -0.14    +0.222    16.498
ATOM     40  O   UNL d   1      -1.765   9.127  14.538 -0.08 +0.03    -0.303    16.498
ATOM     41  H   UNL d   1      -1.734   9.131  15.520 +0.04 -0.02    +0.222    16.498
ATOM     42  O   UNL d   1       2.052   6.740  14.187 -0.39 +0.01    -0.278    16.498
ATOM     43  P   UNL d   1       3.288   6.061  14.934 -0.13 -0.02    +0.473    16.498
ATOM     44  O   UNL d   1       3.355   6.200  16.416 -0.04 +0.01    -0.228    16.498
ATOM     45  O   UNL d   1       3.220   4.556  14.424 -0.68 -0.02    -0.303    16.498
ATOM     46  H   UNL d   1       3.616   3.940  15.073 +0.06 -0.00    +0.222    16.498
ATOM     47  O   UNL d   1       4.555   6.622  14.129 -0.11 +0.08    -0.303    16.498
ATOM     48  H   UNL d   1       4.390   7.553  13.874 -0.51 -0.12    +0.222    16.498
TER
ENDMDL
MODEL       65
USER    Run = 65
USER    Cluster Rank = 41
USER    Number of conformations in this cluster = 1
USER  
USER    RMSD from reference structure       = 19.039 A
USER  
USER    Estimated Free Energy of Binding    =   +2.76 kcal/mol  [=(1)+(2)+(3)-(4)]
USER    
USER    (1) Final Intermolecular Energy     =   -4.40 kcal/mol
USER        vdW + Hbond + desolv Energy     =   -3.83 kcal/mol
USER        Electrostatic Energy            =   -0.58 kcal/mol
USER    (2) Final Total Internal Energy     =  -12.08 kcal/mol
USER    (3) Torsional Free Energy           =   +7.16 kcal/mol
USER    (4) Unbound System's Energy  [=(2)] =  -12.08 kcal/mol
USER    
USER    
USER  
USER    DPF = D:/Protein_go_brrr/autodock/final/AncA/IHP/dock.dpf
USER    NEWDPF move	IHP_ideal_opt.pdbqt
USER    NEWDPF about	0.035000 0.082000 -0.065000
USER    NEWDPF tran0	-7.387178 -2.715165 -20.134063
USER    NEWDPF axisangle0	0.045171 -0.613408 0.788474 -169.223917
USER    NEWDPF quaternion0	0.044972 -0.610697 0.784990 -0.093901
USER    NEWDPF dihe0	30.35 108.44 143.59 161.48 30.42 -97.03 -140.25 -32.92 175.78 121.24 3.34 -137.18 9.92 -134.54 13.33 -166.69 88.49 -67.59 -4.41 -9.87 155.84 -1.85 -48.64 8.92 
USER  
USER                              x       y       z    vdW   Elec        q     RMS 
ATOM      1  C   UNL d   1      -8.468  -3.154 -18.860 -0.11 -0.05    +0.194    19.039
ATOM      2  C   UNL d   1      -7.068  -2.723 -18.420 -0.16 -0.03    +0.194    19.039
ATOM      3  C   UNL d   1      -5.982  -3.329 -19.310 -0.18 -0.04    +0.194    19.039
ATOM      4  C   UNL d   1      -6.219  -3.086 -20.799 -0.09 -0.06    +0.194    19.039
ATOM      5  C   UNL d   1      -7.638  -3.395 -21.259 -0.09 -0.09    +0.194    19.039
ATOM      6  C   UNL d   1      -8.724  -2.841 -20.335 -0.04 -0.06    +0.194    19.039
ATOM      7  O   UNL d   1      -9.424  -2.416 -18.095 -0.07 +0.08    -0.278    19.039
ATOM      8  P   UNL d   1     -10.557  -3.224 -17.312 -0.09 -0.20    +0.473    19.039
ATOM      9  O   UNL d   1     -10.057  -4.166 -16.273 -0.25 +0.08    -0.228    19.039
ATOM     10  O   UNL d   1     -11.507  -2.086 -16.723 -0.09 +0.28    -0.303    19.039
ATOM     11  H   UNL d   1     -11.624  -2.222 -15.764 -0.29 -0.45    +0.222    19.039
ATOM     12  O   UNL d   1     -11.468  -3.863 -18.446 -0.02 +0.09    -0.303    19.039
ATOM     13  H   UNL d   1     -10.985  -4.508 -19.011 +0.05 -0.07    +0.222    19.039
ATOM     14  O   UNL d   1      -6.975  -1.295 -18.494 -0.05 +0.04    -0.278    19.039
ATOM     15  P   UNL d   1      -6.605  -0.530 -17.136 -0.07 -0.05    +0.473    19.039
ATOM     16  O   UNL d   1      -7.715  -0.333 -16.152 -0.21 +0.05    -0.228    19.039
ATOM     17  O   UNL d   1      -5.391  -1.369 -16.537 -0.16 +0.02    -0.303    19.039
ATOM     18  H   UNL d   1      -4.716  -1.547 -17.220 +0.09 -0.01    +0.222    19.039
ATOM     19  O   UNL d   1      -5.871   0.797 -17.616 -0.03 +0.02    -0.303    19.039
ATOM     20  H   UNL d   1      -6.461   1.571 -17.574 +0.03 -0.01    +0.222    19.039
ATOM     21  O   UNL d   1      -9.942  -3.488 -20.695 -0.02 +0.10    -0.278    19.039
ATOM     22  P   UNL d   1     -10.007  -5.081 -20.744 -0.06 -0.36    +0.473    19.039
ATOM     23  O   UNL d   1      -9.369  -5.847 -19.634 -0.14 +0.23    -0.228    19.039
ATOM     24  O   UNL d   1     -11.568  -5.338 -20.920 -0.03 +0.13    -0.303    19.039
ATOM     25  H   UNL d   1     -12.055  -4.647 -20.402 +0.02 -0.06    +0.222    19.039
ATOM     26  O   UNL d   1      -9.454  -5.385 -22.217 -0.09 +0.37    -0.303    19.039
ATOM     27  H   UNL d   1      -8.479  -5.474 -22.183 -0.27 -0.42    +0.222    19.039
ATOM     28  O   UNL d   1      -4.761  -2.665 -19.009 -0.11 +0.04    -0.278    19.039
ATOM     29  P   UNL d   1      -3.604  -3.426 -18.222 -0.13 -0.09    +0.473    19.039
ATOM     30  O   UNL d   1      -2.281  -2.750 -18.218 -0.23 +0.03    -0.228    19.039
ATOM     31  O   UNL d   1      -4.320  -3.631 -16.805 -0.27 +0.03    -0.303    19.039
ATOM     32  H   UNL d   1      -4.138  -2.842 -16.244 +0.10 +0.00    +0.222    19.039
ATOM     33  O   UNL d   1      -3.667  -4.882 -18.862 -0.18 +0.12    -0.303    19.039
ATOM     34  H   UNL d   1      -4.038  -4.816 -19.775 -0.09 -0.10    +0.222    19.039
ATOM     35  O   UNL d   1      -7.786  -2.743 -22.519 -0.02 +0.09    -0.278    19.039
ATOM     36  P   UNL d   1      -7.239  -3.431 -23.850 -0.03 -0.19    +0.473    19.039
ATOM     37  O   UNL d   1      -8.186  -3.438 -25.008 -0.02 +0.07    -0.228    19.039
ATOM     38  O   UNL d   1      -5.895  -2.617 -24.109 -0.00 +0.06    -0.303    19.039
ATOM     39  H   UNL d   1      -5.128  -3.182 -23.875 +0.02 -0.05    +0.222    19.039
ATOM     40  O   UNL d   1      -6.736  -4.843 -23.321 +0.01 +0.34    -0.303    19.039
ATOM     41  H   UNL d   1      -7.480  -5.474 -23.201 -0.32 -0.50    +0.222    19.039
ATOM     42  O   UNL d   1      -5.345  -3.970 -21.508 -0.12 +0.12    -0.278    19.039
ATOM     43  P   UNL d   1      -4.005  -3.383 -22.144 -0.03 -0.11    +0.473    19.039
ATOM     44  O   UNL d   1      -3.956  -1.918 -22.412 -0.01 +0.02    -0.228    19.039
ATOM     45  O   UNL d   1      -2.885  -3.898 -21.137 -0.07 +0.07    -0.303    19.039
ATOM     46  H   UNL d   1      -2.946  -3.445 -20.272 +0.07 -0.04    +0.222    19.039
ATOM     47  O   UNL d   1      -3.759  -4.327 -23.416 -0.03 +0.08    -0.303    19.039
ATOM     48  H   UNL d   1      -4.613  -4.490 -23.867 +0.03 -0.08    +0.222    19.039
TER
ENDMDL
MODEL       58
USER    Run = 58
USER    Cluster Rank = 42
USER    Number of conformations in this cluster = 1
USER  
USER    RMSD from reference structure       = 11.326 A
USER  
USER    Estimated Free Energy of Binding    =   +2.76 kcal/mol  [=(1)+(2)+(3)-(4)]
USER    
USER    (1) Final Intermolecular Energy     =   -4.40 kcal/mol
USER        vdW + Hbond + desolv Energy     =   -4.26 kcal/mol
USER        Electrostatic Energy            =   -0.14 kcal/mol
USER    (2) Final Total Internal Energy     =  -14.06 kcal/mol
USER    (3) Torsional Free Energy           =   +7.16 kcal/mol
USER    (4) Unbound System's Energy  [=(2)] =  -14.06 kcal/mol
USER    
USER    
USER  
USER    DPF = D:/Protein_go_brrr/autodock/final/AncA/IHP/dock.dpf
USER    NEWDPF move	IHP_ideal_opt.pdbqt
USER    NEWDPF about	0.035000 0.082000 -0.065000
USER    NEWDPF tran0	-8.339167 11.395126 2.922758
USER    NEWDPF axisangle0	-0.718878 -0.693238 0.051345 142.824897
USER    NEWDPF quaternion0	-0.681379 -0.657077 0.048666 0.318753
USER    NEWDPF dihe0	-118.22 31.24 29.92 70.32 42.52 -167.19 -97.57 -46.02 159.36 123.01 -46.79 -176.51 -168.78 -179.93 130.88 70.41 44.87 3.54 46.39 -11.47 -18.65 150.93 -178.81 141.34 
USER  
USER                              x       y       z    vdW   Elec        q     RMS 
ATOM      1  C   UNL d   1      -8.718  12.025   1.359 -0.06 +0.01    +0.194    11.326
ATOM      2  C   UNL d   1      -9.757  11.076   1.959 -0.11 +0.02    +0.194    11.326
ATOM      3  C   UNL d   1      -9.102   9.860   2.617 -0.17 +0.04    +0.194    11.326
ATOM      4  C   UNL d   1      -8.013  10.233   3.621 -0.18 +0.06    +0.194    11.326
ATOM      5  C   UNL d   1      -7.019  11.265   3.103 -0.06 +0.04    +0.194    11.326
ATOM      6  C   UNL d   1      -7.673  12.451   2.391 -0.06 +0.02    +0.194    11.326
ATOM      7  O   UNL d   1      -9.393  13.207   0.922 -0.01 -0.01    -0.278    11.326
ATOM      8  P   UNL d   1     -10.237  13.142  -0.432 -0.01 -0.00    +0.473    11.326
ATOM      9  O   UNL d   1      -9.753  14.034  -1.521 -0.01 +0.00    -0.228    11.326
ATOM     10  O   UNL d   1     -10.215  11.597  -0.828 -0.08 +0.01    -0.303    11.326
ATOM     11  H   UNL d   1     -10.921  11.126  -0.347 +0.05 +0.00    +0.222    11.326
ATOM     12  O   UNL d   1     -11.748  13.350   0.014 -0.01 -0.00    -0.303    11.326
ATOM     13  H   UNL d   1     -11.881  13.252   0.984 +0.02 +0.01    +0.222    11.326
ATOM     14  O   UNL d   1     -10.514  11.780   2.952 -0.04 -0.02    -0.278    11.326
ATOM     15  P   UNL d   1     -12.093  11.885   2.708 -0.04 +0.02    +0.473    11.326
ATOM     16  O   UNL d   1     -12.681  13.261   2.694 -0.01 -0.01    -0.228    11.326
ATOM     17  O   UNL d   1     -12.327  11.099   1.342 -0.09 -0.01    -0.303    11.326
ATOM     18  H   UNL d   1     -11.901  11.561   0.594 +0.04 +0.01    +0.222    11.326
ATOM     19  O   UNL d   1     -12.725  10.879   3.767 -0.07 -0.01    -0.303    11.326
ATOM     20  H   UNL d   1     -12.062  10.570   4.411 +0.05 +0.01    +0.222    11.326
ATOM     21  O   UNL d   1      -6.637  13.127   1.682 -0.04 -0.01    -0.278    11.326
ATOM     22  P   UNL d   1      -6.332  14.661   1.997 -0.01 +0.01    +0.473    11.326
ATOM     23  O   UNL d   1      -5.011  15.217   1.583 -0.01 -0.00    -0.228    11.326
ATOM     24  O   UNL d   1      -7.593  15.384   1.349 -0.00 -0.01    -0.303    11.326
ATOM     25  H   UNL d   1      -7.964  14.788   0.649 +0.01 +0.00    +0.222    11.326
ATOM     26  O   UNL d   1      -6.670  14.745   3.562 -0.01 -0.02    -0.303    11.326
ATOM     27  H   UNL d   1      -6.666  13.842   3.941 +0.02 +0.02    +0.222    11.326
ATOM     28  O   UNL d   1     -10.102   9.193   3.376 -0.04 -0.03    -0.278    11.326
ATOM     29  P   UNL d   1     -10.215   9.434   4.946 -0.12 +0.12    +0.473    11.326
ATOM     30  O   UNL d   1     -10.112  10.849   5.386 -0.05 -0.05    -0.228    11.326
ATOM     31  O   UNL d   1     -11.594   8.679   5.246 -0.16 -0.03    -0.303    11.326
ATOM     32  H   UNL d   1     -12.253   8.946   4.564 +0.03 -0.00    +0.222    11.326
ATOM     33  O   UNL d   1      -9.128   8.422   5.519 -0.38 -0.22    -0.303    11.326
ATOM     34  H   UNL d   1      -8.562   8.103   4.774 +0.11 +0.18    +0.222    11.326
ATOM     35  O   UNL d   1      -6.360  11.781   4.258 -0.06 -0.07    -0.278    11.326
ATOM     36  P   UNL d   1      -7.207  12.250   5.526 -0.07 +0.14    +0.473    11.326
ATOM     37  O   UNL d   1      -7.488  11.190   6.542 -0.32 -0.17    -0.228    11.326
ATOM     38  O   UNL d   1      -6.332  13.464   6.071 -0.03 -0.05    -0.303    11.326
ATOM     39  H   UNL d   1      -6.626  14.293   5.636 +0.02 +0.03    +0.222    11.326
ATOM     40  O   UNL d   1      -8.463  12.956   4.853 -0.01 -0.05    -0.303    11.326
ATOM     41  H   UNL d   1      -9.141  12.302   4.571 +0.03 +0.04    +0.222    11.326
ATOM     42  O   UNL d   1      -7.275   9.038   3.895 -0.50 -0.16    -0.278    11.326
ATOM     43  P   UNL d   1      -7.150   7.930   2.754 -0.29 +0.16    +0.473    11.326
ATOM     44  O   UNL d   1      -6.731   8.384   1.399 -0.39 -0.02    -0.228    11.326
ATOM     45  O   UNL d   1      -6.173   6.860   3.412 -0.39 -0.14    -0.303    11.326
ATOM     46  H   UNL d   1      -5.358   6.747   2.884 -0.25 +0.05    +0.222    11.326
ATOM     47  O   UNL d   1      -8.560   7.171   2.825 -0.59 -0.12    -0.303    11.326
ATOM     48  H   UNL d   1      -9.124   7.600   3.501 +0.12 +0.09    +0.222    11.326
TER
ENDMDL
MODEL       14
USER    Run = 14
USER    Cluster Rank = 43
USER    Number of conformations in this cluster = 1
USER  
USER    RMSD from reference structure       = 17.462 A
USER  
USER    Estimated Free Energy of Binding    =   +2.76 kcal/mol  [=(1)+(2)+(3)-(4)]
USER    
USER    (1) Final Intermolecular Energy     =   -4.40 kcal/mol
USER        vdW + Hbond + desolv Energy     =   -4.25 kcal/mol
USER        Electrostatic Energy            =   -0.14 kcal/mol
USER    (2) Final Total Internal Energy     =  -12.46 kcal/mol
USER    (3) Torsional Free Energy           =   +7.16 kcal/mol
USER    (4) Unbound System's Energy  [=(2)] =  -12.46 kcal/mol
USER    
USER    
USER  
USER    DPF = D:/Protein_go_brrr/autodock/final/AncA/IHP/dock.dpf
USER    NEWDPF move	IHP_ideal_opt.pdbqt
USER    NEWDPF about	0.035000 0.082000 -0.065000
USER    NEWDPF tran0	-13.186517 -13.963626 -7.498470
USER    NEWDPF axisangle0	0.475105 0.026193 -0.879539 -124.429637
USER    NEWDPF quaternion0	0.420326 0.023173 -0.778130 -0.466158
USER    NEWDPF dihe0	122.64 76.00 110.76 124.75 81.01 131.39 -147.46 9.09 70.67 109.65 57.10 -22.66 -78.12 87.57 -95.58 -126.79 110.76 -95.50 31.47 -8.62 -22.51 -15.80 7.62 175.07 
USER  
USER                              x       y       z    vdW   Elec        q     RMS 
ATOM      1  C   UNL d   1     -14.614 -14.686  -8.150 -0.09 +0.03    +0.194    17.462
ATOM      2  C   UNL d   1     -14.715 -13.193  -7.831 -0.13 +0.02    +0.194    17.462
ATOM      3  C   UNL d   1     -14.069 -12.856  -6.486 -0.15 +0.02    +0.194    17.462
ATOM      4  C   UNL d   1     -12.640 -13.379  -6.357 -0.24 +0.03    +0.194    17.462
ATOM      5  C   UNL d   1     -12.472 -14.834  -6.775 -0.20 +0.03    +0.194    17.462
ATOM      6  C   UNL d   1     -13.170 -15.185  -8.091 -0.02 +0.01    +0.194    17.462
ATOM      7  O   UNL d   1     -15.080 -14.889  -9.487 -0.06 -0.06    -0.278    17.462
ATOM      8  P   UNL d   1     -16.628 -15.214  -9.710 +0.01 +0.12    +0.473    17.462
ATOM      9  O   UNL d   1     -17.307 -15.868  -8.558 -0.00 -0.04    -0.228    17.462
ATOM     10  O   UNL d   1     -17.267 -13.805 -10.098 -0.01 -0.08    -0.303    17.462
ATOM     11  H   UNL d   1     -16.818 -13.095  -9.603 +0.04 +0.05    +0.222    17.462
ATOM     12  O   UNL d   1     -16.690 -15.999 -11.089 -0.01 -0.10    -0.303    17.462
ATOM     13  H   UNL d   1     -15.882 -16.530 -11.268 +0.03 +0.08    +0.222    17.462
ATOM     14  O   UNL d   1     -14.046 -12.450  -8.858 -0.24 -0.01    -0.278    17.462
ATOM     15  P   UNL d   1     -14.917 -11.350  -9.629 -0.16 +0.05    +0.473    17.462
ATOM     16  O   UNL d   1     -14.217 -10.083 -10.010 -0.27 +0.02    -0.228    17.462
ATOM     17  O   UNL d   1     -15.504 -12.132 -10.886 -0.14 -0.11    -0.303    17.462
ATOM     18  H   UNL d   1     -15.411 -13.098 -10.775 +0.06 +0.09    +0.222    17.462
ATOM     19  O   UNL d   1     -16.217 -11.171  -8.729 -0.05 -0.03    -0.303    17.462
ATOM     20  H   UNL d   1     -16.001 -10.796  -7.855 +0.08 +0.01    +0.222    17.462
ATOM     21  O   UNL d   1     -13.216 -16.608  -8.165 -0.08 -0.05    -0.278    17.462
ATOM     22  P   UNL d   1     -12.608 -17.355  -9.437 -0.08 +0.11    +0.473    17.462
ATOM     23  O   UNL d   1     -13.261 -17.139 -10.761 -0.10 -0.07    -0.228    17.462
ATOM     24  O   UNL d   1     -11.078 -16.919  -9.369 -0.14 -0.09    -0.303    17.462
ATOM     25  H   UNL d   1     -10.905 -16.542  -8.469 -0.11 +0.06    +0.222    17.462
ATOM     26  O   UNL d   1     -12.543 -18.872  -8.924 -0.02 -0.09    -0.303    17.462
ATOM     27  H   UNL d   1     -12.210 -18.887  -8.004 +0.03 +0.07    +0.222    17.462
ATOM     28  O   UNL d   1     -13.962 -11.441  -6.404 -0.17 -0.00    -0.278    17.462
ATOM     29  P   UNL d   1     -15.092 -10.589  -5.674 -0.17 +0.01    +0.473    17.462
ATOM     30  O   UNL d   1     -15.251  -9.192  -6.152 -0.33 -0.01    -0.228    17.462
ATOM     31  O   UNL d   1     -16.344 -11.568  -5.862 -0.05 -0.02    -0.303    17.462
ATOM     32  H   UNL d   1     -16.851 -11.280  -6.657 +0.07 +0.02    +0.222    17.462
ATOM     33  O   UNL d   1     -14.719 -10.787  -4.139 -0.22 +0.02    -0.303    17.462
ATOM     34  H   UNL d   1     -13.866 -10.323  -3.953 -0.35 -0.07    +0.222    17.462
ATOM     35  O   UNL d   1     -11.072 -15.018  -6.981 -0.22 -0.06    -0.278    17.462
ATOM     36  P   UNL d   1     -10.351 -16.345  -6.468 -0.17 +0.20    +0.473    17.462
ATOM     37  O   UNL d   1      -9.098 -16.719  -7.193 -0.23 -0.15    -0.228    17.462
ATOM     38  O   UNL d   1     -10.142 -16.025  -4.922 -0.09 -0.15    -0.303    17.462
ATOM     39  H   UNL d   1     -10.512 -15.138  -4.724 +0.07 +0.09    +0.222    17.462
ATOM     40  O   UNL d   1     -11.538 -17.404  -6.483 -0.06 -0.10    -0.303    17.462
ATOM     41  H   UNL d   1     -11.831 -17.609  -7.398 +0.05 +0.07    +0.222    17.462
ATOM     42  O   UNL d   1     -12.292 -13.296  -4.971 -0.14 -0.06    -0.278    17.462
ATOM     43  P   UNL d   1     -13.099 -14.182  -3.919 -0.08 +0.09    +0.473    17.462
ATOM     44  O   UNL d   1     -14.587 -14.132  -3.977 -0.08 -0.03    -0.228    17.462
ATOM     45  O   UNL d   1     -12.487 -15.634  -4.143 -0.04 -0.08    -0.303    17.462
ATOM     46  H   UNL d   1     -11.995 -15.688  -4.986 +0.05 +0.06    +0.222    17.462
ATOM     47  O   UNL d   1     -12.447 -13.767  -2.514 -0.13 -0.05    -0.303    17.462
ATOM     48  H   UNL d   1     -13.088 -13.947  -1.795 +0.05 +0.01    +0.222    17.462
TER
ENDMDL
MODEL       83
USER    Run = 83
USER    Cluster Rank = 44
USER    Number of conformations in this cluster = 2
USER  
USER    RMSD from reference structure       = 18.869 A
USER  
USER    Estimated Free Energy of Binding    =   +2.81 kcal/mol  [=(1)+(2)+(3)-(4)]
USER    
USER    (1) Final Intermolecular Energy     =   -4.34 kcal/mol
USER        vdW + Hbond + desolv Energy     =   -4.28 kcal/mol
USER        Electrostatic Energy            =   -0.07 kcal/mol
USER    (2) Final Total Internal Energy     =  -15.50 kcal/mol
USER    (3) Torsional Free Energy           =   +7.16 kcal/mol
USER    (4) Unbound System's Energy  [=(2)] =  -15.50 kcal/mol
USER    
USER    
USER  
USER    DPF = D:/Protein_go_brrr/autodock/final/AncA/IHP/dock.dpf
USER    NEWDPF move	IHP_ideal_opt.pdbqt
USER    NEWDPF about	0.035000 0.082000 -0.065000
USER    NEWDPF tran0	12.950342 8.638324 -15.458877
USER    NEWDPF axisangle0	0.643572 0.290776 -0.708001 -102.634565
USER    NEWDPF quaternion0	0.502384 0.226985 -0.552679 -0.625007
USER    NEWDPF dihe0	-176.76 -45.00 114.72 102.86 84.17 159.97 -7.83 -101.46 126.01 -33.02 96.24 -121.66 -123.59 97.71 -106.69 -83.53 -122.09 103.15 40.60 -6.00 -12.29 10.76 -6.43 -2.33 
USER  
USER                              x       y       z    vdW   Elec        q     RMS 
ATOM      1  C   UNL d   1      12.278   7.466 -16.535 -0.12 +0.07    +0.194    18.869
ATOM      2  C   UNL d   1      11.282   8.461 -15.936 -0.19 +0.08    +0.194    18.869
ATOM      3  C   UNL d   1      11.537   8.688 -14.444 -0.20 +0.06    +0.194    18.869
ATOM      4  C   UNL d   1      12.984   9.060 -14.131 -0.17 +0.03    +0.194    18.869
ATOM      5  C   UNL d   1      14.015   8.162 -14.802 -0.16 +0.03    +0.194    18.869
ATOM      6  C   UNL d   1      13.726   7.885 -16.279 -0.13 +0.04    +0.194    18.869
ATOM      7  O   UNL d   1      12.085   7.441 -17.951 -0.08 -0.09    -0.278    18.869
ATOM      8  P   UNL d   1      10.906   6.539 -18.541 -0.09 +0.21    +0.473    18.869
ATOM      9  O   UNL d   1      11.142   5.071 -18.479 -0.12 -0.12    -0.228    18.869
ATOM     10  O   UNL d   1       9.618   7.003 -17.722 -0.12 -0.22    -0.303    18.869
ATOM     11  H   UNL d   1       9.744   7.917 -17.404 +0.04 +0.12    +0.222    18.869
ATOM     12  O   UNL d   1      10.614   7.134 -19.985 -0.01 -0.09    -0.303    18.869
ATOM     13  H   UNL d   1       9.931   7.842 -19.980 +0.02 +0.06    +0.222    18.869
ATOM     14  O   UNL d   1      11.409   9.715 -16.617 -0.03 -0.07    -0.278    18.869
ATOM     15  P   UNL d   1      10.069  10.325 -17.248 +0.00 +0.11    +0.473    18.869
ATOM     16  O   UNL d   1      10.013  11.813 -17.396 -0.00 -0.04    -0.228    18.869
ATOM     17  O   UNL d   1       9.912   9.560 -18.636 -0.00 -0.07    -0.303    18.869
ATOM     18  H   UNL d   1      10.440   8.739 -18.647 +0.03 +0.06    +0.222    18.869
ATOM     19  O   UNL d   1       8.896   9.676 -16.391 -0.04 -0.11    -0.303    18.869
ATOM     20  H   UNL d   1       9.104   9.674 -15.439 +0.05 +0.08    +0.222    18.869
ATOM     21  O   UNL d   1      14.553   6.787 -16.662 -0.10 -0.06    -0.278    18.869
ATOM     22  P   UNL d   1      15.709   7.005 -17.738 -0.06 +0.07    +0.473    18.869
ATOM     23  O   UNL d   1      15.324   7.107 -19.176 -0.02 -0.03    -0.228    18.869
ATOM     24  O   UNL d   1      16.460   8.282 -17.157 -0.02 -0.04    -0.303    18.869
ATOM     25  H   UNL d   1      16.207   8.381 -16.204 +0.03 +0.03    +0.222    18.869
ATOM     26  O   UNL d   1      16.728   5.824 -17.365 -0.06 -0.04    -0.303    18.869
ATOM     27  H   UNL d   1      16.493   5.463 -16.486 +0.03 +0.04    +0.222    18.869
ATOM     28  O   UNL d   1      10.763   9.812 -14.044 -0.11 -0.08    -0.278    18.869
ATOM     29  P   UNL d   1       9.677   9.671 -12.888 -0.18 +0.19    +0.473    18.869
ATOM     30  O   UNL d   1       8.260   9.750 -13.328 -0.19 -0.09    -0.228    18.869
ATOM     31  O   UNL d   1      10.155   8.297 -12.222 -0.32 -0.08    -0.303    18.869
ATOM     32  H   UNL d   1      11.136   8.314 -12.136 -0.37 -0.02    +0.222    18.869
ATOM     33  O   UNL d   1      10.165  10.761 -11.835 -0.12 -0.20    -0.303    18.869
ATOM     34  H   UNL d   1      11.149  10.711 -11.754 +0.07 +0.14    +0.222    18.869
ATOM     35  O   UNL d   1      15.248   8.876 -14.742 -0.07 -0.04    -0.278    18.869
ATOM     36  P   UNL d   1      16.531   8.211 -14.067 -0.08 +0.07    +0.473    18.869
ATOM     37  O   UNL d   1      16.547   8.213 -12.571 -0.18 -0.05    -0.228    18.869
ATOM     38  O   UNL d   1      16.527   6.758 -14.720 -0.10 -0.05    -0.303    18.869
ATOM     39  H   UNL d   1      16.536   6.845 -15.697 +0.04 +0.03    +0.222    18.869
ATOM     40  O   UNL d   1      17.727   8.958 -14.802 -0.01 -0.04    -0.303    18.869
ATOM     41  H   UNL d   1      17.848   8.634 -15.723 +0.02 +0.03    +0.222    18.869
ATOM     42  O   UNL d   1      13.153   8.912 -12.717 -0.13 +0.01    -0.278    18.869
ATOM     43  P   UNL d   1      13.424  10.211 -11.832 -0.16 +0.09    +0.473    18.869
ATOM     44  O   UNL d   1      12.915  10.206 -10.432 -0.84 -0.08    -0.228    18.869
ATOM     45  O   UNL d   1      15.001  10.391 -11.951 -0.09 -0.05    -0.303    18.869
ATOM     46  H   UNL d   1      15.351   9.962 -12.756 +0.06 +0.03    +0.222    18.869
ATOM     47  O   UNL d   1      12.889  11.404 -12.759 -0.03 -0.08    -0.303    18.869
ATOM     48  H   UNL d   1      11.948  11.243 -12.980 +0.06 +0.07    +0.222    18.869
TER
ENDMDL
MODEL       47
USER    Run = 47
USER    Cluster Rank = 45
USER    Number of conformations in this cluster = 1
USER  
USER    RMSD from reference structure       = 14.215 A
USER  
USER    Estimated Free Energy of Binding    =   +2.84 kcal/mol  [=(1)+(2)+(3)-(4)]
USER    
USER    (1) Final Intermolecular Energy     =   -4.32 kcal/mol
USER        vdW + Hbond + desolv Energy     =   -4.21 kcal/mol
USER        Electrostatic Energy            =   -0.11 kcal/mol
USER    (2) Final Total Internal Energy     =  -13.58 kcal/mol
USER    (3) Torsional Free Energy           =   +7.16 kcal/mol
USER    (4) Unbound System's Energy  [=(2)] =  -13.58 kcal/mol
USER    
USER    
USER  
USER    DPF = D:/Protein_go_brrr/autodock/final/AncA/IHP/dock.dpf
USER    NEWDPF move	IHP_ideal_opt.pdbqt
USER    NEWDPF about	0.035000 0.082000 -0.065000
USER    NEWDPF tran0	-11.121430 4.346120 12.249774
USER    NEWDPF axisangle0	-0.540504 0.477305 -0.692846 -173.615767
USER    NEWDPF quaternion0	-0.539665 0.476564 -0.691771 -0.055684
USER    NEWDPF dihe0	118.68 62.70 9.10 11.93 -14.08 -145.45 47.77 -87.00 135.82 -9.88 -127.13 -70.37 -49.57 169.39 -58.77 95.01 -177.69 -28.33 54.98 -9.94 -170.44 -22.32 19.11 153.02 
USER  
USER                              x       y       z    vdW   Elec        q     RMS 
ATOM      1  C   UNL d   1     -10.616   3.610  13.729 -0.01 +0.01    +0.194    14.215
ATOM      2  C   UNL d   1     -10.046   5.003  13.455 -0.00 +0.01    +0.194    14.215
ATOM      3  C   UNL d   1      -9.602   5.158  11.999 -0.03 +0.01    +0.194    14.215
ATOM      4  C   UNL d   1     -10.685   4.770  10.995 -0.05 +0.02    +0.194    14.215
ATOM      5  C   UNL d   1     -11.361   3.438  11.296 -0.08 +0.02    +0.194    14.215
ATOM      6  C   UNL d   1     -11.750   3.259  12.765 -0.03 +0.02    +0.194    14.215
ATOM      7  O   UNL d   1     -11.162   3.603  15.050 -0.00 -0.01    -0.278    14.215
ATOM      8  P   UNL d   1     -10.159   3.736  16.286 +0.00 +0.02    +0.473    14.215
ATOM      9  O   UNL d   1      -8.726   3.904  15.921 -0.00 -0.00    -0.228    14.215
ATOM     10  O   UNL d   1     -10.741   4.960  17.127 +0.00 -0.01    -0.303    14.215
ATOM     11  H   UNL d   1     -11.057   5.654  16.518 +0.00 +0.01    +0.222    14.215
ATOM     12  O   UNL d   1     -10.495   2.499  17.225 +0.00 -0.01    -0.303    14.215
ATOM     13  H   UNL d   1     -11.003   1.793  16.765 +0.01 +0.01    +0.222    14.215
ATOM     14  O   UNL d   1     -11.055   5.983  13.731 +0.00 -0.02    -0.278    14.215
ATOM     15  P   UNL d   1     -10.696   7.089  14.832 +0.00 +0.02    +0.473    14.215
ATOM     16  O   UNL d   1     -11.753   7.394  15.847 +0.00 -0.01    -0.228    14.215
ATOM     17  O   UNL d   1      -9.345   6.558  15.489 +0.00 -0.01    -0.303    14.215
ATOM     18  H   UNL d   1      -9.529   5.939  16.220 +0.00 +0.01    +0.222    14.215
ATOM     19  O   UNL d   1     -10.175   8.333  13.990 +0.00 -0.02    -0.303    14.215
ATOM     20  H   UNL d   1      -9.520   8.066  13.319 +0.01 +0.02    +0.222    14.215
ATOM     21  O   UNL d   1     -12.041   1.875  12.948 -0.07 -0.03    -0.278    14.215
ATOM     22  P   UNL d   1     -10.864   0.859  13.306 -0.14 +0.08    +0.473    14.215
ATOM     23  O   UNL d   1      -9.487   1.179  12.828 -0.10 -0.04    -0.228    14.215
ATOM     24  O   UNL d   1     -11.010   0.736  14.886 -0.05 -0.03    -0.303    14.215
ATOM     25  H   UNL d   1     -10.579   1.527  15.298 +0.03 +0.01    +0.222    14.215
ATOM     26  O   UNL d   1     -11.475  -0.536  12.807 -0.64 -0.10    -0.303    14.215
ATOM     27  H   UNL d   1     -11.942  -0.398  11.958 +0.08 +0.11    +0.222    14.215
ATOM     28  O   UNL d   1      -9.354   6.539  11.771 -0.02 -0.03    -0.278    14.215
ATOM     29  P   UNL d   1      -7.915   7.157  12.062 -0.05 +0.03    +0.473    14.215
ATOM     30  O   UNL d   1      -6.832   6.718  11.144 -0.18 +0.01    -0.228    14.215
ATOM     31  O   UNL d   1      -8.276   8.716  12.067 -0.02 -0.05    -0.303    14.215
ATOM     32  H   UNL d   1      -8.365   9.014  13.001 +0.02 +0.02    +0.222    14.215
ATOM     33  O   UNL d   1      -7.720   6.836  13.609 -0.00 +0.00    -0.303    14.215
ATOM     34  H   UNL d   1      -8.607   6.791  14.042 +0.02 +0.00    +0.222    14.215
ATOM     35  O   UNL d   1     -12.570   3.439  10.539 -0.06 -0.04    -0.278    14.215
ATOM     36  P   UNL d   1     -13.182   2.068   9.999 -0.14 +0.08    +0.473    14.215
ATOM     37  O   UNL d   1     -13.611   2.074   8.566 -0.24 -0.03    -0.228    14.215
ATOM     38  O   UNL d   1     -12.012   1.038  10.327 -0.81 -0.13    -0.303    14.215
ATOM     39  H   UNL d   1     -11.911   0.966  11.301 +0.07 +0.09    +0.222    14.215
ATOM     40  O   UNL d   1     -14.296   1.741  11.086 -0.08 -0.04    -0.303    14.215
ATOM     41  H   UNL d   1     -13.935   1.775  11.999 +0.05 +0.03    +0.222    14.215
ATOM     42  O   UNL d   1     -10.043   4.638   9.723 -0.12 -0.04    -0.278    14.215
ATOM     43  P   UNL d   1      -8.625   3.912   9.646 -0.23 +0.05    +0.473    14.215
ATOM     44  O   UNL d   1      -8.222   3.068  10.805 -0.23 -0.01    -0.228    14.215
ATOM     45  O   UNL d   1      -8.710   3.125   8.265 -0.42 -0.04    -0.303    14.215
ATOM     46  H   UNL d   1      -7.821   2.894   7.930 -0.41 -0.01    +0.222    14.215
ATOM     47  O   UNL d   1      -7.621   5.107   9.278 -0.23 -0.06    -0.303    14.215
ATOM     48  H   UNL d   1      -7.067   5.314  10.058 -0.06 -0.05    +0.222    14.215
TER
ENDMDL
MODEL       70
USER    Run = 70
USER    Cluster Rank = 46
USER    Number of conformations in this cluster = 1
USER  
USER    RMSD from reference structure       = 14.008 A
USER  
USER    Estimated Free Energy of Binding    =   +2.88 kcal/mol  [=(1)+(2)+(3)-(4)]
USER    
USER    (1) Final Intermolecular Energy     =   -4.28 kcal/mol
USER        vdW + Hbond + desolv Energy     =   -3.94 kcal/mol
USER        Electrostatic Energy            =   -0.34 kcal/mol
USER    (2) Final Total Internal Energy     =  -14.07 kcal/mol
USER    (3) Torsional Free Energy           =   +7.16 kcal/mol
USER    (4) Unbound System's Energy  [=(2)] =  -14.07 kcal/mol
USER    
USER    
USER  
USER    DPF = D:/Protein_go_brrr/autodock/final/AncA/IHP/dock.dpf
USER    NEWDPF move	IHP_ideal_opt.pdbqt
USER    NEWDPF about	0.035000 0.082000 -0.065000
USER    NEWDPF tran0	16.137748 -7.247675 -0.167564
USER    NEWDPF axisangle0	0.706509 -0.043794 0.706347 175.536098
USER    NEWDPF quaternion0	0.705973 -0.043761 0.705812 0.038945
USER    NEWDPF dihe0	83.55 54.28 58.11 81.32 25.55 -171.64 7.00 -68.49 58.04 86.24 -18.26 -129.45 -22.26 148.35 9.14 -110.32 143.95 -32.32 32.92 -13.75 -23.00 -0.87 -2.69 164.12 
USER  
USER                              x       y       z    vdW   Elec        q     RMS 
ATOM      1  C   UNL d   1      16.935  -6.517   1.180 -0.08 +0.06    +0.194    14.008
ATOM      2  C   UNL d   1      16.571  -5.571   0.035 -0.16 +0.08    +0.194    14.008
ATOM      3  C   UNL d   1      16.882  -6.188  -1.331 -0.17 +0.07    +0.194    14.008
ATOM      4  C   UNL d   1      16.276  -7.577  -1.515 -0.14 +0.05    +0.194    14.008
ATOM      5  C   UNL d   1      16.516  -8.519  -0.343 -0.11 +0.06    +0.194    14.008
ATOM      6  C   UNL d   1      16.264  -7.883   1.025 -0.10 +0.07    +0.194    14.008
ATOM      7  O   UNL d   1      16.458  -5.945   2.400 -0.04 -0.09    -0.278    14.008
ATOM      8  P   UNL d   1      17.427  -4.964   3.208 +0.00 +0.14    +0.473    14.008
ATOM      9  O   UNL d   1      18.398  -4.207   2.372 -0.02 -0.09    -0.228    14.008
ATOM     10  O   UNL d   1      16.431  -4.022   4.023 -0.02 -0.08    -0.303    14.008
ATOM     11  H   UNL d   1      16.019  -3.379   3.416 +0.07 +0.07    +0.222    14.008
ATOM     12  O   UNL d   1      18.055  -5.861   4.360 -0.00 -0.06    -0.303    14.008
ATOM     13  H   UNL d   1      17.849  -6.817   4.259 +0.01 +0.05    +0.222    14.008
ATOM     14  O   UNL d   1      15.169  -5.280   0.096 -0.20 -0.12    -0.278    14.008
ATOM     15  P   UNL d   1      14.765  -3.749   0.334 -0.27 +0.22    +0.473    14.008
ATOM     16  O   UNL d   1      13.419  -3.495   0.935 -0.33 -0.07    -0.228    14.008
ATOM     17  O   UNL d   1      15.956  -3.167   1.217 -0.16 -0.18    -0.303    14.008
ATOM     18  H   UNL d   1      16.268  -3.827   1.865 +0.07 +0.10    +0.222    14.008
ATOM     19  O   UNL d   1      15.034  -3.046  -1.068 -0.17 -0.20    -0.303    14.008
ATOM     20  H   UNL d   1      15.038  -3.690  -1.800 -0.32 +0.10    +0.222    14.008
ATOM     21  O   UNL d   1      16.849  -8.748   1.996 -0.04 -0.08    -0.278    14.008
ATOM     22  P   UNL d   1      15.962  -9.299   3.203 -0.04 +0.17    +0.473    14.008
ATOM     23  O   UNL d   1      14.552  -9.692   2.918 -0.09 -0.15    -0.228    14.008
ATOM     24  O   UNL d   1      16.879 -10.468   3.773 -0.00 -0.07    -0.303    14.008
ATOM     25  H   UNL d   1      17.279 -10.949   3.005 +0.01 +0.05    +0.222    14.008
ATOM     26  O   UNL d   1      16.164  -8.152   4.305 -0.01 -0.08    -0.303    14.008
ATOM     27  H   UNL d   1      16.555  -7.362   3.879 +0.02 +0.06    +0.222    14.008
ATOM     28  O   UNL d   1      16.266  -5.372  -2.319 -0.19 -0.09    -0.278    14.008
ATOM     29  P   UNL d   1      17.155  -4.476  -3.290 -0.09 +0.31    +0.473    14.008
ATOM     30  O   UNL d   1      16.664  -3.091  -3.511 -0.54 -0.34    -0.228    14.008
ATOM     31  O   UNL d   1      18.584  -4.637  -2.589 -0.08 -0.23    -0.303    14.008
ATOM     32  H   UNL d   1      18.816  -5.594  -2.566 +0.04 +0.10    +0.222    14.008
ATOM     33  O   UNL d   1      17.286  -5.406  -4.576 -0.04 -0.03    -0.303    14.008
ATOM     34  H   UNL d   1      16.930  -6.302  -4.362 -0.41 -0.04    +0.222    14.008
ATOM     35  O   UNL d   1      15.570  -9.575  -0.496 -0.12 -0.10    -0.278    14.008
ATOM     36  P   UNL d   1      16.051 -11.096  -0.476 -0.04 +0.12    +0.473    14.008
ATOM     37  O   UNL d   1      15.009 -12.107  -0.836 -0.07 -0.05    -0.228    14.008
ATOM     38  O   UNL d   1      17.296 -11.057  -1.468 -0.01 -0.05    -0.303    14.008
ATOM     39  H   UNL d   1      17.299 -10.200  -1.946 +0.04 +0.03    +0.222    14.008
ATOM     40  O   UNL d   1      16.713 -11.224   0.965 -0.02 -0.08    -0.303    14.008
ATOM     41  H   UNL d   1      16.157 -10.807   1.660 +0.02 +0.08    +0.222    14.008
ATOM     42  O   UNL d   1      16.910  -8.157  -2.660 -0.14 -0.03    -0.278    14.008
ATOM     43  P   UNL d   1      18.503  -8.207  -2.716 -0.01 +0.08    +0.473    14.008
ATOM     44  O   UNL d   1      19.244  -7.929  -1.454 -0.01 -0.05    -0.228    14.008
ATOM     45  O   UNL d   1      18.786  -9.646  -3.333 -0.01 -0.04    -0.303    14.008
ATOM     46  H   UNL d   1      18.888 -10.322  -2.633 +0.02 +0.03    +0.222    14.008
ATOM     47  O   UNL d   1      18.857  -7.248  -3.951 -0.02 -0.05    -0.303    14.008
ATOM     48  H   UNL d   1      18.375  -6.401  -3.849 +0.04 +0.05    +0.222    14.008
TER
ENDMDL
MODEL       97
USER    Run = 97
USER    Cluster Rank = 47
USER    Number of conformations in this cluster = 1
USER  
USER    RMSD from reference structure       = 17.486 A
USER  
USER    Estimated Free Energy of Binding    =   +2.90 kcal/mol  [=(1)+(2)+(3)-(4)]
USER    
USER    (1) Final Intermolecular Energy     =   -4.26 kcal/mol
USER        vdW + Hbond + desolv Energy     =   -3.78 kcal/mol
USER        Electrostatic Energy            =   -0.48 kcal/mol
USER    (2) Final Total Internal Energy     =  -12.26 kcal/mol
USER    (3) Torsional Free Energy           =   +7.16 kcal/mol
USER    (4) Unbound System's Energy  [=(2)] =  -12.26 kcal/mol
USER    
USER    
USER  
USER    DPF = D:/Protein_go_brrr/autodock/final/AncA/IHP/dock.dpf
USER    NEWDPF move	IHP_ideal_opt.pdbqt
USER    NEWDPF about	0.035000 0.082000 -0.065000
USER    NEWDPF tran0	-19.671380 0.905891 8.798576
USER    NEWDPF axisangle0	-0.484654 0.477986 0.732557 -63.266972
USER    NEWDPF quaternion0	-0.254193 0.250696 0.384214 -0.851421
USER    NEWDPF dihe0	138.11 100.65 99.00 -179.93 41.98 -57.77 119.45 25.35 22.27 119.52 -6.71 -57.00 -94.37 84.35 -65.90 24.33 4.46 -134.35 -138.94 -14.51 -170.38 -41.02 148.92 -61.61 
USER  
USER                              x       y       z    vdW   Elec        q     RMS 
ATOM      1  C   UNL d   1     -18.068   1.550   8.822 -0.03 +0.05    +0.194    17.486
ATOM      2  C   UNL d   1     -18.248   0.199   9.516 -0.03 +0.02    +0.194    17.486
ATOM      3  C   UNL d   1     -19.520   0.163  10.366 +0.00 +0.01    +0.194    17.486
ATOM      4  C   UNL d   1     -20.769   0.587   9.597 +0.01 +0.03    +0.194    17.486
ATOM      5  C   UNL d   1     -20.598   1.872   8.795 +0.00 +0.04    +0.194    17.486
ATOM      6  C   UNL d   1     -19.296   1.933   7.994 -0.03 +0.07    +0.194    17.486
ATOM      7  O   UNL d   1     -16.963   1.445   7.921 -0.08 -0.09    -0.278    17.486
ATOM      8  P   UNL d   1     -17.267   1.182   6.375 -0.13 +0.44    +0.473    17.486
ATOM      9  O   UNL d   1     -18.324   0.171   6.102 -0.39 -0.32    -0.228    17.486
ATOM     10  O   UNL d   1     -17.617   2.628   5.798 -0.52 -0.35    -0.303    17.486
ATOM     11  H   UNL d   1     -17.866   3.220   6.531 +0.06 +0.14    +0.222    17.486
ATOM     12  O   UNL d   1     -15.848   0.897   5.718 -0.36 -0.21    -0.303    17.486
ATOM     13  H   UNL d   1     -15.361   0.162   6.156 +0.15 +0.09    +0.222    17.486
ATOM     14  O   UNL d   1     -18.334  -0.830   8.522 -0.06 -0.04    -0.278    17.486
ATOM     15  P   UNL d   1     -17.178  -1.938   8.537 -0.19 -0.03    +0.473    17.486
ATOM     16  O   UNL d   1     -17.599  -3.352   8.285 -0.81 +0.00    -0.228    17.486
ATOM     17  O   UNL d   1     -16.121  -1.409   7.469 -0.15 -0.06    -0.303    17.486
ATOM     18  H   UNL d   1     -16.389  -0.542   7.109 +0.12 +0.08    +0.222    17.486
ATOM     19  O   UNL d   1     -16.404  -1.686   9.904 -0.26 +0.14    -0.303    17.486
ATOM     20  H   UNL d   1     -16.426  -2.472  10.481 -0.45 -0.30    +0.222    17.486
ATOM     21  O   UNL d   1     -19.123   3.290   7.593 -0.03 -0.11    -0.278    17.486
ATOM     22  P   UNL d   1     -18.379   4.314   8.564 -0.02 +0.10    +0.473    17.486
ATOM     23  O   UNL d   1     -18.588   4.170  10.034 -0.01 -0.03    -0.228    17.486
ATOM     24  O   UNL d   1     -16.867   4.175   8.088 -0.07 -0.07    -0.303    17.486
ATOM     25  H   UNL d   1     -16.758   3.286   7.663 +0.06 +0.07    +0.222    17.486
ATOM     26  O   UNL d   1     -18.797   5.726   7.930 -0.03 -0.06    -0.303    17.486
ATOM     27  H   UNL d   1     -19.165   6.299   8.634 +0.01 +0.03    +0.222    17.486
ATOM     28  O   UNL d   1     -19.748  -1.190  10.739 -0.01 +0.01    -0.278    17.486
ATOM     29  P   UNL d   1     -18.779  -1.913  11.775 -0.03 -0.12    +0.473    17.486
ATOM     30  O   UNL d   1     -17.640  -1.095  12.265 -0.07 +0.05    -0.228    17.486
ATOM     31  O   UNL d   1     -19.846  -2.399  12.864 -0.01 +0.04    -0.303    17.486
ATOM     32  H   UNL d   1     -19.392  -2.995  13.504 +0.03 -0.05    +0.222    17.486
ATOM     33  O   UNL d   1     -18.418  -3.262  11.009 -0.14 +0.20    -0.303    17.486
ATOM     34  H   UNL d   1     -17.665  -3.090  10.392 -0.28 -0.24    +0.222    17.486
ATOM     35  O   UNL d   1     -21.671   1.887   7.855 +0.00 -0.08    -0.278    17.486
ATOM     36  P   UNL d   1     -21.574   1.035   6.511 -0.02 +0.24    +0.473    17.486
ATOM     37  O   UNL d   1     -21.155  -0.391   6.680 -0.03 -0.11    -0.228    17.486
ATOM     38  O   UNL d   1     -23.034   1.220   5.902 +0.00 -0.10    -0.303    17.486
ATOM     39  H   UNL d   1     -23.699   1.054   6.604 +0.00 +0.05    +0.222    17.486
ATOM     40  O   UNL d   1     -20.656   1.953   5.592 -0.04 -0.31    -0.303    17.486
ATOM     41  H   UNL d   1     -19.707   1.879   5.836 +0.04 +0.29    +0.222    17.486
ATOM     42  O   UNL d   1     -21.792   0.830  10.568 +0.00 -0.02    -0.278    17.486
ATOM     43  P   UNL d   1     -23.278   1.122  10.067 +0.00 +0.05    +0.473    17.486
ATOM     44  O   UNL d   1     -23.640   2.539   9.780 +0.00 -0.02    -0.228    17.486
ATOM     45  O   UNL d   1     -23.423   0.148   8.818 +0.00 -0.04    -0.303    17.486
ATOM     46  H   UNL d   1     -22.996   0.521   8.021 +0.00 +0.04    +0.222    17.486
ATOM     47  O   UNL d   1     -24.186   0.385  11.163 +0.00 -0.02    -0.303    17.486
ATOM     48  H   UNL d   1     -24.788   1.038  11.576 +0.00 +0.01    +0.222    17.486
TER
ENDMDL
MODEL       17
USER    Run = 17
USER    Cluster Rank = 48
USER    Number of conformations in this cluster = 3
USER  
USER    RMSD from reference structure       = 15.672 A
USER  
USER    Estimated Free Energy of Binding    =   +2.90 kcal/mol  [=(1)+(2)+(3)-(4)]
USER    
USER    (1) Final Intermolecular Energy     =   -4.26 kcal/mol
USER        vdW + Hbond + desolv Energy     =   -4.04 kcal/mol
USER        Electrostatic Energy            =   -0.23 kcal/mol
USER    (2) Final Total Internal Energy     =  -12.78 kcal/mol
USER    (3) Torsional Free Energy           =   +7.16 kcal/mol
USER    (4) Unbound System's Energy  [=(2)] =  -12.78 kcal/mol
USER    
USER    
USER  
USER    DPF = D:/Protein_go_brrr/autodock/final/AncA/IHP/dock.dpf
USER    NEWDPF move	IHP_ideal_opt.pdbqt
USER    NEWDPF about	0.035000 0.082000 -0.065000
USER    NEWDPF tran0	-16.997042 10.032077 3.121653
USER    NEWDPF axisangle0	-0.728761 0.476986 0.491317 -138.319909
USER    NEWDPF quaternion0	-0.681083 0.445780 0.459173 -0.355760
USER    NEWDPF dihe0	-111.83 36.74 30.65 -167.69 98.07 -148.43 -53.41 -95.35 -4.43 31.38 -80.30 -180.00 27.01 -88.03 111.38 96.94 168.02 3.22 -6.25 -5.98 -11.92 -20.75 178.51 166.15 
USER  
USER                              x       y       z    vdW   Elec        q     RMS 
ATOM      1  C   UNL d   1     -16.185  10.698   1.750 -0.09 +0.00    +0.194    15.672
ATOM      2  C   UNL d   1     -15.546  10.999   3.107 -0.07 +0.01    +0.194    15.672
ATOM      3  C   UNL d   1     -16.595  11.373   4.157 -0.03 +0.01    +0.194    15.672
ATOM      4  C   UNL d   1     -17.727  10.354   4.265 -0.04 +0.01    +0.194    15.672
ATOM      5  C   UNL d   1     -18.317   9.938   2.924 -0.05 +0.01    +0.194    15.672
ATOM      6  C   UNL d   1     -17.268   9.624   1.856 -0.13 -0.00    +0.194    15.672
ATOM      7  O   UNL d   1     -15.168  10.194   0.880 -0.17 +0.01    -0.278    15.672
ATOM      8  P   UNL d   1     -14.999  10.866  -0.559 -0.10 -0.02    +0.473    15.672
ATOM      9  O   UNL d   1     -14.270  12.164  -0.567 -0.05 -0.00    -0.228    15.672
ATOM     10  O   UNL d   1     -14.283   9.738  -1.431 -0.08 +0.06    -0.303    15.672
ATOM     11  H   UNL d   1     -14.958   9.182  -1.863 -0.50 -0.08    +0.222    15.672
ATOM     12  O   UNL d   1     -16.462  10.888  -1.179 -0.04 +0.01    -0.303    15.672
ATOM     13  H   UNL d   1     -17.116  10.387  -0.642 +0.05 -0.00    +0.222    15.672
ATOM     14  O   UNL d   1     -14.841   9.836   3.560 -0.15 -0.00    -0.278    15.672
ATOM     15  P   UNL d   1     -13.299  10.037   3.940 -0.14 +0.01    +0.473    15.672
ATOM     16  O   UNL d   1     -12.542  11.064   3.158 -0.09 -0.01    -0.228    15.672
ATOM     17  O   UNL d   1     -13.322  10.346   5.503 -0.05 -0.02    -0.303    15.672
ATOM     18  H   UNL d   1     -13.775  11.191   5.688 +0.03 +0.02    +0.222    15.672
ATOM     19  O   UNL d   1     -12.689   8.568   3.914 -0.20 +0.05    -0.303    15.672
ATOM     20  H   UNL d   1     -11.852   8.535   3.415 -0.46 -0.12    +0.222    15.672
ATOM     21  O   UNL d   1     -17.950   9.593   0.604 -0.06 +0.00    -0.278    15.672
ATOM     22  P   UNL d   1     -18.057   8.223  -0.206 -0.13 -0.00    +0.473    15.672
ATOM     23  O   UNL d   1     -19.332   7.924  -0.921 -0.11 -0.02    -0.228    15.672
ATOM     24  O   UNL d   1     -16.770   8.296  -1.140 -0.14 +0.06    -0.303    15.672
ATOM     25  H   UNL d   1     -16.063   8.790  -0.652 -0.33 -0.07    +0.222    15.672
ATOM     26  O   UNL d   1     -17.603   7.154   0.899 -0.15 +0.04    -0.303    15.672
ATOM     27  H   UNL d   1     -17.954   7.426   1.772 -0.09 -0.02    +0.222    15.672
ATOM     28  O   UNL d   1     -15.954  11.361   5.426 -0.02 -0.02    -0.278    15.672
ATOM     29  P   UNL d   1     -15.266  12.681   5.992 -0.00 +0.03    +0.473    15.672
ATOM     30  O   UNL d   1     -16.198  13.759   6.413 -0.00 -0.01    -0.228    15.672
ATOM     31  O   UNL d   1     -14.332  12.045   7.125 -0.00 -0.02    -0.303    15.672
ATOM     32  H   UNL d   1     -14.482  11.072   7.147 +0.02 +0.02    +0.222    15.672
ATOM     33  O   UNL d   1     -14.228  13.038   4.839 -0.00 -0.02    -0.303    15.672
ATOM     34  H   UNL d   1     -13.861  12.199   4.466 +0.02 +0.01    +0.222    15.672
ATOM     35  O   UNL d   1     -19.035   8.731   3.175 -0.04 -0.02    -0.278    15.672
ATOM     36  P   UNL d   1     -18.333   7.522   3.943 -0.10 +0.04    +0.473    15.672
ATOM     37  O   UNL d   1     -18.777   6.154   3.534 -0.18 -0.05    -0.228    15.672
ATOM     38  O   UNL d   1     -16.791   7.817   3.674 -0.08 +0.02    -0.303    15.672
ATOM     39  H   UNL d   1     -16.577   7.585   2.745 -0.24 -0.09    +0.222    15.672
ATOM     40  O   UNL d   1     -18.539   7.922   5.468 -0.05 -0.04    -0.303    15.672
ATOM     41  H   UNL d   1     -18.876   8.841   5.561 +0.02 +0.02    +0.222    15.672
ATOM     42  O   UNL d   1     -18.776  10.978   5.012 -0.01 -0.02    -0.278    15.672
ATOM     43  P   UNL d   1     -19.353  12.378   4.509 -0.00 +0.02    +0.473    15.672
ATOM     44  O   UNL d   1     -19.725  12.492   3.071 -0.00 -0.01    -0.228    15.672
ATOM     45  O   UNL d   1     -20.557  12.641   5.516 +0.00 -0.02    -0.303    15.672
ATOM     46  H   UNL d   1     -21.245  13.207   5.111 +0.00 +0.01    +0.222    15.672
ATOM     47  O   UNL d   1     -18.260  13.431   5.026 -0.00 -0.01    -0.303    15.672
ATOM     48  H   UNL d   1     -17.557  12.954   5.514 +0.00 +0.01    +0.222    15.672
TER
ENDMDL
MODEL       91
USER    Run = 91
USER    Cluster Rank = 49
USER    Number of conformations in this cluster = 1
USER  
USER    RMSD from reference structure       = 13.934 A
USER  
USER    Estimated Free Energy of Binding    =   +2.91 kcal/mol  [=(1)+(2)+(3)-(4)]
USER    
USER    (1) Final Intermolecular Energy     =   -4.25 kcal/mol
USER        vdW + Hbond + desolv Energy     =   -4.06 kcal/mol
USER        Electrostatic Energy            =   -0.19 kcal/mol
USER    (2) Final Total Internal Energy     =  -10.68 kcal/mol
USER    (3) Torsional Free Energy           =   +7.16 kcal/mol
USER    (4) Unbound System's Energy  [=(2)] =  -10.68 kcal/mol
USER    
USER    
USER  
USER    DPF = D:/Protein_go_brrr/autodock/final/AncA/IHP/dock.dpf
USER    NEWDPF move	IHP_ideal_opt.pdbqt
USER    NEWDPF about	0.035000 0.082000 -0.065000
USER    NEWDPF tran0	-11.109215 3.459231 12.320360
USER    NEWDPF axisangle0	0.263721 0.361501 0.894298 175.371068
USER    NEWDPF quaternion0	0.263506 0.361206 0.893568 0.040384
USER    NEWDPF dihe0	-130.35 149.76 16.82 32.25 -32.08 175.45 -29.38 97.12 9.01 177.55 130.86 -65.50 70.44 -179.94 174.75 -38.79 -109.86 -125.93 60.66 -6.34 -175.77 137.69 137.24 143.37 
USER  
USER                              x       y       z    vdW   Elec        q     RMS 
ATOM      1  C   UNL d   1     -12.068   4.788  12.867 -0.01 +0.01    +0.194    13.934
ATOM      2  C   UNL d   1     -11.371   4.986  11.520 -0.02 +0.02    +0.194    13.934
ATOM      3  C   UNL d   1      -9.928   4.479  11.548 -0.05 +0.02    +0.194    13.934
ATOM      4  C   UNL d   1      -9.805   3.044  12.056 -0.09 +0.02    +0.194    13.934
ATOM      5  C   UNL d   1     -10.580   2.772  13.339 -0.05 +0.02    +0.194    13.934
ATOM      6  C   UNL d   1     -12.003   3.333  13.335 -0.02 +0.01    +0.194    13.934
ATOM      7  O   UNL d   1     -13.448   5.124  12.709 -0.00 -0.02    -0.278    13.934
ATOM      8  P   UNL d   1     -13.823   6.619  12.290 -0.00 +0.04    +0.473    13.934
ATOM      9  O   UNL d   1     -14.612   6.743  11.034 -0.02 -0.02    -0.228    13.934
ATOM     10  O   UNL d   1     -14.581   7.201  13.567 -0.00 -0.02    -0.303    13.934
ATOM     11  H   UNL d   1     -13.940   7.350  14.287 +0.00 +0.01    +0.222    13.934
ATOM     12  O   UNL d   1     -12.449   7.415  12.327 -0.00 -0.02    -0.303    13.934
ATOM     13  H   UNL d   1     -12.084   7.597  11.432 +0.01 +0.02    +0.222    13.934
ATOM     14  O   UNL d   1     -12.090   4.264  10.512 -0.04 -0.03    -0.278    13.934
ATOM     15  P   UNL d   1     -12.570   5.102   9.235 -0.06 +0.06    +0.473    13.934
ATOM     16  O   UNL d   1     -14.032   5.063   8.916 -0.07 -0.03    -0.228    13.934
ATOM     17  O   UNL d   1     -12.040   6.578   9.519 -0.04 -0.05    -0.303    13.934
ATOM     18  H   UNL d   1     -12.621   7.045  10.150 +0.03 +0.03    +0.222    13.934
ATOM     19  O   UNL d   1     -11.600   4.634   8.065 -0.24 -0.05    -0.303    13.934
ATOM     20  H   UNL d   1     -10.737   4.337   8.409 +0.12 +0.04    +0.222    13.934
ATOM     21  O   UNL d   1     -12.461   3.307  14.684 -0.00 -0.02    -0.278    13.934
ATOM     22  P   UNL d   1     -12.046   4.478  15.685 +0.00 +0.02    +0.473    13.934
ATOM     23  O   UNL d   1     -12.031   4.184  17.147 +0.00 -0.01    -0.228    13.934
ATOM     24  O   UNL d   1     -10.648   4.941  15.082 +0.00 -0.01    -0.303    13.934
ATOM     25  H   UNL d   1      -9.928   4.505  15.604 +0.00 +0.01    +0.222    13.934
ATOM     26  O   UNL d   1     -13.018   5.665  15.217 +0.00 -0.01    -0.303    13.934
ATOM     27  H   UNL d   1     -13.589   5.345  14.489 +0.00 +0.01    +0.222    13.934
ATOM     28  O   UNL d   1      -9.460   4.445  10.206 -0.12 -0.03    -0.278    13.934
ATOM     29  P   UNL d   1      -9.165   3.052   9.492 -0.23 +0.07    +0.473    13.934
ATOM     30  O   UNL d   1      -8.059   2.253  10.078 -0.25 -0.03    -0.228    13.934
ATOM     31  O   UNL d   1     -10.628   2.405   9.529 -0.18 -0.07    -0.303    13.934
ATOM     32  H   UNL d   1     -11.290   3.129   9.619 +0.11 +0.04    +0.222    13.934
ATOM     33  O   UNL d   1      -9.011   3.485   7.967 -0.37 -0.04    -0.303    13.934
ATOM     34  H   UNL d   1      -8.466   2.809   7.495 -0.44 -0.01    +0.222    13.934
ATOM     35  O   UNL d   1     -10.689   1.353  13.432 -0.11 -0.04    -0.278    13.934
ATOM     36  P   UNL d   1     -11.958   0.602  12.824 -0.15 +0.09    +0.473    13.934
ATOM     37  O   UNL d   1     -13.265   0.905  13.487 -0.09 -0.02    -0.228    13.934
ATOM     38  O   UNL d   1     -11.888   1.030  11.292 -0.73 -0.12    -0.303    13.934
ATOM     39  H   UNL d   1     -11.965   2.006  11.227 +0.08 +0.05    +0.222    13.934
ATOM     40  O   UNL d   1     -11.486  -0.916  12.820 -0.56 -0.12    -0.303    13.934
ATOM     41  H   UNL d   1     -12.190  -1.518  13.149 -0.21 +0.02    +0.222    13.934
ATOM     42  O   UNL d   1      -8.420   2.824  12.346 -0.09 -0.00    -0.278    13.934
ATOM     43  P   UNL d   1      -7.536   4.048  12.862 -0.04 -0.06    +0.473    13.934
ATOM     44  O   UNL d   1      -7.031   5.008  11.841 -0.17 +0.07    -0.228    13.934
ATOM     45  O   UNL d   1      -8.467   4.708  13.971 -0.00 +0.01    -0.303    13.934
ATOM     46  H   UNL d   1      -8.699   4.066  14.672 +0.02 -0.00    +0.222    13.934
ATOM     47  O   UNL d   1      -6.414   3.337  13.758 -0.05 +0.06    -0.303    13.934
ATOM     48  H   UNL d   1      -5.540   3.450  13.330 +0.06 -0.10    +0.222    13.934
TER
ENDMDL
MODEL        4
USER    Run = 4
USER    Cluster Rank = 50
USER    Number of conformations in this cluster = 1
USER  
USER    RMSD from reference structure       = 17.915 A
USER  
USER    Estimated Free Energy of Binding    =   +2.91 kcal/mol  [=(1)+(2)+(3)-(4)]
USER    
USER    (1) Final Intermolecular Energy     =   -4.25 kcal/mol
USER        vdW + Hbond + desolv Energy     =   -4.08 kcal/mol
USER        Electrostatic Energy            =   -0.16 kcal/mol
USER    (2) Final Total Internal Energy     =  -13.80 kcal/mol
USER    (3) Torsional Free Energy           =   +7.16 kcal/mol
USER    (4) Unbound System's Energy  [=(2)] =  -13.80 kcal/mol
USER    
USER    
USER  
USER    DPF = D:/Protein_go_brrr/autodock/final/AncA/IHP/dock.dpf
USER    NEWDPF move	IHP_ideal_opt.pdbqt
USER    NEWDPF about	0.035000 0.082000 -0.065000
USER    NEWDPF tran0	9.041444 11.397380 14.443847
USER    NEWDPF axisangle0	0.318020 -0.709092 0.629327 -57.725631
USER    NEWDPF quaternion0	0.153513 -0.342289 0.303785 -0.875778
USER    NEWDPF dihe0	151.09 84.52 173.04 123.21 91.29 95.83 -35.46 -80.88 -179.86 -10.99 153.34 166.48 2.55 89.33 -96.21 75.36 115.14 -144.58 -9.63 -39.25 154.11 -40.79 -42.99 165.21 
USER  
USER                              x       y       z    vdW   Elec        q     RMS 
ATOM      1  C   UNL d   1       9.935  10.873  15.826 -0.01 -0.02    +0.194    17.915
ATOM      2  C   UNL d   1       9.909   9.898  14.647 -0.06 -0.05    +0.194    17.915
ATOM      3  C   UNL d   1       8.512   9.791  14.032 -0.12 -0.05    +0.194    17.915
ATOM      4  C   UNL d   1       7.907  11.146  13.674 -0.19 -0.04    +0.194    17.915
ATOM      5  C   UNL d   1       8.014  12.186  14.782 -0.06 -0.02    +0.194    17.915
ATOM      6  C   UNL d   1       9.394  12.250  15.439 -0.03 -0.02    +0.194    17.915
ATOM      7  O   UNL d   1      11.295  11.047  16.231 +0.00 +0.02    -0.278    17.915
ATOM      8  P   UNL d   1      11.645  10.936  17.786 +0.01 -0.01    +0.473    17.915
ATOM      9  O   UNL d   1      11.195   9.681  18.445 +0.00 +0.00    -0.228    17.915
ATOM     10  O   UNL d   1      13.225  11.144  17.842 +0.00 +0.00    -0.303    17.915
ATOM     11  H   UNL d   1      13.584  11.175  16.935 +0.01 -0.01    +0.222    17.915
ATOM     12  O   UNL d   1      11.108  12.288  18.427 -0.00 +0.00    -0.303    17.915
ATOM     13  H   UNL d   1      10.248  12.578  18.049 +0.00 -0.00    +0.222    17.915
ATOM     14  O   UNL d   1      10.818  10.360  13.640 -0.11 +0.17    -0.278    17.915
ATOM     15  P   UNL d   1      12.311   9.786  13.707 -0.07 -0.16    +0.473    17.915
ATOM     16  O   UNL d   1      12.998   9.547  12.399 -0.21 +0.10    -0.228    17.915
ATOM     17  O   UNL d   1      13.086  10.829  14.629 -0.01 +0.05    -0.303    17.915
ATOM     18  H   UNL d   1      12.873  10.690  15.572 +0.02 -0.02    +0.222    17.915
ATOM     19  O   UNL d   1      12.209   8.524  14.669 -0.03 +0.01    -0.303    17.915
ATOM     20  H   UNL d   1      11.636   7.830  14.293 +0.04 +0.00    +0.222    17.915
ATOM     21  O   UNL d   1       9.242  12.994  16.646 -0.00 +0.01    -0.278    17.915
ATOM     22  P   UNL d   1       8.107  12.584  17.691 +0.00 -0.01    +0.473    17.915
ATOM     23  O   UNL d   1       6.682  12.740  17.280 -0.00 +0.00    -0.228    17.915
ATOM     24  O   UNL d   1       8.534  11.098  18.069 +0.00 +0.01    -0.303    17.915
ATOM     25  H   UNL d   1       9.509  11.009  17.914 +0.00 -0.01    +0.222    17.915
ATOM     26  O   UNL d   1       8.556  13.400  18.996 -0.00 +0.00    -0.303    17.915
ATOM     27  H   UNL d   1       9.295  12.928  19.432 +0.00 -0.00    +0.222    17.915
ATOM     28  O   UNL d   1       8.640   9.097  12.797 -0.18 +0.18    -0.278    17.915
ATOM     29  P   UNL d   1       8.996   7.545  12.780 -0.16 -0.09    +0.473    17.915
ATOM     30  O   UNL d   1       8.171   6.688  13.670 -0.15 +0.01    -0.228    17.915
ATOM     31  O   UNL d   1       8.909   7.256  11.209 -0.35 -0.00    -0.303    17.915
ATOM     32  H   UNL d   1       8.932   8.116  10.730 -0.41 -0.14    +0.222    17.915
ATOM     33  O   UNL d   1      10.566   7.559  13.048 -0.32 -0.01    -0.303    17.915
ATOM     34  H   UNL d   1      10.926   8.446  12.802 -0.51 -0.11    +0.222    17.915
ATOM     35  O   UNL d   1       7.790  13.446  14.153 -0.09 +0.00    -0.278    17.915
ATOM     36  P   UNL d   1       6.307  14.011  13.990 -0.07 +0.01    +0.473    17.915
ATOM     37  O   UNL d   1       6.199  15.487  13.773 -0.09 -0.00    -0.228    17.915
ATOM     38  O   UNL d   1       5.753  13.130  12.785 -0.64 -0.04    -0.303    17.915
ATOM     39  H   UNL d   1       5.073  12.510  13.126 +0.07 +0.00    +0.222    17.915
ATOM     40  O   UNL d   1       5.573  13.414  15.269 -0.01 +0.01    -0.303    17.915
ATOM     41  H   UNL d   1       5.694  12.441  15.337 +0.04 -0.01    +0.222    17.915
ATOM     42  O   UNL d   1       6.512  10.927  13.435 -0.21 +0.04    -0.278    17.915
ATOM     43  P   UNL d   1       5.642  10.204  14.560 -0.07 -0.07    +0.473    17.915
ATOM     44  O   UNL d   1       5.375   8.748  14.392 -0.12 +0.06    -0.228    17.915
ATOM     45  O   UNL d   1       6.422  10.573  15.896 -0.01 +0.02    -0.303    17.915
ATOM     46  H   UNL d   1       6.201  11.475  16.203 +0.03 -0.01    +0.222    17.915
ATOM     47  O   UNL d   1       4.343  11.137  14.673 -0.06 +0.03    -0.303    17.915
ATOM     48  H   UNL d   1       4.518  11.991  14.226 +0.06 -0.02    +0.222    17.915
TER
ENDMDL
MODEL        3
USER    Run = 3
USER    Cluster Rank = 51
USER    Number of conformations in this cluster = 1
USER  
USER    RMSD from reference structure       = 15.156 A
USER  
USER    Estimated Free Energy of Binding    =   +2.97 kcal/mol  [=(1)+(2)+(3)-(4)]
USER    
USER    (1) Final Intermolecular Energy     =   -4.19 kcal/mol
USER        vdW + Hbond + desolv Energy     =   -3.86 kcal/mol
USER        Electrostatic Energy            =   -0.33 kcal/mol
USER    (2) Final Total Internal Energy     =  -15.24 kcal/mol
USER    (3) Torsional Free Energy           =   +7.16 kcal/mol
USER    (4) Unbound System's Energy  [=(2)] =  -15.24 kcal/mol
USER    
USER    
USER  
USER    DPF = D:/Protein_go_brrr/autodock/final/AncA/IHP/dock.dpf
USER    NEWDPF move	IHP_ideal_opt.pdbqt
USER    NEWDPF about	0.035000 0.082000 -0.065000
USER    NEWDPF tran0	7.253685 11.896740 -11.795322
USER    NEWDPF axisangle0	-0.733428 -0.611395 0.297119 56.266245
USER    NEWDPF quaternion0	-0.345827 -0.288286 0.140098 0.881854
USER    NEWDPF dihe0	-151.13 12.37 124.69 -53.35 112.10 130.96 -153.55 125.74 20.22 68.72 106.33 121.54 45.44 84.11 69.39 38.85 144.52 -144.15 -3.21 -54.89 -27.59 20.18 -13.22 0.02 
USER  
USER                              x       y       z    vdW   Elec        q     RMS 
ATOM      1  C   UNL d   1       8.178  10.650 -12.553 -0.18 +0.07    +0.194    15.156
ATOM      2  C   UNL d   1       6.676  10.384 -12.443 -0.11 +0.05    +0.194    15.156
ATOM      3  C   UNL d   1       6.130  10.783 -11.070 -0.14 +0.03    +0.194    15.156
ATOM      4  C   UNL d   1       6.494  12.210 -10.669 -0.13 +0.04    +0.194    15.156
ATOM      5  C   UNL d   1       7.964  12.555 -10.872 +0.15 +0.09    +0.194    15.156
ATOM      6  C   UNL d   1       8.527  12.101 -12.220 -0.10 +0.07    +0.194    15.156
ATOM      7  O   UNL d   1       8.574  10.417 -13.907 -0.09 -0.09    -0.278    15.156
ATOM      8  P   UNL d   1       9.770   9.394 -14.183 -0.15 +0.19    +0.473    15.156
ATOM      9  O   UNL d   1       9.349   8.012 -14.539 -0.52 -0.19    -0.228    15.156
ATOM     10  O   UNL d   1      10.629  10.103 -15.326 -0.04 -0.08    -0.303    15.156
ATOM     11  H   UNL d   1      10.830  11.020 -15.062 +0.04 +0.05    +0.222    15.156
ATOM     12  O   UNL d   1      10.725   9.525 -12.920 -0.18 -0.09    -0.303    15.156
ATOM     13  H   UNL d   1      10.741  10.433 -12.542 +0.08 +0.09    +0.222    15.156
ATOM     14  O   UNL d   1       5.992  11.146 -13.445 -0.07 -0.05    -0.278    15.156
ATOM     15  P   UNL d   1       6.061  10.584 -14.943 -0.05 +0.11    +0.473    15.156
ATOM     16  O   UNL d   1       4.805  10.670 -15.752 -0.03 -0.04    -0.228    15.156
ATOM     17  O   UNL d   1       7.274  11.380 -15.600 -0.02 -0.06    -0.303    15.156
ATOM     18  H   UNL d   1       7.937  11.629 -14.928 +0.03 +0.05    +0.222    15.156
ATOM     19  O   UNL d   1       6.680   9.127 -14.791 -0.13 -0.13    -0.303    15.156
ATOM     20  H   UNL d   1       7.567   9.068 -15.192 +0.05 +0.11    +0.222    15.156
ATOM     21  O   UNL d   1       9.947  12.178 -12.122 -0.08 -0.14    -0.278    15.156
ATOM     22  P   UNL d   1      10.780  12.933 -13.254 +0.00 +0.13    +0.473    15.156
ATOM     23  O   UNL d   1      11.227  14.331 -12.986 -0.00 -0.05    -0.228    15.156
ATOM     24  O   UNL d   1      11.956  11.899 -13.537 -0.01 -0.07    -0.303    15.156
ATOM     25  H   UNL d   1      11.558  10.995 -13.618 +0.06 +0.06    +0.222    15.156
ATOM     26  O   UNL d   1       9.842  12.728 -14.538 -0.00 -0.06    -0.303    15.156
ATOM     27  H   UNL d   1       9.516  11.806 -14.555 +0.03 +0.05    +0.222    15.156
ATOM     28  O   UNL d   1       4.710  10.765 -11.153 -0.14 +0.02    -0.278    15.156
ATOM     29  P   UNL d   1       3.850  10.005 -10.049 -0.17 -0.28    +0.473    15.156
ATOM     30  O   UNL d   1       4.589   9.603  -8.825 -0.35 +0.20    -0.228    15.156
ATOM     31  O   UNL d   1       2.650  11.047  -9.863 -0.06 +0.28    -0.303    15.156
ATOM     32  H   UNL d   1       2.804  11.559  -9.036 -0.40 -0.33    +0.222    15.156
ATOM     33  O   UNL d   1       3.174   8.839 -10.897 -0.10 +0.08    -0.303    15.156
ATOM     34  H   UNL d   1       2.547   8.342 -10.317 +0.10 -0.10    +0.222    15.156
ATOM     35  O   UNL d   1       8.035  13.979 -10.845 -0.05 -0.08    -0.278    15.156
ATOM     36  P   UNL d   1       8.874  14.722  -9.711 -0.04 +0.17    +0.473    15.156
ATOM     37  O   UNL d   1       8.711  16.208  -9.656 -0.01 -0.03    -0.228    15.156
ATOM     38  O   UNL d   1       8.393  13.962  -8.397 -0.11 -0.15    -0.303    15.156
ATOM     39  H   UNL d   1       7.412  13.934  -8.384 +0.06 +0.06    +0.222    15.156
ATOM     40  O   UNL d   1      10.344  14.167  -9.957 -0.15 -0.21    -0.303    15.156
ATOM     41  H   UNL d   1      10.482  13.904 -10.894 +0.02 +0.12    +0.222    15.156
ATOM     42  O   UNL d   1       6.223  12.329  -9.268 -0.16 -0.03    -0.278    15.156
ATOM     43  P   UNL d   1       5.016  13.257  -8.793 -0.08 -0.08    +0.473    15.156
ATOM     44  O   UNL d   1       5.349  14.634  -8.333 -0.05 +0.01    -0.228    15.156
ATOM     45  O   UNL d   1       4.027  13.208 -10.037 -0.03 +0.06    -0.303    15.156
ATOM     46  H   UNL d   1       4.059  12.340 -10.487 +0.05 -0.05    +0.222    15.156
ATOM     47  O   UNL d   1       4.246  12.339  -7.728 -0.14 +0.25    -0.303    15.156
ATOM     48  H   UNL d   1       3.947  11.517  -8.167 -0.47 -0.36    +0.222    15.156
TER
ENDMDL
MODEL        2
USER    Run = 2
USER    Cluster Rank = 52
USER    Number of conformations in this cluster = 1
USER  
USER    RMSD from reference structure       = 16.739 A
USER  
USER    Estimated Free Energy of Binding    =   +2.99 kcal/mol  [=(1)+(2)+(3)-(4)]
USER    
USER    (1) Final Intermolecular Energy     =   -4.17 kcal/mol
USER        vdW + Hbond + desolv Energy     =   -4.16 kcal/mol
USER        Electrostatic Energy            =   -0.01 kcal/mol
USER    (2) Final Total Internal Energy     =  -13.45 kcal/mol
USER    (3) Torsional Free Energy           =   +7.16 kcal/mol
USER    (4) Unbound System's Energy  [=(2)] =  -13.45 kcal/mol
USER    
USER    
USER  
USER    DPF = D:/Protein_go_brrr/autodock/final/AncA/IHP/dock.dpf
USER    NEWDPF move	IHP_ideal_opt.pdbqt
USER    NEWDPF about	0.035000 0.082000 -0.065000
USER    NEWDPF tran0	-17.652097 1.880306 -8.989026
USER    NEWDPF axisangle0	0.990223 0.070200 -0.120546 -174.873835
USER    NEWDPF quaternion0	0.989232 0.070130 -0.120425 -0.044719
USER    NEWDPF dihe0	-8.42 34.66 68.49 6.12 10.91 -125.06 -76.63 -4.14 78.74 92.95 -2.67 160.05 21.20 -96.43 -38.89 -11.67 106.54 160.13 4.12 -6.24 -15.56 2.99 -2.56 -19.11 
USER  
USER                              x       y       z    vdW   Elec        q     RMS 
ATOM      1  C   UNL d   1     -16.764   2.833 -10.124 -0.07 +0.01    +0.194    16.739
ATOM      2  C   UNL d   1     -17.998   3.505  -9.519 -0.08 +0.02    +0.194    16.739
ATOM      3  C   UNL d   1     -19.190   2.548  -9.456 -0.06 +0.02    +0.194    16.739
ATOM      4  C   UNL d   1     -18.862   1.223  -8.773 -0.05 +0.03    +0.194    16.739
ATOM      5  C   UNL d   1     -17.575   0.573  -9.265 -0.10 +0.02    +0.194    16.739
ATOM      6  C   UNL d   1     -16.399   1.544  -9.387 -0.02 +0.02    +0.194    16.739
ATOM      7  O   UNL d   1     -15.658   3.728  -9.989 -0.09 -0.01    -0.278    16.739
ATOM      8  P   UNL d   1     -14.940   4.254 -11.317 -0.04 -0.02    +0.473    16.739
ATOM      9  O   UNL d   1     -15.718   5.251 -12.101 -0.02 +0.00    -0.228    16.739
ATOM     10  O   UNL d   1     -13.538   4.813 -10.803 -0.12 +0.02    -0.303    16.739
ATOM     11  H   UNL d   1     -13.123   5.349 -11.504 +0.04 -0.02    +0.222    16.739
ATOM     12  O   UNL d   1     -14.508   2.940 -12.099 -0.06 +0.05    -0.303    16.739
ATOM     13  H   UNL d   1     -14.606   2.122 -11.563 +0.08 -0.04    +0.222    16.739
ATOM     14  O   UNL d   1     -17.689   3.939  -8.189 -0.14 -0.04    -0.278    16.739
ATOM     15  P   UNL d   1     -17.947   5.485  -7.862 -0.08 +0.02    +0.473    16.739
ATOM     16  O   UNL d   1     -17.563   6.469  -8.922 -0.03 -0.01    -0.228    16.739
ATOM     17  O   UNL d   1     -19.495   5.549  -7.491 -0.04 -0.02    -0.303    16.739
ATOM     18  H   UNL d   1     -19.993   4.835  -7.934 +0.03 +0.02    +0.222    16.739
ATOM     19  O   UNL d   1     -17.269   5.708  -6.440 -0.12 +0.02    -0.303    16.739
ATOM     20  H   UNL d   1     -17.595   5.068  -5.781 -0.13 -0.04    +0.222    16.739
ATOM     21  O   UNL d   1     -15.401   0.886 -10.165 -0.10 +0.00    -0.278    16.739
ATOM     22  P   UNL d   1     -13.974   0.576  -9.524 -0.19 -0.01    +0.473    16.739
ATOM     23  O   UNL d   1     -13.659   1.162  -8.189 -0.43 -0.00    -0.228    16.739
ATOM     24  O   UNL d   1     -13.929  -1.014  -9.582 -1.12 -0.08    -0.303    16.739
ATOM     25  H   UNL d   1     -14.731  -1.362  -9.117 +0.13 +0.04    +0.222    16.739
ATOM     26  O   UNL d   1     -12.985   0.980 -10.719 -0.37 +0.10    -0.303    16.739
ATOM     27  H   UNL d   1     -13.104   1.928 -10.929 +0.10 -0.05    +0.222    16.739
ATOM     28  O   UNL d   1     -20.185   3.156  -8.641 -0.04 -0.03    -0.278    16.739
ATOM     29  P   UNL d   1     -21.572   3.616  -9.274 -0.00 +0.03    +0.473    16.739
ATOM     30  O   UNL d   1     -21.494   4.190 -10.642 -0.00 -0.01    -0.228    16.739
ATOM     31  O   UNL d   1     -22.418   2.269  -9.100 -0.00 -0.02    -0.303    16.739
ATOM     32  H   UNL d   1     -21.794   1.508  -9.063 +0.02 +0.02    +0.222    16.739
ATOM     33  O   UNL d   1     -22.166   4.554  -8.132 -0.00 -0.02    -0.303    16.739
ATOM     34  H   UNL d   1     -21.505   5.257  -7.919 +0.01 +0.01    +0.222    16.739
ATOM     35  O   UNL d   1     -17.224  -0.390  -8.274 -0.15 -0.04    -0.278    16.739
ATOM     36  P   UNL d   1     -16.920  -1.900  -8.690 -0.20 +0.01    +0.473    16.739
ATOM     37  O   UNL d   1     -15.958  -2.631  -7.808 -0.37 +0.01    -0.228    16.739
ATOM     38  O   UNL d   1     -18.383  -2.528  -8.725 -0.12 -0.01    -0.303    16.739
ATOM     39  H   UNL d   1     -19.044  -1.810  -8.627 +0.07 +0.02    +0.222    16.739
ATOM     40  O   UNL d   1     -16.528  -1.757 -10.224 -0.08 +0.01    -0.303    16.739
ATOM     41  H   UNL d   1     -15.835  -1.073 -10.361 +0.09 -0.01    +0.222    16.739
ATOM     42  O   UNL d   1     -19.932   0.322  -9.079 -0.04 -0.03    -0.278    16.739
ATOM     43  P   UNL d   1     -20.622  -0.487  -7.891 -0.06 +0.06    +0.473    16.739
ATOM     44  O   UNL d   1     -21.271  -1.785  -8.230 -0.05 -0.02    -0.228    16.739
ATOM     45  O   UNL d   1     -19.450  -0.606  -6.822 -0.18 -0.06    -0.303    16.739
ATOM     46  H   UNL d   1     -18.791  -1.279  -7.086 +0.05 +0.03    +0.222    16.739
ATOM     47  O   UNL d   1     -21.576   0.605  -7.208 -0.04 -0.04    -0.303    16.739
ATOM     48  H   UNL d   1     -21.259   1.502  -7.442 +0.04 +0.03    +0.222    16.739
TER
ENDMDL
MODEL        1
USER    Run = 1
USER    Cluster Rank = 53
USER    Number of conformations in this cluster = 1
USER  
USER    RMSD from reference structure       = 16.157 A
USER  
USER    Estimated Free Energy of Binding    =   +3.02 kcal/mol  [=(1)+(2)+(3)-(4)]
USER    
USER    (1) Final Intermolecular Energy     =   -4.14 kcal/mol
USER        vdW + Hbond + desolv Energy     =   -3.09 kcal/mol
USER        Electrostatic Energy            =   -1.06 kcal/mol
USER    (2) Final Total Internal Energy     =  -11.71 kcal/mol
USER    (3) Torsional Free Energy           =   +7.16 kcal/mol
USER    (4) Unbound System's Energy  [=(2)] =  -11.71 kcal/mol
USER    
USER    
USER  
USER    DPF = D:/Protein_go_brrr/autodock/final/AncA/IHP/dock.dpf
USER    NEWDPF move	IHP_ideal_opt.pdbqt
USER    NEWDPF about	0.035000 0.082000 -0.065000
USER    NEWDPF tran0	-1.570976 -12.200566 14.622276
USER    NEWDPF axisangle0	-0.876706 0.443681 0.185832 -160.748406
USER    NEWDPF quaternion0	-0.864363 0.437434 0.183216 -0.167213
USER    NEWDPF dihe0	-165.95 -15.98 61.80 84.64 46.34 -153.54 147.71 -82.34 9.80 117.02 2.66 -99.31 17.47 108.64 9.02 -153.98 -30.59 -49.39 -136.66 -14.82 175.95 4.35 -14.97 -169.66 
USER  
USER                              x       y       z    vdW   Elec        q     RMS 
ATOM      1  C   UNL d   1      -0.291 -12.217  13.463 -0.10 +0.02    +0.194    16.157
ATOM      2  C   UNL d   1      -0.257 -11.065  14.468 -0.08 -0.05    +0.194    16.157
ATOM      3  C   UNL d   1      -1.647 -10.463  14.686 -0.06 -0.13    +0.194    16.157
ATOM      4  C   UNL d   1      -2.705 -11.505  15.038 -0.05 -0.05    +0.194    16.157
ATOM      5  C   UNL d   1      -2.698 -12.728  14.130 -0.04 -0.02    +0.194    16.157
ATOM      6  C   UNL d   1      -1.302 -13.293  13.862 -0.03 +0.02    +0.194    16.157
ATOM      7  O   UNL d   1       1.000 -12.832  13.446 -0.05 -0.17    -0.278    16.157
ATOM      8  P   UNL d   1       1.204 -14.192  14.258 +0.00 +0.16    +0.473    16.157
ATOM      9  O   UNL d   1       0.497 -15.375  13.696 -0.00 -0.07    -0.228    16.157
ATOM     10  O   UNL d   1       2.788 -14.375  14.314 +0.00 -0.10    -0.303    16.157
ATOM     11  H   UNL d   1       3.215 -13.503  14.408 +0.01 +0.08    +0.222    16.157
ATOM     12  O   UNL d   1       0.858 -13.829  15.765 +0.01 -0.04    -0.303    16.157
ATOM     13  H   UNL d   1       1.450 -13.138  16.141 +0.01 +0.03    +0.222    16.157
ATOM     14  O   UNL d   1       0.231 -11.554  15.723 -0.00 +0.01    -0.278    16.157
ATOM     15  P   UNL d   1       1.610 -10.931  16.247 +0.02 +0.00    +0.473    16.157
ATOM     16  O   UNL d   1       1.941 -11.148  17.690 +0.00 -0.00    -0.228    16.157
ATOM     17  O   UNL d   1       2.707 -11.540  15.265 +0.00 -0.05    -0.303    16.157
ATOM     18  H   UNL d   1       2.469 -12.446  14.990 +0.01 +0.05    +0.222    16.157
ATOM     19  O   UNL d   1       1.565  -9.413  15.773 -0.00 +0.05    -0.303    16.157
ATOM     20  H   UNL d   1       0.650  -9.100  15.655 +0.04 -0.08    +0.222    16.157
ATOM     21  O   UNL d   1      -1.423 -14.184  12.756 -0.02 -0.07    -0.278    16.157
ATOM     22  P   UNL d   1      -1.628 -13.599  11.286 -0.08 +0.17    +0.473    16.157
ATOM     23  O   UNL d   1      -0.870 -12.373  10.904 -0.29 -0.15    -0.228    16.157
ATOM     24  O   UNL d   1      -1.331 -14.876  10.383 -0.06 -0.15    -0.303    16.157
ATOM     25  H   UNL d   1      -0.814 -15.524  10.927 +0.02 +0.11    +0.222    16.157
ATOM     26  O   UNL d   1      -3.225 -13.495  11.197 -0.06 -0.03    -0.303    16.157
ATOM     27  H   UNL d   1      -3.585 -13.295  12.085 +0.06 -0.00    +0.222    16.157
ATOM     28  O   UNL d   1      -1.569  -9.606  15.818 -0.06 +0.11    -0.278    16.157
ATOM     29  P   UNL d   1      -1.792  -8.037  15.656 -0.11 -0.27    +0.473    16.157
ATOM     30  O   UNL d   1      -1.686  -7.243  16.907 -0.09 +0.05    -0.228    16.157
ATOM     31  O   UNL d   1      -0.727  -7.722  14.503 -0.17 +0.45    -0.303    16.157
ATOM     32  H   UNL d   1      -0.531  -6.757  14.513 -0.49 -0.56    +0.222    16.157
ATOM     33  O   UNL d   1      -3.180  -7.975  14.880 -0.18 +0.12    -0.303    16.157
ATOM     34  H   UNL d   1      -3.319  -8.828  14.400 -0.49 -0.29    +0.222    16.157
ATOM     35  O   UNL d   1      -3.431 -13.733  14.828 -0.00 -0.01    -0.278    16.157
ATOM     36  P   UNL d   1      -4.805 -14.285  14.235 +0.01 +0.03    +0.473    16.157
ATOM     37  O   UNL d   1      -5.079 -13.933  12.807 -0.04 -0.02    -0.228    16.157
ATOM     38  O   UNL d   1      -4.672 -15.849  14.509 -0.00 -0.03    -0.303    16.157
ATOM     39  H   UNL d   1      -3.884 -16.192  14.037 +0.00 +0.03    +0.222    16.157
ATOM     40  O   UNL d   1      -5.863 -13.795  15.316 -0.01 -0.02    -0.303    16.157
ATOM     41  H   UNL d   1      -6.046 -12.832  15.236 +0.04 +0.02    +0.222    16.157
ATOM     42  O   UNL d   1      -3.979 -10.871  14.882 -0.07 +0.07    -0.278    16.157
ATOM     43  P   UNL d   1      -4.587 -10.712  13.416 -0.12 -0.22    +0.473    16.157
ATOM     44  O   UNL d   1      -3.746 -11.163  12.271 -0.22 +0.18    -0.228    16.157
ATOM     45  O   UNL d   1      -5.984 -11.464  13.533 -0.15 +0.00    -0.303    16.157
ATOM     46  H   UNL d   1      -5.864 -12.431  13.617 +0.07 +0.01    +0.222    16.157
ATOM     47  O   UNL d   1      -5.046  -9.177  13.374 +0.03 +0.13    -0.303    16.157
ATOM     48  H   UNL d   1      -4.264  -8.610  13.208 -0.31 -0.36    +0.222    16.157
TER
ENDMDL
MODEL       88
USER    Run = 88
USER    Cluster Rank = 54
USER    Number of conformations in this cluster = 1
USER  
USER    RMSD from reference structure       = 19.209 A
USER  
USER    Estimated Free Energy of Binding    =   +3.07 kcal/mol  [=(1)+(2)+(3)-(4)]
USER    
USER    (1) Final Intermolecular Energy     =   -4.09 kcal/mol
USER        vdW + Hbond + desolv Energy     =   -3.93 kcal/mol
USER        Electrostatic Energy            =   -0.16 kcal/mol
USER    (2) Final Total Internal Energy     =  -13.54 kcal/mol
USER    (3) Torsional Free Energy           =   +7.16 kcal/mol
USER    (4) Unbound System's Energy  [=(2)] =  -13.54 kcal/mol
USER    
USER    
USER  
USER    DPF = D:/Protein_go_brrr/autodock/final/AncA/IHP/dock.dpf
USER    NEWDPF move	IHP_ideal_opt.pdbqt
USER    NEWDPF about	0.035000 0.082000 -0.065000
USER    NEWDPF tran0	17.740166 -6.242105 -11.731372
USER    NEWDPF axisangle0	-0.639319 -0.731847 -0.235948 -92.061569
USER    NEWDPF quaternion0	-0.460126 -0.526720 -0.169815 -0.694272
USER    NEWDPF dihe0	-25.20 94.43 65.60 111.19 93.96 57.45 -123.31 1.34 95.00 163.52 158.87 147.99 -32.30 -31.35 -149.93 48.16 95.27 96.42 25.78 -19.59 -40.01 160.31 152.23 -34.24 
USER  
USER                              x       y       z    vdW   Elec        q     RMS 
ATOM      1  C   UNL d   1      17.131  -5.744 -10.193 -0.03 +0.02    +0.194    19.209
ATOM      2  C   UNL d   1      16.280  -6.774 -10.939 -0.20 +0.03    +0.194    19.209
ATOM      3  C   UNL d   1      16.156  -6.435 -12.427 -0.14 +0.02    +0.194    19.209
ATOM      4  C   UNL d   1      17.503  -6.200 -13.104 -0.10 +0.01    +0.194    19.209
ATOM      5  C   UNL d   1      18.431  -5.267 -12.335 -0.08 +0.00    +0.194    19.209
ATOM      6  C   UNL d   1      18.507  -5.568 -10.837 -0.09 +0.00    +0.194    19.209
ATOM      7  O   UNL d   1      17.341  -6.220  -8.862 -0.11 -0.02    -0.278    19.209
ATOM      8  P   UNL d   1      16.382  -5.681  -7.703 -0.26 +0.04    +0.473    19.209
ATOM      9  O   UNL d   1      15.097  -5.094  -8.170 -0.85 -0.08    -0.228    19.209
ATOM     10  O   UNL d   1      16.185  -6.943  -6.747 -0.23 -0.00    -0.303    19.209
ATOM     11  H   UNL d   1      15.645  -6.688  -5.976 -0.47 -0.07    +0.222    19.209
ATOM     12  O   UNL d   1      17.298  -4.732  -6.817 -0.17 -0.01    -0.303    19.209
ATOM     13  H   UNL d   1      17.804  -4.079  -7.350 +0.04 -0.04    +0.222    19.209
ATOM     14  O   UNL d   1      16.892  -8.064 -10.814 -0.09 -0.04    -0.278    19.209
ATOM     15  P   UNL d   1      16.104  -9.148  -9.938 -0.08 +0.10    +0.473    19.209
ATOM     16  O   UNL d   1      14.626  -8.957  -9.803 -0.65 -0.09    -0.228    19.209
ATOM     17  O   UNL d   1      16.488 -10.541 -10.608 -0.07 -0.05    -0.303    19.209
ATOM     18  H   UNL d   1      16.659 -10.436 -11.564 +0.03 +0.04    +0.222    19.209
ATOM     19  O   UNL d   1      16.914  -9.217  -8.571 -0.05 -0.04    -0.303    19.209
ATOM     20  H   UNL d   1      17.050  -8.331  -8.187 +0.07 +0.02    +0.222    19.209
ATOM     21  O   UNL d   1      19.115  -4.435 -10.220 -0.10 +0.04    -0.278    19.209
ATOM     22  P   UNL d   1      20.131  -4.644  -9.008 -0.02 -0.01    +0.473    19.209
ATOM     23  O   UNL d   1      19.795  -4.026  -7.692 -0.05 +0.00    -0.228    19.209
ATOM     24  O   UNL d   1      20.285  -6.228  -8.982 -0.00 -0.02    -0.303    19.209
ATOM     25  H   UNL d   1      20.129  -6.568  -9.899 +0.02 +0.01    +0.222    19.209
ATOM     26  O   UNL d   1      21.520  -4.186  -9.665 -0.00 -0.01    -0.303    19.209
ATOM     27  H   UNL d   1      22.131  -4.950  -9.689 +0.01 +0.01    +0.222    19.209
ATOM     28  O   UNL d   1      15.599  -7.569 -13.079 -0.13 -0.04    -0.278    19.209
ATOM     29  P   UNL d   1      16.546  -8.717 -13.646 -0.06 +0.05    +0.473    19.209
ATOM     30  O   UNL d   1      17.895  -8.797 -13.030 -0.02 -0.02    -0.228    19.209
ATOM     31  O   UNL d   1      15.587  -9.986 -13.464 -0.07 -0.04    -0.303    19.209
ATOM     32  H   UNL d   1      15.519 -10.192 -12.503 +0.03 +0.05    +0.222    19.209
ATOM     33  O   UNL d   1      16.486  -8.454 -15.215 -0.02 -0.02    -0.303    19.209
ATOM     34  H   UNL d   1      16.829  -7.546 -15.402 +0.03 +0.01    +0.222    19.209
ATOM     35  O   UNL d   1      19.733  -5.485 -12.874 -0.01 -0.01    -0.278    19.209
ATOM     36  P   UNL d   1      20.568  -6.780 -12.461 +0.01 +0.03    +0.473    19.209
ATOM     37  O   UNL d   1      21.328  -7.438 -13.569 -0.00 -0.02    -0.228    19.209
ATOM     38  O   UNL d   1      21.481  -6.217 -11.285 -0.00 -0.02    -0.303    19.209
ATOM     39  H   UNL d   1      21.041  -5.439 -10.880 +0.02 +0.01    +0.222    19.209
ATOM     40  O   UNL d   1      19.478  -7.663 -11.711 -0.00 -0.02    -0.303    19.209
ATOM     41  H   UNL d   1      19.369  -8.544 -12.133 +0.02 +0.02    +0.222    19.209
ATOM     42  O   UNL d   1      17.230  -5.577 -14.364 -0.06 +0.00    -0.278    19.209
ATOM     43  P   UNL d   1      18.161  -5.922 -15.613 +0.01 +0.02    +0.473    19.209
ATOM     44  O   UNL d   1      17.506  -6.041 -16.945 -0.01 -0.01    -0.228    19.209
ATOM     45  O   UNL d   1      19.280  -4.793 -15.536 -0.00 -0.01    -0.303    19.209
ATOM     46  H   UNL d   1      20.010  -5.053 -14.938 +0.01 +0.01    +0.222    19.209
ATOM     47  O   UNL d   1      18.969  -7.216 -15.121 -0.00 -0.02    -0.303    19.209
ATOM     48  H   UNL d   1      19.121  -7.154 -14.155 +0.02 +0.01    +0.222    19.209
TER
ENDMDL
MODEL      100
USER    Run = 100
USER    Cluster Rank = 55
USER    Number of conformations in this cluster = 1
USER  
USER    RMSD from reference structure       = 17.862 A
USER  
USER    Estimated Free Energy of Binding    =   +3.08 kcal/mol  [=(1)+(2)+(3)-(4)]
USER    
USER    (1) Final Intermolecular Energy     =   -4.08 kcal/mol
USER        vdW + Hbond + desolv Energy     =   -4.14 kcal/mol
USER        Electrostatic Energy            =   +0.06 kcal/mol
USER    (2) Final Total Internal Energy     =  -12.69 kcal/mol
USER    (3) Torsional Free Energy           =   +7.16 kcal/mol
USER    (4) Unbound System's Energy  [=(2)] =  -12.69 kcal/mol
USER    
USER    
USER  
USER    DPF = D:/Protein_go_brrr/autodock/final/AncA/IHP/dock.dpf
USER    NEWDPF move	IHP_ideal_opt.pdbqt
USER    NEWDPF about	0.035000 0.082000 -0.065000
USER    NEWDPF tran0	-4.629861 -2.561556 -19.037884
USER    NEWDPF axisangle0	0.699022 -0.688420 -0.193509 177.089139
USER    NEWDPF quaternion0	0.698797 -0.688198 -0.193446 0.025399
USER    NEWDPF dihe0	117.21 47.03 75.48 1.53 -75.46 98.95 161.20 14.70 150.42 13.53 63.37 -132.88 -40.01 88.72 -176.02 41.47 32.87 124.78 33.64 -36.79 -180.00 -51.14 -9.05 -7.97 
USER  
USER                              x       y       z    vdW   Elec        q     RMS 
ATOM      1  C   UNL d   1      -3.981  -3.470 -20.356 -0.15 -0.04    +0.194    17.862
ATOM      2  C   UNL d   1      -3.085  -2.352 -19.820 -0.08 -0.02    +0.194    17.862
ATOM      3  C   UNL d   1      -3.879  -1.074 -19.542 -0.04 -0.01    +0.194    17.862
ATOM      4  C   UNL d   1      -5.104  -1.306 -18.660 -0.08 -0.02    +0.194    17.862
ATOM      5  C   UNL d   1      -5.965  -2.486 -19.092 -0.12 -0.03    +0.194    17.862
ATOM      6  C   UNL d   1      -5.165  -3.746 -19.429 -0.22 -0.05    +0.194    17.862
ATOM      7  O   UNL d   1      -3.205  -4.669 -20.425 -0.18 +0.11    -0.278    17.862
ATOM      8  P   UNL d   1      -2.389  -4.969 -21.765 -0.08 -0.13    +0.473    17.862
ATOM      9  O   UNL d   1      -2.302  -3.830 -22.719 -0.03 +0.03    -0.228    17.862
ATOM     10  O   UNL d   1      -0.963  -5.464 -21.246 -0.12 +0.06    -0.303    17.862
ATOM     11  H   UNL d   1      -0.685  -4.920 -20.486 +0.07 -0.04    +0.222    17.862
ATOM     12  O   UNL d   1      -3.018  -6.310 -22.340 -0.15 +0.13    -0.303    17.862
ATOM     13  H   UNL d   1      -3.765  -6.649 -21.797 -0.51 -0.18    +0.222    17.862
ATOM     14  O   UNL d   1      -2.477  -2.787 -18.597 -0.17 +0.03    -0.278    17.862
ATOM     15  P   UNL d   1      -1.015  -3.428 -18.713 -0.16 -0.06    +0.473    17.862
ATOM     16  O   UNL d   1      -0.064  -3.140 -17.594 -0.35 +0.02    -0.228    17.862
ATOM     17  O   UNL d   1      -1.290  -4.986 -18.904 -0.20 +0.09    -0.303    17.862
ATOM     18  H   UNL d   1      -2.184  -5.226 -18.595 -0.42 -0.11    +0.222    17.862
ATOM     19  O   UNL d   1      -0.513  -3.012 -20.164 -0.06 +0.02    -0.303    17.862
ATOM     20  H   UNL d   1      -1.117  -3.332 -20.860 +0.06 -0.02    +0.222    17.862
ATOM     21  O   UNL d   1      -6.049  -4.620 -20.128 -0.26 +0.14    -0.278    17.862
ATOM     22  P   UNL d   1      -6.377  -4.350 -21.666 -0.12 -0.33    +0.473    17.862
ATOM     23  O   UNL d   1      -7.743  -4.683 -22.164 -0.13 +0.25    -0.228    17.862
ATOM     24  O   UNL d   1      -5.963  -2.822 -21.824 -0.03 +0.08    -0.303    17.862
ATOM     25  H   UNL d   1      -6.621  -2.384 -22.421 +0.02 -0.05    +0.222    17.862
ATOM     26  O   UNL d   1      -5.161  -5.100 -22.394 -0.18 +0.22    -0.303    17.862
ATOM     27  H   UNL d   1      -4.349  -4.562 -22.300 +0.05 -0.09    +0.222    17.862
ATOM     28  O   UNL d   1      -3.039  -0.200 -18.799 -0.02 +0.01    -0.278    17.862
ATOM     29  P   UNL d   1      -1.650   0.288 -19.405 +0.01 +0.00    +0.473    17.862
ATOM     30  O   UNL d   1      -1.479   0.080 -20.866 -0.01 -0.00    -0.228    17.862
ATOM     31  O   UNL d   1      -1.632   1.800 -18.879 -0.01 -0.01    -0.303    17.862
ATOM     32  H   UNL d   1      -1.171   2.359 -19.547 +0.01 +0.01    +0.222    17.862
ATOM     33  O   UNL d   1      -0.598  -0.429 -18.448 -0.05 -0.00    -0.303    17.862
ATOM     34  H   UNL d   1      -0.569  -1.392 -18.667 +0.08 -0.01    +0.222    17.862
ATOM     35  O   UNL d   1      -6.786  -2.798 -17.968 -0.17 +0.04    -0.278    17.862
ATOM     36  P   UNL d   1      -8.375  -2.767 -18.100 -0.09 -0.11    +0.473    17.862
ATOM     37  O   UNL d   1      -8.989  -3.944 -18.788 -0.11 +0.08    -0.228    17.862
ATOM     38  O   UNL d   1      -8.824  -2.589 -16.582 -0.14 +0.09    -0.303    17.862
ATOM     39  H   UNL d   1      -8.740  -1.644 -16.331 +0.08 -0.09    +0.222    17.862
ATOM     40  O   UNL d   1      -8.635  -1.336 -18.746 -0.02 +0.06    -0.303    17.862
ATOM     41  H   UNL d   1      -7.931  -0.695 -18.504 +0.05 -0.04    +0.222    17.862
ATOM     42  O   UNL d   1      -5.916  -0.132 -18.761 -0.02 +0.02    -0.278    17.862
ATOM     43  P   UNL d   1      -6.216   0.715 -17.443 -0.03 -0.03    +0.473    17.862
ATOM     44  O   UNL d   1      -6.877   2.039 -17.612 -0.02 +0.01    -0.228    17.862
ATOM     45  O   UNL d   1      -7.036  -0.313 -16.547 -0.13 +0.04    -0.303    17.862
ATOM     46  H   UNL d   1      -7.283  -1.112 -17.053 +0.08 -0.03    +0.222    17.862
ATOM     47  O   UNL d   1      -4.798   0.740 -16.694 -0.05 +0.01    -0.303    17.862
ATOM     48  H   UNL d   1      -4.096   0.958 -17.341 +0.05 -0.00    +0.222    17.862
TER
ENDMDL
MODEL       13
USER    Run = 13
USER    Cluster Rank = 56
USER    Number of conformations in this cluster = 1
USER  
USER    RMSD from reference structure       = 14.439 A
USER  
USER    Estimated Free Energy of Binding    =   +3.10 kcal/mol  [=(1)+(2)+(3)-(4)]
USER    
USER    (1) Final Intermolecular Energy     =   -4.06 kcal/mol
USER        vdW + Hbond + desolv Energy     =   -3.91 kcal/mol
USER        Electrostatic Energy            =   -0.15 kcal/mol
USER    (2) Final Total Internal Energy     =  -12.10 kcal/mol
USER    (3) Torsional Free Energy           =   +7.16 kcal/mol
USER    (4) Unbound System's Energy  [=(2)] =  -12.10 kcal/mol
USER    
USER    
USER  
USER    DPF = D:/Protein_go_brrr/autodock/final/AncA/IHP/dock.dpf
USER    NEWDPF move	IHP_ideal_opt.pdbqt
USER    NEWDPF about	0.035000 0.082000 -0.065000
USER    NEWDPF tran0	-3.419649 4.204296 -15.170418
USER    NEWDPF axisangle0	0.555399 -0.772207 -0.308591 74.374579
USER    NEWDPF quaternion0	0.335695 -0.466739 -0.186519 0.796664
USER    NEWDPF dihe0	-154.53 154.27 39.18 49.10 6.44 -154.84 -11.43 -80.93 -111.20 81.00 55.71 -153.54 -102.24 164.06 -1.72 98.87 -1.79 144.18 1.90 -24.82 140.70 -29.93 121.68 0.83 
USER  
USER                              x       y       z    vdW   Elec        q     RMS 
ATOM      1  C   UNL d   1      -1.768   4.119 -15.671 -0.03 +0.01    +0.194    14.439
ATOM      2  C   UNL d   1      -2.123   3.310 -14.421 -0.07 +0.01    +0.194    14.439
ATOM      3  C   UNL d   1      -3.033   4.098 -13.476 -0.08 +0.03    +0.194    14.439
ATOM      4  C   UNL d   1      -4.270   4.666 -14.167 -0.05 +0.03    +0.194    14.439
ATOM      5  C   UNL d   1      -3.975   5.382 -15.479 -0.01 +0.03    +0.194    14.439
ATOM      6  C   UNL d   1      -3.016   4.622 -16.397 -0.00 +0.02    +0.194    14.439
ATOM      7  O   UNL d   1      -1.067   3.260 -16.573 -0.03 -0.01    -0.278    14.439
ATOM      8  P   UNL d   1       0.414   3.667 -17.013 -0.03 +0.03    +0.473    14.439
ATOM      9  O   UNL d   1       0.564   5.063 -17.507 -0.01 -0.03    -0.228    14.439
ATOM     10  O   UNL d   1       1.299   3.360 -15.721 -0.09 +0.02    -0.303    14.439
ATOM     11  H   UNL d   1       1.081   2.472 -15.380 -0.49 -0.08    +0.222    14.439
ATOM     12  O   UNL d   1       0.877   2.524 -18.013 -0.04 -0.02    -0.303    14.439
ATOM     13  H   UNL d   1       0.932   2.828 -18.947 +0.02 +0.02    +0.222    14.439
ATOM     14  O   UNL d   1      -2.803   2.113 -14.817 -0.06 -0.00    -0.278    14.439
ATOM     15  P   UNL d   1      -1.975   0.748 -14.702 -0.20 -0.02    +0.473    14.439
ATOM     16  O   UNL d   1      -2.159  -0.246 -15.806 -0.20 +0.00    -0.228    14.439
ATOM     17  O   UNL d   1      -0.463   1.224 -14.546 -0.19 +0.02    -0.303    14.439
ATOM     18  H   UNL d   1      -0.195   1.793 -15.292 -0.07 -0.02    +0.222    14.439
ATOM     19  O   UNL d   1      -2.294   0.213 -13.238 -0.32 +0.04    -0.303    14.439
ATOM     20  H   UNL d   1      -2.757   0.883 -12.702 +0.15 -0.01    +0.222    14.439
ATOM     21  O   UNL d   1      -2.577   5.546 -17.391 +0.00 -0.03    -0.278    14.439
ATOM     22  P   UNL d   1      -2.284   7.062 -16.987 +0.01 +0.06    +0.473    14.439
ATOM     23  O   UNL d   1      -1.848   7.348 -15.590 -0.00 -0.04    -0.228    14.439
ATOM     24  O   UNL d   1      -1.250   7.504 -18.113 +0.00 -0.03    -0.303    14.439
ATOM     25  H   UNL d   1      -0.458   6.911 -18.054 +0.00 +0.03    +0.222    14.439
ATOM     26  O   UNL d   1      -3.628   7.792 -17.468 +0.00 -0.04    -0.303    14.439
ATOM     27  H   UNL d   1      -4.379   7.169 -17.388 +0.00 +0.03    +0.222    14.439
ATOM     28  O   UNL d   1      -3.529   3.189 -12.502 -0.14 -0.03    -0.278    14.439
ATOM     29  P   UNL d   1      -2.631   2.783 -11.250 -0.10 +0.05    +0.473    14.439
ATOM     30  O   UNL d   1      -2.468   3.833 -10.212 -0.23 -0.04    -0.228    14.439
ATOM     31  O   UNL d   1      -3.365   1.431 -10.808 -0.38 -0.01    -0.303    14.439
ATOM     32  H   UNL d   1      -3.611   0.928 -11.618 +0.12 -0.02    +0.222    14.439
ATOM     33  O   UNL d   1      -1.304   2.250 -11.950 -0.18 -0.02    -0.303    14.439
ATOM     34  H   UNL d   1      -1.514   1.986 -12.879 +0.13 +0.00    +0.222    14.439
ATOM     35  O   UNL d   1      -5.225   5.473 -16.160 -0.00 -0.03    -0.278    14.439
ATOM     36  P   UNL d   1      -5.511   4.568 -17.441 +0.01 +0.02    +0.473    14.439
ATOM     37  O   UNL d   1      -5.063   3.144 -17.338 -0.01 -0.00    -0.228    14.439
ATOM     38  O   UNL d   1      -7.083   4.748 -17.624 -0.00 -0.01    -0.303    14.439
ATOM     39  H   UNL d   1      -7.375   4.241 -18.412 +0.01 +0.00    +0.222    14.439
ATOM     40  O   UNL d   1      -4.887   5.437 -18.618 +0.00 -0.02    -0.303    14.439
ATOM     41  H   UNL d   1      -4.045   5.866 -18.347 +0.00 +0.02    +0.222    14.439
ATOM     42  O   UNL d   1      -4.835   5.634 -13.277 -0.10 -0.10    -0.278    14.439
ATOM     43  P   UNL d   1      -6.227   5.310 -12.567 -0.11 +0.17    +0.473    14.439
ATOM     44  O   UNL d   1      -6.896   6.418 -11.830 -0.24 -0.13    -0.228    14.439
ATOM     45  O   UNL d   1      -7.092   4.704 -13.757 -0.72 -0.08    -0.303    14.439
ATOM     46  H   UNL d   1      -6.705   4.922 -14.629 +0.05 +0.04    +0.222    14.439
ATOM     47  O   UNL d   1      -5.901   4.001 -11.701 -0.35 -0.06    -0.303    14.439
ATOM     48  H   UNL d   1      -4.943   3.981 -11.495 +0.12 +0.05    +0.222    14.439
TER
ENDMDL
MODEL       52
USER    Run = 52
USER    Cluster Rank = 57
USER    Number of conformations in this cluster = 3
USER  
USER    RMSD from reference structure       = 16.488 A
USER  
USER    Estimated Free Energy of Binding    =   +3.10 kcal/mol  [=(1)+(2)+(3)-(4)]
USER    
USER    (1) Final Intermolecular Energy     =   -4.05 kcal/mol
USER        vdW + Hbond + desolv Energy     =   -3.66 kcal/mol
USER        Electrostatic Energy            =   -0.40 kcal/mol
USER    (2) Final Total Internal Energy     =  -11.37 kcal/mol
USER    (3) Torsional Free Energy           =   +7.16 kcal/mol
USER    (4) Unbound System's Energy  [=(2)] =  -11.37 kcal/mol
USER    
USER    
USER  
USER    DPF = D:/Protein_go_brrr/autodock/final/AncA/IHP/dock.dpf
USER    NEWDPF move	IHP_ideal_opt.pdbqt
USER    NEWDPF about	0.035000 0.082000 -0.065000
USER    NEWDPF tran0	-5.314001 -14.882458 11.429870
USER    NEWDPF axisangle0	0.056160 -0.523609 -0.850106 90.390665
USER    NEWDPF quaternion0	0.039847 -0.371507 -0.603161 0.704692
USER    NEWDPF dihe0	63.15 40.26 157.38 7.53 72.01 159.79 -128.81 -79.91 -27.66 72.71 91.26 -62.99 156.28 -165.15 -79.21 -153.75 -1.02 47.22 43.54 1.21 166.11 4.68 137.33 180.00 
USER  
USER                              x       y       z    vdW   Elec        q     RMS 
ATOM      1  C   UNL d   1      -4.161 -13.695  10.936 -0.10 +0.02    +0.194    16.488
ATOM      2  C   UNL d   1      -3.625 -15.121  11.068 -0.02 +0.04    +0.194    16.488
ATOM      3  C   UNL d   1      -4.147 -15.808  12.332 -0.00 +0.03    +0.194    16.488
ATOM      4  C   UNL d   1      -5.667 -15.748  12.464 -0.01 +0.03    +0.194    16.488
ATOM      5  C   UNL d   1      -6.257 -14.364  12.226 -0.08 +0.02    +0.194    16.488
ATOM      6  C   UNL d   1      -5.689 -13.652  10.996 -0.14 +0.02    +0.194    16.488
ATOM      7  O   UNL d   1      -3.771 -13.188   9.657 -0.12 -0.06    -0.278    16.488
ATOM      8  P   UNL d   1      -2.274 -12.662   9.473 -0.18 +0.12    +0.473    16.488
ATOM      9  O   UNL d   1      -2.099 -11.608   8.437 -0.33 -0.05    -0.228    16.488
ATOM     10  O   UNL d   1      -1.851 -12.182  10.935 -0.17 +0.07    -0.303    16.488
ATOM     11  H   UNL d   1      -2.014 -11.225  11.025 -0.39 -0.36    +0.222    16.488
ATOM     12  O   UNL d   1      -1.396 -13.972   9.285 -0.16 -0.19    -0.303    16.488
ATOM     13  H   UNL d   1      -1.913 -14.802   9.395 +0.05 +0.10    +0.222    16.488
ATOM     14  O   UNL d   1      -4.041 -15.884   9.928 -0.01 -0.08    -0.278    16.488
ATOM     15  P   UNL d   1      -2.915 -16.764   9.206 +0.01 +0.15    +0.473    16.488
ATOM     16  O   UNL d   1      -2.469 -16.306   7.853 -0.02 -0.10    -0.228    16.488
ATOM     17  O   UNL d   1      -1.725 -16.815  10.264 +0.00 -0.09    -0.303    16.488
ATOM     18  H   UNL d   1      -2.008 -17.248  11.092 +0.01 +0.06    +0.222    16.488
ATOM     19  O   UNL d   1      -3.469 -18.254   9.278 +0.00 -0.08    -0.303    16.488
ATOM     20  H   UNL d   1      -3.717 -18.502  10.188 +0.00 +0.05    +0.222    16.488
ATOM     21  O   UNL d   1      -6.065 -12.281  11.104 -0.25 +0.00    -0.278    16.488
ATOM     22  P   UNL d   1      -5.512 -11.400  12.314 -0.24 -0.07    +0.473    16.488
ATOM     23  O   UNL d   1      -5.622 -11.953  13.695 -0.11 +0.00    -0.228    16.488
ATOM     24  O   UNL d   1      -4.026 -11.087  11.836 -0.25 +0.21    -0.303    16.488
ATOM     25  H   UNL d   1      -3.919 -11.436  10.915 +0.10 -0.10    +0.222    16.488
ATOM     26  O   UNL d   1      -6.244  -9.997  12.057 -0.29 +0.02    -0.303    16.488
ATOM     27  H   UNL d   1      -6.618  -9.990  11.152 -0.41 -0.04    +0.222    16.488
ATOM     28  O   UNL d   1      -3.832 -17.190  12.229 +0.00 -0.05    -0.278    16.488
ATOM     29  P   UNL d   1      -2.816 -17.862  13.256 +0.00 +0.08    +0.473    16.488
ATOM     30  O   UNL d   1      -2.558 -19.310  13.047 +0.00 -0.03    -0.228    16.488
ATOM     31  O   UNL d   1      -1.568 -16.872  13.102 +0.00 -0.06    -0.303    16.488
ATOM     32  H   UNL d   1      -1.098 -17.088  12.264 +0.01 +0.05    +0.222    16.488
ATOM     33  O   UNL d   1      -3.432 -17.436  14.661 +0.00 -0.04    -0.303    16.488
ATOM     34  H   UNL d   1      -4.013 -16.647  14.531 +0.00 +0.03    +0.222    16.488
ATOM     35  O   UNL d   1      -7.647 -14.571  11.986 -0.09 -0.05    -0.278    16.488
ATOM     36  P   UNL d   1      -8.186 -14.764  10.497 -0.10 +0.10    +0.473    16.488
ATOM     37  O   UNL d   1      -7.366 -15.661   9.625 -0.05 -0.06    -0.228    16.488
ATOM     38  O   UNL d   1      -9.672 -15.279  10.752 -0.06 -0.06    -0.303    16.488
ATOM     39  H   UNL d   1      -9.688 -16.258  10.684 +0.03 +0.04    +0.222    16.488
ATOM     40  O   UNL d   1      -8.380 -13.263  10.009 -0.24 -0.05    -0.303    16.488
ATOM     41  H   UNL d   1      -7.732 -12.656  10.431 -0.06 +0.00    +0.222    16.488
ATOM     42  O   UNL d   1      -5.980 -16.113  13.812 -0.01 -0.03    -0.278    16.488
ATOM     43  P   UNL d   1      -5.579 -15.118  14.993 -0.00 +0.05    +0.473    16.488
ATOM     44  O   UNL d   1      -6.603 -14.132  15.438 -0.02 -0.02    -0.228    16.488
ATOM     45  O   UNL d   1      -5.093 -16.113  16.137 -0.00 -0.03    -0.303    16.488
ATOM     46  H   UNL d   1      -4.882 -16.997  15.776 +0.00 +0.02    +0.222    16.488
ATOM     47  O   UNL d   1      -4.190 -14.495  14.492 -0.00 -0.02    -0.303    16.488
ATOM     48  H   UNL d   1      -4.301 -13.532  14.351 +0.03 +0.01    +0.222    16.488
TER
ENDMDL
MODEL       90
USER    Run = 90
USER    Cluster Rank = 58
USER    Number of conformations in this cluster = 2
USER  
USER    RMSD from reference structure       = 16.188 A
USER  
USER    Estimated Free Energy of Binding    =   +3.12 kcal/mol  [=(1)+(2)+(3)-(4)]
USER    
USER    (1) Final Intermolecular Energy     =   -4.04 kcal/mol
USER        vdW + Hbond + desolv Energy     =   -3.95 kcal/mol
USER        Electrostatic Energy            =   -0.08 kcal/mol
USER    (2) Final Total Internal Energy     =  -15.40 kcal/mol
USER    (3) Torsional Free Energy           =   +7.16 kcal/mol
USER    (4) Unbound System's Energy  [=(2)] =  -15.40 kcal/mol
USER    
USER    
USER  
USER    DPF = D:/Protein_go_brrr/autodock/final/AncA/IHP/dock.dpf
USER    NEWDPF move	IHP_ideal_opt.pdbqt
USER    NEWDPF about	0.035000 0.082000 -0.065000
USER    NEWDPF tran0	-17.926182 8.615404 -0.016712
USER    NEWDPF axisangle0	-0.206510 0.697700 0.685980 173.796056
USER    NEWDPF quaternion0	-0.206207 0.696678 0.684975 0.054113
USER    NEWDPF dihe0	119.30 92.14 58.38 50.70 25.17 -94.71 -17.14 -67.54 96.65 77.40 160.57 179.51 177.65 161.56 -42.04 89.61 111.48 32.31 16.44 -16.05 174.15 -22.51 -12.33 -6.60 
USER  
USER                              x       y       z    vdW   Elec        q     RMS 
ATOM      1  C   UNL d   1     -19.159   8.921  -1.188 -0.08 +0.01    +0.194    16.188
ATOM      2  C   UNL d   1     -17.721   9.047  -1.694 -0.13 -0.01    +0.194    16.188
ATOM      3  C   UNL d   1     -16.831   9.787  -0.694 -0.14 -0.01    +0.194    16.188
ATOM      4  C   UNL d   1     -16.898   9.205   0.716 -0.21 -0.01    +0.194    16.188
ATOM      5  C   UNL d   1     -18.314   8.956   1.218 -0.12 +0.00    +0.194    16.188
ATOM      6  C   UNL d   1     -19.222   8.270   0.195 -0.11 +0.01    +0.194    16.188
ATOM      7  O   UNL d   1     -19.877   8.075  -2.089 -0.06 -0.02    -0.278    16.188
ATOM      8  P   UNL d   1     -20.932   8.747  -3.083 -0.00 +0.03    +0.473    16.188
ATOM      9  O   UNL d   1     -22.272   8.101  -3.112 -0.01 -0.02    -0.228    16.188
ATOM     10  O   UNL d   1     -20.980  10.273  -2.622 -0.00 -0.02    -0.303    16.188
ATOM     11  H   UNL d   1     -20.930  10.322  -1.649 +0.01 +0.01    +0.222    16.188
ATOM     12  O   UNL d   1     -20.179   8.846  -4.479 -0.01 -0.01    -0.303    16.188
ATOM     13  H   UNL d   1     -19.721   8.012  -4.730 +0.03 +0.01    +0.222    16.188
ATOM     14  O   UNL d   1     -17.182   7.735  -1.901 -0.20 +0.03    -0.278    16.188
ATOM     15  P   UNL d   1     -16.810   7.343  -3.408 -0.19 -0.04    +0.473    16.188
ATOM     16  O   UNL d   1     -17.073   5.929  -3.820 -0.24 +0.03    -0.228    16.188
ATOM     17  O   UNL d   1     -17.607   8.402  -4.292 -0.06 +0.00    -0.303    16.188
ATOM     18  H   UNL d   1     -18.482   8.597  -3.903 +0.05 +0.00    +0.222    16.188
ATOM     19  O   UNL d   1     -15.310   7.842  -3.588 -0.25 +0.05    -0.303    16.188
ATOM     20  H   UNL d   1     -15.015   8.379  -2.830 -0.42 -0.09    +0.222    16.188
ATOM     21  O   UNL d   1     -20.559   8.418   0.666 -0.03 -0.03    -0.278    16.188
ATOM     22  P   UNL d   1     -21.265   9.847   0.612 -0.00 +0.03    +0.473    16.188
ATOM     23  O   UNL d   1     -20.418  11.040   0.320 -0.00 -0.01    -0.228    16.188
ATOM     24  O   UNL d   1     -22.439   9.591  -0.432 -0.00 -0.02    -0.303    16.188
ATOM     25  H   UNL d   1     -22.081   9.033  -1.168 +0.01 +0.02    +0.222    16.188
ATOM     26  O   UNL d   1     -22.059   9.872   2.004 -0.00 -0.02    -0.303    16.188
ATOM     27  H   UNL d   1     -21.490  10.273   2.692 +0.00 +0.02    +0.222    16.188
ATOM     28  O   UNL d   1     -15.483   9.614  -1.110 -0.12 +0.06    -0.278    16.188
ATOM     29  P   UNL d   1     -14.823  10.630  -2.144 -0.11 -0.03    +0.473    16.188
ATOM     30  O   UNL d   1     -14.697  12.033  -1.672 -0.04 +0.00    -0.228    16.188
ATOM     31  O   UNL d   1     -13.465   9.850  -2.474 -0.23 +0.03    -0.303    16.188
ATOM     32  H   UNL d   1     -13.647   8.882  -2.458 -0.25 -0.06    +0.222    16.188
ATOM     33  O   UNL d   1     -15.695  10.387  -3.454 -0.06 +0.01    -0.303    16.188
ATOM     34  H   UNL d   1     -16.284   9.606  -3.307 +0.06 -0.01    +0.222    16.188
ATOM     35  O   UNL d   1     -18.181   8.065   2.324 -0.14 +0.00    -0.278    16.188
ATOM     36  P   UNL d   1     -18.655   8.514   3.780 -0.06 +0.03    +0.473    16.188
ATOM     37  O   UNL d   1     -19.004   7.402   4.717 -0.07 -0.03    -0.228    16.188
ATOM     38  O   UNL d   1     -17.430   9.413   4.258 -0.06 -0.01    -0.303    16.188
ATOM     39  H   UNL d   1     -16.981   9.789   3.471 +0.05 +0.01    +0.222    16.188
ATOM     40  O   UNL d   1     -19.799   9.570   3.455 -0.01 -0.02    -0.303    16.188
ATOM     41  H   UNL d   1     -20.315   9.313   2.658 +0.02 +0.02    +0.222    16.188
ATOM     42  O   UNL d   1     -16.305  10.171   1.592 -0.10 +0.00    -0.278    16.188
ATOM     43  P   UNL d   1     -14.992   9.772   2.404 -0.18 -0.00    +0.473    16.188
ATOM     44  O   UNL d   1     -13.698   9.784   1.666 -0.18 -0.00    -0.228    16.188
ATOM     45  O   UNL d   1     -15.039  10.759   3.651 -0.05 -0.01    -0.303    16.188
ATOM     46  H   UNL d   1     -15.560  10.382   4.387 +0.04 +0.01    +0.222    16.188
ATOM     47  O   UNL d   1     -15.389   8.374   3.080 -0.18 +0.03    -0.303    16.188
ATOM     48  H   UNL d   1     -16.314   8.153   2.844 -0.12 -0.04    +0.222    16.188
TER
ENDMDL
MODEL       36
USER    Run = 36
USER    Cluster Rank = 59
USER    Number of conformations in this cluster = 2
USER  
USER    RMSD from reference structure       = 13.028 A
USER  
USER    Estimated Free Energy of Binding    =   +3.15 kcal/mol  [=(1)+(2)+(3)-(4)]
USER    
USER    (1) Final Intermolecular Energy     =   -4.01 kcal/mol
USER        vdW + Hbond + desolv Energy     =   -3.68 kcal/mol
USER        Electrostatic Energy            =   -0.33 kcal/mol
USER    (2) Final Total Internal Energy     =  -14.25 kcal/mol
USER    (3) Torsional Free Energy           =   +7.16 kcal/mol
USER    (4) Unbound System's Energy  [=(2)] =  -14.25 kcal/mol
USER    
USER    
USER  
USER    DPF = D:/Protein_go_brrr/autodock/final/AncA/IHP/dock.dpf
USER    NEWDPF move	IHP_ideal_opt.pdbqt
USER    NEWDPF about	0.035000 0.082000 -0.065000
USER    NEWDPF tran0	4.066421 -15.939475 -4.687100
USER    NEWDPF axisangle0	0.523456 0.081764 0.848120 128.071916
USER    NEWDPF quaternion0	0.470623 0.073511 0.762519 0.437807
USER    NEWDPF dihe0	-105.12 -1.72 146.79 2.09 3.16 174.28 -113.18 -9.36 -179.34 27.40 -121.50 179.97 65.10 179.78 174.82 169.15 93.40 160.74 43.20 9.29 178.08 13.40 10.01 179.81 
USER  
USER                              x       y       z    vdW   Elec        q     RMS 
ATOM      1  C   UNL d   1       3.711 -15.737  -3.009 -0.02 +0.07    +0.194    13.028
ATOM      2  C   UNL d   1       3.094 -14.696  -3.945 -0.06 +0.07    +0.194    13.028
ATOM      3  C   UNL d   1       4.091 -14.229  -5.008 -0.12 +0.07    +0.194    13.028
ATOM      4  C   UNL d   1       4.740 -15.380  -5.772 -0.13 +0.10    +0.194    13.028
ATOM      5  C   UNL d   1       5.268 -16.497  -4.880 -0.07 +0.11    +0.194    13.028
ATOM      6  C   UNL d   1       4.294 -16.922  -3.779 -0.02 +0.09    +0.194    13.028
ATOM      7  O   UNL d   1       2.676 -16.245  -2.164 -0.00 -0.11    -0.278    13.028
ATOM      8  P   UNL d   1       2.223 -15.369  -0.907 +0.01 +0.19    +0.473    13.028
ATOM      9  O   UNL d   1       0.812 -14.898  -0.943 -0.03 -0.12    -0.228    13.028
ATOM     10  O   UNL d   1       2.544 -16.298   0.349 -0.00 -0.11    -0.303    13.028
ATOM     11  H   UNL d   1       3.408 -16.050   0.727 +0.01 +0.07    +0.222    13.028
ATOM     12  O   UNL d   1       3.329 -14.236  -0.773 -0.01 -0.09    -0.303    13.028
ATOM     13  H   UNL d   1       4.247 -14.585  -0.831 +0.03 +0.06    +0.222    13.028
ATOM     14  O   UNL d   1       1.962 -15.275  -4.605 -0.06 -0.14    -0.278    13.028
ATOM     15  P   UNL d   1       0.689 -14.325  -4.808 -0.15 +0.27    +0.473    13.028
ATOM     16  O   UNL d   1      -0.615 -14.823  -4.267 -0.16 -0.21    -0.228    13.028
ATOM     17  O   UNL d   1       1.135 -12.937  -4.165 -0.16 -0.14    -0.303    13.028
ATOM     18  H   UNL d   1       1.999 -12.648  -4.517 +0.09 +0.09    +0.222    13.028
ATOM     19  O   UNL d   1       0.698 -13.976  -6.360 -0.30 -0.15    -0.303    13.028
ATOM     20  H   UNL d   1       1.534 -13.553  -6.629 +0.11 +0.09    +0.222    13.028
ATOM     21  O   UNL d   1       5.042 -17.700  -2.846 -0.00 -0.11    -0.278    13.028
ATOM     22  P   UNL d   1       6.033 -16.977  -1.827 +0.01 +0.12    +0.473    13.028
ATOM     23  O   UNL d   1       7.180 -17.760  -1.283 +0.00 -0.05    -0.228    13.028
ATOM     24  O   UNL d   1       6.443 -15.672  -2.642 -0.00 -0.06    -0.303    13.028
ATOM     25  H   UNL d   1       6.921 -15.959  -3.462 +0.02 +0.05    +0.222    13.028
ATOM     26  O   UNL d   1       5.011 -16.383  -0.744 +0.00 -0.08    -0.303    13.028
ATOM     27  H   UNL d   1       4.097 -16.623  -0.999 +0.00 +0.07    +0.222    13.028
ATOM     28  O   UNL d   1       3.364 -13.492  -5.982 -0.23 -0.10    -0.278    13.028
ATOM     29  P   UNL d   1       3.783 -11.996  -6.337 -0.30 +0.09    +0.473    13.028
ATOM     30  O   UNL d   1       3.641 -11.613  -7.766 -0.70 -0.07    -0.228    13.028
ATOM     31  O   UNL d   1       2.887 -11.197  -5.279 -0.23 -0.08    -0.303    13.028
ATOM     32  H   UNL d   1       1.938 -11.384  -5.466 +0.18 +0.09    +0.222    13.028
ATOM     33  O   UNL d   1       5.242 -11.899  -5.707 -0.13 +0.02    -0.303    13.028
ATOM     34  H   UNL d   1       5.773 -12.677  -6.007 -0.09 -0.01    +0.222    13.028
ATOM     35  O   UNL d   1       5.450 -17.623  -5.737 -0.17 -0.33    -0.278    13.028
ATOM     36  P   UNL d   1       6.717 -18.575  -5.556 -0.01 +0.54    +0.473    13.028
ATOM     37  O   UNL d   1       6.442 -20.041  -5.666 -0.06 -0.26    -0.228    13.028
ATOM     38  O   UNL d   1       7.710 -18.010  -6.665 -0.57 -0.45    -0.303    13.028
ATOM     39  H   UNL d   1       8.466 -17.566  -6.223 +0.02 +0.16    +0.222    13.028
ATOM     40  O   UNL d   1       7.338 -18.058  -4.186 -0.01 -0.15    -0.303    13.028
ATOM     41  H   UNL d   1       6.963 -17.188  -3.922 +0.02 +0.09    +0.222    13.028
ATOM     42  O   UNL d   1       5.864 -14.833  -6.470 -0.13 -0.13    -0.278    13.028
ATOM     43  P   UNL d   1       7.124 -14.332  -5.632 -0.05 +0.08    +0.473    13.028
ATOM     44  O   UNL d   1       7.973 -13.267  -6.237 -0.18 +0.02    -0.228    13.028
ATOM     45  O   UNL d   1       6.477 -13.932  -4.234 -0.05 -0.03    -0.303    13.028
ATOM     46  H   UNL d   1       7.159 -13.822  -3.542 +0.06 -0.01    +0.222    13.028
ATOM     47  O   UNL d   1       7.883 -15.694  -5.261 -0.02 -0.09    -0.303    13.028
ATOM     48  H   UNL d   1       7.379 -16.453  -5.622 +0.03 +0.13    +0.222    13.028
TER
ENDMDL
MODEL       42
USER    Run = 42
USER    Cluster Rank = 60
USER    Number of conformations in this cluster = 1
USER  
USER    RMSD from reference structure       = 11.019 A
USER  
USER    Estimated Free Energy of Binding    =   +3.16 kcal/mol  [=(1)+(2)+(3)-(4)]
USER    
USER    (1) Final Intermolecular Energy     =   -4.00 kcal/mol
USER        vdW + Hbond + desolv Energy     =   -3.77 kcal/mol
USER        Electrostatic Energy            =   -0.23 kcal/mol
USER    (2) Final Total Internal Energy     =  -14.48 kcal/mol
USER    (3) Torsional Free Energy           =   +7.16 kcal/mol
USER    (4) Unbound System's Energy  [=(2)] =  -14.48 kcal/mol
USER    
USER    
USER  
USER    DPF = D:/Protein_go_brrr/autodock/final/AncA/IHP/dock.dpf
USER    NEWDPF move	IHP_ideal_opt.pdbqt
USER    NEWDPF about	0.035000 0.082000 -0.065000
USER    NEWDPF tran0	6.194256 -10.162128 8.775673
USER    NEWDPF axisangle0	0.417573 0.340760 0.842327 170.738641
USER    NEWDPF quaternion0	0.416210 0.339648 0.839578 0.080733
USER    NEWDPF dihe0	-149.52 7.50 112.97 93.62 8.94 154.28 -76.40 30.18 156.58 16.93 112.94 151.88 18.73 96.48 152.51 9.61 170.52 -140.26 -0.45 -4.41 -23.73 -5.58 170.57 2.26 
USER  
USER                              x       y       z    vdW   Elec        q     RMS 
ATOM      1  C   UNL d   1       5.530  -8.802   9.608 -0.13 +0.05    +0.194    11.019
ATOM      2  C   UNL d   1       5.755  -8.613   8.107 -0.14 +0.04    +0.194    11.019
ATOM      3  C   UNL d   1       7.103  -9.183   7.660 -0.06 +0.04    +0.194    11.019
ATOM      4  C   UNL d   1       7.320 -10.629   8.098 -0.02 +0.05    +0.194    11.019
ATOM      5  C   UNL d   1       6.996 -10.888   9.564 -0.02 +0.06    +0.194    11.019
ATOM      6  C   UNL d   1       5.677 -10.265  10.027 -0.07 +0.09    +0.194    11.019
ATOM      7  O   UNL d   1       4.190  -8.405   9.911 -0.17 -0.08    -0.278    11.019
ATOM      8  P   UNL d   1       3.967  -7.261  11.004 -0.27 -0.02    +0.473    11.019
ATOM      9  O   UNL d   1       4.382  -5.895  10.582 -0.59 +0.02    -0.228    11.019
ATOM     10  O   UNL d   1       2.415  -7.364  11.360 -0.37 +0.05    -0.303    11.019
ATOM     11  H   UNL d   1       2.196  -8.283  11.602 +0.10 -0.01    +0.222    11.019
ATOM     12  O   UNL d   1       4.649  -7.816  12.328 -0.10 +0.02    -0.303    11.019
ATOM     13  H   UNL d   1       4.523  -8.784  12.450 +0.07 +0.03    +0.222    11.019
ATOM     14  O   UNL d   1       4.714  -9.288   7.389 -0.14 -0.11    -0.278    11.019
ATOM     15  P   UNL d   1       3.913  -8.421   6.307 -0.23 +0.13    +0.473    11.019
ATOM     16  O   UNL d   1       3.327  -9.167   5.149 -0.25 -0.04    -0.228    11.019
ATOM     17  O   UNL d   1       2.814  -7.650   7.164 -0.34 -0.08    -0.303    11.019
ATOM     18  H   UNL d   1       3.041  -7.655   8.114 +0.13 +0.06    +0.222    11.019
ATOM     19  O   UNL d   1       4.909  -7.240   5.928 -0.24 -0.06    -0.303    11.019
ATOM     20  H   UNL d   1       5.839  -7.532   5.951 +0.14 +0.05    +0.222    11.019
ATOM     21  O   UNL d   1       5.685 -10.294  11.452 -0.03 -0.10    -0.278    11.019
ATOM     22  P   UNL d   1       4.471 -10.967  12.238 -0.03 +0.33    +0.473    11.019
ATOM     23  O   UNL d   1       4.486 -10.924  13.729 -0.01 -0.07    -0.228    11.019
ATOM     24  O   UNL d   1       3.215 -10.262  11.562 -0.02 -0.37    -0.303    11.019
ATOM     25  H   UNL d   1       3.316  -9.282  11.671 +0.07 +0.11    +0.222    11.019
ATOM     26  O   UNL d   1       4.426 -12.427  11.577 -0.61 -0.37    -0.303    11.019
ATOM     27  H   UNL d   1       4.889 -12.405  10.715 +0.01 +0.24    +0.222    11.019
ATOM     28  O   UNL d   1       7.104  -9.215   6.238 -0.04 -0.08    -0.278    11.019
ATOM     29  P   UNL d   1       7.944  -8.145   5.410 -0.08 +0.14    +0.473    11.019
ATOM     30  O   UNL d   1       8.378  -6.944   6.169 -0.22 -0.05    -0.228    11.019
ATOM     31  O   UNL d   1       9.095  -9.088   4.822 -0.07 -0.15    -0.303    11.019
ATOM     32  H   UNL d   1       9.195  -9.868   5.415 +0.05 +0.10    +0.222    11.019
ATOM     33  O   UNL d   1       7.011  -7.897   4.143 -0.23 -0.09    -0.303    11.019
ATOM     34  H   UNL d   1       6.381  -7.163   4.347 +0.14 +0.05    +0.222    11.019
ATOM     35  O   UNL d   1       6.858 -12.302   9.686 -0.01 -0.10    -0.278    11.019
ATOM     36  P   UNL d   1       5.767 -13.082   8.821 -0.04 +0.25    +0.473    11.019
ATOM     37  O   UNL d   1       5.127 -14.253   9.496 -0.05 -0.14    -0.228    11.019
ATOM     38  O   UNL d   1       4.756 -11.912   8.441 -0.02 -0.25    -0.303    11.019
ATOM     39  H   UNL d   1       5.071 -11.468   7.624 +0.03 +0.13    +0.222    11.019
ATOM     40  O   UNL d   1       6.549 -13.367   7.466 -0.01 -0.11    -0.303    11.019
ATOM     41  H   UNL d   1       7.273 -12.719   7.319 +0.01 +0.07    +0.222    11.019
ATOM     42  O   UNL d   1       8.711 -10.913   7.918 -0.00 -0.07    -0.278    11.019
ATOM     43  P   UNL d   1       9.152 -11.895   6.741 +0.01 +0.14    +0.473    11.019
ATOM     44  O   UNL d   1       9.338 -13.334   7.081 +0.00 -0.06    -0.228    11.019
ATOM     45  O   UNL d   1       8.045 -11.627   5.630 +0.00 -0.10    -0.303    11.019
ATOM     46  H   UNL d   1       7.821 -10.677   5.570 +0.04 +0.08    +0.222    11.019
ATOM     47  O   UNL d   1      10.430 -11.162   6.111 -0.00 -0.11    -0.303    11.019
ATOM     48  H   UNL d   1      10.342 -10.194   6.236 +0.03 +0.08    +0.222    11.019
TER
ENDMDL
MODEL       53
USER    Run = 53
USER    Cluster Rank = 61
USER    Number of conformations in this cluster = 1
USER  
USER    RMSD from reference structure       = 17.622 A
USER  
USER    Estimated Free Energy of Binding    =   +3.20 kcal/mol  [=(1)+(2)+(3)-(4)]
USER    
USER    (1) Final Intermolecular Energy     =   -3.96 kcal/mol
USER        vdW + Hbond + desolv Energy     =   -3.88 kcal/mol
USER        Electrostatic Energy            =   -0.08 kcal/mol
USER    (2) Final Total Internal Energy     =  -13.98 kcal/mol
USER    (3) Torsional Free Energy           =   +7.16 kcal/mol
USER    (4) Unbound System's Energy  [=(2)] =  -13.98 kcal/mol
USER    
USER    
USER  
USER    DPF = D:/Protein_go_brrr/autodock/final/AncA/IHP/dock.dpf
USER    NEWDPF move	IHP_ideal_opt.pdbqt
USER    NEWDPF about	0.035000 0.082000 -0.065000
USER    NEWDPF tran0	-15.128883 -0.548400 -12.792247
USER    NEWDPF axisangle0	-0.497128 0.026505 0.867272 169.947350
USER    NEWDPF quaternion0	-0.495216 0.026403 0.863937 0.087613
USER    NEWDPF dihe0	-179.74 8.81 11.53 59.35 6.19 -151.34 18.58 -177.91 124.85 3.82 -2.65 -179.83 47.10 -177.92 -21.86 -126.99 -158.11 161.42 -5.89 -45.29 -20.70 44.06 10.98 -176.65 
USER  
USER                              x       y       z    vdW   Elec        q     RMS 
ATOM      1  C   UNL d   1     -16.540   0.070 -13.574 -0.02 -0.04    +0.194    17.622
ATOM      2  C   UNL d   1     -15.706   1.097 -12.806 -0.03 -0.04    +0.194    17.622
ATOM      3  C   UNL d   1     -15.247   0.555 -11.451 -0.10 -0.04    +0.194    17.622
ATOM      4  C   UNL d   1     -14.547  -0.798 -11.550 -0.15 -0.07    +0.194    17.622
ATOM      5  C   UNL d   1     -15.289  -1.819 -12.404 -0.13 -0.07    +0.194    17.622
ATOM      6  C   UNL d   1     -15.801  -1.260 -13.733 -0.06 -0.08    +0.194    17.622
ATOM      7  O   UNL d   1     -16.780   0.582 -14.887 -0.00 +0.04    -0.278    17.622
ATOM      8  P   UNL d   1     -18.284   0.616 -15.425 +0.01 -0.02    +0.473    17.622
ATOM      9  O   UNL d   1     -18.967   1.933 -15.308 +0.00 +0.00    -0.228    17.622
ATOM     10  O   UNL d   1     -18.168   0.100 -16.930 +0.00 +0.01    -0.303    17.622
ATOM     11  H   UNL d   1     -17.351  -0.422 -17.035 +0.00 -0.02    +0.222    17.622
ATOM     12  O   UNL d   1     -19.006  -0.606 -14.710 +0.00 +0.01    -0.303    17.622
ATOM     13  H   UNL d   1     -18.421  -1.389 -14.601 +0.01 -0.01    +0.222    17.622
ATOM     14  O   UNL d   1     -14.548   1.431 -13.580 -0.06 +0.12    -0.278    17.622
ATOM     15  P   UNL d   1     -14.722   2.599 -14.662 +0.00 -0.11    +0.473    17.622
ATOM     16  O   UNL d   1     -14.406   2.251 -16.083 -0.01 +0.05    -0.228    17.622
ATOM     17  O   UNL d   1     -16.226   3.087 -14.466 +0.00 +0.03    -0.303    17.622
ATOM     18  H   UNL d   1     -16.847   2.525 -14.968 +0.01 -0.02    +0.222    17.622
ATOM     19  O   UNL d   1     -13.907   3.824 -14.059 -0.03 +0.05    -0.303    17.622
ATOM     20  H   UNL d   1     -13.505   3.601 -13.199 +0.05 -0.04    +0.222    17.622
ATOM     21  O   UNL d   1     -16.742  -2.203 -14.241 -0.01 +0.05    -0.278    17.622
ATOM     22  P   UNL d   1     -16.524  -2.837 -15.688 +0.00 -0.08    +0.473    17.622
ATOM     23  O   UNL d   1     -15.238  -2.564 -16.391 -0.03 +0.08    -0.228    17.622
ATOM     24  O   UNL d   1     -16.823  -4.377 -15.417 -0.00 +0.03    -0.303    17.622
ATOM     25  H   UNL d   1     -16.178  -4.701 -14.738 +0.03 -0.03    +0.222    17.622
ATOM     26  O   UNL d   1     -17.855  -2.372 -16.452 +0.00 +0.02    -0.303    17.622
ATOM     27  H   UNL d   1     -18.117  -1.485 -16.130 +0.00 -0.01    +0.222    17.622
ATOM     28  O   UNL d   1     -14.267   1.450 -10.941 -0.13 +0.05    -0.278    17.622
ATOM     29  P   UNL d   1     -14.014   1.558  -9.372 -0.20 +0.00    +0.473    17.622
ATOM     30  O   UNL d   1     -13.491   2.864  -8.896 -0.59 -0.03    -0.228    17.622
ATOM     31  O   UNL d   1     -15.450   1.107  -8.827 -0.03 -0.05    -0.303    17.622
ATOM     32  H   UNL d   1     -15.565   0.145  -9.002 +0.11 +0.02    +0.222    17.622
ATOM     33  O   UNL d   1     -13.113   0.275  -9.091 -0.23 -0.01    -0.303    17.622
ATOM     34  H   UNL d   1     -13.587  -0.318  -8.458 -0.25 +0.01    +0.222    17.622
ATOM     35  O   UNL d   1     -14.333  -2.831 -12.715 -0.03 +0.17    -0.278    17.622
ATOM     36  P   UNL d   1     -14.766  -4.365 -12.746 -0.14 -0.15    +0.473    17.622
ATOM     37  O   UNL d   1     -14.152  -5.230 -11.691 -0.27 +0.09    -0.228    17.622
ATOM     38  O   UNL d   1     -16.353  -4.258 -12.663 -0.04 +0.04    -0.303    17.622
ATOM     39  H   UNL d   1     -16.673  -3.677 -13.386 +0.03 -0.03    +0.222    17.622
ATOM     40  O   UNL d   1     -14.488  -4.767 -14.260 -0.09 +0.09    -0.303    17.622
ATOM     41  H   UNL d   1     -14.719  -4.038 -14.878 +0.04 -0.09    +0.222    17.622
ATOM     42  O   UNL d   1     -14.480  -1.329 -10.222 -0.67 -0.02    -0.278    17.622
ATOM     43  P   UNL d   1     -15.818  -1.863  -9.537 -0.13 +0.02    +0.473    17.622
ATOM     44  O   UNL d   1     -15.891  -1.824  -8.050 -0.39 -0.01    -0.228    17.622
ATOM     45  O   UNL d   1     -16.948  -1.013 -10.267 -0.04 +0.00    -0.303    17.622
ATOM     46  H   UNL d   1     -16.976  -0.094  -9.933 +0.07 +0.01    +0.222    17.622
ATOM     47  O   UNL d   1     -16.018  -3.309 -10.201 -0.13 +0.03    -0.303    17.622
ATOM     48  H   UNL d   1     -15.296  -3.471 -10.843 -0.25 -0.05    +0.222    17.622
TER
ENDMDL
MODEL       33
USER    Run = 33
USER    Cluster Rank = 62
USER    Number of conformations in this cluster = 2
USER  
USER    RMSD from reference structure       = 14.886 A
USER  
USER    Estimated Free Energy of Binding    =   +3.30 kcal/mol  [=(1)+(2)+(3)-(4)]
USER    
USER    (1) Final Intermolecular Energy     =   -3.86 kcal/mol
USER        vdW + Hbond + desolv Energy     =   -3.71 kcal/mol
USER        Electrostatic Energy            =   -0.15 kcal/mol
USER    (2) Final Total Internal Energy     =  -14.75 kcal/mol
USER    (3) Torsional Free Energy           =   +7.16 kcal/mol
USER    (4) Unbound System's Energy  [=(2)] =  -14.75 kcal/mol
USER    
USER    
USER  
USER    DPF = D:/Protein_go_brrr/autodock/final/AncA/IHP/dock.dpf
USER    NEWDPF move	IHP_ideal_opt.pdbqt
USER    NEWDPF about	0.035000 0.082000 -0.065000
USER    NEWDPF tran0	-2.608055 13.900536 9.010341
USER    NEWDPF axisangle0	-0.335015 0.211297 0.918215 -117.094384
USER    NEWDPF quaternion0	-0.285792 0.180251 0.783302 -0.521796
USER    NEWDPF dihe0	160.91 100.43 57.72 5.17 -82.65 83.50 -92.48 -20.23 152.56 -1.65 139.05 169.67 129.84 159.48 -113.62 0.68 113.10 -144.64 9.69 -27.01 149.90 -34.58 -40.32 163.65 
USER  
USER                              x       y       z    vdW   Elec        q     RMS 
ATOM      1  C   UNL d   1      -2.362  15.602   8.838 -0.03 +0.00    +0.194    14.886
ATOM      2  C   UNL d   1      -1.162  14.810   9.360 -0.09 -0.00    +0.194    14.886
ATOM      3  C   UNL d   1      -1.577  13.775  10.408 -0.15 -0.00    +0.194    14.886
ATOM      4  C   UNL d   1      -2.710  12.865   9.938 +0.11 +0.01    +0.194    14.886
ATOM      5  C   UNL d   1      -3.880  13.606   9.305 -0.08 +0.02    +0.194    14.886
ATOM      6  C   UNL d   1      -3.462  14.684   8.302 -0.05 +0.01    +0.194    14.886
ATOM      7  O   UNL d   1      -1.920  16.417   7.750 -0.01 -0.00    -0.278    14.886
ATOM      8  P   UNL d   1      -1.919  18.003   7.941 -0.00 +0.00    +0.473    14.886
ATOM      9  O   UNL d   1      -1.478  18.782   6.752 -0.00 -0.00    -0.228    14.886
ATOM     10  O   UNL d   1      -3.412  18.338   8.393 -0.00 -0.01    -0.303    14.886
ATOM     11  H   UNL d   1      -3.920  17.511   8.485 +0.00 +0.01    +0.222    14.886
ATOM     12  O   UNL d   1      -1.102  18.257   9.280 -0.00 -0.00    -0.303    14.886
ATOM     13  H   UNL d   1      -0.203  17.858   9.264 +0.01 -0.00    +0.222    14.886
ATOM     14  O   UNL d   1      -0.542  14.126   8.264 -0.16 +0.01    -0.278    14.886
ATOM     15  P   UNL d   1       0.832  14.742   7.720 -0.11 -0.04    +0.473    14.886
ATOM     16  O   UNL d   1       1.078  14.642   6.247 -0.15 +0.01    -0.228    14.886
ATOM     17  O   UNL d   1       0.815  16.247   8.242 -0.02 +0.01    -0.303    14.886
ATOM     18  H   UNL d   1      -0.084  16.625   8.195 +0.03 -0.00    +0.222    14.886
ATOM     19  O   UNL d   1       1.952  14.096   8.647 -0.20 +0.05    -0.303    14.886
ATOM     20  H   UNL d   1       1.769  14.248   9.593 +0.05 -0.03    +0.222    14.886
ATOM     21  O   UNL d   1      -4.609  15.497   8.069 -0.01 -0.02    -0.278    14.886
ATOM     22  P   UNL d   1      -5.464  16.034   9.304 +0.00 +0.03    +0.473    14.886
ATOM     23  O   UNL d   1      -6.497  15.131   9.891 -0.00 -0.02    -0.228    14.886
ATOM     24  O   UNL d   1      -4.324  16.490  10.316 -0.00 -0.01    -0.303    14.886
ATOM     25  H   UNL d   1      -4.660  16.359  11.239 +0.00 +0.01    +0.222    14.886
ATOM     26  O   UNL d   1      -5.994  17.440   8.747 -0.00 -0.01    -0.303    14.886
ATOM     27  H   UNL d   1      -5.354  18.142   8.982 +0.00 +0.01    +0.222    14.886
ATOM     28  O   UNL d   1      -0.466  12.915  10.624 -0.24 +0.02    -0.278    14.886
ATOM     29  P   UNL d   1       0.774  13.406  11.494 -0.15 -0.06    +0.473    14.886
ATOM     30  O   UNL d   1       0.979  14.876  11.545 -0.06 +0.01    -0.228    14.886
ATOM     31  O   UNL d   1       0.454  12.669  12.878 -0.11 +0.05    -0.303    14.886
ATOM     32  H   UNL d   1      -0.514  12.731  13.050 +0.04 -0.02    +0.222    14.886
ATOM     33  O   UNL d   1       1.966  12.534  10.898 -0.31 +0.09    -0.303    14.886
ATOM     34  H   UNL d   1       1.853  12.463   9.919 -0.48 -0.11    +0.222    14.886
ATOM     35  O   UNL d   1      -4.616  12.622   8.581 -0.08 -0.06    -0.278    14.886
ATOM     36  P   UNL d   1      -5.799  11.820   9.289 -0.09 +0.20    +0.473    14.886
ATOM     37  O   UNL d   1      -6.818  11.228   8.369 -0.71 -0.18    -0.228    14.886
ATOM     38  O   UNL d   1      -4.996  10.749  10.152 -0.53 -0.15    -0.303    14.886
ATOM     39  H   UNL d   1      -4.705  11.166  10.992 +0.05 +0.05    +0.222    14.886
ATOM     40  O   UNL d   1      -6.321  12.866  10.368 -0.02 -0.05    -0.303    14.886
ATOM     41  H   UNL d   1      -5.578  13.315  10.830 +0.02 +0.03    +0.222    14.886
ATOM     42  O   UNL d   1      -3.213  12.197  11.100 -0.11 -0.02    -0.278    14.886
ATOM     43  P   UNL d   1      -3.643  13.068  12.365 -0.04 +0.02    +0.473    14.886
ATOM     44  O   UNL d   1      -2.667  13.182  13.484 -0.03 +0.00    -0.228    14.886
ATOM     45  O   UNL d   1      -4.047  14.460  11.709 -0.01 -0.01    -0.303    14.886
ATOM     46  H   UNL d   1      -4.840  14.372  11.143 +0.02 +0.01    +0.222    14.886
ATOM     47  O   UNL d   1      -5.076  12.464  12.756 -0.02 -0.02    -0.303    14.886
ATOM     48  H   UNL d   1      -5.384  11.873  12.037 +0.03 +0.03    +0.222    14.886
TER
ENDMDL
MODEL       41
USER    Run = 41
USER    Cluster Rank = 63
USER    Number of conformations in this cluster = 1
USER  
USER    RMSD from reference structure       = 20.179 A
USER  
USER    Estimated Free Energy of Binding    =   +3.41 kcal/mol  [=(1)+(2)+(3)-(4)]
USER    
USER    (1) Final Intermolecular Energy     =   -3.75 kcal/mol
USER        vdW + Hbond + desolv Energy     =   -3.60 kcal/mol
USER        Electrostatic Energy            =   -0.15 kcal/mol
USER    (2) Final Total Internal Energy     =  -13.54 kcal/mol
USER    (3) Torsional Free Energy           =   +7.16 kcal/mol
USER    (4) Unbound System's Energy  [=(2)] =  -13.54 kcal/mol
USER    
USER    
USER  
USER    DPF = D:/Protein_go_brrr/autodock/final/AncA/IHP/dock.dpf
USER    NEWDPF move	IHP_ideal_opt.pdbqt
USER    NEWDPF about	0.035000 0.082000 -0.065000
USER    NEWDPF tran0	19.062251 6.593909 -12.831242
USER    NEWDPF axisangle0	0.840632 0.371109 0.394481 176.708860
USER    NEWDPF quaternion0	0.840286 0.370956 0.394318 0.028717
USER    NEWDPF dihe0	128.98 97.53 114.48 111.83 -180.00 175.38 -132.76 -15.71 87.59 -162.34 73.94 -180.00 -86.16 69.22 115.02 -164.66 111.41 160.57 48.90 13.87 -58.14 8.99 155.36 -9.07 
USER  
USER                              x       y       z    vdW   Elec        q     RMS 
ATOM      1  C   UNL d   1      19.514   8.258 -12.735 -0.04 +0.03    +0.194    20.179
ATOM      2  C   UNL d   1      18.242   7.964 -13.531 -0.06 +0.03    +0.194    20.179
ATOM      3  C   UNL d   1      18.411   6.744 -14.439 -0.05 +0.03    +0.194    20.179
ATOM      4  C   UNL d   1      18.927   5.512 -13.699 -0.05 +0.03    +0.194    20.179
ATOM      5  C   UNL d   1      20.127   5.784 -12.802 -0.03 +0.04    +0.194    20.179
ATOM      6  C   UNL d   1      19.984   7.040 -11.940 -0.08 +0.04    +0.194    20.179
ATOM      7  O   UNL d   1      19.222   9.294 -11.794 -0.06 -0.06    -0.278    20.179
ATOM      8  P   UNL d   1      19.050  10.787 -12.337 -0.00 +0.07    +0.473    20.179
ATOM      9  O   UNL d   1      19.923  11.144 -13.489 -0.00 -0.02    -0.228    20.179
ATOM     10  O   UNL d   1      17.494  10.900 -12.670 -0.02 -0.04    -0.303    20.179
ATOM     11  H   UNL d   1      17.146  10.021 -12.911 +0.04 +0.04    +0.222    20.179
ATOM     12  O   UNL d   1      19.183  11.712 -11.052 -0.01 -0.04    -0.303    20.179
ATOM     13  H   UNL d   1      19.997  11.532 -10.530 +0.03 +0.03    +0.222    20.179
ATOM     14  O   UNL d   1      17.168   7.709 -12.618 -0.15 -0.06    -0.278    20.179
ATOM     15  P   UNL d   1      15.713   8.205 -13.067 -0.18 +0.07    +0.473    20.179
ATOM     16  O   UNL d   1      14.629   7.173 -13.090 -0.28 -0.01    -0.228    20.179
ATOM     17  O   UNL d   1      15.394   9.414 -12.079 -0.13 -0.05    -0.303    20.179
ATOM     18  H   UNL d   1      16.210   9.756 -11.667 +0.07 +0.06    +0.222    20.179
ATOM     19  O   UNL d   1      15.961   8.970 -14.439 -0.05 -0.04    -0.303    20.179
ATOM     20  H   UNL d   1      16.464   8.424 -15.071 +0.04 +0.03    +0.222    20.179
ATOM     21  O   UNL d   1      21.282   7.344 -11.435 -0.03 -0.06    -0.278    20.179
ATOM     22  P   UNL d   1      21.434   8.284 -10.155 -0.05 +0.11    +0.473    20.179
ATOM     23  O   UNL d   1      22.543   7.998  -9.199 -0.06 -0.04    -0.228    20.179
ATOM     24  O   UNL d   1      21.480   9.730 -10.817 -0.01 -0.05    -0.303    20.179
ATOM     25  H   UNL d   1      20.667  10.223 -10.538 +0.03 +0.04    +0.222    20.179
ATOM     26  O   UNL d   1      19.952   8.246  -9.545 -0.69 -0.15    -0.303    20.179
ATOM     27  H   UNL d   1      19.393   7.661 -10.096 +0.05 +0.14    +0.222    20.179
ATOM     28  O   UNL d   1      17.121   6.384 -14.917 -0.08 -0.04    -0.278    20.179
ATOM     29  P   UNL d   1      16.813   6.387 -16.480 -0.06 +0.07    +0.473    20.179
ATOM     30  O   UNL d   1      15.525   5.765 -16.880 -0.10 -0.04    -0.228    20.179
ATOM     31  O   UNL d   1      16.996   7.945 -16.797 -0.02 -0.04    -0.303    20.179
ATOM     32  H   UNL d   1      16.169   8.416 -16.545 +0.03 +0.03    +0.222    20.179
ATOM     33  O   UNL d   1      18.140   5.746 -17.083 -0.02 -0.03    -0.303    20.179
ATOM     34  H   UNL d   1      18.404   4.972 -16.528 +0.02 +0.03    +0.222    20.179
ATOM     35  O   UNL d   1      20.207   4.671 -11.914 -0.03 -0.07    -0.278    20.179
ATOM     36  P   UNL d   1      19.162   4.520 -10.718 -0.18 +0.21    +0.473    20.179
ATOM     37  O   UNL d   1      18.953   3.127 -10.216 -0.51 -0.26    -0.228    20.179
ATOM     38  O   UNL d   1      19.760   5.523  -9.634 -0.13 -0.14    -0.303    20.179
ATOM     39  H   UNL d   1      20.389   6.134 -10.075 +0.05 +0.08    +0.222    20.179
ATOM     40  O   UNL d   1      17.886   5.284 -11.283 -0.24 -0.08    -0.303    20.179
ATOM     41  H   UNL d   1      17.057   4.973 -10.855 -0.47 +0.01    +0.222    20.179
ATOM     42  O   UNL d   1      19.350   4.577 -14.697 -0.02 -0.04    -0.278    20.179
ATOM     43  P   UNL d   1      18.655   3.142 -14.755 -0.01 +0.06    +0.473    20.179
ATOM     44  O   UNL d   1      19.446   2.019 -15.331 -0.01 -0.02    -0.228    20.179
ATOM     45  O   UNL d   1      18.203   2.913 -13.246 -0.07 -0.06    -0.303    20.179
ATOM     46  H   UNL d   1      18.437   3.677 -12.682 +0.07 +0.06    +0.222    20.179
ATOM     47  O   UNL d   1      17.254   3.442 -15.473 -0.06 -0.04    -0.303    20.179
ATOM     48  H   UNL d   1      17.189   4.400 -15.666 +0.03 +0.03    +0.222    20.179
TER
ENDMDL
MODEL       67
USER    Run = 67
USER    Cluster Rank = 64
USER    Number of conformations in this cluster = 1
USER  
USER    RMSD from reference structure       = 14.133 A
USER  
USER    Estimated Free Energy of Binding    =   +3.44 kcal/mol  [=(1)+(2)+(3)-(4)]
USER    
USER    (1) Final Intermolecular Energy     =   -3.72 kcal/mol
USER        vdW + Hbond + desolv Energy     =   -3.46 kcal/mol
USER        Electrostatic Energy            =   -0.26 kcal/mol
USER    (2) Final Total Internal Energy     =  -13.29 kcal/mol
USER    (3) Torsional Free Energy           =   +7.16 kcal/mol
USER    (4) Unbound System's Energy  [=(2)] =  -13.29 kcal/mol
USER    
USER    
USER  
USER    DPF = D:/Protein_go_brrr/autodock/final/AncA/IHP/dock.dpf
USER    NEWDPF move	IHP_ideal_opt.pdbqt
USER    NEWDPF about	0.035000 0.082000 -0.065000
USER    NEWDPF tran0	-10.974398 12.557271 4.905474
USER    NEWDPF axisangle0	-0.381780 0.074469 0.921248 91.694313
USER    NEWDPF quaternion0	-0.273921 0.053430 0.660981 0.696575
USER    NEWDPF dihe0	-96.96 21.36 -175.23 29.01 155.24 84.23 -135.55 -60.08 9.20 77.95 25.46 -92.13 -180.00 40.35 100.93 -16.67 -64.53 -16.21 63.39 17.48 -48.26 37.93 19.60 -56.08 
USER  
USER                              x       y       z    vdW   Elec        q     RMS 
ATOM      1  C   UNL d   1     -11.960  11.142   4.811 -0.05 +0.02    +0.194    14.133
ATOM      2  C   UNL d   1     -12.667  12.462   4.495 -0.01 +0.01    +0.194    14.133
ATOM      3  C   UNL d   1     -12.273  13.565   5.479 -0.00 +0.01    +0.194    14.133
ATOM      4  C   UNL d   1     -10.762  13.737   5.617 +0.00 +0.02    +0.194    14.133
ATOM      5  C   UNL d   1     -10.004  12.431   5.819 -0.01 +0.03    +0.194    14.133
ATOM      6  C   UNL d   1     -10.442  11.309   4.875 -0.04 +0.03    +0.194    14.133
ATOM      7  O   UNL d   1     -12.244  10.221   3.756 -0.13 -0.00    -0.278    14.133
ATOM      8  P   UNL d   1     -13.770   9.852   3.459 -0.17 -0.00    +0.473    14.133
ATOM      9  O   UNL d   1     -14.068   8.395   3.408 -0.24 +0.01    -0.228    14.133
ATOM     10  O   UNL d   1     -14.581  10.620   4.597 -0.05 -0.01    -0.303    14.133
ATOM     11  H   UNL d   1     -15.023  11.401   4.213 +0.03 +0.01    +0.222    14.133
ATOM     12  O   UNL d   1     -14.150  10.684   2.160 -0.12 -0.00    -0.303    14.133
ATOM     13  H   UNL d   1     -13.585  11.479   2.032 +0.04 +0.01    +0.222    14.133
ATOM     14  O   UNL d   1     -12.305  12.879   3.173 -0.01 -0.01    -0.278    14.133
ATOM     15  P   UNL d   1     -13.405  13.713   2.360 +0.00 +0.02    +0.473    14.133
ATOM     16  O   UNL d   1     -13.287  15.205   2.406 -0.00 -0.01    -0.228    14.133
ATOM     17  O   UNL d   1     -13.316  13.132   0.880 -0.01 -0.01    -0.303    14.133
ATOM     18  H   UNL d   1     -13.913  12.368   0.765 +0.03 +0.00    +0.222    14.133
ATOM     19  O   UNL d   1     -14.796  13.120   2.853 -0.00 -0.01    -0.303    14.133
ATOM     20  H   UNL d   1     -14.721  12.179   3.095 +0.02 +0.01    +0.222    14.133
ATOM     21  O   UNL d   1      -9.909  10.096   5.402 -0.08 -0.09    -0.278    14.133
ATOM     22  P   UNL d   1      -9.545   8.896   4.416 -0.17 +0.16    +0.473    14.133
ATOM     23  O   UNL d   1      -8.208   8.251   4.555 -0.85 -0.19    -0.228    14.133
ATOM     24  O   UNL d   1     -10.783   7.918   4.622 -0.27 -0.02    -0.303    14.133
ATOM     25  H   UNL d   1     -11.488   8.172   3.974 -0.32 -0.07    +0.222    14.133
ATOM     26  O   UNL d   1      -9.869   9.542   2.985 -0.10 -0.05    -0.303    14.133
ATOM     27  H   UNL d   1     -10.803   9.364   2.755 -0.35 -0.03    +0.222    14.133
ATOM     28  O   UNL d   1     -12.747  14.798   4.953 +0.00 -0.01    -0.278    14.133
ATOM     29  P   UNL d   1     -13.195  15.971   5.932 +0.00 +0.02    +0.473    14.133
ATOM     30  O   UNL d   1     -14.004  15.553   7.105 +0.00 -0.01    -0.228    14.133
ATOM     31  O   UNL d   1     -11.773  16.643   6.232 +0.00 -0.01    -0.303    14.133
ATOM     32  H   UNL d   1     -11.338  16.143   6.961 +0.00 +0.01    +0.222    14.133
ATOM     33  O   UNL d   1     -13.867  17.007   4.926 +0.00 -0.01    -0.303    14.133
ATOM     34  H   UNL d   1     -13.804  16.649   4.007 +0.00 +0.01    +0.222    14.133
ATOM     35  O   UNL d   1      -8.641  12.724   5.520 -0.02 -0.05    -0.278    14.133
ATOM     36  P   UNL d   1      -7.468  11.920   6.242 -0.06 +0.20    +0.473    14.133
ATOM     37  O   UNL d   1      -7.845  11.237   7.518 -0.50 -0.16    -0.228    14.133
ATOM     38  O   UNL d   1      -6.990  10.933   5.087 -0.10 -0.16    -0.303    14.133
ATOM     39  H   UNL d   1      -7.740  10.354   4.829 +0.06 +0.13    +0.222    14.133
ATOM     40  O   UNL d   1      -6.309  13.007   6.320 -0.06 -0.07    -0.303    14.133
ATOM     41  H   UNL d   1      -6.666  13.908   6.486 +0.03 +0.03    +0.222    14.133
ATOM     42  O   UNL d   1     -10.540  14.537   6.783 +0.00 -0.02    -0.278    14.133
ATOM     43  P   UNL d   1      -9.090  15.155   7.031 +0.01 +0.04    +0.473    14.133
ATOM     44  O   UNL d   1      -8.262  15.465   5.832 -0.00 -0.02    -0.228    14.133
ATOM     45  O   UNL d   1      -9.400  16.415   7.952 +0.00 -0.02    -0.303    14.133
ATOM     46  H   UNL d   1     -10.139  16.947   7.594 +0.00 +0.01    +0.222    14.133
ATOM     47  O   UNL d   1      -8.433  14.137   8.081 +0.00 -0.04    -0.303    14.133
ATOM     48  H   UNL d   1      -8.010  13.400   7.594 +0.02 +0.04    +0.222    14.133
TER
ENDMDL
MODEL       74
USER    Run = 74
USER    Cluster Rank = 65
USER    Number of conformations in this cluster = 1
USER  
USER    RMSD from reference structure       = 22.609 A
USER  
USER    Estimated Free Energy of Binding    =   +3.45 kcal/mol  [=(1)+(2)+(3)-(4)]
USER    
USER    (1) Final Intermolecular Energy     =   -3.70 kcal/mol
USER        vdW + Hbond + desolv Energy     =   -3.44 kcal/mol
USER        Electrostatic Energy            =   -0.27 kcal/mol
USER    (2) Final Total Internal Energy     =  -12.16 kcal/mol
USER    (3) Torsional Free Energy           =   +7.16 kcal/mol
USER    (4) Unbound System's Energy  [=(2)] =  -12.16 kcal/mol
USER    
USER    
USER  
USER    DPF = D:/Protein_go_brrr/autodock/final/AncA/IHP/dock.dpf
USER    NEWDPF move	IHP_ideal_opt.pdbqt
USER    NEWDPF about	0.035000 0.082000 -0.065000
USER    NEWDPF tran0	1.397588 -13.535594 -22.236058
USER    NEWDPF axisangle0	-0.860730 -0.406041 0.307042 156.170557
USER    NEWDPF quaternion0	-0.842186 -0.397293 0.300427 0.206456
USER    NEWDPF dihe0	109.74 117.52 32.52 132.04 -48.16 178.92 -26.80 -171.95 141.68 -3.56 -25.62 -134.58 -28.25 -44.29 179.85 -45.97 164.29 -113.13 54.65 4.69 -180.00 138.25 179.04 142.54 
USER  
USER                              x       y       z    vdW   Elec        q     RMS 
ATOM      1  C   UNL d   1       1.054 -12.784 -23.753 +0.00 +0.07    +0.194    22.609
ATOM      2  C   UNL d   1      -0.086 -12.767 -22.734 -0.06 +0.11    +0.194    22.609
ATOM      3  C   UNL d   1      -0.231 -14.113 -22.021 -0.07 +0.15    +0.194    22.609
ATOM      4  C   UNL d   1       1.078 -14.616 -21.416 -0.04 +0.11    +0.194    22.609
ATOM      5  C   UNL d   1       2.268 -14.544 -22.363 +0.01 +0.08    +0.194    22.609
ATOM      6  C   UNL d   1       2.377 -13.220 -23.122 +0.01 +0.07    +0.194    22.609
ATOM      7  O   UNL d   1       1.234 -11.454 -24.245 +0.00 -0.07    -0.278    22.609
ATOM      8  P   UNL d   1       0.080 -10.816 -25.147 +0.01 +0.09    +0.473    22.609
ATOM      9  O   UNL d   1      -1.271 -11.411 -24.958 -0.02 -0.06    -0.228    22.609
ATOM     10  O   UNL d   1       0.135  -9.259 -24.800 -0.00 -0.04    -0.303    22.609
ATOM     11  H   UNL d   1       0.158  -9.141 -23.832 +0.04 +0.03    +0.222    22.609
ATOM     12  O   UNL d   1       0.651 -10.846 -26.629 +0.00 -0.04    -0.303    22.609
ATOM     13  H   UNL d   1       0.679 -11.752 -27.013 +0.00 +0.03    +0.222    22.609
ATOM     14  O   UNL d   1       0.181 -11.757 -21.752 -0.06 -0.15    -0.278    22.609
ATOM     15  P   UNL d   1      -1.052 -10.827 -21.329 -0.19 +0.20    +0.473    22.609
ATOM     16  O   UNL d   1      -2.409 -11.256 -21.793 -0.24 -0.15    -0.228    22.609
ATOM     17  O   UNL d   1      -0.943 -10.737 -19.742 -0.30 -0.15    -0.303    22.609
ATOM     18  H   UNL d   1      -1.059 -11.615 -19.331 +0.10 +0.16    +0.222    22.609
ATOM     19  O   UNL d   1      -0.611  -9.362 -21.763 -0.11 -0.04    -0.303    22.609
ATOM     20  H   UNL d   1      -0.630  -9.251 -22.731 +0.07 +0.03    +0.222    22.609
ATOM     21  O   UNL d   1       3.300 -13.430 -24.188 +0.01 -0.07    -0.278    22.609
ATOM     22  P   UNL d   1       2.831 -14.206 -25.500 +0.01 +0.09    +0.473    22.609
ATOM     23  O   UNL d   1       3.848 -14.995 -26.253 +0.00 -0.04    -0.228    22.609
ATOM     24  O   UNL d   1       1.599 -15.053 -24.954 +0.01 -0.08    -0.303    22.609
ATOM     25  H   UNL d   1       1.838 -16.014 -25.008 +0.00 +0.05    +0.222    22.609
ATOM     26  O   UNL d   1       2.095 -13.042 -26.321 +0.00 -0.05    -0.303    22.609
ATOM     27  H   UNL d   1       2.204 -12.194 -25.845 +0.00 +0.04    +0.222    22.609
ATOM     28  O   UNL d   1      -1.108 -13.923 -20.919 -0.02 -0.33    -0.278    22.609
ATOM     29  P   UNL d   1      -0.556 -14.005 -19.427 -0.15 +0.42    +0.473    22.609
ATOM     30  O   UNL d   1      -0.196 -15.366 -18.952 -0.17 -0.11    -0.228    22.609
ATOM     31  O   UNL d   1       0.625 -12.928 -19.507 -0.30 -0.36    -0.303    22.609
ATOM     32  H   UNL d   1       0.419 -12.289 -20.228 +0.07 +0.20    +0.222    22.609
ATOM     33  O   UNL d   1      -1.683 -13.232 -18.611 -0.88 -0.31    -0.303    22.609
ATOM     34  H   UNL d   1      -1.302 -12.392 -18.255 +0.11 +0.18    +0.222    22.609
ATOM     35  O   UNL d   1       3.426 -14.652 -21.538 -0.00 -0.13    -0.278    22.609
ATOM     36  P   UNL d   1       3.589 -13.719 -20.254 +0.06 +0.50    +0.473    22.609
ATOM     37  O   UNL d   1       4.997 -13.404 -19.860 -0.05 -0.21    -0.228    22.609
ATOM     38  O   UNL d   1       2.724 -12.446 -20.664 -0.20 -0.39    -0.303    22.609
ATOM     39  H   UNL d   1       1.772 -12.685 -20.644 +0.04 +0.24    +0.222    22.609
ATOM     40  O   UNL d   1       2.687 -14.464 -19.176 -0.55 -0.33    -0.303    22.609
ATOM     41  H   UNL d   1       1.821 -14.737 -19.552 +0.04 +0.16    +0.222    22.609
ATOM     42  O   UNL d   1       0.880 -15.997 -21.092 -0.01 -0.13    -0.278    22.609
ATOM     43  P   UNL d   1      -0.107 -16.867 -21.992 -0.02 +0.24    +0.473    22.609
ATOM     44  O   UNL d   1      -1.558 -16.531 -21.942 -0.63 -0.25    -0.228    22.609
ATOM     45  O   UNL d   1       0.540 -16.742 -23.441 -0.00 -0.11    -0.303    22.609
ATOM     46  H   UNL d   1       0.087 -16.062 -23.978 +0.01 +0.09    +0.222    22.609
ATOM     47  O   UNL d   1       0.268 -18.374 -21.596 +0.01 -0.09    -0.303    22.609
ATOM     48  H   UNL d   1       0.358 -18.439 -20.623 +0.02 +0.06    +0.222    22.609
TER
ENDMDL
MODEL        9
USER    Run = 9
USER    Cluster Rank = 66
USER    Number of conformations in this cluster = 1
USER  
USER    RMSD from reference structure       = 16.154 A
USER  
USER    Estimated Free Energy of Binding    =   +3.47 kcal/mol  [=(1)+(2)+(3)-(4)]
USER    
USER    (1) Final Intermolecular Energy     =   -3.69 kcal/mol
USER        vdW + Hbond + desolv Energy     =   -3.33 kcal/mol
USER        Electrostatic Energy            =   -0.36 kcal/mol
USER    (2) Final Total Internal Energy     =  -12.58 kcal/mol
USER    (3) Torsional Free Energy           =   +7.16 kcal/mol
USER    (4) Unbound System's Energy  [=(2)] =  -12.58 kcal/mol
USER    
USER    
USER  
USER    DPF = D:/Protein_go_brrr/autodock/final/AncA/IHP/dock.dpf
USER    NEWDPF move	IHP_ideal_opt.pdbqt
USER    NEWDPF about	0.035000 0.082000 -0.065000
USER    NEWDPF tran0	8.744398 3.896482 15.436303
USER    NEWDPF axisangle0	0.397986 -0.073079 -0.914476 120.659563
USER    NEWDPF quaternion0	0.345806 -0.063498 -0.794578 0.495007
USER    NEWDPF dihe0	80.52 138.62 -180.00 -8.03 -88.70 -162.41 -62.29 15.17 -0.18 -156.06 114.02 -152.71 24.59 179.62 175.59 -172.55 -128.44 141.60 -129.90 17.93 -173.55 24.50 152.73 -12.31 
USER  
USER                              x       y       z    vdW   Elec        q     RMS 
ATOM      1  C   UNL d   1       8.758   5.623  15.479 -0.03 +0.00    +0.194    16.154
ATOM      2  C   UNL d   1       9.943   4.936  16.159 -0.01 +0.01    +0.194    16.154
ATOM      3  C   UNL d   1       9.497   3.736  16.998 -0.01 +0.01    +0.194    16.154
ATOM      4  C   UNL d   1       8.627   2.751  16.222 -0.02 +0.01    +0.194    16.154
ATOM      5  C   UNL d   1       7.499   3.406  15.434 -0.05 +0.00    +0.194    16.154
ATOM      6  C   UNL d   1       7.932   4.643  14.645 -0.09 +0.00    +0.194    16.154
ATOM      7  O   UNL d   1       9.270   6.616  14.586 -0.05 -0.00    -0.278    16.154
ATOM      8  P   UNL d   1       9.186   6.340  13.015 -0.16 +0.05    +0.473    16.154
ATOM      9  O   UNL d   1       7.837   6.520  12.414 -0.20 +0.01    -0.228    16.154
ATOM     10  O   UNL d   1      10.287   7.313  12.393 -0.40 -0.07    -0.303    16.154
ATOM     11  H   UNL d   1       9.941   8.224  12.369 -0.46 -0.18    +0.222    16.154
ATOM     12  O   UNL d   1       9.852   4.911  12.811 -0.18 -0.08    -0.303    16.154
ATOM     13  H   UNL d   1       9.198   4.177  12.820 +0.08 +0.04    +0.222    16.154
ATOM     14  O   UNL d   1      10.856   4.478  15.155 -0.02 -0.03    -0.278    16.154
ATOM     15  P   UNL d   1      12.405   4.434  15.562 -0.00 +0.05    +0.473    16.154
ATOM     16  O   UNL d   1      13.353   5.182  14.678 -0.02 -0.03    -0.228    16.154
ATOM     17  O   UNL d   1      12.424   4.953  17.068 +0.00 -0.02    -0.303    16.154
ATOM     18  H   UNL d   1      12.236   4.227  17.693 +0.00 +0.01    +0.222    16.154
ATOM     19  O   UNL d   1      12.721   2.887  15.753 -0.01 -0.02    -0.303    16.154
ATOM     20  H   UNL d   1      12.257   2.517  16.527 +0.01 +0.01    +0.222    16.154
ATOM     21  O   UNL d   1       6.741   5.323  14.257 -0.11 +0.01    -0.278    16.154
ATOM     22  P   UNL d   1       6.039   6.332  15.274 -0.04 -0.04    +0.473    16.154
ATOM     23  O   UNL d   1       4.574   6.571  15.132 -0.11 +0.03    -0.228    16.154
ATOM     24  O   UNL d   1       6.484   5.738  16.682 -0.00 +0.01    -0.303    16.154
ATOM     25  H   UNL d   1       5.811   6.008  17.357 +0.01 -0.00    +0.222    16.154
ATOM     26  O   UNL d   1       6.978   7.626  15.149 -0.04 +0.03    -0.303    16.154
ATOM     27  H   UNL d   1       7.438   7.607  14.285 +0.07 -0.03    +0.222    16.154
ATOM     28  O   UNL d   1      10.664   3.007  17.356 -0.00 -0.01    -0.278    16.154
ATOM     29  P   UNL d   1      10.859   2.484  18.848 +0.00 +0.02    +0.473    16.154
ATOM     30  O   UNL d   1      11.859   1.399  19.021 +0.00 -0.01    -0.228    16.154
ATOM     31  O   UNL d   1      11.153   3.868  19.594 +0.00 -0.01    -0.303    16.154
ATOM     32  H   UNL d   1      11.296   4.567  18.914 +0.00 +0.01    +0.222    16.154
ATOM     33  O   UNL d   1       9.363   2.159  19.286 +0.00 -0.01    -0.303    16.154
ATOM     34  H   UNL d   1       9.070   1.327  18.839 +0.01 +0.00    +0.222    16.154
ATOM     35  O   UNL d   1       7.073   2.430  14.485 -0.11 -0.01    -0.278    16.154
ATOM     36  P   UNL d   1       7.940   2.147  13.177 -0.19 +0.01    +0.473    16.154
ATOM     37  O   UNL d   1       7.694   3.073  12.028 -0.24 -0.02    -0.228    16.154
ATOM     38  O   UNL d   1       9.424   2.198  13.752 -0.12 -0.02    -0.303    16.154
ATOM     39  H   UNL d   1       9.644   3.124  13.992 +0.07 +0.02    +0.222    16.154
ATOM     40  O   UNL d   1       7.679   0.599  12.925 -0.20 +0.02    -0.303    16.154
ATOM     41  H   UNL d   1       7.916   0.334  12.008 -0.46 -0.12    +0.222    16.154
ATOM     42  O   UNL d   1       8.019   1.886  17.187 -0.01 -0.01    -0.278    16.154
ATOM     43  P   UNL d   1       8.236   0.311  17.056 -0.02 +0.01    +0.473    16.154
ATOM     44  O   UNL d   1       7.457  -0.568  17.972 -0.03 +0.00    -0.228    16.154
ATOM     45  O   UNL d   1       7.960   0.048  15.511 -0.24 -0.02    -0.303    16.154
ATOM     46  H   UNL d   1       8.353   0.748  14.953 +0.06 +0.01    +0.222    16.154
ATOM     47  O   UNL d   1       9.829   0.153  17.134 -0.01 -0.01    -0.303    16.154
ATOM     48  H   UNL d   1      10.204   0.906  17.636 +0.01 +0.01    +0.222    16.154
TER
ENDMDL
MODEL       44
USER    Run = 44
USER    Cluster Rank = 67
USER    Number of conformations in this cluster = 1
USER  
USER    RMSD from reference structure       = 15.270 A
USER  
USER    Estimated Free Energy of Binding    =   +3.55 kcal/mol  [=(1)+(2)+(3)-(4)]
USER    
USER    (1) Final Intermolecular Energy     =   -3.61 kcal/mol
USER        vdW + Hbond + desolv Energy     =   -3.54 kcal/mol
USER        Electrostatic Energy            =   -0.07 kcal/mol
USER    (2) Final Total Internal Energy     =  -13.28 kcal/mol
USER    (3) Torsional Free Energy           =   +7.16 kcal/mol
USER    (4) Unbound System's Energy  [=(2)] =  -13.28 kcal/mol
USER    
USER    
USER  
USER    DPF = D:/Protein_go_brrr/autodock/final/AncA/IHP/dock.dpf
USER    NEWDPF move	IHP_ideal_opt.pdbqt
USER    NEWDPF about	0.035000 0.082000 -0.065000
USER    NEWDPF tran0	-13.681720 8.829736 -7.982922
USER    NEWDPF axisangle0	-0.621334 -0.046691 0.782154 -172.150111
USER    NEWDPF quaternion0	-0.619877 -0.046581 0.780319 -0.068450
USER    NEWDPF dihe0	121.58 57.22 167.96 4.39 56.51 -154.42 -122.59 20.63 22.81 -12.28 141.04 130.17 -27.46 74.76 136.04 90.88 176.11 22.75 25.49 -35.18 -22.06 23.55 1.17 170.11 
USER  
USER                              x       y       z    vdW   Elec        q     RMS 
ATOM      1  C   UNL d   1     -14.687   9.921  -8.867 -0.01 +0.01    +0.194    15.270
ATOM      2  C   UNL d   1     -14.011  10.504  -7.625 -0.02 +0.00    +0.194    15.270
ATOM      3  C   UNL d   1     -14.071   9.538  -6.441 -0.09 +0.00    +0.194    15.270
ATOM      4  C   UNL d   1     -13.554   8.141  -6.778 -0.18 +0.01    +0.194    15.270
ATOM      5  C   UNL d   1     -14.116   7.567  -8.072 -0.14 +0.01    +0.194    15.270
ATOM      6  C   UNL d   1     -14.112   8.554  -9.241 -0.04 +0.01    +0.194    15.270
ATOM      7  O   UNL d   1     -14.438  10.802  -9.966 -0.00 -0.01    -0.278    15.270
ATOM      8  P   UNL d   1     -15.561  11.872 -10.350 +0.00 +0.02    +0.473    15.270
ATOM      9  O   UNL d   1     -16.484  12.243  -9.244 +0.00 -0.01    -0.228    15.270
ATOM     10  O   UNL d   1     -14.734  13.111 -10.921 +0.00 -0.01    -0.303    15.270
ATOM     11  H   UNL d   1     -13.903  13.209 -10.420 +0.00 +0.01    +0.222    15.270
ATOM     12  O   UNL d   1     -16.246  11.297 -11.663 +0.00 -0.01    -0.303    15.270
ATOM     13  H   UNL d   1     -15.996  10.364 -11.852 +0.00 +0.01    +0.222    15.270
ATOM     14  O   UNL d   1     -12.636  10.774  -7.925 -0.01 -0.00    -0.278    15.270
ATOM     15  P   UNL d   1     -12.277  12.275  -8.352 +0.01 +0.01    +0.473    15.270
ATOM     16  O   UNL d   1     -11.129  12.920  -7.640 -0.00 -0.00    -0.228    15.270
ATOM     17  O   UNL d   1     -12.055  12.188  -9.927 +0.00 -0.02    -0.303    15.270
ATOM     18  H   UNL d   1     -12.903  12.060 -10.395 +0.00 +0.01    +0.222    15.270
ATOM     19  O   UNL d   1     -13.662  13.053  -8.267 -0.00 -0.01    -0.303    15.270
ATOM     20  H   UNL d   1     -14.349  12.626  -8.811 +0.00 +0.01    +0.222    15.270
ATOM     21  O   UNL d   1     -14.960   8.005 -10.247 -0.01 -0.01    -0.278    15.270
ATOM     22  P   UNL d   1     -14.393   7.775 -11.720 -0.01 +0.01    +0.473    15.270
ATOM     23  O   UNL d   1     -15.184   6.923 -12.655 -0.01 -0.00    -0.228    15.270
ATOM     24  O   UNL d   1     -14.158   9.269 -12.216 -0.00 -0.01    -0.303    15.270
ATOM     25  H   UNL d   1     -14.567   9.881 -11.553 +0.01 +0.01    +0.222    15.270
ATOM     26  O   UNL d   1     -12.896   7.286 -11.421 -0.09 -0.00    -0.303    15.270
ATOM     27  H   UNL d   1     -12.881   6.796 -10.573 +0.03 +0.01    +0.222    15.270
ATOM     28  O   UNL d   1     -13.193  10.033  -5.438 -0.11 +0.01    -0.278    15.270
ATOM     29  P   UNL d   1     -13.663  10.096  -3.918 -0.07 -0.02    +0.473    15.270
ATOM     30  O   UNL d   1     -13.927   8.784  -3.274 -0.09 +0.04    -0.228    15.270
ATOM     31  O   UNL d   1     -12.485  10.985  -3.298 -0.13 +0.02    -0.303    15.270
ATOM     32  H   UNL d   1     -11.661  10.445  -3.278 +0.02 -0.04    +0.222    15.270
ATOM     33  O   UNL d   1     -14.878  11.122  -3.986 -0.04 +0.01    -0.303    15.270
ATOM     34  H   UNL d   1     -15.681  10.648  -4.314 +0.04 -0.00    +0.222    15.270
ATOM     35  O   UNL d   1     -13.248   6.492  -8.427 -0.52 -0.04    -0.278    15.270
ATOM     36  P   UNL d   1     -13.850   5.072  -8.832 -0.13 +0.05    +0.473    15.270
ATOM     37  O   UNL d   1     -13.112   3.884  -8.301 -0.45 -0.05    -0.228    15.270
ATOM     38  O   UNL d   1     -15.351   5.195  -8.314 -0.13 -0.02    -0.303    15.270
ATOM     39  H   UNL d   1     -15.347   5.551  -7.400 +0.08 +0.01    +0.222    15.270
ATOM     40  O   UNL d   1     -13.979   5.194 -10.412 -0.12 +0.00    -0.303    15.270
ATOM     41  H   UNL d   1     -14.493   5.990 -10.675 +0.04 +0.00    +0.222    15.270
ATOM     42  O   UNL d   1     -13.973   7.277  -5.716 -0.19 -0.02    -0.278    15.270
ATOM     43  P   UNL d   1     -15.532   7.133  -5.409 -0.21 -0.00    +0.473    15.270
ATOM     44  O   UNL d   1     -16.373   6.444  -6.427 -0.18 +0.01    -0.228    15.270
ATOM     45  O   UNL d   1     -15.543   6.438  -3.977 -0.42 +0.03    -0.303    15.270
ATOM     46  H   UNL d   1     -15.201   7.039  -3.285 -0.35 -0.05    +0.222    15.270
ATOM     47  O   UNL d   1     -15.973   8.631  -5.047 -0.09 +0.00    -0.303    15.270
ATOM     48  H   UNL d   1     -15.366   8.991  -4.368 +0.07 -0.01    +0.222    15.270
TER
ENDMDL
MODEL       28
USER    Run = 28
USER    Cluster Rank = 68
USER    Number of conformations in this cluster = 1
USER  
USER    RMSD from reference structure       = 19.107 A
USER  
USER    Estimated Free Energy of Binding    =   +3.58 kcal/mol  [=(1)+(2)+(3)-(4)]
USER    
USER    (1) Final Intermolecular Energy     =   -3.57 kcal/mol
USER        vdW + Hbond + desolv Energy     =   -3.46 kcal/mol
USER        Electrostatic Energy            =   -0.12 kcal/mol
USER    (2) Final Total Internal Energy     =  -14.19 kcal/mol
USER    (3) Torsional Free Energy           =   +7.16 kcal/mol
USER    (4) Unbound System's Energy  [=(2)] =  -14.19 kcal/mol
USER    
USER    
USER  
USER    DPF = D:/Protein_go_brrr/autodock/final/AncA/IHP/dock.dpf
USER    NEWDPF move	IHP_ideal_opt.pdbqt
USER    NEWDPF about	0.035000 0.082000 -0.065000
USER    NEWDPF tran0	2.923135 -5.144805 -21.291004
USER    NEWDPF axisangle0	-0.100664 0.102598 -0.989616 -50.818872
USER    NEWDPF quaternion0	-0.043193 0.044023 -0.424628 -0.903265
USER    NEWDPF dihe0	136.73 97.39 47.29 39.90 136.99 135.29 101.84 -45.27 40.42 37.46 54.59 -139.13 -35.38 -173.20 44.91 75.47 135.16 127.21 29.74 -36.86 174.85 -32.16 -8.46 -5.56 
USER  
USER                              x       y       z    vdW   Elec        q     RMS 
ATOM      1  C   UNL d   1       3.134  -6.643 -20.457 -0.14 -0.01    +0.194    19.107
ATOM      2  C   UNL d   1       1.684  -6.207 -20.677 -0.14 -0.02    +0.194    19.107
ATOM      3  C   UNL d   1       1.492  -4.715 -20.397 -0.15 -0.01    +0.194    19.107
ATOM      4  C   UNL d   1       2.482  -3.830 -21.151 -0.04 -0.01    +0.194    19.107
ATOM      5  C   UNL d   1       3.929  -4.295 -21.054 -0.04 -0.01    +0.194    19.107
ATOM      6  C   UNL d   1       4.113  -5.798 -21.273 -0.04 -0.01    +0.194    19.107
ATOM      7  O   UNL d   1       3.265  -7.995 -20.902 -0.07 -0.05    -0.278    19.107
ATOM      8  P   UNL d   1       3.069  -9.168 -19.835 -0.07 +0.36    +0.473    19.107
ATOM      9  O   UNL d   1       2.402  -8.763 -18.567 -0.69 -0.14    -0.228    19.107
ATOM     10  O   UNL d   1       2.267 -10.290 -20.636 -0.27 -0.27    -0.303    19.107
ATOM     11  H   UNL d   1       1.816  -9.886 -21.401 +0.05 +0.10    +0.222    19.107
ATOM     12  O   UNL d   1       4.505  -9.831 -19.682 -0.32 -0.29    -0.303    19.107
ATOM     13  H   UNL d   1       5.213  -9.177 -19.485 +0.05 +0.09    +0.222    19.107
ATOM     14  O   UNL d   1       1.320  -6.467 -22.039 -0.05 +0.00    -0.278    19.107
ATOM     15  P   UNL d   1       0.582  -7.858 -22.329 -0.03 +0.02    +0.473    19.107
ATOM     16  O   UNL d   1       1.287  -8.816 -23.237 -0.02 -0.03    -0.228    19.107
ATOM     17  O   UNL d   1       0.312  -8.464 -20.881 +0.06 +0.03    -0.303    19.107
ATOM     18  H   UNL d   1       1.118  -8.431 -20.330 -0.35 -0.01    +0.222    19.107
ATOM     19  O   UNL d   1      -0.886  -7.442 -22.779 -0.05 +0.02    -0.303    19.107
ATOM     20  H   UNL d   1      -1.109  -6.537 -22.491 +0.06 -0.03    +0.222    19.107
ATOM     21  O   UNL d   1       5.425  -6.123 -20.818 -0.02 +0.02    -0.278    19.107
ATOM     22  P   UNL d   1       5.740  -6.140 -19.255 -0.07 -0.20    +0.473    19.107
ATOM     23  O   UNL d   1       5.236  -7.287 -18.446 -0.13 +0.16    -0.228    19.107
ATOM     24  O   UNL d   1       7.321  -5.955 -19.239 -0.06 +0.08    -0.303    19.107
ATOM     25  H   UNL d   1       7.525  -5.026 -19.514 +0.03 -0.05    +0.222    19.107
ATOM     26  O   UNL d   1       5.233  -4.687 -18.805 -0.12 +0.21    -0.303    19.107
ATOM     27  H   UNL d   1       5.466  -4.036 -19.498 +0.04 -0.07    +0.222    19.107
ATOM     28  O   UNL d   1       0.209  -4.348 -20.888 -0.08 +0.02    -0.278    19.107
ATOM     29  P   UNL d   1      -1.101  -4.694 -20.050 -0.18 -0.09    +0.473    19.107
ATOM     30  O   UNL d   1      -1.065  -4.307 -18.616 -0.28 +0.05    -0.228    19.107
ATOM     31  O   UNL d   1      -2.210  -3.990 -20.965 -0.08 +0.06    -0.303    19.107
ATOM     32  H   UNL d   1      -3.069  -4.455 -20.830 +0.04 -0.07    +0.222    19.107
ATOM     33  O   UNL d   1      -1.307  -6.239 -20.374 -0.21 +0.12    -0.303    19.107
ATOM     34  H   UNL d   1      -0.483  -6.592 -20.791 -0.14 -0.07    +0.222    19.107
ATOM     35  O   UNL d   1       4.621  -3.629 -22.108 -0.00 +0.00    -0.278    19.107
ATOM     36  P   UNL d   1       5.872  -2.694 -21.785 +0.01 +0.00    +0.473    19.107
ATOM     37  O   UNL d   1       6.525  -2.057 -22.971 +0.00 -0.01    -0.228    19.107
ATOM     38  O   UNL d   1       5.246  -1.659 -20.749 -0.00 -0.00    -0.303    19.107
ATOM     39  H   UNL d   1       4.291  -1.548 -20.944 +0.02 +0.00    +0.222    19.107
ATOM     40  O   UNL d   1       6.779  -3.638 -20.882 -0.00 +0.02    -0.303    19.107
ATOM     41  H   UNL d   1       6.339  -4.497 -20.697 +0.02 -0.02    +0.222    19.107
ATOM     42  O   UNL d   1       2.416  -2.531 -20.553 -0.03 +0.01    -0.278    19.107
ATOM     43  P   UNL d   1       1.913  -1.300 -21.434 +0.00 +0.01    +0.473    19.107
ATOM     44  O   UNL d   1       1.703   0.001 -20.741 -0.01 -0.01    -0.228    19.107
ATOM     45  O   UNL d   1       2.990  -1.247 -22.605 -0.00 -0.01    -0.303    19.107
ATOM     46  H   UNL d   1       3.804  -1.733 -22.365 +0.01 +0.01    +0.222    19.107
ATOM     47  O   UNL d   1       0.633  -1.893 -22.195 -0.00 -0.00    -0.303    19.107
ATOM     48  H   UNL d   1       0.125  -2.459 -21.579 +0.03 -0.01    +0.222    19.107
TER
ENDMDL
MODEL       78
USER    Run = 78
USER    Cluster Rank = 69
USER    Number of conformations in this cluster = 1
USER  
USER    RMSD from reference structure       = 19.993 A
USER  
USER    Estimated Free Energy of Binding    =   +3.60 kcal/mol  [=(1)+(2)+(3)-(4)]
USER    
USER    (1) Final Intermolecular Energy     =   -3.56 kcal/mol
USER        vdW + Hbond + desolv Energy     =   -3.35 kcal/mol
USER        Electrostatic Energy            =   -0.21 kcal/mol
USER    (2) Final Total Internal Energy     =  -12.78 kcal/mol
USER    (3) Torsional Free Energy           =   +7.16 kcal/mol
USER    (4) Unbound System's Energy  [=(2)] =  -12.78 kcal/mol
USER    
USER    
USER  
USER    DPF = D:/Protein_go_brrr/autodock/final/AncA/IHP/dock.dpf
USER    NEWDPF move	IHP_ideal_opt.pdbqt
USER    NEWDPF about	0.035000 0.082000 -0.065000
USER    NEWDPF tran0	15.322119 -7.608912 -14.466690
USER    NEWDPF axisangle0	0.260211 -0.952395 0.158855 166.155241
USER    NEWDPF quaternion0	0.258314 -0.945452 0.157697 0.120525
USER    NEWDPF dihe0	99.15 112.52 -166.30 44.44 -11.73 -143.28 45.51 -121.17 -7.77 50.06 170.62 111.07 -52.40 48.74 -60.98 -103.05 -70.54 103.80 50.36 -2.42 -172.57 45.06 34.92 -35.74 
USER  
USER                              x       y       z    vdW   Elec        q     RMS 
ATOM      1  C   UNL d   1      14.917  -9.181 -15.059 -0.10 +0.01    +0.194    19.993
ATOM      2  C   UNL d   1      16.211  -9.093 -14.246 -0.08 +0.02    +0.194    19.993
ATOM      3  C   UNL d   1      17.037  -7.863 -14.627 -0.04 +0.01    +0.194    19.993
ATOM      4  C   UNL d   1      16.237  -6.563 -14.580 -0.11 +0.00    +0.194    19.993
ATOM      5  C   UNL d   1      14.887  -6.640 -15.281 -0.14 -0.00    +0.194    19.993
ATOM      6  C   UNL d   1      14.087  -7.901 -14.948 +0.02 +0.00    +0.194    19.993
ATOM      7  O   UNL d   1      14.129 -10.248 -14.528 -0.10 -0.03    -0.278    19.993
ATOM      8  P   UNL d   1      14.603 -11.749 -14.798 -0.03 +0.06    +0.473    19.993
ATOM      9  O   UNL d   1      15.842 -11.883 -15.612 -0.01 -0.02    -0.228    19.993
ATOM     10  O   UNL d   1      14.739 -12.381 -13.339 -0.04 -0.05    -0.303    19.993
ATOM     11  H   UNL d   1      15.380 -11.863 -12.818 +0.02 +0.04    +0.222    19.993
ATOM     12  O   UNL d   1      13.318 -12.493 -15.364 -0.02 -0.04    -0.303    19.993
ATOM     13  H   UNL d   1      13.044 -12.168 -16.251 +0.02 +0.03    +0.222    19.993
ATOM     14  O   UNL d   1      15.882  -9.010 -12.854 -0.11 -0.05    -0.278    19.993
ATOM     15  P   UNL d   1      16.628 -10.040 -11.880 -0.04 +0.08    +0.473    19.993
ATOM     16  O   UNL d   1      17.737  -9.488 -11.040 -0.03 -0.03    -0.228    19.993
ATOM     17  O   UNL d   1      15.451 -10.672 -11.011 -0.45 -0.09    -0.303    19.993
ATOM     18  H   UNL d   1      15.174 -11.536 -11.372 +0.04 +0.05    +0.222    19.993
ATOM     19  O   UNL d   1      17.022 -11.260 -12.820 -0.01 -0.04    -0.303    19.993
ATOM     20  H   UNL d   1      16.539 -11.234 -13.667 +0.02 +0.03    +0.222    19.993
ATOM     21  O   UNL d   1      13.043  -7.995 -15.915 -0.11 +0.01    -0.278    19.993
ATOM     22  P   UNL d   1      13.329  -8.688 -17.323 -0.01 +0.02    +0.473    19.993
ATOM     23  O   UNL d   1      14.705  -8.594 -17.889 -0.01 -0.01    -0.228    19.993
ATOM     24  O   UNL d   1      12.813 -10.172 -17.066 -0.02 -0.02    -0.303    19.993
ATOM     25  H   UNL d   1      13.503 -10.652 -16.542 +0.03 +0.02    +0.222    19.993
ATOM     26  O   UNL d   1      12.153  -8.081 -18.229 -0.01 -0.01    -0.303    19.993
ATOM     27  H   UNL d   1      12.060  -7.125 -18.037 +0.03 +0.00    +0.222    19.993
ATOM     28  O   UNL d   1      18.058  -7.713 -13.648 -0.02 -0.02    -0.278    19.993
ATOM     29  P   UNL d   1      19.404  -6.940 -14.003 +0.01 +0.03    +0.473    19.993
ATOM     30  O   UNL d   1      20.662  -7.660 -13.675 -0.00 -0.02    -0.228    19.993
ATOM     31  O   UNL d   1      19.138  -6.608 -15.545 -0.00 -0.02    -0.303    19.993
ATOM     32  H   UNL d   1      18.792  -5.688 -15.613 +0.02 +0.01    +0.222    19.993
ATOM     33  O   UNL d   1      19.177  -5.531 -13.296 -0.02 -0.01    -0.303    19.993
ATOM     34  H   UNL d   1      18.391  -5.091 -13.702 +0.03 +0.00    +0.222    19.993
ATOM     35  O   UNL d   1      14.136  -5.527 -14.799 -0.15 +0.04    -0.278    19.993
ATOM     36  P   UNL d   1      12.805  -5.069 -15.548 -0.12 -0.05    +0.473    19.993
ATOM     37  O   UNL d   1      12.734  -5.410 -17.003 -0.04 +0.00    -0.228    19.993
ATOM     38  O   UNL d   1      11.677  -5.757 -14.659 -0.25 +0.04    -0.303    19.993
ATOM     39  H   UNL d   1      11.626  -6.710 -14.886 -0.38 -0.06    +0.222    19.993
ATOM     40  O   UNL d   1      12.711  -3.529 -15.162 -0.11 +0.05    -0.303    19.993
ATOM     41  H   UNL d   1      13.521  -3.219 -14.700 -0.31 -0.08    +0.222    19.993
ATOM     42  O   UNL d   1      17.012  -5.575 -15.267 -0.03 -0.00    -0.278    19.993
ATOM     43  P   UNL d   1      16.941  -4.059 -14.774 -0.06 -0.03    +0.473    19.993
ATOM     44  O   UNL d   1      18.155  -3.218 -14.963 -0.03 +0.01    -0.228    19.993
ATOM     45  O   UNL d   1      15.646  -3.510 -15.518 -0.07 +0.03    -0.303    19.993
ATOM     46  H   UNL d   1      14.861  -3.532 -14.935 -0.23 -0.06    +0.222    19.993
ATOM     47  O   UNL d   1      16.417  -4.190 -13.264 -0.01 +0.06    -0.303    19.993
ATOM     48  H   UNL d   1      15.481  -4.479 -13.271 -0.29 -0.12    +0.222    19.993
TER
ENDMDL
MODEL       11
USER    Run = 11
USER    Cluster Rank = 70
USER    Number of conformations in this cluster = 1
USER  
USER    RMSD from reference structure       = 10.543 A
USER  
USER    Estimated Free Energy of Binding    =   +3.63 kcal/mol  [=(1)+(2)+(3)-(4)]
USER    
USER    (1) Final Intermolecular Energy     =   -3.53 kcal/mol
USER        vdW + Hbond + desolv Energy     =   -3.48 kcal/mol
USER        Electrostatic Energy            =   -0.05 kcal/mol
USER    (2) Final Total Internal Energy     =  -13.04 kcal/mol
USER    (3) Torsional Free Energy           =   +7.16 kcal/mol
USER    (4) Unbound System's Energy  [=(2)] =  -13.04 kcal/mol
USER    
USER    
USER  
USER    DPF = D:/Protein_go_brrr/autodock/final/AncA/IHP/dock.dpf
USER    NEWDPF move	IHP_ideal_opt.pdbqt
USER    NEWDPF about	0.035000 0.082000 -0.065000
USER    NEWDPF tran0	2.330453 -12.526022 1.198894
USER    NEWDPF axisangle0	-0.298010 0.748530 -0.592361 -136.882296
USER    NEWDPF quaternion0	-0.277162 0.696164 -0.550920 -0.367457
USER    NEWDPF dihe0	-98.15 -4.24 2.38 -175.84 -16.46 160.23 23.48 -96.67 114.90 -38.98 89.29 -53.77 69.56 -93.81 -171.87 -135.99 172.77 36.09 29.53 6.88 168.62 5.58 15.30 177.25 
USER  
USER                              x       y       z    vdW   Elec        q     RMS 
ATOM      1  C   UNL d   1       2.238 -14.175   1.705 -0.06 +0.07    +0.194    10.543
ATOM      2  C   UNL d   1       2.640 -13.173   2.788 -0.11 +0.07    +0.194    10.543
ATOM      3  C   UNL d   1       3.653 -12.151   2.267 -0.15 +0.05    +0.194    10.543
ATOM      4  C   UNL d   1       3.204 -11.462   0.981 -0.23 +0.05    +0.194    10.543
ATOM      5  C   UNL d   1       2.686 -12.417  -0.087 -0.16 +0.05    +0.194    10.543
ATOM      6  C   UNL d   1       1.720 -13.477   0.447 -0.10 +0.08    +0.194    10.543
ATOM      7  O   UNL d   1       1.171 -14.979   2.216 -0.04 -0.13    -0.278    10.543
ATOM      8  P   UNL d   1       1.537 -16.362   2.926 -0.00 +0.19    +0.473    10.543
ATOM      9  O   UNL d   1       1.080 -16.486   4.337 -0.02 -0.10    -0.228    10.543
ATOM     10  O   UNL d   1       0.910 -17.469   1.964 -0.00 -0.13    -0.303    10.543
ATOM     11  H   UNL d   1       1.619 -17.890   1.443 +0.01 +0.08    +0.222    10.543
ATOM     12  O   UNL d   1       3.095 -16.553   2.682 -0.00 -0.09    -0.303    10.543
ATOM     13  H   UNL d   1       3.356 -16.426   1.742 +0.01 +0.07    +0.222    10.543
ATOM     14  O   UNL d   1       1.472 -12.472   3.233 -0.21 -0.11    -0.278    10.543
ATOM     15  P   UNL d   1       1.345 -12.221   4.810 -0.18 +0.22    +0.473    10.543
ATOM     16  O   UNL d   1       1.804 -13.329   5.705 -0.14 -0.13    -0.228    10.543
ATOM     17  O   UNL d   1       2.139 -10.862   5.052 -0.20 -0.10    -0.303    10.543
ATOM     18  H   UNL d   1       3.069 -11.036   5.295 +0.08 +0.09    +0.222    10.543
ATOM     19  O   UNL d   1      -0.161 -11.752   5.016 -0.31 -0.14    -0.303    10.543
ATOM     20  H   UNL d   1      -0.628 -12.313   5.663 +0.08 +0.12    +0.222    10.543
ATOM     21  O   UNL d   1       1.603 -14.474  -0.566 -0.02 -0.12    -0.278    10.543
ATOM     22  P   UNL d   1       2.866 -15.374  -0.942 +0.01 +0.16    +0.473    10.543
ATOM     23  O   UNL d   1       3.079 -15.724  -2.376 -0.01 -0.09    -0.228    10.543
ATOM     24  O   UNL d   1       4.057 -14.560  -0.269 -0.00 -0.08    -0.303    10.543
ATOM     25  H   UNL d   1       4.320 -13.832  -0.887 +0.04 +0.05    +0.222    10.543
ATOM     26  O   UNL d   1       2.697 -16.609   0.066 -0.00 -0.11    -0.303    10.543
ATOM     27  H   UNL d   1       2.040 -16.377   0.752 +0.01 +0.09    +0.222    10.543
ATOM     28  O   UNL d   1       3.753 -11.115   3.235 -0.16 -0.09    -0.278    10.543
ATOM     29  P   UNL d   1       5.127 -10.857   3.998 -0.03 +0.15    +0.473    10.543
ATOM     30  O   UNL d   1       5.026 -10.064   5.251 -0.14 -0.07    -0.228    10.543
ATOM     31  O   UNL d   1       5.659 -12.361   4.132 -0.02 -0.09    -0.303    10.543
ATOM     32  H   UNL d   1       5.992 -12.655   3.253 +0.04 +0.06    +0.222    10.543
ATOM     33  O   UNL d   1       6.045 -10.261   2.842 -0.12 -0.08    -0.303    10.543
ATOM     34  H   UNL d   1       5.841 -10.730   1.996 +0.05 +0.04    +0.222    10.543
ATOM     35  O   UNL d   1       1.955 -11.609  -1.007 -0.20 -0.08    -0.278    10.543
ATOM     36  P   UNL d   1       1.948 -11.966  -2.562 -0.12 +0.16    +0.473    10.543
ATOM     37  O   UNL d   1       1.967 -10.796  -3.493 -0.20 -0.07    -0.228    10.543
ATOM     38  O   UNL d   1       3.218 -12.920  -2.683 -0.05 -0.08    -0.303    10.543
ATOM     39  H   UNL d   1       3.208 -13.563  -1.942 +0.05 +0.07    +0.222    10.543
ATOM     40  O   UNL d   1       0.711 -12.960  -2.677 -0.09 -0.16    -0.303    10.543
ATOM     41  H   UNL d   1       0.950 -13.872  -2.399 +0.06 +0.12    +0.222    10.543
ATOM     42  O   UNL d   1       4.356 -10.808   0.437 -0.06 -0.04    -0.278    10.543
ATOM     43  P   UNL d   1       5.572 -11.696  -0.087 -0.15 +0.03    +0.473    10.543
ATOM     44  O   UNL d   1       5.461 -12.272  -1.456 -0.15 -0.02    -0.228    10.543
ATOM     45  O   UNL d   1       6.821 -10.731   0.114 -0.25 +0.05    -0.303    10.543
ATOM     46  H   UNL d   1       6.607  -9.989   0.713 -0.25 -0.04    +0.222    10.543
ATOM     47  O   UNL d   1       5.786 -12.758   1.095 -0.04 -0.05    -0.303    10.543
ATOM     48  H   UNL d   1       5.742 -13.664   0.726 +0.04 +0.04    +0.222    10.543
TER
ENDMDL
MODEL       21
USER    Run = 21
USER    Cluster Rank = 71
USER    Number of conformations in this cluster = 1
USER  
USER    RMSD from reference structure       = 13.776 A
USER  
USER    Estimated Free Energy of Binding    =   +3.68 kcal/mol  [=(1)+(2)+(3)-(4)]
USER    
USER    (1) Final Intermolecular Energy     =   -3.48 kcal/mol
USER        vdW + Hbond + desolv Energy     =   -3.29 kcal/mol
USER        Electrostatic Energy            =   -0.19 kcal/mol
USER    (2) Final Total Internal Energy     =  -12.92 kcal/mol
USER    (3) Torsional Free Energy           =   +7.16 kcal/mol
USER    (4) Unbound System's Energy  [=(2)] =  -12.92 kcal/mol
USER    
USER    
USER  
USER    DPF = D:/Protein_go_brrr/autodock/final/AncA/IHP/dock.dpf
USER    NEWDPF move	IHP_ideal_opt.pdbqt
USER    NEWDPF about	0.035000 0.082000 -0.065000
USER    NEWDPF tran0	-4.382593 12.612813 8.790998
USER    NEWDPF axisangle0	0.657867 -0.411947 -0.630485 169.970046
USER    NEWDPF quaternion0	0.655349 -0.410370 -0.628071 0.087416
USER    NEWDPF dihe0	-107.45 -0.44 19.05 66.59 -5.91 -24.67 -72.39 -23.91 4.98 -168.32 28.95 -152.23 52.95 174.81 -54.84 71.30 -132.99 -13.92 38.70 -1.92 -169.58 139.48 -63.43 151.16 
USER  
USER                              x       y       z    vdW   Elec        q     RMS 
ATOM      1  C   UNL d   1      -4.559  13.150   7.159 -0.11 +0.03    +0.194    13.776
ATOM      2  C   UNL d   1      -3.604  13.973   8.026 -0.08 +0.02    +0.194    13.776
ATOM      3  C   UNL d   1      -4.179  14.223   9.422 -0.05 +0.02    +0.194    13.776
ATOM      4  C   UNL d   1      -4.638  12.945  10.120 -0.08 +0.03    +0.194    13.776
ATOM      5  C   UNL d   1      -5.500  12.038   9.252 -0.13 +0.07    +0.194    13.776
ATOM      6  C   UNL d   1      -4.957  11.838   7.836 -0.03 +0.08    +0.194    13.776
ATOM      7  O   UNL d   1      -3.883  12.816   5.944 -0.14 -0.04    -0.278    13.776
ATOM      8  P   UNL d   1      -3.879  13.886   4.758 -0.06 +0.03    +0.473    13.776
ATOM      9  O   UNL d   1      -2.594  14.613   4.569 -0.05 -0.01    -0.228    13.776
ATOM     10  O   UNL d   1      -4.319  13.045   3.477 -0.10 -0.03    -0.303    13.776
ATOM     11  H   UNL d   1      -5.282  13.130   3.345 +0.04 +0.02    +0.222    13.776
ATOM     12  O   UNL d   1      -5.157  14.793   5.016 -0.02 -0.02    -0.303    13.776
ATOM     13  H   UNL d   1      -5.964  14.272   5.231 +0.03 +0.02    +0.222    13.776
ATOM     14  O   UNL d   1      -2.368  13.262   8.162 -0.14 -0.01    -0.278    13.776
ATOM     15  P   UNL d   1      -1.031  14.085   7.845 -0.14 -0.01    +0.473    13.776
ATOM     16  O   UNL d   1      -0.059  13.449   6.901 -0.22 +0.01    -0.228    13.776
ATOM     17  O   UNL d   1      -1.558  15.497   7.331 -0.03 -0.00    -0.303    13.776
ATOM     18  H   UNL d   1      -1.880  15.439   6.411 +0.04 +0.00    +0.222    13.776
ATOM     19  O   UNL d   1      -0.449  14.463   9.276 -0.10 +0.01    -0.303    13.776
ATOM     20  H   UNL d   1      -0.951  14.034   9.994 +0.06 -0.01    +0.222    13.776
ATOM     21  O   UNL d   1      -6.014  11.273   7.064 -0.50 -0.22    -0.278    13.776
ATOM     22  P   UNL d   1      -7.058  12.231   6.330 -0.07 +0.18    +0.473    13.776
ATOM     23  O   UNL d   1      -7.265  13.601   6.881 -0.02 -0.04    -0.228    13.776
ATOM     24  O   UNL d   1      -6.537  12.187   4.827 -0.09 -0.08    -0.303    13.776
ATOM     25  H   UNL d   1      -5.692  12.702   4.778 +0.05 +0.04    +0.222    13.776
ATOM     26  O   UNL d   1      -8.360  11.298   6.257 -0.11 -0.14    -0.303    13.776
ATOM     27  H   UNL d   1      -9.148  11.858   6.102 +0.03 +0.06    +0.222    13.776
ATOM     28  O   UNL d   1      -3.130  14.739  10.230 -0.03 -0.01    -0.278    13.776
ATOM     29  P   UNL d   1      -2.506  13.856  11.400 -0.06 +0.01    +0.473    13.776
ATOM     30  O   UNL d   1      -2.201  12.446  11.045 -0.18 -0.01    -0.228    13.776
ATOM     31  O   UNL d   1      -1.271  14.783  11.820 -0.02 +0.00    -0.303    13.776
ATOM     32  H   UNL d   1      -1.065  15.390  11.073 +0.03 -0.00    +0.222    13.776
ATOM     33  O   UNL d   1      -3.542  14.092  12.585 -0.01 -0.01    -0.303    13.776
ATOM     34  H   UNL d   1      -4.452  14.173  12.206 +0.02 +0.01    +0.222    13.776
ATOM     35  O   UNL d   1      -5.486  10.763   9.891 -0.73 -0.18    -0.278    13.776
ATOM     36  P   UNL d   1      -6.186  10.567  11.311 -0.07 +0.15    +0.473    13.776
ATOM     37  O   UNL d   1      -5.321  10.840  12.500 -0.06 -0.03    -0.228    13.776
ATOM     38  O   UNL d   1      -7.450  11.527  11.186 -0.02 -0.07    -0.303    13.776
ATOM     39  H   UNL d   1      -7.141  12.456  11.111 +0.02 +0.04    +0.222    13.776
ATOM     40  O   UNL d   1      -6.802   9.106  11.187 -0.19 -0.14    -0.303    13.776
ATOM     41  H   UNL d   1      -6.845   8.654  12.059 +0.04 +0.04    +0.222    13.776
ATOM     42  O   UNL d   1      -5.441  13.348  11.235 -0.02 -0.03    -0.278    13.776
ATOM     43  P   UNL d   1      -6.452  14.569  11.056 +0.01 +0.04    +0.473    13.776
ATOM     44  O   UNL d   1      -7.060  14.765   9.711 -0.00 -0.02    -0.228    13.776
ATOM     45  O   UNL d   1      -7.510  14.319  12.218 +0.00 -0.02    -0.303    13.776
ATOM     46  H   UNL d   1      -7.772  13.378  12.267 +0.01 +0.02    +0.222    13.776
ATOM     47  O   UNL d   1      -5.625  15.816  11.631 -0.00 -0.01    -0.303    13.776
ATOM     48  H   UNL d   1      -4.667  15.641  11.531 +0.01 +0.01    +0.222    13.776
TER
ENDMDL
MODEL       32
USER    Run = 32
USER    Cluster Rank = 72
USER    Number of conformations in this cluster = 1
USER  
USER    RMSD from reference structure       = 16.743 A
USER  
USER    Estimated Free Energy of Binding    =   +3.68 kcal/mol  [=(1)+(2)+(3)-(4)]
USER    
USER    (1) Final Intermolecular Energy     =   -3.48 kcal/mol
USER        vdW + Hbond + desolv Energy     =   -3.25 kcal/mol
USER        Electrostatic Energy            =   -0.23 kcal/mol
USER    (2) Final Total Internal Energy     =  -13.53 kcal/mol
USER    (3) Torsional Free Energy           =   +7.16 kcal/mol
USER    (4) Unbound System's Energy  [=(2)] =  -13.53 kcal/mol
USER    
USER    
USER  
USER    DPF = D:/Protein_go_brrr/autodock/final/AncA/IHP/dock.dpf
USER    NEWDPF move	IHP_ideal_opt.pdbqt
USER    NEWDPF about	0.035000 0.082000 -0.065000
USER    NEWDPF tran0	-19.222914 8.042168 2.877613
USER    NEWDPF axisangle0	0.301164 -0.905297 0.299563 154.820981
USER    NEWDPF quaternion0	0.293923 -0.883530 0.292360 0.217965
USER    NEWDPF dihe0	89.86 45.88 5.20 33.66 76.38 155.28 -158.17 -29.82 154.77 79.71 -79.67 -157.30 -43.56 -180.00 -141.20 63.76 108.00 -4.55 52.83 -13.97 -59.71 153.30 140.63 139.37 
USER  
USER                              x       y       z    vdW   Elec        q     RMS 
ATOM      1  C   UNL d   1     -19.352   6.342   2.602 -0.16 +0.04    +0.194    16.743
ATOM      2  C   UNL d   1     -18.328   6.765   3.658 -0.17 +0.02    +0.194    16.743
ATOM      3  C   UNL d   1     -17.514   7.978   3.203 -0.11 -0.01    +0.194    16.743
ATOM      4  C   UNL d   1     -18.382   9.145   2.740 -0.08 +0.01    +0.194    16.743
ATOM      5  C   UNL d   1     -19.490   8.749   1.773 -0.06 +0.01    +0.194    16.743
ATOM      6  C   UNL d   1     -20.265   7.500   2.197 -0.07 +0.03    +0.194    16.743
ATOM      7  O   UNL d   1     -20.181   5.323   3.168 -0.09 -0.11    -0.278    16.743
ATOM      8  P   UNL d   1     -19.537   3.888   3.446 -0.09 +0.51    +0.473    16.743
ATOM      9  O   UNL d   1     -18.063   3.810   3.256 -0.67 -0.26    -0.228    16.743
ATOM     10  O   UNL d   1     -19.997   3.540   4.933 -0.11 -0.29    -0.303    16.743
ATOM     11  H   UNL d   1     -19.557   4.142   5.561 +0.05 +0.14    +0.222    16.743
ATOM     12  O   UNL d   1     -20.402   2.873   2.583 -0.39 -0.46    -0.303    16.743
ATOM     13  H   UNL d   1     -21.116   3.314   2.070 +0.05 +0.17    +0.222    16.743
ATOM     14  O   UNL d   1     -19.018   7.105   4.867 -0.07 -0.05    -0.278    16.743
ATOM     15  P   UNL d   1     -18.689   6.211   6.154 -0.07 +0.11    +0.473    16.743
ATOM     16  O   UNL d   1     -19.852   5.558   6.834 -0.02 -0.05    -0.228    16.743
ATOM     17  O   UNL d   1     -17.611   5.161   5.632 -0.17 -0.12    -0.303    16.743
ATOM     18  H   UNL d   1     -18.041   4.352   5.297 +0.06 +0.14    +0.222    16.743
ATOM     19  O   UNL d   1     -17.798   7.154   7.075 -0.06 -0.04    -0.303    16.743
ATOM     20  H   UNL d   1     -17.323   7.824   6.550 +0.03 +0.03    +0.222    16.743
ATOM     21  O   UNL d   1     -21.007   7.068   1.058 -0.05 -0.04    -0.278    16.743
ATOM     22  P   UNL d   1     -22.236   6.069   1.246 -0.02 +0.09    +0.473    16.743
ATOM     23  O   UNL d   1     -22.097   4.676   0.732 -0.07 -0.06    -0.228    16.743
ATOM     24  O   UNL d   1     -22.509   6.180   2.810 -0.01 -0.06    -0.303    16.743
ATOM     25  H   UNL d   1     -21.972   6.934   3.165 +0.02 +0.04    +0.222    16.743
ATOM     26  O   UNL d   1     -23.447   6.926   0.638 -0.01 -0.04    -0.303    16.743
ATOM     27  H   UNL d   1     -23.192   7.870   0.611 +0.01 +0.02    +0.222    16.743
ATOM     28  O   UNL d   1     -16.801   8.463   4.334 -0.12 -0.01    -0.278    16.743
ATOM     29  P   UNL d   1     -17.388   9.662   5.201 -0.04 +0.03    +0.473    16.743
ATOM     30  O   UNL d   1     -18.861   9.654   5.391 -0.02 -0.02    -0.228    16.743
ATOM     31  O   UNL d   1     -16.485   9.525   6.515 -0.04 -0.02    -0.303    16.743
ATOM     32  H   UNL d   1     -17.039   9.151   7.239 +0.02 +0.02    +0.222    16.743
ATOM     33  O   UNL d   1     -16.763  10.935   4.477 -0.02 -0.01    -0.303    16.743
ATOM     34  H   UNL d   1     -16.625  10.725   3.521 +0.04 +0.01    +0.222    16.743
ATOM     35  O   UNL d   1     -20.413   9.836   1.777 -0.01 -0.02    -0.278    16.743
ATOM     36  P   UNL d   1     -21.609   9.874   2.832 -0.00 +0.04    +0.473    16.743
ATOM     37  O   UNL d   1     -22.099  11.237   3.203 +0.00 -0.01    -0.228    16.743
ATOM     38  O   UNL d   1     -22.700   8.956   2.122 -0.00 -0.03    -0.303    16.743
ATOM     39  H   UNL d   1     -22.516   8.016   2.335 +0.01 +0.02    +0.222    16.743
ATOM     40  O   UNL d   1     -21.050   8.962   4.010 -0.00 -0.03    -0.303    16.743
ATOM     41  H   UNL d   1     -20.088   9.100   4.152 +0.02 +0.02    +0.222    16.743
ATOM     42  O   UNL d   1     -17.520  10.052   2.044 -0.05 -0.00    -0.278    16.743
ATOM     43  P   UNL d   1     -16.225   9.476   1.311 -0.17 -0.03    +0.473    16.743
ATOM     44  O   UNL d   1     -16.370   8.193   0.568 -0.29 +0.05    -0.228    16.743
ATOM     45  O   UNL d   1     -15.761  10.702   0.408 -0.09 +0.01    -0.303    16.743
ATOM     46  H   UNL d   1     -15.276  10.398  -0.385 +0.04 -0.01    +0.222    16.743
ATOM     47  O   UNL d   1     -15.115   9.485   2.467 -0.22 +0.01    -0.303    16.743
ATOM     48  H   UNL d   1     -15.559   9.489   3.340 +0.05 +0.00    +0.222    16.743
TER
ENDMDL
MODEL       35
USER    Run = 35
USER    Cluster Rank = 73
USER    Number of conformations in this cluster = 1
USER  
USER    RMSD from reference structure       = 22.323 A
USER  
USER    Estimated Free Energy of Binding    =   +3.72 kcal/mol  [=(1)+(2)+(3)-(4)]
USER    
USER    (1) Final Intermolecular Energy     =   -3.44 kcal/mol
USER        vdW + Hbond + desolv Energy     =   -3.34 kcal/mol
USER        Electrostatic Energy            =   -0.10 kcal/mol
USER    (2) Final Total Internal Energy     =  -13.85 kcal/mol
USER    (3) Torsional Free Energy           =   +7.16 kcal/mol
USER    (4) Unbound System's Energy  [=(2)] =  -13.85 kcal/mol
USER    
USER    
USER  
USER    DPF = D:/Protein_go_brrr/autodock/final/AncA/IHP/dock.dpf
USER    NEWDPF move	IHP_ideal_opt.pdbqt
USER    NEWDPF about	0.035000 0.082000 -0.065000
USER    NEWDPF tran0	-11.332190 -18.836588 -13.306248
USER    NEWDPF axisangle0	-0.951050 0.304878 -0.050527 -119.420669
USER    NEWDPF quaternion0	-0.821219 0.263258 -0.043629 -0.504372
USER    NEWDPF dihe0	59.43 156.46 127.42 129.95 3.40 -141.66 -100.65 14.57 71.80 -18.66 58.42 -126.66 -53.12 74.79 -21.87 -2.47 45.06 121.34 -158.25 17.92 -11.22 9.58 -17.35 -4.13 
USER  
USER                              x       y       z    vdW   Elec        q     RMS 
ATOM      1  C   UNL d   1      -9.646 -18.483 -13.179 -0.18 +0.08    +0.194    22.323
ATOM      2  C   UNL d   1     -10.528 -17.902 -12.072 -0.21 +0.08    +0.194    22.323
ATOM      3  C   UNL d   1     -11.822 -17.308 -12.633 -0.21 +0.08    +0.194    22.323
ATOM      4  C   UNL d   1     -12.587 -18.274 -13.534 -0.09 +0.09    +0.194    22.323
ATOM      5  C   UNL d   1     -11.721 -18.964 -14.580 -0.05 +0.08    +0.194    22.323
ATOM      6  C   UNL d   1     -10.399 -19.505 -14.032 -0.05 +0.07    +0.194    22.323
ATOM      7  O   UNL d   1      -8.551 -19.167 -12.564 -0.15 -0.17    -0.278    22.323
ATOM      8  P   UNL d   1      -8.803 -20.631 -11.977 -0.07 +0.29    +0.473    22.323
ATOM      9  O   UNL d   1     -10.199 -21.131 -12.107 -0.02 -0.09    -0.228    22.323
ATOM     10  O   UNL d   1      -7.737 -21.541 -12.739 -0.04 -0.18    -0.303    22.323
ATOM     11  H   UNL d   1      -8.169 -21.995 -13.486 +0.02 +0.09    +0.222    22.323
ATOM     12  O   UNL d   1      -8.215 -20.592 -10.502 -0.10 -0.31    -0.303    22.323
ATOM     13  H   UNL d   1      -8.909 -20.650  -9.808 +0.02 +0.18    +0.222    22.323
ATOM     14  O   UNL d   1     -10.868 -18.945 -11.150 -0.10 -0.12    -0.278    22.323
ATOM     15  P   UNL d   1     -11.097 -18.507  -9.627 -0.12 +0.19    +0.473    22.323
ATOM     16  O   UNL d   1     -12.350 -18.993  -8.969 -0.04 -0.07    -0.228    22.323
ATOM     17  O   UNL d   1      -9.778 -18.997  -8.880 -0.14 -0.19    -0.303    22.323
ATOM     18  H   UNL d   1      -9.004 -18.962  -9.474 +0.04 +0.19    +0.222    22.323
ATOM     19  O   UNL d   1     -10.893 -16.929  -9.633 -0.05 -0.10    -0.303    22.323
ATOM     20  H   UNL d   1     -11.623 -16.473 -10.092 -0.42 +0.03    +0.222    22.323
ATOM     21  O   UNL d   1      -9.575 -19.799 -15.158 -0.02 -0.10    -0.278    22.323
ATOM     22  P   UNL d   1      -9.182 -21.311 -15.478 +0.01 +0.14    +0.473    22.323
ATOM     23  O   UNL d   1      -9.846 -22.393 -14.694 -0.00 -0.06    -0.228    22.323
ATOM     24  O   UNL d   1      -9.420 -21.384 -17.050 +0.00 -0.08    -0.303    22.323
ATOM     25  H   UNL d   1     -10.382 -21.217 -17.224 +0.00 +0.06    +0.222    22.323
ATOM     26  O   UNL d   1      -7.582 -21.258 -15.388 -0.00 -0.10    -0.303    22.323
ATOM     27  H   UNL d   1      -7.322 -20.742 -14.597 +0.03 +0.09    +0.222    22.323
ATOM     28  O   UNL d   1     -12.687 -17.052 -11.534 -0.14 -0.10    -0.278    22.323
ATOM     29  P   UNL d   1     -13.200 -15.572 -11.242 -0.14 +0.17    +0.473    22.323
ATOM     30  O   UNL d   1     -12.292 -14.481 -11.679 -0.26 -0.09    -0.228    22.323
ATOM     31  O   UNL d   1     -14.643 -15.636 -11.932 -0.14 -0.19    -0.303    22.323
ATOM     32  H   UNL d   1     -14.542 -16.013 -12.836 +0.03 +0.20    +0.222    22.323
ATOM     33  O   UNL d   1     -13.549 -15.640  -9.690 -0.12 -0.04    -0.303    22.323
ATOM     34  H   UNL d   1     -12.708 -15.655  -9.172 -0.47 -0.02    +0.222    22.323
ATOM     35  O   UNL d   1     -12.479 -20.085 -15.031 -0.00 -0.09    -0.278    22.323
ATOM     36  P   UNL d   1     -13.026 -20.138 -16.528 +0.01 +0.15    +0.473    22.323
ATOM     37  O   UNL d   1     -12.104 -20.757 -17.530 +0.00 -0.06    -0.228    22.323
ATOM     38  O   UNL d   1     -14.407 -20.910 -16.344 +0.00 -0.08    -0.303    22.323
ATOM     39  H   UNL d   1     -14.541 -21.104 -15.392 +0.01 +0.06    +0.222    22.323
ATOM     40  O   UNL d   1     -13.462 -18.630 -16.784 -0.02 -0.15    -0.303    22.323
ATOM     41  H   UNL d   1     -14.157 -18.340 -16.152 +0.01 +0.14    +0.222    22.323
ATOM     42  O   UNL d   1     -13.563 -17.499 -14.239 -0.07 -0.22    -0.278    22.323
ATOM     43  P   UNL d   1     -15.110 -17.778 -13.971 -0.05 +0.28    +0.473    22.323
ATOM     44  O   UNL d   1     -16.087 -16.776 -14.482 -0.09 -0.18    -0.228    22.323
ATOM     45  O   UNL d   1     -15.309 -19.242 -14.562 -0.00 -0.11    -0.303    22.323
ATOM     46  H   UNL d   1     -14.554 -19.506 -15.125 +0.01 +0.08    +0.222    22.323
ATOM     47  O   UNL d   1     -15.164 -18.053 -12.393 -0.01 -0.12    -0.303    22.323
ATOM     48  H   UNL d   1     -14.723 -17.316 -11.921 +0.04 +0.10    +0.222    22.323
TER
ENDMDL
MODEL       77
USER    Run = 77
USER    Cluster Rank = 74
USER    Number of conformations in this cluster = 1
USER  
USER    RMSD from reference structure       = 16.028 A
USER  
USER    Estimated Free Energy of Binding    =   +3.75 kcal/mol  [=(1)+(2)+(3)-(4)]
USER    
USER    (1) Final Intermolecular Energy     =   -3.41 kcal/mol
USER        vdW + Hbond + desolv Energy     =   -3.35 kcal/mol
USER        Electrostatic Energy            =   -0.05 kcal/mol
USER    (2) Final Total Internal Energy     =  -13.56 kcal/mol
USER    (3) Torsional Free Energy           =   +7.16 kcal/mol
USER    (4) Unbound System's Energy  [=(2)] =  -13.56 kcal/mol
USER    
USER    
USER  
USER    DPF = D:/Protein_go_brrr/autodock/final/AncA/IHP/dock.dpf
USER    NEWDPF move	IHP_ideal_opt.pdbqt
USER    NEWDPF about	0.035000 0.082000 -0.065000
USER    NEWDPF tran0	1.000265 5.836157 16.426926
USER    NEWDPF axisangle0	-0.091865 -0.956354 0.277395 164.194057
USER    NEWDPF quaternion0	-0.090992 -0.947271 0.274760 0.137496
USER    NEWDPF dihe0	-111.94 38.07 48.21 42.32 22.33 -166.58 -143.33 -26.11 101.74 28.89 165.62 109.84 -157.41 166.54 167.37 66.14 114.36 -121.16 36.52 -15.59 -18.33 153.18 -4.91 -180.00 
USER  
USER                              x       y       z    vdW   Elec        q     RMS 
ATOM      1  C   UNL d   1      -0.238   4.787  15.836 -0.05 -0.02    +0.194    16.028
ATOM      2  C   UNL d   1       0.665   4.198  16.921 -0.04 -0.01    +0.194    16.028
ATOM      3  C   UNL d   1       2.136   4.542  16.682 -0.05 -0.01    +0.194    16.028
ATOM      4  C   UNL d   1       2.379   6.035  16.477 -0.06 -0.01    +0.194    16.028
ATOM      5  C   UNL d   1       1.424   6.689  15.486 -0.14 -0.01    +0.194    16.028
ATOM      6  C   UNL d   1      -0.041   6.296  15.687 -0.10 -0.02    +0.194    16.028
ATOM      7  O   UNL d   1      -1.598   4.571  16.222 -0.04 +0.03    -0.278    16.028
ATOM      8  P   UNL d   1      -2.285   3.181  15.836 -0.02 -0.07    +0.473    16.028
ATOM      9  O   UNL d   1      -3.267   3.251  14.720 -0.09 +0.07    -0.228    16.028
ATOM     10  O   UNL d   1      -1.054   2.213  15.530 -0.06 +0.04    -0.303    16.028
ATOM     11  H   UNL d   1      -0.784   1.758  16.349 +0.04 -0.02    +0.222    16.028
ATOM     12  O   UNL d   1      -2.834   2.597  17.208 -0.00 +0.02    -0.303    16.028
ATOM     13  H   UNL d   1      -2.553   3.122  17.990 +0.01 -0.01    +0.222    16.028
ATOM     14  O   UNL d   1       0.273   4.728  18.194 -0.00 +0.01    -0.278    16.028
ATOM     15  P   UNL d   1      -0.295   3.680  19.262 +0.00 -0.01    +0.473    16.028
ATOM     16  O   UNL d   1      -1.490   4.108  20.055 +0.00 +0.00    -0.228    16.028
ATOM     17  O   UNL d   1      -0.560   2.361  18.408 -0.00 +0.01    -0.303    16.028
ATOM     18  H   UNL d   1      -1.046   2.567  17.587 +0.02 -0.01    +0.222    16.028
ATOM     19  O   UNL d   1       0.978   3.256  20.117 +0.00 +0.00    -0.303    16.028
ATOM     20  H   UNL d   1       1.810   3.482  19.661 +0.00 -0.00    +0.222    16.028
ATOM     21  O   UNL d   1      -0.740   6.695  14.510 -0.13 +0.06    -0.278    16.028
ATOM     22  P   UNL d   1      -1.949   7.730  14.620 -0.09 -0.08    +0.473    16.028
ATOM     23  O   UNL d   1      -2.901   7.826  13.476 -0.14 +0.05    -0.228    16.028
ATOM     24  O   UNL d   1      -2.611   7.313  16.006 -0.02 +0.03    -0.303    16.028
ATOM     25  H   UNL d   1      -2.660   6.324  16.038 +0.03 -0.02    +0.222    16.028
ATOM     26  O   UNL d   1      -1.183   9.083  15.013 -0.06 +0.03    -0.303    16.028
ATOM     27  H   UNL d   1      -0.237   8.997  14.778 +0.06 -0.03    +0.222    16.028
ATOM     28  O   UNL d   1       2.853   4.202  17.862 -0.00 +0.01    -0.278    16.028
ATOM     29  P   UNL d   1       3.170   5.313  18.959 +0.01 -0.01    +0.473    16.028
ATOM     30  O   UNL d   1       2.075   6.279  19.228 -0.00 +0.00    -0.228    16.028
ATOM     31  O   UNL d   1       3.631   4.381  20.175 +0.00 +0.00    -0.303    16.028
ATOM     32  H   UNL d   1       2.844   4.176  20.730 +0.00 -0.00    +0.222    16.028
ATOM     33  O   UNL d   1       4.548   5.915  18.435 +0.00 +0.00    -0.303    16.028
ATOM     34  H   UNL d   1       4.557   5.885  17.447 +0.02 -0.01    +0.222    16.028
ATOM     35  O   UNL d   1       1.519   8.092  15.725 -0.06 +0.03    -0.278    16.028
ATOM     36  P   UNL d   1       1.861   9.090  14.529 -0.16 -0.09    +0.473    16.028
ATOM     37  O   UNL d   1       1.461  10.515  14.744 -0.11 +0.04    -0.228    16.028
ATOM     38  O   UNL d   1       3.429   8.869  14.358 -0.14 +0.08    -0.303    16.028
ATOM     39  H   UNL d   1       3.649   7.941  14.589 -0.06 -0.05    +0.222    16.028
ATOM     40  O   UNL d   1       1.230   8.345  13.273 -0.09 +0.09    -0.303    16.028
ATOM     41  H   UNL d   1       0.987   7.416  13.485 +0.06 -0.05    +0.222    16.028
ATOM     42  O   UNL d   1       3.699   6.171  15.941 -0.05 +0.01    -0.278    16.028
ATOM     43  P   UNL d   1       3.986   5.657  14.458 -0.15 -0.03    +0.473    16.028
ATOM     44  O   UNL d   1       4.098   4.186  14.251 -0.23 +0.00    -0.228    16.028
ATOM     45  O   UNL d   1       2.824   6.346  13.618 -0.41 -0.00    -0.303    16.028
ATOM     46  H   UNL d   1       3.110   7.205  13.249 -0.45 -0.06    +0.222    16.028
ATOM     47  O   UNL d   1       5.264   6.517  14.013 -0.14 +0.07    -0.303    16.028
ATOM     48  H   UNL d   1       4.993   7.447  13.871 -0.47 -0.11    +0.222    16.028
TER
ENDMDL
MODEL       10
USER    Run = 10
USER    Cluster Rank = 75
USER    Number of conformations in this cluster = 1
USER  
USER    RMSD from reference structure       = 20.023 A
USER  
USER    Estimated Free Energy of Binding    =   +3.84 kcal/mol  [=(1)+(2)+(3)-(4)]
USER    
USER    (1) Final Intermolecular Energy     =   -3.32 kcal/mol
USER        vdW + Hbond + desolv Energy     =   -2.94 kcal/mol
USER        Electrostatic Energy            =   -0.38 kcal/mol
USER    (2) Final Total Internal Energy     =  -13.72 kcal/mol
USER    (3) Torsional Free Energy           =   +7.16 kcal/mol
USER    (4) Unbound System's Energy  [=(2)] =  -13.72 kcal/mol
USER    
USER    
USER  
USER    DPF = D:/Protein_go_brrr/autodock/final/AncA/IHP/dock.dpf
USER    NEWDPF move	IHP_ideal_opt.pdbqt
USER    NEWDPF about	0.035000 0.082000 -0.065000
USER    NEWDPF tran0	8.500628 8.451682 -18.935998
USER    NEWDPF axisangle0	0.884176 -0.286682 0.368844 -155.430888
USER    NEWDPF quaternion0	0.863931 -0.280117 0.360398 -0.212767
USER    NEWDPF dihe0	180.00 -9.75 68.43 61.65 177.46 81.21 -107.88 -25.05 89.88 27.81 24.95 -39.07 21.33 -15.70 62.35 62.56 110.13 -94.25 -135.85 -13.66 175.02 158.22 -5.28 -180.00 
USER  
USER                              x       y       z    vdW   Elec        q     RMS 
ATOM      1  C   UNL d   1      10.196   8.255 -18.667 -0.04 +0.06    +0.194    20.023
ATOM      2  C   UNL d   1       9.794   9.483 -19.487 -0.00 +0.04    +0.194    20.023
ATOM      3  C   UNL d   1       8.714   9.148 -20.517 +0.00 +0.04    +0.194    20.023
ATOM      4  C   UNL d   1       7.505   8.438 -19.912 -0.00 +0.05    +0.194    20.023
ATOM      5  C   UNL d   1       7.864   7.276 -18.994 -0.05 +0.10    +0.194    20.023
ATOM      6  C   UNL d   1       8.988   7.592 -18.005 -0.10 +0.11    +0.194    20.023
ATOM      7  O   UNL d   1      11.073   8.683 -17.623 -0.04 -0.09    -0.278    20.023
ATOM      8  P   UNL d   1      10.477   8.842 -16.149 -0.12 +0.20    +0.473    20.023
ATOM      9  O   UNL d   1      10.185   7.564 -15.445 -0.72 -0.21    -0.228    20.023
ATOM     10  O   UNL d   1      11.553   9.744 -15.392 -0.05 -0.08    -0.303    20.023
ATOM     11  H   UNL d   1      12.075  10.247 -16.045 +0.04 +0.05    +0.222    20.023
ATOM     12  O   UNL d   1       9.254   9.844 -16.304 -0.03 -0.10    -0.303    20.023
ATOM     13  H   UNL d   1       9.503  10.695 -16.730 +0.03 +0.05    +0.222    20.023
ATOM     14  O   UNL d   1       9.286  10.489 -18.602 -0.00 -0.05    -0.278    20.023
ATOM     15  P   UNL d   1      10.094  11.870 -18.548 +0.00 +0.07    +0.473    20.023
ATOM     16  O   UNL d   1      10.614  12.396 -19.849 +0.00 -0.02    -0.228    20.023
ATOM     17  O   UNL d   1       9.091  12.879 -17.831 +0.00 -0.04    -0.303    20.023
ATOM     18  H   UNL d   1       8.162  12.617 -17.982 +0.00 +0.03    +0.222    20.023
ATOM     19  O   UNL d   1      11.186  11.646 -17.413 -0.00 -0.05    -0.303    20.023
ATOM     20  H   UNL d   1      11.141  10.745 -17.043 +0.02 +0.04    +0.222    20.023
ATOM     21  O   UNL d   1       9.433   6.345 -17.475 -0.18 -0.29    -0.278    20.023
ATOM     22  P   UNL d   1      10.289   5.357 -18.389 -0.13 +0.35    +0.473    20.023
ATOM     23  O   UNL d   1      11.776   5.455 -18.332 -0.06 -0.10    -0.228    20.023
ATOM     24  O   UNL d   1       9.698   3.938 -17.977 -0.72 -0.43    -0.303    20.023
ATOM     25  H   UNL d   1       9.197   3.577 -18.752 +0.03 +0.23    +0.222    20.023
ATOM     26  O   UNL d   1       9.624   5.588 -19.830 -0.02 -0.14    -0.303    20.023
ATOM     27  H   UNL d   1       8.918   4.924 -19.968 +0.02 +0.12    +0.222    20.023
ATOM     28  O   UNL d   1       8.213  10.377 -21.027 +0.00 -0.04    -0.278    20.023
ATOM     29  P   UNL d   1       6.960  11.082 -20.341 +0.00 +0.06    +0.473    20.023
ATOM     30  O   UNL d   1       6.892  10.968 -18.861 -0.00 -0.04    -0.228    20.023
ATOM     31  O   UNL d   1       7.100  12.555 -20.950 +0.00 -0.03    -0.303    20.023
ATOM     32  H   UNL d   1       7.995  12.902 -20.730 +0.00 +0.02    +0.222    20.023
ATOM     33  O   UNL d   1       5.742  10.474 -21.167 +0.00 -0.04    -0.303    20.023
ATOM     34  H   UNL d   1       5.957   9.543 -21.419 +0.00 +0.03    +0.222    20.023
ATOM     35  O   UNL d   1       6.691   7.012 -18.227 -0.06 -0.19    -0.278    20.023
ATOM     36  P   UNL d   1       6.059   5.548 -18.200 -0.03 +0.48    +0.473    20.023
ATOM     37  O   UNL d   1       5.255   5.215 -16.984 -0.71 -0.31    -0.228    20.023
ATOM     38  O   UNL d   1       5.229   5.526 -19.560 -0.01 -0.13    -0.303    20.023
ATOM     39  H   UNL d   1       5.572   6.226 -20.156 +0.01 +0.07    +0.222    20.023
ATOM     40  O   UNL d   1       7.320   4.628 -18.507 -0.08 -0.43    -0.303    20.023
ATOM     41  H   UNL d   1       8.080   5.153 -18.843 +0.03 +0.23    +0.222    20.023
ATOM     42  O   UNL d   1       6.754   7.896 -21.003 +0.00 -0.06    -0.278    20.023
ATOM     43  P   UNL d   1       7.371   6.687 -21.840 +0.01 +0.10    +0.473    20.023
ATOM     44  O   UNL d   1       8.779   6.823 -22.308 +0.00 -0.04    -0.228    20.023
ATOM     45  O   UNL d   1       7.121   5.438 -20.886 +0.00 -0.10    -0.303    20.023
ATOM     46  H   UNL d   1       7.404   5.626 -19.969 +0.02 +0.11    +0.222    20.023
ATOM     47  O   UNL d   1       6.281   6.442 -22.990 +0.00 -0.04    -0.303    20.023
ATOM     48  H   UNL d   1       6.740   6.255 -23.835 +0.00 +0.03    +0.222    20.023
TER
ENDMDL
MODEL       50
USER    Run = 50
USER    Cluster Rank = 76
USER    Number of conformations in this cluster = 1
USER  
USER    RMSD from reference structure       = 21.016 A
USER  
USER    Estimated Free Energy of Binding    =   +3.90 kcal/mol  [=(1)+(2)+(3)-(4)]
USER    
USER    (1) Final Intermolecular Energy     =   -3.26 kcal/mol
USER        vdW + Hbond + desolv Energy     =   -3.17 kcal/mol
USER        Electrostatic Energy            =   -0.09 kcal/mol
USER    (2) Final Total Internal Energy     =  -14.66 kcal/mol
USER    (3) Torsional Free Energy           =   +7.16 kcal/mol
USER    (4) Unbound System's Energy  [=(2)] =  -14.66 kcal/mol
USER    
USER    
USER  
USER    DPF = D:/Protein_go_brrr/autodock/final/AncA/IHP/dock.dpf
USER    NEWDPF move	IHP_ideal_opt.pdbqt
USER    NEWDPF about	0.035000 0.082000 -0.065000
USER    NEWDPF tran0	-19.400961 -14.528801 2.334723
USER    NEWDPF axisangle0	0.544958 -0.051275 -0.836894 -106.345081
USER    NEWDPF quaternion0	0.436208 -0.041043 -0.669887 -0.599407
USER    NEWDPF dihe0	-107.84 34.32 45.84 17.33 -3.19 180.00 -38.81 -74.54 107.21 105.78 48.58 -97.82 -176.28 163.55 175.15 79.65 72.56 -83.22 54.55 0.84 174.36 -11.74 14.85 -172.52 
USER  
USER                              x       y       z    vdW   Elec        q     RMS 
ATOM      1  C   UNL d   1     -20.459 -15.703   1.638 -0.05 +0.02    +0.194    21.016
ATOM      2  C   UNL d   1     -20.966 -14.260   1.614 -0.10 +0.01    +0.194    21.016
ATOM      3  C   UNL d   1     -20.703 -13.545   2.941 -0.15 -0.00    +0.194    21.016
ATOM      4  C   UNL d   1     -19.249 -13.639   3.397 -0.01 +0.01    +0.194    21.016
ATOM      5  C   UNL d   1     -18.666 -15.044   3.327 -0.14 +0.01    +0.194    21.016
ATOM      6  C   UNL d   1     -18.982 -15.782   2.025 -0.10 +0.02    +0.194    21.016
ATOM      7  O   UNL d   1     -20.584 -16.242   0.320 -0.01 -0.03    -0.278    21.016
ATOM      8  P   UNL d   1     -22.051 -16.487  -0.264 +0.00 +0.04    +0.473    21.016
ATOM      9  O   UNL d   1     -22.321 -17.875  -0.728 -0.00 -0.02    -0.228    21.016
ATOM     10  O   UNL d   1     -23.019 -16.018   0.914 -0.00 -0.02    -0.303    21.016
ATOM     11  H   UNL d   1     -23.278 -15.089   0.774 +0.01 +0.02    +0.222    21.016
ATOM     12  O   UNL d   1     -22.262 -15.341  -1.344 -0.00 -0.03    -0.303    21.016
ATOM     13  H   UNL d   1     -21.565 -14.648  -1.312 +0.02 +0.02    +0.222    21.016
ATOM     14  O   UNL d   1     -20.293 -13.546   0.569 -0.17 -0.01    -0.278    21.016
ATOM     15  P   UNL d   1     -21.213 -12.670  -0.406 -0.12 +0.01    +0.473    21.016
ATOM     16  O   UNL d   1     -20.846 -12.671  -1.856 -0.11 -0.01    -0.228    21.016
ATOM     17  O   UNL d   1     -22.687 -13.213  -0.141 -0.02 -0.02    -0.303    21.016
ATOM     18  H   UNL d   1     -22.717 -14.188  -0.195 +0.02 +0.02    +0.222    21.016
ATOM     19  O   UNL d   1     -21.272 -11.238   0.286 -0.11 +0.03    -0.303    21.016
ATOM     20  H   UNL d   1     -21.390 -11.309   1.251 -0.22 -0.05    +0.222    21.016
ATOM     21  O   UNL d   1     -18.681 -17.158   2.247 -0.03 -0.03    -0.278    21.016
ATOM     22  P   UNL d   1     -19.628 -18.034   3.185 +0.00 +0.05    +0.473    21.016
ATOM     23  O   UNL d   1     -19.042 -19.229   3.860 -0.00 -0.02    -0.228    21.016
ATOM     24  O   UNL d   1     -20.217 -16.933   4.172 -0.01 -0.02    -0.303    21.016
ATOM     25  H   UNL d   1     -19.482 -16.620   4.759 +0.03 +0.02    +0.222    21.016
ATOM     26  O   UNL d   1     -20.875 -18.314   2.218 -0.00 -0.03    -0.303    21.016
ATOM     27  H   UNL d   1     -20.674 -17.967   1.325 +0.01 +0.02    +0.222    21.016
ATOM     28  O   UNL d   1     -20.945 -12.159   2.736 -0.09 +0.05    -0.278    21.016
ATOM     29  P   UNL d   1     -22.333 -11.512   3.176 -0.05 -0.03    +0.473    21.016
ATOM     30  O   UNL d   1     -22.728 -11.743   4.589 -0.03 -0.00    -0.228    21.016
ATOM     31  O   UNL d   1     -22.087  -9.995   2.729 -0.10 +0.04    -0.303    21.016
ATOM     32  H   UNL d   1     -21.287  -9.962   2.155 -0.52 -0.09    +0.222    21.016
ATOM     33  O   UNL d   1     -23.324 -12.052   2.053 -0.02 -0.01    -0.303    21.016
ATOM     34  H   UNL d   1     -22.792 -12.401   1.296 +0.03 +0.00    +0.222    21.016
ATOM     35  O   UNL d   1     -17.250 -14.880   3.384 -0.07 +0.00    -0.278    21.016
ATOM     36  P   UNL d   1     -16.344 -15.960   4.129 -0.09 +0.03    +0.473    21.016
ATOM     37  O   UNL d   1     -15.365 -16.688   3.263 -0.09 -0.03    -0.228    21.016
ATOM     38  O   UNL d   1     -15.676 -15.087   5.281 -0.21 -0.00    -0.303    21.016
ATOM     39  H   UNL d   1     -16.332 -14.437   5.613 -0.28 -0.02    +0.222    21.016
ATOM     40  O   UNL d   1     -17.425 -16.841   4.895 -0.03 -0.02    -0.303    21.016
ATOM     41  H   UNL d   1     -18.020 -17.312   4.270 +0.03 +0.02    +0.222    21.016
ATOM     42  O   UNL d   1     -19.218 -13.237   4.770 -0.23 +0.01    -0.278    21.016
ATOM     43  P   UNL d   1     -19.728 -14.259   5.884 -0.08 +0.01    +0.473    21.016
ATOM     44  O   UNL d   1     -20.904 -15.109   5.548 -0.02 -0.01    -0.228    21.016
ATOM     45  O   UNL d   1     -18.411 -15.079   6.236 -0.07 -0.01    -0.303    21.016
ATOM     46  H   UNL d   1     -17.773 -15.066   5.494 +0.04 -0.00    +0.222    21.016
ATOM     47  O   UNL d   1     -19.892 -13.333   7.182 -0.10 -0.02    -0.303    21.016
ATOM     48  H   UNL d   1     -20.747 -12.858   7.134 +0.05 +0.02    +0.222    21.016
TER
ENDMDL
MODEL       55
USER    Run = 55
USER    Cluster Rank = 77
USER    Number of conformations in this cluster = 1
USER  
USER    RMSD from reference structure       = 25.135 A
USER  
USER    Estimated Free Energy of Binding    =   +3.92 kcal/mol  [=(1)+(2)+(3)-(4)]
USER    
USER    (1) Final Intermolecular Energy     =   -3.24 kcal/mol
USER        vdW + Hbond + desolv Energy     =   -3.02 kcal/mol
USER        Electrostatic Energy            =   -0.22 kcal/mol
USER    (2) Final Total Internal Energy     =  -14.10 kcal/mol
USER    (3) Torsional Free Energy           =   +7.16 kcal/mol
USER    (4) Unbound System's Energy  [=(2)] =  -14.10 kcal/mol
USER    
USER    
USER  
USER    DPF = D:/Protein_go_brrr/autodock/final/AncA/IHP/dock.dpf
USER    NEWDPF move	IHP_ideal_opt.pdbqt
USER    NEWDPF about	0.035000 0.082000 -0.065000
USER    NEWDPF tran0	-11.138522 -18.293840 -19.283039
USER    NEWDPF axisangle0	-0.999263 0.037063 0.009972 -152.696545
USER    NEWDPF quaternion0	-0.971032 0.036016 0.009690 -0.236020
USER    NEWDPF dihe0	176.51 12.64 -59.62 117.50 52.35 -103.18 -46.59 -114.90 163.12 -11.03 43.75 -130.20 46.28 -12.23 -22.52 -39.15 179.81 135.45 15.98 -22.46 -51.74 6.48 34.64 -3.22 
USER  
USER                              x       y       z    vdW   Elec        q     RMS 
ATOM      1  C   UNL d   1      -9.824 -17.226 -19.624 -0.00 +0.07    +0.194    25.135
ATOM      2  C   UNL d   1     -11.008 -16.601 -18.884 -0.02 +0.08    +0.194    25.135
ATOM      3  C   UNL d   1     -12.347 -17.055 -19.471 -0.01 +0.08    +0.194    25.135
ATOM      4  C   UNL d   1     -12.471 -18.572 -19.583 +0.00 +0.06    +0.194    25.135
ATOM      5  C   UNL d   1     -11.261 -19.249 -20.212 +0.00 +0.05    +0.194    25.135
ATOM      6  C   UNL d   1      -9.920 -18.751 -19.668 +0.01 +0.06    +0.194    25.135
ATOM      7  O   UNL d   1      -8.629 -16.894 -18.914 -0.04 -0.11    -0.278    25.135
ATOM      8  P   UNL d   1      -7.649 -15.802 -19.545 -0.15 +0.26    +0.473    25.135
ATOM      9  O   UNL d   1      -7.802 -14.426 -18.998 -0.28 -0.12    -0.228    25.135
ATOM     10  O   UNL d   1      -6.192 -16.410 -19.316 -0.19 -0.24    -0.303    25.135
ATOM     11  H   UNL d   1      -6.261 -17.368 -19.144 +0.04 +0.13    +0.222    25.135
ATOM     12  O   UNL d   1      -7.827 -15.947 -21.117 -0.09 -0.15    -0.303    25.135
ATOM     13  H   UNL d   1      -8.018 -16.869 -21.400 +0.03 +0.09    +0.222    25.135
ATOM     14  O   UNL d   1     -10.957 -16.994 -17.507 -0.08 -0.15    -0.278    25.135
ATOM     15  P   UNL d   1     -10.570 -15.854 -16.451 -0.09 +0.35    +0.473    25.135
ATOM     16  O   UNL d   1     -11.215 -14.517 -16.639 -0.29 -0.24    -0.228    25.135
ATOM     17  O   UNL d   1     -10.904 -16.506 -15.036 -0.60 -0.21    -0.303    25.135
ATOM     18  H   UNL d   1     -11.080 -15.819 -14.365 -0.50 +0.14    +0.222    25.135
ATOM     19  O   UNL d   1      -8.980 -15.853 -16.434 -0.16 -0.15    -0.303    25.135
ATOM     20  H   UNL d   1      -8.610 -15.687 -17.321 +0.07 +0.10    +0.222    25.135
ATOM     21  O   UNL d   1      -8.914 -19.208 -20.570 +0.00 -0.07    -0.278    25.135
ATOM     22  P   UNL d   1      -7.423 -19.426 -20.048 +0.02 +0.14    +0.473    25.135
ATOM     23  O   UNL d   1      -7.164 -19.310 -18.584 -0.01 -0.07    -0.228    25.135
ATOM     24  O   UNL d   1      -7.061 -20.841 -20.680 +0.00 -0.07    -0.303    25.135
ATOM     25  H   UNL d   1      -7.900 -21.260 -21.000 +0.00 +0.05    +0.222    25.135
ATOM     26  O   UNL d   1      -6.598 -18.423 -20.989 -0.02 -0.12    -0.303    25.135
ATOM     27  H   UNL d   1      -6.649 -17.519 -20.618 +0.03 +0.12    +0.222    25.135
ATOM     28  O   UNL d   1     -13.368 -16.658 -18.565 -0.06 -0.18    -0.278    25.135
ATOM     29  P   UNL d   1     -14.483 -15.614 -19.017 -0.03 +0.30    +0.473    25.135
ATOM     30  O   UNL d   1     -13.994 -14.245 -19.321 -0.05 -0.12    -0.228    25.135
ATOM     31  O   UNL d   1     -15.157 -16.429 -20.219 -0.00 -0.10    -0.303    25.135
ATOM     32  H   UNL d   1     -14.750 -17.325 -20.257 +0.01 +0.07    +0.222    25.135
ATOM     33  O   UNL d   1     -15.560 -15.752 -17.852 -0.60 -0.32    -0.303    25.135
ATOM     34  H   UNL d   1     -15.837 -16.698 -17.780 +0.01 +0.17    +0.222    25.135
ATOM     35  O   UNL d   1     -11.367 -20.629 -19.868 +0.00 -0.06    -0.278    25.135
ATOM     36  P   UNL d   1     -10.484 -21.719 -20.629 +0.00 +0.09    +0.473    25.135
ATOM     37  O   UNL d   1     -11.206 -22.964 -21.035 +0.00 -0.04    -0.228    25.135
ATOM     38  O   UNL d   1      -9.901 -20.873 -21.846 +0.00 -0.06    -0.303    25.135
ATOM     39  H   UNL d   1      -9.026 -20.508 -21.593 +0.00 +0.05    +0.222    25.135
ATOM     40  O   UNL d   1      -9.241 -21.891 -19.652 +0.00 -0.06    -0.303    25.135
ATOM     41  H   UNL d   1      -8.825 -21.026 -19.436 +0.00 +0.05    +0.222    25.135
ATOM     42  O   UNL d   1     -13.591 -18.834 -20.435 +0.00 -0.07    -0.278    25.135
ATOM     43  P   UNL d   1     -14.876 -19.553 -19.821 +0.01 +0.11    +0.473    25.135
ATOM     44  O   UNL d   1     -16.012 -19.834 -20.743 +0.00 -0.04    -0.228    25.135
ATOM     45  O   UNL d   1     -14.257 -20.849 -19.136 +0.00 -0.06    -0.303    25.135
ATOM     46  H   UNL d   1     -13.448 -21.146 -19.598 +0.00 +0.04    +0.222    25.135
ATOM     47  O   UNL d   1     -15.228 -18.647 -18.547 -0.00 -0.10    -0.303    25.135
ATOM     48  H   UNL d   1     -15.237 -17.704 -18.813 +0.01 +0.09    +0.222    25.135
TER
ENDMDL
MODEL       18
USER    Run = 18
USER    Cluster Rank = 78
USER    Number of conformations in this cluster = 1
USER  
USER    RMSD from reference structure       = 24.079 A
USER  
USER    Estimated Free Energy of Binding    =   +3.95 kcal/mol  [=(1)+(2)+(3)-(4)]
USER    
USER    (1) Final Intermolecular Energy     =   -3.21 kcal/mol
USER        vdW + Hbond + desolv Energy     =   -3.20 kcal/mol
USER        Electrostatic Energy            =   -0.02 kcal/mol
USER    (2) Final Total Internal Energy     =  -14.24 kcal/mol
USER    (3) Torsional Free Energy           =   +7.16 kcal/mol
USER    (4) Unbound System's Energy  [=(2)] =  -14.24 kcal/mol
USER    
USER    
USER  
USER    DPF = D:/Protein_go_brrr/autodock/final/AncA/IHP/dock.dpf
USER    NEWDPF move	IHP_ideal_opt.pdbqt
USER    NEWDPF about	0.035000 0.082000 -0.065000
USER    NEWDPF tran0	-13.277634 -18.361953 -15.582427
USER    NEWDPF axisangle0	-0.846951 0.435861 -0.304464 75.327692
USER    NEWDPF quaternion0	-0.517511 0.266323 -0.186036 0.791609
USER    NEWDPF dihe0	-155.72 -33.30 41.59 82.77 156.93 126.63 -58.47 -44.73 30.17 57.57 31.58 -160.17 46.80 -75.72 82.37 55.41 124.78 152.14 -145.58 -5.56 16.22 -11.12 -21.26 -3.26 
USER  
USER                              x       y       z    vdW   Elec        q     RMS 
ATOM      1  C   UNL d   1     -11.964 -19.416 -15.197 -0.02 +0.08    +0.194    24.079
ATOM      2  C   UNL d   1     -12.406 -19.418 -16.662 -0.01 +0.07    +0.194    24.079
ATOM      3  C   UNL d   1     -13.930 -19.428 -16.794 -0.01 +0.07    +0.194    24.079
ATOM      4  C   UNL d   1     -14.611 -18.325 -15.988 -0.04 +0.12    +0.194    24.079
ATOM      5  C   UNL d   1     -14.117 -18.212 -14.551 -0.06 +0.12    +0.194    24.079
ATOM      6  C   UNL d   1     -12.594 -18.264 -14.414 -0.08 +0.11    +0.194    24.079
ATOM      7  O   UNL d   1     -10.547 -19.232 -15.159 -0.02 -0.11    -0.278    24.079
ATOM      8  P   UNL d   1      -9.977 -17.744 -15.040 -0.10 +0.20    +0.473    24.079
ATOM      9  O   UNL d   1      -9.590 -17.325 -13.666 -0.14 -0.07    -0.228    24.079
ATOM     10  O   UNL d   1      -8.761 -17.713 -16.072 -0.10 -0.13    -0.303    24.079
ATOM     11  H   UNL d   1      -9.038 -18.114 -16.917 +0.05 +0.09    +0.222    24.079
ATOM     12  O   UNL d   1     -11.054 -16.830 -15.768 -0.62 -0.23    -0.303    24.079
ATOM     13  H   UNL d   1     -10.984 -16.858 -16.749 +0.05 +0.15    +0.222    24.079
ATOM     14  O   UNL d   1     -11.900 -18.241 -17.304 -0.03 -0.13    -0.278    24.079
ATOM     15  P   UNL d   1     -11.042 -18.466 -18.638 +0.02 +0.16    +0.473    24.079
ATOM     16  O   UNL d   1     -10.456 -19.828 -18.838 +0.00 -0.06    -0.228    24.079
ATOM     17  O   UNL d   1     -12.032 -18.041 -19.811 +0.00 -0.09    -0.303    24.079
ATOM     18  H   UNL d   1     -12.876 -18.529 -19.753 +0.01 +0.06    +0.222    24.079
ATOM     19  O   UNL d   1     -10.001 -17.263 -18.647 -0.01 -0.12    -0.303    24.079
ATOM     20  H   UNL d   1      -9.855 -16.906 -17.752 +0.05 +0.10    +0.222    24.079
ATOM     21  O   UNL d   1     -12.312 -18.492 -13.035 -0.05 -0.12    -0.278    24.079
ATOM     22  P   UNL d   1     -12.220 -17.256 -12.030 -0.17 +0.19    +0.473    24.079
ATOM     23  O   UNL d   1     -13.271 -17.123 -10.979 -0.10 -0.08    -0.228    24.079
ATOM     24  O   UNL d   1     -10.735 -17.398 -11.475 -0.23 -0.12    -0.303    24.079
ATOM     25  H   UNL d   1     -10.136 -16.868 -12.060 -0.28 +0.07    +0.222    24.079
ATOM     26  O   UNL d   1     -12.079 -16.022 -13.044 -0.27 -0.21    -0.303    24.079
ATOM     27  H   UNL d   1     -11.398 -16.233 -13.715 -0.42 +0.12    +0.222    24.079
ATOM     28  O   UNL d   1     -14.244 -19.151 -18.153 -0.00 -0.10    -0.278    24.079
ATOM     29  P   UNL d   1     -14.610 -20.336 -19.152 +0.01 +0.11    +0.473    24.079
ATOM     30  O   UNL d   1     -15.252 -21.523 -18.530 +0.00 -0.04    -0.228    24.079
ATOM     31  O   UNL d   1     -15.468 -19.531 -20.237 +0.00 -0.06    -0.303    24.079
ATOM     32  H   UNL d   1     -15.600 -18.611 -19.913 +0.01 +0.06    +0.222    24.079
ATOM     33  O   UNL d   1     -13.228 -20.577 -19.905 +0.00 -0.06    -0.303    24.079
ATOM     34  H   UNL d   1     -12.507 -20.121 -19.406 +0.00 +0.05    +0.222    24.079
ATOM     35  O   UNL d   1     -14.536 -16.926 -14.098 -0.02 -0.26    -0.278    24.079
ATOM     36  P   UNL d   1     -15.697 -16.794 -13.013 -0.06 +0.29    +0.473    24.079
ATOM     37  O   UNL d   1     -15.881 -15.430 -12.427 -0.12 -0.16    -0.228    24.079
ATOM     38  O   UNL d   1     -16.960 -17.336 -13.818 -0.03 -0.14    -0.303    24.079
ATOM     39  H   UNL d   1     -16.918 -17.004 -14.741 +0.01 +0.13    +0.222    24.079
ATOM     40  O   UNL d   1     -15.353 -17.973 -12.002 -0.01 -0.11    -0.303    24.079
ATOM     41  H   UNL d   1     -14.436 -18.303 -12.126 +0.03 +0.08    +0.222    24.079
ATOM     42  O   UNL d   1     -16.003 -18.653 -15.930 -0.02 -0.12    -0.278    24.079
ATOM     43  P   UNL d   1     -17.052 -17.697 -16.657 -0.02 +0.22    +0.473    24.079
ATOM     44  O   UNL d   1     -18.482 -17.813 -16.255 +0.00 -0.07    -0.228    24.079
ATOM     45  O   UNL d   1     -16.426 -16.252 -16.425 -0.41 -0.31    -0.303    24.079
ATOM     46  H   UNL d   1     -16.075 -16.156 -15.517 -0.00 +0.28    +0.222    24.079
ATOM     47  O   UNL d   1     -16.749 -17.937 -18.213 -0.00 -0.11    -0.303    24.079
ATOM     48  H   UNL d   1     -16.257 -18.777 -18.320 +0.01 +0.07    +0.222    24.079
TER
ENDMDL
MODEL       30
USER    Run = 30
USER    Cluster Rank = 79
USER    Number of conformations in this cluster = 1
USER  
USER    RMSD from reference structure       = 18.041 A
USER  
USER    Estimated Free Energy of Binding    =   +3.95 kcal/mol  [=(1)+(2)+(3)-(4)]
USER    
USER    (1) Final Intermolecular Energy     =   -3.21 kcal/mol
USER        vdW + Hbond + desolv Energy     =   -3.08 kcal/mol
USER        Electrostatic Energy            =   -0.13 kcal/mol
USER    (2) Final Total Internal Energy     =  -14.05 kcal/mol
USER    (3) Torsional Free Energy           =   +7.16 kcal/mol
USER    (4) Unbound System's Energy  [=(2)] =  -14.05 kcal/mol
USER    
USER    
USER  
USER    DPF = D:/Protein_go_brrr/autodock/final/AncA/IHP/dock.dpf
USER    NEWDPF move	IHP_ideal_opt.pdbqt
USER    NEWDPF about	0.035000 0.082000 -0.065000
USER    NEWDPF tran0	1.824045 14.650035 14.718259
USER    NEWDPF axisangle0	0.087914 -0.915509 0.392575 -132.645402
USER    NEWDPF quaternion0	0.080514 -0.838443 0.359529 -0.401585
USER    NEWDPF dihe0	-86.09 25.92 41.24 -31.48 75.66 96.94 -104.43 -19.36 101.07 21.51 157.57 81.76 179.98 160.55 164.03 -179.32 23.99 41.83 60.92 7.81 -3.71 3.70 174.87 -177.08 
USER  
USER                              x       y       z    vdW   Elec        q     RMS 
ATOM      1  C   UNL d   1       0.881  13.668  15.781 -0.01 -0.01    +0.194    18.041
ATOM      2  C   UNL d   1       2.278  13.136  15.456 -0.01 -0.01    +0.194    18.041
ATOM      3  C   UNL d   1       2.610  13.289  13.970 -0.06 -0.01    +0.194    18.041
ATOM      4  C   UNL d   1       2.396  14.708  13.449 -0.04 -0.01    +0.194    18.041
ATOM      5  C   UNL d   1       1.060  15.321  13.848 -0.01 -0.00    +0.194    18.041
ATOM      6  C   UNL d   1       0.699  15.115  15.320 -0.00 -0.00    +0.194    18.041
ATOM      7  O   UNL d   1       0.716  13.649  17.201 -0.00 +0.00    -0.278    18.041
ATOM      8  P   UNL d   1       0.793  12.243  17.956 +0.00 -0.01    +0.473    18.041
ATOM      9  O   UNL d   1      -0.350  11.951  18.863 -0.00 +0.00    -0.228    18.041
ATOM     10  O   UNL d   1       0.948  11.179  16.777 -0.00 +0.01    -0.303    18.041
ATOM     11  H   UNL d   1       1.811  10.732  16.852 +0.02 -0.01    +0.222    18.041
ATOM     12  O   UNL d   1       2.234  12.211  18.624 -0.00 +0.00    -0.303    18.041
ATOM     13  H   UNL d   1       2.861  12.851  18.218 +0.00 -0.00    +0.222    18.041
ATOM     14  O   UNL d   1       3.245  13.869  16.218 -0.00 +0.01    -0.278    18.041
ATOM     15  P   UNL d   1       4.451  13.024  16.846 +0.01 -0.01    +0.473    18.041
ATOM     16  O   UNL d   1       4.943  13.454  18.193 +0.00 +0.00    -0.228    18.041
ATOM     17  O   UNL d   1       3.920  11.522  16.833 -0.00 +0.01    -0.303    18.041
ATOM     18  H   UNL d   1       3.061  11.449  17.293 +0.01 -0.01    +0.222    18.041
ATOM     19  O   UNL d   1       5.549  12.984  15.696 -0.01 +0.01    -0.303    18.041
ATOM     20  H   UNL d   1       5.443  12.202  15.124 +0.04 -0.01    +0.222    18.041
ATOM     21  O   UNL d   1      -0.686  15.425  15.453 -0.00 +0.00    -0.278    18.041
ATOM     22  P   UNL d   1      -1.128  16.788  16.154 +0.00 +0.00    +0.473    18.041
ATOM     23  O   UNL d   1      -2.554  16.938  16.566 +0.00 -0.00    -0.228    18.041
ATOM     24  O   UNL d   1      -0.076  16.899  17.343 +0.00 -0.00    -0.303    18.041
ATOM     25  H   UNL d   1       0.617  16.203  17.207 +0.00 +0.00    +0.222    18.041
ATOM     26  O   UNL d   1      -0.576  17.881  15.120 +0.00 -0.00    -0.303    18.041
ATOM     27  H   UNL d   1       0.391  17.975  15.237 +0.00 +0.00    +0.222    18.041
ATOM     28  O   UNL d   1       4.001  13.035  13.814 -0.07 +0.01    -0.278    18.041
ATOM     29  P   UNL d   1       4.499  11.767  12.990 -0.18 -0.04    +0.473    18.041
ATOM     30  O   UNL d   1       5.854  11.884  12.392 -0.79 -0.01    -0.228    18.041
ATOM     31  O   UNL d   1       4.285  10.620  14.085 -0.14 +0.05    -0.303    18.041
ATOM     32  H   UNL d   1       4.742  10.890  14.915 +0.06 -0.02    +0.222    18.041
ATOM     33  O   UNL d   1       3.288  11.524  11.985 -0.48 +0.05    -0.303    18.041
ATOM     34  H   UNL d   1       2.955  12.399  11.666 +0.06 -0.03    +0.222    18.041
ATOM     35  O   UNL d   1       1.202  16.725  13.643 -0.00 +0.00    -0.278    18.041
ATOM     36  P   UNL d   1       2.401  17.521  14.331 +0.01 -0.00    +0.473    18.041
ATOM     37  O   UNL d   1       3.768  17.202  13.815 -0.01 +0.00    -0.228    18.041
ATOM     38  O   UNL d   1       1.955  19.035  14.112 +0.00 -0.00    -0.303    18.041
ATOM     39  H   UNL d   1       0.975  19.084  14.111 +0.00 +0.00    +0.222    18.041
ATOM     40  O   UNL d   1       2.136  17.265  15.878 +0.00 -0.00    -0.303    18.041
ATOM     41  H   UNL d   1       1.206  16.996  16.049 +0.00 +0.00    +0.222    18.041
ATOM     42  O   UNL d   1       2.414  14.631  12.019 -0.07 +0.01    -0.278    18.041
ATOM     43  P   UNL d   1       1.178  13.960  11.267 -0.13 -0.05    +0.473    18.041
ATOM     44  O   UNL d   1       0.025  14.838  10.923 -0.06 +0.01    -0.228    18.041
ATOM     45  O   UNL d   1       1.867  13.268  10.011 -0.20 +0.07    -0.303    18.041
ATOM     46  H   UNL d   1       2.218  12.383  10.237 -0.40 -0.08    +0.222    18.041
ATOM     47  O   UNL d   1       0.833  12.694  12.188 -0.14 +0.07    -0.303    18.041
ATOM     48  H   UNL d   1       1.228  11.890  11.792 -0.45 -0.13    +0.222    18.041
TER
ENDMDL
MODEL       76
USER    Run = 76
USER    Cluster Rank = 80
USER    Number of conformations in this cluster = 1
USER  
USER    RMSD from reference structure       = 16.230 A
USER  
USER    Estimated Free Energy of Binding    =   +4.00 kcal/mol  [=(1)+(2)+(3)-(4)]
USER    
USER    (1) Final Intermolecular Energy     =   -3.16 kcal/mol
USER        vdW + Hbond + desolv Energy     =   -3.01 kcal/mol
USER        Electrostatic Energy            =   -0.15 kcal/mol
USER    (2) Final Total Internal Energy     =  -13.52 kcal/mol
USER    (3) Torsional Free Energy           =   +7.16 kcal/mol
USER    (4) Unbound System's Energy  [=(2)] =  -13.52 kcal/mol
USER    
USER    
USER  
USER    DPF = D:/Protein_go_brrr/autodock/final/AncA/IHP/dock.dpf
USER    NEWDPF move	IHP_ideal_opt.pdbqt
USER    NEWDPF about	0.035000 0.082000 -0.065000
USER    NEWDPF tran0	15.843952 10.242010 6.980748
USER    NEWDPF axisangle0	-0.722474 0.660849 -0.203248 -91.440447
USER    NEWDPF quaternion0	-0.517248 0.473128 -0.145513 -0.698163
USER    NEWDPF dihe0	86.98 -59.94 108.80 174.93 77.94 -75.83 -39.69 -78.39 142.44 -59.66 -4.82 -140.04 151.25 63.94 74.84 64.43 90.42 -67.32 -141.96 -13.32 37.64 -18.00 -52.70 23.21 
USER  
USER                              x       y       z    vdW   Elec        q     RMS 
ATOM      1  C   UNL d   1      17.379   9.461   7.119 -0.00 +0.01    +0.194    16.230
ATOM      2  C   UNL d   1      16.673   9.770   8.440 -0.01 +0.01    +0.194    16.230
ATOM      3  C   UNL d   1      16.054  11.170   8.439 -0.03 -0.02    +0.194    16.230
ATOM      4  C   UNL d   1      15.157  11.429   7.231 -0.07 -0.03    +0.194    16.230
ATOM      5  C   UNL d   1      15.778  11.028   5.899 -0.03 -0.00    +0.194    16.230
ATOM      6  C   UNL d   1      16.451   9.653   5.919 -0.04 +0.02    +0.194    16.230
ATOM      7  O   UNL d   1      17.775   8.088   7.135 -0.01 -0.04    -0.278    16.230
ATOM      8  P   UNL d   1      16.813   7.012   6.451 +0.02 +0.12    +0.473    16.230
ATOM      9  O   UNL d   1      16.978   5.616   6.940 -0.09 -0.06    -0.228    16.230
ATOM     10  O   UNL d   1      15.347   7.593   6.695 -0.10 -0.10    -0.303    16.230
ATOM     11  H   UNL d   1      15.117   7.514   7.640 +0.07 +0.08    +0.222    16.230
ATOM     12  O   UNL d   1      17.000   7.226   4.888 -0.09 -0.08    -0.303    16.230
ATOM     13  H   UNL d   1      16.238   7.686   4.468 +0.09 +0.07    +0.222    16.230
ATOM     14  O   UNL d   1      15.630   8.810   8.648 -0.07 -0.05    -0.278    16.230
ATOM     15  P   UNL d   1      15.760   7.882   9.947 -0.05 +0.16    +0.473    16.230
ATOM     16  O   UNL d   1      14.655   7.974  10.952 -0.59 -0.19    -0.228    16.230
ATOM     17  O   UNL d   1      15.936   6.413   9.357 -0.06 -0.11    -0.303    16.230
ATOM     18  H   UNL d   1      16.129   6.439   8.400 +0.05 +0.07    +0.222    16.230
ATOM     19  O   UNL d   1      17.220   8.180  10.503 -0.00 -0.04    -0.303    16.230
ATOM     20  H   UNL d   1      17.192   8.604  11.381 +0.01 +0.02    +0.222    16.230
ATOM     21  O   UNL d   1      17.260   9.574   4.747 -0.04 -0.03    -0.278    16.230
ATOM     22  P   UNL d   1      16.573   9.593   3.308 -0.12 +0.05    +0.473    16.230
ATOM     23  O   UNL d   1      16.664  10.844   2.500 -0.07 -0.00    -0.228    16.230
ATOM     24  O   UNL d   1      17.217   8.309   2.623 -0.20 -0.06    -0.303    16.230
ATOM     25  H   UNL d   1      17.681   7.785   3.325 +0.06 +0.06    +0.222    16.230
ATOM     26  O   UNL d   1      15.093   9.080   3.647 -0.45 -0.08    -0.303    16.230
ATOM     27  H   UNL d   1      14.463   9.822   3.540 +0.12 +0.03    +0.222    16.230
ATOM     28  O   UNL d   1      15.199  11.261   9.571 -0.06 +0.10    -0.278    16.230
ATOM     29  P   UNL d   1      15.749  11.837  10.950 -0.01 -0.10    +0.473    16.230
ATOM     30  O   UNL d   1      16.689  12.981  10.837 -0.00 +0.02    -0.228    16.230
ATOM     31  O   UNL d   1      14.367  12.105  11.712 -0.06 +0.13    -0.303    16.230
ATOM     32  H   UNL d   1      13.641  11.670  11.207 -0.30 -0.25    +0.222    16.230
ATOM     33  O   UNL d   1      16.296  10.524  11.666 -0.01 +0.02    -0.303    16.230
ATOM     34  H   UNL d   1      15.882   9.732  11.243 +0.02 -0.00    +0.222    16.230
ATOM     35  O   UNL d   1      14.695  10.951   4.974 -0.08 +0.01    -0.278    16.230
ATOM     36  P   UNL d   1      14.073  12.282   4.352 -0.09 -0.07    +0.473    16.230
ATOM     37  O   UNL d   1      13.825  12.249   2.877 -0.17 +0.04    -0.228    16.230
ATOM     38  O   UNL d   1      12.760  12.472   5.233 -0.25 +0.08    -0.303    16.230
ATOM     39  H   UNL d   1      13.017  12.762   6.134 +0.08 -0.06    +0.222    16.230
ATOM     40  O   UNL d   1      15.062  13.404   4.893 -0.04 +0.04    -0.303    16.230
ATOM     41  H   UNL d   1      14.680  13.887   5.659 +0.06 -0.04    +0.222    16.230
ATOM     42  O   UNL d   1      14.928  12.841   7.180 -0.04 +0.05    -0.278    16.230
ATOM     43  P   UNL d   1      13.705  13.454   8.000 -0.14 -0.16    +0.473    16.230
ATOM     44  O   UNL d   1      12.593  12.533   8.366 -0.16 +0.17    -0.228    16.230
ATOM     45  O   UNL d   1      14.425  14.132   9.247 -0.05 +0.08    -0.303    16.230
ATOM     46  H   UNL d   1      14.682  13.468   9.917 +0.04 -0.07    +0.222    16.230
ATOM     47  O   UNL d   1      13.286  14.734   7.130 -0.12 +0.08    -0.303    16.230
ATOM     48  H   UNL d   1      13.354  14.514   6.178 +0.07 -0.05    +0.222    16.230
TER
ENDMDL
MODEL       72
USER    Run = 72
USER    Cluster Rank = 81
USER    Number of conformations in this cluster = 1
USER  
USER    RMSD from reference structure       = 15.545 A
USER  
USER    Estimated Free Energy of Binding    =   +4.09 kcal/mol  [=(1)+(2)+(3)-(4)]
USER    
USER    (1) Final Intermolecular Energy     =   -3.06 kcal/mol
USER        vdW + Hbond + desolv Energy     =   -2.95 kcal/mol
USER        Electrostatic Energy            =   -0.11 kcal/mol
USER    (2) Final Total Internal Energy     =  -12.45 kcal/mol
USER    (3) Torsional Free Energy           =   +7.16 kcal/mol
USER    (4) Unbound System's Energy  [=(2)] =  -12.45 kcal/mol
USER    
USER    
USER  
USER    DPF = D:/Protein_go_brrr/autodock/final/AncA/IHP/dock.dpf
USER    NEWDPF move	IHP_ideal_opt.pdbqt
USER    NEWDPF about	0.035000 0.082000 -0.065000
USER    NEWDPF tran0	0.385337 15.158121 10.455226
USER    NEWDPF axisangle0	0.901661 0.387156 0.192660 150.855630
USER    NEWDPF quaternion0	0.872656 0.374702 0.186463 0.251600
USER    NEWDPF dihe0	-140.13 64.77 168.70 -2.53 43.44 -93.91 -84.99 -12.34 -63.99 133.38 -177.44 148.51 23.29 177.94 22.26 -3.81 5.20 167.18 -131.77 14.87 154.59 -1.51 133.98 -172.45 
USER  
USER                              x       y       z    vdW   Elec        q     RMS 
ATOM      1  C   UNL d   1       0.644  16.844  10.729 -0.01 -0.00    +0.194    15.545
ATOM      2  C   UNL d   1      -0.819  16.408  10.625 -0.02 -0.00    +0.194    15.545
ATOM      3  C   UNL d   1      -1.034  15.415   9.481 -0.05 -0.00    +0.194    15.545
ATOM      4  C   UNL d   1      -0.079  14.225   9.529 -0.18 -0.01    +0.194    15.545
ATOM      5  C   UNL d   1       1.379  14.608   9.747 -0.17 -0.02    +0.194    15.545
ATOM      6  C   UNL d   1       1.588  15.648  10.851 -0.06 -0.01    +0.194    15.545
ATOM      7  O   UNL d   1       0.792  17.627  11.916 -0.00 +0.00    -0.278    15.545
ATOM      8  P   UNL d   1       1.525  16.967  13.174 +0.01 -0.00    +0.473    15.545
ATOM      9  O   UNL d   1       3.004  16.853  13.053 -0.01 +0.00    -0.228    15.545
ATOM     10  O   UNL d   1       1.062  17.868  14.407 +0.00 -0.00    -0.303    15.545
ATOM     11  H   UNL d   1       0.094  17.809  14.509 +0.00 +0.00    +0.222    15.545
ATOM     12  O   UNL d   1       0.744  15.610  13.442 -0.00 +0.01    -0.303    15.545
ATOM     13  H   UNL d   1       0.225  15.303  12.664 +0.03 -0.01    +0.222    15.545
ATOM     14  O   UNL d   1      -1.207  15.780  11.853 -0.01 +0.00    -0.278    15.545
ATOM     15  P   UNL d   1      -2.727  15.988  12.314 -0.00 +0.01    +0.473    15.545
ATOM     16  O   UNL d   1      -2.943  16.516  13.698 -0.00 -0.00    -0.228    15.545
ATOM     17  O   UNL d   1      -3.347  16.931  11.190 -0.00 -0.01    -0.303    15.545
ATOM     18  H   UNL d   1      -3.484  16.441  10.356 +0.01 +0.01    +0.222    15.545
ATOM     19  O   UNL d   1      -3.433  14.599  11.992 -0.01 -0.01    -0.303    15.545
ATOM     20  H   UNL d   1      -3.414  14.398  11.038 +0.03 +0.01    +0.222    15.545
ATOM     21  O   UNL d   1       2.916  16.146  10.702 -0.06 +0.00    -0.278    15.545
ATOM     22  P   UNL d   1       3.401  16.695   9.285 -0.06 -0.02    +0.473    15.545
ATOM     23  O   UNL d   1       2.566  17.727   8.605 -0.02 +0.01    -0.228    15.545
ATOM     24  O   UNL d   1       4.893  17.149   9.605 -0.10 +0.02    -0.303    15.545
ATOM     25  H   UNL d   1       4.962  17.314  10.579 +0.04 -0.01    +0.222    15.545
ATOM     26  O   UNL d   1       3.637  15.333   8.472 -0.12 +0.02    -0.303    15.545
ATOM     27  H   UNL d   1       2.816  15.100   7.991 +0.08 -0.02    +0.222    15.545
ATOM     28  O   UNL d   1      -2.335  14.861   9.633 -0.04 -0.01    -0.278    15.545
ATOM     29  P   UNL d   1      -3.498  15.250   8.617 -0.01 +0.02    +0.473    15.545
ATOM     30  O   UNL d   1      -3.402  16.607   8.021 -0.01 -0.01    -0.228    15.545
ATOM     31  O   UNL d   1      -3.417  14.007   7.611 -0.06 -0.02    -0.303    15.545
ATOM     32  H   UNL d   1      -2.477  13.720   7.543 +0.07 +0.01    +0.222    15.545
ATOM     33  O   UNL d   1      -4.805  14.928   9.467 -0.01 -0.02    -0.303    15.545
ATOM     34  H   UNL d   1      -4.702  15.312  10.372 +0.01 +0.01    +0.222    15.545
ATOM     35  O   UNL d   1       2.035  13.413  10.166 -0.22 +0.05    -0.278    15.545
ATOM     36  P   UNL d   1       2.241  13.111  11.719 -0.15 -0.06    +0.473    15.545
ATOM     37  O   UNL d   1       1.021  13.254  12.572 -0.12 +0.03    -0.228    15.545
ATOM     38  O   UNL d   1       2.848  11.639  11.687 -0.38 +0.08    -0.303    15.545
ATOM     39  H   UNL d   1       2.389  11.088  12.357 -0.39 -0.13    +0.222    15.545
ATOM     40  O   UNL d   1       3.487  14.031  12.082 -0.13 -0.00    -0.303    15.545
ATOM     41  H   UNL d   1       3.205  14.917  12.400 +0.05 -0.00    +0.222    15.545
ATOM     42  O   UNL d   1      -0.158  13.578   8.255 -0.24 +0.03    -0.278    15.545
ATOM     43  P   UNL d   1       0.585  14.239   7.007 -0.08 -0.03    +0.473    15.545
ATOM     44  O   UNL d   1      -0.044  14.071   5.667 -0.14 -0.00    -0.228    15.545
ATOM     45  O   UNL d   1       0.752  15.754   7.463 -0.04 +0.01    -0.303    15.545
ATOM     46  H   UNL d   1       1.687  15.969   7.653 +0.05 -0.01    +0.222    15.545
ATOM     47  O   UNL d   1       2.085  13.690   7.141 -0.16 +0.05    -0.303    15.545
ATOM     48  H   UNL d   1       2.304  13.579   8.089 -0.26 -0.07    +0.222    15.545
TER
ENDMDL
MODEL       85
USER    Run = 85
USER    Cluster Rank = 82
USER    Number of conformations in this cluster = 1
USER  
USER    RMSD from reference structure       = 16.237 A
USER  
USER    Estimated Free Energy of Binding    =   +4.16 kcal/mol  [=(1)+(2)+(3)-(4)]
USER    
USER    (1) Final Intermolecular Energy     =   -2.99 kcal/mol
USER        vdW + Hbond + desolv Energy     =   -3.07 kcal/mol
USER        Electrostatic Energy            =   +0.08 kcal/mol
USER    (2) Final Total Internal Energy     =  -15.19 kcal/mol
USER    (3) Torsional Free Energy           =   +7.16 kcal/mol
USER    (4) Unbound System's Energy  [=(2)] =  -15.19 kcal/mol
USER    
USER    
USER  
USER    DPF = D:/Protein_go_brrr/autodock/final/AncA/IHP/dock.dpf
USER    NEWDPF move	IHP_ideal_opt.pdbqt
USER    NEWDPF about	0.035000 0.082000 -0.065000
USER    NEWDPF tran0	-15.531404 3.659265 -9.797033
USER    NEWDPF axisangle0	-0.195855 -0.134217 -0.971404 114.758669
USER    NEWDPF quaternion0	-0.164960 -0.113045 -0.818173 0.539075
USER    NEWDPF dihe0	-159.57 19.74 -180.00 136.45 106.17 85.32 -90.48 27.36 -50.23 69.53 53.54 131.02 32.90 -78.64 176.45 16.15 -59.26 173.30 -129.74 -44.97 17.53 -180.00 170.24 8.47 
USER  
USER                              x       y       z    vdW   Elec        q     RMS 
ATOM      1  C   UNL d   1     -14.928   5.166  -9.206 -0.17 +0.01    +0.194    16.237
ATOM      2  C   UNL d   1     -13.938   4.332 -10.022 -0.16 +0.00    +0.194    16.237
ATOM      3  C   UNL d   1     -13.997   2.851  -9.642 -0.24 +0.01    +0.194    16.237
ATOM      4  C   UNL d   1     -15.411   2.275  -9.685 -0.14 +0.01    +0.194    16.237
ATOM      5  C   UNL d   1     -16.453   3.134  -8.980 +0.15 +0.03    +0.194    16.237
ATOM      6  C   UNL d   1     -16.354   4.625  -9.313 -0.12 +0.01    +0.194    16.237
ATOM      7  O   UNL d   1     -14.935   6.494  -9.736 -0.05 -0.01    -0.278    16.237
ATOM      8  P   UNL d   1     -16.213   6.972 -10.568 +0.01 +0.01    +0.473    16.237
ATOM      9  O   UNL d   1     -17.340   7.494  -9.748 -0.01 -0.01    -0.228    16.237
ATOM     10  O   UNL d   1     -15.628   8.049 -11.589 +0.00 -0.01    -0.303    16.237
ATOM     11  H   UNL d   1     -14.786   7.724 -11.960 +0.02 +0.00    +0.222    16.237
ATOM     12  O   UNL d   1     -16.559   5.755 -11.529 -0.00 -0.00    -0.303    16.237
ATOM     13  H   UNL d   1     -15.781   5.187 -11.727 +0.03 -0.00    +0.222    16.237
ATOM     14  O   UNL d   1     -14.257   4.460 -11.413 -0.09 +0.02    -0.278    16.237
ATOM     15  P   UNL d   1     -13.608   5.704 -12.185 -0.07 -0.03    +0.473    16.237
ATOM     16  O   UNL d   1     -13.200   6.875 -11.348 -0.11 +0.00    -0.228    16.237
ATOM     17  O   UNL d   1     -12.391   5.067 -12.992 -0.14 +0.04    -0.303    16.237
ATOM     18  H   UNL d   1     -12.690   4.692 -13.842 +0.03 -0.03    +0.222    16.237
ATOM     19  O   UNL d   1     -14.635   6.023 -13.357 -0.01 +0.01    -0.303    16.237
ATOM     20  H   UNL d   1     -15.423   6.494 -13.027 +0.01 -0.00    +0.222    16.237
ATOM     21  O   UNL d   1     -17.138   5.316  -8.343 -0.11 -0.02    -0.278    16.237
ATOM     22  P   UNL d   1     -18.709   5.482  -8.567 -0.04 +0.03    +0.473    16.237
ATOM     23  O   UNL d   1     -19.391   6.649  -7.936 -0.02 -0.01    -0.228    16.237
ATOM     24  O   UNL d   1     -18.819   5.422 -10.154 -0.01 -0.01    -0.303    16.237
ATOM     25  H   UNL d   1     -18.194   4.727 -10.480 +0.02 +0.01    +0.222    16.237
ATOM     26  O   UNL d   1     -19.253   4.035  -8.142 -0.08 -0.03    -0.303    16.237
ATOM     27  H   UNL d   1     -19.250   3.448  -8.925 +0.03 +0.02    +0.222    16.237
ATOM     28  O   UNL d   1     -13.265   2.128 -10.623 -0.20 +0.04    -0.278    16.237
ATOM     29  P   UNL d   1     -13.824   1.996 -12.109 -0.11 -0.16    +0.473    16.237
ATOM     30  O   UNL d   1     -15.219   2.466 -12.313 -0.04 +0.03    -0.228    16.237
ATOM     31  O   UNL d   1     -12.673   2.767 -12.910 -0.18 +0.11    -0.303    16.237
ATOM     32  H   UNL d   1     -12.388   3.545 -12.377 +0.06 -0.05    +0.222    16.237
ATOM     33  O   UNL d   1     -13.523   0.469 -12.444 -0.11 +0.27    -0.303    16.237
ATOM     34  H   UNL d   1     -14.276  -0.085 -12.123 +0.08 -0.13    +0.222    16.237
ATOM     35  O   UNL d   1     -17.717   2.680  -9.459 -0.08 -0.03    -0.278    16.237
ATOM     36  P   UNL d   1     -18.053   2.732 -11.017 -0.00 +0.01    +0.473    16.237
ATOM     37  O   UNL d   1     -17.140   3.579 -11.846 -0.01 +0.00    -0.228    16.237
ATOM     38  O   UNL d   1     -18.044   1.188 -11.405 -0.01 -0.00    -0.303    16.237
ATOM     39  H   UNL d   1     -17.362   1.033 -12.093 +0.03 -0.01    +0.222    16.237
ATOM     40  O   UNL d   1     -19.596   3.119 -11.019 -0.01 -0.01    -0.303    16.237
ATOM     41  H   UNL d   1     -19.842   3.637 -10.221 +0.02 +0.01    +0.222    16.237
ATOM     42  O   UNL d   1     -15.367   1.019  -8.999 -0.12 -0.03    -0.278    16.237
ATOM     43  P   UNL d   1     -15.350  -0.327  -9.855 -0.14 +0.00    +0.473    16.237
ATOM     44  O   UNL d   1     -16.145  -1.477  -9.342 -0.20 -0.01    -0.228    16.237
ATOM     45  O   UNL d   1     -15.787   0.174 -11.301 -0.04 +0.04    -0.303    16.237
ATOM     46  H   UNL d   1     -16.239   1.040 -11.258 +0.06 -0.01    +0.222    16.237
ATOM     47  O   UNL d   1     -13.785  -0.606 -10.066 -0.94 -0.02    -0.303    16.237
ATOM     48  H   UNL d   1     -13.354   0.208 -10.397 +0.13 -0.04    +0.222    16.237
TER
ENDMDL
MODEL       46
USER    Run = 46
USER    Cluster Rank = 83
USER    Number of conformations in this cluster = 1
USER  
USER    RMSD from reference structure       = 16.410 A
USER  
USER    Estimated Free Energy of Binding    =   +4.16 kcal/mol  [=(1)+(2)+(3)-(4)]
USER    
USER    (1) Final Intermolecular Energy     =   -2.99 kcal/mol
USER        vdW + Hbond + desolv Energy     =   -2.98 kcal/mol
USER        Electrostatic Energy            =   -0.02 kcal/mol
USER    (2) Final Total Internal Energy     =  -15.21 kcal/mol
USER    (3) Torsional Free Energy           =   +7.16 kcal/mol
USER    (4) Unbound System's Energy  [=(2)] =  -15.21 kcal/mol
USER    
USER    
USER  
USER    DPF = D:/Protein_go_brrr/autodock/final/AncA/IHP/dock.dpf
USER    NEWDPF move	IHP_ideal_opt.pdbqt
USER    NEWDPF about	0.035000 0.082000 -0.065000
USER    NEWDPF tran0	-6.458031 -16.574816 9.121799
USER    NEWDPF axisangle0	0.666250 0.136964 0.733042 156.459443
USER    NEWDPF quaternion0	0.652241 0.134084 0.717629 0.203988
USER    NEWDPF dihe0	-180.00 -2.66 103.86 -15.74 27.01 -176.42 33.73 -93.26 44.75 -6.71 70.92 -88.41 -119.98 98.38 -53.58 -102.05 155.44 -34.23 41.54 -6.47 -180.00 42.40 -3.92 -26.58 
USER  
USER                              x       y       z    vdW   Elec        q     RMS 
ATOM      1  C   UNL d   1      -6.259 -15.578  10.518 -0.04 +0.04    +0.194    16.410
ATOM      2  C   UNL d   1      -6.878 -14.892   9.299 -0.09 +0.05    +0.194    16.410
ATOM      3  C   UNL d   1      -6.154 -15.274   8.006 -0.06 +0.09    +0.194    16.410
ATOM      4  C   UNL d   1      -6.022 -16.782   7.814 -0.02 +0.08    +0.194    16.410
ATOM      5  C   UNL d   1      -5.516 -17.523   9.045 -0.00 +0.06    +0.194    16.410
ATOM      6  C   UNL d   1      -6.197 -17.096  10.348 -0.01 +0.04    +0.194    16.410
ATOM      7  O   UNL d   1      -7.089 -15.310  11.650 -0.04 -0.05    -0.278    16.410
ATOM      8  P   UNL d   1      -6.929 -13.905  12.394 -0.09 +0.06    +0.473    16.410
ATOM      9  O   UNL d   1      -5.642 -13.719  13.120 -0.05 -0.02    -0.228    16.410
ATOM     10  O   UNL d   1      -7.161 -12.828  11.241 -0.20 -0.03    -0.303    16.410
ATOM     11  H   UNL d   1      -7.667 -13.233  10.512 +0.05 +0.03    +0.222    16.410
ATOM     12  O   UNL d   1      -8.247 -13.747  13.267 -0.06 -0.06    -0.303    16.410
ATOM     13  H   UNL d   1      -9.069 -13.938  12.762 +0.05 +0.05    +0.222    16.410
ATOM     14  O   UNL d   1      -8.251 -15.287   9.188 -0.06 -0.07    -0.278    16.410
ATOM     15  P   UNL d   1      -9.333 -14.107   9.131 -0.18 +0.13    +0.473    16.410
ATOM     16  O   UNL d   1     -10.623 -14.412   8.437 -0.18 -0.08    -0.228    16.410
ATOM     17  O   UNL d   1      -9.534 -13.692  10.656 -0.18 -0.08    -0.303    16.410
ATOM     18  H   UNL d   1      -8.885 -14.141  11.231 +0.06 +0.05    +0.222    16.410
ATOM     19  O   UNL d   1      -8.528 -12.858   8.564 -0.24 -0.07    -0.303    16.410
ATOM     20  H   UNL d   1      -7.944 -12.467   9.241 -0.12 -0.01    +0.222    16.410
ATOM     21  O   UNL d   1      -5.400 -17.605  11.415 -0.00 -0.05    -0.278    16.410
ATOM     22  P   UNL d   1      -4.046 -16.862  11.816 +0.01 +0.09    +0.473    16.410
ATOM     23  O   UNL d   1      -3.375 -16.016  10.787 -0.01 -0.06    -0.228    16.410
ATOM     24  O   UNL d   1      -4.477 -16.089  13.138 +0.00 -0.04    -0.303    16.410
ATOM     25  H   UNL d   1      -5.397 -15.743  13.007 +0.02 +0.03    +0.222    16.410
ATOM     26  O   UNL d   1      -3.175 -18.071  12.408 +0.00 -0.05    -0.303    16.410
ATOM     27  H   UNL d   1      -3.632 -18.917  12.224 +0.00 +0.04    +0.222    16.410
ATOM     28  O   UNL d   1      -6.953 -14.824   6.919 -0.08 -0.17    -0.278    16.410
ATOM     29  P   UNL d   1      -6.281 -14.466   5.521 +0.10 +0.66    +0.473    16.410
ATOM     30  O   UNL d   1      -6.622 -13.129   4.969 -0.68 -0.32    -0.228    16.410
ATOM     31  O   UNL d   1      -4.743 -14.735   5.873 -0.17 -0.39    -0.303    16.410
ATOM     32  H   UNL d   1      -4.555 -15.693   5.741 +0.03 +0.29    +0.222    16.410
ATOM     33  O   UNL d   1      -6.665 -15.730   4.632 -0.17 -0.51    -0.303    16.410
ATOM     34  H   UNL d   1      -6.675 -16.535   5.206 +0.03 +0.23    +0.222    16.410
ATOM     35  O   UNL d   1      -5.840 -18.895   8.832 +0.00 -0.07    -0.278    16.410
ATOM     36  P   UNL d   1      -4.710 -20.015   8.944 +0.00 +0.11    +0.473    16.410
ATOM     37  O   UNL d   1      -5.021 -21.315   8.272 +0.00 -0.05    -0.228    16.410
ATOM     38  O   UNL d   1      -3.441 -19.259   8.350 +0.00 -0.08    -0.303    16.410
ATOM     39  H   UNL d   1      -3.745 -18.551   7.741 +0.01 +0.08    +0.222    16.410
ATOM     40  O   UNL d   1      -4.430 -20.061  10.509 +0.00 -0.06    -0.303    16.410
ATOM     41  H   UNL d   1      -4.302 -19.161  10.883 +0.00 +0.04    +0.222    16.410
ATOM     42  O   UNL d   1      -5.058 -16.985   6.775 -0.03 -0.17    -0.278    16.410
ATOM     43  P   UNL d   1      -5.343 -18.095   5.665 -0.02 +0.30    +0.473    16.410
ATOM     44  O   UNL d   1      -6.711 -18.681   5.615 -0.00 -0.11    -0.228    16.410
ATOM     45  O   UNL d   1      -4.896 -17.368   4.322 -0.57 -0.41    -0.303    16.410
ATOM     46  H   UNL d   1      -4.603 -16.450   4.492 +0.03 +0.50    +0.222    16.410
ATOM     47  O   UNL d   1      -4.149 -19.143   5.881 -0.00 -0.13    -0.303    16.410
ATOM     48  H   UNL d   1      -4.433 -19.828   6.520 +0.00 +0.08    +0.222    16.410
TER
ENDMDL
MODEL       19
USER    Run = 19
USER    Cluster Rank = 84
USER    Number of conformations in this cluster = 1
USER  
USER    RMSD from reference structure       = 19.771 A
USER  
USER    Estimated Free Energy of Binding    =   +4.21 kcal/mol  [=(1)+(2)+(3)-(4)]
USER    
USER    (1) Final Intermolecular Energy     =   -2.95 kcal/mol
USER        vdW + Hbond + desolv Energy     =   -2.69 kcal/mol
USER        Electrostatic Energy            =   -0.26 kcal/mol
USER    (2) Final Total Internal Energy     =  -13.45 kcal/mol
USER    (3) Torsional Free Energy           =   +7.16 kcal/mol
USER    (4) Unbound System's Energy  [=(2)] =  -13.45 kcal/mol
USER    
USER    
USER  
USER    DPF = D:/Protein_go_brrr/autodock/final/AncA/IHP/dock.dpf
USER    NEWDPF move	IHP_ideal_opt.pdbqt
USER    NEWDPF about	0.035000 0.082000 -0.065000
USER    NEWDPF tran0	12.867102 13.057978 -13.528038
USER    NEWDPF axisangle0	-0.218703 0.970791 -0.098657 109.061423
USER    NEWDPF quaternion0	-0.178118 0.790638 -0.080349 0.580266
USER    NEWDPF dihe0	-80.06 1.93 10.36 23.21 144.20 128.76 -78.39 18.31 89.85 8.99 150.64 136.11 -164.61 -180.00 -126.08 -173.96 34.95 33.18 52.51 -6.88 -2.92 21.37 -15.82 -8.93 
USER  
USER                              x       y       z    vdW   Elec        q     RMS 
ATOM      1  C   UNL d   1      12.167  11.738 -12.661 -0.06 +0.06    +0.194    19.771
ATOM      2  C   UNL d   1      13.125  11.353 -13.790 -0.02 +0.04    +0.194    19.771
ATOM      3  C   UNL d   1      12.893  12.201 -15.043 +0.00 +0.03    +0.194    19.771
ATOM      4  C   UNL d   1      12.903  13.702 -14.764 +0.00 +0.03    +0.194    19.771
ATOM      5  C   UNL d   1      12.050  14.117 -13.572 +0.00 +0.03    +0.194    19.771
ATOM      6  C   UNL d   1      12.236  13.231 -12.338 -0.02 +0.06    +0.194    19.771
ATOM      7  O   UNL d   1      12.559  11.029 -11.483 -0.25 -0.14    -0.278    19.771
ATOM      8  P   UNL d   1      12.329   9.448 -11.437 -0.15 +0.07    +0.473    19.771
ATOM      9  O   UNL d   1      11.314   8.987 -10.452 -0.63 -0.07    -0.228    19.771
ATOM     10  O   UNL d   1      11.963   9.067 -12.942 -0.10 -0.02    -0.303    19.771
ATOM     11  H   UNL d   1      12.598   8.406 -13.276 -0.45 -0.02    +0.222    19.771
ATOM     12  O   UNL d   1      13.782   8.825 -11.280 -0.30 +0.03    -0.303    19.771
ATOM     13  H   UNL d   1      14.450   9.253 -11.862 +0.08 +0.02    +0.222    19.771
ATOM     14  O   UNL d   1      14.473  11.553 -13.347 -0.01 -0.04    -0.278    19.771
ATOM     15  P   UNL d   1      15.453  10.290 -13.447 -0.02 +0.07    +0.473    19.771
ATOM     16  O   UNL d   1      16.140   9.872 -12.185 -0.11 -0.04    -0.228    19.771
ATOM     17  O   UNL d   1      14.541   9.139 -14.064 -0.09 -0.04    -0.303    19.771
ATOM     18  H   UNL d   1      14.039   8.676 -13.367 +0.04 +0.01    +0.222    19.771
ATOM     19  O   UNL d   1      16.413  10.628 -14.670 -0.01 -0.04    -0.303    19.771
ATOM     20  H   UNL d   1      15.938  11.097 -15.381 +0.02 +0.03    +0.222    19.771
ATOM     21  O   UNL d   1      11.153  13.519 -11.457 -0.05 -0.14    -0.278    19.771
ATOM     22  P   UNL d   1      11.409  14.395 -10.148 -0.03 +0.25    +0.473    19.771
ATOM     23  O   UNL d   1      11.653  13.684  -8.860 -0.56 -0.28    -0.228    19.771
ATOM     24  O   UNL d   1      12.594  15.347 -10.621 +0.00 -0.07    -0.303    19.771
ATOM     25  H   UNL d   1      12.207  16.066 -11.182 +0.01 +0.03    +0.222    19.771
ATOM     26  O   UNL d   1      10.154  15.392 -10.174 -0.02 -0.09    -0.303    19.771
ATOM     27  H   UNL d   1      10.038  15.741 -11.081 +0.01 +0.04    +0.222    19.771
ATOM     28  O   UNL d   1      13.987  11.974 -15.922 -0.00 -0.03    -0.278    19.771
ATOM     29  P   UNL d   1      13.730  11.651 -17.461 +0.00 +0.06    +0.473    19.771
ATOM     30  O   UNL d   1      14.884  11.883 -18.366 -0.00 -0.02    -0.228    19.771
ATOM     31  O   UNL d   1      13.189  10.149 -17.344 -0.01 -0.05    -0.303    19.771
ATOM     32  H   UNL d   1      13.563   9.743 -16.528 +0.03 +0.04    +0.222    19.771
ATOM     33  O   UNL d   1      12.403  12.480 -17.758 +0.00 -0.04    -0.303    19.771
ATOM     34  H   UNL d   1      12.637  13.435 -17.861 +0.00 +0.02    +0.222    19.771
ATOM     35  O   UNL d   1      12.489  15.427 -13.218 +0.00 -0.04    -0.278    19.771
ATOM     36  P   UNL d   1      11.506  16.673 -13.368 +0.01 +0.05    +0.473    19.771
ATOM     37  O   UNL d   1      10.499  16.835 -12.273 +0.00 -0.03    -0.228    19.771
ATOM     38  O   UNL d   1      12.532  17.884 -13.498 +0.00 -0.02    -0.303    19.771
ATOM     39  H   UNL d   1      13.408  17.535 -13.767 +0.00 +0.02    +0.222    19.771
ATOM     40  O   UNL d   1      10.944  16.488 -14.844 +0.00 -0.03    -0.303    19.771
ATOM     41  H   UNL d   1      11.612  16.083 -15.440 +0.00 +0.02    +0.222    19.771
ATOM     42  O   UNL d   1      12.351  14.342 -15.920 +0.00 -0.03    -0.278    19.771
ATOM     43  P   UNL d   1      13.246  15.393 -16.720 +0.00 +0.04    +0.473    19.771
ATOM     44  O   UNL d   1      14.277  14.851 -17.648 +0.00 -0.02    -0.228    19.771
ATOM     45  O   UNL d   1      12.156  16.314 -17.424 +0.00 -0.02    -0.303    19.771
ATOM     46  H   UNL d   1      11.767  16.954 -16.794 +0.00 +0.02    +0.222    19.771
ATOM     47  O   UNL d   1      13.794  16.361 -15.566 +0.00 -0.02    -0.303    19.771
ATOM     48  H   UNL d   1      13.058  16.591 -14.961 +0.00 +0.02    +0.222    19.771
TER
ENDMDL
MODEL       89
USER    Run = 89
USER    Cluster Rank = 85
USER    Number of conformations in this cluster = 1
USER  
USER    RMSD from reference structure       = 15.295 A
USER  
USER    Estimated Free Energy of Binding    =   +4.37 kcal/mol  [=(1)+(2)+(3)-(4)]
USER    
USER    (1) Final Intermolecular Energy     =   -2.79 kcal/mol
USER        vdW + Hbond + desolv Energy     =   -2.64 kcal/mol
USER        Electrostatic Energy            =   -0.15 kcal/mol
USER    (2) Final Total Internal Energy     =  -14.31 kcal/mol
USER    (3) Torsional Free Energy           =   +7.16 kcal/mol
USER    (4) Unbound System's Energy  [=(2)] =  -14.31 kcal/mol
USER    
USER    
USER  
USER    DPF = D:/Protein_go_brrr/autodock/final/AncA/IHP/dock.dpf
USER    NEWDPF move	IHP_ideal_opt.pdbqt
USER    NEWDPF about	0.035000 0.082000 -0.065000
USER    NEWDPF tran0	15.262119 0.144063 11.111437
USER    NEWDPF axisangle0	0.276498 0.945640 0.171213 -25.968980
USER    NEWDPF quaternion0	0.062126 0.212473 0.038469 -0.974431
USER    NEWDPF dihe0	140.78 124.70 -172.73 36.48 48.82 -26.31 -0.37 -113.06 137.87 -32.90 90.93 127.71 -94.33 174.83 -59.03 -78.57 115.48 -137.82 -139.66 19.63 -175.50 21.90 149.43 -8.30 
USER  
USER                              x       y       z    vdW   Elec        q     RMS 
ATOM      1  C   UNL d   1      16.773  -0.690  11.190 -0.01 +0.02    +0.194    15.295
ATOM      2  C   UNL d   1      15.526  -1.574  11.258 -0.03 +0.01    +0.194    15.295
ATOM      3  C   UNL d   1      14.456  -0.975  12.174 -0.05 +0.01    +0.194    15.295
ATOM      4  C   UNL d   1      14.119   0.475  11.837 -0.10 +0.01    +0.194    15.295
ATOM      5  C   UNL d   1      15.338   1.368  11.647 -0.05 +0.02    +0.194    15.295
ATOM      6  C   UNL d   1      16.434   0.744  10.781 -0.03 +0.02    +0.194    15.295
ATOM      7  O   UNL d   1      17.644  -1.224  10.190 -0.00 -0.03    -0.278    15.295
ATOM      8  P   UNL d   1      17.616  -0.572   8.732 +0.01 +0.06    +0.473    15.295
ATOM      9  O   UNL d   1      16.258  -0.266   8.204 -0.06 -0.03    -0.228    15.295
ATOM     10  O   UNL d   1      18.543   0.719   8.868 -0.00 -0.03    -0.303    15.295
ATOM     11  H   UNL d   1      18.661   0.939   9.811 +0.01 +0.02    +0.222    15.295
ATOM     12  O   UNL d   1      18.510  -1.530   7.834 -0.00 -0.04    -0.303    15.295
ATOM     13  H   UNL d   1      18.035  -2.342   7.545 +0.01 +0.03    +0.222    15.295
ATOM     14  O   UNL d   1      14.976  -1.707   9.941 -0.07 -0.02    -0.278    15.295
ATOM     15  P   UNL d   1      14.175  -3.059   9.633 -0.05 +0.03    +0.473    15.295
ATOM     16  O   UNL d   1      14.558  -3.799   8.390 -0.05 -0.03    -0.228    15.295
ATOM     17  O   UNL d   1      14.364  -3.930  10.953 -0.02 -0.02    -0.303    15.295
ATOM     18  H   UNL d   1      13.637  -3.773  11.586 +0.04 +0.01    +0.222    15.295
ATOM     19  O   UNL d   1      12.643  -2.645   9.740 -0.07 +0.04    -0.303    15.295
ATOM     20  H   UNL d   1      12.521  -1.851  10.292 -0.49 -0.08    +0.222    15.295
ATOM     21  O   UNL d   1      17.611   1.524  10.979 -0.00 -0.03    -0.278    15.295
ATOM     22  P   UNL d   1      18.533   1.257  12.253 +0.00 +0.04    +0.473    15.295
ATOM     23  O   UNL d   1      17.889   0.726  13.490 -0.00 -0.02    -0.228    15.295
ATOM     24  O   UNL d   1      19.672   0.328  11.642 +0.00 -0.02    -0.303    15.295
ATOM     25  H   UNL d   1      19.344  -0.034  10.780 +0.00 +0.02    +0.222    15.295
ATOM     26  O   UNL d   1      19.295   2.659  12.404 +0.00 -0.03    -0.303    15.295
ATOM     27  H   UNL d   1      19.639   2.743  13.317 +0.00 +0.02    +0.222    15.295
ATOM     28  O   UNL d   1      13.253  -1.702  11.960 -0.08 +0.01    -0.278    15.295
ATOM     29  P   UNL d   1      12.402  -2.232  13.197 -0.04 +0.01    +0.473    15.295
ATOM     30  O   UNL d   1      12.508  -3.688  13.471 -0.04 -0.01    -0.228    15.295
ATOM     31  O   UNL d   1      12.923  -1.239  14.340 -0.01 -0.01    -0.303    15.295
ATOM     32  H   UNL d   1      12.843  -0.313  14.011 +0.03 +0.01    +0.222    15.295
ATOM     33  O   UNL d   1      10.951  -1.664  12.872 -0.12 -0.00    -0.303    15.295
ATOM     34  H   UNL d   1      11.013  -0.688  12.727 +0.06 -0.01    +0.222    15.295
ATOM     35  O   UNL d   1      14.868   2.525  10.959 -0.08 -0.05    -0.278    15.295
ATOM     36  P   UNL d   1      14.636   2.485   9.381 -0.17 +0.08    +0.473    15.295
ATOM     37  O   UNL d   1      13.727   3.539   8.836 -0.30 -0.05    -0.228    15.295
ATOM     38  O   UNL d   1      16.129   2.558   8.831 -0.05 -0.05    -0.303    15.295
ATOM     39  H   UNL d   1      16.598   1.728   9.064 +0.04 +0.03    +0.222    15.295
ATOM     40  O   UNL d   1      14.213   0.971   9.139 -0.15 -0.05    -0.303    15.295
ATOM     41  H   UNL d   1      14.983   0.363   9.203 +0.06 +0.03    +0.222    15.295
ATOM     42  O   UNL d   1      13.383   0.999  12.948 -0.05 -0.02    -0.278    15.295
ATOM     43  P   UNL d   1      11.896   1.523  12.710 -0.14 +0.04    +0.473    15.295
ATOM     44  O   UNL d   1      11.719   2.968  12.394 -0.16 -0.06    -0.228    15.295
ATOM     45  O   UNL d   1      11.356   0.540  11.581 -0.09 +0.03    -0.303    15.295
ATOM     46  H   UNL d   1      11.903  -0.268  11.518 -0.31 -0.06    +0.222    15.295
ATOM     47  O   UNL d   1      11.110   0.996  14.003 -0.06 -0.02    -0.303    15.295
ATOM     48  H   UNL d   1      11.252   0.032  14.097 +0.06 +0.01    +0.222    15.295
TER
ENDMDL
MODEL       27
USER    Run = 27
USER    Cluster Rank = 86
USER    Number of conformations in this cluster = 1
USER  
USER    RMSD from reference structure       = 13.854 A
USER  
USER    Estimated Free Energy of Binding    =   +4.42 kcal/mol  [=(1)+(2)+(3)-(4)]
USER    
USER    (1) Final Intermolecular Energy     =   -2.74 kcal/mol
USER        vdW + Hbond + desolv Energy     =   -2.60 kcal/mol
USER        Electrostatic Energy            =   -0.14 kcal/mol
USER    (2) Final Total Internal Energy     =  -13.53 kcal/mol
USER    (3) Torsional Free Energy           =   +7.16 kcal/mol
USER    (4) Unbound System's Energy  [=(2)] =  -13.53 kcal/mol
USER    
USER    
USER  
USER    DPF = D:/Protein_go_brrr/autodock/final/AncA/IHP/dock.dpf
USER    NEWDPF move	IHP_ideal_opt.pdbqt
USER    NEWDPF about	0.035000 0.082000 -0.065000
USER    NEWDPF tran0	-5.380781 14.557246 6.483137
USER    NEWDPF axisangle0	0.831586 0.306480 -0.463179 -166.750064
USER    NEWDPF quaternion0	0.826033 0.304433 -0.460086 -0.115370
USER    NEWDPF dihe0	117.23 90.81 63.28 68.00 25.97 -162.56 -15.60 -151.37 18.01 141.49 40.68 -178.25 -82.73 121.42 -60.11 -50.77 -85.02 151.31 -140.84 -15.35 -167.89 1.45 56.90 -3.46 
USER  
USER                              x       y       z    vdW   Elec        q     RMS 
ATOM      1  C   UNL d   1      -5.977  15.382   5.087 -0.01 +0.01    +0.194    13.854
ATOM      2  C   UNL d   1      -6.701  15.694   6.398 -0.00 +0.01    +0.194    13.854
ATOM      3  C   UNL d   1      -6.952  14.429   7.222 -0.01 +0.02    +0.194    13.854
ATOM      4  C   UNL d   1      -5.693  13.594   7.442 -0.06 +0.03    +0.194    13.854
ATOM      5  C   UNL d   1      -4.878  13.355   6.177 -0.10 +0.03    +0.194    13.854
ATOM      6  C   UNL d   1      -4.679  14.609   5.322 -0.04 +0.01    +0.194    13.854
ATOM      7  O   UNL d   1      -5.628  16.620   4.464 -0.00 -0.01    -0.278    13.854
ATOM      8  P   UNL d   1      -4.154  17.193   4.686 -0.00 +0.01    +0.473    13.854
ATOM      9  O   UNL d   1      -3.534  16.851   5.995 -0.01 -0.01    -0.228    13.854
ATOM     10  O   UNL d   1      -3.331  16.636   3.437 -0.00 -0.00    -0.303    13.854
ATOM     11  H   UNL d   1      -3.593  15.714   3.258 +0.02 +0.00    +0.222    13.854
ATOM     12  O   UNL d   1      -4.258  18.743   4.351 +0.00 -0.00    -0.303    13.854
ATOM     13  H   UNL d   1      -5.040  19.174   4.762 +0.00 +0.00    +0.222    13.854
ATOM     14  O   UNL d   1      -5.896  16.591   7.174 -0.00 -0.01    -0.278    13.854
ATOM     15  P   UNL d   1      -6.512  18.041   7.459 +0.00 +0.02    +0.473    13.854
ATOM     16  O   UNL d   1      -5.706  18.955   8.328 +0.00 -0.01    -0.228    13.854
ATOM     17  O   UNL d   1      -6.775  18.642   6.007 +0.00 -0.01    -0.303    13.854
ATOM     18  H   UNL d   1      -6.110  18.322   5.368 +0.00 +0.01    +0.222    13.854
ATOM     19  O   UNL d   1      -7.994  17.751   7.958 +0.00 -0.01    -0.303    13.854
ATOM     20  H   UNL d   1      -8.146  16.799   8.102 +0.00 +0.01    +0.222    13.854
ATOM     21  O   UNL d   1      -4.217  14.169   4.047 -0.05 -0.02    -0.278    13.854
ATOM     22  P   UNL d   1      -5.270  13.825   2.899 -0.05 +0.03    +0.473    13.854
ATOM     23  O   UNL d   1      -6.612  13.316   3.303 -0.05 -0.02    -0.228    13.854
ATOM     24  O   UNL d   1      -5.295  15.180   2.064 -0.01 -0.01    -0.303    13.854
ATOM     25  H   UNL d   1      -5.266  15.937   2.703 +0.01 +0.00    +0.222    13.854
ATOM     26  O   UNL d   1      -4.411  12.864   1.946 -0.06 -0.01    -0.303    13.854
ATOM     27  H   UNL d   1      -3.686  12.461   2.465 +0.07 +0.01    +0.222    13.854
ATOM     28  O   UNL d   1      -7.365  14.838   8.519 +0.00 -0.03    -0.278    13.854
ATOM     29  P   UNL d   1      -8.855  14.565   9.012 +0.01 +0.05    +0.473    13.854
ATOM     30  O   UNL d   1      -9.890  15.477   8.459 +0.00 -0.02    -0.228    13.854
ATOM     31  O   UNL d   1      -8.989  13.012   8.652 -0.00 -0.06    -0.303    13.854
ATOM     32  H   UNL d   1      -8.120  12.576   8.813 +0.02 +0.06    +0.222    13.854
ATOM     33  O   UNL d   1      -8.685  14.546  10.595 +0.00 -0.03    -0.303    13.854
ATOM     34  H   UNL d   1      -8.528  13.615  10.890 +0.01 +0.02    +0.222    13.854
ATOM     35  O   UNL d   1      -3.587  12.941   6.621 -0.13 -0.03    -0.278    13.854
ATOM     36  P   UNL d   1      -2.395  12.767   5.576 -0.20 +0.03    +0.473    13.854
ATOM     37  O   UNL d   1      -2.766  12.136   4.272 -0.25 -0.02    -0.228    13.854
ATOM     38  O   UNL d   1      -1.852  14.259   5.450 -0.07 -0.01    -0.303    13.854
ATOM     39  H   UNL d   1      -2.602  14.858   5.246 +0.04 +0.01    +0.222    13.854
ATOM     40  O   UNL d   1      -1.286  12.028   6.445 -0.29 +0.01    -0.303    13.854
ATOM     41  H   UNL d   1      -1.272  11.061   6.271 -0.44 -0.05    +0.222    13.854
ATOM     42  O   UNL d   1      -6.122  12.313   7.915 -0.17 -0.11    -0.278    13.854
ATOM     43  P   UNL d   1      -5.731  11.867   9.396 -0.09 +0.18    +0.473    13.854
ATOM     44  O   UNL d   1      -5.840  10.419   9.728 -0.70 -0.22    -0.228    13.854
ATOM     45  O   UNL d   1      -4.267  12.467   9.566 -0.06 -0.06    -0.303    13.854
ATOM     46  H   UNL d   1      -3.782  12.473   8.717 +0.07 +0.04    +0.222    13.854
ATOM     47  O   UNL d   1      -6.596  12.855  10.315 -0.01 -0.06    -0.303    13.854
ATOM     48  H   UNL d   1      -7.129  13.445   9.743 +0.02 +0.04    +0.222    13.854
TER
ENDMDL
MODEL        6
USER    Run = 6
USER    Cluster Rank = 87
USER    Number of conformations in this cluster = 1
USER  
USER    RMSD from reference structure       = 21.941 A
USER  
USER    Estimated Free Energy of Binding    =   +4.64 kcal/mol  [=(1)+(2)+(3)-(4)]
USER    
USER    (1) Final Intermolecular Energy     =   -2.52 kcal/mol
USER        vdW + Hbond + desolv Energy     =   -2.40 kcal/mol
USER        Electrostatic Energy            =   -0.11 kcal/mol
USER    (2) Final Total Internal Energy     =  -13.22 kcal/mol
USER    (3) Torsional Free Energy           =   +7.16 kcal/mol
USER    (4) Unbound System's Energy  [=(2)] =  -13.22 kcal/mol
USER    
USER    
USER  
USER    DPF = D:/Protein_go_brrr/autodock/final/AncA/IHP/dock.dpf
USER    NEWDPF move	IHP_ideal_opt.pdbqt
USER    NEWDPF about	0.035000 0.082000 -0.065000
USER    NEWDPF tran0	-5.485830 -20.680836 -14.883312
USER    NEWDPF axisangle0	-0.823976 0.566061 0.025260 -143.308742
USER    NEWDPF quaternion0	-0.782097 0.537291 0.023976 -0.314748
USER    NEWDPF dihe0	-154.70 20.32 -180.00 63.63 147.42 63.80 -115.76 -52.76 -39.10 14.87 28.11 132.76 -108.67 92.87 120.24 50.83 -163.09 161.28 30.61 -28.11 138.52 -34.07 -53.13 8.63 
USER  
USER                              x       y       z    vdW   Elec        q     RMS 
ATOM      1  C   UNL d   1      -3.960 -21.106 -15.573 -0.00 +0.06    +0.194    21.941
ATOM      2  C   UNL d   1      -3.909 -20.086 -14.434 -0.04 +0.08    +0.194    21.941
ATOM      3  C   UNL d   1      -5.014 -19.036 -14.564 -0.10 +0.09    +0.194    21.941
ATOM      4  C   UNL d   1      -6.405 -19.643 -14.733 -0.07 +0.09    +0.194    21.941
ATOM      5  C   UNL d   1      -6.476 -20.746 -15.781 -0.01 +0.07    +0.194    21.941
ATOM      6  C   UNL d   1      -5.336 -21.763 -15.690 -0.00 +0.06    +0.194    21.941
ATOM      7  O   UNL d   1      -3.016 -22.141 -15.288 +0.00 -0.07    -0.278    21.941
ATOM      8  P   UNL d   1      -1.533 -21.996 -15.863 +0.01 +0.08    +0.473    21.941
ATOM      9  O   UNL d   1      -1.441 -21.842 -17.340 +0.00 -0.04    -0.228    21.941
ATOM     10  O   UNL d   1      -0.929 -20.754 -15.063 -0.01 -0.02    -0.303    21.941
ATOM     11  H   UNL d   1      -1.114 -20.857 -14.111 +0.02 +0.03    +0.222    21.941
ATOM     12  O   UNL d   1      -0.728 -23.216 -15.241 +0.00 -0.06    -0.303    21.941
ATOM     13  H   UNL d   1      -1.115 -23.544 -14.398 +0.00 +0.05    +0.222    21.941
ATOM     14  O   UNL d   1      -4.075 -20.772 -13.186 -0.06 -0.19    -0.278    21.941
ATOM     15  P   UNL d   1      -2.754 -20.994 -12.310 -0.03 +0.34    +0.473    21.941
ATOM     16  O   UNL d   1      -2.927 -21.004 -10.823 -0.40 -0.36    -0.228    21.941
ATOM     17  O   UNL d   1      -2.142 -22.354 -12.869 -0.00 -0.13    -0.303    21.941
ATOM     18  H   UNL d   1      -1.594 -22.194 -13.661 +0.01 +0.06    +0.222    21.941
ATOM     19  O   UNL d   1      -1.720 -19.924 -12.873 -0.05 -0.07    -0.303    21.941
ATOM     20  H   UNL d   1      -2.126 -19.354 -13.552 +0.05 +0.03    +0.222    21.941
ATOM     21  O   UNL d   1      -5.345 -22.503 -16.908 +0.00 -0.07    -0.278    21.941
ATOM     22  P   UNL d   1      -5.710 -21.770 -18.277 +0.00 +0.11    +0.473    21.941
ATOM     23  O   UNL d   1      -5.103 -22.286 -19.538 +0.00 -0.05    -0.228    21.941
ATOM     24  O   UNL d   1      -7.301 -21.793 -18.244 +0.00 -0.07    -0.303    21.941
ATOM     25  H   UNL d   1      -7.609 -21.045 -17.672 +0.01 +0.06    +0.222    21.941
ATOM     26  O   UNL d   1      -5.395 -20.239 -17.921 +0.00 -0.09    -0.303    21.941
ATOM     27  H   UNL d   1      -6.235 -19.740 -17.871 +0.02 +0.07    +0.222    21.941
ATOM     28  O   UNL d   1      -5.065 -18.314 -13.340 -0.17 -0.19    -0.278    21.941
ATOM     29  P   UNL d   1      -3.966 -17.208 -13.012 -0.25 +0.21    +0.473    21.941
ATOM     30  O   UNL d   1      -3.305 -16.593 -14.191 -0.34 -0.03    -0.228    21.941
ATOM     31  O   UNL d   1      -4.819 -16.237 -12.069 -0.40 -0.17    -0.303    21.941
ATOM     32  H   UNL d   1      -5.553 -15.850 -12.599 -0.03 +0.11    +0.222    21.941
ATOM     33  O   UNL d   1      -3.026 -17.969 -11.976 -0.20 -0.18    -0.303    21.941
ATOM     34  H   UNL d   1      -3.316 -18.911 -11.911 +0.07 +0.22    +0.222    21.941
ATOM     35  O   UNL d   1      -7.688 -21.451 -15.519 -0.00 -0.09    -0.278    21.941
ATOM     36  P   UNL d   1      -9.090 -20.836 -15.970 +0.01 +0.14    +0.473    21.941
ATOM     37  O   UNL d   1     -10.056 -20.554 -14.863 -0.01 -0.08    -0.228    21.941
ATOM     38  O   UNL d   1      -8.633 -19.546 -16.784 -0.01 -0.10    -0.303    21.941
ATOM     39  H   UNL d   1      -8.861 -18.743 -16.268 +0.05 +0.08    +0.222    21.941
ATOM     40  O   UNL d   1      -9.561 -21.853 -17.098 +0.00 -0.07    -0.303    21.941
ATOM     41  H   UNL d   1      -8.797 -22.295 -17.531 +0.00 +0.05    +0.222    21.941
ATOM     42  O   UNL d   1      -7.267 -18.588 -15.173 -0.09 -0.12    -0.278    21.941
ATOM     43  P   UNL d   1      -8.254 -17.910 -14.119 -0.14 +0.22    +0.473    21.941
ATOM     44  O   UNL d   1      -9.510 -17.306 -14.645 -0.19 -0.09    -0.228    21.941
ATOM     45  O   UNL d   1      -8.485 -19.073 -13.058 -0.13 -0.17    -0.303    21.941
ATOM     46  H   UNL d   1      -8.655 -19.930 -13.498 +0.04 +0.11    +0.222    21.941
ATOM     47  O   UNL d   1      -7.295 -16.915 -13.307 -0.07 -0.19    -0.303    21.941
ATOM     48  H   UNL d   1      -6.487 -17.396 -13.035 +0.09 +0.16    +0.222    21.941
TER
ENDMDL
MODEL       56
USER    Run = 56
USER    Cluster Rank = 88
USER    Number of conformations in this cluster = 1
USER  
USER    RMSD from reference structure       = 13.635 A
USER  
USER    Estimated Free Energy of Binding    =   +4.69 kcal/mol  [=(1)+(2)+(3)-(4)]
USER    
USER    (1) Final Intermolecular Energy     =   -2.47 kcal/mol
USER        vdW + Hbond + desolv Energy     =   -2.32 kcal/mol
USER        Electrostatic Energy            =   -0.15 kcal/mol
USER    (2) Final Total Internal Energy     =  -15.63 kcal/mol
USER    (3) Torsional Free Energy           =   +7.16 kcal/mol
USER    (4) Unbound System's Energy  [=(2)] =  -15.63 kcal/mol
USER    
USER    
USER  
USER    DPF = D:/Protein_go_brrr/autodock/final/AncA/IHP/dock.dpf
USER    NEWDPF move	IHP_ideal_opt.pdbqt
USER    NEWDPF about	0.035000 0.082000 -0.065000
USER    NEWDPF tran0	13.907702 -9.317071 5.608174
USER    NEWDPF axisangle0	-0.289502 -0.834551 -0.468735 171.928123
USER    NEWDPF quaternion0	-0.288784 -0.832482 -0.467573 0.070382
USER    NEWDPF dihe0	-165.83 -166.13 -177.39 -11.71 67.48 -117.99 -37.03 -132.21 51.68 99.61 5.97 -179.77 89.91 172.64 139.82 -48.86 123.96 155.23 -3.33 21.48 -6.16 15.01 -6.31 -16.61 
USER  
USER                              x       y       z    vdW   Elec        q     RMS 
ATOM      1  C   UNL d   1      12.814  -8.400   4.635 -0.08 +0.11    +0.194    13.635
ATOM      2  C   UNL d   1      13.365  -9.673   3.990 -0.02 +0.14    +0.194    13.635
ATOM      3  C   UNL d   1      14.864  -9.837   4.249 -0.04 +0.08    +0.194    13.635
ATOM      4  C   UNL d   1      15.233  -9.732   5.727 -0.00 +0.05    +0.194    13.635
ATOM      5  C   UNL d   1      14.611  -8.539   6.440 -0.00 +0.05    +0.194    13.635
ATOM      6  C   UNL d   1      13.125  -8.339   6.131 -0.02 +0.06    +0.194    13.635
ATOM      7  O   UNL d   1      11.391  -8.409   4.496 -0.10 -0.19    -0.278    13.635
ATOM      8  P   UNL d   1      10.686  -7.146   3.819 -0.15 +0.30    +0.473    13.635
ATOM      9  O   UNL d   1       9.541  -7.467   2.924 -0.37 -0.15    -0.228    13.635
ATOM     10  O   UNL d   1      10.278  -6.223   5.054 -0.46 -0.12    -0.303    13.635
ATOM     11  H   UNL d   1      10.965  -6.277   5.744 +0.08 +0.07    +0.222    13.635
ATOM     12  O   UNL d   1      11.870  -6.316   3.160 -0.67 -0.18    -0.303    13.635
ATOM     13  H   UNL d   1      11.598  -5.833   2.348 +0.10 +0.11    +0.222    13.635
ATOM     14  O   UNL d   1      12.680 -10.807   4.536 -0.05 -0.19    -0.278    13.635
ATOM     15  P   UNL d   1      12.588 -12.105   3.602 -0.03 +0.37    +0.473    13.635
ATOM     16  O   UNL d   1      11.241 -12.744   3.470 -0.06 -0.17    -0.228    13.635
ATOM     17  O   UNL d   1      13.182 -11.621   2.205 -0.30 -0.43    -0.303    13.635
ATOM     18  H   UNL d   1      14.153 -11.719   2.183 +0.02 +0.17    +0.222    13.635
ATOM     19  O   UNL d   1      13.749 -13.056   4.130 -0.01 -0.11    -0.303    13.635
ATOM     20  H   UNL d   1      14.631 -12.714   3.893 +0.01 +0.08    +0.222    13.635
ATOM     21  O   UNL d   1      12.785  -7.027   6.575 -0.03 -0.07    -0.278    13.635
ATOM     22  P   UNL d   1      11.871  -6.842   7.870 -0.02 +0.09    +0.473    13.635
ATOM     23  O   UNL d   1      11.722  -5.471   8.438 -0.09 -0.03    -0.228    13.635
ATOM     24  O   UNL d   1      10.510  -7.524   7.408 -0.06 -0.07    -0.303    13.635
ATOM     25  H   UNL d   1      10.636  -7.872   6.488 +0.06 +0.06    +0.222    13.635
ATOM     26  O   UNL d   1      12.478  -7.950   8.858 -0.01 -0.05    -0.303    13.635
ATOM     27  H   UNL d   1      13.383  -7.686   9.120 +0.01 +0.03    +0.222    13.635
ATOM     28  O   UNL d   1      15.224 -11.157   3.863 -0.02 -0.10    -0.278    13.635
ATOM     29  P   UNL d   1      16.405 -11.396   2.822 -0.01 +0.13    +0.473    13.635
ATOM     30  O   UNL d   1      16.081 -11.092   1.404 -0.04 -0.08    -0.228    13.635
ATOM     31  O   UNL d   1      17.561 -10.526   3.506 -0.00 -0.06    -0.303    13.635
ATOM     32  H   UNL d   1      17.292 -10.319   4.431 +0.01 +0.05    +0.222    13.635
ATOM     33  O   UNL d   1      16.846 -12.890   3.154 +0.00 -0.06    -0.303    13.635
ATOM     34  H   UNL d   1      17.334 -12.897   4.014 +0.00 +0.04    +0.222    13.635
ATOM     35  O   UNL d   1      14.715  -8.822   7.833 +0.00 -0.05    -0.278    13.635
ATOM     36  P   UNL d   1      15.445  -7.794   8.811 +0.00 +0.06    +0.473    13.635
ATOM     37  O   UNL d   1      15.261  -8.053  10.272 -0.00 -0.03    -0.228    13.635
ATOM     38  O   UNL d   1      16.955  -7.887   8.314 +0.00 -0.04    -0.303    13.635
ATOM     39  H   UNL d   1      17.072  -8.712   7.796 +0.00 +0.03    +0.222    13.635
ATOM     40  O   UNL d   1      14.946  -6.388   8.259 -0.00 -0.04    -0.303    13.635
ATOM     41  H   UNL d   1      13.965  -6.318   8.272 +0.03 +0.03    +0.222    13.635
ATOM     42  O   UNL d   1      16.654  -9.566   5.789 -0.00 -0.06    -0.278    13.635
ATOM     43  P   UNL d   1      17.505 -10.541   6.720 +0.00 +0.07    +0.473    13.635
ATOM     44  O   UNL d   1      18.856 -10.080   7.145 +0.00 -0.03    -0.228    13.635
ATOM     45  O   UNL d   1      16.507 -10.832   7.926 +0.00 -0.04    -0.303    13.635
ATOM     46  H   UNL d   1      16.346 -10.027   8.458 +0.00 +0.03    +0.222    13.635
ATOM     47  O   UNL d   1      17.468 -11.932   5.925 +0.00 -0.05    -0.303    13.635
ATOM     48  H   UNL d   1      16.938 -11.823   5.108 +0.00 +0.04    +0.222    13.635
TER
ENDMDL


AVSFLD: # AVS field file
AVSFLD: #
AVSFLD: # Created by AutoDock
AVSFLD: #
AVSFLD: ndim=2           # number of dimensions in the field
AVSFLD: nspace=1         # number of physical coordinates
AVSFLD: veclen=7         # vector size
AVSFLD: dim1=48          # atoms
AVSFLD: dim2=88          # conformations
AVSFLD: data=Real       # data type (byte,integer,Real,double)
AVSFLD: field=uniform    # field coordinate layout
AVSFLD: label= x y z vdW Elec q RMS
AVSFLD: variable 1 file = D:/Protein_go_brrr/autodock/final/AncA/IHP/dock.dlg.pdb filetype = ascii offset = 5 stride = 12
AVSFLD: variable 2 file = D:/Protein_go_brrr/autodock/final/AncA/IHP/dock.dlg.pdb filetype = ascii offset = 6 stride = 12
AVSFLD: variable 3 file = D:/Protein_go_brrr/autodock/final/AncA/IHP/dock.dlg.pdb filetype = ascii offset = 7 stride = 12
AVSFLD: variable 4 file = D:/Protein_go_brrr/autodock/final/AncA/IHP/dock.dlg.pdb filetype = ascii offset = 8 stride = 12
AVSFLD: variable 5 file = D:/Protein_go_brrr/autodock/final/AncA/IHP/dock.dlg.pdb filetype = ascii offset = 9 stride = 12
AVSFLD: variable 6 file = D:/Protein_go_brrr/autodock/final/AncA/IHP/dock.dlg.pdb filetype = ascii offset = 10 stride = 12
AVSFLD: variable 7 file = D:/Protein_go_brrr/autodock/final/AncA/IHP/dock.dlg.pdb filetype = ascii offset = 11 stride = 12
AVSFLD: # end of file

>>> Closing the docking parameter file (DPF)...
This docking finished at:			4:33 58" a.m., 09/30/2025


________________________________________________________________________________

D:/autodockScripts/autodock4.exe: Successful Completion on "ACER"

Real= 12h 17m 21.52s,  CPU= 2m 36.39s,  System= 57.36s
________________________________________________________________________________

