          AutoDock 4.2 Release 4.2.6   
         (C) 1989-2012 The Scripps Research Institute
        AutoDock comes with ABSOLUTELY NO WARRANTY.
        AutoDock is free software, and you are welcome
        to redistribute it under certain conditions;
        for details type 'autodock4 -C'

                     main.cc  $Revision: 1.213 $

                   Compiled on Jul 18 2014 at 15:34:58


This file was created at:			11:20 04" a.m., 01/15/2026
                   on host:		"ACER"
Current Working Directory = "D:\Protein_go_brrr\autodock\final\AncB\heme_O2"

      ________________________________________________________________

                   SETTING UP DEFAULT PARAMETER LIBRARY
      ________________________________________________________________


Random number generator was seeded with values 2796, 1768472404.
Docking parameter file (DPF) used for this docking:		D:/Protein_go_brrr/autodock/final/AncB/heme_O2/dock.dpf
DPF> autodock_parameter_version 4.2       # used by autodock to validate parameter set

	Autodock parameter version 4.2.
DPF> outlev 1                             # diagnostic output level

Output Level = 1  ADT-COMPATIBLE OUTPUT DURING DOCKING.
DPF> intelec                              # calculate internal electrostatics

Electrostatic energies will be calculated for all non-bonds between moving atoms.
DPF> seed pid time                        # seeds for random generator

Random number generator was seeded with values 2796, 1768472404.
DPF> ligand_types A C OA N Fe HD          # atoms types in ligand

DPF> fld opt_AncB.maps.fld                # grid_data_file

Opening Grid Map Dimensions file:		opt_AncB.maps.fld
Grid Point Spacing =				0.669 Angstroms

Even Number of User-specified Grid Points =	126 x-points
						126 y-points
						126 z-points

Coordinates of Central Grid Point of Maps =	(-0.470, 0.127, 0.025)
Macromolecule file used to create Grid Maps =	opt_AncB.pdbqt
Grid Parameter file used to create Grid Maps =	D:/Protein_go_brrr/autodock/final/AncB/heme_O2/grid.gpf
Minimum coordinates in grid = (-42.617, -42.020, -42.122)
Maximum coordinates in grid = (41.677, 42.274, 42.172)

DPF> map opt_AncB.A.map                   # atom-specific affinity map

DPF> map opt_AncB.C.map                   # atom-specific affinity map

DPF> map opt_AncB.OA.map                  # atom-specific affinity map

DPF> map opt_AncB.N.map                   # atom-specific affinity map

DPF> map opt_AncB.Fe.map                  # atom-specific affinity map

DPF> map opt_AncB.HD.map                  # atom-specific affinity map

DPF> elecmap opt_AncB.e.map               # electrostatics map

DPF> desolvmap opt_AncB.d.map             # desolvation map

DPF> move heme_O2_opt.pdbqt               # small molecule

1,4-interactions will be _ignored_ in the non-bonded internal energy calculation.

Ligand PDBQT file = "heme_O2_opt.pdbqt"

INPUT LIGAND PDBQT FILE:
________________________

INPUT-LIGAND-PDBQT: REMARK  10 active torsions:
INPUT-LIGAND-PDBQT: REMARK  status: ('A' for Active; 'I' for Inactive)
INPUT-LIGAND-PDBQT: REMARK    1  A    between atoms: C_6  and  C_10 
INPUT-LIGAND-PDBQT: REMARK    2  A    between atoms: C_10  and  C_11 
INPUT-LIGAND-PDBQT: REMARK    3  A    between atoms: C_11  and  C_12 
INPUT-LIGAND-PDBQT: REMARK    4  A    between atoms: C_12  and  O_14 
INPUT-LIGAND-PDBQT: REMARK    5  A    between atoms: C_17  and  C_20 
INPUT-LIGAND-PDBQT: REMARK    6  A    between atoms: C_24  and  C_27 
INPUT-LIGAND-PDBQT: REMARK    7  A    between atoms: C_31  and  C_34 
INPUT-LIGAND-PDBQT: REMARK    8  A    between atoms: C_34  and  C_35 
INPUT-LIGAND-PDBQT: REMARK    9  A    between atoms: C_35  and  C_36 
INPUT-LIGAND-PDBQT: REMARK   10  A    between atoms: C_36  and  O_38 
INPUT-LIGAND-PDBQT: ROOT
INPUT-LIGAND-PDBQT: ATOM      1  C   UNL d   1       6.417  35.070  -1.470  0.00  0.00     0.064 A 
INPUT-LIGAND-PDBQT: ATOM      2  C   UNL d   1       7.592  32.343   2.237  0.00  0.00     0.064 A 
INPUT-LIGAND-PDBQT: ATOM      3  C   UNL d   1      12.269  32.904   1.285  0.00  0.00     0.064 C 
INPUT-LIGAND-PDBQT: ATOM      4  C   UNL d   1      11.084  36.099  -2.244  0.00  0.00     0.064 A 
INPUT-LIGAND-PDBQT: ATOM      5  C   UNL d   1       6.355  34.284  -0.383  0.00  0.00     0.066 A 
INPUT-LIGAND-PDBQT: ATOM      6  C   UNL d   1       5.162  33.858   0.208  0.00  0.00    -0.021 A 
INPUT-LIGAND-PDBQT: ATOM      7  C   UNL d   1       5.501  33.104   1.307  0.00  0.00    -0.025 A 
INPUT-LIGAND-PDBQT: ATOM      8  C   UNL d   1       6.892  33.050   1.329  0.00  0.00     0.066 A 
INPUT-LIGAND-PDBQT: ATOM      9  C   UNL d   1       4.513  32.505   2.284  0.00  0.00     0.051 C 
INPUT-LIGAND-PDBQT: ATOM     10  C   UNL d   1       9.050  32.230   2.297  0.00  0.00     0.066 A 
INPUT-LIGAND-PDBQT: ATOM     11  C   UNL d   1       9.719  31.353   3.158  0.00  0.00    -0.021 A 
INPUT-LIGAND-PDBQT: ATOM     12  C   UNL d   1      11.068  31.487   2.886  0.00  0.00     0.000 A 
INPUT-LIGAND-PDBQT: ATOM     13  C   UNL d   1      11.148  32.469   1.860  0.00  0.00     0.070 A 
INPUT-LIGAND-PDBQT: ATOM     14  C   UNL d   1       9.096  30.407   4.178  0.00  0.00     0.052 C 
INPUT-LIGAND-PDBQT: ATOM     15  C   UNL d   1      12.395  33.921   0.269  0.00  0.00     0.066 A 
INPUT-LIGAND-PDBQT: ATOM     16  C   UNL d   1      13.607  34.449  -0.175  0.00  0.00    -0.021 A 
INPUT-LIGAND-PDBQT: ATOM     17  C   UNL d   1      13.294  35.363  -1.181  0.00  0.00     0.000 A 
INPUT-LIGAND-PDBQT: ATOM     18  C   UNL d   1      11.896  35.322  -1.278  0.00  0.00     0.070 A 
INPUT-LIGAND-PDBQT: ATOM     19  C   UNL d   1      14.937  34.079   0.432  0.00  0.00     0.052 C 
INPUT-LIGAND-PDBQT: ATOM     20  C   UNL d   1       9.740  36.116  -2.335  0.00  0.00     0.066 A 
INPUT-LIGAND-PDBQT: ATOM     21  C   UNL d   1       9.031  36.855  -3.278  0.00  0.00    -0.025 A 
INPUT-LIGAND-PDBQT: ATOM     22  C   UNL d   1       7.701  36.553  -3.090  0.00  0.00    -0.021 A 
INPUT-LIGAND-PDBQT: ATOM     23  C   UNL d   1       7.646  35.651  -2.023  0.00  0.00     0.066 A 
INPUT-LIGAND-PDBQT: ATOM     24  C   UNL d   1       9.594  37.804  -4.304  0.00  0.00     0.051 C 
INPUT-LIGAND-PDBQT: ATOM     25  N   UNL d   1       7.418  33.831   0.326  0.00  0.00    -0.248 N 
INPUT-LIGAND-PDBQT: ATOM     26  N   UNL d   1       9.916  32.919   1.511  0.00  0.00    -0.248 N 
INPUT-LIGAND-PDBQT: ATOM     27  N   UNL d   1      11.363  34.498  -0.340  0.00  0.00    -0.248 N 
INPUT-LIGAND-PDBQT: ATOM     28  N   UNL d   1       8.884  35.423  -1.538  0.00  0.00    -0.248 N 
INPUT-LIGAND-PDBQT: ATOM     29 FE   UNL d   1       9.399  34.181  -0.025  0.00  0.00     0.000 Fe
INPUT-LIGAND-PDBQT: ATOM     30  O   UNL d   1       8.866  34.841   1.280  0.00  0.00     0.000 OA
INPUT-LIGAND-PDBQT: ATOM     31  O   UNL d   1       9.881  35.626   0.366  0.00  0.00     0.000 OA
INPUT-LIGAND-PDBQT: ENDROOT
INPUT-LIGAND-PDBQT: BRANCH   6  32
INPUT-LIGAND-PDBQT: ATOM     32  C   UNL d   1       3.756  34.255  -0.161  0.00  0.00     0.052 C 
INPUT-LIGAND-PDBQT: BRANCH  32  33
INPUT-LIGAND-PDBQT: ATOM     33  C   UNL d   1       3.190  33.429  -1.312  0.00  0.00     0.115 C 
INPUT-LIGAND-PDBQT: BRANCH  33  34
INPUT-LIGAND-PDBQT: ATOM     34  C   UNL d   1       1.764  33.798  -1.638  0.00  0.00     0.139 C 
INPUT-LIGAND-PDBQT: ATOM     35  O   UNL d   1       1.015  32.956  -2.107  0.00  0.00    -0.650 OA
INPUT-LIGAND-PDBQT: BRANCH  34  36
INPUT-LIGAND-PDBQT: ATOM     36  O   UNL d   1       1.301  35.051  -1.449  0.00  0.00    -0.776 OA
INPUT-LIGAND-PDBQT: ATOM     37  H   UNL d   1       1.861  35.756  -1.104  0.00  0.00     0.167 HD
INPUT-LIGAND-PDBQT: ENDBRANCH  34  36
INPUT-LIGAND-PDBQT: ENDBRANCH  33  34
INPUT-LIGAND-PDBQT: ENDBRANCH  32  33
INPUT-LIGAND-PDBQT: ENDBRANCH   6  32
INPUT-LIGAND-PDBQT: BRANCH  22  38
INPUT-LIGAND-PDBQT: ATOM     38  C   UNL d   1       6.548  37.151  -3.854  0.00  0.00     0.052 C 
INPUT-LIGAND-PDBQT: BRANCH  38  39
INPUT-LIGAND-PDBQT: ATOM     39  C   UNL d   1       6.010  36.208  -4.928  0.00  0.00     0.115 C 
INPUT-LIGAND-PDBQT: BRANCH  39  40
INPUT-LIGAND-PDBQT: ATOM     40  C   UNL d   1       4.838  36.794  -5.675  0.00  0.00     0.139 C 
INPUT-LIGAND-PDBQT: ATOM     41  O   UNL d   1       4.700  36.561  -6.865  0.00  0.00    -0.650 OA
INPUT-LIGAND-PDBQT: BRANCH  40  42
INPUT-LIGAND-PDBQT: ATOM     42  O   UNL d   1       3.907  37.532  -5.040  0.00  0.00    -0.776 OA
INPUT-LIGAND-PDBQT: ATOM     43  H   UNL d   1       3.982  37.740  -4.101  0.00  0.00     0.167 HD
INPUT-LIGAND-PDBQT: ENDBRANCH  40  42
INPUT-LIGAND-PDBQT: ENDBRANCH  39  40
INPUT-LIGAND-PDBQT: ENDBRANCH  38  39
INPUT-LIGAND-PDBQT: ENDBRANCH  22  38
INPUT-LIGAND-PDBQT: BRANCH  12  44
INPUT-LIGAND-PDBQT: ATOM     44  C   UNL d   1      12.120  30.683   3.621  0.00  0.00     0.004 C 
INPUT-LIGAND-PDBQT: ATOM     45  C   UNL d   1      13.434  30.659   3.401  0.00  0.00     0.012 C 
INPUT-LIGAND-PDBQT: ENDBRANCH  12  44
INPUT-LIGAND-PDBQT: BRANCH  17  46
INPUT-LIGAND-PDBQT: ATOM     46  C   UNL d   1      14.171  36.282  -1.989  0.00  0.00     0.004 C 
INPUT-LIGAND-PDBQT: ATOM     47  C   UNL d   1      15.480  36.522  -1.839  0.00  0.00     0.012 C 
INPUT-LIGAND-PDBQT: ENDBRANCH  17  46
INPUT-LIGAND-PDBQT: TORSDOF 10
________________________________________________________________________________

Total charge on ligand                               =	-2.002 e
REMARK  10 active torsions:
REMARK  status: ('A' for Active; 'I' for Inactive)
REMARK    1  A    between atoms: C_6  and  C_10 
REMARK    2  A    between atoms: C_10  and  C_11 
REMARK    3  A    between atoms: C_11  and  C_12 
REMARK    4  A    between atoms: C_12  and  O_14 
REMARK    5  A    between atoms: C_17  and  C_20 
REMARK    6  A    between atoms: C_24  and  C_27 
REMARK    7  A    between atoms: C_31  and  C_34 
REMARK    8  A    between atoms: C_34  and  C_35 
REMARK    9  A    between atoms: C_35  and  C_36 
REMARK   10  A    between atoms: C_36  and  O_38 


Number of Rotatable Bonds in Small Molecule =	10 torsions
Number of atoms in ligand:  47

Number of non-hydrogen atoms in ligand:  45

Number of vibrational degrees of freedom of ligand:  135


Number of torsional degrees of freedom = 10
Estimated loss of torsional free energy upon binding = +2.9830 kcal/mol


DPF> about 8.287 34.468 -0.670            # small molecule center

Small molecule center of rotation =	(+8.287, +34.468, -0.670)

DPF> tran0 random                         # initial coordinates/A or random

Initial translation =			(26.036, 36.246, -12.782) Angstroms
DPF> quaternion0 random                   # initial orientation

Each run will begin with a new, random initial orientation.
Initial quaternion,  (x,y,z,w) =	( -0.126, -0.176, 0.864, 0.455 ),
DPF> dihe0 random                         # initial dihedrals (relative) or random

DPF> torsdof 10                            # torsional degrees of freedom

Number of torsional degrees of freedom = 10
Free energy coefficient for torsional degrees of freedom = 0.2983, the factory default value.

Estimated loss of torsional free energy upon binding = +2.9830 kcal/mol

DPF> rmstol 2.0                           # cluster_tolerance/A

Maximum RMS tolerance for conformational cluster analysis = 2.00 Angstroms
DPF> extnrg 1000.0                        # external grid energy

External grid energy (beyond grid map walls) = 1000.00

DPF> e0max 0.0 10000                      # max initial energy; max number of retries

Using user-specified maximum number of retries for simanneal initialization, 10000 retries.
If the simanneal initial energy is greater than e0max, 0.000,
then a new, random initial state will be created.

DPF> ga_pop_size 150                      # number of individuals in population

A population of 150 individuals will be used
DPF> ga_num_evals 25000000                # maximum number of energy evaluations

There will be at most 25000000 function evaluations used.
DPF> ga_num_generations 27000             # maximum number of generations

The GA will run for at most 27000 generations.
DPF> ga_elitism 1                         # number of top individuals to survive to next generation

The 1 best will be preserved each GA generation.
DPF> ga_mutation_rate 0.02                # rate of gene mutation

The mutation rate is 0.020000.
DPF> ga_crossover_rate 0.8                # rate of crossover

The crossover rate is 0.800000.
DPF> ga_window_size 10                    # 

The GA's selection window is 10 generations.
DPF> ga_cauchy_alpha 0.0                  # Alpha parameter of Cauchy distribution

The alpha parameter (for the Cauchy distribution) is being set to 0.000000.
DPF> ga_cauchy_beta 1.0                   # Beta parameter Cauchy distribution

The beta parameter (for the Cauchy distribution) is being set to 1.000000.
DPF> set_ga                               # set the above parameters for GA or LGA

DPF> sw_max_its 300                       # iterations of Solis & Wets local search

Solis & Wets algorithms will perform at most 300 iterations.
DPF> sw_max_succ 4                        # consecutive successes before changing rho

Solis & Wets algorithms expand rho every 4 in a row successes.
DPF> sw_max_fail 4                        # consecutive failures before changing rho

Solis & Wets algorithms contract rho every 4 in a row failures.
DPF> sw_rho 1.0                           # size of local search space to sample

rho is set to 1.000000.
DPF> sw_lb_rho 0.01                       # lower bound on rho

rho will never get smaller than 0.010000.
DPF> ls_search_freq 0.06                  # probability of performing local search on individual

Local search will be performed with frequency 0.060000.
DPF> set_psw1                             # set the above pseudo-Solis & Wets parameters

Creating a new Local Search object using the pseudo-Solis-Wets algorithm (pSW1) with the current settings.

DPF> unbound_model bound                  # state of unbound ligand

DPF> ga_run 100                           # do this many hybrid GA-LS runs

centering ligand on specified point: 8.287 34.468 -0.670
Furthest true ligand atom from "about" center is 7.588 Angstroms (maxrad).
Number of requested GA dockings = 100 runs
Unbound model to be used is 'same as bound' [AutoDock 4.2 default].

	BEGINNING GENETIC ALGORITHM DOCKING 1 of 100
Run: 1 Seed: 1434228138 1089993836 [ Run 1 of 100 GA/GALS ]
Beginning LAMARCKIAN GENETIC ALGORITHM (LGA), with a maximum of 25000000 energy evaluations.

Final-Value: -20.794


	FINAL GENETIC ALGORITHM DOCKED STATE
	_______________________________________________


Detailed state:  trans 0.303 -1.616 -8.882 quatxyzw -0.283385 -0.304962 -0.250895 -0.873924 center 8.287 34.468 -0.670 ntor 10 -77.1690 170.9180 28.2605 -61.8523 -109.4558 11.5340 -4.5575 68.9518 -128.6509 -180.0000
State:	  0.303  -1.616  -8.882  -0.583 -0.627 -0.516 -58.164    -77.17  170.92   28.26  -61.85 -109.46   11.53   -4.56   68.95 -128.65 -180.00

DOCKED: MODEL        1
DOCKED: USER    Run = 1
DOCKED: USER    DPF = D:/Protein_go_brrr/autodock/final/AncB/heme_O2/dock.dpf
DOCKED: USER  
DOCKED: USER    Estimated Free Energy of Binding    =  -16.29 kcal/mol  [=(1)+(2)+(3)-(4)]
DOCKED: USER    Estimated Inhibition Constant, Ki   =    1.15 pM (picomolar)  [Temperature = 298.15 K]
DOCKED: USER    
DOCKED: USER    (1) Final Intermolecular Energy     =  -19.27 kcal/mol
DOCKED: USER        vdW + Hbond + desolv Energy     =  -16.28 kcal/mol
DOCKED: USER        Electrostatic Energy            =   -2.99 kcal/mol
DOCKED: USER    (2) Final Total Internal Energy     =   -1.52 kcal/mol
DOCKED: USER    (3) Torsional Free Energy           =   +2.98 kcal/mol
DOCKED: USER    (4) Unbound System's Energy  [=(2)] =   -1.52 kcal/mol
DOCKED: USER    
DOCKED: USER    
DOCKED: USER    NEWDPF move heme_O2_opt.pdbqt
DOCKED: USER    NEWDPF about 8.287000 34.468000 -0.670000
DOCKED: USER    NEWDPF tran0 0.303000 -1.616316 -8.881828
DOCKED: USER    NEWDPF quaternion0 -0.283385 -0.304962 -0.250895 -0.873924
DOCKED: USER    NEWDPF axisangle0 -0.583021 -0.627412 -0.516178 -58.164252
DOCKED: USER    NEWDPF quat0 -0.583021 -0.627412 -0.516178 -58.164252
DOCKED: USER    NEWDPF dihe0 -77.17 170.92 28.26 -61.85 -109.46 11.53 -4.56 68.95 -128.65 -180.00 
DOCKED: USER  keepresnum = 1 
DOCKED: USER  
DOCKED: REMARK  10 active torsions:
DOCKED: REMARK  status: ('A' for Active; 'I' for Inactive)
DOCKED: REMARK    1  A    between atoms: C_6  and  C_10 
DOCKED: REMARK    2  A    between atoms: C_10  and  C_11 
DOCKED: REMARK    3  A    between atoms: C_11  and  C_12 
DOCKED: REMARK    4  A    between atoms: C_12  and  O_14 
DOCKED: REMARK    5  A    between atoms: C_17  and  C_20 
DOCKED: REMARK    6  A    between atoms: C_24  and  C_27 
DOCKED: REMARK    7  A    between atoms: C_31  and  C_34 
DOCKED: REMARK    8  A    between atoms: C_34  and  C_35 
DOCKED: REMARK    9  A    between atoms: C_35  and  C_36 
DOCKED: REMARK   10  A    between atoms: C_36  and  O_38 
DOCKED: USER                              x       y       z     vdW  Elec       q    Type
DOCKED: USER                           _______ _______ _______ _____ _____    ______ ____
DOCKED: ROOT
DOCKED: ATOM      1  C   UNL d   1      -0.303  -1.209 -10.873 -0.26 +0.04    +0.064 A 
DOCKED: ATOM      2  C   UNL d   1      -2.611  -1.063  -6.724 -0.39 +0.02    +0.064 A 
DOCKED: ATOM      3  C   UNL d   1       1.323  -2.523  -4.380 -0.44 +0.01    +0.064 C 
DOCKED: ATOM      4  C   UNL d   1       3.840  -2.216  -8.580 -0.42 +0.02    +0.064 A 
DOCKED: ATOM      5  C   UNL d   1      -1.251  -1.048  -9.936 -0.29 +0.04    +0.066 A 
DOCKED: ATOM      6  C   UNL d   1      -2.563  -0.652 -10.209 -0.31 -0.02    -0.021 A 
DOCKED: ATOM      7  C   UNL d   1      -3.221  -0.568  -9.004 -0.34 -0.01    -0.025 A 
DOCKED: ATOM      8  C   UNL d   1      -2.305  -0.961  -8.032 -0.36 +0.03    +0.066 A 
DOCKED: ATOM      9  C   UNL d   1      -4.649  -0.099  -8.828 -0.36 +0.02    +0.051 C 
DOCKED: ATOM     10  C   UNL d   1      -1.700  -1.492  -5.662 -0.40 +0.02    +0.066 A 
DOCKED: ATOM     11  C   UNL d   1      -2.112  -1.737  -4.348 -0.48 -0.00    -0.021 A 
DOCKED: ATOM     12  C   UNL d   1      -0.996  -2.177  -3.660 -0.44 +0.00    +0.000 A 
DOCKED: ATOM     13  C   UNL d   1       0.061  -2.162  -4.613 -0.40 +0.01    +0.070 A 
DOCKED: ATOM     14  C   UNL d   1      -3.518  -1.586  -3.778 -0.55 +0.01    +0.052 C 
DOCKED: ATOM     15  C   UNL d   1       2.428  -2.489  -5.307 -0.40 +0.01    +0.066 A 
DOCKED: ATOM     16  C   UNL d   1       3.759  -2.722  -4.960 -0.51 -0.00    -0.021 A 
DOCKED: ATOM     17  C   UNL d   1       4.495  -2.639  -6.141 -0.51 +0.00    +0.000 A 
DOCKED: ATOM     18  C   UNL d   1       3.546  -2.360  -7.135 -0.42 +0.02    +0.070 A 
DOCKED: ATOM     19  C   UNL d   1       4.210  -2.946  -3.538 -0.35 +0.00    +0.052 C 
DOCKED: ATOM     20  C   UNL d   1       2.961  -1.906  -9.553 -0.45 +0.02    +0.066 A 
DOCKED: ATOM     21  C   UNL d   1       3.294  -1.802 -10.901 -0.48 -0.01    -0.025 A 
DOCKED: ATOM     22  C   UNL d   1       2.120  -1.542 -11.572 -0.13 -0.01    -0.021 A 
DOCKED: ATOM     23  C   UNL d   1       1.114  -1.479 -10.604 -0.18 +0.03    +0.066 A 
DOCKED: ATOM     24  C   UNL d   1       4.662  -1.939 -11.516 -0.36 +0.01    +0.051 C 
DOCKED: ATOM     25  N   UNL d   1      -1.074  -1.194  -8.600 -0.22 -0.12    -0.248 N 
DOCKED: ATOM     26  N   UNL d   1      -0.375  -1.740  -5.827 -0.25 -0.07    -0.248 N 
DOCKED: ATOM     27  N   UNL d   1       2.309  -2.198  -6.599 -0.24 -0.07    -0.248 N 
DOCKED: ATOM     28  N   UNL d   1       1.637  -1.656  -9.373 -0.16 -0.13    -0.248 N 
DOCKED: ATOM     29 FE   UNL d   1       0.641  -1.698  -7.611 -0.09 +0.00    +0.000 Fe
DOCKED: ATOM     30  O   UNL d   1       0.167  -0.240  -7.344 -0.73 +0.00    +0.000 OA
DOCKED: ATOM     31  O   UNL d   1       1.703  -0.542  -7.525 -1.08 +0.00    +0.000 OA
DOCKED: ENDROOT
DOCKED: BRANCH   6  32
DOCKED: ATOM     32  C   UNL d   1      -3.144  -0.234 -11.536 -0.22 +0.07    +0.052 C 
DOCKED: BRANCH  32  33
DOCKED: ATOM     33  C   UNL d   1      -2.238   0.723 -12.304 -0.23 +0.14    +0.115 C 
DOCKED: BRANCH  33  34
DOCKED: ATOM     34  C   UNL d   1      -2.748   1.006 -13.695 -0.17 +0.22    +0.139 C 
DOCKED: ATOM     35  O   UNL d   1      -3.362   2.038 -13.914 -0.37 -1.39    -0.650 OA
DOCKED: BRANCH  34  36
DOCKED: ATOM     36  O   UNL d   1      -2.566   0.129 -14.703 -0.35 -1.43    -0.776 OA
DOCKED: ATOM     37  H   UNL d   1      -1.717   0.034 -15.151 +0.03 +0.25    +0.167 HD
DOCKED: ENDBRANCH  34  36
DOCKED: ENDBRANCH  33  34
DOCKED: ENDBRANCH  32  33
DOCKED: ENDBRANCH   6  32
DOCKED: BRANCH  22  38
DOCKED: ATOM     38  C   UNL d   1       1.991  -1.304 -13.055 -0.20 +0.02    +0.052 C 
DOCKED: BRANCH  38  39
DOCKED: ATOM     39  C   UNL d   1       2.418   0.105 -13.458 -0.30 +0.05    +0.115 C 
DOCKED: BRANCH  39  40
DOCKED: ATOM     40  C   UNL d   1       1.260   0.943 -13.941 -0.19 +0.08    +0.139 C 
DOCKED: ATOM     41  O   UNL d   1       1.327   2.160 -13.882 -0.04 -0.41    -0.650 OA
DOCKED: BRANCH  40  42
DOCKED: ATOM     42  O   UNL d   1       0.169   0.372 -14.486 +0.07 -0.63    -0.776 OA
DOCKED: ATOM     43  H   UNL d   1      -0.611   0.891 -14.715 +0.05 +0.17    +0.167 HD
DOCKED: ENDBRANCH  40  42
DOCKED: ENDBRANCH  39  40
DOCKED: ENDBRANCH  38  39
DOCKED: ENDBRANCH  22  38
DOCKED: BRANCH  12  44
DOCKED: ATOM     44  C   UNL d   1      -1.051  -2.553  -2.194 -0.46 +0.00    +0.004 C 
DOCKED: ATOM     45  C   UNL d   1      -0.050  -2.566  -1.314 -0.59 +0.00    +0.012 C 
DOCKED: ENDBRANCH  12  44
DOCKED: BRANCH  17  46
DOCKED: ATOM     46  C   UNL d   1       5.976  -2.740  -6.392 -0.63 +0.00    +0.004 C 
DOCKED: ATOM     47  C   UNL d   1       6.938  -1.882  -6.030 -0.66 +0.00    +0.012 C 
DOCKED: ENDBRANCH  17  46
DOCKED: TORSDOF 10
DOCKED: TER
DOCKED: ENDMDL
________________________________________________________________________________


	BEGINNING GENETIC ALGORITHM DOCKING 2 of 100
Run: 2 Seed: 1748999628 1993904640 [ Run 2 of 100 GA/GALS ]
Beginning LAMARCKIAN GENETIC ALGORITHM (LGA), with a maximum of 25000000 energy evaluations.

Final-Value: -21.098


	FINAL GENETIC ALGORITHM DOCKED STATE
	_______________________________________________


Detailed state:  trans 0.243 -1.653 -8.871 quatxyzw -0.286565 -0.303263 -0.243498 -0.875569 center 8.287 34.468 -0.670 ntor 10 -112.6075 116.9456 28.2516 -56.0067 -77.2410 57.2269 -20.6936 37.5415 -150.5489 139.6146
State:	  0.243  -1.653  -8.871  -0.593 -0.628 -0.504 -57.775   -112.61  116.95   28.25  -56.01  -77.24   57.23  -20.69   37.54 -150.55  139.61

DOCKED: MODEL        2
DOCKED: USER    Run = 2
DOCKED: USER    DPF = D:/Protein_go_brrr/autodock/final/AncB/heme_O2/dock.dpf
DOCKED: USER  
DOCKED: USER    Estimated Free Energy of Binding    =  -16.18 kcal/mol  [=(1)+(2)+(3)-(4)]
DOCKED: USER    Estimated Inhibition Constant, Ki   =    1.37 pM (picomolar)  [Temperature = 298.15 K]
DOCKED: USER    
DOCKED: USER    (1) Final Intermolecular Energy     =  -19.17 kcal/mol
DOCKED: USER        vdW + Hbond + desolv Energy     =  -15.96 kcal/mol
DOCKED: USER        Electrostatic Energy            =   -3.21 kcal/mol
DOCKED: USER    (2) Final Total Internal Energy     =   -1.93 kcal/mol
DOCKED: USER    (3) Torsional Free Energy           =   +2.98 kcal/mol
DOCKED: USER    (4) Unbound System's Energy  [=(2)] =   -1.93 kcal/mol
DOCKED: USER    
DOCKED: USER    
DOCKED: USER    NEWDPF move heme_O2_opt.pdbqt
DOCKED: USER    NEWDPF about 8.287000 34.468000 -0.670000
DOCKED: USER    NEWDPF tran0 0.243333 -1.653117 -8.870640
DOCKED: USER    NEWDPF quaternion0 -0.286565 -0.303263 -0.243498 -0.875569
DOCKED: USER    NEWDPF axisangle0 -0.593188 -0.627752 -0.504039 -57.775297
DOCKED: USER    NEWDPF quat0 -0.593188 -0.627752 -0.504039 -57.775297
DOCKED: USER    NEWDPF dihe0 -112.61 116.95 28.25 -56.01 -77.24 57.23 -20.69 37.54 -150.55 139.61 
DOCKED: USER  keepresnum = 1 
DOCKED: USER  
DOCKED: REMARK  10 active torsions:
DOCKED: REMARK  status: ('A' for Active; 'I' for Inactive)
DOCKED: REMARK    1  A    between atoms: C_6  and  C_10 
DOCKED: REMARK    2  A    between atoms: C_10  and  C_11 
DOCKED: REMARK    3  A    between atoms: C_11  and  C_12 
DOCKED: REMARK    4  A    between atoms: C_12  and  O_14 
DOCKED: REMARK    5  A    between atoms: C_17  and  C_20 
DOCKED: REMARK    6  A    between atoms: C_24  and  C_27 
DOCKED: REMARK    7  A    between atoms: C_31  and  C_34 
DOCKED: REMARK    8  A    between atoms: C_34  and  C_35 
DOCKED: REMARK    9  A    between atoms: C_35  and  C_36 
DOCKED: REMARK   10  A    between atoms: C_36  and  O_38 
DOCKED: USER                              x       y       z     vdW  Elec       q    Type
DOCKED: USER                           _______ _______ _______ _____ _____    ______ ____
DOCKED: ROOT
DOCKED: ATOM      1  C   UNL d   1      -0.386  -1.269 -10.859 -0.27 +0.04    +0.064 A 
DOCKED: ATOM      2  C   UNL d   1      -2.655  -1.113  -6.689 -0.39 +0.02    +0.064 A 
DOCKED: ATOM      3  C   UNL d   1       1.317  -2.511  -4.372 -0.44 +0.01    +0.064 C 
DOCKED: ATOM      4  C   UNL d   1       3.789  -2.212  -8.598 -0.43 +0.02    +0.064 A 
DOCKED: ATOM      5  C   UNL d   1      -1.327  -1.111  -9.914 -0.31 +0.04    +0.066 A 
DOCKED: ATOM      6  C   UNL d   1      -2.646  -0.731 -10.178 -0.31 -0.02    -0.021 A 
DOCKED: ATOM      7  C   UNL d   1      -3.293  -0.644  -8.967 -0.33 -0.01    -0.025 A 
DOCKED: ATOM      8  C   UNL d   1      -2.363  -1.019  -8.001 -0.36 +0.03    +0.066 A 
DOCKED: ATOM      9  C   UNL d   1      -4.724  -0.189  -8.781 -0.35 +0.02    +0.051 C 
DOCKED: ATOM     10  C   UNL d   1      -1.729  -1.524  -5.632 -0.41 +0.02    +0.066 A 
DOCKED: ATOM     11  C   UNL d   1      -2.126  -1.763  -4.312 -0.49 -0.00    -0.021 A 
DOCKED: ATOM     12  C   UNL d   1      -0.998  -2.184  -3.632 -0.44 +0.00    +0.000 A 
DOCKED: ATOM     13  C   UNL d   1       0.049  -2.166  -4.595 -0.40 +0.01    +0.070 A 
DOCKED: ATOM     14  C   UNL d   1      -3.528  -1.621  -3.730 -0.56 +0.01    +0.052 C 
DOCKED: ATOM     15  C   UNL d   1       2.413  -2.473  -5.310 -0.40 +0.01    +0.066 A 
DOCKED: ATOM     16  C   UNL d   1       3.749  -2.689  -4.974 -0.51 -0.00    -0.021 A 
DOCKED: ATOM     17  C   UNL d   1       4.473  -2.608  -6.163 -0.51 +0.00    +0.000 A 
DOCKED: ATOM     18  C   UNL d   1       3.511  -2.347  -7.149 -0.42 +0.02    +0.070 A 
DOCKED: ATOM     19  C   UNL d   1       4.217  -2.896  -3.555 -0.38 +0.00    +0.052 C 
DOCKED: ATOM     20  C   UNL d   1       2.898  -1.920  -9.565 -0.45 +0.02    +0.066 A 
DOCKED: ATOM     21  C   UNL d   1       3.216  -1.823 -10.917 -0.47 -0.01    -0.025 A 
DOCKED: ATOM     22  C   UNL d   1       2.033  -1.582 -11.579 -0.05 -0.01    -0.021 A 
DOCKED: ATOM     23  C   UNL d   1       1.036  -1.522 -10.601 -0.17 +0.03    +0.066 A 
DOCKED: ATOM     24  C   UNL d   1       4.580  -1.951 -11.544 -0.40 +0.01    +0.051 C 
DOCKED: ATOM     25  N   UNL d   1      -1.135  -1.244  -8.579 -0.15 -0.12    -0.248 N 
DOCKED: ATOM     26  N   UNL d   1      -0.404  -1.759  -5.808 -0.25 -0.07    -0.248 N 
DOCKED: ATOM     27  N   UNL d   1       2.278  -2.194  -6.603 -0.24 -0.07    -0.248 N 
DOCKED: ATOM     28  N   UNL d   1       1.573  -1.683  -9.374 -0.14 -0.13    -0.248 N 
DOCKED: ATOM     29 FE   UNL d   1       0.594  -1.721  -7.603 -0.09 +0.00    +0.000 Fe
DOCKED: ATOM     30  O   UNL d   1       0.108  -0.265  -7.343 -0.73 +0.00    +0.000 OA
DOCKED: ATOM     31  O   UNL d   1       1.645  -0.552  -7.536 -1.09 +0.00    +0.000 OA
DOCKED: ENDROOT
DOCKED: BRANCH   6  32
DOCKED: ATOM     32  C   UNL d   1      -3.244  -0.331 -11.502 -0.21 +0.07    +0.052 C 
DOCKED: BRANCH  32  33
DOCKED: ATOM     33  C   UNL d   1      -2.674   0.979 -12.038 -0.23 +0.14    +0.115 C 
DOCKED: BRANCH  33  34
DOCKED: ATOM     34  C   UNL d   1      -2.825   1.103 -13.533 -0.18 +0.22    +0.139 C 
DOCKED: ATOM     35  O   UNL d   1      -3.274   2.133 -14.011 -0.40 -1.45    -0.650 OA
DOCKED: BRANCH  34  36
DOCKED: ATOM     36  O   UNL d   1      -2.500   0.087 -14.360 -0.22 -1.48    -0.776 OA
DOCKED: ATOM     37  H   UNL d   1      -1.753   0.141 -14.967 +0.03 +0.24    +0.167 HD
DOCKED: ENDBRANCH  34  36
DOCKED: ENDBRANCH  33  34
DOCKED: ENDBRANCH  32  33
DOCKED: ENDBRANCH   6  32
DOCKED: BRANCH  22  38
DOCKED: ATOM     38  C   UNL d   1       1.887  -1.358 -13.062 -0.14 +0.03    +0.052 C 
DOCKED: BRANCH  38  39
DOCKED: ATOM     39  C   UNL d   1       1.325   0.024 -13.390 -0.23 +0.07    +0.115 C 
DOCKED: BRANCH  39  40
DOCKED: ATOM     40  C   UNL d   1       0.398   0.002 -14.579 -0.14 +0.11    +0.139 C 
DOCKED: ATOM     41  O   UNL d   1       0.189   1.029 -15.204 +0.05 -0.50    -0.650 OA
DOCKED: BRANCH  40  42
DOCKED: ATOM     42  O   UNL d   1      -0.168  -1.146 -14.999 -0.02 -0.82    -0.776 OA
DOCKED: ATOM     43  H   UNL d   1      -1.126  -1.258 -15.023 +0.03 +0.28    +0.167 HD
DOCKED: ENDBRANCH  40  42
DOCKED: ENDBRANCH  39  40
DOCKED: ENDBRANCH  38  39
DOCKED: ENDBRANCH  22  38
DOCKED: BRANCH  12  44
DOCKED: ATOM     44  C   UNL d   1      -1.035  -2.549  -2.163 -0.48 +0.00    +0.004 C 
DOCKED: ATOM     45  C   UNL d   1      -0.026  -2.543  -1.292 -0.60 +0.00    +0.012 C 
DOCKED: ENDBRANCH  12  44
DOCKED: BRANCH  17  46
DOCKED: ATOM     46  C   UNL d   1       5.952  -2.695  -6.427 -0.63 +0.00    +0.004 C 
DOCKED: ATOM     47  C   UNL d   1       6.921  -1.880  -5.991 -0.66 +0.00    +0.012 C 
DOCKED: ENDBRANCH  17  46
DOCKED: TORSDOF 10
DOCKED: TER
DOCKED: ENDMDL
________________________________________________________________________________


	BEGINNING GENETIC ALGORITHM DOCKING 3 of 100
Run: 3 Seed: 747463143 1286087717 [ Run 3 of 100 GA/GALS ]
Beginning LAMARCKIAN GENETIC ALGORITHM (LGA), with a maximum of 25000000 energy evaluations.

Final-Value: -12.592


	FINAL GENETIC ALGORITHM DOCKED STATE
	_______________________________________________


Detailed state:  trans -4.052 -10.900 11.166 quatxyzw -0.647844 -0.132977 -0.734466 0.152236 center 8.287 34.468 -0.670 ntor 10 96.7535 -104.7435 -12.3117 119.1000 -65.5911 109.7861 49.8617 41.8890 -21.8212 172.0129
State:	 -4.052 -10.900  11.166  -0.655 -0.135 -0.743 162.487     96.75 -104.74  -12.31  119.10  -65.59  109.79   49.86   41.89  -21.82  172.01

DOCKED: MODEL        3
DOCKED: USER    Run = 3
DOCKED: USER    DPF = D:/Protein_go_brrr/autodock/final/AncB/heme_O2/dock.dpf
DOCKED: USER  
DOCKED: USER    Estimated Free Energy of Binding    =   -7.55 kcal/mol  [=(1)+(2)+(3)-(4)]
DOCKED: USER    Estimated Inhibition Constant, Ki   =    2.92 uM (micromolar)  [Temperature = 298.15 K]
DOCKED: USER    
DOCKED: USER    (1) Final Intermolecular Energy     =  -10.53 kcal/mol
DOCKED: USER        vdW + Hbond + desolv Energy     =   -7.51 kcal/mol
DOCKED: USER        Electrostatic Energy            =   -3.02 kcal/mol
DOCKED: USER    (2) Final Total Internal Energy     =   -2.06 kcal/mol
DOCKED: USER    (3) Torsional Free Energy           =   +2.98 kcal/mol
DOCKED: USER    (4) Unbound System's Energy  [=(2)] =   -2.06 kcal/mol
DOCKED: USER    
DOCKED: USER    
DOCKED: USER    NEWDPF move heme_O2_opt.pdbqt
DOCKED: USER    NEWDPF about 8.287000 34.468000 -0.670000
DOCKED: USER    NEWDPF tran0 -4.052155 -10.899662 11.166252
DOCKED: USER    NEWDPF quaternion0 -0.647844 -0.132977 -0.734466 0.152236
DOCKED: USER    NEWDPF axisangle0 -0.655484 -0.134545 -0.743127 162.486985
DOCKED: USER    NEWDPF quat0 -0.655484 -0.134545 -0.743127 162.486985
DOCKED: USER    NEWDPF dihe0 96.75 -104.74 -12.31 119.10 -65.59 109.79 49.86 41.89 -21.82 172.01 
DOCKED: USER  keepresnum = 1 
DOCKED: USER  
DOCKED: REMARK  10 active torsions:
DOCKED: REMARK  status: ('A' for Active; 'I' for Inactive)
DOCKED: REMARK    1  A    between atoms: C_6  and  C_10 
DOCKED: REMARK    2  A    between atoms: C_10  and  C_11 
DOCKED: REMARK    3  A    between atoms: C_11  and  C_12 
DOCKED: REMARK    4  A    between atoms: C_12  and  O_14 
DOCKED: REMARK    5  A    between atoms: C_17  and  C_20 
DOCKED: REMARK    6  A    between atoms: C_24  and  C_27 
DOCKED: REMARK    7  A    between atoms: C_31  and  C_34 
DOCKED: REMARK    8  A    between atoms: C_34  and  C_35 
DOCKED: REMARK    9  A    between atoms: C_35  and  C_36 
DOCKED: REMARK   10  A    between atoms: C_36  and  O_38 
DOCKED: USER                              x       y       z     vdW  Elec       q    Type
DOCKED: USER                           _______ _______ _______ _____ _____    ______ ____
DOCKED: ROOT
DOCKED: ATOM      1  C   UNL d   1      -4.663 -12.191   9.599 -0.19 +0.03    +0.064 A 
DOCKED: ATOM      2  C   UNL d   1      -0.980  -9.229  10.063 +0.03 +0.01    +0.064 A 
DOCKED: ATOM      3  C   UNL d   1      -2.487  -7.891  14.425 -0.20 +0.01    +0.064 C 
DOCKED: ATOM      4  C   UNL d   1      -6.017 -11.287  14.158 -0.18 +0.04    +0.064 A 
DOCKED: ATOM      5  C   UNL d   1      -3.537 -11.496   9.370 -0.19 +0.02    +0.066 A 
DOCKED: ATOM      6  C   UNL d   1      -2.793 -11.578   8.189 -0.25 -0.01    -0.021 A 
DOCKED: ATOM      7  C   UNL d   1      -1.702 -10.754   8.340 -0.25 -0.01    -0.025 A 
DOCKED: ATOM      8  C   UNL d   1      -1.837 -10.154   9.589 -0.22 +0.01    +0.066 A 
DOCKED: ATOM      9  C   UNL d   1      -0.589 -10.597   7.327 -0.13 +0.01    +0.051 C 
DOCKED: ATOM     10  C   UNL d   1      -1.081  -8.548  11.354 -0.24 +0.01    +0.066 A 
DOCKED: ATOM     11  C   UNL d   1      -0.258  -7.480  11.728 -0.28 -0.00    -0.021 A 
DOCKED: ATOM     12  C   UNL d   1      -0.689  -7.068  12.975 -0.26 +0.00    +0.000 A 
DOCKED: ATOM     13  C   UNL d   1      -1.766  -7.936  13.305 -0.19 +0.01    +0.070 A 
DOCKED: ATOM     14  C   UNL d   1       0.874  -6.860  10.916 -0.29 +0.00    +0.052 C 
DOCKED: ATOM     15  C   UNL d   1      -3.562  -8.773  14.812 -0.12 +0.02    +0.066 A 
DOCKED: ATOM     16  C   UNL d   1      -4.168  -8.777  16.068 -0.14 -0.00    -0.021 A 
DOCKED: ATOM     17  C   UNL d   1      -5.177  -9.738  16.016 -0.13 +0.00    +0.000 A 
DOCKED: ATOM     18  C   UNL d   1      -5.112 -10.254  14.714 -0.10 +0.04    +0.070 A 
DOCKED: ATOM     19  C   UNL d   1      -3.699  -7.912  17.211 -0.09 +0.00    +0.052 C 
DOCKED: ATOM     20  C   UNL d   1      -5.955 -11.835  12.929 -0.21 +0.03    +0.066 A 
DOCKED: ATOM     21  C   UNL d   1      -6.847 -12.792  12.455 -0.29 -0.01    -0.025 A 
DOCKED: ATOM     22  C   UNL d   1      -6.493 -13.042  11.148 -0.27 -0.01    -0.021 A 
DOCKED: ATOM     23  C   UNL d   1      -5.382 -12.237  10.877 -0.21 +0.03    +0.066 A 
DOCKED: ATOM     24  C   UNL d   1      -7.978 -13.439  13.212 -0.31 +0.03    +0.051 C 
DOCKED: ATOM     25  N   UNL d   1      -2.932 -10.661  10.249 -0.12 -0.07    -0.248 N 
DOCKED: ATOM     26  N   UNL d   1      -1.995  -8.836  12.316 -0.13 -0.05    -0.248 N 
DOCKED: ATOM     27  N   UNL d   1      -4.078  -9.710  14.022 -0.08 -0.11    -0.248 N 
DOCKED: ATOM     28  N   UNL d   1      -5.031 -11.539  11.976 -0.12 -0.11    -0.248 N 
DOCKED: ATOM     29 FE   UNL d   1      -3.525 -10.197  12.148 -0.05 +0.00    +0.000 Fe
DOCKED: ATOM     30  O   UNL d   1      -2.203 -11.017  12.084 -0.10 +0.00    +0.000 OA
DOCKED: ATOM     31  O   UNL d   1      -3.266 -11.334  13.203 -0.09 +0.00    +0.000 OA
DOCKED: ENDROOT
DOCKED: BRANCH   6  32
DOCKED: ATOM     32  C   UNL d   1      -3.019 -12.499   7.018 -0.25 +0.02    +0.052 C 
DOCKED: BRANCH  32  33
DOCKED: ATOM     33  C   UNL d   1      -4.364 -12.271   6.336 -0.32 +0.06    +0.115 C 
DOCKED: BRANCH  33  34
DOCKED: ATOM     34  C   UNL d   1      -5.110 -13.559   6.091 -0.24 +0.13    +0.139 C 
DOCKED: ATOM     35  O   UNL d   1      -6.326 -13.583   6.203 -0.05 -0.91    -0.650 OA
DOCKED: BRANCH  34  36
DOCKED: ATOM     36  O   UNL d   1      -4.461 -14.699   5.776 +0.01 -0.78    -0.776 OA
DOCKED: ATOM     37  H   UNL d   1      -4.244 -15.363   6.440 +0.04 +0.15    +0.167 HD
DOCKED: ENDBRANCH  34  36
DOCKED: ENDBRANCH  33  34
DOCKED: ENDBRANCH  32  33
DOCKED: ENDBRANCH   6  32
DOCKED: BRANCH  22  38
DOCKED: ATOM     38  C   UNL d   1      -7.150 -14.046  10.236 +0.30 +0.04    +0.052 C 
DOCKED: BRANCH  38  39
DOCKED: ATOM     39  C   UNL d   1      -6.562 -15.446  10.393 -0.13 +0.09    +0.115 C 
DOCKED: BRANCH  39  40
DOCKED: ATOM     40  C   UNL d   1      -6.392 -16.151   9.070 -0.14 +0.17    +0.139 C 
DOCKED: ATOM     41  O   UNL d   1      -7.159 -17.049   8.759 -0.41 -1.34    -0.650 OA
DOCKED: BRANCH  40  42
DOCKED: ATOM     42  O   UNL d   1      -5.438 -15.774   8.198 +0.03 -0.78    -0.776 OA
DOCKED: ATOM     43  H   UNL d   1      -5.645 -15.240   7.422 +0.05 +0.21    +0.167 HD
DOCKED: ENDBRANCH  40  42
DOCKED: ENDBRANCH  39  40
DOCKED: ENDBRANCH  38  39
DOCKED: ENDBRANCH  22  38
DOCKED: BRANCH  12  44
DOCKED: ATOM     44  C   UNL d   1      -0.039  -5.915  13.710 -0.36 +0.00    +0.004 C 
DOCKED: ATOM     45  C   UNL d   1      -0.521  -5.226  14.744 -0.36 -0.00    +0.012 C 
DOCKED: ENDBRANCH  12  44
DOCKED: BRANCH  17  46
DOCKED: ATOM     46  C   UNL d   1      -6.126 -10.233  17.074 -0.11 +0.00    +0.004 C 
DOCKED: ATOM     47  C   UNL d   1      -7.454 -10.072  17.138 -0.17 +0.00    +0.012 C 
DOCKED: ENDBRANCH  17  46
DOCKED: TORSDOF 10
DOCKED: TER
DOCKED: ENDMDL
________________________________________________________________________________


	BEGINNING GENETIC ALGORITHM DOCKING 4 of 100
Run: 4 Seed: 2047037257 371246895 [ Run 4 of 100 GA/GALS ]
Beginning LAMARCKIAN GENETIC ALGORITHM (LGA), with a maximum of 25000000 energy evaluations.

Final-Value: -20.181


	FINAL GENETIC ALGORITHM DOCKED STATE
	_______________________________________________


Detailed state:  trans 0.263 -1.531 -8.553 quatxyzw 0.283456 0.271653 0.205621 0.896425 center 8.287 34.468 -0.670 ntor 10 111.1807 -135.1722 23.9366 15.5177 166.1270 -167.7674 -32.8243 52.8363 -151.8266 179.5181
State:	  0.263  -1.531  -8.553   0.640  0.613  0.464 52.616    111.18 -135.17   23.94   15.52  166.13 -167.77  -32.82   52.84 -151.83  179.52

DOCKED: MODEL        4
DOCKED: USER    Run = 4
DOCKED: USER    DPF = D:/Protein_go_brrr/autodock/final/AncB/heme_O2/dock.dpf
DOCKED: USER  
DOCKED: USER    Estimated Free Energy of Binding    =  -15.25 kcal/mol  [=(1)+(2)+(3)-(4)]
DOCKED: USER    Estimated Inhibition Constant, Ki   =    6.60 pM (picomolar)  [Temperature = 298.15 K]
DOCKED: USER    
DOCKED: USER    (1) Final Intermolecular Energy     =  -18.24 kcal/mol
DOCKED: USER        vdW + Hbond + desolv Energy     =  -15.26 kcal/mol
DOCKED: USER        Electrostatic Energy            =   -2.98 kcal/mol
DOCKED: USER    (2) Final Total Internal Energy     =   -1.95 kcal/mol
DOCKED: USER    (3) Torsional Free Energy           =   +2.98 kcal/mol
DOCKED: USER    (4) Unbound System's Energy  [=(2)] =   -1.95 kcal/mol
DOCKED: USER    
DOCKED: USER    
DOCKED: USER    NEWDPF move heme_O2_opt.pdbqt
DOCKED: USER    NEWDPF about 8.287000 34.468000 -0.670000
DOCKED: USER    NEWDPF tran0 0.262690 -1.530910 -8.553068
DOCKED: USER    NEWDPF quaternion0 0.283456 0.271653 0.205621 0.896425
DOCKED: USER    NEWDPF axisangle0 0.639573 0.612940 0.463951 52.615939
DOCKED: USER    NEWDPF quat0 0.639573 0.612940 0.463951 52.615939
DOCKED: USER    NEWDPF dihe0 111.18 -135.17 23.94 15.52 166.13 -167.77 -32.82 52.84 -151.83 179.52 
DOCKED: USER  keepresnum = 1 
DOCKED: USER  
DOCKED: REMARK  10 active torsions:
DOCKED: REMARK  status: ('A' for Active; 'I' for Inactive)
DOCKED: REMARK    1  A    between atoms: C_6  and  C_10 
DOCKED: REMARK    2  A    between atoms: C_10  and  C_11 
DOCKED: REMARK    3  A    between atoms: C_11  and  C_12 
DOCKED: REMARK    4  A    between atoms: C_12  and  O_14 
DOCKED: REMARK    5  A    between atoms: C_17  and  C_20 
DOCKED: REMARK    6  A    between atoms: C_24  and  C_27 
DOCKED: REMARK    7  A    between atoms: C_31  and  C_34 
DOCKED: REMARK    8  A    between atoms: C_34  and  C_35 
DOCKED: REMARK    9  A    between atoms: C_35  and  C_36 
DOCKED: REMARK   10  A    between atoms: C_36  and  O_38 
DOCKED: USER                              x       y       z     vdW  Elec       q    Type
DOCKED: USER                           _______ _______ _______ _____ _____    ______ ____
DOCKED: ROOT
DOCKED: ATOM      1  C   UNL d   1      -0.562  -1.171 -10.474 -0.22 +0.04    +0.064 A 
DOCKED: ATOM      2  C   UNL d   1      -2.459  -1.183  -6.119 -0.42 +0.02    +0.064 A 
DOCKED: ATOM      3  C   UNL d   1       1.779  -2.354  -4.177 -0.33 +0.01    +0.064 C 
DOCKED: ATOM      4  C   UNL d   1       3.846  -1.876  -8.600 -0.39 +0.02    +0.064 A 
DOCKED: ATOM      5  C   UNL d   1      -1.423  -1.077  -9.448 -0.30 +0.04    +0.066 A 
DOCKED: ATOM      6  C   UNL d   1      -2.781  -0.776  -9.590 -0.32 -0.01    -0.021 A 
DOCKED: ATOM      7  C   UNL d   1      -3.322  -0.737  -8.326 -0.36 -0.01    -0.025 A 
DOCKED: ATOM      8  C   UNL d   1      -2.290  -1.063  -7.450 -0.37 +0.02    +0.066 A 
DOCKED: ATOM      9  C   UNL d   1      -4.755  -0.371  -8.009 -0.39 +0.02    +0.051 C 
DOCKED: ATOM     10  C   UNL d   1      -1.420  -1.545  -5.153 -0.40 +0.02    +0.066 A 
DOCKED: ATOM     11  C   UNL d   1      -1.684  -1.816  -3.806 -0.46 -0.00    -0.021 A 
DOCKED: ATOM     12  C   UNL d   1      -0.477  -2.173  -3.233 -0.43 +0.00    +0.000 A 
DOCKED: ATOM     13  C   UNL d   1       0.477  -2.085  -4.284 -0.38 +0.01    +0.070 A 
DOCKED: ATOM     14  C   UNL d   1      -3.035  -1.764  -3.101 -0.63 +0.01    +0.052 C 
DOCKED: ATOM     15  C   UNL d   1       2.783  -2.243  -5.207 -0.40 +0.01    +0.066 A 
DOCKED: ATOM     16  C   UNL d   1       4.154  -2.380  -4.992 -0.52 -0.00    -0.021 A 
DOCKED: ATOM     17  C   UNL d   1       4.764  -2.247  -6.239 -0.52 +0.00    +0.000 A 
DOCKED: ATOM     18  C   UNL d   1       3.705  -2.038  -7.134 -0.42 +0.02    +0.070 A 
DOCKED: ATOM     19  C   UNL d   1       4.757  -2.569  -3.623 -0.25 +0.00    +0.052 C 
DOCKED: ATOM     20  C   UNL d   1       2.857  -1.631  -9.481 -0.42 +0.02    +0.066 A 
DOCKED: ATOM     21  C   UNL d   1       3.048  -1.506 -10.854 -0.46 -0.01    -0.025 A 
DOCKED: ATOM     22  C   UNL d   1       1.799  -1.332 -11.407 -0.23 -0.01    -0.021 A 
DOCKED: ATOM     23  C   UNL d   1       0.890  -1.339 -10.345 -0.15 +0.03    +0.066 A 
DOCKED: ATOM     24  C   UNL d   1       4.356  -1.546 -11.601 -0.49 +0.01    +0.051 C 
DOCKED: ATOM     25  N   UNL d   1      -1.106  -1.208  -8.136 -0.22 -0.11    -0.248 N 
DOCKED: ATOM     26  N   UNL d   1      -0.104  -1.698  -5.447 -0.26 -0.06    -0.248 N 
DOCKED: ATOM     27  N   UNL d   1       2.518  -1.964  -6.480 -0.24 -0.07    -0.248 N 
DOCKED: ATOM     28  N   UNL d   1       1.542  -1.476  -9.172 -0.05 -0.14    -0.248 N 
DOCKED: ATOM     29 FE   UNL d   1       0.728  -1.586  -7.322 -0.09 +0.00    +0.000 Fe
DOCKED: ATOM     30  O   UNL d   1       0.180  -0.165  -7.003 -0.17 +0.00    +0.000 OA
DOCKED: ATOM     31  O   UNL d   1       1.708  -0.357  -7.333 -1.03 +0.00    +0.000 OA
DOCKED: ENDROOT
DOCKED: BRANCH   6  32
DOCKED: ATOM     32  C   UNL d   1      -3.516  -0.404 -10.851 -0.27 +0.05    +0.052 C 
DOCKED: BRANCH  32  33
DOCKED: ATOM     33  C   UNL d   1      -3.097   0.956 -11.401 -0.22 +0.12    +0.115 C 
DOCKED: BRANCH  33  34
DOCKED: ATOM     34  C   UNL d   1      -3.105   0.994 -12.910 -0.19 +0.21    +0.139 C 
DOCKED: ATOM     35  O   UNL d   1      -3.680   0.115 -13.532 +0.01 -1.25    -0.650 OA
DOCKED: BRANCH  34  36
DOCKED: ATOM     36  O   UNL d   1      -2.465   1.966 -13.592 -0.13 -1.35    -0.776 OA
DOCKED: ATOM     37  H   UNL d   1      -1.681   1.786 -14.123 +0.04 +0.24    +0.167 HD
DOCKED: ENDBRANCH  34  36
DOCKED: ENDBRANCH  33  34
DOCKED: ENDBRANCH  32  33
DOCKED: ENDBRANCH   6  32
DOCKED: BRANCH  22  38
DOCKED: ATOM     38  C   UNL d   1       1.509  -1.106 -12.869 -0.28 +0.03    +0.052 C 
DOCKED: BRANCH  38  39
DOCKED: ATOM     39  C   UNL d   1       1.782   0.333 -13.301 -0.21 +0.06    +0.115 C 
DOCKED: BRANCH  39  40
DOCKED: ATOM     40  C   UNL d   1       0.611   0.949 -14.024 -0.17 +0.10    +0.139 C 
DOCKED: ATOM     41  O   UNL d   1      -0.209   0.231 -14.573 +0.02 -0.60    -0.650 OA
DOCKED: BRANCH  40  42
DOCKED: ATOM     42  O   UNL d   1       0.423   2.283 -14.034 -0.07 -0.66    -0.776 OA
DOCKED: ATOM     43  H   UNL d   1      -0.438   2.673 -13.841 +0.05 +0.20    +0.167 HD
DOCKED: ENDBRANCH  40  42
DOCKED: ENDBRANCH  39  40
DOCKED: ENDBRANCH  38  39
DOCKED: ENDBRANCH  22  38
DOCKED: BRANCH  12  44
DOCKED: ATOM     44  C   UNL d   1      -0.362  -2.550  -1.771 -0.56 +0.00    +0.004 C 
DOCKED: ATOM     45  C   UNL d   1       0.734  -2.565  -1.013 -0.63 +0.00    +0.012 C 
DOCKED: ENDBRANCH  12  44
DOCKED: BRANCH  17  46
DOCKED: ATOM     46  C   UNL d   1       6.217  -2.242  -6.633 -0.68 +0.00    +0.004 C 
DOCKED: ATOM     47  C   UNL d   1       7.283  -2.530  -5.874 -0.66 +0.00    +0.012 C 
DOCKED: ENDBRANCH  17  46
DOCKED: TORSDOF 10
DOCKED: TER
DOCKED: ENDMDL
________________________________________________________________________________


	BEGINNING GENETIC ALGORITHM DOCKING 5 of 100
Run: 5 Seed: 152906099 850574695 [ Run 5 of 100 GA/GALS ]
Beginning LAMARCKIAN GENETIC ALGORITHM (LGA), with a maximum of 25000000 energy evaluations.

Final-Value: -11.020


	FINAL GENETIC ALGORITHM DOCKED STATE
	_______________________________________________


Detailed state:  trans -1.641 -14.343 7.311 quatxyzw -0.589110 -0.056480 0.357060 -0.722681 center 8.287 34.468 -0.670 ntor 10 100.3136 6.0541 118.6975 -75.8591 -99.6320 -53.5543 -88.3578 -128.6234 -179.2623 143.6561
State:	 -1.641 -14.343   7.311  -0.852 -0.082  0.517 -87.447    100.31    6.05  118.70  -75.86  -99.63  -53.55  -88.36 -128.62 -179.26  143.66

DOCKED: MODEL        5
DOCKED: USER    Run = 5
DOCKED: USER    DPF = D:/Protein_go_brrr/autodock/final/AncB/heme_O2/dock.dpf
DOCKED: USER  
DOCKED: USER    Estimated Free Energy of Binding    =   -6.35 kcal/mol  [=(1)+(2)+(3)-(4)]
DOCKED: USER    Estimated Inhibition Constant, Ki   =   22.18 uM (micromolar)  [Temperature = 298.15 K]
DOCKED: USER    
DOCKED: USER    (1) Final Intermolecular Energy     =   -9.33 kcal/mol
DOCKED: USER        vdW + Hbond + desolv Energy     =   -5.29 kcal/mol
DOCKED: USER        Electrostatic Energy            =   -4.05 kcal/mol
DOCKED: USER    (2) Final Total Internal Energy     =   -1.69 kcal/mol
DOCKED: USER    (3) Torsional Free Energy           =   +2.98 kcal/mol
DOCKED: USER    (4) Unbound System's Energy  [=(2)] =   -1.69 kcal/mol
DOCKED: USER    
DOCKED: USER    
DOCKED: USER    NEWDPF move heme_O2_opt.pdbqt
DOCKED: USER    NEWDPF about 8.287000 34.468000 -0.670000
DOCKED: USER    NEWDPF tran0 -1.641440 -14.343029 7.310938
DOCKED: USER    NEWDPF quaternion0 -0.589110 -0.056480 0.357060 -0.722681
DOCKED: USER    NEWDPF axisangle0 -0.852323 -0.081716 0.516593 -87.447421
DOCKED: USER    NEWDPF quat0 -0.852323 -0.081716 0.516593 -87.447421
DOCKED: USER    NEWDPF dihe0 100.31 6.05 118.70 -75.86 -99.63 -53.55 -88.36 -128.62 -179.26 143.66 
DOCKED: USER  keepresnum = 1 
DOCKED: USER  
DOCKED: REMARK  10 active torsions:
DOCKED: REMARK  status: ('A' for Active; 'I' for Inactive)
DOCKED: REMARK    1  A    between atoms: C_6  and  C_10 
DOCKED: REMARK    2  A    between atoms: C_10  and  C_11 
DOCKED: REMARK    3  A    between atoms: C_11  and  C_12 
DOCKED: REMARK    4  A    between atoms: C_12  and  O_14 
DOCKED: REMARK    5  A    between atoms: C_17  and  C_20 
DOCKED: REMARK    6  A    between atoms: C_24  and  C_27 
DOCKED: REMARK    7  A    between atoms: C_31  and  C_34 
DOCKED: REMARK    8  A    between atoms: C_34  and  C_35 
DOCKED: REMARK    9  A    between atoms: C_35  and  C_36 
DOCKED: REMARK   10  A    between atoms: C_36  and  O_38 
DOCKED: USER                              x       y       z     vdW  Elec       q    Type
DOCKED: USER                           _______ _______ _______ _____ _____    ______ ____
DOCKED: ROOT
DOCKED: ATOM      1  C   UNL d   1      -2.891 -16.051   7.168 -0.01 +0.03    +0.064 A 
DOCKED: ATOM      2  C   UNL d   1      -2.660 -12.498  10.312 -0.06 +0.02    +0.064 A 
DOCKED: ATOM      3  C   UNL d   1       1.021 -10.517   7.941 -0.09 +0.01    +0.064 C 
DOCKED: ATOM      4  C   UNL d   1       0.482 -13.907   4.437 -0.06 +0.02    +0.064 A 
DOCKED: ATOM      5  C   UNL d   1      -3.130 -15.245   8.216 -0.01 +0.03    +0.066 A 
DOCKED: ATOM      6  C   UNL d   1      -4.117 -15.483   9.177 -0.03 -0.01    -0.021 A 
DOCKED: ATOM      7  C   UNL d   1      -4.079 -14.432  10.064 -0.04 -0.01    -0.025 A 
DOCKED: ATOM      8  C   UNL d   1      -3.039 -13.607   9.647 -0.04 +0.02    +0.066 A 
DOCKED: ATOM      9  C   UNL d   1      -5.031 -14.246  11.226 -0.09 +0.02    +0.051 C 
DOCKED: ATOM     10  C   UNL d   1      -1.562 -11.606   9.937 -0.09 +0.01    +0.066 A 
DOCKED: ATOM     11  C   UNL d   1      -1.106 -10.562  10.750 -0.12 -0.00    -0.021 A 
DOCKED: ATOM     12  C   UNL d   1      -0.034  -9.990  10.092 -0.11 +0.00    +0.000 A 
DOCKED: ATOM     13  C   UNL d   1       0.100 -10.726   8.881 -0.09 +0.01    +0.070 A 
DOCKED: ATOM     14  C   UNL d   1      -1.654 -10.146  12.110 -0.13 +0.01    +0.052 C 
DOCKED: ATOM     15  C   UNL d   1       1.167 -11.216   6.687 -0.16 +0.01    +0.066 A 
DOCKED: ATOM     16  C   UNL d   1       2.048 -10.843   5.672 -0.19 -0.00    -0.021 A 
DOCKED: ATOM     17  C   UNL d   1       1.911 -11.795   4.662 -0.19 +0.00    +0.000 A 
DOCKED: ATOM     18  C   UNL d   1       0.946 -12.690   5.144 -0.15 +0.02    +0.070 A 
DOCKED: ATOM     19  C   UNL d   1       2.892  -9.594   5.733 -0.25 +0.01    +0.052 C 
DOCKED: ATOM     20  C   UNL d   1      -0.473 -14.763   4.850 -0.00 +0.03    +0.066 A 
DOCKED: ATOM     21  C   UNL d   1      -0.855 -15.903   4.149 -0.06 -0.01    -0.025 A 
DOCKED: ATOM     22  C   UNL d   1      -1.796 -16.541   4.925 -0.05 -0.01    -0.021 A 
DOCKED: ATOM     23  C   UNL d   1      -1.967 -15.754   6.068 -0.05 +0.03    +0.066 A 
DOCKED: ATOM     24  C   UNL d   1      -0.350 -16.359   2.804 -0.11 +0.02    +0.051 C 
DOCKED: ATOM     25  N   UNL d   1      -2.497 -14.074   8.472 -0.01 -0.09    -0.248 N 
DOCKED: ATOM     26  N   UNL d   1      -0.837 -11.704   8.793 -0.06 -0.05    -0.248 N 
DOCKED: ATOM     27  N   UNL d   1       0.451 -12.282   6.340 -0.10 -0.05    -0.248 N 
DOCKED: ATOM     28  N   UNL d   1      -1.194 -14.651   5.997 -0.06 -0.08    -0.248 N 
DOCKED: ATOM     29 FE   UNL d   1      -1.015 -13.187   7.383 -0.02 +0.00    +0.000 Fe
DOCKED: ATOM     30  O   UNL d   1      -2.361 -12.405   7.366 -0.23 +0.00    +0.000 OA
DOCKED: ATOM     31  O   UNL d   1      -1.505 -12.515   6.048 -0.20 +0.00    +0.000 OA
DOCKED: ENDROOT
DOCKED: BRANCH   6  32
DOCKED: ATOM     32  C   UNL d   1      -5.148 -16.581   9.190 -0.05 +0.04    +0.052 C 
DOCKED: BRANCH  32  33
DOCKED: ATOM     33  C   UNL d   1      -6.485 -16.144   8.599 -0.15 +0.17    +0.115 C 
DOCKED: BRANCH  33  34
DOCKED: ATOM     34  C   UNL d   1      -6.561 -16.379   7.111 -0.06 +0.28    +0.139 C 
DOCKED: ATOM     35  O   UNL d   1      -7.289 -17.256   6.674 -0.25 -1.62    -0.650 OA
DOCKED: BRANCH  34  36
DOCKED: ATOM     36  O   UNL d   1      -5.817 -15.657   6.246 -0.45 -1.61    -0.776 OA
DOCKED: ATOM     37  H   UNL d   1      -5.004 -16.002   5.860 +0.04 +0.27    +0.167 HD
DOCKED: ENDBRANCH  34  36
DOCKED: ENDBRANCH  33  34
DOCKED: ENDBRANCH  32  33
DOCKED: ENDBRANCH   6  32
DOCKED: BRANCH  22  38
DOCKED: ATOM     38  C   UNL d   1      -2.533 -17.802   4.554 -0.03 +0.03    +0.052 C 
DOCKED: BRANCH  38  39
DOCKED: ATOM     39  C   UNL d   1      -4.030 -17.568   4.368 -0.08 +0.12    +0.115 C 
DOCKED: BRANCH  39  40
DOCKED: ATOM     40  C   UNL d   1      -4.322 -16.405   3.453 -0.20 +0.20    +0.139 C 
DOCKED: ATOM     41  O   UNL d   1      -4.457 -16.596   2.255 -0.17 -1.06    -0.650 OA
DOCKED: BRANCH  40  42
DOCKED: ATOM     42  O   UNL d   1      -4.489 -15.161   3.941 +0.03 -1.03    -0.776 OA
DOCKED: ATOM     43  H   UNL d   1      -4.304 -14.952   4.864 -0.03 +0.18    +0.167 HD
DOCKED: ENDBRANCH  40  42
DOCKED: ENDBRANCH  39  40
DOCKED: ENDBRANCH  38  39
DOCKED: ENDBRANCH  22  38
DOCKED: BRANCH  12  44
DOCKED: ATOM     44  C   UNL d   1       0.736  -8.822  10.672 -0.12 +0.00    +0.004 C 
DOCKED: ATOM     45  C   UNL d   1       0.299  -7.583  10.894 -0.23 +0.00    +0.012 C 
DOCKED: ENDBRANCH  12  44
DOCKED: BRANCH  17  46
DOCKED: ATOM     46  C   UNL d   1       2.552 -11.892   3.303 -0.25 +0.00    +0.004 C 
DOCKED: ATOM     47  C   UNL d   1       2.186 -11.281   2.169 -0.42 +0.00    +0.012 C 
DOCKED: ENDBRANCH  17  46
DOCKED: TORSDOF 10
DOCKED: TER
DOCKED: ENDMDL
________________________________________________________________________________


	BEGINNING GENETIC ALGORITHM DOCKING 6 of 100
Run: 6 Seed: 683431028 293577071 [ Run 6 of 100 GA/GALS ]
Beginning LAMARCKIAN GENETIC ALGORITHM (LGA), with a maximum of 25000000 energy evaluations.

Final-Value: -20.494


	FINAL GENETIC ALGORITHM DOCKED STATE
	_______________________________________________


Detailed state:  trans 0.212 -1.566 -8.674 quatxyzw -0.279322 -0.311067 -0.225341 -0.880022 center 8.287 34.468 -0.670 ntor 10 -60.1790 175.6808 22.5427 9.0167 -91.2072 9.4747 -16.1862 60.4931 -146.6717 -180.0000
State:	  0.212  -1.566  -8.674  -0.588 -0.655 -0.474 -56.710    -60.18  175.68   22.54    9.02  -91.21    9.47  -16.19   60.49 -146.67 -180.00

DOCKED: MODEL        6
DOCKED: USER    Run = 6
DOCKED: USER    DPF = D:/Protein_go_brrr/autodock/final/AncB/heme_O2/dock.dpf
DOCKED: USER  
DOCKED: USER    Estimated Free Energy of Binding    =  -16.00 kcal/mol  [=(1)+(2)+(3)-(4)]
DOCKED: USER    Estimated Inhibition Constant, Ki   =    1.88 pM (picomolar)  [Temperature = 298.15 K]
DOCKED: USER    
DOCKED: USER    (1) Final Intermolecular Energy     =  -18.98 kcal/mol
DOCKED: USER        vdW + Hbond + desolv Energy     =  -15.97 kcal/mol
DOCKED: USER        Electrostatic Energy            =   -3.01 kcal/mol
DOCKED: USER    (2) Final Total Internal Energy     =   -1.51 kcal/mol
DOCKED: USER    (3) Torsional Free Energy           =   +2.98 kcal/mol
DOCKED: USER    (4) Unbound System's Energy  [=(2)] =   -1.51 kcal/mol
DOCKED: USER    
DOCKED: USER    
DOCKED: USER    NEWDPF move heme_O2_opt.pdbqt
DOCKED: USER    NEWDPF about 8.287000 34.468000 -0.670000
DOCKED: USER    NEWDPF tran0 0.212277 -1.565879 -8.673764
DOCKED: USER    NEWDPF quaternion0 -0.279322 -0.311067 -0.225341 -0.880022
DOCKED: USER    NEWDPF axisangle0 -0.588129 -0.654969 -0.474467 -56.710075
DOCKED: USER    NEWDPF quat0 -0.588129 -0.654969 -0.474467 -56.710075
DOCKED: USER    NEWDPF dihe0 -60.18 175.68 22.54 9.02 -91.21 9.47 -16.19 60.49 -146.67 -180.00 
DOCKED: USER  keepresnum = 1 
DOCKED: USER  
DOCKED: REMARK  10 active torsions:
DOCKED: REMARK  status: ('A' for Active; 'I' for Inactive)
DOCKED: REMARK    1  A    between atoms: C_6  and  C_10 
DOCKED: REMARK    2  A    between atoms: C_10  and  C_11 
DOCKED: REMARK    3  A    between atoms: C_11  and  C_12 
DOCKED: REMARK    4  A    between atoms: C_12  and  O_14 
DOCKED: REMARK    5  A    between atoms: C_17  and  C_20 
DOCKED: REMARK    6  A    between atoms: C_24  and  C_27 
DOCKED: REMARK    7  A    between atoms: C_31  and  C_34 
DOCKED: REMARK    8  A    between atoms: C_34  and  C_35 
DOCKED: REMARK    9  A    between atoms: C_35  and  C_36 
DOCKED: REMARK   10  A    between atoms: C_36  and  O_38 
DOCKED: USER                              x       y       z     vdW  Elec       q    Type
DOCKED: USER                           _______ _______ _______ _____ _____    ______ ____
DOCKED: ROOT
DOCKED: ATOM      1  C   UNL d   1      -0.425  -1.208 -10.665 -0.26 +0.04    +0.064 A 
DOCKED: ATOM      2  C   UNL d   1      -2.715  -1.152  -6.504 -0.38 +0.02    +0.064 A 
DOCKED: ATOM      3  C   UNL d   1       1.303  -2.379  -4.171 -0.40 +0.01    +0.064 C 
DOCKED: ATOM      4  C   UNL d   1       3.778  -1.973  -8.387 -0.42 +0.02    +0.064 A 
DOCKED: ATOM      5  C   UNL d   1      -1.376  -1.091  -9.723 -0.30 +0.04    +0.066 A 
DOCKED: ATOM      6  C   UNL d   1      -2.709  -0.768  -9.993 -0.32 -0.02    -0.021 A 
DOCKED: ATOM      7  C   UNL d   1      -3.363  -0.709  -8.785 -0.33 -0.01    -0.025 A 
DOCKED: ATOM      8  C   UNL d   1      -2.423  -1.045  -7.815 -0.36 +0.03    +0.066 A 
DOCKED: ATOM      9  C   UNL d   1      -4.813  -0.316  -8.604 -0.36 +0.02    +0.051 C 
DOCKED: ATOM     10  C   UNL d   1      -1.777  -1.523  -5.444 -0.41 +0.02    +0.066 A 
DOCKED: ATOM     11  C   UNL d   1      -2.169  -1.779  -4.125 -0.49 -0.00    -0.021 A 
DOCKED: ATOM     12  C   UNL d   1      -1.027  -2.152  -3.441 -0.43 +0.00    +0.000 A 
DOCKED: ATOM     13  C   UNL d   1       0.022  -2.089  -4.399 -0.40 +0.01    +0.070 A 
DOCKED: ATOM     14  C   UNL d   1      -3.578  -1.698  -3.549 -0.58 +0.01    +0.052 C 
DOCKED: ATOM     15  C   UNL d   1       2.400  -2.294  -5.105 -0.38 +0.01    +0.066 A 
DOCKED: ATOM     16  C   UNL d   1       3.743  -2.453  -4.763 -0.51 -0.00    -0.021 A 
DOCKED: ATOM     17  C   UNL d   1       4.468  -2.340  -5.949 -0.51 +0.00    +0.000 A 
DOCKED: ATOM     18  C   UNL d   1       3.500  -2.120  -6.939 -0.42 +0.02    +0.070 A 
DOCKED: ATOM     19  C   UNL d   1       4.213  -2.640  -3.342 -0.45 +0.00    +0.052 C 
DOCKED: ATOM     20  C   UNL d   1       2.878  -1.718  -9.357 -0.43 +0.02    +0.066 A 
DOCKED: ATOM     21  C   UNL d   1       3.198  -1.607 -10.708 -0.47 -0.01    -0.025 A 
DOCKED: ATOM     22  C   UNL d   1       2.009  -1.416 -11.375 -0.23 -0.01    -0.021 A 
DOCKED: ATOM     23  C   UNL d   1       1.006  -1.400 -10.401 -0.17 +0.03    +0.066 A 
DOCKED: ATOM     24  C   UNL d   1       4.569  -1.676 -11.330 -0.40 +0.01    +0.051 C 
DOCKED: ATOM     25  N   UNL d   1      -1.184  -1.216  -8.387 -0.21 -0.12    -0.248 N 
DOCKED: ATOM     26  N   UNL d   1      -0.442  -1.701  -5.614 -0.25 -0.06    -0.248 N 
DOCKED: ATOM     27  N   UNL d   1       2.259  -2.021  -6.398 -0.24 -0.07    -0.248 N 
DOCKED: ATOM     28  N   UNL d   1       1.544  -1.538  -9.172 -0.01 -0.14    -0.248 N 
DOCKED: ATOM     29 FE   UNL d   1       0.561  -1.619  -7.405 -0.09 +0.00    +0.000 Fe
DOCKED: ATOM     30  O   UNL d   1       0.011  -0.186  -7.147 -0.32 +0.00    +0.000 OA
DOCKED: ATOM     31  O   UNL d   1       1.560  -0.407  -7.334 -1.07 +0.00    +0.000 OA
DOCKED: ENDROOT
DOCKED: BRANCH   6  32
DOCKED: ATOM     32  C   UNL d   1      -3.318  -0.393 -11.319 -0.26 +0.07    +0.052 C 
DOCKED: BRANCH  32  33
DOCKED: ATOM     33  C   UNL d   1      -2.734   0.893 -11.897 -0.24 +0.13    +0.115 C 
DOCKED: BRANCH  33  34
DOCKED: ATOM     34  C   UNL d   1      -2.998   1.031 -13.376 -0.18 +0.22    +0.139 C 
DOCKED: ATOM     35  O   UNL d   1      -3.666   1.967 -13.784 -0.36 -1.34    -0.650 OA
DOCKED: BRANCH  34  36
DOCKED: ATOM     36  O   UNL d   1      -2.535   0.124 -14.260 -0.23 -1.45    -0.776 OA
DOCKED: ATOM     37  H   UNL d   1      -1.594  -0.058 -14.361 +0.03 +0.26    +0.167 HD
DOCKED: ENDBRANCH  34  36
DOCKED: ENDBRANCH  33  34
DOCKED: ENDBRANCH  32  33
DOCKED: ENDBRANCH   6  32
DOCKED: BRANCH  22  38
DOCKED: ATOM     38  C   UNL d   1       1.859  -1.198 -12.859 -0.30 +0.02    +0.052 C 
DOCKED: BRANCH  38  39
DOCKED: ATOM     39  C   UNL d   1       2.208   0.229 -13.275 -0.28 +0.05    +0.115 C 
DOCKED: BRANCH  39  40
DOCKED: ATOM     40  C   UNL d   1       1.054   0.932 -13.946 -0.17 +0.09    +0.139 C 
DOCKED: ATOM     41  O   UNL d   1       0.983   2.150 -13.910 -0.05 -0.46    -0.650 OA
DOCKED: BRANCH  40  42
DOCKED: ATOM     42  O   UNL d   1       0.123   0.241 -14.632 +0.07 -0.65    -0.776 OA
DOCKED: ATOM     43  H   UNL d   1      -0.629   0.682 -15.045 +0.04 +0.16    +0.167 HD
DOCKED: ENDBRANCH  40  42
DOCKED: ENDBRANCH  39  40
DOCKED: ENDBRANCH  38  39
DOCKED: ENDBRANCH  22  38
DOCKED: BRANCH  12  44
DOCKED: ATOM     44  C   UNL d   1      -1.054  -2.519  -1.972 -0.49 +0.00    +0.004 C 
DOCKED: ATOM     45  C   UNL d   1      -0.029  -2.570  -1.122 -0.61 +0.00    +0.012 C 
DOCKED: ENDBRANCH  12  44
DOCKED: BRANCH  17  46
DOCKED: ATOM     46  C   UNL d   1       5.951  -2.364  -6.207 -0.66 +0.00    +0.004 C 
DOCKED: ATOM     47  C   UNL d   1       6.942  -2.547  -5.326 -0.65 +0.00    +0.012 C 
DOCKED: ENDBRANCH  17  46
DOCKED: TORSDOF 10
DOCKED: TER
DOCKED: ENDMDL
________________________________________________________________________________


	BEGINNING GENETIC ALGORITHM DOCKING 7 of 100
Run: 7 Seed: 980837632 1242224153 [ Run 7 of 100 GA/GALS ]
Beginning LAMARCKIAN GENETIC ALGORITHM (LGA), with a maximum of 25000000 energy evaluations.

Final-Value: -19.670


	FINAL GENETIC ALGORITHM DOCKED STATE
	_______________________________________________


Detailed state:  trans 0.223 -1.548 -8.684 quatxyzw -0.276173 -0.313564 -0.223191 -0.880677 center 8.287 34.468 -0.670 ntor 10 -169.3283 -105.3388 25.4633 12.3877 110.1760 39.7381 -26.7807 -66.3444 -149.9099 -176.7462
State:	  0.223  -1.548  -8.684  -0.583 -0.662 -0.471 -56.552   -169.33 -105.34   25.46   12.39  110.18   39.74  -26.78  -66.34 -149.91 -176.75

DOCKED: MODEL        7
DOCKED: USER    Run = 7
DOCKED: USER    DPF = D:/Protein_go_brrr/autodock/final/AncB/heme_O2/dock.dpf
DOCKED: USER  
DOCKED: USER    Estimated Free Energy of Binding    =  -16.06 kcal/mol  [=(1)+(2)+(3)-(4)]
DOCKED: USER    Estimated Inhibition Constant, Ki   =    1.68 pM (picomolar)  [Temperature = 298.15 K]
DOCKED: USER    
DOCKED: USER    (1) Final Intermolecular Energy     =  -19.05 kcal/mol
DOCKED: USER        vdW + Hbond + desolv Energy     =  -16.44 kcal/mol
DOCKED: USER        Electrostatic Energy            =   -2.61 kcal/mol
DOCKED: USER    (2) Final Total Internal Energy     =   -0.62 kcal/mol
DOCKED: USER    (3) Torsional Free Energy           =   +2.98 kcal/mol
DOCKED: USER    (4) Unbound System's Energy  [=(2)] =   -0.62 kcal/mol
DOCKED: USER    
DOCKED: USER    
DOCKED: USER    NEWDPF move heme_O2_opt.pdbqt
DOCKED: USER    NEWDPF about 8.287000 34.468000 -0.670000
DOCKED: USER    NEWDPF tran0 0.222975 -1.547963 -8.683526
DOCKED: USER    NEWDPF quaternion0 -0.276173 -0.313564 -0.223191 -0.880677
DOCKED: USER    NEWDPF axisangle0 -0.582992 -0.661922 -0.471148 -56.551735
DOCKED: USER    NEWDPF quat0 -0.582992 -0.661922 -0.471148 -56.551735
DOCKED: USER    NEWDPF dihe0 -169.33 -105.34 25.46 12.39 110.18 39.74 -26.78 -66.34 -149.91 -176.75 
DOCKED: USER  keepresnum = 1 
DOCKED: USER  
DOCKED: REMARK  10 active torsions:
DOCKED: REMARK  status: ('A' for Active; 'I' for Inactive)
DOCKED: REMARK    1  A    between atoms: C_6  and  C_10 
DOCKED: REMARK    2  A    between atoms: C_10  and  C_11 
DOCKED: REMARK    3  A    between atoms: C_11  and  C_12 
DOCKED: REMARK    4  A    between atoms: C_12  and  O_14 
DOCKED: REMARK    5  A    between atoms: C_17  and  C_20 
DOCKED: REMARK    6  A    between atoms: C_24  and  C_27 
DOCKED: REMARK    7  A    between atoms: C_31  and  C_34 
DOCKED: REMARK    8  A    between atoms: C_34  and  C_35 
DOCKED: REMARK    9  A    between atoms: C_35  and  C_36 
DOCKED: REMARK   10  A    between atoms: C_36  and  O_38 
DOCKED: USER                              x       y       z     vdW  Elec       q    Type
DOCKED: USER                           _______ _______ _______ _____ _____    ______ ____
DOCKED: ROOT
DOCKED: ATOM      1  C   UNL d   1      -0.409  -1.188 -10.676 -0.22 +0.04    +0.064 A 
DOCKED: ATOM      2  C   UNL d   1      -2.717  -1.163  -6.525 -0.38 +0.02    +0.064 A 
DOCKED: ATOM      3  C   UNL d   1       1.301  -2.369  -4.179 -0.39 +0.01    +0.064 C 
DOCKED: ATOM      4  C   UNL d   1       3.790  -1.929  -8.383 -0.42 +0.02    +0.064 A 
DOCKED: ATOM      5  C   UNL d   1      -1.364  -1.081  -9.738 -0.30 +0.04    +0.066 A 
DOCKED: ATOM      6  C   UNL d   1      -2.698  -0.767 -10.012 -0.32 -0.02    -0.021 A 
DOCKED: ATOM      7  C   UNL d   1      -3.358  -0.717  -8.806 -0.33 -0.01    -0.025 A 
DOCKED: ATOM      8  C   UNL d   1      -2.419  -1.049  -7.834 -0.36 +0.03    +0.066 A 
DOCKED: ATOM      9  C   UNL d   1      -4.812  -0.336  -8.631 -0.36 +0.02    +0.051 C 
DOCKED: ATOM     10  C   UNL d   1      -1.780  -1.531  -5.462 -0.41 +0.02    +0.066 A 
DOCKED: ATOM     11  C   UNL d   1      -2.176  -1.794  -4.146 -0.49 -0.00    -0.021 A 
DOCKED: ATOM     12  C   UNL d   1      -1.034  -2.161  -3.458 -0.43 +0.00    +0.000 A 
DOCKED: ATOM     13  C   UNL d   1       0.019  -2.087  -4.412 -0.40 +0.01    +0.070 A 
DOCKED: ATOM     14  C   UNL d   1      -3.587  -1.726  -3.575 -0.58 +0.01    +0.052 C 
DOCKED: ATOM     15  C   UNL d   1       2.401  -2.272  -5.108 -0.38 +0.01    +0.066 A 
DOCKED: ATOM     16  C   UNL d   1       3.744  -2.422  -4.761 -0.51 -0.00    -0.021 A 
DOCKED: ATOM     17  C   UNL d   1       4.473  -2.300  -5.944 -0.51 +0.00    +0.000 A 
DOCKED: ATOM     18  C   UNL d   1       3.507  -2.084  -6.937 -0.42 +0.02    +0.070 A 
DOCKED: ATOM     19  C   UNL d   1       4.210  -2.611  -3.339 -0.47 +0.00    +0.052 C 
DOCKED: ATOM     20  C   UNL d   1       2.893  -1.678  -9.356 -0.42 +0.02    +0.066 A 
DOCKED: ATOM     21  C   UNL d   1       3.217  -1.560 -10.705 -0.47 -0.01    -0.025 A 
DOCKED: ATOM     22  C   UNL d   1       2.030  -1.376 -11.377 -0.26 -0.01    -0.021 A 
DOCKED: ATOM     23  C   UNL d   1       1.022  -1.370 -10.407 -0.17 +0.03    +0.066 A 
DOCKED: ATOM     24  C   UNL d   1       4.591  -1.617 -11.321 -0.39 +0.01    +0.051 C 
DOCKED: ATOM     25  N   UNL d   1      -1.177  -1.209  -8.402 -0.22 -0.12    -0.248 N 
DOCKED: ATOM     26  N   UNL d   1      -0.444  -1.698  -5.627 -0.25 -0.06    -0.248 N 
DOCKED: ATOM     27  N   UNL d   1       2.263  -1.995  -6.401 -0.24 -0.07    -0.248 N 
DOCKED: ATOM     28  N   UNL d   1       1.556  -1.509  -9.176 -0.04 -0.14    -0.248 N 
DOCKED: ATOM     29 FE   UNL d   1       0.566  -1.603  -7.413 -0.09 +0.00    +0.000 Fe
DOCKED: ATOM     30  O   UNL d   1       0.005  -0.175  -7.153 -0.31 +0.00    +0.000 OA
DOCKED: ATOM     31  O   UNL d   1       1.556  -0.384  -7.334 -1.06 +0.00    +0.000 OA
DOCKED: ENDROOT
DOCKED: BRANCH   6  32
DOCKED: ATOM     32  C   UNL d   1      -3.305  -0.392 -11.339 -0.26 +0.07    +0.052 C 
DOCKED: BRANCH  32  33
DOCKED: ATOM     33  C   UNL d   1      -2.785   0.940 -11.873 -0.23 +0.13    +0.115 C 
DOCKED: BRANCH  33  34
DOCKED: ATOM     34  C   UNL d   1      -2.797   0.999 -13.380 -0.19 +0.21    +0.139 C 
DOCKED: ATOM     35  O   UNL d   1      -2.456   0.021 -14.025 -0.11 -1.30    -0.650 OA
DOCKED: BRANCH  34  36
DOCKED: ATOM     36  O   UNL d   1      -3.149   2.124 -14.037 -0.35 -1.71    -0.776 OA
DOCKED: ATOM     37  H   UNL d   1      -3.310   2.131 -14.988 +0.01 +0.34    +0.167 HD
DOCKED: ENDBRANCH  34  36
DOCKED: ENDBRANCH  33  34
DOCKED: ENDBRANCH  32  33
DOCKED: ENDBRANCH   6  32
DOCKED: BRANCH  22  38
DOCKED: ATOM     38  C   UNL d   1       1.885  -1.154 -12.860 -0.30 +0.02    +0.052 C 
DOCKED: BRANCH  38  39
DOCKED: ATOM     39  C   UNL d   1       2.300   0.254 -13.281 -0.29 +0.05    +0.115 C 
DOCKED: BRANCH  39  40
DOCKED: ATOM     40  C   UNL d   1       3.549   0.258 -14.127 -0.31 +0.04    +0.139 C 
DOCKED: ATOM     41  O   UNL d   1       4.045   1.318 -14.471 -0.06 -0.19    -0.650 OA
DOCKED: BRANCH  40  42
DOCKED: ATOM     42  O   UNL d   1       4.161  -0.893 -14.469 +0.09 -0.14    -0.776 OA
DOCKED: ATOM     43  H   UNL d   1       4.963  -1.190 -14.024 -0.44 -0.02    +0.167 HD
DOCKED: ENDBRANCH  40  42
DOCKED: ENDBRANCH  39  40
DOCKED: ENDBRANCH  38  39
DOCKED: ENDBRANCH  22  38
DOCKED: BRANCH  12  44
DOCKED: ATOM     44  C   UNL d   1      -1.064  -2.534  -1.990 -0.49 +0.00    +0.004 C 
DOCKED: ATOM     45  C   UNL d   1      -0.052  -2.529  -1.123 -0.60 +0.00    +0.012 C 
DOCKED: ENDBRANCH  12  44
DOCKED: BRANCH  17  46
DOCKED: ATOM     46  C   UNL d   1       5.957  -2.312  -6.195 -0.66 +0.00    +0.004 C 
DOCKED: ATOM     47  C   UNL d   1       6.943  -2.552  -5.322 -0.65 +0.00    +0.012 C 
DOCKED: ENDBRANCH  17  46
DOCKED: TORSDOF 10
DOCKED: TER
DOCKED: ENDMDL
________________________________________________________________________________


	BEGINNING GENETIC ALGORITHM DOCKING 8 of 100
Run: 8 Seed: 1601800102 1566545064 [ Run 8 of 100 GA/GALS ]
Beginning LAMARCKIAN GENETIC ALGORITHM (LGA), with a maximum of 25000000 energy evaluations.

Final-Value: -21.095


	FINAL GENETIC ALGORITHM DOCKED STATE
	_______________________________________________


Detailed state:  trans 0.198 -1.618 -8.873 quatxyzw 0.286500 0.295762 0.248551 0.876736 center 8.287 34.468 -0.670 ntor 10 -96.8919 -132.6133 29.5699 -50.8762 -97.0327 176.0450 -19.9297 46.3824 -148.9825 167.1916
State:	  0.198  -1.618  -8.873   0.596  0.615  0.517 57.498    -96.89 -132.61   29.57  -50.88  -97.03  176.04  -19.93   46.38 -148.98  167.19

DOCKED: MODEL        8
DOCKED: USER    Run = 8
DOCKED: USER    DPF = D:/Protein_go_brrr/autodock/final/AncB/heme_O2/dock.dpf
DOCKED: USER  
DOCKED: USER    Estimated Free Energy of Binding    =  -16.00 kcal/mol  [=(1)+(2)+(3)-(4)]
DOCKED: USER    Estimated Inhibition Constant, Ki   =    1.87 pM (picomolar)  [Temperature = 298.15 K]
DOCKED: USER    
DOCKED: USER    (1) Final Intermolecular Energy     =  -18.98 kcal/mol
DOCKED: USER        vdW + Hbond + desolv Energy     =  -16.02 kcal/mol
DOCKED: USER        Electrostatic Energy            =   -2.96 kcal/mol
DOCKED: USER    (2) Final Total Internal Energy     =   -2.11 kcal/mol
DOCKED: USER    (3) Torsional Free Energy           =   +2.98 kcal/mol
DOCKED: USER    (4) Unbound System's Energy  [=(2)] =   -2.11 kcal/mol
DOCKED: USER    
DOCKED: USER    
DOCKED: USER    NEWDPF move heme_O2_opt.pdbqt
DOCKED: USER    NEWDPF about 8.287000 34.468000 -0.670000
DOCKED: USER    NEWDPF tran0 0.197674 -1.617772 -8.872885
DOCKED: USER    NEWDPF quaternion0 0.286500 0.295762 0.248551 0.876736
DOCKED: USER    NEWDPF axisangle0 0.595669 0.614924 0.516766 57.497901
DOCKED: USER    NEWDPF quat0 0.595669 0.614924 0.516766 57.497901
DOCKED: USER    NEWDPF dihe0 -96.89 -132.61 29.57 -50.88 -97.03 176.04 -19.93 46.38 -148.98 167.19 
DOCKED: USER  keepresnum = 1 
DOCKED: USER  
DOCKED: REMARK  10 active torsions:
DOCKED: REMARK  status: ('A' for Active; 'I' for Inactive)
DOCKED: REMARK    1  A    between atoms: C_6  and  C_10 
DOCKED: REMARK    2  A    between atoms: C_10  and  C_11 
DOCKED: REMARK    3  A    between atoms: C_11  and  C_12 
DOCKED: REMARK    4  A    between atoms: C_12  and  O_14 
DOCKED: REMARK    5  A    between atoms: C_17  and  C_20 
DOCKED: REMARK    6  A    between atoms: C_24  and  C_27 
DOCKED: REMARK    7  A    between atoms: C_31  and  C_34 
DOCKED: REMARK    8  A    between atoms: C_34  and  C_35 
DOCKED: REMARK    9  A    between atoms: C_35  and  C_36 
DOCKED: REMARK   10  A    between atoms: C_36  and  O_38 
DOCKED: USER                              x       y       z     vdW  Elec       q    Type
DOCKED: USER                           _______ _______ _______ _____ _____    ______ ____
DOCKED: ROOT
DOCKED: ATOM      1  C   UNL d   1      -0.449  -1.210 -10.852 -0.28 +0.05    +0.064 A 
DOCKED: ATOM      2  C   UNL d   1      -2.670  -1.058  -6.656 -0.39 +0.02    +0.064 A 
DOCKED: ATOM      3  C   UNL d   1       1.309  -2.523  -4.393 -0.44 +0.01    +0.064 C 
DOCKED: ATOM      4  C   UNL d   1       3.739  -2.223  -8.644 -0.43 +0.02    +0.064 A 
DOCKED: ATOM      5  C   UNL d   1      -1.377  -1.048  -9.895 -0.30 +0.04    +0.066 A 
DOCKED: ATOM      6  C   UNL d   1      -2.694  -0.650 -10.142 -0.31 -0.02    -0.021 A 
DOCKED: ATOM      7  C   UNL d   1      -3.326  -0.563  -8.923 -0.34 -0.01    -0.025 A 
DOCKED: ATOM      8  C   UNL d   1      -2.391  -0.958  -7.970 -0.36 +0.03    +0.066 A 
DOCKED: ATOM      9  C   UNL d   1      -4.749  -0.092  -8.718 -0.36 +0.02    +0.051 C 
DOCKED: ATOM     10  C   UNL d   1      -1.738  -1.488  -5.612 -0.41 +0.02    +0.066 A 
DOCKED: ATOM     11  C   UNL d   1      -2.123  -1.732  -4.290 -0.48 -0.00    -0.021 A 
DOCKED: ATOM     12  C   UNL d   1      -0.994  -2.173  -3.625 -0.44 +0.00    +0.000 A 
DOCKED: ATOM     13  C   UNL d   1       0.043  -2.161  -4.599 -0.40 +0.01    +0.070 A 
DOCKED: ATOM     14  C   UNL d   1      -3.517  -1.578  -3.691 -0.57 +0.01    +0.052 C 
DOCKED: ATOM     15  C   UNL d   1       2.395  -2.492  -5.342 -0.40 +0.01    +0.066 A 
DOCKED: ATOM     16  C   UNL d   1       3.732  -2.727  -5.022 -0.50 -0.00    -0.021 A 
DOCKED: ATOM     17  C   UNL d   1       4.444  -2.646  -6.219 -0.51 +0.00    +0.000 A 
DOCKED: ATOM     18  C   UNL d   1       3.475  -2.366  -7.193 -0.42 +0.02    +0.070 A 
DOCKED: ATOM     19  C   UNL d   1       4.213  -2.950  -3.611 -0.40 +0.00    +0.052 C 
DOCKED: ATOM     20  C   UNL d   1       2.841  -1.912  -9.598 -0.44 +0.02    +0.066 A 
DOCKED: ATOM     21  C   UNL d   1       3.146  -1.809 -10.953 -0.46 -0.01    -0.025 A 
DOCKED: ATOM     22  C   UNL d   1       1.959  -1.548 -11.600 -0.03 -0.01    -0.021 A 
DOCKED: ATOM     23  C   UNL d   1       0.973  -1.483 -10.611 -0.17 +0.03    +0.066 A 
DOCKED: ATOM     24  C   UNL d   1       4.501  -1.950 -11.596 -0.44 +0.01    +0.051 C 
DOCKED: ATOM     25  N   UNL d   1      -1.172  -1.193  -8.563 -0.22 -0.12    -0.248 N 
DOCKED: ATOM     26  N   UNL d   1      -0.418  -1.739  -5.804 -0.25 -0.07    -0.248 N 
DOCKED: ATOM     27  N   UNL d   1       2.249  -2.201  -6.632 -0.23 -0.08    -0.248 N 
DOCKED: ATOM     28  N   UNL d   1       1.521  -1.660  -9.391 -0.13 -0.13    -0.248 N 
DOCKED: ATOM     29 FE   UNL d   1       0.561  -1.700  -7.610 -0.09 +0.00    +0.000 Fe
DOCKED: ATOM     30  O   UNL d   1       0.096  -0.240  -7.334 -0.71 +0.00    +0.000 OA
DOCKED: ATOM     31  O   UNL d   1       1.627  -0.545  -7.546 -1.09 +0.00    +0.000 OA
DOCKED: ENDROOT
DOCKED: BRANCH   6  32
DOCKED: ATOM     32  C   UNL d   1      -3.301  -0.232 -11.456 -0.23 +0.07    +0.052 C 
DOCKED: BRANCH  32  33
DOCKED: ATOM     33  C   UNL d   1      -2.694   1.054 -12.007 -0.22 +0.14    +0.115 C 
DOCKED: BRANCH  33  34
DOCKED: ATOM     34  C   UNL d   1      -2.884   1.188 -13.497 -0.18 +0.22    +0.139 C 
DOCKED: ATOM     35  O   UNL d   1      -3.621   2.057 -13.936 -0.41 -1.42    -0.650 OA
DOCKED: BRANCH  34  36
DOCKED: ATOM     36  O   UNL d   1      -2.278   0.348 -14.362 -0.18 -1.30    -0.776 OA
DOCKED: ATOM     37  H   UNL d   1      -1.448   0.575 -14.798 +0.04 +0.21    +0.167 HD
DOCKED: ENDBRANCH  34  36
DOCKED: ENDBRANCH  33  34
DOCKED: ENDBRANCH  32  33
DOCKED: ENDBRANCH   6  32
DOCKED: BRANCH  22  38
DOCKED: ATOM     38  C   UNL d   1       1.800  -1.311 -13.080 -0.17 +0.03    +0.052 C 
DOCKED: BRANCH  38  39
DOCKED: ATOM     39  C   UNL d   1       1.916   0.166 -13.449 -0.26 +0.05    +0.115 C 
DOCKED: BRANCH  39  40
DOCKED: ATOM     40  C   UNL d   1       0.841   0.607 -14.410 -0.15 +0.09    +0.139 C 
DOCKED: ATOM     41  O   UNL d   1       0.497  -0.135 -15.316 +0.04 -0.48    -0.650 OA
DOCKED: BRANCH  40  42
DOCKED: ATOM     42  O   UNL d   1       0.213   1.789 -14.258 +0.03 -0.65    -0.776 OA
DOCKED: ATOM     43  H   UNL d   1      -0.749   1.854 -14.268 +0.05 +0.18    +0.167 HD
DOCKED: ENDBRANCH  40  42
DOCKED: ENDBRANCH  39  40
DOCKED: ENDBRANCH  38  39
DOCKED: ENDBRANCH  22  38
DOCKED: BRANCH  12  44
DOCKED: ATOM     44  C   UNL d   1      -1.019  -2.548  -2.158 -0.48 +0.00    +0.004 C 
DOCKED: ATOM     45  C   UNL d   1      -0.005  -2.539  -1.293 -0.60 +0.00    +0.012 C 
DOCKED: ENDBRANCH  12  44
DOCKED: BRANCH  17  46
DOCKED: ATOM     46  C   UNL d   1       5.919  -2.749  -6.500 -0.61 +0.00    +0.004 C 
DOCKED: ATOM     47  C   UNL d   1       6.913  -2.007  -5.995 -0.67 +0.00    +0.012 C 
DOCKED: ENDBRANCH  17  46
DOCKED: TORSDOF 10
DOCKED: TER
DOCKED: ENDMDL
________________________________________________________________________________


	BEGINNING GENETIC ALGORITHM DOCKING 9 of 100
Run: 9 Seed: 329058608 344234302 [ Run 9 of 100 GA/GALS ]
Beginning LAMARCKIAN GENETIC ALGORITHM (LGA), with a maximum of 25000000 energy evaluations.

Final-Value: -12.747


	FINAL GENETIC ALGORITHM DOCKED STATE
	_______________________________________________


Detailed state:  trans -3.301 -11.596 10.907 quatxyzw 0.446519 0.386325 -0.242612 0.769748 center 8.287 34.468 -0.670 ntor 10 13.3899 -141.6748 65.6834 -17.9597 -112.4258 118.9056 -12.6443 -65.6416 -138.2158 3.8831
State:	 -3.301 -11.596  10.907   0.699  0.605 -0.380 79.337     13.39 -141.67   65.68  -17.96 -112.43  118.91  -12.64  -65.64 -138.22    3.88

DOCKED: MODEL        9
DOCKED: USER    Run = 9
DOCKED: USER    DPF = D:/Protein_go_brrr/autodock/final/AncB/heme_O2/dock.dpf
DOCKED: USER  
DOCKED: USER    Estimated Free Energy of Binding    =   -7.55 kcal/mol  [=(1)+(2)+(3)-(4)]
DOCKED: USER    Estimated Inhibition Constant, Ki   =    2.90 uM (micromolar)  [Temperature = 298.15 K]
DOCKED: USER    
DOCKED: USER    (1) Final Intermolecular Energy     =  -10.54 kcal/mol
DOCKED: USER        vdW + Hbond + desolv Energy     =   -7.38 kcal/mol
DOCKED: USER        Electrostatic Energy            =   -3.16 kcal/mol
DOCKED: USER    (2) Final Total Internal Energy     =   -2.21 kcal/mol
DOCKED: USER    (3) Torsional Free Energy           =   +2.98 kcal/mol
DOCKED: USER    (4) Unbound System's Energy  [=(2)] =   -2.21 kcal/mol
DOCKED: USER    
DOCKED: USER    
DOCKED: USER    NEWDPF move heme_O2_opt.pdbqt
DOCKED: USER    NEWDPF about 8.287000 34.468000 -0.670000
DOCKED: USER    NEWDPF tran0 -3.300794 -11.596131 10.906789
DOCKED: USER    NEWDPF quaternion0 0.446519 0.386325 -0.242612 0.769748
DOCKED: USER    NEWDPF axisangle0 0.699493 0.605196 -0.380063 79.337394
DOCKED: USER    NEWDPF quat0 0.699493 0.605196 -0.380063 79.337394
DOCKED: USER    NEWDPF dihe0 13.39 -141.67 65.68 -17.96 -112.43 118.91 -12.64 -65.64 -138.22 3.88 
DOCKED: USER  keepresnum = 1 
DOCKED: USER  
DOCKED: REMARK  10 active torsions:
DOCKED: REMARK  status: ('A' for Active; 'I' for Inactive)
DOCKED: REMARK    1  A    between atoms: C_6  and  C_10 
DOCKED: REMARK    2  A    between atoms: C_10  and  C_11 
DOCKED: REMARK    3  A    between atoms: C_11  and  C_12 
DOCKED: REMARK    4  A    between atoms: C_12  and  O_14 
DOCKED: REMARK    5  A    between atoms: C_17  and  C_20 
DOCKED: REMARK    6  A    between atoms: C_24  and  C_27 
DOCKED: REMARK    7  A    between atoms: C_31  and  C_34 
DOCKED: REMARK    8  A    between atoms: C_34  and  C_35 
DOCKED: REMARK    9  A    between atoms: C_35  and  C_36 
DOCKED: REMARK   10  A    between atoms: C_36  and  O_38 
DOCKED: USER                              x       y       z     vdW  Elec       q    Type
DOCKED: USER                           _______ _______ _______ _____ _____    ______ ____
DOCKED: ROOT
DOCKED: ATOM      1  C   UNL d   1      -3.761 -13.049   9.431 -0.08 +0.02    +0.064 A 
DOCKED: ATOM      2  C   UNL d   1      -6.005 -11.670  13.383 -0.20 +0.04    +0.064 A 
DOCKED: ATOM      3  C   UNL d   1      -2.518  -8.514  14.372 -0.17 +0.01    +0.064 C 
DOCKED: ATOM      4  C   UNL d   1      -0.437  -9.585  10.061 +0.02 +0.01    +0.064 A 
DOCKED: ATOM      5  C   UNL d   1      -4.656 -12.930  10.424 -0.12 +0.03    +0.066 A 
DOCKED: ATOM      6  C   UNL d   1      -5.820 -13.697  10.525 -0.20 -0.01    -0.021 A 
DOCKED: ATOM      7  C   UNL d   1      -6.493 -13.269  11.645 -0.26 -0.01    -0.025 A 
DOCKED: ATOM      8  C   UNL d   1      -5.697 -12.285  12.225 -0.19 +0.03    +0.066 A 
DOCKED: ATOM      9  C   UNL d   1      -7.845 -13.780  12.092 -0.30 +0.03    +0.051 C 
DOCKED: ATOM     10  C   UNL d   1      -5.199 -10.647  14.051 -0.12 +0.04    +0.066 A 
DOCKED: ATOM     11  C   UNL d   1      -5.482 -10.160  15.332 -0.11 -0.01    -0.021 A 
DOCKED: ATOM     12  C   UNL d   1      -4.478  -9.261  15.643 -0.15 +0.00    +0.000 A 
DOCKED: ATOM     13  C   UNL d   1      -3.626  -9.242  14.503 -0.13 +0.02    +0.070 A 
DOCKED: ATOM     14  C   UNL d   1      -6.646 -10.555  16.233 -0.15 +0.03    +0.052 C 
DOCKED: ATOM     15  C   UNL d   1      -1.649  -8.440  13.223 -0.17 +0.01    +0.066 A 
DOCKED: ATOM     16  C   UNL d   1      -0.596  -7.535  13.085 -0.21 -0.00    -0.021 A 
DOCKED: ATOM     17  C   UNL d   1       0.011  -7.821  11.862 -0.24 +0.00    +0.000 A 
DOCKED: ATOM     18  C   UNL d   1      -0.725  -8.894  11.340 -0.19 +0.01    +0.070 A 
DOCKED: ATOM     19  C   UNL d   1      -0.302  -6.455  14.095 -0.26 +0.00    +0.052 C 
DOCKED: ATOM     20  C   UNL d   1      -1.149 -10.588   9.510 -0.15 +0.01    +0.066 A 
DOCKED: ATOM     21  C   UNL d   1      -0.818 -11.211   8.310 -0.18 -0.00    -0.025 A 
DOCKED: ATOM     22  C   UNL d   1      -1.739 -12.219   8.128 -0.15 -0.01    -0.021 A 
DOCKED: ATOM     23  C   UNL d   1      -2.611 -12.161   9.220 -0.11 +0.02    +0.066 A 
DOCKED: ATOM     24  C   UNL d   1       0.316 -10.861   7.382 -0.18 +0.01    +0.051 C 
DOCKED: ATOM     25  N   UNL d   1      -4.598 -12.031  11.437 -0.08 -0.10    -0.248 N 
DOCKED: ATOM     26  N   UNL d   1      -4.075 -10.084  13.538 -0.10 -0.11    -0.248 N 
DOCKED: ATOM     27  N   UNL d   1      -1.774  -9.207  12.143 -0.12 -0.05    -0.248 N 
DOCKED: ATOM     28  N   UNL d   1      -2.275 -11.139  10.034 -0.08 -0.06    -0.248 N 
DOCKED: ATOM     29 FE   UNL d   1      -3.167 -10.613  11.774 -0.04 +0.00    +0.000 Fe
DOCKED: ATOM     30  O   UNL d   1      -4.556 -10.025  11.390 -0.37 +0.00    +0.000 OA
DOCKED: ATOM     31  O   UNL d   1      -3.244  -9.373  10.810 -0.39 +0.00    +0.000 OA
DOCKED: ENDROOT
DOCKED: BRANCH   6  32
DOCKED: ATOM     32  C   UNL d   1      -6.353 -14.700   9.534 -0.23 +0.04    +0.052 C 
DOCKED: BRANCH  32  33
DOCKED: ATOM     33  C   UNL d   1      -6.510 -14.121   8.131 -0.27 +0.13    +0.115 C 
DOCKED: BRANCH  33  34
DOCKED: ATOM     34  C   UNL d   1      -6.693 -15.192   7.084 -0.15 +0.27    +0.139 C 
DOCKED: ATOM     35  O   UNL d   1      -7.818 -15.488   6.715 -0.21 -1.90    -0.650 OA
DOCKED: BRANCH  34  36
DOCKED: ATOM     36  O   UNL d   1      -5.640 -15.854   6.564 -0.38 -1.33    -0.776 OA
DOCKED: ATOM     37  H   UNL d   1      -4.763 -15.816   6.964 +0.04 +0.17    +0.167 HD
DOCKED: ENDBRANCH  34  36
DOCKED: ENDBRANCH  33  34
DOCKED: ENDBRANCH  32  33
DOCKED: ENDBRANCH   6  32
DOCKED: BRANCH  22  38
DOCKED: ATOM     38  C   UNL d   1      -1.809 -13.140   6.938 -0.15 +0.02    +0.052 C 
DOCKED: BRANCH  38  39
DOCKED: ATOM     39  C   UNL d   1      -1.312 -14.548   7.261 -0.05 +0.03    +0.115 C 
DOCKED: BRANCH  39  40
DOCKED: ATOM     40  C   UNL d   1      -2.414 -15.576   7.201 -0.02 +0.06    +0.139 C 
DOCKED: ATOM     41  O   UNL d   1      -2.984 -15.913   8.226 +0.03 -0.29    -0.650 OA
DOCKED: BRANCH  40  42
DOCKED: ATOM     42  O   UNL d   1      -2.818 -16.094   6.026 +0.05 -0.44    -0.776 OA
DOCKED: ATOM     43  H   UNL d   1      -3.752 -16.243   5.834 +0.03 +0.14    +0.167 HD
DOCKED: ENDBRANCH  40  42
DOCKED: ENDBRANCH  39  40
DOCKED: ENDBRANCH  38  39
DOCKED: ENDBRANCH  22  38
DOCKED: BRANCH  12  44
DOCKED: ATOM     44  C   UNL d   1      -4.437  -8.527  16.966 -0.13 +0.00    +0.004 C 
DOCKED: ATOM     45  C   UNL d   1      -4.490  -7.212  17.175 -0.17 -0.00    +0.012 C 
DOCKED: ENDBRANCH  12  44
DOCKED: BRANCH  17  46
DOCKED: ATOM     46  C   UNL d   1       1.153  -7.151  11.145 -0.27 +0.00    +0.004 C 
DOCKED: ATOM     47  C   UNL d   1       1.576  -5.886  11.263 -0.32 +0.00    +0.012 C 
DOCKED: ENDBRANCH  17  46
DOCKED: TORSDOF 10
DOCKED: TER
DOCKED: ENDMDL
________________________________________________________________________________


	BEGINNING GENETIC ALGORITHM DOCKING 10 of 100
Run: 10 Seed: 2094408480 850654255 [ Run 10 of 100 GA/GALS ]
Beginning LAMARCKIAN GENETIC ALGORITHM (LGA), with a maximum of 25000000 energy evaluations.

Final-Value: -11.162


	FINAL GENETIC ALGORITHM DOCKED STATE
	_______________________________________________


Detailed state:  trans -10.100 -19.175 10.521 quatxyzw -0.296436 -0.682243 0.003253 -0.668325 center 8.287 34.468 -0.670 ntor 10 -34.0700 110.4802 52.3566 -100.8606 78.5421 -32.7986 -120.9786 -101.9830 180.0000 142.0690
State:	-10.100 -19.175  10.521  -0.399 -0.917  0.004 -96.124    -34.07  110.48   52.36 -100.86   78.54  -32.80 -120.98 -101.98  180.00  142.07

DOCKED: MODEL       10
DOCKED: USER    Run = 10
DOCKED: USER    DPF = D:/Protein_go_brrr/autodock/final/AncB/heme_O2/dock.dpf
DOCKED: USER  
DOCKED: USER    Estimated Free Energy of Binding    =   -7.58 kcal/mol  [=(1)+(2)+(3)-(4)]
DOCKED: USER    Estimated Inhibition Constant, Ki   =    2.78 uM (micromolar)  [Temperature = 298.15 K]
DOCKED: USER    
DOCKED: USER    (1) Final Intermolecular Energy     =  -10.56 kcal/mol
DOCKED: USER        vdW + Hbond + desolv Energy     =   -5.26 kcal/mol
DOCKED: USER        Electrostatic Energy            =   -5.31 kcal/mol
DOCKED: USER    (2) Final Total Internal Energy     =   -0.60 kcal/mol
DOCKED: USER    (3) Torsional Free Energy           =   +2.98 kcal/mol
DOCKED: USER    (4) Unbound System's Energy  [=(2)] =   -0.60 kcal/mol
DOCKED: USER    
DOCKED: USER    
DOCKED: USER    NEWDPF move heme_O2_opt.pdbqt
DOCKED: USER    NEWDPF about 8.287000 34.468000 -0.670000
DOCKED: USER    NEWDPF tran0 -10.100029 -19.175200 10.521481
DOCKED: USER    NEWDPF quaternion0 -0.296436 -0.682243 0.003253 -0.668325
DOCKED: USER    NEWDPF axisangle0 -0.398506 -0.917155 0.004373 -96.124104
DOCKED: USER    NEWDPF quat0 -0.398506 -0.917155 0.004373 -96.124104
DOCKED: USER    NEWDPF dihe0 -34.07 110.48 52.36 -100.86 78.54 -32.80 -120.98 -101.98 180.00 142.07 
DOCKED: USER  keepresnum = 1 
DOCKED: USER  
DOCKED: REMARK  10 active torsions:
DOCKED: REMARK  status: ('A' for Active; 'I' for Inactive)
DOCKED: REMARK    1  A    between atoms: C_6  and  C_10 
DOCKED: REMARK    2  A    between atoms: C_10  and  C_11 
DOCKED: REMARK    3  A    between atoms: C_11  and  C_12 
DOCKED: REMARK    4  A    between atoms: C_12  and  O_14 
DOCKED: REMARK    5  A    between atoms: C_17  and  C_20 
DOCKED: REMARK    6  A    between atoms: C_24  and  C_27 
DOCKED: REMARK    7  A    between atoms: C_31  and  C_34 
DOCKED: REMARK    8  A    between atoms: C_34  and  C_35 
DOCKED: REMARK    9  A    between atoms: C_35  and  C_36 
DOCKED: REMARK   10  A    between atoms: C_36  and  O_38 
DOCKED: USER                              x       y       z     vdW  Elec       q    Type
DOCKED: USER                           _______ _______ _______ _____ _____    ______ ____
DOCKED: ROOT
DOCKED: ATOM      1  C   UNL d   1      -9.257 -19.757   8.664 +0.01 +0.09    +0.064 A 
DOCKED: ATOM      2  C   UNL d   1     -13.655 -20.072  10.430 -0.04 +0.03    +0.064 A 
DOCKED: ATOM      3  C   UNL d   1     -12.237 -18.070  14.563 -0.09 +0.02    +0.064 C 
DOCKED: ATOM      4  C   UNL d   1      -7.816 -17.304  12.581 -0.09 +0.03    +0.064 A 
DOCKED: ATOM      5  C   UNL d   1     -10.569 -20.004   8.806 -0.08 +0.07    +0.066 A 
DOCKED: ATOM      6  C   UNL d   1     -11.362 -20.612   7.829 -0.05 -0.02    -0.021 A 
DOCKED: ATOM      7  C   UNL d   1     -12.645 -20.664   8.322 -0.05 -0.01    -0.025 A 
DOCKED: ATOM      8  C   UNL d   1     -12.591 -20.131   9.607 -0.06 +0.04    +0.066 A 
DOCKED: ATOM      9  C   UNL d   1     -13.846 -21.179   7.559 -0.03 +0.02    +0.051 C 
DOCKED: ATOM     10  C   UNL d   1     -13.654 -19.545  11.796 -0.06 +0.02    +0.066 A 
DOCKED: ATOM     11  C   UNL d   1     -14.746 -19.657  12.664 -0.04 -0.00    -0.021 A 
DOCKED: ATOM     12  C   UNL d   1     -14.350 -19.102  13.867 -0.06 +0.00    +0.000 A 
DOCKED: ATOM     13  C   UNL d   1     -13.014 -18.662  13.656 -0.08 +0.02    +0.070 A 
DOCKED: ATOM     14  C   UNL d   1     -16.099 -20.292  12.368 -0.01 +0.01    +0.052 C 
DOCKED: ATOM     15  C   UNL d   1     -10.893 -17.579  14.379 -0.01 +0.02    +0.066 A 
DOCKED: ATOM     16  C   UNL d   1     -10.193 -16.822  15.317 -0.09 -0.00    -0.021 A 
DOCKED: ATOM     17  C   UNL d   1      -8.929 -16.591  14.774 -0.09 +0.00    +0.000 A 
DOCKED: ATOM     18  C   UNL d   1      -8.953 -17.234  13.528 -0.10 +0.03    +0.070 A 
DOCKED: ATOM     19  C   UNL d   1     -10.803 -16.345  16.611 -0.09 +0.01    +0.052 C 
DOCKED: ATOM     20  C   UNL d   1      -7.819 -17.875  11.361 -0.10 +0.05    +0.066 A 
DOCKED: ATOM     21  C   UNL d   1      -6.710 -17.925  10.520 -0.07 -0.02    -0.025 A 
DOCKED: ATOM     22  C   UNL d   1      -7.095 -18.644   9.411 -0.07 -0.02    -0.021 A 
DOCKED: ATOM     23  C   UNL d   1      -8.435 -18.992   9.608 +0.07 +0.09    +0.066 A 
DOCKED: ATOM     24  C   UNL d   1      -5.354 -17.315  10.762 -0.02 +0.03    +0.051 C 
DOCKED: ATOM     25  N   UNL d   1     -11.325 -19.665   9.880 -0.07 -0.23    -0.248 N 
DOCKED: ATOM     26  N   UNL d   1     -12.600 -18.931  12.392 -0.07 -0.12    -0.248 N 
DOCKED: ATOM     27  N   UNL d   1     -10.177 -17.764  13.273 -0.08 -0.12    -0.248 N 
DOCKED: ATOM     28  N   UNL d   1      -8.883 -18.484  10.775 -0.09 -0.30    -0.248 N 
DOCKED: ATOM     29 FE   UNL d   1     -10.727 -18.704  11.580 -0.03 +0.00    +0.000 Fe
DOCKED: ATOM     30  O   UNL d   1     -11.693 -17.867  10.691 -0.77 +0.00    +0.000 OA
DOCKED: ATOM     31  O   UNL d   1     -10.473 -17.163  11.398 -1.01 +0.00    +0.000 OA
DOCKED: ENDROOT
DOCKED: BRANCH   6  32
DOCKED: ATOM     32  C   UNL d   1     -10.963 -21.004   6.429 -0.03 +0.04    +0.052 C 
DOCKED: BRANCH  32  33
DOCKED: ATOM     33  C   UNL d   1     -11.332 -19.949   5.391 -0.05 +0.10    +0.115 C 
DOCKED: BRANCH  33  34
DOCKED: ATOM     34  C   UNL d   1     -10.731 -18.601   5.702 -0.09 +0.23    +0.139 C 
DOCKED: ATOM     35  O   UNL d   1     -11.175 -17.941   6.627 -0.10 -1.65    -0.650 OA
DOCKED: BRANCH  34  36
DOCKED: ATOM     36  O   UNL d   1      -9.726 -18.091   4.960 -0.20 -1.59    -0.776 OA
DOCKED: ATOM     37  H   UNL d   1      -9.050 -18.651   4.561 +0.03 +0.30    +0.167 HD
DOCKED: ENDBRANCH  34  36
DOCKED: ENDBRANCH  33  34
DOCKED: ENDBRANCH  32  33
DOCKED: ENDBRANCH   6  32
DOCKED: BRANCH  22  38
DOCKED: ATOM     38  C   UNL d   1      -6.237 -18.922   8.204 -0.04 +0.05    +0.052 C 
DOCKED: BRANCH  38  39
DOCKED: ATOM     39  C   UNL d   1      -6.790 -18.276   6.935 -0.08 +0.18    +0.115 C 
DOCKED: BRANCH  39  40
DOCKED: ATOM     40  C   UNL d   1      -6.519 -16.793   6.879 -0.08 +0.28    +0.139 C 
DOCKED: ATOM     41  O   UNL d   1      -5.741 -16.351   6.048 -0.49 -1.39    -0.650 OA
DOCKED: BRANCH  40  42
DOCKED: ATOM     42  O   UNL d   1      -7.160 -15.937   7.697 -0.53 -1.85    -0.776 OA
DOCKED: ATOM     43  H   UNL d   1      -6.691 -15.449   8.384 +0.03 +0.26    +0.167 HD
DOCKED: ENDBRANCH  40  42
DOCKED: ENDBRANCH  39  40
DOCKED: ENDBRANCH  38  39
DOCKED: ENDBRANCH  22  38
DOCKED: BRANCH  12  44
DOCKED: ATOM     44  C   UNL d   1     -15.271 -19.047  15.068 -0.03 +0.00    +0.004 C 
DOCKED: ATOM     45  C   UNL d   1     -15.528 -18.003  15.856 -0.03 +0.00    +0.012 C 
DOCKED: ENDBRANCH  12  44
DOCKED: BRANCH  17  46
DOCKED: ATOM     46  C   UNL d   1      -7.762 -15.791  15.290 -0.06 +0.00    +0.004 C 
DOCKED: ATOM     47  C   UNL d   1      -7.305 -14.613  14.847 -0.09 +0.00    +0.012 C 
DOCKED: ENDBRANCH  17  46
DOCKED: TORSDOF 10
DOCKED: TER
DOCKED: ENDMDL
________________________________________________________________________________


	BEGINNING GENETIC ALGORITHM DOCKING 11 of 100
Run: 11 Seed: 1108281577 926525422 [ Run 11 of 100 GA/GALS ]
Beginning LAMARCKIAN GENETIC ALGORITHM (LGA), with a maximum of 25000000 energy evaluations.

Final-Value: -20.961


	FINAL GENETIC ALGORITHM DOCKED STATE
	_______________________________________________


Detailed state:  trans 0.232 -1.620 -8.873 quatxyzw 0.285680 0.298884 0.249178 0.875766 center 8.287 34.468 -0.670 ntor 10 -77.9688 -150.3053 28.7791 -55.2714 -99.9552 149.1394 -19.5466 61.1352 -151.2643 173.4883
State:	  0.232  -1.620  -8.873   0.592  0.619  0.516 57.729    -77.97 -150.31   28.78  -55.27  -99.96  149.14  -19.55   61.14 -151.26  173.49

DOCKED: MODEL       11
DOCKED: USER    Run = 11
DOCKED: USER    DPF = D:/Protein_go_brrr/autodock/final/AncB/heme_O2/dock.dpf
DOCKED: USER  
DOCKED: USER    Estimated Free Energy of Binding    =  -15.90 kcal/mol  [=(1)+(2)+(3)-(4)]
DOCKED: USER    Estimated Inhibition Constant, Ki   =    2.20 pM (picomolar)  [Temperature = 298.15 K]
DOCKED: USER    
DOCKED: USER    (1) Final Intermolecular Energy     =  -18.89 kcal/mol
DOCKED: USER        vdW + Hbond + desolv Energy     =  -15.99 kcal/mol
DOCKED: USER        Electrostatic Energy            =   -2.90 kcal/mol
DOCKED: USER    (2) Final Total Internal Energy     =   -2.07 kcal/mol
DOCKED: USER    (3) Torsional Free Energy           =   +2.98 kcal/mol
DOCKED: USER    (4) Unbound System's Energy  [=(2)] =   -2.07 kcal/mol
DOCKED: USER    
DOCKED: USER    
DOCKED: USER    NEWDPF move heme_O2_opt.pdbqt
DOCKED: USER    NEWDPF about 8.287000 34.468000 -0.670000
DOCKED: USER    NEWDPF tran0 0.231603 -1.620452 -8.873077
DOCKED: USER    NEWDPF quaternion0 0.285680 0.298884 0.249178 0.875766
DOCKED: USER    NEWDPF axisangle0 0.591794 0.619145 0.516178 57.728524
DOCKED: USER    NEWDPF quat0 0.591794 0.619145 0.516178 57.728524
DOCKED: USER    NEWDPF dihe0 -77.97 -150.31 28.78 -55.27 -99.96 149.14 -19.55 61.14 -151.26 173.49 
DOCKED: USER  keepresnum = 1 
DOCKED: USER  
DOCKED: REMARK  10 active torsions:
DOCKED: REMARK  status: ('A' for Active; 'I' for Inactive)
DOCKED: REMARK    1  A    between atoms: C_6  and  C_10 
DOCKED: REMARK    2  A    between atoms: C_10  and  C_11 
DOCKED: REMARK    3  A    between atoms: C_11  and  C_12 
DOCKED: REMARK    4  A    between atoms: C_12  and  O_14 
DOCKED: REMARK    5  A    between atoms: C_17  and  C_20 
DOCKED: REMARK    6  A    between atoms: C_24  and  C_27 
DOCKED: REMARK    7  A    between atoms: C_31  and  C_34 
DOCKED: REMARK    8  A    between atoms: C_34  and  C_35 
DOCKED: REMARK    9  A    between atoms: C_35  and  C_36 
DOCKED: REMARK   10  A    between atoms: C_36  and  O_38 
DOCKED: USER                              x       y       z     vdW  Elec       q    Type
DOCKED: USER                           _______ _______ _______ _____ _____    ______ ____
DOCKED: ROOT
DOCKED: ATOM      1  C   UNL d   1      -0.402  -1.214 -10.856 -0.27 +0.04    +0.064 A 
DOCKED: ATOM      2  C   UNL d   1      -2.651  -1.062  -6.676 -0.39 +0.02    +0.064 A 
DOCKED: ATOM      3  C   UNL d   1       1.313  -2.523  -4.385 -0.44 +0.01    +0.064 C 
DOCKED: ATOM      4  C   UNL d   1       3.772  -2.223  -8.620 -0.43 +0.02    +0.064 A 
DOCKED: ATOM      5  C   UNL d   1      -1.336  -1.052  -9.906 -0.30 +0.04    +0.066 A 
DOCKED: ATOM      6  C   UNL d   1      -2.652  -0.655 -10.162 -0.31 -0.02    -0.021 A 
DOCKED: ATOM      7  C   UNL d   1      -3.292  -0.569  -8.948 -0.34 -0.01    -0.025 A 
DOCKED: ATOM      8  C   UNL d   1      -2.364  -0.962  -7.988 -0.36 +0.03    +0.066 A 
DOCKED: ATOM      9  C   UNL d   1      -4.717  -0.099  -8.752 -0.36 +0.02    +0.051 C 
DOCKED: ATOM     10  C   UNL d   1      -1.726  -1.491  -5.626 -0.40 +0.02    +0.066 A 
DOCKED: ATOM     11  C   UNL d   1      -2.121  -1.735  -4.306 -0.48 -0.00    -0.021 A 
DOCKED: ATOM     12  C   UNL d   1      -0.995  -2.175  -3.633 -0.44 +0.00    +0.000 A 
DOCKED: ATOM     13  C   UNL d   1       0.048  -2.162  -4.600 -0.40 +0.01    +0.070 A 
DOCKED: ATOM     14  C   UNL d   1      -3.518  -1.581  -3.717 -0.56 +0.01    +0.052 C 
DOCKED: ATOM     15  C   UNL d   1       2.405  -2.492  -5.327 -0.40 +0.01    +0.066 A 
DOCKED: ATOM     16  C   UNL d   1       3.740  -2.726  -4.998 -0.51 -0.00    -0.021 A 
DOCKED: ATOM     17  C   UNL d   1       4.460  -2.645  -6.190 -0.51 +0.00    +0.000 A 
DOCKED: ATOM     18  C   UNL d   1       3.498  -2.366  -7.170 -0.42 +0.02    +0.070 A 
DOCKED: ATOM     19  C   UNL d   1       4.211  -2.949  -3.583 -0.38 +0.00    +0.052 C 
DOCKED: ATOM     20  C   UNL d   1       2.880  -1.913  -9.580 -0.45 +0.02    +0.066 A 
DOCKED: ATOM     21  C   UNL d   1       3.194  -1.811 -10.933 -0.47 -0.01    -0.025 A 
DOCKED: ATOM     22  C   UNL d   1       2.011  -1.550 -11.589 -0.06 -0.01    -0.021 A 
DOCKED: ATOM     23  C   UNL d   1       1.019  -1.486 -10.606 -0.17 +0.03    +0.066 A 
DOCKED: ATOM     24  C   UNL d   1       4.553  -1.950 -11.567 -0.41 +0.01    +0.051 C 
DOCKED: ATOM     25  N   UNL d   1      -1.141  -1.197  -8.572 -0.22 -0.12    -0.248 N 
DOCKED: ATOM     26  N   UNL d   1      -0.405  -1.741  -5.809 -0.25 -0.07    -0.248 N 
DOCKED: ATOM     27  N   UNL d   1       2.269  -2.202  -6.618 -0.24 -0.08    -0.248 N 
DOCKED: ATOM     28  N   UNL d   1       1.559  -1.662  -9.382 -0.15 -0.13    -0.248 N 
DOCKED: ATOM     29 FE   UNL d   1       0.587  -1.702  -7.607 -0.09 +0.00    +0.000 Fe
DOCKED: ATOM     30  O   UNL d   1       0.119  -0.242  -7.335 -0.72 +0.00    +0.000 OA
DOCKED: ATOM     31  O   UNL d   1       1.651  -0.546  -7.537 -1.09 +0.00    +0.000 OA
DOCKED: ENDROOT
DOCKED: BRANCH   6  32
DOCKED: ATOM     32  C   UNL d   1      -3.251  -0.238 -11.480 -0.23 +0.07    +0.052 C 
DOCKED: BRANCH  32  33
DOCKED: ATOM     33  C   UNL d   1      -2.680   1.078 -12.000 -0.22 +0.13    +0.115 C 
DOCKED: BRANCH  33  34
DOCKED: ATOM     34  C   UNL d   1      -2.857   1.233 -13.491 -0.18 +0.22    +0.139 C 
DOCKED: ATOM     35  O   UNL d   1      -3.656   2.047 -13.922 -0.41 -1.41    -0.650 OA
DOCKED: BRANCH  34  36
DOCKED: ATOM     36  O   UNL d   1      -2.168   0.468 -14.363 -0.13 -1.23    -0.776 OA
DOCKED: ATOM     37  H   UNL d   1      -1.243   0.640 -14.574 +0.04 +0.20    +0.167 HD
DOCKED: ENDBRANCH  34  36
DOCKED: ENDBRANCH  33  34
DOCKED: ENDBRANCH  32  33
DOCKED: ENDBRANCH   6  32
DOCKED: BRANCH  22  38
DOCKED: ATOM     38  C   UNL d   1       1.862  -1.314 -13.069 -0.18 +0.03    +0.052 C 
DOCKED: BRANCH  38  39
DOCKED: ATOM     39  C   UNL d   1       2.132   0.138 -13.457 -0.28 +0.05    +0.115 C 
DOCKED: BRANCH  39  40
DOCKED: ATOM     40  C   UNL d   1       0.940   0.791 -14.112 -0.17 +0.09    +0.139 C 
DOCKED: ATOM     41  O   UNL d   1       0.559   0.400 -15.203 +0.05 -0.46    -0.650 OA
DOCKED: BRANCH  40  42
DOCKED: ATOM     42  O   UNL d   1       0.254   1.769 -13.490 +0.05 -0.65    -0.776 OA
DOCKED: ATOM     43  H   UNL d   1      -0.696   1.880 -13.620 +0.05 +0.18    +0.167 HD
DOCKED: ENDBRANCH  40  42
DOCKED: ENDBRANCH  39  40
DOCKED: ENDBRANCH  38  39
DOCKED: ENDBRANCH  22  38
DOCKED: BRANCH  12  44
DOCKED: ATOM     44  C   UNL d   1      -1.030  -2.550  -2.167 -0.47 +0.00    +0.004 C 
DOCKED: ATOM     45  C   UNL d   1      -0.019  -2.553  -1.298 -0.60 +0.00    +0.012 C 
DOCKED: ENDBRANCH  12  44
DOCKED: BRANCH  17  46
DOCKED: ATOM     46  C   UNL d   1       5.938  -2.747  -6.461 -0.62 +0.00    +0.004 C 
DOCKED: ATOM     47  C   UNL d   1       6.920  -1.954  -6.012 -0.66 +0.00    +0.012 C 
DOCKED: ENDBRANCH  17  46
DOCKED: TORSDOF 10
DOCKED: TER
DOCKED: ENDMDL
________________________________________________________________________________


	BEGINNING GENETIC ALGORITHM DOCKING 12 of 100
Run: 12 Seed: 1140703093 1523629893 [ Run 12 of 100 GA/GALS ]
Beginning LAMARCKIAN GENETIC ALGORITHM (LGA), with a maximum of 25000000 energy evaluations.

Final-Value: -20.603


	FINAL GENETIC ALGORITHM DOCKED STATE
	_______________________________________________


Detailed state:  trans 0.210 -1.548 -8.662 quatxyzw 0.277929 0.308350 0.220527 0.882634 center 8.287 34.468 -0.670 ntor 10 21.0645 166.0822 23.5390 12.8956 -123.6207 -166.2020 -1.4824 -66.7077 -177.2837 53.6689
State:	  0.210  -1.548  -8.662   0.591  0.656  0.469 56.076     21.06  166.08   23.54   12.90 -123.62 -166.20   -1.48  -66.71 -177.28   53.67

DOCKED: MODEL       12
DOCKED: USER    Run = 12
DOCKED: USER    DPF = D:/Protein_go_brrr/autodock/final/AncB/heme_O2/dock.dpf
DOCKED: USER  
DOCKED: USER    Estimated Free Energy of Binding    =  -15.71 kcal/mol  [=(1)+(2)+(3)-(4)]
DOCKED: USER    Estimated Inhibition Constant, Ki   =    3.05 pM (picomolar)  [Temperature = 298.15 K]
DOCKED: USER    
DOCKED: USER    (1) Final Intermolecular Energy     =  -18.69 kcal/mol
DOCKED: USER        vdW + Hbond + desolv Energy     =  -15.61 kcal/mol
DOCKED: USER        Electrostatic Energy            =   -3.09 kcal/mol
DOCKED: USER    (2) Final Total Internal Energy     =   -1.91 kcal/mol
DOCKED: USER    (3) Torsional Free Energy           =   +2.98 kcal/mol
DOCKED: USER    (4) Unbound System's Energy  [=(2)] =   -1.91 kcal/mol
DOCKED: USER    
DOCKED: USER    
DOCKED: USER    NEWDPF move heme_O2_opt.pdbqt
DOCKED: USER    NEWDPF about 8.287000 34.468000 -0.670000
DOCKED: USER    NEWDPF tran0 0.210023 -1.547921 -8.661615
DOCKED: USER    NEWDPF quaternion0 0.277929 0.308350 0.220527 0.882634
DOCKED: USER    NEWDPF axisangle0 0.591263 0.655980 0.469147 56.076417
DOCKED: USER    NEWDPF quat0 0.591263 0.655980 0.469147 56.076417
DOCKED: USER    NEWDPF dihe0 21.06 166.08 23.54 12.90 -123.62 -166.20 -1.48 -66.71 -177.28 53.67 
DOCKED: USER  keepresnum = 1 
DOCKED: USER  
DOCKED: REMARK  10 active torsions:
DOCKED: REMARK  status: ('A' for Active; 'I' for Inactive)
DOCKED: REMARK    1  A    between atoms: C_6  and  C_10 
DOCKED: REMARK    2  A    between atoms: C_10  and  C_11 
DOCKED: REMARK    3  A    between atoms: C_11  and  C_12 
DOCKED: REMARK    4  A    between atoms: C_12  and  O_14 
DOCKED: REMARK    5  A    between atoms: C_17  and  C_20 
DOCKED: REMARK    6  A    between atoms: C_24  and  C_27 
DOCKED: REMARK    7  A    between atoms: C_31  and  C_34 
DOCKED: REMARK    8  A    between atoms: C_34  and  C_35 
DOCKED: REMARK    9  A    between atoms: C_35  and  C_36 
DOCKED: REMARK   10  A    between atoms: C_36  and  O_38 
DOCKED: USER                              x       y       z     vdW  Elec       q    Type
DOCKED: USER                           _______ _______ _______ _____ _____    ______ ____
DOCKED: ROOT
DOCKED: ATOM      1  C   UNL d   1      -0.448  -1.191 -10.646 -0.24 +0.04    +0.064 A 
DOCKED: ATOM      2  C   UNL d   1      -2.703  -1.165  -6.466 -0.39 +0.02    +0.064 A 
DOCKED: ATOM      3  C   UNL d   1       1.346  -2.361  -4.170 -0.39 +0.01    +0.064 C 
DOCKED: ATOM      4  C   UNL d   1       3.781  -1.923  -8.406 -0.42 +0.02    +0.064 A 
DOCKED: ATOM      5  C   UNL d   1      -1.391  -1.085  -9.697 -0.30 +0.04    +0.066 A 
DOCKED: ATOM      6  C   UNL d   1      -2.729  -0.773  -9.954 -0.32 -0.02    -0.021 A 
DOCKED: ATOM      7  C   UNL d   1      -3.374  -0.723  -8.740 -0.33 -0.01    -0.025 A 
DOCKED: ATOM      8  C   UNL d   1      -2.422  -1.052  -7.779 -0.36 +0.03    +0.066 A 
DOCKED: ATOM      9  C   UNL d   1      -4.826  -0.343  -8.546 -0.36 +0.02    +0.051 C 
DOCKED: ATOM     10  C   UNL d   1      -1.752  -1.530  -5.415 -0.41 +0.02    +0.066 A 
DOCKED: ATOM     11  C   UNL d   1      -2.131  -1.792  -4.093 -0.49 -0.00    -0.021 A 
DOCKED: ATOM     12  C   UNL d   1      -0.979  -2.156  -3.419 -0.43 +0.00    +0.000 A 
DOCKED: ATOM     13  C   UNL d   1       0.061  -2.082  -4.387 -0.39 +0.01    +0.070 A 
DOCKED: ATOM     14  C   UNL d   1      -3.535  -1.725  -3.505 -0.59 +0.01    +0.052 C 
DOCKED: ATOM     15  C   UNL d   1       2.435  -2.264  -5.113 -0.38 +0.01    +0.066 A 
DOCKED: ATOM     16  C   UNL d   1       3.782  -2.411  -4.783 -0.51 -0.00    -0.021 A 
DOCKED: ATOM     17  C   UNL d   1       4.495  -2.289  -5.975 -0.51 +0.00    +0.000 A 
DOCKED: ATOM     18  C   UNL d   1       3.517  -2.076  -6.956 -0.42 +0.02    +0.070 A 
DOCKED: ATOM     19  C   UNL d   1       4.266  -2.597  -3.367 -0.43 +0.00    +0.052 C 
DOCKED: ATOM     20  C   UNL d   1       2.872  -1.675  -9.368 -0.42 +0.02    +0.066 A 
DOCKED: ATOM     21  C   UNL d   1       3.178  -1.558 -10.721 -0.47 -0.01    -0.025 A 
DOCKED: ATOM     22  C   UNL d   1       1.982  -1.377 -11.378 -0.24 -0.01    -0.021 A 
DOCKED: ATOM     23  C   UNL d   1       0.987  -1.371 -10.395 -0.17 +0.03    +0.066 A 
DOCKED: ATOM     24  C   UNL d   1       4.544  -1.614 -11.355 -0.41 +0.01    +0.051 C 
DOCKED: ATOM     25  N   UNL d   1      -1.186  -1.211  -8.363 -0.22 -0.12    -0.248 N 
DOCKED: ATOM     26  N   UNL d   1      -0.418  -1.695  -5.597 -0.25 -0.06    -0.248 N 
DOCKED: ATOM     27  N   UNL d   1       2.280  -1.989  -6.405 -0.24 -0.07    -0.248 N 
DOCKED: ATOM     28  N   UNL d   1       1.537  -1.507  -9.171 -0.03 -0.14    -0.248 N 
DOCKED: ATOM     29 FE   UNL d   1       0.569  -1.601  -7.396 -0.09 +0.00    +0.000 Fe
DOCKED: ATOM     30  O   UNL d   1       0.009  -0.173  -7.130 -0.28 +0.00    +0.000 OA
DOCKED: ATOM     31  O   UNL d   1       1.558  -0.380  -7.330 -1.06 +0.00    +0.000 OA
DOCKED: ENDROOT
DOCKED: BRANCH   6  32
DOCKED: ATOM     32  C   UNL d   1      -3.353  -0.401 -11.274 -0.26 +0.06    +0.052 C 
DOCKED: BRANCH  32  33
DOCKED: ATOM     33  C   UNL d   1      -3.402   1.107 -11.502 -0.16 +0.12    +0.115 C 
DOCKED: BRANCH  33  34
DOCKED: ATOM     34  C   UNL d   1      -3.946   1.465 -12.863 -0.11 +0.21    +0.139 C 
DOCKED: ATOM     35  O   UNL d   1      -5.152   1.555 -13.026 -0.06 -0.84    -0.650 OA
DOCKED: BRANCH  34  36
DOCKED: ATOM     36  O   UNL d   1      -3.128   1.663 -13.917 -0.26 -1.42    -0.776 OA
DOCKED: ATOM     37  H   UNL d   1      -2.233   1.305 -13.944 +0.04 +0.25    +0.167 HD
DOCKED: ENDBRANCH  34  36
DOCKED: ENDBRANCH  33  34
DOCKED: ENDBRANCH  32  33
DOCKED: ENDBRANCH   6  32
DOCKED: BRANCH  22  38
DOCKED: ATOM     38  C   UNL d   1       1.818  -1.157 -12.859 -0.29 +0.03    +0.052 C 
DOCKED: BRANCH  38  39
DOCKED: ATOM     39  C   UNL d   1       0.435  -1.569 -13.359 -0.07 +0.10    +0.115 C 
DOCKED: BRANCH  39  40
DOCKED: ATOM     40  C   UNL d   1      -0.390  -0.390 -13.810 -0.19 +0.15    +0.139 C 
DOCKED: ATOM     41  O   UNL d   1      -0.122   0.728 -13.403 +0.03 -0.56    -0.650 OA
DOCKED: BRANCH  40  42
DOCKED: ATOM     42  O   UNL d   1      -1.392  -0.541 -14.699 -0.33 -1.31    -0.776 OA
DOCKED: ATOM     43  H   UNL d   1      -2.023   0.167 -14.873 +0.03 +0.26    +0.167 HD
DOCKED: ENDBRANCH  40  42
DOCKED: ENDBRANCH  39  40
DOCKED: ENDBRANCH  38  39
DOCKED: ENDBRANCH  22  38
DOCKED: BRANCH  12  44
DOCKED: ATOM     44  C   UNL d   1      -0.991  -2.526  -1.951 -0.50 +0.00    +0.004 C 
DOCKED: ATOM     45  C   UNL d   1       0.039  -2.553  -1.105 -0.61 +0.00    +0.012 C 
DOCKED: ENDBRANCH  12  44
DOCKED: BRANCH  17  46
DOCKED: ATOM     46  C   UNL d   1       5.976  -2.299  -6.245 -0.66 +0.00    +0.004 C 
DOCKED: ATOM     47  C   UNL d   1       6.974  -2.545  -5.386 -0.65 +0.00    +0.012 C 
DOCKED: ENDBRANCH  17  46
DOCKED: TORSDOF 10
DOCKED: TER
DOCKED: ENDMDL
________________________________________________________________________________


	BEGINNING GENETIC ALGORITHM DOCKING 13 of 100
Run: 13 Seed: 874973823 1737839030 [ Run 13 of 100 GA/GALS ]
Beginning LAMARCKIAN GENETIC ALGORITHM (LGA), with a maximum of 25000000 energy evaluations.

Final-Value: -12.339


	FINAL GENETIC ALGORITHM DOCKED STATE
	_______________________________________________


Detailed state:  trans -9.671 -19.135 10.196 quatxyzw 0.232610 0.756001 0.018143 0.611576 center 8.287 34.468 -0.670 ntor 10 -46.0683 -150.0982 48.6883 -102.4259 73.6248 156.4913 -143.5449 100.7588 176.7759 180.0000
State:	 -9.671 -19.135  10.196   0.294  0.956  0.023 104.593    -46.07 -150.10   48.69 -102.43   73.62  156.49 -143.54  100.76  176.78  180.00

DOCKED: MODEL       13
DOCKED: USER    Run = 13
DOCKED: USER    DPF = D:/Protein_go_brrr/autodock/final/AncB/heme_O2/dock.dpf
DOCKED: USER  
DOCKED: USER    Estimated Free Energy of Binding    =   -7.14 kcal/mol  [=(1)+(2)+(3)-(4)]
DOCKED: USER    Estimated Inhibition Constant, Ki   =    5.88 uM (micromolar)  [Temperature = 298.15 K]
DOCKED: USER    
DOCKED: USER    (1) Final Intermolecular Energy     =  -10.12 kcal/mol
DOCKED: USER        vdW + Hbond + desolv Energy     =   -4.70 kcal/mol
DOCKED: USER        Electrostatic Energy            =   -5.42 kcal/mol
DOCKED: USER    (2) Final Total Internal Energy     =   -2.22 kcal/mol
DOCKED: USER    (3) Torsional Free Energy           =   +2.98 kcal/mol
DOCKED: USER    (4) Unbound System's Energy  [=(2)] =   -2.22 kcal/mol
DOCKED: USER    
DOCKED: USER    
DOCKED: USER    NEWDPF move heme_O2_opt.pdbqt
DOCKED: USER    NEWDPF about 8.287000 34.468000 -0.670000
DOCKED: USER    NEWDPF tran0 -9.671003 -19.134950 10.195667
DOCKED: USER    NEWDPF quaternion0 0.232610 0.756001 0.018143 0.611576
DOCKED: USER    NEWDPF axisangle0 0.294002 0.955530 0.022931 104.592880
DOCKED: USER    NEWDPF quat0 0.294002 0.955530 0.022931 104.592880
DOCKED: USER    NEWDPF dihe0 -46.07 -150.10 48.69 -102.43 73.62 156.49 -143.54 100.76 176.78 180.00 
DOCKED: USER  keepresnum = 1 
DOCKED: USER  
DOCKED: REMARK  10 active torsions:
DOCKED: REMARK  status: ('A' for Active; 'I' for Inactive)
DOCKED: REMARK    1  A    between atoms: C_6  and  C_10 
DOCKED: REMARK    2  A    between atoms: C_10  and  C_11 
DOCKED: REMARK    3  A    between atoms: C_11  and  C_12 
DOCKED: REMARK    4  A    between atoms: C_12  and  O_14 
DOCKED: REMARK    5  A    between atoms: C_17  and  C_20 
DOCKED: REMARK    6  A    between atoms: C_24  and  C_27 
DOCKED: REMARK    7  A    between atoms: C_31  and  C_34 
DOCKED: REMARK    8  A    between atoms: C_34  and  C_35 
DOCKED: REMARK    9  A    between atoms: C_35  and  C_36 
DOCKED: REMARK   10  A    between atoms: C_36  and  O_38 
DOCKED: USER                              x       y       z     vdW  Elec       q    Type
DOCKED: USER                           _______ _______ _______ _____ _____    ______ ____
DOCKED: ROOT
DOCKED: ATOM      1  C   UNL d   1      -8.444 -19.464   8.497 -0.02 +0.09    +0.064 A 
DOCKED: ATOM      2  C   UNL d   1     -13.029 -20.351   9.363 -0.05 +0.03    +0.064 A 
DOCKED: ATOM      3  C   UNL d   1     -12.619 -18.607  13.822 -0.10 +0.02    +0.064 C 
DOCKED: ATOM      4  C   UNL d   1      -8.021 -17.251  12.782 -0.09 +0.03    +0.064 A 
DOCKED: ATOM      5  C   UNL d   1      -9.725 -19.846   8.368 +0.02 +0.09    +0.066 A 
DOCKED: ATOM      6  C   UNL d   1     -10.254 -20.434   7.216 -0.05 -0.02    -0.021 A 
DOCKED: ATOM      7  C   UNL d   1     -11.592 -20.652   7.450 -0.05 -0.02    -0.025 A 
DOCKED: ATOM      8  C   UNL d   1     -11.832 -20.235   8.756 -0.07 +0.05    +0.066 A 
DOCKED: ATOM      9  C   UNL d   1     -12.569 -21.206   6.436 -0.02 +0.03    +0.051 C 
DOCKED: ATOM     10  C   UNL d   1     -13.336 -19.952  10.737 -0.05 +0.03    +0.066 A 
DOCKED: ATOM     11  C   UNL d   1     -14.549 -20.245  11.371 -0.03 -0.01    -0.021 A 
DOCKED: ATOM     12  C   UNL d   1     -14.444 -19.766  12.664 -0.04 +0.00    +0.000 A 
DOCKED: ATOM     13  C   UNL d   1     -13.148 -19.184  12.744 -0.07 +0.02    +0.070 A 
DOCKED: ATOM     14  C   UNL d   1     -15.748 -20.975  10.776 -0.01 +0.01    +0.052 C 
DOCKED: ATOM     15  C   UNL d   1     -11.326 -17.976  13.934 -0.04 +0.02    +0.066 A 
DOCKED: ATOM     16  C   UNL d   1     -10.896 -17.244  15.040 -0.09 -0.00    -0.021 A 
DOCKED: ATOM     17  C   UNL d   1      -9.588 -16.847  14.766 -0.09 +0.00    +0.000 A 
DOCKED: ATOM     18  C   UNL d   1      -9.313 -17.374  13.497 -0.11 +0.03    +0.070 A 
DOCKED: ATOM     19  C   UNL d   1     -11.782 -16.947  16.224 -0.10 +0.01    +0.052 C 
DOCKED: ATOM     20  C   UNL d   1      -7.738 -17.707  11.546 -0.10 +0.05    +0.066 A 
DOCKED: ATOM     21  C   UNL d   1      -6.496 -17.576  10.932 -0.06 -0.02    -0.025 A 
DOCKED: ATOM     22  C   UNL d   1      -6.590 -18.225   9.721 -0.06 -0.02    -0.021 A 
DOCKED: ATOM     23  C   UNL d   1      -7.897 -18.714   9.633 -0.03 +0.09    +0.066 A 
DOCKED: ATOM     24  C   UNL d   1      -5.282 -16.865  11.471 -0.02 +0.02    +0.051 C 
DOCKED: ATOM     25  N   UNL d   1     -10.697 -19.678   9.298 -0.07 -0.30    -0.248 N 
DOCKED: ATOM     26  N   UNL d   1     -12.483 -19.298  11.566 -0.06 -0.13    -0.248 N 
DOCKED: ATOM     27  N   UNL d   1     -10.404 -17.992  12.975 -0.09 -0.13    -0.248 N 
DOCKED: ATOM     28  N   UNL d   1      -8.604 -18.358  10.725 -0.09 -0.30    -0.248 N 
DOCKED: ATOM     29 FE   UNL d   1     -10.529 -18.823  11.145 -0.03 +0.00    +0.000 Fe
DOCKED: ATOM     30  O   UNL d   1     -11.401 -18.003  10.150 -0.51 +0.00    +0.000 OA
DOCKED: ATOM     31  O   UNL d   1     -10.416 -17.255  11.125 -0.96 +0.00    +0.000 OA
DOCKED: ENDROOT
DOCKED: BRANCH   6  32
DOCKED: ATOM     32  C   UNL d   1      -9.566 -20.659   5.894 -0.03 +0.05    +0.052 C 
DOCKED: BRANCH  32  33
DOCKED: ATOM     33  C   UNL d   1      -9.914 -19.596   4.857 -0.06 +0.13    +0.115 C 
DOCKED: BRANCH  33  34
DOCKED: ATOM     34  C   UNL d   1     -10.121 -18.235   5.475 -0.05 +0.27    +0.139 C 
DOCKED: ATOM     35  O   UNL d   1     -11.166 -17.989   6.055 -0.41 -1.27    -0.650 OA
DOCKED: BRANCH  34  36
DOCKED: ATOM     36  O   UNL d   1      -9.185 -17.268   5.376 -0.28 -2.40    -0.776 OA
DOCKED: ATOM     37  H   UNL d   1      -8.251 -17.444   5.537 +0.03 +0.53    +0.167 HD
DOCKED: ENDBRANCH  34  36
DOCKED: ENDBRANCH  33  34
DOCKED: ENDBRANCH  32  33
DOCKED: ENDBRANCH   6  32
DOCKED: BRANCH  22  38
DOCKED: ATOM     38  C   UNL d   1      -5.500 -18.310   8.683 -0.03 +0.04    +0.052 C 
DOCKED: BRANCH  38  39
DOCKED: ATOM     39  C   UNL d   1      -5.368 -17.024   7.872 -0.06 +0.12    +0.115 C 
DOCKED: BRANCH  39  40
DOCKED: ATOM     40  C   UNL d   1      -6.399 -16.925   6.775 -0.09 +0.27    +0.139 C 
DOCKED: ATOM     41  O   UNL d   1      -6.451 -17.788   5.913 -0.06 -1.27    -0.650 OA
DOCKED: BRANCH  40  42
DOCKED: ATOM     42  O   UNL d   1      -7.301 -15.925   6.756 -0.30 -2.18    -0.776 OA
DOCKED: ATOM     43  H   UNL d   1      -8.191 -16.055   6.407 +0.03 +0.60    +0.167 HD
DOCKED: ENDBRANCH  40  42
DOCKED: ENDBRANCH  39  40
DOCKED: ENDBRANCH  38  39
DOCKED: ENDBRANCH  22  38
DOCKED: BRANCH  12  44
DOCKED: ATOM     44  C   UNL d   1     -15.569 -19.906  13.667 -0.02 +0.00    +0.004 C 
DOCKED: ATOM     45  C   UNL d   1     -16.034 -18.985  14.510 -0.02 +0.00    +0.012 C 
DOCKED: ENDBRANCH  12  44
DOCKED: BRANCH  17  46
DOCKED: ATOM     46  C   UNL d   1      -8.630 -15.991  15.551 -0.08 +0.00    +0.004 C 
DOCKED: ATOM     47  C   UNL d   1      -8.209 -14.750  15.274 -0.12 +0.00    +0.012 C 
DOCKED: ENDBRANCH  17  46
DOCKED: TORSDOF 10
DOCKED: TER
DOCKED: ENDMDL
________________________________________________________________________________


	BEGINNING GENETIC ALGORITHM DOCKING 14 of 100
Run: 14 Seed: 878175099 1047601376 [ Run 14 of 100 GA/GALS ]
Beginning LAMARCKIAN GENETIC ALGORITHM (LGA), with a maximum of 25000000 energy evaluations.

Final-Value: -13.605


	FINAL GENETIC ALGORITHM DOCKED STATE
	_______________________________________________


Detailed state:  trans -1.141 0.157 -12.627 quatxyzw 0.523820 -0.419134 0.688348 -0.275891 center 8.287 34.468 -0.670 ntor 10 26.3930 -126.5443 -86.7929 -115.7901 66.4063 154.7044 180.0000 96.5704 -157.0136 -170.7336
State:	 -1.141   0.157 -12.627   0.545 -0.436  0.716 -147.970     26.39 -126.54  -86.79 -115.79   66.41  154.70  180.00   96.57 -157.01 -170.73

DOCKED: MODEL       14
DOCKED: USER    Run = 14
DOCKED: USER    DPF = D:/Protein_go_brrr/autodock/final/AncB/heme_O2/dock.dpf
DOCKED: USER  
DOCKED: USER    Estimated Free Energy of Binding    =   -8.36 kcal/mol  [=(1)+(2)+(3)-(4)]
DOCKED: USER    Estimated Inhibition Constant, Ki   =  739.90 nM (nanomolar)  [Temperature = 298.15 K]
DOCKED: USER    
DOCKED: USER    (1) Final Intermolecular Energy     =  -11.35 kcal/mol
DOCKED: USER        vdW + Hbond + desolv Energy     =   -8.40 kcal/mol
DOCKED: USER        Electrostatic Energy            =   -2.94 kcal/mol
DOCKED: USER    (2) Final Total Internal Energy     =   -2.26 kcal/mol
DOCKED: USER    (3) Torsional Free Energy           =   +2.98 kcal/mol
DOCKED: USER    (4) Unbound System's Energy  [=(2)] =   -2.26 kcal/mol
DOCKED: USER    
DOCKED: USER    
DOCKED: USER    NEWDPF move heme_O2_opt.pdbqt
DOCKED: USER    NEWDPF about 8.287000 34.468000 -0.670000
DOCKED: USER    NEWDPF tran0 -1.141342 0.157244 -12.627129
DOCKED: USER    NEWDPF quaternion0 0.523820 -0.419134 0.688348 -0.275891
DOCKED: USER    NEWDPF axisangle0 0.544971 -0.436058 0.716143 -147.969710
DOCKED: USER    NEWDPF quat0 0.544971 -0.436058 0.716143 -147.969710
DOCKED: USER    NEWDPF dihe0 26.39 -126.54 -86.79 -115.79 66.41 154.70 180.00 96.57 -157.01 -170.73 
DOCKED: USER  keepresnum = 1 
DOCKED: USER  
DOCKED: REMARK  10 active torsions:
DOCKED: REMARK  status: ('A' for Active; 'I' for Inactive)
DOCKED: REMARK    1  A    between atoms: C_6  and  C_10 
DOCKED: REMARK    2  A    between atoms: C_10  and  C_11 
DOCKED: REMARK    3  A    between atoms: C_11  and  C_12 
DOCKED: REMARK    4  A    between atoms: C_12  and  O_14 
DOCKED: REMARK    5  A    between atoms: C_17  and  C_20 
DOCKED: REMARK    6  A    between atoms: C_24  and  C_27 
DOCKED: REMARK    7  A    between atoms: C_31  and  C_34 
DOCKED: REMARK    8  A    between atoms: C_34  and  C_35 
DOCKED: REMARK    9  A    between atoms: C_35  and  C_36 
DOCKED: REMARK   10  A    between atoms: C_36  and  O_38 
DOCKED: USER                              x       y       z     vdW  Elec       q    Type
DOCKED: USER                           _______ _______ _______ _____ _____    ______ ____
DOCKED: ROOT
DOCKED: ATOM      1  C   UNL d   1      -1.467   0.662 -14.661 -0.12 +0.08    +0.064 A 
DOCKED: ATOM      2  C   UNL d   1       2.231  -1.264 -12.387 -0.25 +0.03    +0.064 A 
DOCKED: ATOM      3  C   UNL d   1      -0.093  -0.996  -8.189 +0.37 +0.04    +0.064 C 
DOCKED: ATOM      4  C   UNL d   1      -4.084   0.545 -10.590 -0.23 +0.05    +0.064 A 
DOCKED: ATOM      5  C   UNL d   1      -0.272   0.115 -14.386 -0.14 +0.06    +0.066 A 
DOCKED: ATOM      6  C   UNL d   1       0.723  -0.115 -15.340 -0.10 -0.01    -0.021 A 
DOCKED: ATOM      7  C   UNL d   1       1.777  -0.713 -14.690 -0.16 -0.01    -0.025 A 
DOCKED: ATOM      8  C   UNL d   1       1.416  -0.787 -13.348 -0.22 +0.04    +0.066 A 
DOCKED: ATOM      9  C   UNL d   1       3.042  -1.203 -15.361 -0.19 +0.02    +0.051 C 
DOCKED: ATOM     10  C   UNL d   1       1.917  -1.347 -10.960 -0.28 +0.03    +0.066 A 
DOCKED: ATOM     11  C   UNL d   1       2.857  -1.697  -9.984 -0.48 -0.01    -0.021 A 
DOCKED: ATOM     12  C   UNL d   1       2.210  -1.607  -8.765 -0.30 +0.00    +0.000 A 
DOCKED: ATOM     13  C   UNL d   1       0.880  -1.211  -9.074 +0.21 +0.04    +0.070 A 
DOCKED: ATOM     14  C   UNL d   1       4.317  -2.073 -10.203 -0.51 +0.01    +0.052 C 
DOCKED: ATOM     15  C   UNL d   1      -1.462  -0.628  -8.463 -0.35 +0.03    +0.066 A 
DOCKED: ATOM     16  C   UNL d   1      -2.474  -0.577  -7.505 -0.44 -0.01    -0.021 A 
DOCKED: ATOM     17  C   UNL d   1      -3.622  -0.141  -8.167 -0.42 +0.00    +0.000 A 
DOCKED: ATOM     18  C   UNL d   1      -3.218   0.046  -9.497 -0.31 +0.04    +0.070 A 
DOCKED: ATOM     19  C   UNL d   1      -2.271  -0.998  -6.071 -0.45 +0.01    +0.052 C 
DOCKED: ATOM     20  C   UNL d   1      -3.741   0.695 -11.884 -0.21 +0.08    +0.066 A 
DOCKED: ATOM     21  C   UNL d   1      -4.596   1.187 -12.866 -0.15 -0.03    -0.025 A 
DOCKED: ATOM     22  C   UNL d   1      -3.859   1.253 -14.027 -0.14 -0.04    -0.021 A 
DOCKED: ATOM     23  C   UNL d   1      -2.581   0.780 -13.713 -0.17 +0.10    +0.066 A 
DOCKED: ATOM     24  C   UNL d   1      -6.044   1.571 -12.706 -0.13 +0.05    +0.051 C 
DOCKED: ATOM     25  N   UNL d   1       0.128  -0.338 -13.172 -0.13 -0.21    -0.248 N 
DOCKED: ATOM     26  N   UNL d   1       0.709  -1.059 -10.412 +0.27 -0.13    -0.248 N 
DOCKED: ATOM     27  N   UNL d   1      -1.924  -0.326  -9.673 -0.20 -0.15    -0.248 N 
DOCKED: ATOM     28  N   UNL d   1      -2.527   0.400 -12.420 -0.15 -0.34    -0.248 N 
DOCKED: ATOM     29 FE   UNL d   1      -0.923  -0.325 -11.421 -0.06 +0.00    +0.000 Fe
DOCKED: ATOM     30  O   UNL d   1      -0.665  -1.751 -11.988 -0.38 +0.00    +0.000 OA
DOCKED: ATOM     31  O   UNL d   1      -2.059  -1.409 -11.339 -0.57 +0.00    +0.000 OA
DOCKED: ENDROOT
DOCKED: BRANCH   6  32
DOCKED: ATOM     32  C   UNL d   1       0.637   0.091 -16.830 -0.04 +0.03    +0.052 C 
DOCKED: BRANCH  32  33
DOCKED: ATOM     33  C   UNL d   1      -0.221  -0.962 -17.525 -0.04 +0.08    +0.115 C 
DOCKED: BRANCH  33  34
DOCKED: ATOM     34  C   UNL d   1      -0.745  -2.001 -16.566 -0.11 +0.14    +0.139 C 
DOCKED: ATOM     35  O   UNL d   1      -0.048  -2.960 -16.275 +0.01 -0.55    -0.650 OA
DOCKED: BRANCH  34  36
DOCKED: ATOM     36  O   UNL d   1      -1.985  -1.912 -16.040 -0.10 -1.57    -0.776 OA
DOCKED: ATOM     37  H   UNL d   1      -2.700  -1.451 -16.494 +0.01 +0.29    +0.167 HD
DOCKED: ENDBRANCH  34  36
DOCKED: ENDBRANCH  33  34
DOCKED: ENDBRANCH  32  33
DOCKED: ENDBRANCH   6  32
DOCKED: BRANCH  22  38
DOCKED: ATOM     38  C   UNL d   1      -4.378   1.686 -15.374 -0.05 +0.08    +0.052 C 
DOCKED: BRANCH  38  39
DOCKED: ATOM     39  C   UNL d   1      -5.368   0.685 -15.966 -0.04 +0.12    +0.115 C 
DOCKED: BRANCH  39  40
DOCKED: ATOM     40  C   UNL d   1      -4.681  -0.439 -16.701 -0.04 +0.16    +0.139 C 
DOCKED: ATOM     41  O   UNL d   1      -3.976  -0.189 -17.666 +0.01 -0.57    -0.650 OA
DOCKED: BRANCH  40  42
DOCKED: ATOM     42  O   UNL d   1      -4.791  -1.714 -16.283 -0.00 -1.36    -0.776 OA
DOCKED: ATOM     43  H   UNL d   1      -4.013  -2.247 -16.079 +0.02 +0.42    +0.167 HD
DOCKED: ENDBRANCH  40  42
DOCKED: ENDBRANCH  39  40
DOCKED: ENDBRANCH  38  39
DOCKED: ENDBRANCH  22  38
DOCKED: BRANCH  12  44
DOCKED: ATOM     44  C   UNL d   1       2.914  -1.907  -7.458 -0.52 +0.00    +0.004 C 
DOCKED: ATOM     45  C   UNL d   1       3.598  -1.065  -6.684 -0.52 +0.00    +0.012 C 
DOCKED: ENDBRANCH  12  44
DOCKED: BRANCH  17  46
DOCKED: ATOM     46  C   UNL d   1      -5.032   0.050  -7.677 -0.29 +0.00    +0.004 C 
DOCKED: ATOM     47  C   UNL d   1      -6.155  -0.512  -8.144 -0.31 +0.00    +0.012 C 
DOCKED: ENDBRANCH  17  46
DOCKED: TORSDOF 10
DOCKED: TER
DOCKED: ENDMDL
________________________________________________________________________________


	BEGINNING GENETIC ALGORITHM DOCKING 15 of 100
Run: 15 Seed: 1281571882 843383607 [ Run 15 of 100 GA/GALS ]
Beginning LAMARCKIAN GENETIC ALGORITHM (LGA), with a maximum of 25000000 energy evaluations.

Final-Value: -18.680


	FINAL GENETIC ALGORITHM DOCKED STATE
	_______________________________________________


Detailed state:  trans 0.319 -1.552 -8.759 quatxyzw 0.267638 0.342780 0.224587 0.872028 center 8.287 34.468 -0.670 ntor 10 -106.9184 179.1816 20.1638 88.9149 85.3629 22.0908 -8.5671 -57.0971 -147.5767 -164.2241
State:	  0.319  -1.552  -8.759   0.547  0.700  0.459 58.610   -106.92  179.18   20.16   88.91   85.36   22.09   -8.57  -57.10 -147.58 -164.22

DOCKED: MODEL       15
DOCKED: USER    Run = 15
DOCKED: USER    DPF = D:/Protein_go_brrr/autodock/final/AncB/heme_O2/dock.dpf
DOCKED: USER  
DOCKED: USER    Estimated Free Energy of Binding    =  -15.10 kcal/mol  [=(1)+(2)+(3)-(4)]
DOCKED: USER    Estimated Inhibition Constant, Ki   =    8.54 pM (picomolar)  [Temperature = 298.15 K]
DOCKED: USER    
DOCKED: USER    (1) Final Intermolecular Energy     =  -18.08 kcal/mol
DOCKED: USER        vdW + Hbond + desolv Energy     =  -15.74 kcal/mol
DOCKED: USER        Electrostatic Energy            =   -2.34 kcal/mol
DOCKED: USER    (2) Final Total Internal Energy     =   -0.60 kcal/mol
DOCKED: USER    (3) Torsional Free Energy           =   +2.98 kcal/mol
DOCKED: USER    (4) Unbound System's Energy  [=(2)] =   -0.60 kcal/mol
DOCKED: USER    
DOCKED: USER    
DOCKED: USER    NEWDPF move heme_O2_opt.pdbqt
DOCKED: USER    NEWDPF about 8.287000 34.468000 -0.670000
DOCKED: USER    NEWDPF tran0 0.319305 -1.551852 -8.759414
DOCKED: USER    NEWDPF quaternion0 0.267638 0.342780 0.224587 0.872028
DOCKED: USER    NEWDPF axisangle0 0.546807 0.700328 0.458850 58.609732
DOCKED: USER    NEWDPF quat0 0.546807 0.700328 0.458850 58.609732
DOCKED: USER    NEWDPF dihe0 -106.92 179.18 20.16 88.91 85.36 22.09 -8.57 -57.10 -147.58 -164.22 
DOCKED: USER  keepresnum = 1 
DOCKED: USER  
DOCKED: REMARK  10 active torsions:
DOCKED: REMARK  status: ('A' for Active; 'I' for Inactive)
DOCKED: REMARK    1  A    between atoms: C_6  and  C_10 
DOCKED: REMARK    2  A    between atoms: C_10  and  C_11 
DOCKED: REMARK    3  A    between atoms: C_11  and  C_12 
DOCKED: REMARK    4  A    between atoms: C_12  and  O_14 
DOCKED: REMARK    5  A    between atoms: C_17  and  C_20 
DOCKED: REMARK    6  A    between atoms: C_24  and  C_27 
DOCKED: REMARK    7  A    between atoms: C_31  and  C_34 
DOCKED: REMARK    8  A    between atoms: C_34  and  C_35 
DOCKED: REMARK    9  A    between atoms: C_35  and  C_36 
DOCKED: REMARK   10  A    between atoms: C_36  and  O_38 
DOCKED: USER                              x       y       z     vdW  Elec       q    Type
DOCKED: USER                           _______ _______ _______ _____ _____    ______ ____
DOCKED: ROOT
DOCKED: ATOM      1  C   UNL d   1      -0.194  -1.204 -10.788 -0.22 +0.04    +0.064 A 
DOCKED: ATOM      2  C   UNL d   1      -2.753  -1.209  -6.786 -0.36 +0.02    +0.064 A 
DOCKED: ATOM      3  C   UNL d   1       1.131  -2.350  -4.195 -0.41 +0.01    +0.064 C 
DOCKED: ATOM      4  C   UNL d   1       3.867  -1.878  -8.240 -0.41 +0.02    +0.064 A 
DOCKED: ATOM      5  C   UNL d   1      -1.207  -1.111  -9.911 -0.30 +0.04    +0.066 A 
DOCKED: ATOM      6  C   UNL d   1      -2.526  -0.817 -10.267 -0.32 -0.02    -0.021 A 
DOCKED: ATOM      7  C   UNL d   1      -3.260  -0.776  -9.104 -0.32 -0.01    -0.025 A 
DOCKED: ATOM      8  C   UNL d   1      -2.377  -1.092  -8.075 -0.35 +0.03    +0.066 A 
DOCKED: ATOM      9  C   UNL d   1      -4.727  -0.416  -9.019 -0.33 +0.03    +0.051 C 
DOCKED: ATOM     10  C   UNL d   1      -1.878  -1.561  -5.667 -0.41 +0.02    +0.066 A 
DOCKED: ATOM     11  C   UNL d   1      -2.350  -1.828  -4.377 -0.50 -0.00    -0.021 A 
DOCKED: ATOM     12  C   UNL d   1      -1.247  -2.177  -3.619 -0.44 +0.00    +0.000 A 
DOCKED: ATOM     13  C   UNL d   1      -0.139  -2.088  -4.507 -0.40 +0.01    +0.070 A 
DOCKED: ATOM     14  C   UNL d   1      -3.795  -1.780  -3.894 -0.52 +0.01    +0.052 C 
DOCKED: ATOM     15  C   UNL d   1       2.284  -2.238  -5.055 -0.38 +0.01    +0.066 A 
DOCKED: ATOM     16  C   UNL d   1       3.605  -2.367  -4.626 -0.50 -0.00    -0.021 A 
DOCKED: ATOM     17  C   UNL d   1       4.403  -2.235  -5.762 -0.51 +0.00    +0.000 A 
DOCKED: ATOM     18  C   UNL d   1       3.498  -2.035  -6.813 -0.41 +0.02    +0.070 A 
DOCKED: ATOM     19  C   UNL d   1       3.986  -2.546  -3.178 -0.25 +0.00    +0.052 C 
DOCKED: ATOM     20  C   UNL d   1       3.027  -1.642  -9.267 -0.38 +0.02    +0.066 A 
DOCKED: ATOM     21  C   UNL d   1       3.432  -1.521 -10.593 -0.45 -0.01    -0.025 A 
DOCKED: ATOM     22  C   UNL d   1       2.285  -1.356 -11.337 -0.33 -0.01    -0.021 A 
DOCKED: ATOM     23  C   UNL d   1       1.220  -1.364 -10.431 -0.20 +0.03    +0.066 A 
DOCKED: ATOM     24  C   UNL d   1       4.842  -1.558 -11.124 -0.20 +0.01    +0.051 C 
DOCKED: ATOM     25  N   UNL d   1      -1.100  -1.234  -8.565 -0.17 -0.12    -0.248 N 
DOCKED: ATOM     26  N   UNL d   1      -0.531  -1.708  -5.749 -0.25 -0.07    -0.248 N 
DOCKED: ATOM     27  N   UNL d   1       2.222  -1.965  -6.355 -0.24 -0.07    -0.248 N 
DOCKED: ATOM     28  N   UNL d   1       1.680  -1.493  -9.169 -0.09 -0.13    -0.248 N 
DOCKED: ATOM     29 FE   UNL d   1       0.585  -1.600  -7.470 -0.09 +0.00    +0.000 Fe
DOCKED: ATOM     30  O   UNL d   1      -0.013  -0.180  -7.248 -0.47 +0.00    +0.000 OA
DOCKED: ATOM     31  O   UNL d   1       1.549  -0.365  -7.333 -1.05 +0.00    +0.000 OA
DOCKED: ENDROOT
DOCKED: BRANCH   6  32
DOCKED: ATOM     32  C   UNL d   1      -3.055  -0.453 -11.630 -0.17 +0.08    +0.052 C 
DOCKED: BRANCH  32  33
DOCKED: ATOM     33  C   UNL d   1      -2.481   0.857 -12.158 -0.25 +0.14    +0.115 C 
DOCKED: BRANCH  33  34
DOCKED: ATOM     34  C   UNL d   1      -2.807   1.084 -13.613 -0.18 +0.22    +0.139 C 
DOCKED: ATOM     35  O   UNL d   1      -2.343   0.336 -14.459 -0.24 -1.10    -0.650 OA
DOCKED: BRANCH  34  36
DOCKED: ATOM     36  O   UNL d   1      -3.581   2.116 -14.008 -0.40 -1.74    -0.776 OA
DOCKED: ATOM     37  H   UNL d   1      -4.489   1.988 -14.308 +0.01 +0.32    +0.167 HD
DOCKED: ENDBRANCH  34  36
DOCKED: ENDBRANCH  33  34
DOCKED: ENDBRANCH  32  33
DOCKED: ENDBRANCH   6  32
DOCKED: BRANCH  22  38
DOCKED: ATOM     38  C   UNL d   1       2.228  -1.138 -12.827 -0.33 +0.02    +0.052 C 
DOCKED: BRANCH  38  39
DOCKED: ATOM     39  C   UNL d   1       2.928   0.150 -13.254 -0.35 +0.04    +0.115 C 
DOCKED: BRANCH  39  40
DOCKED: ATOM     40  C   UNL d   1       4.041  -0.098 -14.241 -0.29 +0.03    +0.139 C 
DOCKED: ATOM     41  O   UNL d   1       4.527   0.838 -14.854 -0.05 -0.15    -0.650 OA
DOCKED: BRANCH  40  42
DOCKED: ATOM     42  O   UNL d   1       4.548  -1.333 -14.421 +0.17 -0.07    -0.776 OA
DOCKED: ATOM     43  H   UNL d   1       5.279  -1.495 -15.030 -0.15 +0.00    +0.167 HD
DOCKED: ENDBRANCH  40  42
DOCKED: ENDBRANCH  39  40
DOCKED: ENDBRANCH  38  39
DOCKED: ENDBRANCH  22  38
DOCKED: BRANCH  12  44
DOCKED: ATOM     44  C   UNL d   1      -1.362  -2.547  -2.155 -0.47 +0.00    +0.004 C 
DOCKED: ATOM     45  C   UNL d   1      -0.386  -2.619  -1.250 -0.57 +0.00    +0.012 C 
DOCKED: ENDBRANCH  12  44
DOCKED: BRANCH  17  46
DOCKED: ATOM     46  C   UNL d   1       5.900  -2.225  -5.922 -0.65 +0.00    +0.004 C 
DOCKED: ATOM     47  C   UNL d   1       6.733  -3.271  -5.995 -0.57 +0.00    +0.012 C 
DOCKED: ENDBRANCH  17  46
DOCKED: TORSDOF 10
DOCKED: TER
DOCKED: ENDMDL
________________________________________________________________________________


	BEGINNING GENETIC ALGORITHM DOCKING 16 of 100
Run: 16 Seed: 1749582650 961892209 [ Run 16 of 100 GA/GALS ]
Beginning LAMARCKIAN GENETIC ALGORITHM (LGA), with a maximum of 25000000 energy evaluations.

Final-Value: -20.296


	FINAL GENETIC ALGORITHM DOCKED STATE
	_______________________________________________


Detailed state:  trans 0.230 -1.631 -8.877 quatxyzw -0.285354 -0.260395 -0.227710 -0.893821 center 8.287 34.468 -0.670 ntor 10 47.8529 -119.3628 35.4836 -51.7575 147.7272 149.7251 0.1560 54.5157 -132.7589 -180.0000
State:	  0.230  -1.631  -8.877  -0.636 -0.581 -0.508 -53.285     47.85 -119.36   35.48  -51.76  147.73  149.73    0.16   54.52 -132.76 -180.00

DOCKED: MODEL       16
DOCKED: USER    Run = 16
DOCKED: USER    DPF = D:/Protein_go_brrr/autodock/final/AncB/heme_O2/dock.dpf
DOCKED: USER  
DOCKED: USER    Estimated Free Energy of Binding    =  -15.71 kcal/mol  [=(1)+(2)+(3)-(4)]
DOCKED: USER    Estimated Inhibition Constant, Ki   =    3.03 pM (picomolar)  [Temperature = 298.15 K]
DOCKED: USER    
DOCKED: USER    (1) Final Intermolecular Energy     =  -18.70 kcal/mol
DOCKED: USER        vdW + Hbond + desolv Energy     =  -15.79 kcal/mol
DOCKED: USER        Electrostatic Energy            =   -2.91 kcal/mol
DOCKED: USER    (2) Final Total Internal Energy     =   -1.60 kcal/mol
DOCKED: USER    (3) Torsional Free Energy           =   +2.98 kcal/mol
DOCKED: USER    (4) Unbound System's Energy  [=(2)] =   -1.60 kcal/mol
DOCKED: USER    
DOCKED: USER    
DOCKED: USER    NEWDPF move heme_O2_opt.pdbqt
DOCKED: USER    NEWDPF about 8.287000 34.468000 -0.670000
DOCKED: USER    NEWDPF tran0 0.229547 -1.631155 -8.877124
DOCKED: USER    NEWDPF quaternion0 -0.285354 -0.260395 -0.227710 -0.893821
DOCKED: USER    NEWDPF axisangle0 -0.636348 -0.580689 -0.507800 -53.285162
DOCKED: USER    NEWDPF quat0 -0.636348 -0.580689 -0.507800 -53.285162
DOCKED: USER    NEWDPF dihe0 47.85 -119.36 35.48 -51.76 147.73 149.73 0.16 54.52 -132.76 -180.00 
DOCKED: USER  keepresnum = 1 
DOCKED: USER  
DOCKED: REMARK  10 active torsions:
DOCKED: REMARK  status: ('A' for Active; 'I' for Inactive)
DOCKED: REMARK    1  A    between atoms: C_6  and  C_10 
DOCKED: REMARK    2  A    between atoms: C_10  and  C_11 
DOCKED: REMARK    3  A    between atoms: C_11  and  C_12 
DOCKED: REMARK    4  A    between atoms: C_12  and  O_14 
DOCKED: REMARK    5  A    between atoms: C_17  and  C_20 
DOCKED: REMARK    6  A    between atoms: C_24  and  C_27 
DOCKED: REMARK    7  A    between atoms: C_31  and  C_34 
DOCKED: REMARK    8  A    between atoms: C_34  and  C_35 
DOCKED: REMARK    9  A    between atoms: C_35  and  C_36 
DOCKED: REMARK   10  A    between atoms: C_36  and  O_38 
DOCKED: USER                              x       y       z     vdW  Elec       q    Type
DOCKED: USER                           _______ _______ _______ _____ _____    ______ ____
DOCKED: ROOT
DOCKED: ATOM      1  C   UNL d   1      -0.590  -1.209 -10.788 -0.29 +0.05    +0.064 A 
DOCKED: ATOM      2  C   UNL d   1      -2.455  -1.182  -6.420 -0.41 +0.02    +0.064 A 
DOCKED: ATOM      3  C   UNL d   1       1.734  -2.578  -4.522 -0.40 +0.01    +0.064 C 
DOCKED: ATOM      4  C   UNL d   1       3.792  -2.147  -8.954 -0.43 +0.02    +0.064 A 
DOCKED: ATOM      5  C   UNL d   1      -1.439  -1.086  -9.754 -0.31 +0.04    +0.066 A 
DOCKED: ATOM      6  C   UNL d   1      -2.781  -0.719  -9.883 -0.32 -0.02    -0.021 A 
DOCKED: ATOM      7  C   UNL d   1      -3.311  -0.669  -8.615 -0.35 -0.01    -0.025 A 
DOCKED: ATOM      8  C   UNL d   1      -2.290  -1.054  -7.750 -0.36 +0.03    +0.066 A 
DOCKED: ATOM      9  C   UNL d   1      -4.723  -0.238  -8.283 -0.38 +0.02    +0.051 C 
DOCKED: ATOM     10  C   UNL d   1      -1.429  -1.604  -5.465 -0.40 +0.02    +0.066 A 
DOCKED: ATOM     11  C   UNL d   1      -1.697  -1.879  -4.119 -0.47 -0.00    -0.021 A 
DOCKED: ATOM     12  C   UNL d   1      -0.505  -2.301  -3.559 -0.44 +0.00    +0.000 A 
DOCKED: ATOM     13  C   UNL d   1       0.446  -2.246  -4.616 -0.40 +0.01    +0.070 A 
DOCKED: ATOM     14  C   UNL d   1      -3.038  -1.771  -3.404 -0.62 +0.01    +0.052 C 
DOCKED: ATOM     15  C   UNL d   1       2.735  -2.504  -5.558 -0.41 +0.01    +0.066 A 
DOCKED: ATOM     16  C   UNL d   1       4.100  -2.709  -5.355 -0.51 -0.00    -0.021 A 
DOCKED: ATOM     17  C   UNL d   1       4.707  -2.590  -6.605 -0.51 +0.00    +0.000 A 
DOCKED: ATOM     18  C   UNL d   1       3.653  -2.320  -7.489 -0.43 +0.02    +0.070 A 
DOCKED: ATOM     19  C   UNL d   1       4.702  -2.942  -3.992 -0.56 +0.01    +0.052 C 
DOCKED: ATOM     20  C   UNL d   1       2.809  -1.845  -9.825 -0.45 +0.02    +0.066 A 
DOCKED: ATOM     21  C   UNL d   1       2.997  -1.712 -11.198 -0.43 -0.01    -0.025 A 
DOCKED: ATOM     22  C   UNL d   1       1.754  -1.472 -11.740 +0.04 -0.01    -0.021 A 
DOCKED: ATOM     23  C   UNL d   1       0.853  -1.448 -10.671 -0.16 +0.03    +0.066 A 
DOCKED: ATOM     24  C   UNL d   1       4.297  -1.807 -11.954 -0.52 +0.01    +0.051 C 
DOCKED: ATOM     25  N   UNL d   1      -1.120  -1.248  -8.446 -0.14 -0.12    -0.248 N 
DOCKED: ATOM     26  N   UNL d   1      -0.124  -1.817  -5.771 -0.25 -0.07    -0.248 N 
DOCKED: ATOM     27  N   UNL d   1       2.475  -2.197  -6.826 -0.22 -0.08    -0.248 N 
DOCKED: ATOM     28  N   UNL d   1       1.506  -1.631  -9.504 -0.15 -0.13    -0.248 N 
DOCKED: ATOM     29 FE   UNL d   1       0.700  -1.724  -7.650 -0.09 +0.00    +0.000 Fe
DOCKED: ATOM     30  O   UNL d   1       0.223  -0.281  -7.310 -0.76 +0.00    +0.000 OA
DOCKED: ATOM     31  O   UNL d   1       1.738  -0.542  -7.655 -1.06 +0.00    +0.000 OA
DOCKED: ENDROOT
DOCKED: BRANCH   6  32
DOCKED: ATOM     32  C   UNL d   1      -3.506  -0.296 -11.135 -0.26 +0.06    +0.052 C 
DOCKED: BRANCH  32  33
DOCKED: ATOM     33  C   UNL d   1      -2.753   0.769 -11.925 -0.26 +0.13    +0.115 C 
DOCKED: BRANCH  33  34
DOCKED: ATOM     34  C   UNL d   1      -3.463   1.149 -13.201 -0.16 +0.22    +0.139 C 
DOCKED: ATOM     35  O   UNL d   1      -4.489   0.568 -13.516 -0.02 -1.02    -0.650 OA
DOCKED: BRANCH  34  36
DOCKED: ATOM     36  O   UNL d   1      -2.973   2.102 -14.021 -0.31 -1.64    -0.776 OA
DOCKED: ATOM     37  H   UNL d   1      -2.049   2.114 -14.296 +0.03 +0.28    +0.167 HD
DOCKED: ENDBRANCH  34  36
DOCKED: ENDBRANCH  33  34
DOCKED: ENDBRANCH  32  33
DOCKED: ENDBRANCH   6  32
DOCKED: BRANCH  22  38
DOCKED: ATOM     38  C   UNL d   1       1.466  -1.216 -13.197 -0.26 +0.03    +0.052 C 
DOCKED: BRANCH  38  39
DOCKED: ATOM     39  C   UNL d   1       1.816   0.210 -13.617 -0.24 +0.06    +0.115 C 
DOCKED: BRANCH  39  40
DOCKED: ATOM     40  C   UNL d   1       0.662   0.913 -14.288 -0.16 +0.10    +0.139 C 
DOCKED: ATOM     41  O   UNL d   1       0.252   0.512 -15.365 +0.05 -0.49    -0.650 OA
DOCKED: BRANCH  40  42
DOCKED: ATOM     42  O   UNL d   1       0.039   1.949 -13.694 -0.00 -0.71    -0.776 OA
DOCKED: ATOM     43  H   UNL d   1      -0.891   1.900 -13.441 +0.05 +0.19    +0.167 HD
DOCKED: ENDBRANCH  40  42
DOCKED: ENDBRANCH  39  40
DOCKED: ENDBRANCH  38  39
DOCKED: ENDBRANCH  22  38
DOCKED: BRANCH  12  44
DOCKED: ATOM     44  C   UNL d   1      -0.398  -2.700  -2.103 -0.42 +0.00    +0.004 C 
DOCKED: ATOM     45  C   UNL d   1       0.655  -2.578  -1.295 -0.62 +0.00    +0.012 C 
DOCKED: ENDBRANCH  12  44
DOCKED: BRANCH  17  46
DOCKED: ATOM     46  C   UNL d   1       6.156  -2.651  -7.009 -0.49 +0.00    +0.004 C 
DOCKED: ATOM     47  C   UNL d   1       7.167  -1.880  -6.587 -0.55 +0.00    +0.012 C 
DOCKED: ENDBRANCH  17  46
DOCKED: TORSDOF 10
DOCKED: TER
DOCKED: ENDMDL
________________________________________________________________________________


	BEGINNING GENETIC ALGORITHM DOCKING 17 of 100
Run: 17 Seed: 1505510922 48609558 [ Run 17 of 100 GA/GALS ]
Beginning LAMARCKIAN GENETIC ALGORITHM (LGA), with a maximum of 25000000 energy evaluations.

Final-Value: -19.858


	FINAL GENETIC ALGORITHM DOCKED STATE
	_______________________________________________


Detailed state:  trans 0.034 -1.632 -8.759 quatxyzw 0.289672 0.248719 0.224579 0.896545 center 8.287 34.468 -0.670 ntor 10 26.5166 -172.5968 34.2239 -52.9743 -50.0557 -177.0039 27.3134 61.5109 39.3114 132.5608
State:	  0.034  -1.632  -8.759   0.654  0.562  0.507 52.585     26.52 -172.60   34.22  -52.97  -50.06 -177.00   27.31   61.51   39.31  132.56

DOCKED: MODEL       17
DOCKED: USER    Run = 17
DOCKED: USER    DPF = D:/Protein_go_brrr/autodock/final/AncB/heme_O2/dock.dpf
DOCKED: USER  
DOCKED: USER    Estimated Free Energy of Binding    =  -15.33 kcal/mol  [=(1)+(2)+(3)-(4)]
DOCKED: USER    Estimated Inhibition Constant, Ki   =    5.81 pM (picomolar)  [Temperature = 298.15 K]
DOCKED: USER    
DOCKED: USER    (1) Final Intermolecular Energy     =  -18.31 kcal/mol
DOCKED: USER        vdW + Hbond + desolv Energy     =  -14.85 kcal/mol
DOCKED: USER        Electrostatic Energy            =   -3.46 kcal/mol
DOCKED: USER    (2) Final Total Internal Energy     =   -1.55 kcal/mol
DOCKED: USER    (3) Torsional Free Energy           =   +2.98 kcal/mol
DOCKED: USER    (4) Unbound System's Energy  [=(2)] =   -1.55 kcal/mol
DOCKED: USER    
DOCKED: USER    
DOCKED: USER    NEWDPF move heme_O2_opt.pdbqt
DOCKED: USER    NEWDPF about 8.287000 34.468000 -0.670000
DOCKED: USER    NEWDPF tran0 0.034114 -1.631536 -8.758872
DOCKED: USER    NEWDPF quaternion0 0.289672 0.248719 0.224579 0.896545
DOCKED: USER    NEWDPF axisangle0 0.653957 0.561504 0.507005 52.584752
DOCKED: USER    NEWDPF quat0 0.653957 0.561504 0.507005 52.584752
DOCKED: USER    NEWDPF dihe0 26.52 -172.60 34.22 -52.97 -50.06 -177.00 27.31 61.51 39.31 132.56 
DOCKED: USER  keepresnum = 1 
DOCKED: USER  
DOCKED: REMARK  10 active torsions:
DOCKED: REMARK  status: ('A' for Active; 'I' for Inactive)
DOCKED: REMARK    1  A    between atoms: C_6  and  C_10 
DOCKED: REMARK    2  A    between atoms: C_10  and  C_11 
DOCKED: REMARK    3  A    between atoms: C_11  and  C_12 
DOCKED: REMARK    4  A    between atoms: C_12  and  O_14 
DOCKED: REMARK    5  A    between atoms: C_17  and  C_20 
DOCKED: REMARK    6  A    between atoms: C_24  and  C_27 
DOCKED: REMARK    7  A    between atoms: C_31  and  C_34 
DOCKED: REMARK    8  A    between atoms: C_34  and  C_35 
DOCKED: REMARK    9  A    between atoms: C_35  and  C_36 
DOCKED: REMARK   10  A    between atoms: C_36  and  O_38 
DOCKED: USER                              x       y       z     vdW  Elec       q    Type
DOCKED: USER                           _______ _______ _______ _____ _____    ______ ____
DOCKED: ROOT
DOCKED: ATOM      1  C   UNL d   1      -0.834  -1.213 -10.648 -0.30 +0.05    +0.064 A 
DOCKED: ATOM      2  C   UNL d   1      -2.585  -1.171  -6.233 -0.41 +0.02    +0.064 A 
DOCKED: ATOM      3  C   UNL d   1       1.649  -2.571  -4.442 -0.41 +0.01    +0.064 C 
DOCKED: ATOM      4  C   UNL d   1       3.592  -2.155  -8.928 -0.44 +0.02    +0.064 A 
DOCKED: ATOM      5  C   UNL d   1      -1.655  -1.085  -9.594 -0.31 +0.04    +0.066 A 
DOCKED: ATOM      6  C   UNL d   1      -3.000  -0.715  -9.688 -0.31 -0.01    -0.021 A 
DOCKED: ATOM      7  C   UNL d   1      -3.496  -0.661  -8.407 -0.35 -0.01    -0.025 A 
DOCKED: ATOM      8  C   UNL d   1      -2.454  -1.046  -7.568 -0.37 +0.02    +0.066 A 
DOCKED: ATOM      9  C   UNL d   1      -4.899  -0.227  -8.040 -0.39 +0.02    +0.051 C 
DOCKED: ATOM     10  C   UNL d   1      -1.535  -1.593  -5.305 -0.41 +0.02    +0.066 A 
DOCKED: ATOM     11  C   UNL d   1      -1.768  -1.864  -3.952 -0.47 -0.00    -0.021 A 
DOCKED: ATOM     12  C   UNL d   1      -0.563  -2.286  -3.422 -0.43 +0.00    +0.000 A 
DOCKED: ATOM     13  C   UNL d   1       0.360  -2.237  -4.503 -0.40 +0.01    +0.070 A 
DOCKED: ATOM     14  C   UNL d   1      -3.090  -1.751  -3.203 -0.63 +0.01    +0.052 C 
DOCKED: ATOM     15  C   UNL d   1       2.624  -2.501  -5.504 -0.40 +0.01    +0.066 A 
DOCKED: ATOM     16  C   UNL d   1       3.993  -2.709  -5.336 -0.50 -0.00    -0.021 A 
DOCKED: ATOM     17  C   UNL d   1       4.567  -2.594  -6.601 -0.51 +0.00    +0.000 A 
DOCKED: ATOM     18  C   UNL d   1       3.492  -2.324  -7.459 -0.42 +0.02    +0.070 A 
DOCKED: ATOM     19  C   UNL d   1       4.630  -2.940  -3.989 -0.57 +0.01    +0.052 C 
DOCKED: ATOM     20  C   UNL d   1       2.588  -1.853  -9.773 -0.43 +0.02    +0.066 A 
DOCKED: ATOM     21  C   UNL d   1       2.740  -1.724 -11.151 -0.38 -0.01    -0.025 A 
DOCKED: ATOM     22  C   UNL d   1       1.484  -1.483 -11.661 +0.13 -0.01    -0.021 A 
DOCKED: ATOM     23  C   UNL d   1       0.611  -1.455 -10.569 -0.17 +0.04    +0.066 A 
DOCKED: ATOM     24  C   UNL d   1       4.020  -1.823 -11.941 -0.54 +0.01    +0.051 C 
DOCKED: ATOM     25  N   UNL d   1      -1.303  -1.244  -8.294 -0.17 -0.12    -0.248 N 
DOCKED: ATOM     26  N   UNL d   1      -0.239  -1.809  -5.644 -0.25 -0.06    -0.248 N 
DOCKED: ATOM     27  N   UNL d   1       2.331  -2.197  -6.765 -0.22 -0.08    -0.248 N 
DOCKED: ATOM     28  N   UNL d   1       1.293  -1.635  -9.419 +0.03 -0.14    -0.248 N 
DOCKED: ATOM     29 FE   UNL d   1       0.536  -1.722  -7.544 -0.09 +0.00    +0.000 Fe
DOCKED: ATOM     30  O   UNL d   1       0.071  -0.278  -7.196 -0.54 +0.00    +0.000 OA
DOCKED: ATOM     31  O   UNL d   1       1.576  -0.543  -7.579 -1.09 +0.00    +0.000 OA
DOCKED: ENDROOT
DOCKED: BRANCH   6  32
DOCKED: ATOM     32  C   UNL d   1      -3.756  -0.294 -10.922 -0.26 +0.06    +0.052 C 
DOCKED: BRANCH  32  33
DOCKED: ATOM     33  C   UNL d   1      -4.988  -1.156 -11.184 -0.18 +0.14    +0.115 C 
DOCKED: BRANCH  33  34
DOCKED: ATOM     34  C   UNL d   1      -5.383  -1.166 -12.640 +0.30 +0.25    +0.139 C 
DOCKED: ATOM     35  O   UNL d   1      -6.076  -2.074 -13.071 -0.06 -1.09    -0.650 OA
DOCKED: BRANCH  34  36
DOCKED: ATOM     36  O   UNL d   1      -4.965  -0.204 -13.489 +0.08 -1.35    -0.776 OA
DOCKED: ATOM     37  H   UNL d   1      -4.145   0.283 -13.345 +0.03 +0.29    +0.167 HD
DOCKED: ENDBRANCH  34  36
DOCKED: ENDBRANCH  33  34
DOCKED: ENDBRANCH  32  33
DOCKED: ENDBRANCH   6  32
DOCKED: BRANCH  22  38
DOCKED: ATOM     38  C   UNL d   1       1.158  -1.229 -13.110 -0.24 +0.03    +0.052 C 
DOCKED: BRANCH  38  39
DOCKED: ATOM     39  C   UNL d   1       0.394   0.077 -13.315 -0.16 +0.09    +0.115 C 
DOCKED: BRANCH  39  40
DOCKED: ATOM     40  C   UNL d   1      -0.962  -0.141 -13.940 -0.15 +0.18    +0.139 C 
DOCKED: ATOM     41  O   UNL d   1      -1.125  -1.056 -14.731 -0.31 -1.11    -0.650 OA
DOCKED: BRANCH  40  42
DOCKED: ATOM     42  O   UNL d   1      -2.015   0.628 -13.601 -0.00 -1.12    -0.776 OA
DOCKED: ATOM     43  H   UNL d   1      -2.911   0.408 -13.882 +0.03 +0.30    +0.167 HD
DOCKED: ENDBRANCH  40  42
DOCKED: ENDBRANCH  39  40
DOCKED: ENDBRANCH  38  39
DOCKED: ENDBRANCH  22  38
DOCKED: BRANCH  12  44
DOCKED: ATOM     44  C   UNL d   1      -0.419  -2.683  -1.968 -0.45 +0.00    +0.004 C 
DOCKED: ATOM     45  C   UNL d   1       0.662  -2.582  -1.195 -0.62 +0.00    +0.012 C 
DOCKED: ENDBRANCH  12  44
DOCKED: BRANCH  17  46
DOCKED: ATOM     46  C   UNL d   1       6.005  -2.659  -7.043 -0.50 +0.00    +0.004 C 
DOCKED: ATOM     47  C   UNL d   1       7.024  -1.875  -6.666 -0.60 +0.00    +0.012 C 
DOCKED: ENDBRANCH  17  46
DOCKED: TORSDOF 10
DOCKED: TER
DOCKED: ENDMDL
________________________________________________________________________________


	BEGINNING GENETIC ALGORITHM DOCKING 18 of 100
Run: 18 Seed: 1186885411 657926122 [ Run 18 of 100 GA/GALS ]
Beginning LAMARCKIAN GENETIC ALGORITHM (LGA), with a maximum of 25000000 energy evaluations.

Final-Value: -12.603


	FINAL GENETIC ALGORITHM DOCKED STATE
	_______________________________________________


Detailed state:  trans -2.151 -0.291 -13.610 quatxyzw -0.329429 -0.182478 -0.233203 -0.896546 center 8.287 34.468 -0.670 ntor 10 -63.0687 -96.7386 24.3446 71.7123 -120.5446 137.1383 -126.4533 -137.0362 -26.5437 -10.0721
State:	 -2.151  -0.291 -13.610  -0.744 -0.412 -0.526 -52.585    -63.07  -96.74   24.34   71.71 -120.54  137.14 -126.45 -137.04  -26.54  -10.07

DOCKED: MODEL       18
DOCKED: USER    Run = 18
DOCKED: USER    DPF = D:/Protein_go_brrr/autodock/final/AncB/heme_O2/dock.dpf
DOCKED: USER  
DOCKED: USER    Estimated Free Energy of Binding    =   -7.88 kcal/mol  [=(1)+(2)+(3)-(4)]
DOCKED: USER    Estimated Inhibition Constant, Ki   =    1.66 uM (micromolar)  [Temperature = 298.15 K]
DOCKED: USER    
DOCKED: USER    (1) Final Intermolecular Energy     =  -10.87 kcal/mol
DOCKED: USER        vdW + Hbond + desolv Energy     =   -8.00 kcal/mol
DOCKED: USER        Electrostatic Energy            =   -2.87 kcal/mol
DOCKED: USER    (2) Final Total Internal Energy     =   -1.74 kcal/mol
DOCKED: USER    (3) Torsional Free Energy           =   +2.98 kcal/mol
DOCKED: USER    (4) Unbound System's Energy  [=(2)] =   -1.74 kcal/mol
DOCKED: USER    
DOCKED: USER    
DOCKED: USER    NEWDPF move heme_O2_opt.pdbqt
DOCKED: USER    NEWDPF about 8.287000 34.468000 -0.670000
DOCKED: USER    NEWDPF tran0 -2.150945 -0.291138 -13.609986
DOCKED: USER    NEWDPF quaternion0 -0.329429 -0.182478 -0.233203 -0.896546
DOCKED: USER    NEWDPF axisangle0 -0.743714 -0.411961 -0.526477 -52.584595
DOCKED: USER    NEWDPF quat0 -0.743714 -0.411961 -0.526477 -52.584595
DOCKED: USER    NEWDPF dihe0 -63.07 -96.74 24.34 71.71 -120.54 137.14 -126.45 -137.04 -26.54 -10.07 
DOCKED: USER  keepresnum = 1 
DOCKED: USER  
DOCKED: REMARK  10 active torsions:
DOCKED: REMARK  status: ('A' for Active; 'I' for Inactive)
DOCKED: REMARK    1  A    between atoms: C_6  and  C_10 
DOCKED: REMARK    2  A    between atoms: C_10  and  C_11 
DOCKED: REMARK    3  A    between atoms: C_11  and  C_12 
DOCKED: REMARK    4  A    between atoms: C_12  and  O_14 
DOCKED: REMARK    5  A    between atoms: C_17  and  C_20 
DOCKED: REMARK    6  A    between atoms: C_24  and  C_27 
DOCKED: REMARK    7  A    between atoms: C_31  and  C_34 
DOCKED: REMARK    8  A    between atoms: C_34  and  C_35 
DOCKED: REMARK    9  A    between atoms: C_35  and  C_36 
DOCKED: REMARK   10  A    between atoms: C_36  and  O_38 
DOCKED: USER                              x       y       z     vdW  Elec       q    Type
DOCKED: USER                           _______ _______ _______ _____ _____    ______ ____
DOCKED: ROOT
DOCKED: ATOM      1  C   UNL d   1      -3.230   0.131 -15.387 -0.02 +0.11    +0.064 A 
DOCKED: ATOM      2  C   UNL d   1      -4.373   0.448 -10.787 -0.21 +0.06    +0.064 A 
DOCKED: ATOM      3  C   UNL d   1      -0.049  -1.211  -9.504 -0.22 +0.04    +0.064 C 
DOCKED: ATOM      4  C   UNL d   1       1.307  -1.089 -14.217 -0.17 +0.04    +0.064 A 
DOCKED: ATOM      5  C   UNL d   1      -3.893   0.354 -14.240 +0.00 +0.12    +0.066 A 
DOCKED: ATOM      6  C   UNL d   1      -5.209   0.822 -14.175 -0.11 -0.03    -0.021 A 
DOCKED: ATOM      7  C   UNL d   1      -5.526   0.955 -12.844 -0.13 -0.03    -0.025 A 
DOCKED: ATOM      8  C   UNL d   1      -4.412   0.519 -12.132 -0.17 +0.08    +0.066 A 
DOCKED: ATOM      9  C   UNL d   1      -6.833   1.506 -12.316 -0.11 +0.04    +0.051 C 
DOCKED: ATOM     10  C   UNL d   1      -3.242  -0.022  -9.986 -0.28 +0.05    +0.066 A 
DOCKED: ATOM     11  C   UNL d   1      -3.311  -0.231  -8.604 -0.38 -0.01    -0.021 A 
DOCKED: ATOM     12  C   UNL d   1      -2.080  -0.726  -8.218 -0.41 +0.00    +0.000 A 
DOCKED: ATOM     13  C   UNL d   1      -1.307  -0.781  -9.411 -0.28 +0.04    +0.070 A 
DOCKED: ATOM     14  C   UNL d   1      -4.512   0.006  -7.695 -0.40 +0.02    +0.052 C 
DOCKED: ATOM     15  C   UNL d   1       0.779  -1.249 -10.685 -0.17 +0.03    +0.066 A 
DOCKED: ATOM     16  C   UNL d   1       2.140  -1.554 -10.688 -0.37 -0.01    -0.021 A 
DOCKED: ATOM     17  C   UNL d   1       2.549  -1.525 -12.021 -0.23 +0.00    +0.000 A 
DOCKED: ATOM     18  C   UNL d   1       1.390  -1.201 -12.742 -0.22 +0.04    +0.070 A 
DOCKED: ATOM     19  C   UNL d   1       2.932  -1.790  -9.426 -0.51 +0.02    +0.052 C 
DOCKED: ATOM     20  C   UNL d   1       0.223  -0.738 -14.937 -0.14 +0.06    +0.066 A 
DOCKED: ATOM     21  C   UNL d   1       0.200  -0.666 -16.327 -0.08 -0.02    -0.025 A 
DOCKED: ATOM     22  C   UNL d   1      -1.092  -0.346 -16.679 -0.06 -0.02    -0.021 A 
DOCKED: ATOM     23  C   UNL d   1      -1.808  -0.217 -15.486 +0.04 +0.10    +0.066 A 
DOCKED: ATOM     24  C   UNL d   1       1.354  -0.887 -17.271 -0.06 +0.03    +0.051 C 
DOCKED: ATOM     25  N   UNL d   1      -3.383   0.211 -12.992 -0.10 -0.43    -0.248 N 
DOCKED: ATOM     26  N   UNL d   1      -2.020  -0.347 -10.481 -0.18 -0.20    -0.248 N 
DOCKED: ATOM     27  N   UNL d   1       0.345  -0.964 -11.910 -0.09 -0.17    -0.248 N 
DOCKED: ATOM     28  N   UNL d   1      -0.994  -0.412 -14.428 -0.10 -0.34    -0.248 N 
DOCKED: ATOM     29 FE   UNL d   1      -1.500  -0.380 -12.468 -0.05 +0.00    +0.000 Fe
DOCKED: ATOM     30  O   UNL d   1      -1.811   1.106 -12.123 -0.31 +0.00    +0.000 OA
DOCKED: ATOM     31  O   UNL d   1      -0.393   0.715 -12.687 -0.01 +0.00    +0.000 OA
DOCKED: ENDROOT
DOCKED: BRANCH   6  32
DOCKED: ATOM     32  C   UNL d   1      -6.090   1.259 -15.316 -0.05 +0.05    +0.052 C 
DOCKED: BRANCH  32  33
DOCKED: ATOM     33  C   UNL d   1      -6.281   0.171 -16.368 -0.02 +0.10    +0.115 C 
DOCKED: BRANCH  33  34
DOCKED: ATOM     34  C   UNL d   1      -6.720  -1.141 -15.766 -0.04 +0.13    +0.139 C 
DOCKED: ATOM     35  O   UNL d   1      -7.910  -1.366 -15.614 +0.01 -0.45    -0.650 OA
DOCKED: BRANCH  34  36
DOCKED: ATOM     36  O   UNL d   1      -5.823  -2.065 -15.363 -0.42 -1.41    -0.776 OA
DOCKED: ATOM     37  H   UNL d   1      -5.217  -2.491 -15.980 +0.01 +0.33    +0.167 HD
DOCKED: ENDBRANCH  34  36
DOCKED: ENDBRANCH  33  34
DOCKED: ENDBRANCH  32  33
DOCKED: ENDBRANCH   6  32
DOCKED: BRANCH  22  38
DOCKED: ATOM     38  C   UNL d   1      -1.588  -0.116 -18.084 -0.01 +0.04    +0.052 C 
DOCKED: BRANCH  38  39
DOCKED: ATOM     39  C   UNL d   1      -2.134  -1.390 -18.724 -0.02 +0.08    +0.115 C 
DOCKED: BRANCH  39  40
DOCKED: ATOM     40  C   UNL d   1      -2.968  -2.205 -17.768 -0.07 +0.14    +0.139 C 
DOCKED: ATOM     41  O   UNL d   1      -2.421  -2.901 -16.927 -0.00 -0.91    -0.650 OA
DOCKED: BRANCH  40  42
DOCKED: ATOM     42  O   UNL d   1      -4.314  -2.139 -17.789 +0.01 -0.77    -0.776 OA
DOCKED: ATOM     43  H   UNL d   1      -4.799  -1.538 -17.213 +0.01 +0.18    +0.167 HD
DOCKED: ENDBRANCH  40  42
DOCKED: ENDBRANCH  39  40
DOCKED: ENDBRANCH  38  39
DOCKED: ENDBRANCH  22  38
DOCKED: BRANCH  12  44
DOCKED: ATOM     44  C   UNL d   1      -1.773  -1.085  -6.779 -0.47 +0.00    +0.004 C 
DOCKED: ATOM     45  C   UNL d   1      -0.577  -1.215  -6.205 -0.43 +0.00    +0.012 C 
DOCKED: ENDBRANCH  12  44
DOCKED: BRANCH  17  46
DOCKED: ATOM     46  C   UNL d   1       3.907  -1.713 -12.643 -0.50 +0.00    +0.004 C 
DOCKED: ATOM     47  C   UNL d   1       4.668  -2.814 -12.653 -0.50 +0.00    +0.012 C 
DOCKED: ENDBRANCH  17  46
DOCKED: TORSDOF 10
DOCKED: TER
DOCKED: ENDMDL
________________________________________________________________________________


	BEGINNING GENETIC ALGORITHM DOCKING 19 of 100
Run: 19 Seed: 610041 1722189343 [ Run 19 of 100 GA/GALS ]
Beginning LAMARCKIAN GENETIC ALGORITHM (LGA), with a maximum of 25000000 energy evaluations.

Final-Value: -20.696


	FINAL GENETIC ALGORITHM DOCKED STATE
	_______________________________________________


Detailed state:  trans 0.236 -1.624 -8.961 quatxyzw -0.287578 -0.273935 -0.236639 -0.886714 center 8.287 34.468 -0.670 ntor 10 -84.4850 148.5439 32.4472 -55.9648 -94.1244 3.3112 -15.8268 70.3292 -141.3715 -172.0751
State:	  0.236  -1.624  -8.961  -0.622 -0.593 -0.512 -55.074    -84.48  148.54   32.45  -55.96  -94.12    3.31  -15.83   70.33 -141.37 -172.08

DOCKED: MODEL       19
DOCKED: USER    Run = 19
DOCKED: USER    DPF = D:/Protein_go_brrr/autodock/final/AncB/heme_O2/dock.dpf
DOCKED: USER  
DOCKED: USER    Estimated Free Energy of Binding    =  -16.11 kcal/mol  [=(1)+(2)+(3)-(4)]
DOCKED: USER    Estimated Inhibition Constant, Ki   =    1.56 pM (picomolar)  [Temperature = 298.15 K]
DOCKED: USER    
DOCKED: USER    (1) Final Intermolecular Energy     =  -19.09 kcal/mol
DOCKED: USER        vdW + Hbond + desolv Energy     =  -16.02 kcal/mol
DOCKED: USER        Electrostatic Energy            =   -3.07 kcal/mol
DOCKED: USER    (2) Final Total Internal Energy     =   -1.61 kcal/mol
DOCKED: USER    (3) Torsional Free Energy           =   +2.98 kcal/mol
DOCKED: USER    (4) Unbound System's Energy  [=(2)] =   -1.61 kcal/mol
DOCKED: USER    
DOCKED: USER    
DOCKED: USER    NEWDPF move heme_O2_opt.pdbqt
DOCKED: USER    NEWDPF about 8.287000 34.468000 -0.670000
DOCKED: USER    NEWDPF tran0 0.236007 -1.623894 -8.960724
DOCKED: USER    NEWDPF quaternion0 -0.287578 -0.273935 -0.236639 -0.886714
DOCKED: USER    NEWDPF axisangle0 -0.622033 -0.592523 -0.511851 -55.073727
DOCKED: USER    NEWDPF quat0 -0.622033 -0.592523 -0.511851 -55.073727
DOCKED: USER    NEWDPF dihe0 -84.48 148.54 32.45 -55.96 -94.12 3.31 -15.83 70.33 -141.37 -172.08 
DOCKED: USER  keepresnum = 1 
DOCKED: USER  
DOCKED: REMARK  10 active torsions:
DOCKED: REMARK  status: ('A' for Active; 'I' for Inactive)
DOCKED: REMARK    1  A    between atoms: C_6  and  C_10 
DOCKED: REMARK    2  A    between atoms: C_10  and  C_11 
DOCKED: REMARK    3  A    between atoms: C_11  and  C_12 
DOCKED: REMARK    4  A    between atoms: C_12  and  O_14 
DOCKED: REMARK    5  A    between atoms: C_17  and  C_20 
DOCKED: REMARK    6  A    between atoms: C_24  and  C_27 
DOCKED: REMARK    7  A    between atoms: C_31  and  C_34 
DOCKED: REMARK    8  A    between atoms: C_34  and  C_35 
DOCKED: REMARK    9  A    between atoms: C_35  and  C_36 
DOCKED: REMARK   10  A    between atoms: C_36  and  O_38 
DOCKED: USER                              x       y       z     vdW  Elec       q    Type
DOCKED: USER                           _______ _______ _______ _____ _____    ______ ____
DOCKED: ROOT
DOCKED: ATOM      1  C   UNL d   1      -0.517  -1.210 -10.900 -0.28 +0.05    +0.064 A 
DOCKED: ATOM      2  C   UNL d   1      -2.520  -1.118  -6.595 -0.40 +0.02    +0.064 A 
DOCKED: ATOM      3  C   UNL d   1       1.588  -2.547  -4.551 -0.44 +0.01    +0.064 C 
DOCKED: ATOM      4  C   UNL d   1       3.792  -2.185  -8.919 -0.43 +0.02    +0.064 A 
DOCKED: ATOM      5  C   UNL d   1      -1.396  -1.067  -9.896 -0.30 +0.04    +0.066 A 
DOCKED: ATOM      6  C   UNL d   1      -2.729  -0.684 -10.071 -0.31 -0.02    -0.021 A 
DOCKED: ATOM      7  C   UNL d   1      -3.299  -0.615  -8.821 -0.34 -0.01    -0.025 A 
DOCKED: ATOM      8  C   UNL d   1      -2.311  -1.004  -7.921 -0.36 +0.03    +0.066 A 
DOCKED: ATOM      9  C   UNL d   1      -4.715  -0.164  -8.539 -0.37 +0.02    +0.051 C 
DOCKED: ATOM     10  C   UNL d   1      -1.530  -1.543  -5.604 -0.40 +0.02    +0.066 A 
DOCKED: ATOM     11  C   UNL d   1      -1.844  -1.802  -4.265 -0.47 -0.00    -0.021 A 
DOCKED: ATOM     12  C   UNL d   1      -0.676  -2.232  -3.663 -0.44 +0.00    +0.000 A 
DOCKED: ATOM     13  C   UNL d   1       0.309  -2.200  -4.689 -0.40 +0.01    +0.070 A 
DOCKED: ATOM     14  C   UNL d   1      -3.206  -1.669  -3.594 -0.62 +0.01    +0.052 C 
DOCKED: ATOM     15  C   UNL d   1       2.623  -2.495  -5.555 -0.40 +0.01    +0.066 A 
DOCKED: ATOM     16  C   UNL d   1       3.978  -2.715  -5.306 -0.51 -0.00    -0.021 A 
DOCKED: ATOM     17  C   UNL d   1       4.626  -2.616  -6.537 -0.51 +0.00    +0.000 A 
DOCKED: ATOM     18  C   UNL d   1       3.605  -2.342  -7.457 -0.43 +0.02    +0.070 A 
DOCKED: ATOM     19  C   UNL d   1       4.533  -2.943  -3.923 -0.46 +0.00    +0.052 C 
DOCKED: ATOM     20  C   UNL d   1       2.842  -1.879  -9.824 -0.45 +0.02    +0.066 A 
DOCKED: ATOM     21  C   UNL d   1       3.075  -1.762 -11.191 -0.44 -0.01    -0.025 A 
DOCKED: ATOM     22  C   UNL d   1       1.853  -1.512 -11.775 +0.05 -0.01    -0.021 A 
DOCKED: ATOM     23  C   UNL d   1       0.919  -1.466 -10.735 -0.15 +0.03    +0.066 A 
DOCKED: ATOM     24  C   UNL d   1       4.397  -1.880 -11.904 -0.49 +0.01    +0.051 C 
DOCKED: ATOM     25  N   UNL d   1      -1.121  -1.219  -8.577 -0.20 -0.12    -0.248 N 
DOCKED: ATOM     26  N   UNL d   1      -0.219  -1.775  -5.866 -0.25 -0.07    -0.248 N 
DOCKED: ATOM     27  N   UNL d   1       2.408  -2.197  -6.833 -0.21 -0.08    -0.248 N 
DOCKED: ATOM     28  N   UNL d   1       1.531  -1.645  -9.547 -0.17 -0.13    -0.248 N 
DOCKED: ATOM     29 FE   UNL d   1       0.665  -1.710  -7.718 -0.09 +0.00    +0.000 Fe
DOCKED: ATOM     30  O   UNL d   1       0.197  -0.259  -7.408 -0.74 +0.00    +0.000 OA
DOCKED: ATOM     31  O   UNL d   1       1.718  -0.542  -7.701 -1.05 +0.00    +0.000 OA
DOCKED: ENDROOT
DOCKED: BRANCH   6  32
DOCKED: ATOM     32  C   UNL d   1      -3.408  -0.265 -11.349 -0.26 +0.06    +0.052 C 
DOCKED: BRANCH  32  33
DOCKED: ATOM     33  C   UNL d   1      -2.729   0.926 -12.018 -0.24 +0.14    +0.115 C 
DOCKED: BRANCH  33  34
DOCKED: ATOM     34  C   UNL d   1      -3.117   1.070 -13.469 -0.17 +0.22    +0.139 C 
DOCKED: ATOM     35  O   UNL d   1      -3.748   2.051 -13.830 -0.39 -1.40    -0.650 OA
DOCKED: BRANCH  34  36
DOCKED: ATOM     36  O   UNL d   1      -2.807   0.122 -14.377 -0.21 -1.50    -0.776 OA
DOCKED: ATOM     37  H   UNL d   1      -1.948   0.094 -14.813 +0.03 +0.27    +0.167 HD
DOCKED: ENDBRANCH  34  36
DOCKED: ENDBRANCH  33  34
DOCKED: ENDBRANCH  32  33
DOCKED: ENDBRANCH   6  32
DOCKED: BRANCH  22  38
DOCKED: ATOM     38  C   UNL d   1       1.615  -1.266 -13.242 -0.21 +0.03    +0.052 C 
DOCKED: BRANCH  38  39
DOCKED: ATOM     39  C   UNL d   1       2.173   0.078 -13.705 -0.26 +0.05    +0.115 C 
DOCKED: BRANCH  39  40
DOCKED: ATOM     40  C   UNL d   1       1.086   1.062 -14.060 -0.19 +0.09    +0.139 C 
DOCKED: ATOM     41  O   UNL d   1       1.266   2.255 -13.878 -0.06 -0.43    -0.650 OA
DOCKED: BRANCH  40  42
DOCKED: ATOM     42  O   UNL d   1      -0.067   0.652 -14.624 +0.07 -0.67    -0.776 OA
DOCKED: ATOM     43  H   UNL d   1      -0.892   1.133 -14.493 +0.05 +0.18    +0.167 HD
DOCKED: ENDBRANCH  40  42
DOCKED: ENDBRANCH  39  40
DOCKED: ENDBRANCH  38  39
DOCKED: ENDBRANCH  22  38
DOCKED: BRANCH  12  44
DOCKED: ATOM     44  C   UNL d   1      -0.621  -2.619  -2.200 -0.41 +0.00    +0.004 C 
DOCKED: ATOM     45  C   UNL d   1       0.423  -2.553  -1.375 -0.61 +0.00    +0.012 C 
DOCKED: ENDBRANCH  12  44
DOCKED: BRANCH  17  46
DOCKED: ATOM     46  C   UNL d   1       6.086  -2.699  -6.894 -0.53 +0.00    +0.004 C 
DOCKED: ATOM     47  C   UNL d   1       7.081  -1.890  -6.507 -0.58 +0.00    +0.012 C 
DOCKED: ENDBRANCH  17  46
DOCKED: TORSDOF 10
DOCKED: TER
DOCKED: ENDMDL
________________________________________________________________________________


	BEGINNING GENETIC ALGORITHM DOCKING 20 of 100
Run: 20 Seed: 1998209652 1168890436 [ Run 20 of 100 GA/GALS ]
Beginning LAMARCKIAN GENETIC ALGORITHM (LGA), with a maximum of 25000000 energy evaluations.

Final-Value: -12.810


	FINAL GENETIC ALGORITHM DOCKED STATE
	_______________________________________________


Detailed state:  trans -4.055 -10.897 11.200 quatxyzw 0.648840 0.136593 0.732289 -0.155248 center 8.287 34.468 -0.670 ntor 10 97.7368 51.8110 -9.5008 118.0848 114.3563 126.2094 -52.5583 -11.7017 -106.9753 154.4871
State:	 -4.055 -10.897  11.200   0.657  0.138  0.741 -162.138     97.74   51.81   -9.50  118.08  114.36  126.21  -52.56  -11.70 -106.98  154.49

DOCKED: MODEL       20
DOCKED: USER    Run = 20
DOCKED: USER    DPF = D:/Protein_go_brrr/autodock/final/AncB/heme_O2/dock.dpf
DOCKED: USER  
DOCKED: USER    Estimated Free Energy of Binding    =   -8.39 kcal/mol  [=(1)+(2)+(3)-(4)]
DOCKED: USER    Estimated Inhibition Constant, Ki   =  708.76 nM (nanomolar)  [Temperature = 298.15 K]
DOCKED: USER    
DOCKED: USER    (1) Final Intermolecular Energy     =  -11.37 kcal/mol
DOCKED: USER        vdW + Hbond + desolv Energy     =   -7.64 kcal/mol
DOCKED: USER        Electrostatic Energy            =   -3.73 kcal/mol
DOCKED: USER    (2) Final Total Internal Energy     =   -1.44 kcal/mol
DOCKED: USER    (3) Torsional Free Energy           =   +2.98 kcal/mol
DOCKED: USER    (4) Unbound System's Energy  [=(2)] =   -1.44 kcal/mol
DOCKED: USER    
DOCKED: USER    
DOCKED: USER    NEWDPF move heme_O2_opt.pdbqt
DOCKED: USER    NEWDPF about 8.287000 34.468000 -0.670000
DOCKED: USER    NEWDPF tran0 -4.054596 -10.897367 11.200461
DOCKED: USER    NEWDPF quaternion0 0.648840 0.136593 0.732289 -0.155248
DOCKED: USER    NEWDPF axisangle0 0.656804 0.138269 0.741276 -162.137589
DOCKED: USER    NEWDPF quat0 0.656804 0.138269 0.741276 -162.137589
DOCKED: USER    NEWDPF dihe0 97.74 51.81 -9.50 118.08 114.36 126.21 -52.56 -11.70 -106.98 154.49 
DOCKED: USER  keepresnum = 1 
DOCKED: USER  
DOCKED: REMARK  10 active torsions:
DOCKED: REMARK  status: ('A' for Active; 'I' for Inactive)
DOCKED: REMARK    1  A    between atoms: C_6  and  C_10 
DOCKED: REMARK    2  A    between atoms: C_10  and  C_11 
DOCKED: REMARK    3  A    between atoms: C_11  and  C_12 
DOCKED: REMARK    4  A    between atoms: C_12  and  O_14 
DOCKED: REMARK    5  A    between atoms: C_17  and  C_20 
DOCKED: REMARK    6  A    between atoms: C_24  and  C_27 
DOCKED: REMARK    7  A    between atoms: C_31  and  C_34 
DOCKED: REMARK    8  A    between atoms: C_34  and  C_35 
DOCKED: REMARK    9  A    between atoms: C_35  and  C_36 
DOCKED: REMARK   10  A    between atoms: C_36  and  O_38 
DOCKED: USER                              x       y       z     vdW  Elec       q    Type
DOCKED: USER                           _______ _______ _______ _____ _____    ______ ____
DOCKED: ROOT
DOCKED: ATOM      1  C   UNL d   1      -4.674 -12.203   9.648 -0.19 +0.03    +0.064 A 
DOCKED: ATOM      2  C   UNL d   1      -0.986  -9.239  10.067 +0.01 +0.01    +0.064 A 
DOCKED: ATOM      3  C   UNL d   1      -2.473  -7.859  14.424 -0.20 +0.01    +0.064 C 
DOCKED: ATOM      4  C   UNL d   1      -6.006 -11.255  14.205 -0.18 +0.04    +0.064 A 
DOCKED: ATOM      5  C   UNL d   1      -3.548 -11.511   9.407 -0.18 +0.02    +0.066 A 
DOCKED: ATOM      6  C   UNL d   1      -2.809 -11.605   8.224 -0.24 -0.01    -0.021 A 
DOCKED: ATOM      7  C   UNL d   1      -1.718 -10.780   8.362 -0.25 -0.01    -0.025 A 
DOCKED: ATOM      8  C   UNL d   1      -1.846 -10.168   9.606 -0.22 +0.01    +0.066 A 
DOCKED: ATOM      9  C   UNL d   1      -0.609 -10.633   7.343 -0.14 +0.01    +0.051 C 
DOCKED: ATOM     10  C   UNL d   1      -1.081  -8.546  11.353 -0.24 +0.01    +0.066 A 
DOCKED: ATOM     11  C   UNL d   1      -0.256  -7.475  11.712 -0.28 -0.00    -0.021 A 
DOCKED: ATOM     12  C   UNL d   1      -0.681  -7.051  12.958 -0.26 +0.00    +0.000 A 
DOCKED: ATOM     13  C   UNL d   1      -1.757  -7.915  13.301 -0.19 +0.01    +0.070 A 
DOCKED: ATOM     14  C   UNL d   1       0.873  -6.863  10.890 -0.29 +0.00    +0.052 C 
DOCKED: ATOM     15  C   UNL d   1      -3.546  -8.736  14.824 -0.12 +0.02    +0.066 A 
DOCKED: ATOM     16  C   UNL d   1      -4.146  -8.728  16.082 -0.14 -0.00    -0.021 A 
DOCKED: ATOM     17  C   UNL d   1      -5.157  -9.689  16.044 -0.14 +0.00    +0.000 A 
DOCKED: ATOM     18  C   UNL d   1      -5.097 -10.217  14.746 -0.10 +0.04    +0.070 A 
DOCKED: ATOM     19  C   UNL d   1      -3.671  -7.852  17.215 -0.09 +0.00    +0.052 C 
DOCKED: ATOM     20  C   UNL d   1      -5.950 -11.814  12.980 -0.21 +0.04    +0.066 A 
DOCKED: ATOM     21  C   UNL d   1      -6.845 -12.776  12.520 -0.29 -0.01    -0.025 A 
DOCKED: ATOM     22  C   UNL d   1      -6.497 -13.038  11.214 -0.27 -0.01    -0.021 A 
DOCKED: ATOM     23  C   UNL d   1      -5.387 -12.237  10.930 -0.20 +0.03    +0.066 A 
DOCKED: ATOM     24  C   UNL d   1      -7.973 -13.414  13.288 -0.31 +0.02    +0.051 C 
DOCKED: ATOM     25  N   UNL d   1      -2.939 -10.668  10.276 -0.12 -0.07    -0.248 N 
DOCKED: ATOM     26  N   UNL d   1      -1.991  -8.825  12.321 -0.13 -0.05    -0.248 N 
DOCKED: ATOM     27  N   UNL d   1      -4.066  -9.681  14.045 -0.08 -0.11    -0.248 N 
DOCKED: ATOM     28  N   UNL d   1      -5.030 -11.528  12.021 -0.12 -0.12    -0.248 N 
DOCKED: ATOM     29 FE   UNL d   1      -3.522 -10.186  12.173 -0.05 +0.00    +0.000 Fe
DOCKED: ATOM     30  O   UNL d   1      -2.201 -11.007  12.111 -0.10 +0.00    +0.000 OA
DOCKED: ATOM     31  O   UNL d   1      -3.259 -11.313  13.238 -0.09 +0.00    +0.000 OA
DOCKED: ENDROOT
DOCKED: BRANCH   6  32
DOCKED: ATOM     32  C   UNL d   1      -3.041 -12.537   7.063 -0.25 +0.02    +0.052 C 
DOCKED: BRANCH  32  33
DOCKED: ATOM     33  C   UNL d   1      -3.827 -13.785   7.452 -0.11 +0.06    +0.115 C 
DOCKED: BRANCH  33  34
DOCKED: ATOM     34  C   UNL d   1      -5.058 -13.979   6.602 -0.19 +0.13    +0.139 C 
DOCKED: ATOM     35  O   UNL d   1      -5.700 -13.006   6.240 -0.02 -0.63    -0.650 OA
DOCKED: BRANCH  34  36
DOCKED: ATOM     36  O   UNL d   1      -5.484 -15.210   6.252 -0.33 -1.31    -0.776 OA
DOCKED: ATOM     37  H   UNL d   1      -6.190 -15.661   6.731 +0.04 +0.32    +0.167 HD
DOCKED: ENDBRANCH  34  36
DOCKED: ENDBRANCH  33  34
DOCKED: ENDBRANCH  32  33
DOCKED: ENDBRANCH   6  32
DOCKED: BRANCH  22  38
DOCKED: ATOM     38  C   UNL d   1      -7.159 -14.050  10.315 +0.25 +0.04    +0.052 C 
DOCKED: BRANCH  38  39
DOCKED: ATOM     39  C   UNL d   1      -6.324 -15.319  10.154 -0.17 +0.09    +0.115 C 
DOCKED: BRANCH  39  40
DOCKED: ATOM     40  C   UNL d   1      -7.104 -16.445   9.521 +0.09 +0.22    +0.139 C 
DOCKED: ATOM     41  O   UNL d   1      -7.738 -17.214  10.225 -0.06 -0.98    -0.650 OA
DOCKED: BRANCH  40  42
DOCKED: ATOM     42  O   UNL d   1      -7.155 -16.589   8.182 -0.51 -1.88    -0.776 OA
DOCKED: ATOM     43  H   UNL d   1      -6.353 -16.647   7.650 +0.03 +0.28    +0.167 HD
DOCKED: ENDBRANCH  40  42
DOCKED: ENDBRANCH  39  40
DOCKED: ENDBRANCH  38  39
DOCKED: ENDBRANCH  22  38
DOCKED: BRANCH  12  44
DOCKED: ATOM     44  C   UNL d   1      -0.026  -5.891  13.678 -0.36 +0.00    +0.004 C 
DOCKED: ATOM     45  C   UNL d   1      -0.481  -5.225  14.740 -0.37 -0.00    +0.012 C 
DOCKED: ENDBRANCH  12  44
DOCKED: BRANCH  17  46
DOCKED: ATOM     46  C   UNL d   1      -6.101 -10.174  17.111 -0.11 +0.00    +0.004 C 
DOCKED: ATOM     47  C   UNL d   1      -7.426  -9.995  17.189 -0.17 +0.00    +0.012 C 
DOCKED: ENDBRANCH  17  46
DOCKED: TORSDOF 10
DOCKED: TER
DOCKED: ENDMDL
________________________________________________________________________________


	BEGINNING GENETIC ALGORITHM DOCKING 21 of 100
Run: 21 Seed: 705224152 153589429 [ Run 21 of 100 GA/GALS ]
Beginning LAMARCKIAN GENETIC ALGORITHM (LGA), with a maximum of 25000000 energy evaluations.

Final-Value: -10.747


	FINAL GENETIC ALGORITHM DOCKED STATE
	_______________________________________________


Detailed state:  trans -8.149 -15.940 12.193 quatxyzw 0.373444 0.161297 0.878934 0.248994 center 8.287 34.468 -0.670 ntor 10 -116.8216 -101.7427 -103.6290 -105.2547 42.2586 126.9221 76.1397 33.6526 -2.7799 150.8784
State:	 -8.149 -15.940  12.193   0.386  0.167  0.908 151.164   -116.82 -101.74 -103.63 -105.25   42.26  126.92   76.14   33.65   -2.78  150.88

DOCKED: MODEL       21
DOCKED: USER    Run = 21
DOCKED: USER    DPF = D:/Protein_go_brrr/autodock/final/AncB/heme_O2/dock.dpf
DOCKED: USER  
DOCKED: USER    Estimated Free Energy of Binding    =   -5.68 kcal/mol  [=(1)+(2)+(3)-(4)]
DOCKED: USER    Estimated Inhibition Constant, Ki   =   69.06 uM (micromolar)  [Temperature = 298.15 K]
DOCKED: USER    
DOCKED: USER    (1) Final Intermolecular Energy     =   -8.66 kcal/mol
DOCKED: USER        vdW + Hbond + desolv Energy     =   -5.53 kcal/mol
DOCKED: USER        Electrostatic Energy            =   -3.13 kcal/mol
DOCKED: USER    (2) Final Total Internal Energy     =   -2.09 kcal/mol
DOCKED: USER    (3) Torsional Free Energy           =   +2.98 kcal/mol
DOCKED: USER    (4) Unbound System's Energy  [=(2)] =   -2.09 kcal/mol
DOCKED: USER    
DOCKED: USER    
DOCKED: USER    NEWDPF move heme_O2_opt.pdbqt
DOCKED: USER    NEWDPF about 8.287000 34.468000 -0.670000
DOCKED: USER    NEWDPF tran0 -8.148699 -15.940061 12.193036
DOCKED: USER    NEWDPF quaternion0 0.373444 0.161297 0.878934 0.248994
DOCKED: USER    NEWDPF axisangle0 0.385588 0.166542 0.907516 151.163983
DOCKED: USER    NEWDPF quat0 0.385588 0.166542 0.907516 151.163983
DOCKED: USER    NEWDPF dihe0 -116.82 -101.74 -103.63 -105.25 42.26 126.92 76.14 33.65 -2.78 150.88 
DOCKED: USER  keepresnum = 1 
DOCKED: USER  
DOCKED: REMARK  10 active torsions:
DOCKED: REMARK  status: ('A' for Active; 'I' for Inactive)
DOCKED: REMARK    1  A    between atoms: C_6  and  C_10 
DOCKED: REMARK    2  A    between atoms: C_10  and  C_11 
DOCKED: REMARK    3  A    between atoms: C_11  and  C_12 
DOCKED: REMARK    4  A    between atoms: C_12  and  O_14 
DOCKED: REMARK    5  A    between atoms: C_17  and  C_20 
DOCKED: REMARK    6  A    between atoms: C_24  and  C_27 
DOCKED: REMARK    7  A    between atoms: C_31  and  C_34 
DOCKED: REMARK    8  A    between atoms: C_34  and  C_35 
DOCKED: REMARK    9  A    between atoms: C_35  and  C_36 
DOCKED: REMARK   10  A    between atoms: C_36  and  O_38 
DOCKED: USER                              x       y       z     vdW  Elec       q    Type
DOCKED: USER                           _______ _______ _______ _____ _____    ______ ____
DOCKED: ROOT
DOCKED: ATOM      1  C   UNL d   1      -7.157 -16.218  10.339 -0.08 +0.07    +0.064 A 
DOCKED: ATOM      2  C   UNL d   1      -7.245 -12.604  13.419 -0.28 +0.03    +0.064 A 
DOCKED: ATOM      3  C   UNL d   1     -10.273 -14.997  16.282 -0.11 +0.01    +0.064 C 
DOCKED: ATOM      4  C   UNL d   1      -9.815 -18.910  13.360 -0.05 +0.03    +0.064 A 
DOCKED: ATOM      5  C   UNL d   1      -6.932 -15.041  10.944 -0.03 +0.04    +0.066 A 
DOCKED: ATOM      6  C   UNL d   1      -6.117 -14.034  10.418 -0.21 -0.01    -0.021 A 
DOCKED: ATOM      7  C   UNL d   1      -6.108 -13.004  11.330 -0.24 -0.01    -0.025 A 
DOCKED: ATOM      8  C   UNL d   1      -6.956 -13.391  12.364 -0.25 +0.03    +0.066 A 
DOCKED: ATOM      9  C   UNL d   1      -5.289 -11.738  11.197 -0.26 +0.02    +0.051 C 
DOCKED: ATOM     10  C   UNL d   1      -8.144 -12.945  14.522 -0.22 +0.03    +0.066 A 
DOCKED: ATOM     11  C   UNL d   1      -8.537 -12.030  15.505 -0.23 -0.01    -0.021 A 
DOCKED: ATOM     12  C   UNL d   1      -9.424 -12.696  16.330 -0.15 +0.00    +0.000 A 
DOCKED: ATOM     13  C   UNL d   1      -9.515 -14.013  15.799 -0.08 +0.02    +0.070 A 
DOCKED: ATOM     14  C   UNL d   1      -8.105 -10.574  15.636 -0.24 +0.04    +0.052 C 
DOCKED: ATOM     15  C   UNL d   1     -10.366 -16.352  15.795 -0.07 +0.01    +0.066 A 
DOCKED: ATOM     16  C   UNL d   1     -11.051 -17.380  16.442 -0.06 -0.00    -0.021 A 
DOCKED: ATOM     17  C   UNL d   1     -10.933 -18.506  15.628 -0.04 +0.00    +0.000 A 
DOCKED: ATOM     18  C   UNL d   1     -10.177 -18.074  14.529 -0.07 +0.02    +0.070 A 
DOCKED: ATOM     19  C   UNL d   1     -11.702 -17.212  17.792 -0.03 +0.01    +0.052 C 
DOCKED: ATOM     20  C   UNL d   1      -9.056 -18.541  12.310 -0.08 +0.04    +0.066 A 
DOCKED: ATOM     21  C   UNL d   1      -8.763 -19.367  11.229 -0.06 -0.02    -0.025 A 
DOCKED: ATOM     22  C   UNL d   1      -8.029 -18.608  10.346 -0.08 -0.02    -0.021 A 
DOCKED: ATOM     23  C   UNL d   1      -7.885 -17.347  10.931 -0.11 +0.07    +0.066 A 
DOCKED: ATOM     24  C   UNL d   1      -9.161 -20.810  11.050 -0.01 +0.03    +0.051 C 
DOCKED: ATOM     25  N   UNL d   1      -7.412 -14.672  12.157 -0.15 -0.11    -0.248 N 
DOCKED: ATOM     26  N   UNL d   1      -8.729 -14.156  14.701 -0.09 -0.08    -0.248 N 
DOCKED: ATOM     27  N   UNL d   1      -9.778 -16.786  14.683 -0.07 -0.07    -0.248 N 
DOCKED: ATOM     28  N   UNL d   1      -8.472 -17.324  12.145 -0.11 -0.17    -0.248 N 
DOCKED: ATOM     29 FE   UNL d   1      -8.601 -15.754  13.416 -0.04 +0.00    +0.000 Fe
DOCKED: ATOM     30  O   UNL d   1      -7.163 -15.516  13.961 -0.09 +0.00    +0.000 OA
DOCKED: ATOM     31  O   UNL d   1      -7.857 -16.913  14.174 -0.07 +0.00    +0.000 OA
DOCKED: ENDROOT
DOCKED: BRANCH   6  32
DOCKED: ATOM     32  C   UNL d   1      -5.269 -14.088   9.174 -0.17 +0.03    +0.052 C 
DOCKED: BRANCH  32  33
DOCKED: ATOM     33  C   UNL d   1      -6.069 -13.835   7.900 -0.27 +0.11    +0.115 C 
DOCKED: BRANCH  33  34
DOCKED: ATOM     34  C   UNL d   1      -6.292 -15.095   7.101 -0.18 +0.23    +0.139 C 
DOCKED: ATOM     35  O   UNL d   1      -5.700 -15.253   6.046 -0.46 -1.32    -0.650 OA
DOCKED: BRANCH  34  36
DOCKED: ATOM     36  O   UNL d   1      -7.157 -16.045   7.513 -0.53 -1.88    -0.776 OA
DOCKED: ATOM     37  H   UNL d   1      -6.867 -16.935   7.744 +0.02 +0.35    +0.167 HD
DOCKED: ENDBRANCH  34  36
DOCKED: ENDBRANCH  33  34
DOCKED: ENDBRANCH  32  33
DOCKED: ENDBRANCH   6  32
DOCKED: BRANCH  22  38
DOCKED: ATOM     38  C   UNL d   1      -7.447 -19.094   9.043 -0.05 +0.06    +0.052 C 
DOCKED: BRANCH  38  39
DOCKED: ATOM     39  C   UNL d   1      -5.931 -19.259   9.109 -0.01 +0.08    +0.115 C 
DOCKED: BRANCH  39  40
DOCKED: ATOM     40  C   UNL d   1      -5.261 -18.970   7.789 -0.00 +0.10    +0.139 C 
DOCKED: ATOM     41  O   UNL d   1      -5.116 -19.867   6.974 +0.03 -0.42    -0.650 OA
DOCKED: BRANCH  40  42
DOCKED: ATOM     42  O   UNL d   1      -4.863 -17.724   7.469 +0.05 -0.67    -0.776 OA
DOCKED: ATOM     43  H   UNL d   1      -5.396 -17.155   6.900 +0.03 +0.21    +0.167 HD
DOCKED: ENDBRANCH  40  42
DOCKED: ENDBRANCH  39  40
DOCKED: ENDBRANCH  38  39
DOCKED: ENDBRANCH  22  38
DOCKED: BRANCH  12  44
DOCKED: ATOM     44  C   UNL d   1     -10.078 -12.023  17.519 -0.12 +0.00    +0.004 C 
DOCKED: ATOM     45  C   UNL d   1     -11.032 -11.093  17.510 -0.18 +0.00    +0.012 C 
DOCKED: ENDBRANCH  12  44
DOCKED: BRANCH  17  46
DOCKED: ATOM     46  C   UNL d   1     -11.409 -19.921  15.823 -0.01 +0.00    +0.004 C 
DOCKED: ATOM     47  C   UNL d   1     -10.674 -21.023  16.015 -0.00 +0.00    +0.012 C 
DOCKED: ENDBRANCH  17  46
DOCKED: TORSDOF 10
DOCKED: TER
DOCKED: ENDMDL
________________________________________________________________________________


	BEGINNING GENETIC ALGORITHM DOCKING 22 of 100
Run: 22 Seed: 1938533533 1256640727 [ Run 22 of 100 GA/GALS ]
Beginning LAMARCKIAN GENETIC ALGORITHM (LGA), with a maximum of 25000000 energy evaluations.

Final-Value: -20.785


	FINAL GENETIC ALGORITHM DOCKED STATE
	_______________________________________________


Detailed state:  trans 0.352 -1.616 -8.872 quatxyzw -0.282679 -0.308593 -0.252513 -0.872410 center 8.287 34.468 -0.670 ntor 10 -68.5901 165.8235 29.8448 -101.2018 -108.5714 14.4783 -0.4988 64.8257 -124.7908 177.4865
State:	  0.352  -1.616  -8.872  -0.578 -0.631 -0.517 -58.520    -68.59  165.82   29.84 -101.20 -108.57   14.48   -0.50   64.83 -124.79  177.49

DOCKED: MODEL       22
DOCKED: USER    Run = 22
DOCKED: USER    DPF = D:/Protein_go_brrr/autodock/final/AncB/heme_O2/dock.dpf
DOCKED: USER  
DOCKED: USER    Estimated Free Energy of Binding    =  -16.25 kcal/mol  [=(1)+(2)+(3)-(4)]
DOCKED: USER    Estimated Inhibition Constant, Ki   =    1.22 pM (picomolar)  [Temperature = 298.15 K]
DOCKED: USER    
DOCKED: USER    (1) Final Intermolecular Energy     =  -19.23 kcal/mol
DOCKED: USER        vdW + Hbond + desolv Energy     =  -16.26 kcal/mol
DOCKED: USER        Electrostatic Energy            =   -2.97 kcal/mol
DOCKED: USER    (2) Final Total Internal Energy     =   -1.55 kcal/mol
DOCKED: USER    (3) Torsional Free Energy           =   +2.98 kcal/mol
DOCKED: USER    (4) Unbound System's Energy  [=(2)] =   -1.55 kcal/mol
DOCKED: USER    
DOCKED: USER    
DOCKED: USER    NEWDPF move heme_O2_opt.pdbqt
DOCKED: USER    NEWDPF about 8.287000 34.468000 -0.670000
DOCKED: USER    NEWDPF tran0 0.352307 -1.615507 -8.872025
DOCKED: USER    NEWDPF quaternion0 -0.282679 -0.308593 -0.252513 -0.872410
DOCKED: USER    NEWDPF axisangle0 -0.578343 -0.631362 -0.516625 -58.520052
DOCKED: USER    NEWDPF quat0 -0.578343 -0.631362 -0.516625 -58.520052
DOCKED: USER    NEWDPF dihe0 -68.59 165.82 29.84 -101.20 -108.57 14.48 -0.50 64.83 -124.79 177.49 
DOCKED: USER  keepresnum = 1 
DOCKED: USER  
DOCKED: REMARK  10 active torsions:
DOCKED: REMARK  status: ('A' for Active; 'I' for Inactive)
DOCKED: REMARK    1  A    between atoms: C_6  and  C_10 
DOCKED: REMARK    2  A    between atoms: C_10  and  C_11 
DOCKED: REMARK    3  A    between atoms: C_11  and  C_12 
DOCKED: REMARK    4  A    between atoms: C_12  and  O_14 
DOCKED: REMARK    5  A    between atoms: C_17  and  C_20 
DOCKED: REMARK    6  A    between atoms: C_24  and  C_27 
DOCKED: REMARK    7  A    between atoms: C_31  and  C_34 
DOCKED: REMARK    8  A    between atoms: C_34  and  C_35 
DOCKED: REMARK    9  A    between atoms: C_35  and  C_36 
DOCKED: REMARK   10  A    between atoms: C_36  and  O_38 
DOCKED: USER                              x       y       z     vdW  Elec       q    Type
DOCKED: USER                           _______ _______ _______ _____ _____    ______ ____
DOCKED: ROOT
DOCKED: ATOM      1  C   UNL d   1      -0.236  -1.208 -10.869 -0.25 +0.04    +0.064 A 
DOCKED: ATOM      2  C   UNL d   1      -2.579  -1.058  -6.740 -0.40 +0.02    +0.064 A 
DOCKED: ATOM      3  C   UNL d   1       1.333  -2.521  -4.362 -0.44 +0.01    +0.064 C 
DOCKED: ATOM      4  C   UNL d   1       3.886  -2.219  -8.540 -0.42 +0.02    +0.064 A 
DOCKED: ATOM      5  C   UNL d   1      -1.192  -1.046  -9.940 -0.29 +0.04    +0.066 A 
DOCKED: ATOM      6  C   UNL d   1      -2.502  -0.649 -10.225 -0.31 -0.02    -0.021 A 
DOCKED: ATOM      7  C   UNL d   1      -3.169  -0.563  -9.025 -0.34 -0.01    -0.025 A 
DOCKED: ATOM      8  C   UNL d   1      -2.262  -0.957  -8.045 -0.36 +0.03    +0.066 A 
DOCKED: ATOM      9  C   UNL d   1      -4.598  -0.093  -8.861 -0.36 +0.02    +0.051 C 
DOCKED: ATOM     10  C   UNL d   1      -1.678  -1.488  -5.669 -0.40 +0.02    +0.066 A 
DOCKED: ATOM     11  C   UNL d   1      -2.102  -1.732  -4.358 -0.48 -0.00    -0.021 A 
DOCKED: ATOM     12  C   UNL d   1      -0.992  -2.172  -3.661 -0.44 +0.00    +0.000 A 
DOCKED: ATOM     13  C   UNL d   1       0.073  -2.159  -4.605 -0.40 +0.01    +0.070 A 
DOCKED: ATOM     14  C   UNL d   1      -3.512  -1.578  -3.801 -0.55 +0.01    +0.052 C 
DOCKED: ATOM     15  C   UNL d   1       2.446  -2.489  -5.279 -0.40 +0.01    +0.066 A 
DOCKED: ATOM     16  C   UNL d   1       3.773  -2.724  -4.920 -0.51 -0.00    -0.021 A 
DOCKED: ATOM     17  C   UNL d   1       4.520  -2.642  -6.095 -0.51 +0.00    +0.000 A 
DOCKED: ATOM     18  C   UNL d   1       3.580  -2.362  -7.097 -0.42 +0.02    +0.070 A 
DOCKED: ATOM     19  C   UNL d   1       4.212  -2.947  -3.495 -0.33 +0.00    +0.052 C 
DOCKED: ATOM     20  C   UNL d   1       3.016  -1.908  -9.520 -0.45 +0.02    +0.066 A 
DOCKED: ATOM     21  C   UNL d   1       3.360  -1.805 -10.865 -0.49 -0.01    -0.025 A 
DOCKED: ATOM     22  C   UNL d   1       2.193  -1.544 -11.547 -0.17 -0.01    -0.021 A 
DOCKED: ATOM     23  C   UNL d   1       1.178  -1.480 -10.587 -0.19 +0.03    +0.066 A 
DOCKED: ATOM     24  C   UNL d   1       4.733  -1.945 -11.468 -0.31 +0.01    +0.051 C 
DOCKED: ATOM     25  N   UNL d   1      -1.026  -1.192  -8.602 -0.21 -0.12    -0.248 N 
DOCKED: ATOM     26  N   UNL d   1      -0.352  -1.737  -5.823 -0.25 -0.07    -0.248 N 
DOCKED: ATOM     27  N   UNL d   1       2.338  -2.199  -6.572 -0.24 -0.07    -0.248 N 
DOCKED: ATOM     28  N   UNL d   1       1.690  -1.657  -9.352 -0.17 -0.13    -0.248 N 
DOCKED: ATOM     29 FE   UNL d   1       0.679  -1.697  -7.599 -0.09 +0.00    +0.000 Fe
DOCKED: ATOM     30  O   UNL d   1       0.205  -0.238  -7.336 -0.75 +0.00    +0.000 OA
DOCKED: ATOM     31  O   UNL d   1       1.742  -0.542  -7.504 -1.09 +0.00    +0.000 OA
DOCKED: ENDROOT
DOCKED: BRANCH   6  32
DOCKED: ATOM     32  C   UNL d   1      -3.070  -0.231 -11.556 -0.22 +0.07    +0.052 C 
DOCKED: BRANCH  32  33
DOCKED: ATOM     33  C   UNL d   1      -2.117   0.650 -12.357 -0.22 +0.14    +0.115 C 
DOCKED: BRANCH  33  34
DOCKED: ATOM     34  C   UNL d   1      -2.668   1.008 -13.715 -0.17 +0.22    +0.139 C 
DOCKED: ATOM     35  O   UNL d   1      -3.175   2.104 -13.890 -0.35 -1.40    -0.650 OA
DOCKED: BRANCH  34  36
DOCKED: ATOM     36  O   UNL d   1      -2.641   0.130 -14.739 -0.34 -1.43    -0.776 OA
DOCKED: ATOM     37  H   UNL d   1      -1.815  -0.143 -15.156 +0.02 +0.27    +0.167 HD
DOCKED: ENDBRANCH  34  36
DOCKED: ENDBRANCH  33  34
DOCKED: ENDBRANCH  32  33
DOCKED: ENDBRANCH   6  32
DOCKED: BRANCH  22  38
DOCKED: ATOM     38  C   UNL d   1       2.076  -1.307 -13.031 -0.21 +0.02    +0.052 C 
DOCKED: BRANCH  38  39
DOCKED: ATOM     39  C   UNL d   1       2.450   0.121 -13.423 -0.31 +0.05    +0.115 C 
DOCKED: BRANCH  39  40
DOCKED: ATOM     40  C   UNL d   1       1.288   0.879 -14.014 -0.20 +0.08    +0.139 C 
DOCKED: ATOM     41  O   UNL d   1       1.301   2.099 -14.021 -0.04 -0.42    -0.650 OA
DOCKED: BRANCH  40  42
DOCKED: ATOM     42  O   UNL d   1       0.253   0.232 -14.584 +0.07 -0.62    -0.776 OA
DOCKED: ATOM     43  H   UNL d   1      -0.563   0.691 -14.818 +0.04 +0.16    +0.167 HD
DOCKED: ENDBRANCH  40  42
DOCKED: ENDBRANCH  39  40
DOCKED: ENDBRANCH  38  39
DOCKED: ENDBRANCH  22  38
DOCKED: BRANCH  12  44
DOCKED: ATOM     44  C   UNL d   1      -1.059  -2.548  -2.196 -0.47 +0.00    +0.004 C 
DOCKED: ATOM     45  C   UNL d   1      -0.073  -2.533  -1.301 -0.59 +0.00    +0.012 C 
DOCKED: ENDBRANCH  12  44
DOCKED: BRANCH  17  46
DOCKED: ATOM     46  C   UNL d   1       6.003  -2.745  -6.333 -0.64 +0.00    +0.004 C 
DOCKED: ATOM     47  C   UNL d   1       6.860  -1.767  -6.654 -0.62 +0.00    +0.012 C 
DOCKED: ENDBRANCH  17  46
DOCKED: TORSDOF 10
DOCKED: TER
DOCKED: ENDMDL
________________________________________________________________________________


	BEGINNING GENETIC ALGORITHM DOCKING 23 of 100
Run: 23 Seed: 1737377318 1077803464 [ Run 23 of 100 GA/GALS ]
Beginning LAMARCKIAN GENETIC ALGORITHM (LGA), with a maximum of 25000000 energy evaluations.

Final-Value: -19.630


	FINAL GENETIC ALGORITHM DOCKED STATE
	_______________________________________________


Detailed state:  trans 0.259 -1.550 -8.689 quatxyzw 0.275025 0.316340 0.221308 0.880519 center 8.287 34.468 -0.670 ntor 10 -92.9809 97.8862 24.0883 14.1808 73.7365 -104.9019 -7.2865 -56.2938 -134.5106 -168.6856
State:	  0.259  -1.550  -8.689   0.580  0.667  0.467 56.590    -92.98   97.89   24.09   14.18   73.74 -104.90   -7.29  -56.29 -134.51 -168.69

DOCKED: MODEL       23
DOCKED: USER    Run = 23
DOCKED: USER    DPF = D:/Protein_go_brrr/autodock/final/AncB/heme_O2/dock.dpf
DOCKED: USER  
DOCKED: USER    Estimated Free Energy of Binding    =  -16.11 kcal/mol  [=(1)+(2)+(3)-(4)]
DOCKED: USER    Estimated Inhibition Constant, Ki   =    1.56 pM (picomolar)  [Temperature = 298.15 K]
DOCKED: USER    
DOCKED: USER    (1) Final Intermolecular Energy     =  -19.09 kcal/mol
DOCKED: USER        vdW + Hbond + desolv Energy     =  -16.60 kcal/mol
DOCKED: USER        Electrostatic Energy            =   -2.49 kcal/mol
DOCKED: USER    (2) Final Total Internal Energy     =   -0.54 kcal/mol
DOCKED: USER    (3) Torsional Free Energy           =   +2.98 kcal/mol
DOCKED: USER    (4) Unbound System's Energy  [=(2)] =   -0.54 kcal/mol
DOCKED: USER    
DOCKED: USER    
DOCKED: USER    NEWDPF move heme_O2_opt.pdbqt
DOCKED: USER    NEWDPF about 8.287000 34.468000 -0.670000
DOCKED: USER    NEWDPF tran0 0.258764 -1.549912 -8.689145
DOCKED: USER    NEWDPF quaternion0 0.275025 0.316340 0.221308 0.880519
DOCKED: USER    NEWDPF axisangle0 0.580207 0.667367 0.466884 56.589973
DOCKED: USER    NEWDPF quat0 0.580207 0.667367 0.466884 56.589973
DOCKED: USER    NEWDPF dihe0 -92.98 97.89 24.09 14.18 73.74 -104.90 -7.29 -56.29 -134.51 -168.69 
DOCKED: USER  keepresnum = 1 
DOCKED: USER  
DOCKED: REMARK  10 active torsions:
DOCKED: REMARK  status: ('A' for Active; 'I' for Inactive)
DOCKED: REMARK    1  A    between atoms: C_6  and  C_10 
DOCKED: REMARK    2  A    between atoms: C_10  and  C_11 
DOCKED: REMARK    3  A    between atoms: C_11  and  C_12 
DOCKED: REMARK    4  A    between atoms: C_12  and  O_14 
DOCKED: REMARK    5  A    between atoms: C_17  and  C_20 
DOCKED: REMARK    6  A    between atoms: C_24  and  C_27 
DOCKED: REMARK    7  A    between atoms: C_31  and  C_34 
DOCKED: REMARK    8  A    between atoms: C_34  and  C_35 
DOCKED: REMARK    9  A    between atoms: C_35  and  C_36 
DOCKED: REMARK   10  A    between atoms: C_36  and  O_38 
DOCKED: USER                              x       y       z     vdW  Elec       q    Type
DOCKED: USER                           _______ _______ _______ _____ _____    ______ ____
DOCKED: ROOT
DOCKED: ATOM      1  C   UNL d   1      -0.366  -1.194 -10.685 -0.22 +0.04    +0.064 A 
DOCKED: ATOM      2  C   UNL d   1      -2.693  -1.180  -6.544 -0.38 +0.02    +0.064 A 
DOCKED: ATOM      3  C   UNL d   1       1.321  -2.363  -4.180 -0.39 +0.01    +0.064 C 
DOCKED: ATOM      4  C   UNL d   1       3.827  -1.912  -8.373 -0.41 +0.02    +0.064 A 
DOCKED: ATOM      5  C   UNL d   1      -1.326  -1.092  -9.751 -0.30 +0.04    +0.066 A 
DOCKED: ATOM      6  C   UNL d   1      -2.661  -0.786 -10.031 -0.32 -0.02    -0.021 A 
DOCKED: ATOM      7  C   UNL d   1      -3.326  -0.739  -8.828 -0.33 -0.01    -0.025 A 
DOCKED: ATOM      8  C   UNL d   1      -2.390  -1.065  -7.851 -0.36 +0.03    +0.066 A 
DOCKED: ATOM      9  C   UNL d   1      -4.783  -0.365  -8.659 -0.35 +0.02    +0.051 C 
DOCKED: ATOM     10  C   UNL d   1      -1.759  -1.542  -5.476 -0.41 +0.02    +0.066 A 
DOCKED: ATOM     11  C   UNL d   1      -2.159  -1.807  -4.162 -0.49 -0.00    -0.021 A 
DOCKED: ATOM     12  C   UNL d   1      -1.018  -2.168  -3.469 -0.43 +0.00    +0.000 A 
DOCKED: ATOM     13  C   UNL d   1       0.039  -2.088  -4.418 -0.40 +0.01    +0.070 A 
DOCKED: ATOM     14  C   UNL d   1      -3.573  -1.746  -3.597 -0.58 +0.01    +0.052 C 
DOCKED: ATOM     15  C   UNL d   1       2.425  -2.261  -5.103 -0.38 +0.01    +0.066 A 
DOCKED: ATOM     16  C   UNL d   1       3.767  -2.403  -4.750 -0.51 -0.00    -0.021 A 
DOCKED: ATOM     17  C   UNL d   1       4.500  -2.277  -5.930 -0.51 +0.00    +0.000 A 
DOCKED: ATOM     18  C   UNL d   1       3.538  -2.067  -6.928 -0.42 +0.02    +0.070 A 
DOCKED: ATOM     19  C   UNL d   1       4.227  -2.589  -3.326 -0.46 +0.00    +0.052 C 
DOCKED: ATOM     20  C   UNL d   1       2.933  -1.666  -9.350 -0.41 +0.02    +0.066 A 
DOCKED: ATOM     21  C   UNL d   1       3.262  -1.547 -10.697 -0.47 -0.01    -0.025 A 
DOCKED: ATOM     22  C   UNL d   1       2.076  -1.369 -11.374 -0.27 -0.01    -0.021 A 
DOCKED: ATOM     23  C   UNL d   1       1.065  -1.368 -10.409 -0.18 +0.03    +0.066 A 
DOCKED: ATOM     24  C   UNL d   1       4.639  -1.596 -11.308 -0.36 +0.01    +0.051 C 
DOCKED: ATOM     25  N   UNL d   1      -1.144  -1.219  -8.414 -0.21 -0.12    -0.248 N 
DOCKED: ATOM     26  N   UNL d   1      -0.421  -1.703  -5.635 -0.25 -0.06    -0.248 N 
DOCKED: ATOM     27  N   UNL d   1       2.291  -1.985  -6.397 -0.24 -0.07    -0.248 N 
DOCKED: ATOM     28  N   UNL d   1       1.594  -1.504  -9.176 -0.05 -0.14    -0.248 N 
DOCKED: ATOM     29 FE   UNL d   1       0.597  -1.603  -7.417 -0.09 +0.00    +0.000 Fe
DOCKED: ATOM     30  O   UNL d   1       0.026  -0.177  -7.160 -0.34 +0.00    +0.000 OA
DOCKED: ATOM     31  O   UNL d   1       1.579  -0.378  -7.334 -1.05 +0.00    +0.000 OA
DOCKED: ENDROOT
DOCKED: BRANCH   6  32
DOCKED: ATOM     32  C   UNL d   1      -3.263  -0.415 -11.361 -0.25 +0.07    +0.052 C 
DOCKED: BRANCH  32  33
DOCKED: ATOM     33  C   UNL d   1      -2.498   0.700 -12.068 -0.26 +0.14    +0.115 C 
DOCKED: BRANCH  33  34
DOCKED: ATOM     34  C   UNL d   1      -2.964   0.907 -13.488 -0.18 +0.22    +0.139 C 
DOCKED: ATOM     35  O   UNL d   1      -2.610   0.129 -14.359 -0.28 -1.22    -0.650 OA
DOCKED: BRANCH  34  36
DOCKED: ATOM     36  O   UNL d   1      -3.745   1.954 -13.826 -0.35 -1.61    -0.776 OA
DOCKED: ATOM     37  H   UNL d   1      -4.707   1.891 -13.837 +0.02 +0.29    +0.167 HD
DOCKED: ENDBRANCH  34  36
DOCKED: ENDBRANCH  33  34
DOCKED: ENDBRANCH  32  33
DOCKED: ENDBRANCH   6  32
DOCKED: BRANCH  22  38
DOCKED: ATOM     38  C   UNL d   1       1.937  -1.148 -12.858 -0.30 +0.02    +0.052 C 
DOCKED: BRANCH  38  39
DOCKED: ATOM     39  C   UNL d   1       2.528   0.186 -13.306 -0.32 +0.04    +0.115 C 
DOCKED: BRANCH  39  40
DOCKED: ATOM     40  C   UNL d   1       3.596   0.020 -14.359 -0.28 +0.04    +0.139 C 
DOCKED: ATOM     41  O   UNL d   1       3.452  -0.810 -15.242 +0.05 -0.20    -0.650 OA
DOCKED: BRANCH  40  42
DOCKED: ATOM     42  O   UNL d   1       4.688   0.808 -14.373 +0.03 -0.12    -0.776 OA
DOCKED: ATOM     43  H   UNL d   1       5.535   0.503 -14.025 -0.49 -0.04    +0.167 HD
DOCKED: ENDBRANCH  40  42
DOCKED: ENDBRANCH  39  40
DOCKED: ENDBRANCH  38  39
DOCKED: ENDBRANCH  22  38
DOCKED: BRANCH  12  44
DOCKED: ATOM     44  C   UNL d   1      -1.053  -2.539  -2.001 -0.49 +0.00    +0.004 C 
DOCKED: ATOM     45  C   UNL d   1      -0.040  -2.553  -1.136 -0.60 +0.00    +0.012 C 
DOCKED: ENDBRANCH  12  44
DOCKED: BRANCH  17  46
DOCKED: ATOM     46  C   UNL d   1       5.986  -2.281  -6.175 -0.66 +0.00    +0.004 C 
DOCKED: ATOM     47  C   UNL d   1       6.968  -2.547  -5.305 -0.63 +0.00    +0.012 C 
DOCKED: ENDBRANCH  17  46
DOCKED: TORSDOF 10
DOCKED: TER
DOCKED: ENDMDL
________________________________________________________________________________


	BEGINNING GENETIC ALGORITHM DOCKING 24 of 100
Run: 24 Seed: 1305591328 2044832213 [ Run 24 of 100 GA/GALS ]
Beginning LAMARCKIAN GENETIC ALGORITHM (LGA), with a maximum of 25000000 energy evaluations.

Final-Value: -12.541


	FINAL GENETIC ALGORITHM DOCKED STATE
	_______________________________________________


Detailed state:  trans -7.284 -1.728 -12.050 quatxyzw 0.011756 0.625436 -0.502203 0.597063 center 8.287 34.468 -0.670 ntor 10 -21.1018 160.9080 -27.0935 94.6798 175.0976 -84.5463 45.6140 -121.7278 140.8041 -50.4861
State:	 -7.284  -1.728 -12.050   0.015  0.780 -0.626 106.680    -21.10  160.91  -27.09   94.68  175.10  -84.55   45.61 -121.73  140.80  -50.49

DOCKED: MODEL       24
DOCKED: USER    Run = 24
DOCKED: USER    DPF = D:/Protein_go_brrr/autodock/final/AncB/heme_O2/dock.dpf
DOCKED: USER  
DOCKED: USER    Estimated Free Energy of Binding    =   -9.17 kcal/mol  [=(1)+(2)+(3)-(4)]
DOCKED: USER    Estimated Inhibition Constant, Ki   =  189.46 nM (nanomolar)  [Temperature = 298.15 K]
DOCKED: USER    
DOCKED: USER    (1) Final Intermolecular Energy     =  -12.15 kcal/mol
DOCKED: USER        vdW + Hbond + desolv Energy     =   -8.12 kcal/mol
DOCKED: USER        Electrostatic Energy            =   -4.03 kcal/mol
DOCKED: USER    (2) Final Total Internal Energy     =   -0.39 kcal/mol
DOCKED: USER    (3) Torsional Free Energy           =   +2.98 kcal/mol
DOCKED: USER    (4) Unbound System's Energy  [=(2)] =   -0.39 kcal/mol
DOCKED: USER    
DOCKED: USER    
DOCKED: USER    NEWDPF move heme_O2_opt.pdbqt
DOCKED: USER    NEWDPF about 8.287000 34.468000 -0.670000
DOCKED: USER    NEWDPF tran0 -7.283858 -1.728109 -12.049799
DOCKED: USER    NEWDPF quaternion0 0.011756 0.625436 -0.502203 0.597063
DOCKED: USER    NEWDPF axisangle0 0.014655 0.779656 -0.626036 106.680306
DOCKED: USER    NEWDPF quat0 0.014655 0.779656 -0.626036 106.680306
DOCKED: USER    NEWDPF dihe0 -21.10 160.91 -27.09 94.68 175.10 -84.55 45.61 -121.73 140.80 -50.49 
DOCKED: USER  keepresnum = 1 
DOCKED: USER  
DOCKED: REMARK  10 active torsions:
DOCKED: REMARK  status: ('A' for Active; 'I' for Inactive)
DOCKED: REMARK    1  A    between atoms: C_6  and  C_10 
DOCKED: REMARK    2  A    between atoms: C_10  and  C_11 
DOCKED: REMARK    3  A    between atoms: C_11  and  C_12 
DOCKED: REMARK    4  A    between atoms: C_12  and  O_14 
DOCKED: REMARK    5  A    between atoms: C_17  and  C_20 
DOCKED: REMARK    6  A    between atoms: C_24  and  C_27 
DOCKED: REMARK    7  A    between atoms: C_31  and  C_34 
DOCKED: REMARK    8  A    between atoms: C_34  and  C_35 
DOCKED: REMARK    9  A    between atoms: C_35  and  C_36 
DOCKED: REMARK   10  A    between atoms: C_36  and  O_38 
DOCKED: USER                              x       y       z     vdW  Elec       q    Type
DOCKED: USER                           _______ _______ _______ _____ _____    ______ ____
DOCKED: ROOT
DOCKED: ATOM      1  C   UNL d   1      -6.493  -2.088 -13.985 -0.04 +0.09    +0.064 A 
DOCKED: ATOM      2  C   UNL d   1      -8.047  -4.993 -10.564 -0.30 +0.03    +0.064 A 
DOCKED: ATOM      3  C   UNL d   1      -8.994  -1.257  -7.693 -0.22 +0.02    +0.064 C 
DOCKED: ATOM      4  C   UNL d   1      -7.846   1.765 -11.384 -0.07 +0.03    +0.064 A 
DOCKED: ATOM      5  C   UNL d   1      -6.840  -3.183 -13.289 -0.12 +0.08    +0.066 A 
DOCKED: ATOM      6  C   UNL d   1      -6.697  -4.489 -13.764 -0.15 -0.02    -0.021 A 
DOCKED: ATOM      7  C   UNL d   1      -7.187  -5.330 -12.792 -0.27 -0.02    -0.025 A 
DOCKED: ATOM      8  C   UNL d   1      -7.571  -4.515 -11.730 -0.23 +0.04    +0.066 A 
DOCKED: ATOM      9  C   UNL d   1      -7.294  -6.833 -12.921 -0.31 +0.03    +0.051 C 
DOCKED: ATOM     10  C   UNL d   1      -8.444  -4.190  -9.407 -0.25 +0.03    +0.066 A 
DOCKED: ATOM     11  C   UNL d   1      -8.776  -4.742  -8.165 -0.37 -0.01    -0.021 A 
DOCKED: ATOM     12  C   UNL d   1      -9.035  -3.680  -7.318 -0.34 +0.00    +0.000 A 
DOCKED: ATOM     13  C   UNL d   1      -8.854  -2.514  -8.113 -0.19 +0.02    +0.070 A 
DOCKED: ATOM     14  C   UNL d   1      -8.818  -6.220  -7.793 -0.31 +0.02    +0.052 C 
DOCKED: ATOM     15  C   UNL d   1      -8.854  -0.052  -8.475 -0.14 +0.02    +0.066 A 
DOCKED: ATOM     16  C   UNL d   1      -9.174   1.227  -8.020 -0.22 -0.00    -0.021 A 
DOCKED: ATOM     17  C   UNL d   1      -8.856   2.105  -9.055 -0.16 +0.00    +0.000 A 
DOCKED: ATOM     18  C   UNL d   1      -8.357   1.286 -10.078 -0.08 +0.03    +0.070 A 
DOCKED: ATOM     19  C   UNL d   1      -9.799   1.488  -6.672 -0.20 +0.00    +0.052 C 
DOCKED: ATOM     20  C   UNL d   1      -7.401   1.003 -12.402 -0.05 +0.04    +0.066 A 
DOCKED: ATOM     21  C   UNL d   1      -6.915   1.513 -13.603 -0.07 -0.02    -0.025 A 
DOCKED: ATOM     22  C   UNL d   1      -6.500   0.431 -14.346 -0.05 -0.02    -0.021 A 
DOCKED: ATOM     23  C   UNL d   1      -6.766  -0.705 -13.575 -0.06 +0.07    +0.066 A 
DOCKED: ATOM     24  C   UNL d   1      -6.853   2.959 -14.022 -0.08 +0.05    +0.051 C 
DOCKED: ATOM     25  N   UNL d   1      -7.418  -3.189 -12.063 -0.09 -0.19    -0.248 N 
DOCKED: ATOM     26  N   UNL d   1      -8.499  -2.834  -9.383 -0.09 -0.10    -0.248 N 
DOCKED: ATOM     27  N   UNL d   1      -8.434  -0.026  -9.736 -0.03 -0.09    -0.248 N 
DOCKED: ATOM     28  N   UNL d   1      -7.355  -0.355 -12.413 -0.02 -0.18    -0.248 N 
DOCKED: ATOM     29 FE   UNL d   1      -7.924  -1.583 -10.908 -0.02 +0.00    +0.000 Fe
DOCKED: ATOM     30  O   UNL d   1      -9.147  -2.385 -11.440 -0.06 +0.00    +0.000 OA
DOCKED: ATOM     31  O   UNL d   1      -9.204  -0.811 -11.397 -0.04 +0.00    +0.000 OA
DOCKED: ENDROOT
DOCKED: BRANCH   6  32
DOCKED: ATOM     32  C   UNL d   1      -6.246  -4.930 -15.133 -0.13 +0.06    +0.052 C 
DOCKED: BRANCH  32  33
DOCKED: ATOM     33  C   UNL d   1      -7.112  -6.045 -15.711 -0.11 +0.09    +0.115 C 
DOCKED: BRANCH  33  34
DOCKED: ATOM     34  C   UNL d   1      -6.292  -7.129 -16.367 -0.05 +0.18    +0.139 C 
DOCKED: ATOM     35  O   UNL d   1      -5.132  -7.296 -16.027 -0.55 -1.04    -0.650 OA
DOCKED: BRANCH  34  36
DOCKED: ATOM     36  O   UNL d   1      -6.805  -7.904 -17.345 -0.18 -1.20    -0.776 OA
DOCKED: ATOM     37  H   UNL d   1      -7.755  -8.013 -17.465 +0.03 +0.15    +0.167 HD
DOCKED: ENDBRANCH  34  36
DOCKED: ENDBRANCH  33  34
DOCKED: ENDBRANCH  32  33
DOCKED: ENDBRANCH   6  32
DOCKED: BRANCH  22  38
DOCKED: ATOM     38  C   UNL d   1      -5.939   0.488 -15.743 -0.04 +0.05    +0.052 C 
DOCKED: BRANCH  38  39
DOCKED: ATOM     39  C   UNL d   1      -4.793   1.489 -15.870 -0.06 +0.14    +0.115 C 
DOCKED: BRANCH  39  40
DOCKED: ATOM     40  C   UNL d   1      -3.665   1.199 -14.912 -0.10 +0.22    +0.139 C 
DOCKED: ATOM     41  O   UNL d   1      -3.080   0.130 -14.971 -0.31 -1.21    -0.650 OA
DOCKED: BRANCH  40  42
DOCKED: ATOM     42  O   UNL d   1      -3.255   2.122 -14.021 -0.36 -1.72    -0.776 OA
DOCKED: ATOM     43  H   UNL d   1      -2.709   1.884 -13.263 +0.03 +0.28    +0.167 HD
DOCKED: ENDBRANCH  40  42
DOCKED: ENDBRANCH  39  40
DOCKED: ENDBRANCH  38  39
DOCKED: ENDBRANCH  22  38
DOCKED: BRANCH  12  44
DOCKED: ATOM     44  C   UNL d   1      -9.424  -3.883  -5.869 -0.53 +0.00    +0.004 C 
DOCKED: ATOM     45  C   UNL d   1      -9.159  -3.091  -4.831 -0.64 +0.00    +0.012 C 
DOCKED: ENDBRANCH  12  44
DOCKED: BRANCH  17  46
DOCKED: ATOM     46  C   UNL d   1      -9.032   3.596  -9.177 -0.17 +0.00    +0.004 C 
DOCKED: ATOM     47  C   UNL d   1      -8.189   4.563  -8.793 -0.30 +0.00    +0.012 C 
DOCKED: ENDBRANCH  17  46
DOCKED: TORSDOF 10
DOCKED: TER
DOCKED: ENDMDL
________________________________________________________________________________


	BEGINNING GENETIC ALGORITHM DOCKING 25 of 100
Run: 25 Seed: 1591244096 1258396760 [ Run 25 of 100 GA/GALS ]
Beginning LAMARCKIAN GENETIC ALGORITHM (LGA), with a maximum of 25000000 energy evaluations.

Final-Value: -19.942


	FINAL GENETIC ALGORITHM DOCKED STATE
	_______________________________________________


Detailed state:  trans 0.248 -1.629 -8.873 quatxyzw 0.284899 0.302247 0.246991 0.875485 center 8.287 34.468 -0.670 ntor 10 -144.3363 115.7179 31.1539 -57.6730 87.6619 -57.6337 -15.7236 -59.8239 -140.8687 168.2743
State:	  0.248  -1.629  -8.873   0.590  0.625  0.511 57.795   -144.34  115.72   31.15  -57.67   87.66  -57.63  -15.72  -59.82 -140.87  168.27

DOCKED: MODEL       25
DOCKED: USER    Run = 25
DOCKED: USER    DPF = D:/Protein_go_brrr/autodock/final/AncB/heme_O2/dock.dpf
DOCKED: USER  
DOCKED: USER    Estimated Free Energy of Binding    =  -16.34 kcal/mol  [=(1)+(2)+(3)-(4)]
DOCKED: USER    Estimated Inhibition Constant, Ki   =    1.05 pM (picomolar)  [Temperature = 298.15 K]
DOCKED: USER    
DOCKED: USER    (1) Final Intermolecular Energy     =  -19.32 kcal/mol
DOCKED: USER        vdW + Hbond + desolv Energy     =  -16.76 kcal/mol
DOCKED: USER        Electrostatic Energy            =   -2.57 kcal/mol
DOCKED: USER    (2) Final Total Internal Energy     =   -0.62 kcal/mol
DOCKED: USER    (3) Torsional Free Energy           =   +2.98 kcal/mol
DOCKED: USER    (4) Unbound System's Energy  [=(2)] =   -0.62 kcal/mol
DOCKED: USER    
DOCKED: USER    
DOCKED: USER    NEWDPF move heme_O2_opt.pdbqt
DOCKED: USER    NEWDPF about 8.287000 34.468000 -0.670000
DOCKED: USER    NEWDPF tran0 0.248099 -1.628593 -8.872666
DOCKED: USER    NEWDPF quaternion0 0.284899 0.302247 0.246991 0.875485
DOCKED: USER    NEWDPF axisangle0 0.589555 0.625454 0.511109 57.795053
DOCKED: USER    NEWDPF quat0 0.589555 0.625454 0.511109 57.795053
DOCKED: USER    NEWDPF dihe0 -144.34 115.72 31.15 -57.67 87.66 -57.63 -15.72 -59.82 -140.87 168.27 
DOCKED: USER  keepresnum = 1 
DOCKED: USER  
DOCKED: REMARK  10 active torsions:
DOCKED: REMARK  status: ('A' for Active; 'I' for Inactive)
DOCKED: REMARK    1  A    between atoms: C_6  and  C_10 
DOCKED: REMARK    2  A    between atoms: C_10  and  C_11 
DOCKED: REMARK    3  A    between atoms: C_11  and  C_12 
DOCKED: REMARK    4  A    between atoms: C_12  and  O_14 
DOCKED: REMARK    5  A    between atoms: C_17  and  C_20 
DOCKED: REMARK    6  A    between atoms: C_24  and  C_27 
DOCKED: REMARK    7  A    between atoms: C_31  and  C_34 
DOCKED: REMARK    8  A    between atoms: C_34  and  C_35 
DOCKED: REMARK    9  A    between atoms: C_35  and  C_36 
DOCKED: REMARK   10  A    between atoms: C_36  and  O_38 
DOCKED: USER                              x       y       z     vdW  Elec       q    Type
DOCKED: USER                           _______ _______ _______ _____ _____    ______ ____
DOCKED: ROOT
DOCKED: ATOM      1  C   UNL d   1      -0.377  -1.230 -10.860 -0.27 +0.04    +0.064 A 
DOCKED: ATOM      2  C   UNL d   1      -2.649  -1.084  -6.692 -0.39 +0.02    +0.064 A 
DOCKED: ATOM      3  C   UNL d   1       1.311  -2.517  -4.378 -0.44 +0.01    +0.064 C 
DOCKED: ATOM      4  C   UNL d   1       3.791  -2.209  -8.600 -0.43 +0.02    +0.064 A 
DOCKED: ATOM      5  C   UNL d   1      -1.318  -1.071  -9.915 -0.30 +0.04    +0.066 A 
DOCKED: ATOM      6  C   UNL d   1      -2.635  -0.683 -10.178 -0.31 -0.02    -0.021 A 
DOCKED: ATOM      7  C   UNL d   1      -3.282  -0.598  -8.968 -0.34 -0.01    -0.025 A 
DOCKED: ATOM      8  C   UNL d   1      -2.356  -0.985  -8.002 -0.36 +0.03    +0.066 A 
DOCKED: ATOM      9  C   UNL d   1      -4.711  -0.137  -8.780 -0.36 +0.02    +0.051 C 
DOCKED: ATOM     10  C   UNL d   1      -1.727  -1.506  -5.636 -0.41 +0.02    +0.066 A 
DOCKED: ATOM     11  C   UNL d   1      -2.127  -1.749  -4.317 -0.48 -0.00    -0.021 A 
DOCKED: ATOM     12  C   UNL d   1      -1.002  -2.181  -3.638 -0.44 +0.00    +0.000 A 
DOCKED: ATOM     13  C   UNL d   1       0.046  -2.164  -4.600 -0.40 +0.01    +0.070 A 
DOCKED: ATOM     14  C   UNL d   1      -3.528  -1.603  -3.736 -0.56 +0.01    +0.052 C 
DOCKED: ATOM     15  C   UNL d   1       2.409  -2.481  -5.314 -0.40 +0.01    +0.066 A 
DOCKED: ATOM     16  C   UNL d   1       3.743  -2.706  -4.978 -0.51 -0.00    -0.021 A 
DOCKED: ATOM     17  C   UNL d   1       4.469  -2.622  -6.166 -0.51 +0.00    +0.000 A 
DOCKED: ATOM     18  C   UNL d   1       3.510  -2.351  -7.152 -0.42 +0.02    +0.070 A 
DOCKED: ATOM     19  C   UNL d   1       4.208  -2.923  -3.560 -0.38 +0.00    +0.052 C 
DOCKED: ATOM     20  C   UNL d   1       2.902  -1.907  -9.566 -0.45 +0.02    +0.066 A 
DOCKED: ATOM     21  C   UNL d   1       3.222  -1.804 -10.917 -0.47 -0.01    -0.025 A 
DOCKED: ATOM     22  C   UNL d   1       2.042  -1.552 -11.579 -0.08 -0.01    -0.021 A 
DOCKED: ATOM     23  C   UNL d   1       1.043  -1.492 -10.602 -0.17 +0.03    +0.066 A 
DOCKED: ATOM     24  C   UNL d   1       4.586  -1.937 -11.543 -0.39 +0.01    +0.051 C 
DOCKED: ATOM     25  N   UNL d   1      -1.128  -1.213  -8.580 -0.22 -0.12    -0.248 N 
DOCKED: ATOM     26  N   UNL d   1      -0.403  -1.747  -5.811 -0.25 -0.07    -0.248 N 
DOCKED: ATOM     27  N   UNL d   1       2.277  -2.194  -6.606 -0.24 -0.08    -0.248 N 
DOCKED: ATOM     28  N   UNL d   1       1.578  -1.663  -9.375 -0.15 -0.13    -0.248 N 
DOCKED: ATOM     29 FE   UNL d   1       0.597  -1.705  -7.605 -0.09 +0.00    +0.000 Fe
DOCKED: ATOM     30  O   UNL d   1       0.119  -0.248  -7.338 -0.72 +0.00    +0.000 OA
DOCKED: ATOM     31  O   UNL d   1       1.654  -0.543  -7.531 -1.09 +0.00    +0.000 OA
DOCKED: ENDROOT
DOCKED: BRANCH   6  32
DOCKED: ATOM     32  C   UNL d   1      -3.229  -0.272 -11.500 -0.22 +0.07    +0.052 C 
DOCKED: BRANCH  32  33
DOCKED: ATOM     33  C   UNL d   1      -2.493   0.901 -12.141 -0.25 +0.14    +0.115 C 
DOCKED: BRANCH  33  34
DOCKED: ATOM     34  C   UNL d   1      -2.792   1.032 -13.614 -0.18 +0.22    +0.139 C 
DOCKED: ATOM     35  O   UNL d   1      -2.467   0.136 -14.378 -0.30 -1.20    -0.650 OA
DOCKED: BRANCH  34  36
DOCKED: ATOM     36  O   UNL d   1      -3.389   2.133 -14.116 -0.40 -1.74    -0.776 OA
DOCKED: ATOM     37  H   UNL d   1      -4.019   2.086 -14.844 +0.01 +0.34    +0.167 HD
DOCKED: ENDBRANCH  34  36
DOCKED: ENDBRANCH  33  34
DOCKED: ENDBRANCH  32  33
DOCKED: ENDBRANCH   6  32
DOCKED: BRANCH  22  38
DOCKED: ATOM     38  C   UNL d   1       1.898  -1.320 -13.061 -0.18 +0.03    +0.052 C 
DOCKED: BRANCH  38  39
DOCKED: ATOM     39  C   UNL d   1       2.036   0.155 -13.434 -0.27 +0.05    +0.115 C 
DOCKED: BRANCH  39  40
DOCKED: ATOM     40  C   UNL d   1       3.195   0.408 -14.366 -0.27 +0.05    +0.139 C 
DOCKED: ATOM     41  O   UNL d   1       3.038   0.303 -15.571 +0.06 -0.25    -0.650 OA
DOCKED: BRANCH  40  42
DOCKED: ATOM     42  O   UNL d   1       4.394   0.799 -13.893 +0.02 -0.13    -0.776 OA
DOCKED: ATOM     43  H   UNL d   1       5.186   0.263 -14.020 -0.41 -0.03    +0.167 HD
DOCKED: ENDBRANCH  40  42
DOCKED: ENDBRANCH  39  40
DOCKED: ENDBRANCH  38  39
DOCKED: ENDBRANCH  22  38
DOCKED: BRANCH  12  44
DOCKED: ATOM     44  C   UNL d   1      -1.043  -2.554  -2.171 -0.46 +0.00    +0.004 C 
DOCKED: ATOM     45  C   UNL d   1      -0.047  -2.508  -1.287 -0.60 +0.00    +0.012 C 
DOCKED: ENDBRANCH  12  44
DOCKED: BRANCH  17  46
DOCKED: ATOM     46  C   UNL d   1       5.948  -2.717  -6.429 -0.63 +0.00    +0.004 C 
DOCKED: ATOM     47  C   UNL d   1       6.918  -1.892  -6.012 -0.66 +0.00    +0.012 C 
DOCKED: ENDBRANCH  17  46
DOCKED: TORSDOF 10
DOCKED: TER
DOCKED: ENDMDL
________________________________________________________________________________


	BEGINNING GENETIC ALGORITHM DOCKING 26 of 100
Run: 26 Seed: 799997184 1770664241 [ Run 26 of 100 GA/GALS ]
Beginning LAMARCKIAN GENETIC ALGORITHM (LGA), with a maximum of 25000000 energy evaluations.

Final-Value: -11.048


	FINAL GENETIC ALGORITHM DOCKED STATE
	_______________________________________________


Detailed state:  trans 15.444 2.147 -13.885 quatxyzw 0.638800 -0.571502 -0.500349 -0.122350 center 8.287 34.468 -0.670 ntor 10 172.7833 26.4245 63.8126 -65.5568 -106.5352 -83.0624 85.0999 -30.9352 12.3378 -2.9980
State:	 15.444   2.147 -13.885   0.644 -0.576 -0.504 -165.945    172.78   26.42   63.81  -65.56 -106.54  -83.06   85.10  -30.94   12.34   -3.00

DOCKED: MODEL       26
DOCKED: USER    Run = 26
DOCKED: USER    DPF = D:/Protein_go_brrr/autodock/final/AncB/heme_O2/dock.dpf
DOCKED: USER  
DOCKED: USER    Estimated Free Energy of Binding    =   -6.06 kcal/mol  [=(1)+(2)+(3)-(4)]
DOCKED: USER    Estimated Inhibition Constant, Ki   =   36.22 uM (micromolar)  [Temperature = 298.15 K]
DOCKED: USER    
DOCKED: USER    (1) Final Intermolecular Energy     =   -9.04 kcal/mol
DOCKED: USER        vdW + Hbond + desolv Energy     =   -6.87 kcal/mol
DOCKED: USER        Electrostatic Energy            =   -2.17 kcal/mol
DOCKED: USER    (2) Final Total Internal Energy     =   -2.01 kcal/mol
DOCKED: USER    (3) Torsional Free Energy           =   +2.98 kcal/mol
DOCKED: USER    (4) Unbound System's Energy  [=(2)] =   -2.01 kcal/mol
DOCKED: USER    
DOCKED: USER    
DOCKED: USER    NEWDPF move heme_O2_opt.pdbqt
DOCKED: USER    NEWDPF about 8.287000 34.468000 -0.670000
DOCKED: USER    NEWDPF tran0 15.444290 2.147257 -13.884672
DOCKED: USER    NEWDPF quaternion0 0.638800 -0.571502 -0.500349 -0.122350
DOCKED: USER    NEWDPF axisangle0 0.643636 -0.575829 -0.504137 -165.944539
DOCKED: USER    NEWDPF quat0 0.643636 -0.575829 -0.504137 -165.944539
DOCKED: USER    NEWDPF dihe0 172.78 26.42 63.81 -65.56 -106.54 -83.06 85.10 -30.94 12.34 -3.00 
DOCKED: USER  keepresnum = 1 
DOCKED: USER  
DOCKED: REMARK  10 active torsions:
DOCKED: REMARK  status: ('A' for Active; 'I' for Inactive)
DOCKED: REMARK    1  A    between atoms: C_6  and  C_10 
DOCKED: REMARK    2  A    between atoms: C_10  and  C_11 
DOCKED: REMARK    3  A    between atoms: C_11  and  C_12 
DOCKED: REMARK    4  A    between atoms: C_12  and  O_14 
DOCKED: REMARK    5  A    between atoms: C_17  and  C_20 
DOCKED: REMARK    6  A    between atoms: C_24  and  C_27 
DOCKED: REMARK    7  A    between atoms: C_31  and  C_34 
DOCKED: REMARK    8  A    between atoms: C_34  and  C_35 
DOCKED: REMARK    9  A    between atoms: C_35  and  C_36 
DOCKED: REMARK   10  A    between atoms: C_36  and  O_38 
DOCKED: USER                              x       y       z     vdW  Elec       q    Type
DOCKED: USER                           _______ _______ _______ _____ _____    ______ ____
DOCKED: ROOT
DOCKED: ATOM      1  C   UNL d   1      15.990   3.218 -12.137 -0.18 +0.03    +0.064 A 
DOCKED: ATOM      2  C   UNL d   1      14.578   4.621 -16.449 -0.15 +0.01    +0.064 A 
DOCKED: ATOM      3  C   UNL d   1      14.259   0.060 -17.930 -0.08 +0.02    +0.064 C 
DOCKED: ATOM      4  C   UNL d   1      15.249  -1.408 -13.355 -0.06 +0.02    +0.064 A 
DOCKED: ATOM      5  C   UNL d   1      15.630   3.972 -13.189 -0.14 +0.03    +0.066 A 
DOCKED: ATOM      6  C   UNL d   1      15.612   5.370 -13.180 -0.25 -0.01    -0.021 A 
DOCKED: ATOM      7  C   UNL d   1      15.162   5.776 -14.415 -0.23 -0.01    -0.025 A 
DOCKED: ATOM      8  C   UNL d   1      14.963   4.617 -15.159 -0.14 +0.02    +0.066 A 
DOCKED: ATOM      9  C   UNL d   1      14.917   7.215 -14.816 -0.20 +0.01    +0.051 C 
DOCKED: ATOM     10  C   UNL d   1      14.375   3.439 -17.288 -0.12 +0.02    +0.066 A 
DOCKED: ATOM     11  C   UNL d   1      14.135   3.504 -18.665 -0.12 -0.00    -0.021 A 
DOCKED: ATOM     12  C   UNL d   1      14.057   2.199 -19.113 -0.09 +0.00    +0.000 A 
DOCKED: ATOM     13  C   UNL d   1      14.248   1.393 -17.957 -0.02 +0.02    +0.070 A 
DOCKED: ATOM     14  C   UNL d   1      14.011   4.759 -19.521 -0.09 +0.01    +0.052 C 
DOCKED: ATOM     15  C   UNL d   1      14.413  -0.792 -16.775 -0.09 +0.02    +0.066 A 
DOCKED: ATOM     16  C   UNL d   1      14.251  -2.177 -16.788 -0.09 -0.00    -0.021 A 
DOCKED: ATOM     17  C   UNL d   1      14.528  -2.618 -15.494 -0.14 +0.00    +0.000 A 
DOCKED: ATOM     18  C   UNL d   1      14.843  -1.453 -14.780 -0.16 +0.02    +0.070 A 
DOCKED: ATOM     19  C   UNL d   1      13.799  -2.941 -18.006 -0.05 +0.01    +0.052 C 
DOCKED: ATOM     20  C   UNL d   1      15.516  -0.306 -12.629 -0.18 +0.02    +0.066 A 
DOCKED: ATOM     21  C   UNL d   1      15.911  -0.327 -11.294 -0.28 -0.01    -0.025 A 
DOCKED: ATOM     22  C   UNL d   1      16.153   0.981 -10.938 -0.29 -0.01    -0.021 A 
DOCKED: ATOM     23  C   UNL d   1      15.878   1.757 -12.068 -0.20 +0.03    +0.066 A 
DOCKED: ATOM     24  C   UNL d   1      16.047  -1.534 -10.402 -0.34 +0.02    +0.051 C 
DOCKED: ATOM     25  N   UNL d   1      15.189   3.504 -14.382 -0.06 -0.07    -0.248 N 
DOCKED: ATOM     26  N   UNL d   1      14.436   2.156 -16.850 -0.06 -0.08    -0.248 N 
DOCKED: ATOM     27  N   UNL d   1      14.695  -0.348 -15.554 -0.09 -0.07    -0.248 N 
DOCKED: ATOM     28  N   UNL d   1      15.448   0.975 -13.080 -0.12 -0.08    -0.248 N 
DOCKED: ATOM     29 FE   UNL d   1      14.945   1.558 -14.952 -0.03 +0.00    +0.000 Fe
DOCKED: ATOM     30  O   UNL d   1      13.609   2.346 -14.817 -0.33 +0.00    +0.000 OA
DOCKED: ATOM     31  O   UNL d   1      13.688   0.852 -14.324 -0.42 +0.00    +0.000 OA
DOCKED: ENDROOT
DOCKED: BRANCH   6  32
DOCKED: ATOM     32  C   UNL d   1      15.875   6.289 -12.016 -0.33 +0.03    +0.052 C 
DOCKED: BRANCH  32  33
DOCKED: ATOM     33  C   UNL d   1      17.313   6.795 -11.973 -0.25 +0.07    +0.115 C 
DOCKED: BRANCH  33  34
DOCKED: ATOM     34  C   UNL d   1      18.179   5.988 -11.036 -0.23 +0.11    +0.139 C 
DOCKED: ATOM     35  O   UNL d   1      18.952   5.161 -11.491 +0.03 -0.35    -0.650 OA
DOCKED: BRANCH  34  36
DOCKED: ATOM     36  O   UNL d   1      18.098   6.140  -9.698 -0.00 -1.08    -0.776 OA
DOCKED: ATOM     37  H   UNL d   1      18.573   5.563  -9.089 +0.04 +0.27    +0.167 HD
DOCKED: ENDBRANCH  34  36
DOCKED: ENDBRANCH  33  34
DOCKED: ENDBRANCH  32  33
DOCKED: ENDBRANCH   6  32
DOCKED: BRANCH  22  38
DOCKED: ATOM     38  C   UNL d   1      16.562   1.457  -9.568 -0.28 +0.03    +0.052 C 
DOCKED: BRANCH  38  39
DOCKED: ATOM     39  C   UNL d   1      18.066   1.698  -9.461 -0.19 +0.07    +0.115 C 
DOCKED: BRANCH  39  40
DOCKED: ATOM     40  C   UNL d   1      18.404   2.817  -8.509 -0.13 +0.14    +0.139 C 
DOCKED: ATOM     41  O   UNL d   1      18.097   2.725  -7.331 -0.05 -0.76    -0.650 OA
DOCKED: BRANCH  40  42
DOCKED: ATOM     42  O   UNL d   1      19.088   3.901  -8.924 -0.23 -0.82    -0.776 OA
DOCKED: ATOM     43  H   UNL d   1      19.031   4.216  -9.834 +0.04 +0.14    +0.167 HD
DOCKED: ENDBRANCH  40  42
DOCKED: ENDBRANCH  39  40
DOCKED: ENDBRANCH  38  39
DOCKED: ENDBRANCH  22  38
DOCKED: BRANCH  12  44
DOCKED: ATOM     44  C   UNL d   1      13.811   1.862 -20.569 -0.06 +0.00    +0.004 C 
DOCKED: ATOM     45  C   UNL d   1      12.805   1.160 -21.088 -0.07 +0.00    +0.012 C 
DOCKED: ENDBRANCH  12  44
DOCKED: BRANCH  17  46
DOCKED: ATOM     46  C   UNL d   1      14.464  -3.992 -14.883 -0.16 +0.00    +0.004 C 
DOCKED: ATOM     47  C   UNL d   1      13.377  -4.711 -14.571 -0.20 +0.00    +0.012 C 
DOCKED: ENDBRANCH  17  46
DOCKED: TORSDOF 10
DOCKED: TER
DOCKED: ENDMDL
________________________________________________________________________________


	BEGINNING GENETIC ALGORITHM DOCKING 27 of 100
Run: 27 Seed: 2124474830 133485533 [ Run 27 of 100 GA/GALS ]
Beginning LAMARCKIAN GENETIC ALGORITHM (LGA), with a maximum of 25000000 energy evaluations.

Final-Value: -11.353


	FINAL GENETIC ALGORITHM DOCKED STATE
	_______________________________________________


Detailed state:  trans 15.616 -0.337 -11.612 quatxyzw 0.022545 -0.722184 0.420290 0.548906 center 8.287 34.468 -0.670 ntor 10 -72.5055 124.0631 -42.4856 -60.4534 -155.5726 -12.8651 -22.8820 -47.3156 -161.2639 -175.5915
State:	 15.616  -0.337 -11.612   0.027 -0.864  0.503 113.416    -72.51  124.06  -42.49  -60.45 -155.57  -12.87  -22.88  -47.32 -161.26 -175.59

DOCKED: MODEL       27
DOCKED: USER    Run = 27
DOCKED: USER    DPF = D:/Protein_go_brrr/autodock/final/AncB/heme_O2/dock.dpf
DOCKED: USER  
DOCKED: USER    Estimated Free Energy of Binding    =   -7.82 kcal/mol  [=(1)+(2)+(3)-(4)]
DOCKED: USER    Estimated Inhibition Constant, Ki   =    1.86 uM (micromolar)  [Temperature = 298.15 K]
DOCKED: USER    
DOCKED: USER    (1) Final Intermolecular Energy     =  -10.80 kcal/mol
DOCKED: USER        vdW + Hbond + desolv Energy     =   -8.98 kcal/mol
DOCKED: USER        Electrostatic Energy            =   -1.82 kcal/mol
DOCKED: USER    (2) Final Total Internal Energy     =   -0.55 kcal/mol
DOCKED: USER    (3) Torsional Free Energy           =   +2.98 kcal/mol
DOCKED: USER    (4) Unbound System's Energy  [=(2)] =   -0.55 kcal/mol
DOCKED: USER    
DOCKED: USER    
DOCKED: USER    NEWDPF move heme_O2_opt.pdbqt
DOCKED: USER    NEWDPF about 8.287000 34.468000 -0.670000
DOCKED: USER    NEWDPF tran0 15.616380 -0.337405 -11.612197
DOCKED: USER    NEWDPF quaternion0 0.022545 -0.722184 0.420290 0.548906
DOCKED: USER    NEWDPF axisangle0 0.026972 -0.863976 0.502809 113.415981
DOCKED: USER    NEWDPF quat0 0.026972 -0.863976 0.502809 113.415981
DOCKED: USER    NEWDPF dihe0 -72.51 124.06 -42.49 -60.45 -155.57 -12.87 -22.88 -47.32 -161.26 -175.59 
DOCKED: USER  keepresnum = 1 
DOCKED: USER  
DOCKED: REMARK  10 active torsions:
DOCKED: REMARK  status: ('A' for Active; 'I' for Inactive)
DOCKED: REMARK    1  A    between atoms: C_6  and  C_10 
DOCKED: REMARK    2  A    between atoms: C_10  and  C_11 
DOCKED: REMARK    3  A    between atoms: C_11  and  C_12 
DOCKED: REMARK    4  A    between atoms: C_12  and  O_14 
DOCKED: REMARK    5  A    between atoms: C_17  and  C_20 
DOCKED: REMARK    6  A    between atoms: C_24  and  C_27 
DOCKED: REMARK    7  A    between atoms: C_31  and  C_34 
DOCKED: REMARK    8  A    between atoms: C_34  and  C_35 
DOCKED: REMARK    9  A    between atoms: C_35  and  C_36 
DOCKED: REMARK   10  A    between atoms: C_36  and  O_38 
DOCKED: USER                              x       y       z     vdW  Elec       q    Type
DOCKED: USER                           _______ _______ _______ _____ _____    ______ ____
DOCKED: ROOT
DOCKED: ATOM      1  C   UNL d   1      15.966   1.441 -10.510 -0.25 +0.03    +0.064 A 
DOCKED: ATOM      2  C   UNL d   1      17.340  -3.059  -9.860 -0.17 +0.02    +0.064 A 
DOCKED: ATOM      3  C   UNL d   1      14.954  -4.453 -13.792 -0.12 +0.02    +0.064 C 
DOCKED: ATOM      4  C   UNL d   1      13.929   0.251 -14.738 -0.24 +0.02    +0.064 A 
DOCKED: ATOM      5  C   UNL d   1      16.536   0.331 -10.013 -0.32 +0.03    +0.066 A 
DOCKED: ATOM      6  C   UNL d   1      17.306   0.301  -8.847 -0.26 -0.01    -0.021 A 
DOCKED: ATOM      7  C   UNL d   1      17.741  -0.993  -8.682 -0.26 -0.01    -0.025 A 
DOCKED: ATOM      8  C   UNL d   1      17.184  -1.728  -9.725 -0.23 +0.02    +0.066 A 
DOCKED: ATOM      9  C   UNL d   1      18.669  -1.461  -7.582 -0.24 +0.02    +0.051 C 
DOCKED: ATOM     10  C   UNL d   1      16.763  -3.887 -10.920 -0.15 +0.03    +0.066 A 
DOCKED: ATOM     11  C   UNL d   1      16.820  -5.285 -10.921 -0.13 -0.01    -0.021 A 
DOCKED: ATOM     12  C   UNL d   1      16.122  -5.707 -12.038 -0.14 +0.00    +0.000 A 
DOCKED: ATOM     13  C   UNL d   1      15.679  -4.515 -12.675 -0.11 +0.03    +0.070 A 
DOCKED: ATOM     14  C   UNL d   1      17.490  -6.182  -9.886 -0.10 +0.02    +0.052 C 
DOCKED: ATOM     15  C   UNL d   1      14.516  -3.267 -14.487 -0.10 +0.02    +0.066 A 
DOCKED: ATOM     16  C   UNL d   1      13.901  -3.266 -15.739 -0.13 -0.00    -0.021 A 
DOCKED: ATOM     17  C   UNL d   1      13.601  -1.935 -16.030 -0.19 +0.00    +0.000 A 
DOCKED: ATOM     18  C   UNL d   1      14.058  -1.215 -14.918 -0.19 +0.02    +0.070 A 
DOCKED: ATOM     19  C   UNL d   1      13.708  -4.515 -16.561 -0.06 +0.01    +0.052 C 
DOCKED: ATOM     20  C   UNL d   1      14.396   0.979 -13.704 -0.28 +0.02    +0.066 A 
DOCKED: ATOM     21  C   UNL d   1      14.228   2.355 -13.581 -0.30 -0.01    -0.025 A 
DOCKED: ATOM     22  C   UNL d   1      14.778   2.708 -12.369 -0.29 -0.01    -0.021 A 
DOCKED: ATOM     23  C   UNL d   1      15.279   1.531 -11.804 -0.25 +0.03    +0.066 A 
DOCKED: ATOM     24  C   UNL d   1      13.579   3.287 -14.571 -0.30 +0.01    +0.051 C 
DOCKED: ATOM     25  N   UNL d   1      16.496  -0.899 -10.581 -0.18 -0.08    -0.248 N 
DOCKED: ATOM     26  N   UNL d   1      16.077  -3.412 -11.990 -0.03 -0.10    -0.248 N 
DOCKED: ATOM     27  N   UNL d   1      14.678  -2.030 -14.026 -0.10 -0.08    -0.248 N 
DOCKED: ATOM     28  N   UNL d   1      15.085   0.490 -12.639 -0.18 -0.08    -0.248 N 
DOCKED: ATOM     29 FE   UNL d   1      15.576  -1.448 -12.320 -0.06 +0.00    +0.000 Fe
DOCKED: ATOM     30  O   UNL d   1      17.130  -1.518 -12.382 -0.12 +0.00    +0.000 OA
DOCKED: ATOM     31  O   UNL d   1      16.322  -0.980 -13.623 -0.13 +0.00    +0.000 OA
DOCKED: ENDROOT
DOCKED: BRANCH   6  32
DOCKED: ATOM     32  C   UNL d   1      17.734   1.467  -7.994 -0.28 +0.03    +0.052 C 
DOCKED: BRANCH  32  33
DOCKED: ATOM     33  C   UNL d   1      18.894   2.250  -8.600 -0.17 +0.08    +0.115 C 
DOCKED: BRANCH  33  34
DOCKED: ATOM     34  C   UNL d   1      18.932   3.682  -8.125 +0.01 +0.17    +0.139 C 
DOCKED: ATOM     35  O   UNL d   1      18.931   3.920  -6.928 -0.39 -0.79    -0.650 OA
DOCKED: BRANCH  34  36
DOCKED: ATOM     36  O   UNL d   1      18.939   4.712  -8.996 -0.34 -1.01    -0.776 OA
DOCKED: ATOM     37  H   UNL d   1      19.713   4.925  -9.529 +0.03 +0.12    +0.167 HD
DOCKED: ENDBRANCH  34  36
DOCKED: ENDBRANCH  33  34
DOCKED: ENDBRANCH  32  33
DOCKED: ENDBRANCH   6  32
DOCKED: BRANCH  22  38
DOCKED: ATOM     38  C   UNL d   1      14.872   4.108 -11.821 -0.39 +0.03    +0.052 C 
DOCKED: BRANCH  38  39
DOCKED: ATOM     39  C   UNL d   1      15.936   4.942 -12.532 -0.24 +0.06    +0.115 C 
DOCKED: BRANCH  39  40
DOCKED: ATOM     40  C   UNL d   1      15.421   6.296 -12.952 -0.32 +0.07    +0.139 C 
DOCKED: ATOM     41  O   UNL d   1      16.073   7.296 -12.700 -0.43 -0.37    -0.650 OA
DOCKED: BRANCH  40  42
DOCKED: ATOM     42  O   UNL d   1      14.275   6.419 -13.649 -0.05 -0.19    -0.776 OA
DOCKED: ATOM     43  H   UNL d   1      13.565   7.001 -13.353 -0.49 +0.02    +0.167 HD
DOCKED: ENDBRANCH  40  42
DOCKED: ENDBRANCH  39  40
DOCKED: ENDBRANCH  38  39
DOCKED: ENDBRANCH  22  38
DOCKED: BRANCH  12  44
DOCKED: ATOM     44  C   UNL d   1      15.957  -7.173 -12.376 -0.11 +0.00    +0.004 C 
DOCKED: ATOM     45  C   UNL d   1      14.842  -7.811 -12.731 -0.13 +0.01    +0.012 C 
DOCKED: ENDBRANCH  12  44
DOCKED: BRANCH  17  46
DOCKED: ATOM     46  C   UNL d   1      12.991  -1.305 -17.254 +0.01 +0.00    +0.004 C 
DOCKED: ATOM     47  C   UNL d   1      13.512  -1.210 -18.484 -0.09 +0.00    +0.012 C 
DOCKED: ENDBRANCH  17  46
DOCKED: TORSDOF 10
DOCKED: TER
DOCKED: ENDMDL
________________________________________________________________________________


	BEGINNING GENETIC ALGORITHM DOCKING 28 of 100
Run: 28 Seed: 562070610 1906240660 [ Run 28 of 100 GA/GALS ]
Beginning LAMARCKIAN GENETIC ALGORITHM (LGA), with a maximum of 25000000 energy evaluations.

Final-Value: -20.173


	FINAL GENETIC ALGORITHM DOCKED STATE
	_______________________________________________


Detailed state:  trans 0.250 -1.631 -8.890 quatxyzw -0.286015 -0.260851 -0.228077 -0.893383 center 8.287 34.468 -0.670 ntor 10 59.8617 -105.8095 13.6160 -51.9767 169.9627 153.3979 -4.6634 52.6327 -146.4768 178.7704
State:	  0.250  -1.631  -8.890  -0.637 -0.581 -0.508 -53.397     59.86 -105.81   13.62  -51.98  169.96  153.40   -4.66   52.63 -146.48  178.77

DOCKED: MODEL       28
DOCKED: USER    Run = 28
DOCKED: USER    DPF = D:/Protein_go_brrr/autodock/final/AncB/heme_O2/dock.dpf
DOCKED: USER  
DOCKED: USER    Estimated Free Energy of Binding    =  -15.58 kcal/mol  [=(1)+(2)+(3)-(4)]
DOCKED: USER    Estimated Inhibition Constant, Ki   =    3.81 pM (picomolar)  [Temperature = 298.15 K]
DOCKED: USER    
DOCKED: USER    (1) Final Intermolecular Energy     =  -18.56 kcal/mol
DOCKED: USER        vdW + Hbond + desolv Energy     =  -15.73 kcal/mol
DOCKED: USER        Electrostatic Energy            =   -2.83 kcal/mol
DOCKED: USER    (2) Final Total Internal Energy     =   -1.61 kcal/mol
DOCKED: USER    (3) Torsional Free Energy           =   +2.98 kcal/mol
DOCKED: USER    (4) Unbound System's Energy  [=(2)] =   -1.61 kcal/mol
DOCKED: USER    
DOCKED: USER    
DOCKED: USER    NEWDPF move heme_O2_opt.pdbqt
DOCKED: USER    NEWDPF about 8.287000 34.468000 -0.670000
DOCKED: USER    NEWDPF tran0 0.249560 -1.631105 -8.889557
DOCKED: USER    NEWDPF quaternion0 -0.286015 -0.260851 -0.228077 -0.893383
DOCKED: USER    NEWDPF axisangle0 -0.636584 -0.580577 -0.507632 -53.397031
DOCKED: USER    NEWDPF quat0 -0.636584 -0.580577 -0.507632 -53.397031
DOCKED: USER    NEWDPF dihe0 59.86 -105.81 13.62 -51.98 169.96 153.40 -4.66 52.63 -146.48 178.77 
DOCKED: USER  keepresnum = 1 
DOCKED: USER  
DOCKED: REMARK  10 active torsions:
DOCKED: REMARK  status: ('A' for Active; 'I' for Inactive)
DOCKED: REMARK    1  A    between atoms: C_6  and  C_10 
DOCKED: REMARK    2  A    between atoms: C_10  and  C_11 
DOCKED: REMARK    3  A    between atoms: C_11  and  C_12 
DOCKED: REMARK    4  A    between atoms: C_12  and  O_14 
DOCKED: REMARK    5  A    between atoms: C_17  and  C_20 
DOCKED: REMARK    6  A    between atoms: C_24  and  C_27 
DOCKED: REMARK    7  A    between atoms: C_31  and  C_34 
DOCKED: REMARK    8  A    between atoms: C_34  and  C_35 
DOCKED: REMARK    9  A    between atoms: C_35  and  C_36 
DOCKED: REMARK   10  A    between atoms: C_36  and  O_38 
DOCKED: USER                              x       y       z     vdW  Elec       q    Type
DOCKED: USER                           _______ _______ _______ _____ _____    ______ ____
DOCKED: ROOT
DOCKED: ATOM      1  C   UNL d   1      -0.568  -1.211 -10.801 -0.29 +0.05    +0.064 A 
DOCKED: ATOM      2  C   UNL d   1      -2.437  -1.176  -6.435 -0.41 +0.02    +0.064 A 
DOCKED: ATOM      3  C   UNL d   1       1.749  -2.573  -4.532 -0.41 +0.01    +0.064 C 
DOCKED: ATOM      4  C   UNL d   1       3.811  -2.151  -8.963 -0.42 +0.02    +0.064 A 
DOCKED: ATOM      5  C   UNL d   1      -1.417  -1.086  -9.769 -0.30 +0.04    +0.066 A 
DOCKED: ATOM      6  C   UNL d   1      -2.759  -0.717  -9.900 -0.32 -0.02    -0.021 A 
DOCKED: ATOM      7  C   UNL d   1      -3.290  -0.665  -8.632 -0.35 -0.01    -0.025 A 
DOCKED: ATOM      8  C   UNL d   1      -2.271  -1.050  -7.766 -0.36 +0.03    +0.066 A 
DOCKED: ATOM      9  C   UNL d   1      -4.702  -0.233  -8.303 -0.38 +0.02    +0.051 C 
DOCKED: ATOM     10  C   UNL d   1      -1.412  -1.598  -5.479 -0.40 +0.02    +0.066 A 
DOCKED: ATOM     11  C   UNL d   1      -1.681  -1.871  -4.133 -0.47 -0.00    -0.021 A 
DOCKED: ATOM     12  C   UNL d   1      -0.490  -2.292  -3.572 -0.44 +0.00    +0.000 A 
DOCKED: ATOM     13  C   UNL d   1       0.462  -2.240  -4.627 -0.40 +0.01    +0.070 A 
DOCKED: ATOM     14  C   UNL d   1      -3.024  -1.760  -3.420 -0.62 +0.01    +0.052 C 
DOCKED: ATOM     15  C   UNL d   1       2.751  -2.501  -5.567 -0.41 +0.01    +0.066 A 
DOCKED: ATOM     16  C   UNL d   1       4.115  -2.707  -5.362 -0.51 -0.00    -0.021 A 
DOCKED: ATOM     17  C   UNL d   1       4.724  -2.591  -6.611 -0.51 +0.00    +0.000 A 
DOCKED: ATOM     18  C   UNL d   1       3.671  -2.321  -7.497 -0.43 +0.02    +0.070 A 
DOCKED: ATOM     19  C   UNL d   1       4.716  -2.939  -3.998 -0.56 +0.01    +0.052 C 
DOCKED: ATOM     20  C   UNL d   1       2.830  -1.849  -9.835 -0.45 +0.02    +0.066 A 
DOCKED: ATOM     21  C   UNL d   1       3.019  -1.718 -11.208 -0.43 -0.01    -0.025 A 
DOCKED: ATOM     22  C   UNL d   1       1.777  -1.477 -11.751 +0.04 -0.01    -0.021 A 
DOCKED: ATOM     23  C   UNL d   1       0.875  -1.452 -10.683 -0.16 +0.03    +0.066 A 
DOCKED: ATOM     24  C   UNL d   1       4.320  -1.815 -11.963 -0.51 +0.01    +0.051 C 
DOCKED: ATOM     25  N   UNL d   1      -1.100  -1.246  -8.461 -0.14 -0.12    -0.248 N 
DOCKED: ATOM     26  N   UNL d   1      -0.107  -1.812  -5.783 -0.25 -0.07    -0.248 N 
DOCKED: ATOM     27  N   UNL d   1       2.493  -2.196  -6.835 -0.22 -0.08    -0.248 N 
DOCKED: ATOM     28  N   UNL d   1       1.526  -1.633  -9.516 -0.16 -0.13    -0.248 N 
DOCKED: ATOM     29 FE   UNL d   1       0.718  -1.722  -7.662 -0.09 +0.00    +0.000 Fe
DOCKED: ATOM     30  O   UNL d   1       0.243  -0.279  -7.325 -0.78 +0.00    +0.000 OA
DOCKED: ATOM     31  O   UNL d   1       1.758  -0.542  -7.667 -1.05 +0.00    +0.000 OA
DOCKED: ENDROOT
DOCKED: BRANCH   6  32
DOCKED: ATOM     32  C   UNL d   1      -3.483  -0.296 -11.153 -0.26 +0.06    +0.052 C 
DOCKED: BRANCH  32  33
DOCKED: ATOM     33  C   UNL d   1      -2.914   0.981 -11.764 -0.22 +0.13    +0.115 C 
DOCKED: BRANCH  33  34
DOCKED: ATOM     34  C   UNL d   1      -3.533   1.303 -13.102 -0.15 +0.21    +0.139 C 
DOCKED: ATOM     35  O   UNL d   1      -4.600   0.797 -13.410 -0.03 -0.94    -0.650 OA
DOCKED: BRANCH  34  36
DOCKED: ATOM     36  O   UNL d   1      -2.918   2.120 -13.982 -0.30 -1.62    -0.776 OA
DOCKED: ATOM     37  H   UNL d   1      -2.047   1.920 -14.342 +0.03 +0.27    +0.167 HD
DOCKED: ENDBRANCH  34  36
DOCKED: ENDBRANCH  33  34
DOCKED: ENDBRANCH  32  33
DOCKED: ENDBRANCH   6  32
DOCKED: BRANCH  22  38
DOCKED: ATOM     38  C   UNL d   1       1.490  -1.223 -13.209 -0.25 +0.03    +0.052 C 
DOCKED: BRANCH  38  39
DOCKED: ATOM     39  C   UNL d   1       1.814   0.211 -13.624 -0.24 +0.06    +0.115 C 
DOCKED: BRANCH  39  40
DOCKED: ATOM     40  C   UNL d   1       0.665   0.877 -14.338 -0.15 +0.10    +0.139 C 
DOCKED: ATOM     41  O   UNL d   1       0.261   0.420 -15.395 +0.05 -0.49    -0.650 OA
DOCKED: BRANCH  40  42
DOCKED: ATOM     42  O   UNL d   1       0.039   1.943 -13.805 -0.00 -0.70    -0.776 OA
DOCKED: ATOM     43  H   UNL d   1      -0.824   1.862 -13.380 +0.05 +0.19    +0.167 HD
DOCKED: ENDBRANCH  40  42
DOCKED: ENDBRANCH  39  40
DOCKED: ENDBRANCH  38  39
DOCKED: ENDBRANCH  22  38
DOCKED: BRANCH  12  44
DOCKED: ATOM     44  C   UNL d   1      -0.385  -2.690  -2.114 -0.43 +0.00    +0.004 C 
DOCKED: ATOM     45  C   UNL d   1       0.718  -2.948  -1.413 -0.61 +0.00    +0.012 C 
DOCKED: ENDBRANCH  12  44
DOCKED: BRANCH  17  46
DOCKED: ATOM     46  C   UNL d   1       6.173  -2.653  -7.014 -0.48 +0.00    +0.004 C 
DOCKED: ATOM     47  C   UNL d   1       7.184  -1.881  -6.596 -0.54 +0.00    +0.012 C 
DOCKED: ENDBRANCH  17  46
DOCKED: TORSDOF 10
DOCKED: TER
DOCKED: ENDMDL
________________________________________________________________________________


	BEGINNING GENETIC ALGORITHM DOCKING 29 of 100
Run: 29 Seed: 1614384471 1985483592 [ Run 29 of 100 GA/GALS ]
Beginning LAMARCKIAN GENETIC ALGORITHM (LGA), with a maximum of 25000000 energy evaluations.

Final-Value: -12.203


	FINAL GENETIC ALGORITHM DOCKED STATE
	_______________________________________________


Detailed state:  trans -4.194 -12.117 11.417 quatxyzw -0.438070 -0.337189 0.315086 -0.771439 center 8.287 34.468 -0.670 ntor 10 -47.0927 106.4499 68.5646 33.7656 -179.9170 -37.0818 34.5950 85.1199 -34.1264 -180.0000
State:	 -4.194 -12.117  11.417  -0.688 -0.530  0.495 -79.033    -47.09  106.45   68.56   33.77 -179.92  -37.08   34.60   85.12  -34.13 -180.00

DOCKED: MODEL       29
DOCKED: USER    Run = 29
DOCKED: USER    DPF = D:/Protein_go_brrr/autodock/final/AncB/heme_O2/dock.dpf
DOCKED: USER  
DOCKED: USER    Estimated Free Energy of Binding    =   -8.35 kcal/mol  [=(1)+(2)+(3)-(4)]
DOCKED: USER    Estimated Inhibition Constant, Ki   =  756.24 nM (nanomolar)  [Temperature = 298.15 K]
DOCKED: USER    
DOCKED: USER    (1) Final Intermolecular Energy     =  -11.33 kcal/mol
DOCKED: USER        vdW + Hbond + desolv Energy     =   -7.64 kcal/mol
DOCKED: USER        Electrostatic Energy            =   -3.69 kcal/mol
DOCKED: USER    (2) Final Total Internal Energy     =   -0.87 kcal/mol
DOCKED: USER    (3) Torsional Free Energy           =   +2.98 kcal/mol
DOCKED: USER    (4) Unbound System's Energy  [=(2)] =   -0.87 kcal/mol
DOCKED: USER    
DOCKED: USER    
DOCKED: USER    NEWDPF move heme_O2_opt.pdbqt
DOCKED: USER    NEWDPF about 8.287000 34.468000 -0.670000
DOCKED: USER    NEWDPF tran0 -4.193679 -12.116849 11.416507
DOCKED: USER    NEWDPF quaternion0 -0.438070 -0.337189 0.315086 -0.771439
DOCKED: USER    NEWDPF axisangle0 -0.688461 -0.529920 0.495183 -79.033357
DOCKED: USER    NEWDPF quat0 -0.688461 -0.529920 0.495183 -79.033357
DOCKED: USER    NEWDPF dihe0 -47.09 106.45 68.56 33.77 -179.92 -37.08 34.60 85.12 -34.13 -180.00 
DOCKED: USER  keepresnum = 1 
DOCKED: USER  
DOCKED: REMARK  10 active torsions:
DOCKED: REMARK  status: ('A' for Active; 'I' for Inactive)
DOCKED: REMARK    1  A    between atoms: C_6  and  C_10 
DOCKED: REMARK    2  A    between atoms: C_10  and  C_11 
DOCKED: REMARK    3  A    between atoms: C_11  and  C_12 
DOCKED: REMARK    4  A    between atoms: C_12  and  O_14 
DOCKED: REMARK    5  A    between atoms: C_17  and  C_20 
DOCKED: REMARK    6  A    between atoms: C_24  and  C_27 
DOCKED: REMARK    7  A    between atoms: C_31  and  C_34 
DOCKED: REMARK    8  A    between atoms: C_34  and  C_35 
DOCKED: REMARK    9  A    between atoms: C_35  and  C_36 
DOCKED: REMARK   10  A    between atoms: C_36  and  O_38 
DOCKED: USER                              x       y       z     vdW  Elec       q    Type
DOCKED: USER                           _______ _______ _______ _____ _____    ______ ____
DOCKED: ROOT
DOCKED: ATOM      1  C   UNL d   1      -4.745 -13.698  10.114 -0.10 +0.03    +0.064 A 
DOCKED: ATOM      2  C   UNL d   1      -6.502 -12.200  14.265 -0.15 +0.03    +0.064 A 
DOCKED: ATOM      3  C   UNL d   1      -3.166  -8.752  14.538 -0.16 +0.02    +0.064 C 
DOCKED: ATOM      4  C   UNL d   1      -1.646  -9.979  10.039 -0.21 +0.01    +0.064 A 
DOCKED: ATOM      5  C   UNL d   1      -5.496 -13.571  11.220 -0.14 +0.03    +0.066 A 
DOCKED: ATOM      6  C   UNL d   1      -6.570 -14.407  11.537 -0.19 -0.01    -0.021 A 
DOCKED: ATOM      7  C   UNL d   1      -7.107 -13.948  12.717 -0.23 -0.01    -0.025 A 
DOCKED: ATOM      8  C   UNL d   1      -6.316 -12.873  13.113 -0.16 +0.03    +0.066 A 
DOCKED: ATOM      9  C   UNL d   1      -8.338 -14.517  13.387 -0.20 +0.02    +0.051 C 
DOCKED: ATOM     10  C   UNL d   1      -5.691 -11.080  14.745 -0.13 +0.04    +0.066 A 
DOCKED: ATOM     11  C   UNL d   1      -5.826 -10.525  16.022 -0.12 -0.01    -0.021 A 
DOCKED: ATOM     12  C   UNL d   1      -4.860  -9.540  16.126 -0.13 +0.00    +0.000 A 
DOCKED: ATOM     13  C   UNL d   1      -4.185  -9.543  14.875 -0.12 +0.03    +0.070 A 
DOCKED: ATOM     14  C   UNL d   1      -6.815 -10.934  17.107 -0.08 +0.01    +0.052 C 
DOCKED: ATOM     15  C   UNL d   1      -2.479  -8.699  13.271 -0.14 +0.02    +0.066 A 
DOCKED: ATOM     16  C   UNL d   1      -1.530  -7.737  12.925 -0.17 -0.00    -0.021 A 
DOCKED: ATOM     17  C   UNL d   1      -1.083  -8.067  11.645 -0.28 +0.00    +0.000 A 
DOCKED: ATOM     18  C   UNL d   1      -1.801  -9.221  11.303 -0.23 +0.01    +0.070 A 
DOCKED: ATOM     19  C   UNL d   1      -1.180  -6.571  13.814 -0.30 +0.00    +0.052 C 
DOCKED: ATOM     20  C   UNL d   1      -2.348 -11.065   9.660 -0.17 +0.02    +0.066 A 
DOCKED: ATOM     21  C   UNL d   1      -2.145 -11.747   8.464 -0.19 -0.01    -0.025 A 
DOCKED: ATOM     22  C   UNL d   1      -3.001 -12.826   8.480 -0.11 -0.01    -0.021 A 
DOCKED: ATOM     23  C   UNL d   1      -3.710 -12.751   9.683 -0.09 +0.02    +0.066 A 
DOCKED: ATOM     24  C   UNL d   1      -1.186 -11.386   7.359 -0.28 +0.01    +0.051 C 
DOCKED: ATOM     25  N   UNL d   1      -5.364 -12.601  12.157 -0.08 -0.11    -0.248 N 
DOCKED: ATOM     26  N   UNL d   1      -4.700 -10.480  14.038 -0.09 -0.13    -0.248 N 
DOCKED: ATOM     27  N   UNL d   1      -2.696  -9.547  12.269 -0.12 -0.07    -0.248 N 
DOCKED: ATOM     28  N   UNL d   1      -3.342 -11.654  10.376 -0.07 -0.08    -0.248 N 
DOCKED: ATOM     29 FE   UNL d   1      -4.014 -11.069  12.194 -0.04 +0.00    +0.000 Fe
DOCKED: ATOM     30  O   UNL d   1      -5.485 -10.605  11.985 -0.33 +0.00    +0.000 OA
DOCKED: ATOM     31  O   UNL d   1      -4.324  -9.907  11.180 -0.39 +0.00    +0.000 OA
DOCKED: ENDROOT
DOCKED: BRANCH   6  32
DOCKED: ATOM     32  C   UNL d   1      -7.159 -15.511  10.697 -0.00 +0.04    +0.052 C 
DOCKED: BRANCH  32  33
DOCKED: ATOM     33  C   UNL d   1      -6.105 -16.478  10.165 -0.10 +0.09    +0.115 C 
DOCKED: BRANCH  33  34
DOCKED: ATOM     34  C   UNL d   1      -6.471 -17.042   8.815 -0.11 +0.19    +0.139 C 
DOCKED: ATOM     35  O   UNL d   1      -7.159 -16.382   8.052 -0.57 -1.58    -0.650 OA
DOCKED: BRANCH  34  36
DOCKED: ATOM     36  O   UNL d   1      -6.078 -18.276   8.438 +0.01 -0.79    -0.776 OA
DOCKED: ATOM     37  H   UNL d   1      -5.171 -18.582   8.556 +0.01 +0.12    +0.167 HD
DOCKED: ENDBRANCH  34  36
DOCKED: ENDBRANCH  33  34
DOCKED: ENDBRANCH  32  33
DOCKED: ENDBRANCH   6  32
DOCKED: BRANCH  22  38
DOCKED: ATOM     38  C   UNL d   1      -3.168 -13.831   7.370 -0.12 +0.02    +0.052 C 
DOCKED: BRANCH  38  39
DOCKED: ATOM     39  C   UNL d   1      -4.024 -13.296   6.224 -0.21 +0.07    +0.115 C 
DOCKED: BRANCH  39  40
DOCKED: ATOM     40  C   UNL d   1      -5.468 -13.714   6.339 -0.23 +0.15    +0.139 C 
DOCKED: ATOM     41  O   UNL d   1      -6.314 -12.892   6.654 -0.06 -0.65    -0.650 OA
DOCKED: BRANCH  40  42
DOCKED: ATOM     42  O   UNL d   1      -5.853 -14.972   6.051 -0.33 -1.57    -0.776 OA
DOCKED: ATOM     43  H   UNL d   1      -6.135 -15.585   6.741 +0.04 +0.31    +0.167 HD
DOCKED: ENDBRANCH  40  42
DOCKED: ENDBRANCH  39  40
DOCKED: ENDBRANCH  38  39
DOCKED: ENDBRANCH  22  38
DOCKED: BRANCH  12  44
DOCKED: ATOM     44  C   UNL d   1      -4.688  -8.713  17.383 -0.10 +0.00    +0.004 C 
DOCKED: ATOM     45  C   UNL d   1      -4.865  -7.401  17.530 -0.15 -0.00    +0.012 C 
DOCKED: ENDBRANCH  12  44
DOCKED: BRANCH  17  46
DOCKED: ATOM     46  C   UNL d   1      -0.112  -7.372  10.729 -0.20 +0.00    +0.004 C 
DOCKED: ATOM     47  C   UNL d   1       0.912  -6.573  11.058 -0.34 +0.00    +0.012 C 
DOCKED: ENDBRANCH  17  46
DOCKED: TORSDOF 10
DOCKED: TER
DOCKED: ENDMDL
________________________________________________________________________________


	BEGINNING GENETIC ALGORITHM DOCKING 30 of 100
Run: 30 Seed: 792550213 169071008 [ Run 30 of 100 GA/GALS ]
Beginning LAMARCKIAN GENETIC ALGORITHM (LGA), with a maximum of 25000000 energy evaluations.

Final-Value: -11.315


	FINAL GENETIC ALGORITHM DOCKED STATE
	_______________________________________________


Detailed state:  trans -7.160 -1.093 -11.779 quatxyzw -0.482238 0.787719 -0.057831 0.378946 center 8.287 34.468 -0.670 ntor 10 59.0614 45.2588 -128.2820 114.6083 60.8800 -179.9780 137.3925 88.7593 36.0069 163.5722
State:	 -7.160  -1.093 -11.779  -0.521  0.851 -0.062 135.463     59.06   45.26 -128.28  114.61   60.88 -179.98  137.39   88.76   36.01  163.57

DOCKED: MODEL       30
DOCKED: USER    Run = 30
DOCKED: USER    DPF = D:/Protein_go_brrr/autodock/final/AncB/heme_O2/dock.dpf
DOCKED: USER  
DOCKED: USER    Estimated Free Energy of Binding    =   -7.66 kcal/mol  [=(1)+(2)+(3)-(4)]
DOCKED: USER    Estimated Inhibition Constant, Ki   =    2.44 uM (micromolar)  [Temperature = 298.15 K]
DOCKED: USER    
DOCKED: USER    (1) Final Intermolecular Energy     =  -10.64 kcal/mol
DOCKED: USER        vdW + Hbond + desolv Energy     =   -7.71 kcal/mol
DOCKED: USER        Electrostatic Energy            =   -2.93 kcal/mol
DOCKED: USER    (2) Final Total Internal Energy     =   -0.67 kcal/mol
DOCKED: USER    (3) Torsional Free Energy           =   +2.98 kcal/mol
DOCKED: USER    (4) Unbound System's Energy  [=(2)] =   -0.67 kcal/mol
DOCKED: USER    
DOCKED: USER    
DOCKED: USER    NEWDPF move heme_O2_opt.pdbqt
DOCKED: USER    NEWDPF about 8.287000 34.468000 -0.670000
DOCKED: USER    NEWDPF tran0 -7.159871 -1.092529 -11.778961
DOCKED: USER    NEWDPF quaternion0 -0.482238 0.787719 -0.057831 0.378946
DOCKED: USER    NEWDPF axisangle0 -0.521103 0.851203 -0.062491 135.463180
DOCKED: USER    NEWDPF quat0 -0.521103 0.851203 -0.062491 135.463180
DOCKED: USER    NEWDPF dihe0 59.06 45.26 -128.28 114.61 60.88 -179.98 137.39 88.76 36.01 163.57 
DOCKED: USER  keepresnum = 1 
DOCKED: USER  
DOCKED: REMARK  10 active torsions:
DOCKED: REMARK  status: ('A' for Active; 'I' for Inactive)
DOCKED: REMARK    1  A    between atoms: C_6  and  C_10 
DOCKED: REMARK    2  A    between atoms: C_10  and  C_11 
DOCKED: REMARK    3  A    between atoms: C_11  and  C_12 
DOCKED: REMARK    4  A    between atoms: C_12  and  O_14 
DOCKED: REMARK    5  A    between atoms: C_17  and  C_20 
DOCKED: REMARK    6  A    between atoms: C_24  and  C_27 
DOCKED: REMARK    7  A    between atoms: C_31  and  C_34 
DOCKED: REMARK    8  A    between atoms: C_34  and  C_35 
DOCKED: REMARK    9  A    between atoms: C_35  and  C_36 
DOCKED: REMARK   10  A    between atoms: C_36  and  O_38 
DOCKED: USER                              x       y       z     vdW  Elec       q    Type
DOCKED: USER                           _______ _______ _______ _____ _____    ______ ____
DOCKED: ROOT
DOCKED: ATOM      1  C   UNL d   1      -6.747   0.929 -12.270 -0.08 +0.05    +0.064 A 
DOCKED: ATOM      2  C   UNL d   1      -6.854  -3.045 -14.868 -0.06 +0.08    +0.064 A 
DOCKED: ATOM      3  C   UNL d   1      -7.948  -5.662 -10.989 -0.29 +0.03    +0.064 C 
DOCKED: ATOM      4  C   UNL d   1      -8.311  -1.515  -8.394 -0.18 +0.02    +0.064 A 
DOCKED: ATOM      5  C   UNL d   1      -6.689   0.062 -13.293 -0.06 +0.06    +0.066 A 
DOCKED: ATOM      6  C   UNL d   1      -6.371   0.422 -14.606 -0.05 -0.02    -0.021 A 
DOCKED: ATOM      7  C   UNL d   1      -6.444  -0.721 -15.368 -0.05 -0.03    -0.025 A 
DOCKED: ATOM      8  C   UNL d   1      -6.757  -1.756 -14.490 -0.05 +0.08    +0.066 A 
DOCKED: ATOM      9  C   UNL d   1      -6.246  -0.776 -16.867 -0.02 +0.04    +0.051 C 
DOCKED: ATOM     10  C   UNL d   1      -7.156  -4.176 -13.990 -0.13 +0.06    +0.066 A 
DOCKED: ATOM     11  C   UNL d   1      -7.083  -5.511 -14.402 -0.17 -0.02    -0.021 A 
DOCKED: ATOM     12  C   UNL d   1      -7.378  -6.282 -13.292 -0.28 +0.00    +0.000 A 
DOCKED: ATOM     13  C   UNL d   1      -7.631  -5.352 -12.246 -0.26 +0.04    +0.070 A 
DOCKED: ATOM     14  C   UNL d   1      -6.721  -6.030 -15.788 -0.15 +0.05    +0.052 C 
DOCKED: ATOM     15  C   UNL d   1      -8.246  -4.751  -9.910 -0.28 +0.03    +0.066 A 
DOCKED: ATOM     16  C   UNL d   1      -8.730  -5.137  -8.661 -0.39 -0.01    -0.021 A 
DOCKED: ATOM     17  C   UNL d   1      -8.843  -3.971  -7.904 -0.33 +0.00    +0.000 A 
DOCKED: ATOM     18  C   UNL d   1      -8.411  -2.948  -8.759 -0.20 +0.02    +0.070 A 
DOCKED: ATOM     19  C   UNL d   1      -9.091  -6.562  -8.323 -0.30 +0.02    +0.052 C 
DOCKED: ATOM     20  C   UNL d   1      -7.943  -0.502  -9.203 -0.13 +0.02    +0.066 A 
DOCKED: ATOM     21  C   UNL d   1      -7.851   0.826  -8.797 -0.21 -0.01    -0.025 A 
DOCKED: ATOM     22  C   UNL d   1      -7.380   1.533  -9.881 -0.17 -0.01    -0.021 A 
DOCKED: ATOM     23  C   UNL d   1      -7.219   0.609 -10.917 -0.08 +0.04    +0.066 A 
DOCKED: ATOM     24  C   UNL d   1      -8.197   1.393  -7.444 -0.28 +0.01    +0.051 C 
DOCKED: ATOM     25  N   UNL d   1      -6.972  -1.262 -13.224 -0.05 -0.25    -0.248 N 
DOCKED: ATOM     26  N   UNL d   1      -7.499  -4.073 -12.681 -0.09 -0.19    -0.248 N 
DOCKED: ATOM     27  N   UNL d   1      -8.124  -3.429  -9.996 -0.11 -0.11    -0.248 N 
DOCKED: ATOM     28  N   UNL d   1      -7.605  -0.619 -10.514 -0.04 -0.12    -0.248 N 
DOCKED: ATOM     29 FE   UNL d   1      -7.554  -2.335 -11.587 -0.02 +0.00    +0.000 Fe
DOCKED: ATOM     30  O   UNL d   1      -8.658  -2.200 -12.676 -0.05 +0.00    +0.000 OA
DOCKED: ATOM     31  O   UNL d   1      -9.046  -2.095 -11.152 -0.06 +0.00    +0.000 OA
DOCKED: ENDROOT
DOCKED: BRANCH   6  32
DOCKED: ATOM     32  C   UNL d   1      -6.142   1.806 -15.155 -0.07 +0.05    +0.052 C 
DOCKED: BRANCH  32  33
DOCKED: ATOM     33  C   UNL d   1      -4.748   1.986 -15.747 -0.04 +0.16    +0.115 C 
DOCKED: BRANCH  33  34
DOCKED: ATOM     34  C   UNL d   1      -3.669   1.408 -14.865 -0.10 +0.23    +0.139 C 
DOCKED: ATOM     35  O   UNL d   1      -3.145   2.109 -14.015 -0.38 -1.43    -0.650 OA
DOCKED: BRANCH  34  36
DOCKED: ATOM     36  O   UNL d   1      -3.247   0.135 -15.012 -0.26 -1.43    -0.776 OA
DOCKED: ATOM     37  H   UNL d   1      -2.868  -0.185 -15.839 +0.01 +0.28    +0.167 HD
DOCKED: ENDBRANCH  34  36
DOCKED: ENDBRANCH  33  34
DOCKED: ENDBRANCH  32  33
DOCKED: ENDBRANCH   6  32
DOCKED: BRANCH  22  38
DOCKED: ATOM     38  C   UNL d   1      -7.162   3.023  -9.930 -0.23 +0.03    +0.052 C 
DOCKED: BRANCH  38  39
DOCKED: ATOM     39  C   UNL d   1      -8.364   3.769 -10.506 -0.13 +0.05    +0.115 C 
DOCKED: BRANCH  39  40
DOCKED: ATOM     40  C   UNL d   1      -8.252   3.980 -11.995 -0.09 +0.08    +0.139 C 
DOCKED: ATOM     41  O   UNL d   1      -7.160   4.193 -12.496 -0.03 -0.57    -0.650 OA
DOCKED: BRANCH  40  42
DOCKED: ATOM     42  O   UNL d   1      -9.332   3.887 -12.794 +0.02 -0.34    -0.776 OA
DOCKED: ATOM     43  H   UNL d   1     -10.159   4.336 -12.579 +0.01 +0.06    +0.167 HD
DOCKED: ENDBRANCH  40  42
DOCKED: ENDBRANCH  39  40
DOCKED: ENDBRANCH  38  39
DOCKED: ENDBRANCH  22  38
DOCKED: BRANCH  12  44
DOCKED: ATOM     44  C   UNL d   1      -7.390  -7.795 -13.345 -0.34 +0.00    +0.004 C 
DOCKED: ATOM     45  C   UNL d   1      -6.472  -8.603 -13.874 -0.41 +0.00    +0.012 C 
DOCKED: ENDBRANCH  12  44
DOCKED: BRANCH  17  46
DOCKED: ATOM     46  C   UNL d   1      -9.361  -3.745  -6.509 -0.46 +0.00    +0.004 C 
DOCKED: ATOM     47  C   UNL d   1      -8.664  -3.451  -5.404 -0.60 +0.00    +0.012 C 
DOCKED: ENDBRANCH  17  46
DOCKED: TORSDOF 10
DOCKED: TER
DOCKED: ENDMDL
________________________________________________________________________________


	BEGINNING GENETIC ALGORITHM DOCKING 31 of 100
Run: 31 Seed: 1713379888 468078715 [ Run 31 of 100 GA/GALS ]
Beginning LAMARCKIAN GENETIC ALGORITHM (LGA), with a maximum of 25000000 energy evaluations.

Final-Value: -12.061


	FINAL GENETIC ALGORITHM DOCKED STATE
	_______________________________________________


Detailed state:  trans -2.737 -0.207 -11.455 quatxyzw 0.269618 0.579904 0.398988 0.657135 center 8.287 34.468 -0.670 ntor 10 150.5594 -118.0765 -103.3449 69.1181 -144.7125 90.5454 -86.6595 84.3461 174.3101 -162.5531
State:	 -2.737  -0.207 -11.455   0.358  0.769  0.529 97.837    150.56 -118.08 -103.34   69.12 -144.71   90.55  -86.66   84.35  174.31 -162.55

DOCKED: MODEL       31
DOCKED: USER    Run = 31
DOCKED: USER    DPF = D:/Protein_go_brrr/autodock/final/AncB/heme_O2/dock.dpf
DOCKED: USER  
DOCKED: USER    Estimated Free Energy of Binding    =   -7.11 kcal/mol  [=(1)+(2)+(3)-(4)]
DOCKED: USER    Estimated Inhibition Constant, Ki   =    6.13 uM (micromolar)  [Temperature = 298.15 K]
DOCKED: USER    
DOCKED: USER    (1) Final Intermolecular Energy     =  -10.09 kcal/mol
DOCKED: USER        vdW + Hbond + desolv Energy     =   -8.10 kcal/mol
DOCKED: USER        Electrostatic Energy            =   -2.00 kcal/mol
DOCKED: USER    (2) Final Total Internal Energy     =   -1.97 kcal/mol
DOCKED: USER    (3) Torsional Free Energy           =   +2.98 kcal/mol
DOCKED: USER    (4) Unbound System's Energy  [=(2)] =   -1.97 kcal/mol
DOCKED: USER    
DOCKED: USER    
DOCKED: USER    NEWDPF move heme_O2_opt.pdbqt
DOCKED: USER    NEWDPF about 8.287000 34.468000 -0.670000
DOCKED: USER    NEWDPF tran0 -2.736770 -0.207228 -11.454716
DOCKED: USER    NEWDPF quaternion0 0.269618 0.579904 0.398988 0.657135
DOCKED: USER    NEWDPF axisangle0 0.357691 0.769335 0.529321 97.836537
DOCKED: USER    NEWDPF quat0 0.357691 0.769335 0.529321 97.836537
DOCKED: USER    NEWDPF dihe0 150.56 -118.08 -103.34 69.12 -144.71 90.55 -86.66 84.35 174.31 -162.55 
DOCKED: USER  keepresnum = 1 
DOCKED: USER  
DOCKED: REMARK  10 active torsions:
DOCKED: REMARK  status: ('A' for Active; 'I' for Inactive)
DOCKED: REMARK    1  A    between atoms: C_6  and  C_10 
DOCKED: REMARK    2  A    between atoms: C_10  and  C_11 
DOCKED: REMARK    3  A    between atoms: C_11  and  C_12 
DOCKED: REMARK    4  A    between atoms: C_12  and  O_14 
DOCKED: REMARK    5  A    between atoms: C_17  and  C_20 
DOCKED: REMARK    6  A    between atoms: C_24  and  C_27 
DOCKED: REMARK    7  A    between atoms: C_31  and  C_34 
DOCKED: REMARK    8  A    between atoms: C_34  and  C_35 
DOCKED: REMARK    9  A    between atoms: C_35  and  C_36 
DOCKED: REMARK   10  A    between atoms: C_36  and  O_38 
DOCKED: USER                              x       y       z     vdW  Elec       q    Type
DOCKED: USER                           _______ _______ _______ _____ _____    ______ ____
DOCKED: ROOT
DOCKED: ATOM      1  C   UNL d   1      -1.812  -0.142 -13.363 -0.02 +0.11    +0.064 A 
DOCKED: ATOM      2  C   UNL d   1      -6.112   1.176 -11.835 -0.12 +0.05    +0.064 A 
DOCKED: ATOM      3  C   UNL d   1      -5.079  -0.291  -7.377 -0.06 +0.02    +0.064 C 
DOCKED: ATOM      4  C   UNL d   1      -0.485  -1.211  -8.831 -0.06 +0.04    +0.064 A 
DOCKED: ATOM      5  C   UNL d   1      -3.065   0.338 -13.311 -0.07 +0.12    +0.066 A 
DOCKED: ATOM      6  C   UNL d   1      -3.756   0.845 -14.415 -0.14 -0.03    -0.021 A 
DOCKED: ATOM      7  C   UNL d   1      -4.985   1.266 -13.965 -0.12 -0.04    -0.025 A 
DOCKED: ATOM      8  C   UNL d   1      -5.030   0.961 -12.608 -0.14 +0.08    +0.066 A 
DOCKED: ATOM      9  C   UNL d   1      -6.030   1.953 -14.818 -0.08 +0.06    +0.051 C 
DOCKED: ATOM     10  C   UNL d   1      -6.226   0.856 -10.412 -0.17 +0.04    +0.066 A 
DOCKED: ATOM     11  C   UNL d   1      -7.425   0.947  -9.696 -0.16 -0.01    -0.021 A 
DOCKED: ATOM     12  C   UNL d   1      -7.152   0.511  -8.413 -0.28 +0.00    +0.000 A 
DOCKED: ATOM     13  C   UNL d   1      -5.768   0.183  -8.415 -0.27 +0.02    +0.070 A 
DOCKED: ATOM     14  C   UNL d   1      -8.781   1.405 -10.222 -0.08 +0.02    +0.052 C 
DOCKED: ATOM     15  C   UNL d   1      -3.671  -0.603  -7.328 -0.37 +0.02    +0.066 A 
DOCKED: ATOM     16  C   UNL d   1      -2.975  -0.939  -6.167 -0.43 -0.01    -0.021 A 
DOCKED: ATOM     17  C   UNL d   1      -1.663  -1.205  -6.557 -0.43 +0.00    +0.000 A 
DOCKED: ATOM     18  C   UNL d   1      -1.657  -1.010  -7.946 -0.33 +0.03    +0.070 A 
DOCKED: ATOM     19  C   UNL d   1      -3.605  -0.923  -4.797 -0.10 +0.01    +0.052 C 
DOCKED: ATOM     20  C   UNL d   1      -0.433  -0.992 -10.159 +0.12 +0.04    +0.066 A 
DOCKED: ATOM     21  C   UNL d   1       0.695  -1.216 -10.944 -0.21 -0.01    -0.025 A 
DOCKED: ATOM     22  C   UNL d   1       0.327  -0.943 -12.242 -0.14 -0.02    -0.021 A 
DOCKED: ATOM     23  C   UNL d   1      -1.012  -0.543 -12.199 -0.21 +0.07    +0.066 A 
DOCKED: ATOM     24  C   UNL d   1       2.055  -1.664 -10.477 -0.40 +0.02    +0.051 C 
DOCKED: ATOM     25  N   UNL d   1      -3.823   0.449 -12.192 -0.13 -0.34    -0.248 N 
DOCKED: ATOM     26  N   UNL d   1      -5.212   0.399  -9.634 -0.16 -0.14    -0.248 N 
DOCKED: ATOM     27  N   UNL d   1      -2.864  -0.573  -8.385 -0.24 -0.11    -0.248 N 
DOCKED: ATOM     28  N   UNL d   1      -1.457  -0.531 -10.926 -0.15 -0.21    -0.248 N 
DOCKED: ATOM     29 FE   UNL d   1      -3.320  -0.069 -10.282 -0.06 +0.00    +0.000 Fe
DOCKED: ATOM     30  O   UNL d   1      -3.486   1.464 -10.493 -0.35 +0.00    +0.000 OA
DOCKED: ATOM     31  O   UNL d   1      -2.320   0.923  -9.583 -0.45 +0.00    +0.000 OA
DOCKED: ENDROOT
DOCKED: BRANCH   6  32
DOCKED: ATOM     32  C   UNL d   1      -3.234   1.054 -15.813 -0.09 +0.07    +0.052 C 
DOCKED: BRANCH  32  33
DOCKED: ATOM     33  C   UNL d   1      -2.887   2.510 -16.104 +0.04 +0.18    +0.115 C 
DOCKED: BRANCH  33  34
DOCKED: ATOM     34  C   UNL d   1      -1.448   2.833 -15.787 -0.06 +0.19    +0.139 C 
DOCKED: ATOM     35  O   UNL d   1      -0.555   2.289 -16.418 +0.04 -0.55    -0.650 OA
DOCKED: BRANCH  34  36
DOCKED: ATOM     36  O   UNL d   1      -1.120   3.691 -14.799 -0.10 -1.41    -0.776 OA
DOCKED: ATOM     37  H   UNL d   1      -0.293   3.614 -14.309 +0.06 +0.21    +0.167 HD
DOCKED: ENDBRANCH  34  36
DOCKED: ENDBRANCH  33  34
DOCKED: ENDBRANCH  32  33
DOCKED: ENDBRANCH   6  32
DOCKED: BRANCH  22  38
DOCKED: ATOM     38  C   UNL d   1       1.235  -1.002 -13.443 -0.26 +0.03    +0.052 C 
DOCKED: BRANCH  38  39
DOCKED: ATOM     39  C   UNL d   1       2.411  -0.034 -13.332 -0.31 +0.05    +0.115 C 
DOCKED: BRANCH  39  40
DOCKED: ATOM     40  C   UNL d   1       2.158   1.265 -14.055 -0.26 +0.07    +0.139 C 
DOCKED: ATOM     41  O   UNL d   1       2.948   1.651 -14.901 +0.02 -0.27    -0.650 OA
DOCKED: BRANCH  40  42
DOCKED: ATOM     42  O   UNL d   1       1.046   1.987 -13.819 +0.03 -0.53    -0.776 OA
DOCKED: ATOM     43  H   UNL d   1       0.382   2.129 -14.505 +0.06 +0.14    +0.167 HD
DOCKED: ENDBRANCH  40  42
DOCKED: ENDBRANCH  39  40
DOCKED: ENDBRANCH  38  39
DOCKED: ENDBRANCH  22  38
DOCKED: BRANCH  12  44
DOCKED: ATOM     44  C   UNL d   1      -8.218   0.458  -7.338 -0.23 +0.00    +0.004 C 
DOCKED: ATOM     45  C   UNL d   1      -9.235  -0.396  -7.235 -0.28 +0.00    +0.012 C 
DOCKED: ENDBRANCH  12  44
DOCKED: BRANCH  17  46
DOCKED: ATOM     46  C   UNL d   1      -0.444  -1.558  -5.748 -0.45 +0.00    +0.004 C 
DOCKED: ATOM     47  C   UNL d   1      -0.244  -2.635  -4.977 -0.52 +0.00    +0.012 C 
DOCKED: ENDBRANCH  17  46
DOCKED: TORSDOF 10
DOCKED: TER
DOCKED: ENDMDL
________________________________________________________________________________


	BEGINNING GENETIC ALGORITHM DOCKING 32 of 100
Run: 32 Seed: 80819765 864670372 [ Run 32 of 100 GA/GALS ]
Beginning LAMARCKIAN GENETIC ALGORITHM (LGA), with a maximum of 25000000 energy evaluations.

Final-Value: -19.705


	FINAL GENETIC ALGORITHM DOCKED STATE
	_______________________________________________


Detailed state:  trans 0.431 -1.621 -8.854 quatxyzw 0.280872 0.316165 0.253908 0.869874 center 8.287 34.468 -0.670 ntor 10 -149.4379 -22.0853 44.6118 -111.1579 6.0399 166.3319 -52.3134 14.2312 -169.8566 152.1255
State:	  0.431  -1.621  -8.854   0.569  0.641  0.515 59.112   -149.44  -22.09   44.61 -111.16    6.04  166.33  -52.31   14.23 -169.86  152.13

DOCKED: MODEL       32
DOCKED: USER    Run = 32
DOCKED: USER    DPF = D:/Protein_go_brrr/autodock/final/AncB/heme_O2/dock.dpf
DOCKED: USER  
DOCKED: USER    Estimated Free Energy of Binding    =  -14.64 kcal/mol  [=(1)+(2)+(3)-(4)]
DOCKED: USER    Estimated Inhibition Constant, Ki   =   18.48 pM (picomolar)  [Temperature = 298.15 K]
DOCKED: USER    
DOCKED: USER    (1) Final Intermolecular Energy     =  -17.63 kcal/mol
DOCKED: USER        vdW + Hbond + desolv Energy     =  -15.49 kcal/mol
DOCKED: USER        Electrostatic Energy            =   -2.14 kcal/mol
DOCKED: USER    (2) Final Total Internal Energy     =   -2.08 kcal/mol
DOCKED: USER    (3) Torsional Free Energy           =   +2.98 kcal/mol
DOCKED: USER    (4) Unbound System's Energy  [=(2)] =   -2.08 kcal/mol
DOCKED: USER    
DOCKED: USER    
DOCKED: USER    NEWDPF move heme_O2_opt.pdbqt
DOCKED: USER    NEWDPF about 8.287000 34.468000 -0.670000
DOCKED: USER    NEWDPF tran0 0.431055 -1.621479 -8.854479
DOCKED: USER    NEWDPF quaternion0 0.280872 0.316165 0.253908 0.869874
DOCKED: USER    NEWDPF axisangle0 0.569405 0.640953 0.514741 59.111964
DOCKED: USER    NEWDPF quat0 0.569405 0.640953 0.514741 59.111964
DOCKED: USER    NEWDPF dihe0 -149.44 -22.09 44.61 -111.16 6.04 166.33 -52.31 14.23 -169.86 152.13 
DOCKED: USER  keepresnum = 1 
DOCKED: USER  
DOCKED: REMARK  10 active torsions:
DOCKED: REMARK  status: ('A' for Active; 'I' for Inactive)
DOCKED: REMARK    1  A    between atoms: C_6  and  C_10 
DOCKED: REMARK    2  A    between atoms: C_10  and  C_11 
DOCKED: REMARK    3  A    between atoms: C_11  and  C_12 
DOCKED: REMARK    4  A    between atoms: C_12  and  O_14 
DOCKED: REMARK    5  A    between atoms: C_17  and  C_20 
DOCKED: REMARK    6  A    between atoms: C_24  and  C_27 
DOCKED: REMARK    7  A    between atoms: C_31  and  C_34 
DOCKED: REMARK    8  A    between atoms: C_34  and  C_35 
DOCKED: REMARK    9  A    between atoms: C_35  and  C_36 
DOCKED: REMARK   10  A    between atoms: C_36  and  O_38 
DOCKED: USER                              x       y       z     vdW  Elec       q    Type
DOCKED: USER                           _______ _______ _______ _____ _____    ______ ____
DOCKED: ROOT
DOCKED: ATOM      1  C   UNL d   1      -0.125  -1.218 -10.861 -0.24 +0.04    +0.064 A 
DOCKED: ATOM      2  C   UNL d   1      -2.536  -1.066  -6.772 -0.40 +0.02    +0.064 A 
DOCKED: ATOM      3  C   UNL d   1       1.338  -2.520  -4.327 -0.44 +0.01    +0.064 C 
DOCKED: ATOM      4  C   UNL d   1       3.960  -2.219  -8.463 -0.42 +0.02    +0.064 A 
DOCKED: ATOM      5  C   UNL d   1      -1.096  -1.056  -9.948 -0.27 +0.04    +0.066 A 
DOCKED: ATOM      6  C   UNL d   1      -2.402  -0.661 -10.255 -0.31 -0.02    -0.021 A 
DOCKED: ATOM      7  C   UNL d   1      -3.089  -0.575  -9.067 -0.34 -0.01    -0.025 A 
DOCKED: ATOM      8  C   UNL d   1      -2.198  -0.967  -8.072 -0.35 +0.03    +0.066 A 
DOCKED: ATOM      9  C   UNL d   1      -4.521  -0.107  -8.927 -0.35 +0.02    +0.051 C 
DOCKED: ATOM     10  C   UNL d   1      -1.652  -1.493  -5.686 -0.40 +0.02    +0.066 A 
DOCKED: ATOM     11  C   UNL d   1      -2.097  -1.736  -4.382 -0.48 -0.00    -0.021 A 
DOCKED: ATOM     12  C   UNL d   1      -0.998  -2.174  -3.666 -0.44 +0.00    +0.000 A 
DOCKED: ATOM     13  C   UNL d   1       0.082  -2.161  -4.592 -0.40 +0.01    +0.070 A 
DOCKED: ATOM     14  C   UNL d   1      -3.516  -1.584  -3.848 -0.54 +0.01    +0.052 C 
DOCKED: ATOM     15  C   UNL d   1       2.467  -2.487  -5.226 -0.40 +0.01    +0.066 A 
DOCKED: ATOM     16  C   UNL d   1       3.788  -2.719  -4.845 -0.52 -0.00    -0.021 A 
DOCKED: ATOM     17  C   UNL d   1       4.554  -2.637  -6.008 -0.52 +0.00    +0.000 A 
DOCKED: ATOM     18  C   UNL d   1       3.630  -2.360  -7.025 -0.42 +0.02    +0.070 A 
DOCKED: ATOM     19  C   UNL d   1       4.204  -2.940  -3.413 -0.28 +0.00    +0.052 C 
DOCKED: ATOM     20  C   UNL d   1       3.105  -1.911  -9.458 -0.45 +0.02    +0.066 A 
DOCKED: ATOM     21  C   UNL d   1       3.471  -1.809 -10.797 -0.50 -0.01    -0.025 A 
DOCKED: ATOM     22  C   UNL d   1       2.315  -1.551 -11.499 -0.22 -0.01    -0.021 A 
DOCKED: ATOM     23  C   UNL d   1       1.285  -1.487 -10.556 -0.21 +0.03    +0.066 A 
DOCKED: ATOM     24  C   UNL d   1       4.855  -1.946 -11.378 -0.24 +0.01    +0.051 C 
DOCKED: ATOM     25  N   UNL d   1      -0.952  -1.200  -8.608 -0.20 -0.13    -0.248 N 
DOCKED: ATOM     26  N   UNL d   1      -0.324  -1.741  -5.817 -0.25 -0.07    -0.248 N 
DOCKED: ATOM     27  N   UNL d   1       2.380  -2.198  -6.522 -0.24 -0.07    -0.248 N 
DOCKED: ATOM     28  N   UNL d   1       1.777  -1.661  -9.312 -0.17 -0.12    -0.248 N 
DOCKED: ATOM     29 FE   UNL d   1       0.737  -1.701  -7.576 -0.09 +0.00    +0.000 Fe
DOCKED: ATOM     30  O   UNL d   1       0.256  -0.242  -7.323 -0.76 +0.00    +0.000 OA
DOCKED: ATOM     31  O   UNL d   1       1.796  -0.544  -7.465 -1.09 +0.00    +0.000 OA
DOCKED: ENDROOT
DOCKED: BRANCH   6  32
DOCKED: ATOM     32  C   UNL d   1      -2.949  -0.246 -11.596 -0.22 +0.07    +0.052 C 
DOCKED: BRANCH  32  33
DOCKED: ATOM     33  C   UNL d   1      -2.733   1.235 -11.892 -0.19 +0.13    +0.115 C 
DOCKED: BRANCH  33  34
DOCKED: ATOM     34  C   UNL d   1      -2.019   1.461 -13.202 -0.21 +0.19    +0.139 C 
DOCKED: ATOM     35  O   UNL d   1      -1.233   2.389 -13.308 -0.14 -0.88    -0.650 OA
DOCKED: BRANCH  34  36
DOCKED: ATOM     36  O   UNL d   1      -2.251   0.676 -14.274 -0.06 -1.19    -0.776 OA
DOCKED: ATOM     37  H   UNL d   1      -1.569   0.494 -14.931 +0.03 +0.22    +0.167 HD
DOCKED: ENDBRANCH  34  36
DOCKED: ENDBRANCH  33  34
DOCKED: ENDBRANCH  32  33
DOCKED: ENDBRANCH   6  32
DOCKED: BRANCH  22  38
DOCKED: ATOM     38  C   UNL d   1       2.223  -1.315 -12.984 -0.23 +0.02    +0.052 C 
DOCKED: BRANCH  38  39
DOCKED: ATOM     39  C   UNL d   1       1.984   0.153 -13.327 -0.27 +0.05    +0.115 C 
DOCKED: BRANCH  39  40
DOCKED: ATOM     40  C   UNL d   1       1.580   0.351 -14.767 -0.15 +0.08    +0.139 C 
DOCKED: ATOM     41  O   UNL d   1       2.228  -0.177 -15.656 +0.05 -0.30    -0.650 OA
DOCKED: BRANCH  40  42
DOCKED: ATOM     42  O   UNL d   1       0.481   1.060 -15.091 +0.08 -0.56    -0.776 OA
DOCKED: ATOM     43  H   UNL d   1      -0.219   1.227 -14.448 +0.05 +0.15    +0.167 HD
DOCKED: ENDBRANCH  40  42
DOCKED: ENDBRANCH  39  40
DOCKED: ENDBRANCH  38  39
DOCKED: ENDBRANCH  22  38
DOCKED: BRANCH  12  44
DOCKED: ATOM     44  C   UNL d   1      -1.089  -2.548  -2.201 -0.47 +0.00    +0.004 C 
DOCKED: ATOM     45  C   UNL d   1      -0.213  -2.285  -1.233 -0.58 +0.00    +0.012 C 
DOCKED: ENDBRANCH  12  44
DOCKED: BRANCH  17  46
DOCKED: ATOM     46  C   UNL d   1       6.041  -2.738  -6.221 -0.65 +0.00    +0.004 C 
DOCKED: ATOM     47  C   UNL d   1       6.874  -1.807  -6.703 -0.58 +0.00    +0.012 C 
DOCKED: ENDBRANCH  17  46
DOCKED: TORSDOF 10
DOCKED: TER
DOCKED: ENDMDL
________________________________________________________________________________


	BEGINNING GENETIC ALGORITHM DOCKING 33 of 100
Run: 33 Seed: 1228079319 475300540 [ Run 33 of 100 GA/GALS ]
Beginning LAMARCKIAN GENETIC ALGORITHM (LGA), with a maximum of 25000000 energy evaluations.

Final-Value: -12.451


	FINAL GENETIC ALGORITHM DOCKED STATE
	_______________________________________________


Detailed state:  trans -6.136 -15.532 11.144 quatxyzw -0.525337 -0.181497 0.480609 -0.678303 center 8.287 34.468 -0.670 ntor 10 -129.7857 52.8653 -51.2376 90.6201 49.6597 -62.1195 -120.3798 125.9640 -179.5668 -156.0643
State:	 -6.136 -15.532  11.144  -0.715 -0.247  0.654 -94.578   -129.79   52.87  -51.24   90.62   49.66  -62.12 -120.38  125.96 -179.57 -156.06

DOCKED: MODEL       33
DOCKED: USER    Run = 33
DOCKED: USER    DPF = D:/Protein_go_brrr/autodock/final/AncB/heme_O2/dock.dpf
DOCKED: USER  
DOCKED: USER    Estimated Free Energy of Binding    =   -7.79 kcal/mol  [=(1)+(2)+(3)-(4)]
DOCKED: USER    Estimated Inhibition Constant, Ki   =    1.96 uM (micromolar)  [Temperature = 298.15 K]
DOCKED: USER    
DOCKED: USER    (1) Final Intermolecular Energy     =  -10.77 kcal/mol
DOCKED: USER        vdW + Hbond + desolv Energy     =   -5.66 kcal/mol
DOCKED: USER        Electrostatic Energy            =   -5.11 kcal/mol
DOCKED: USER    (2) Final Total Internal Energy     =   -1.68 kcal/mol
DOCKED: USER    (3) Torsional Free Energy           =   +2.98 kcal/mol
DOCKED: USER    (4) Unbound System's Energy  [=(2)] =   -1.68 kcal/mol
DOCKED: USER    
DOCKED: USER    
DOCKED: USER    NEWDPF move heme_O2_opt.pdbqt
DOCKED: USER    NEWDPF about 8.287000 34.468000 -0.670000
DOCKED: USER    NEWDPF tran0 -6.135742 -15.532069 11.143588
DOCKED: USER    NEWDPF quaternion0 -0.525337 -0.181497 0.480609 -0.678303
DOCKED: USER    NEWDPF axisangle0 -0.714956 -0.247008 0.654083 -94.577635
DOCKED: USER    NEWDPF quat0 -0.714956 -0.247008 0.654083 -94.577635
DOCKED: USER    NEWDPF dihe0 -129.79 52.87 -51.24 90.62 49.66 -62.12 -120.38 125.96 -179.57 -156.06 
DOCKED: USER  keepresnum = 1 
DOCKED: USER  
DOCKED: REMARK  10 active torsions:
DOCKED: REMARK  status: ('A' for Active; 'I' for Inactive)
DOCKED: REMARK    1  A    between atoms: C_6  and  C_10 
DOCKED: REMARK    2  A    between atoms: C_10  and  C_11 
DOCKED: REMARK    3  A    between atoms: C_11  and  C_12 
DOCKED: REMARK    4  A    between atoms: C_12  and  O_14 
DOCKED: REMARK    5  A    between atoms: C_17  and  C_20 
DOCKED: REMARK    6  A    between atoms: C_24  and  C_27 
DOCKED: REMARK    7  A    between atoms: C_31  and  C_34 
DOCKED: REMARK    8  A    between atoms: C_34  and  C_35 
DOCKED: REMARK    9  A    between atoms: C_35  and  C_36 
DOCKED: REMARK   10  A    between atoms: C_36  and  O_38 
DOCKED: USER                              x       y       z     vdW  Elec       q    Type
DOCKED: USER                           _______ _______ _______ _____ _____    ______ ____
DOCKED: ROOT
DOCKED: ATOM      1  C   UNL d   1      -6.695 -17.547  10.788 -0.07 +0.05    +0.064 A 
DOCKED: ATOM      2  C   UNL d   1      -7.667 -14.524  14.320 -0.12 +0.02    +0.064 A 
DOCKED: ATOM      3  C   UNL d   1      -5.003 -11.102  12.248 -0.23 +0.03    +0.064 C 
DOCKED: ATOM      4  C   UNL d   1      -4.385 -14.045   8.371 -0.08 +0.04    +0.064 A 
DOCKED: ATOM      5  C   UNL d   1      -7.179 -17.003  11.916 -0.09 +0.04    +0.066 A 
DOCKED: ATOM      6  C   UNL d   1      -7.989 -17.684  12.829 -0.07 -0.01    -0.021 A 
DOCKED: ATOM      7  C   UNL d   1      -8.307 -16.797  13.830 -0.09 -0.01    -0.025 A 
DOCKED: ATOM      8  C   UNL d   1      -7.642 -15.612  13.526 -0.11 +0.02    +0.066 A 
DOCKED: ATOM      9  C   UNL d   1      -9.231 -17.095  14.990 -0.08 +0.01    +0.051 C 
DOCKED: ATOM     10  C   UNL d   1      -6.972 -13.261  14.065 -0.14 +0.03    +0.066 A 
DOCKED: ATOM     11  C   UNL d   1      -6.898 -12.222  14.999 -0.15 -0.01    -0.021 A 
DOCKED: ATOM     12  C   UNL d   1      -6.119 -11.233  14.428 -0.19 +0.00    +0.000 A 
DOCKED: ATOM     13  C   UNL d   1      -5.763 -11.732  13.144 -0.18 +0.04    +0.070 A 
DOCKED: ATOM     14  C   UNL d   1      -7.522 -12.184  16.390 -0.10 +0.02    +0.052 C 
DOCKED: ATOM     15  C   UNL d   1      -4.649 -11.557  10.925 -0.20 +0.03    +0.066 A 
DOCKED: ATOM     16  C   UNL d   1      -3.987 -10.782   9.973 -0.27 -0.01    -0.021 A 
DOCKED: ATOM     17  C   UNL d   1      -3.801 -11.600   8.859 -0.23 +0.00    +0.000 A 
DOCKED: ATOM     18  C   UNL d   1      -4.369 -12.830   9.220 -0.13 +0.03    +0.070 A 
DOCKED: ATOM     19  C   UNL d   1      -3.644  -9.330  10.189 -0.29 +0.02    +0.052 C 
DOCKED: ATOM     20  C   UNL d   1      -4.959 -15.227   8.669 -0.07 +0.05    +0.066 A 
DOCKED: ATOM     21  C   UNL d   1      -4.927 -16.342   7.837 -0.06 -0.02    -0.025 A 
DOCKED: ATOM     22  C   UNL d   1      -5.556 -17.357   8.521 -0.05 -0.02    -0.021 A 
DOCKED: ATOM     23  C   UNL d   1      -5.968 -16.817   9.743 -0.08 +0.06    +0.066 A 
DOCKED: ATOM     24  C   UNL d   1      -4.328 -16.433   6.457 -0.07 +0.05    +0.051 C 
DOCKED: ATOM     25  N   UNL d   1      -7.000 -15.719  12.314 -0.07 -0.12    -0.248 N 
DOCKED: ATOM     26  N   UNL d   1      -6.290 -12.964  12.930 -0.10 -0.11    -0.248 N 
DOCKED: ATOM     27  N   UNL d   1      -4.945 -12.763  10.447 -0.09 -0.11    -0.248 N 
DOCKED: ATOM     28  N   UNL d   1      -5.642 -15.509   9.810 -0.07 -0.18    -0.248 N 
DOCKED: ATOM     29 FE   UNL d   1      -5.963 -14.244  11.357 -0.03 +0.00    +0.000 Fe
DOCKED: ATOM     30  O   UNL d   1      -7.499 -14.000  11.408 -0.30 +0.00    +0.000 OA
DOCKED: ATOM     31  O   UNL d   1      -6.696 -13.647  10.100 -0.30 +0.00    +0.000 OA
DOCKED: ENDROOT
DOCKED: BRANCH   6  32
DOCKED: ATOM     32  C   UNL d   1      -8.559 -19.073  12.699 -0.04 +0.02    +0.052 C 
DOCKED: BRANCH  32  33
DOCKED: ATOM     33  C   UNL d   1      -9.982 -19.081  12.148 -0.09 +0.07    +0.115 C 
DOCKED: BRANCH  33  34
DOCKED: ATOM     34  C   UNL d   1     -10.081 -18.406  10.803 +0.02 +0.19    +0.139 C 
DOCKED: ATOM     35  O   UNL d   1     -10.512 -17.266  10.730 -0.67 -1.31    -0.650 OA
DOCKED: BRANCH  34  36
DOCKED: ATOM     36  O   UNL d   1      -9.730 -19.045   9.668 +0.13 -1.31    -0.776 OA
DOCKED: ATOM     37  H   UNL d   1      -9.129 -18.651   9.025 +0.03 +0.41    +0.167 HD
DOCKED: ENDBRANCH  34  36
DOCKED: ENDBRANCH  33  34
DOCKED: ENDBRANCH  32  33
DOCKED: ENDBRANCH   6  32
DOCKED: BRANCH  22  38
DOCKED: ATOM     38  C   UNL d   1      -5.803 -18.749   7.997 -0.03 +0.05    +0.052 C 
DOCKED: BRANCH  38  39
DOCKED: ATOM     39  C   UNL d   1      -6.532 -18.744   6.655 -0.06 +0.15    +0.115 C 
DOCKED: BRANCH  39  40
DOCKED: ATOM     40  C   UNL d   1      -7.829 -17.975   6.706 +0.03 +0.32    +0.139 C 
DOCKED: ATOM     41  O   UNL d   1      -7.818 -16.761   6.587 -0.03 -2.09    -0.650 OA
DOCKED: BRANCH  40  42
DOCKED: ATOM     42  O   UNL d   1      -9.010 -18.610   6.831 +0.02 -1.87    -0.776 OA
DOCKED: ATOM     43  H   UNL d   1      -9.182 -19.217   7.561 +0.02 +0.33    +0.167 HD
DOCKED: ENDBRANCH  40  42
DOCKED: ENDBRANCH  39  40
DOCKED: ENDBRANCH  38  39
DOCKED: ENDBRANCH  22  38
DOCKED: BRANCH  12  44
DOCKED: ATOM     44  C   UNL d   1      -5.803  -9.940  15.149 +0.04 +0.00    +0.004 C 
DOCKED: ATOM     45  C   UNL d   1      -4.605  -9.421  15.413 -0.17 +0.01    +0.012 C 
DOCKED: ENDBRANCH  12  44
DOCKED: BRANCH  17  46
DOCKED: ATOM     46  C   UNL d   1      -3.204 -11.309   7.508 -0.37 +0.00    +0.004 C 
DOCKED: ATOM     47  C   UNL d   1      -1.912 -11.318   7.153 -0.35 +0.00    +0.012 C 
DOCKED: ENDBRANCH  17  46
DOCKED: TORSDOF 10
DOCKED: TER
DOCKED: ENDMDL
________________________________________________________________________________


	BEGINNING GENETIC ALGORITHM DOCKING 34 of 100
Run: 34 Seed: 887385553 2012486703 [ Run 34 of 100 GA/GALS ]
Beginning LAMARCKIAN GENETIC ALGORITHM (LGA), with a maximum of 25000000 energy evaluations.

Final-Value: -11.051


	FINAL GENETIC ALGORITHM DOCKED STATE
	_______________________________________________


Detailed state:  trans -2.764 -10.889 10.404 quatxyzw -0.816022 -0.127571 -0.341635 0.448463 center 8.287 34.468 -0.670 ntor 10 54.6315 173.8840 -1.9502 117.6488 26.7166 82.0438 51.1671 41.8401 180.0000 174.3149
State:	 -2.764 -10.889  10.404  -0.913 -0.143 -0.382 126.710     54.63  173.88   -1.95  117.65   26.72   82.04   51.17   41.84  180.00  174.31

DOCKED: MODEL       34
DOCKED: USER    Run = 34
DOCKED: USER    DPF = D:/Protein_go_brrr/autodock/final/AncB/heme_O2/dock.dpf
DOCKED: USER  
DOCKED: USER    Estimated Free Energy of Binding    =   -7.48 kcal/mol  [=(1)+(2)+(3)-(4)]
DOCKED: USER    Estimated Inhibition Constant, Ki   =    3.30 uM (micromolar)  [Temperature = 298.15 K]
DOCKED: USER    
DOCKED: USER    (1) Final Intermolecular Energy     =  -10.46 kcal/mol
DOCKED: USER        vdW + Hbond + desolv Energy     =   -7.23 kcal/mol
DOCKED: USER        Electrostatic Energy            =   -3.23 kcal/mol
DOCKED: USER    (2) Final Total Internal Energy     =   -0.59 kcal/mol
DOCKED: USER    (3) Torsional Free Energy           =   +2.98 kcal/mol
DOCKED: USER    (4) Unbound System's Energy  [=(2)] =   -0.59 kcal/mol
DOCKED: USER    
DOCKED: USER    
DOCKED: USER    NEWDPF move heme_O2_opt.pdbqt
DOCKED: USER    NEWDPF about 8.287000 34.468000 -0.670000
DOCKED: USER    NEWDPF tran0 -2.764047 -10.889017 10.403572
DOCKED: USER    NEWDPF quaternion0 -0.816022 -0.127571 -0.341635 0.448463
DOCKED: USER    NEWDPF axisangle0 -0.912979 -0.142729 -0.382227 126.709709
DOCKED: USER    NEWDPF quat0 -0.912979 -0.142729 -0.382227 126.709709
DOCKED: USER    NEWDPF dihe0 54.63 173.88 -1.95 117.65 26.72 82.04 51.17 41.84 180.00 174.31 
DOCKED: USER  keepresnum = 1 
DOCKED: USER  
DOCKED: REMARK  10 active torsions:
DOCKED: REMARK  status: ('A' for Active; 'I' for Inactive)
DOCKED: REMARK    1  A    between atoms: C_6  and  C_10 
DOCKED: REMARK    2  A    between atoms: C_10  and  C_11 
DOCKED: REMARK    3  A    between atoms: C_11  and  C_12 
DOCKED: REMARK    4  A    between atoms: C_12  and  O_14 
DOCKED: REMARK    5  A    between atoms: C_17  and  C_20 
DOCKED: REMARK    6  A    between atoms: C_24  and  C_27 
DOCKED: REMARK    7  A    between atoms: C_31  and  C_34 
DOCKED: REMARK    8  A    between atoms: C_34  and  C_35 
DOCKED: REMARK    9  A    between atoms: C_35  and  C_36 
DOCKED: REMARK   10  A    between atoms: C_36  and  O_38 
DOCKED: USER                              x       y       z     vdW  Elec       q    Type
DOCKED: USER                           _______ _______ _______ _____ _____    ______ ____
DOCKED: ROOT
DOCKED: ATOM      1  C   UNL d   1      -4.733 -11.676  10.359 -0.21 +0.03    +0.064 A 
DOCKED: ATOM      2  C   UNL d   1      -1.112 -11.920   7.296 -0.20 +0.01    +0.064 A 
DOCKED: ATOM      3  C   UNL d   1       1.626  -9.216  10.175 -0.09 +0.01    +0.064 C 
DOCKED: ATOM      4  C   UNL d   1      -1.929  -9.357  13.552 -0.12 +0.01    +0.064 A 
DOCKED: ATOM      5  C   UNL d   1      -3.971 -11.964   9.292 -0.17 +0.02    +0.066 A 
DOCKED: ATOM      6  C   UNL d   1      -4.408 -12.719   8.199 -0.19 -0.01    -0.021 A 
DOCKED: ATOM      7  C   UNL d   1      -3.347 -12.826   7.331 -0.19 -0.01    -0.025 A 
DOCKED: ATOM      8  C   UNL d   1      -2.305 -12.094   7.896 -0.18 +0.02    +0.066 A 
DOCKED: ATOM      9  C   UNL d   1      -3.356 -13.626   6.047 -0.13 +0.02    +0.051 C 
DOCKED: ATOM     10  C   UNL d   1       0.010 -11.144   7.828 -0.15 +0.01    +0.066 A 
DOCKED: ATOM     11  C   UNL d   1       1.165 -10.860   7.092 -0.16 -0.00    -0.021 A 
DOCKED: ATOM     12  C   UNL d   1       1.960 -10.066   7.899 -0.11 +0.00    +0.000 A 
DOCKED: ATOM     13  C   UNL d   1       1.232  -9.918   9.112 -0.00 +0.01    +0.070 A 
DOCKED: ATOM     14  C   UNL d   1       1.486 -11.303   5.670 -0.22 +0.01    +0.052 C 
DOCKED: ATOM     15  C   UNL d   1       0.936  -9.071  11.434 -0.09 +0.01    +0.066 A 
DOCKED: ATOM     16  C   UNL d   1       1.475  -8.460  12.565 -0.06 -0.00    -0.021 A 
DOCKED: ATOM     17  C   UNL d   1       0.480  -8.489  13.542 -0.08 +0.00    +0.000 A 
DOCKED: ATOM     18  C   UNL d   1      -0.607  -9.122  12.924 -0.09 +0.01    +0.070 A 
DOCKED: ATOM     19  C   UNL d   1       2.896  -7.957  12.630 -0.05 +0.00    +0.052 C 
DOCKED: ATOM     20  C   UNL d   1      -2.978  -9.999  13.004 -0.14 +0.02    +0.066 A 
DOCKED: ATOM     21  C   UNL d   1      -4.205 -10.174  13.639 -0.11 -0.01    -0.025 A 
DOCKED: ATOM     22  C   UNL d   1      -5.025 -10.809  12.733 -0.14 -0.01    -0.021 A 
DOCKED: ATOM     23  C   UNL d   1      -4.260 -11.015  11.581 -0.19 +0.03    +0.066 A 
DOCKED: ATOM     24  C   UNL d   1      -4.574  -9.759  15.039 -0.14 +0.02    +0.051 C 
DOCKED: ATOM     25  N   UNL d   1      -2.670 -11.618   9.134 -0.09 -0.07    -0.248 N 
DOCKED: ATOM     26  N   UNL d   1       0.049 -10.581   9.062 -0.07 -0.04    -0.248 N 
DOCKED: ATOM     27  N   UNL d   1      -0.287  -9.536  11.671 -0.06 -0.03    -0.248 N 
DOCKED: ATOM     28  N   UNL d   1      -3.003 -10.562  11.767 -0.09 -0.07    -0.248 N 
DOCKED: ATOM     29 FE   UNL d   1      -1.486 -10.570  10.426 -0.03 +0.00    +0.000 Fe
DOCKED: ATOM     30  O   UNL d   1      -1.065 -12.059  10.255 -0.07 +0.00    +0.000 OA
DOCKED: ATOM     31  O   UNL d   1      -1.012 -11.391  11.681 -0.06 +0.00    +0.000 OA
DOCKED: ENDROOT
DOCKED: BRANCH   6  32
DOCKED: ATOM     32  C   UNL d   1      -5.727 -13.429   8.036 -0.28 +0.04    +0.052 C 
DOCKED: BRANCH  32  33
DOCKED: ATOM     33  C   UNL d   1      -5.656 -14.904   8.415 -0.17 +0.11    +0.115 C 
DOCKED: BRANCH  33  34
DOCKED: ATOM     34  C   UNL d   1      -6.264 -15.799   7.363 -0.17 +0.23    +0.139 C 
DOCKED: ATOM     35  O   UNL d   1      -7.158 -16.571   7.671 -0.56 -1.63    -0.650 OA
DOCKED: BRANCH  34  36
DOCKED: ATOM     36  O   UNL d   1      -5.822 -15.786   6.089 -0.48 -1.75    -0.776 OA
DOCKED: ATOM     37  H   UNL d   1      -4.894 -15.930   5.868 +0.04 +0.25    +0.167 HD
DOCKED: ENDBRANCH  34  36
DOCKED: ENDBRANCH  33  34
DOCKED: ENDBRANCH  32  33
DOCKED: ENDBRANCH   6  32
DOCKED: BRANCH  22  38
DOCKED: ATOM     38  C   UNL d   1      -6.444 -11.248  12.991 -0.31 +0.04    +0.052 C 
DOCKED: BRANCH  38  39
DOCKED: ATOM     39  C   UNL d   1      -6.516 -12.605  13.687 -0.17 +0.05    +0.115 C 
DOCKED: BRANCH  39  40
DOCKED: ATOM     40  C   UNL d   1      -7.617 -13.477  13.138 -0.27 +0.07    +0.139 C 
DOCKED: ATOM     41  O   UNL d   1      -8.367 -14.061  13.904 -0.05 -0.26    -0.650 OA
DOCKED: BRANCH  40  42
DOCKED: ATOM     42  O   UNL d   1      -7.823 -13.584  11.811 -0.10 -0.43    -0.776 OA
DOCKED: ATOM     43  H   UNL d   1      -8.494 -14.176  11.451 -0.53 +0.06    +0.167 HD
DOCKED: ENDBRANCH  40  42
DOCKED: ENDBRANCH  39  40
DOCKED: ENDBRANCH  38  39
DOCKED: ENDBRANCH  22  38
DOCKED: BRANCH  12  44
DOCKED: ATOM     44  C   UNL d   1       3.305  -9.544   7.439 -0.17 +0.00    +0.004 C 
DOCKED: ATOM     45  C   UNL d   1       4.108  -8.685   8.065 -0.13 +0.00    +0.012 C 
DOCKED: ENDBRANCH  12  44
DOCKED: BRANCH  17  46
DOCKED: ATOM     46  C   UNL d   1       0.490  -8.036  14.977 -0.07 +0.00    +0.004 C 
DOCKED: ATOM     47  C   UNL d   1      -0.163  -7.003  15.525 -0.11 +0.00    +0.012 C 
DOCKED: ENDBRANCH  17  46
DOCKED: TORSDOF 10
DOCKED: TER
DOCKED: ENDMDL
________________________________________________________________________________


	BEGINNING GENETIC ALGORITHM DOCKING 35 of 100
Run: 35 Seed: 2008586563 2087150508 [ Run 35 of 100 GA/GALS ]
Beginning LAMARCKIAN GENETIC ALGORITHM (LGA), with a maximum of 25000000 energy evaluations.

Final-Value: -12.513


	FINAL GENETIC ALGORITHM DOCKED STATE
	_______________________________________________


Detailed state:  trans -7.335 -1.483 -12.276 quatxyzw 0.445744 0.273808 0.773327 0.358200 center 8.287 34.468 -0.670 ntor 10 -70.0705 -2.3874 -38.2708 133.5558 -114.6487 -98.6107 152.8085 25.4567 -166.4119 -63.1986
State:	 -7.335  -1.483 -12.276   0.477  0.293  0.828 138.021    -70.07   -2.39  -38.27  133.56 -114.65  -98.61  152.81   25.46 -166.41  -63.20

DOCKED: MODEL       35
DOCKED: USER    Run = 35
DOCKED: USER    DPF = D:/Protein_go_brrr/autodock/final/AncB/heme_O2/dock.dpf
DOCKED: USER  
DOCKED: USER    Estimated Free Energy of Binding    =   -9.00 kcal/mol  [=(1)+(2)+(3)-(4)]
DOCKED: USER    Estimated Inhibition Constant, Ki   =  252.61 nM (nanomolar)  [Temperature = 298.15 K]
DOCKED: USER    
DOCKED: USER    (1) Final Intermolecular Energy     =  -11.98 kcal/mol
DOCKED: USER        vdW + Hbond + desolv Energy     =   -7.90 kcal/mol
DOCKED: USER        Electrostatic Energy            =   -4.08 kcal/mol
DOCKED: USER    (2) Final Total Internal Energy     =   -0.53 kcal/mol
DOCKED: USER    (3) Torsional Free Energy           =   +2.98 kcal/mol
DOCKED: USER    (4) Unbound System's Energy  [=(2)] =   -0.53 kcal/mol
DOCKED: USER    
DOCKED: USER    
DOCKED: USER    NEWDPF move heme_O2_opt.pdbqt
DOCKED: USER    NEWDPF about 8.287000 34.468000 -0.670000
DOCKED: USER    NEWDPF tran0 -7.335336 -1.482625 -12.275717
DOCKED: USER    NEWDPF quaternion0 0.445744 0.273808 0.773327 0.358200
DOCKED: USER    NEWDPF axisangle0 0.477424 0.293268 0.828288 138.020614
DOCKED: USER    NEWDPF quat0 0.477424 0.293268 0.828288 138.020614
DOCKED: USER    NEWDPF dihe0 -70.07 -2.39 -38.27 133.56 -114.65 -98.61 152.81 25.46 -166.41 -63.20 
DOCKED: USER  keepresnum = 1 
DOCKED: USER  
DOCKED: REMARK  10 active torsions:
DOCKED: REMARK  status: ('A' for Active; 'I' for Inactive)
DOCKED: REMARK    1  A    between atoms: C_6  and  C_10 
DOCKED: REMARK    2  A    between atoms: C_10  and  C_11 
DOCKED: REMARK    3  A    between atoms: C_11  and  C_12 
DOCKED: REMARK    4  A    between atoms: C_12  and  O_14 
DOCKED: REMARK    5  A    between atoms: C_17  and  C_20 
DOCKED: REMARK    6  A    between atoms: C_24  and  C_27 
DOCKED: REMARK    7  A    between atoms: C_31  and  C_34 
DOCKED: REMARK    8  A    between atoms: C_34  and  C_35 
DOCKED: REMARK    9  A    between atoms: C_35  and  C_36 
DOCKED: REMARK   10  A    between atoms: C_36  and  O_38 
DOCKED: USER                              x       y       z     vdW  Elec       q    Type
DOCKED: USER                           _______ _______ _______ _____ _____    ______ ____
DOCKED: ROOT
DOCKED: ATOM      1  C   UNL d   1      -6.602  -1.855 -14.231 -0.05 +0.09    +0.064 A 
DOCKED: ATOM      2  C   UNL d   1      -7.357   2.153 -11.797 -0.10 +0.04    +0.064 A 
DOCKED: ATOM      3  C   UNL d   1      -8.997  -0.336  -8.027 -0.20 +0.02    +0.064 C 
DOCKED: ATOM      4  C   UNL d   1      -7.778  -4.487 -10.341 -0.25 +0.03    +0.064 A 
DOCKED: ATOM      5  C   UNL d   1      -6.672  -0.561 -13.876 -0.06 +0.07    +0.066 A 
DOCKED: ATOM      6  C   UNL d   1      -6.308   0.500 -14.709 -0.05 -0.02    -0.021 A 
DOCKED: ATOM      7  C   UNL d   1      -6.485   1.659 -13.990 -0.08 -0.02    -0.025 A 
DOCKED: ATOM      8  C   UNL d   1      -6.998   1.276 -12.754 -0.07 +0.05    +0.066 A 
DOCKED: ATOM      9  C   UNL d   1      -6.139   3.046 -14.485 +0.10 +0.07    +0.051 C 
DOCKED: ATOM     10  C   UNL d   1      -7.922   1.813 -10.490 -0.10 +0.03    +0.066 A 
DOCKED: ATOM     11  C   UNL d   1      -8.429   2.766  -9.599 -0.15 -0.01    -0.021 A 
DOCKED: ATOM     12  C   UNL d   1      -8.923   2.066  -8.514 -0.20 +0.00    +0.000 A 
DOCKED: ATOM     13  C   UNL d   1      -8.673   0.696  -8.805 -0.14 +0.02    +0.070 A 
DOCKED: ATOM     14  C   UNL d   1      -8.465   4.278  -9.788 -0.18 +0.02    +0.052 C 
DOCKED: ATOM     15  C   UNL d   1      -8.730  -1.734  -8.270 -0.17 +0.02    +0.066 A 
DOCKED: ATOM     16  C   UNL d   1      -8.947  -2.752  -7.342 -0.28 -0.01    -0.021 A 
DOCKED: ATOM     17  C   UNL d   1      -8.606  -3.945  -7.980 -0.33 +0.00    +0.000 A 
DOCKED: ATOM     18  C   UNL d   1      -8.202  -3.560  -9.266 -0.21 +0.03    +0.070 A 
DOCKED: ATOM     19  C   UNL d   1      -9.403  -2.494  -5.928 -0.43 +0.01    +0.052 C 
DOCKED: ATOM     20  C   UNL d   1      -7.344  -4.148 -11.571 -0.22 +0.04    +0.066 A 
DOCKED: ATOM     21  C   UNL d   1      -6.974  -5.067 -12.549 -0.27 -0.02    -0.025 A 
DOCKED: ATOM     22  C   UNL d   1      -6.662  -4.336 -13.673 -0.15 -0.02    -0.021 A 
DOCKED: ATOM     23  C   UNL d   1      -6.837  -2.991 -13.333 -0.11 +0.08    +0.066 A 
DOCKED: ATOM     24  C   UNL d   1      -6.918  -6.567 -12.416 -0.30 +0.03    +0.051 C 
DOCKED: ATOM     25  N   UNL d   1      -7.052  -0.095 -12.661 -0.03 -0.20    -0.248 N 
DOCKED: ATOM     26  N   UNL d   1      -8.059   0.552 -10.007 -0.04 -0.10    -0.248 N 
DOCKED: ATOM     27  N   UNL d   1      -8.213  -2.209  -9.399 -0.08 -0.10    -0.248 N 
DOCKED: ATOM     28  N   UNL d   1      -7.208  -2.879 -12.040 -0.09 -0.20    -0.248 N 
DOCKED: ATOM     29 FE   UNL d   1      -7.631  -1.178 -11.029 -0.02 +0.00    +0.000 Fe
DOCKED: ATOM     30  O   UNL d   1      -6.276  -0.435 -10.841 -0.15 +0.00    +0.000 OA
DOCKED: ATOM     31  O   UNL d   1      -6.452  -1.894 -10.275 -0.20 +0.00    +0.000 OA
DOCKED: ENDROOT
DOCKED: BRANCH   6  32
DOCKED: ATOM     32  C   UNL d   1      -5.686   0.426 -16.080 -0.04 +0.05    +0.052 C 
DOCKED: BRANCH  32  33
DOCKED: ATOM     33  C   UNL d   1      -4.175   0.225 -16.035 -0.06 +0.15    +0.115 C 
DOCKED: BRANCH  33  34
DOCKED: ATOM     34  C   UNL d   1      -3.551   0.825 -14.800 -0.12 +0.22    +0.139 C 
DOCKED: ATOM     35  O   UNL d   1      -3.365   0.126 -13.817 -0.06 -1.28    -0.650 OA
DOCKED: BRANCH  34  36
DOCKED: ATOM     36  O   UNL d   1      -3.217   2.131 -14.744 -0.45 -1.66    -0.776 OA
DOCKED: ATOM     37  H   UNL d   1      -2.487   2.494 -15.258 +0.02 +0.33    +0.167 HD
DOCKED: ENDBRANCH  34  36
DOCKED: ENDBRANCH  33  34
DOCKED: ENDBRANCH  32  33
DOCKED: ENDBRANCH   6  32
DOCKED: BRANCH  22  38
DOCKED: ATOM     38  C   UNL d   1      -6.163  -4.901 -14.978 -0.09 +0.06    +0.052 C 
DOCKED: BRANCH  38  39
DOCKED: ATOM     39  C   UNL d   1      -6.851  -6.214 -15.345 -0.15 +0.10    +0.115 C 
DOCKED: BRANCH  39  40
DOCKED: ATOM     40  C   UNL d   1      -6.014  -7.066 -16.265 -0.03 +0.19    +0.139 C 
DOCKED: ATOM     41  O   UNL d   1      -4.828  -7.232 -16.026 -0.47 -1.06    -0.650 OA
DOCKED: BRANCH  40  42
DOCKED: ATOM     42  O   UNL d   1      -6.562  -7.693 -17.324 -0.26 -1.30    -0.776 OA
DOCKED: ATOM     43  H   UNL d   1      -7.502  -7.612 -17.527 +0.02 +0.17    +0.167 HD
DOCKED: ENDBRANCH  40  42
DOCKED: ENDBRANCH  39  40
DOCKED: ENDBRANCH  38  39
DOCKED: ENDBRANCH  22  38
DOCKED: BRANCH  12  44
DOCKED: ATOM     44  C   UNL d   1      -9.566   2.763  -7.333 -0.26 +0.00    +0.004 C 
DOCKED: ATOM     45  C   UNL d   1     -10.669   2.409  -6.675 -0.26 +0.00    +0.012 C 
DOCKED: ENDBRANCH  12  44
DOCKED: BRANCH  17  46
DOCKED: ATOM     46  C   UNL d   1      -8.574  -5.362  -7.473 -0.50 +0.00    +0.004 C 
DOCKED: ATOM     47  C   UNL d   1      -9.164  -6.444  -8.000 -0.57 +0.00    +0.012 C 
DOCKED: ENDBRANCH  17  46
DOCKED: TORSDOF 10
DOCKED: TER
DOCKED: ENDMDL
________________________________________________________________________________


	BEGINNING GENETIC ALGORITHM DOCKING 36 of 100
Run: 36 Seed: 1293105965 1535708819 [ Run 36 of 100 GA/GALS ]
Beginning LAMARCKIAN GENETIC ALGORITHM (LGA), with a maximum of 25000000 energy evaluations.

Final-Value: -11.013


	FINAL GENETIC ALGORITHM DOCKED STATE
	_______________________________________________


Detailed state:  trans -0.993 -15.287 4.108 quatxyzw -0.658415 -0.324847 -0.525751 0.429592 center 8.287 34.468 -0.670 ntor 10 -41.6014 1.5695 -65.8665 148.3930 70.9362 -151.4039 -103.7262 -66.2317 -50.1710 -128.3343
State:	 -0.993 -15.287   4.108  -0.729 -0.360 -0.582 129.117    -41.60    1.57  -65.87  148.39   70.94 -151.40 -103.73  -66.23  -50.17 -128.33

DOCKED: MODEL       36
DOCKED: USER    Run = 36
DOCKED: USER    DPF = D:/Protein_go_brrr/autodock/final/AncB/heme_O2/dock.dpf
DOCKED: USER  
DOCKED: USER    Estimated Free Energy of Binding    =   -7.97 kcal/mol  [=(1)+(2)+(3)-(4)]
DOCKED: USER    Estimated Inhibition Constant, Ki   =    1.43 uM (micromolar)  [Temperature = 298.15 K]
DOCKED: USER    
DOCKED: USER    (1) Final Intermolecular Energy     =  -10.96 kcal/mol
DOCKED: USER        vdW + Hbond + desolv Energy     =   -6.61 kcal/mol
DOCKED: USER        Electrostatic Energy            =   -4.35 kcal/mol
DOCKED: USER    (2) Final Total Internal Energy     =   -0.06 kcal/mol
DOCKED: USER    (3) Torsional Free Energy           =   +2.98 kcal/mol
DOCKED: USER    (4) Unbound System's Energy  [=(2)] =   -0.06 kcal/mol
DOCKED: USER    
DOCKED: USER    
DOCKED: USER    NEWDPF move heme_O2_opt.pdbqt
DOCKED: USER    NEWDPF about 8.287000 34.468000 -0.670000
DOCKED: USER    NEWDPF tran0 -0.992551 -15.286628 4.108261
DOCKED: USER    NEWDPF quaternion0 -0.658415 -0.324847 -0.525751 0.429592
DOCKED: USER    NEWDPF axisangle0 -0.729123 -0.359733 -0.582212 129.116676
DOCKED: USER    NEWDPF quat0 -0.729123 -0.359733 -0.582212 129.116676
DOCKED: USER    NEWDPF dihe0 -41.60 1.57 -65.87 148.39 70.94 -151.40 -103.73 -66.23 -50.17 -128.33 
DOCKED: USER  keepresnum = 1 
DOCKED: USER  
DOCKED: REMARK  10 active torsions:
DOCKED: REMARK  status: ('A' for Active; 'I' for Inactive)
DOCKED: REMARK    1  A    between atoms: C_6  and  C_10 
DOCKED: REMARK    2  A    between atoms: C_10  and  C_11 
DOCKED: REMARK    3  A    between atoms: C_11  and  C_12 
DOCKED: REMARK    4  A    between atoms: C_12  and  O_14 
DOCKED: REMARK    5  A    between atoms: C_17  and  C_20 
DOCKED: REMARK    6  A    between atoms: C_24  and  C_27 
DOCKED: REMARK    7  A    between atoms: C_31  and  C_34 
DOCKED: REMARK    8  A    between atoms: C_34  and  C_35 
DOCKED: REMARK    9  A    between atoms: C_35  and  C_36 
DOCKED: REMARK   10  A    between atoms: C_36  and  O_38 
DOCKED: USER                              x       y       z     vdW  Elec       q    Type
DOCKED: USER                           _______ _______ _______ _____ _____    ______ ____
DOCKED: ROOT
DOCKED: ATOM      1  C   UNL d   1      -2.226 -17.005   3.944 -0.06 +0.04    +0.064 A 
DOCKED: ATOM      2  C   UNL d   1       1.718 -15.657   1.666 -0.09 +0.01    +0.064 A 
DOCKED: ATOM      3  C   UNL d   1       1.884 -11.566   4.182 -0.25 +0.01    +0.064 C 
DOCKED: ATOM      4  C   UNL d   1      -1.900 -13.159   6.867 -0.13 +0.02    +0.064 A 
DOCKED: ATOM      5  C   UNL d   1      -1.166 -16.973   3.121 -0.06 +0.03    +0.066 A 
DOCKED: ATOM      6  C   UNL d   1      -0.863 -17.976   2.195 -0.04 -0.01    -0.021 A 
DOCKED: ATOM      7  C   UNL d   1       0.303 -17.607   1.565 -0.04 -0.01    -0.025 A 
DOCKED: ATOM      8  C   UNL d   1       0.654 -16.366   2.089 -0.07 +0.02    +0.066 A 
DOCKED: ATOM      9  C   UNL d   1       1.033 -18.444   0.537 -0.04 +0.01    +0.051 C 
DOCKED: ATOM     10  C   UNL d   1       2.123 -14.341   2.161 -0.12 +0.01    +0.066 A 
DOCKED: ATOM     11  C   UNL d   1       3.139 -13.577   1.575 -0.16 -0.00    -0.021 A 
DOCKED: ATOM     12  C   UNL d   1       3.190 -12.386   2.275 -0.21 +0.00    +0.000 A 
DOCKED: ATOM     13  C   UNL d   1       2.189 -12.498   3.279 -0.18 +0.01    +0.070 A 
DOCKED: ATOM     14  C   UNL d   1       4.005 -13.957   0.380 -0.21 +0.00    +0.052 C 
DOCKED: ATOM     15  C   UNL d   1       0.903 -11.654   5.236 -0.22 +0.01    +0.066 A 
DOCKED: ATOM     16  C   UNL d   1       0.745 -10.711   6.251 -0.22 -0.00    -0.021 A 
DOCKED: ATOM     17  C   UNL d   1      -0.328 -11.144   7.029 -0.22 +0.00    +0.000 A 
DOCKED: ATOM     18  C   UNL d   1      -0.751 -12.335   6.422 -0.12 +0.02    +0.070 A 
DOCKED: ATOM     19  C   UNL d   1       1.657  -9.522   6.417 -0.10 +0.01    +0.052 C 
DOCKED: ATOM     20  C   UNL d   1      -2.306 -14.327   6.334 -0.07 +0.03    +0.066 A 
DOCKED: ATOM     21  C   UNL d   1      -3.408 -15.050   6.785 -0.08 -0.01    -0.025 A 
DOCKED: ATOM     22  C   UNL d   1      -3.532 -16.135   5.947 -0.07 -0.02    -0.021 A 
DOCKED: ATOM     23  C   UNL d   1      -2.487 -16.044   5.022 -0.07 +0.04    +0.066 A 
DOCKED: ATOM     24  C   UNL d   1      -4.294 -14.723   7.959 -0.08 +0.03    +0.051 C 
DOCKED: ATOM     25  N   UNL d   1      -0.215 -16.007   3.093 -0.06 -0.09    -0.248 N 
DOCKED: ATOM     26  N   UNL d   1       1.548 -13.692   3.206 -0.10 -0.06    -0.248 N 
DOCKED: ATOM     27  N   UNL d   1       0.054 -12.668   5.381 -0.07 -0.07    -0.248 N 
DOCKED: ATOM     28  N   UNL d   1      -1.718 -14.968   5.289 +0.07 -0.10    -0.248 N 
DOCKED: ATOM     29 FE   UNL d   1      -0.097 -14.333   4.257 -0.04 +0.00    +0.000 Fe
DOCKED: ATOM     30  O   UNL d   1       1.030 -15.371   4.534 -0.06 +0.00    +0.000 OA
DOCKED: ATOM     31  O   UNL d   1       0.362 -14.603   5.737 -0.08 +0.00    +0.000 OA
DOCKED: ENDROOT
DOCKED: BRANCH   6  32
DOCKED: ATOM     32  C   UNL d   1      -1.563 -19.296   2.003 -0.02 +0.02    +0.052 C 
DOCKED: BRANCH  32  33
DOCKED: ATOM     33  C   UNL d   1      -3.063 -19.216   2.271 -0.05 +0.08    +0.115 C 
DOCKED: BRANCH  33  34
DOCKED: ATOM     34  C   UNL d   1      -3.808 -18.512   1.164 -0.08 +0.16    +0.139 C 
DOCKED: ATOM     35  O   UNL d   1      -3.812 -17.292   1.120 -0.41 -0.97    -0.650 OA
DOCKED: BRANCH  34  36
DOCKED: ATOM     36  O   UNL d   1      -4.498 -19.201   0.232 -0.43 -1.07    -0.776 OA
DOCKED: ATOM     37  H   UNL d   1      -4.155 -20.011  -0.163 +0.02 +0.14    +0.167 HD
DOCKED: ENDBRANCH  34  36
DOCKED: ENDBRANCH  33  34
DOCKED: ENDBRANCH  32  33
DOCKED: ENDBRANCH   6  32
DOCKED: BRANCH  22  38
DOCKED: ATOM     38  C   UNL d   1      -4.560 -17.229   6.072 -0.06 +0.06    +0.052 C 
DOCKED: BRANCH  38  39
DOCKED: ATOM     39  C   UNL d   1      -5.048 -17.407   7.509 -0.03 +0.11    +0.115 C 
DOCKED: BRANCH  39  40
DOCKED: ATOM     40  C   UNL d   1      -6.493 -17.013   7.680 -0.12 +0.23    +0.139 C 
DOCKED: ATOM     41  O   UNL d   1      -7.093 -16.490   6.755 -0.41 -1.70    -0.650 OA
DOCKED: BRANCH  40  42
DOCKED: ATOM     42  O   UNL d   1      -7.155 -17.275   8.824 -0.34 -1.52    -0.776 OA
DOCKED: ATOM     43  H   UNL d   1      -6.710 -17.664   9.587 +0.02 +0.19    +0.167 HD
DOCKED: ENDBRANCH  40  42
DOCKED: ENDBRANCH  39  40
DOCKED: ENDBRANCH  38  39
DOCKED: ENDBRANCH  22  38
DOCKED: BRANCH  12  44
DOCKED: ATOM     44  C   UNL d   1       4.172 -11.288   1.923 -0.36 -0.00    +0.004 C 
DOCKED: ATOM     45  C   UNL d   1       3.911 -10.101   1.376 -0.59 -0.00    +0.012 C 
DOCKED: ENDBRANCH  12  44
DOCKED: BRANCH  17  46
DOCKED: ATOM     46  C   UNL d   1      -0.928 -10.578   8.288 -0.20 +0.00    +0.004 C 
DOCKED: ATOM     47  C   UNL d   1      -2.220 -10.514   8.635 -0.33 +0.00    +0.012 C 
DOCKED: ENDBRANCH  17  46
DOCKED: TORSDOF 10
DOCKED: TER
DOCKED: ENDMDL
________________________________________________________________________________


	BEGINNING GENETIC ALGORITHM DOCKING 37 of 100
Run: 37 Seed: 1636939254 993010068 [ Run 37 of 100 GA/GALS ]
Beginning LAMARCKIAN GENETIC ALGORITHM (LGA), with a maximum of 25000000 energy evaluations.

Final-Value: -12.692


	FINAL GENETIC ALGORITHM DOCKED STATE
	_______________________________________________


Detailed state:  trans -5.181 -11.225 12.391 quatxyzw 0.721890 0.165830 0.648724 -0.174734 center 8.287 34.468 -0.670 ntor 10 -50.8885 -59.4164 -28.2399 118.0444 149.7114 177.9564 4.4040 14.8352 -102.2061 167.7404
State:	 -5.181 -11.225  12.391   0.733  0.168  0.659 -159.874    -50.89  -59.42  -28.24  118.04  149.71  177.96    4.40   14.84 -102.21  167.74

DOCKED: MODEL       37
DOCKED: USER    Run = 37
DOCKED: USER    DPF = D:/Protein_go_brrr/autodock/final/AncB/heme_O2/dock.dpf
DOCKED: USER  
DOCKED: USER    Estimated Free Energy of Binding    =   -8.58 kcal/mol  [=(1)+(2)+(3)-(4)]
DOCKED: USER    Estimated Inhibition Constant, Ki   =  513.97 nM (nanomolar)  [Temperature = 298.15 K]
DOCKED: USER    
DOCKED: USER    (1) Final Intermolecular Energy     =  -11.56 kcal/mol
DOCKED: USER        vdW + Hbond + desolv Energy     =   -7.85 kcal/mol
DOCKED: USER        Electrostatic Energy            =   -3.71 kcal/mol
DOCKED: USER    (2) Final Total Internal Energy     =   -1.13 kcal/mol
DOCKED: USER    (3) Torsional Free Energy           =   +2.98 kcal/mol
DOCKED: USER    (4) Unbound System's Energy  [=(2)] =   -1.13 kcal/mol
DOCKED: USER    
DOCKED: USER    
DOCKED: USER    NEWDPF move heme_O2_opt.pdbqt
DOCKED: USER    NEWDPF about 8.287000 34.468000 -0.670000
DOCKED: USER    NEWDPF tran0 -5.180543 -11.225383 12.391227
DOCKED: USER    NEWDPF quaternion0 0.721890 0.165830 0.648724 -0.174734
DOCKED: USER    NEWDPF axisangle0 0.733169 0.168421 0.658860 -159.873678
DOCKED: USER    NEWDPF quat0 0.733169 0.168421 0.658860 -159.873678
DOCKED: USER    NEWDPF dihe0 -50.89 -59.42 -28.24 118.04 149.71 177.96 4.40 14.84 -102.21 167.74 
DOCKED: USER  keepresnum = 1 
DOCKED: USER  
DOCKED: REMARK  10 active torsions:
DOCKED: REMARK  status: ('A' for Active; 'I' for Inactive)
DOCKED: REMARK    1  A    between atoms: C_6  and  C_10 
DOCKED: REMARK    2  A    between atoms: C_10  and  C_11 
DOCKED: REMARK    3  A    between atoms: C_11  and  C_12 
DOCKED: REMARK    4  A    between atoms: C_12  and  O_14 
DOCKED: REMARK    5  A    between atoms: C_17  and  C_20 
DOCKED: REMARK    6  A    between atoms: C_24  and  C_27 
DOCKED: REMARK    7  A    between atoms: C_31  and  C_34 
DOCKED: REMARK    8  A    between atoms: C_34  and  C_35 
DOCKED: REMARK    9  A    between atoms: C_35  and  C_36 
DOCKED: REMARK   10  A    between atoms: C_36  and  O_38 
DOCKED: USER                              x       y       z     vdW  Elec       q    Type
DOCKED: USER                           _______ _______ _______ _____ _____    ______ ____
DOCKED: ROOT
DOCKED: ATOM      1  C   UNL d   1      -6.162 -12.599  11.107 -0.23 +0.03    +0.064 A 
DOCKED: ATOM      2  C   UNL d   1      -2.388  -9.779  10.505 -0.26 +0.01    +0.064 A 
DOCKED: ATOM      3  C   UNL d   1      -2.845  -8.059  14.969 -0.18 +0.01    +0.064 C 
DOCKED: ATOM      4  C   UNL d   1      -6.436 -11.305  15.764 -0.11 +0.03    +0.064 A 
DOCKED: ATOM      5  C   UNL d   1      -5.097 -11.974  10.580 -0.22 +0.03    +0.066 A 
DOCKED: ATOM      6  C   UNL d   1      -4.638 -12.175   9.275 -0.22 -0.01    -0.021 A 
DOCKED: ATOM      7  C   UNL d   1      -3.519 -11.392   9.113 -0.22 -0.01    -0.025 A 
DOCKED: ATOM      8  C   UNL d   1      -3.355 -10.696  10.308 -0.22 +0.02    +0.066 A 
DOCKED: ATOM      9  C   UNL d   1      -2.657 -11.359   7.870 -0.32 +0.01    +0.051 C 
DOCKED: ATOM     10  C   UNL d   1      -2.179  -9.002  11.727 -0.17 +0.02    +0.066 A 
DOCKED: ATOM     11  C   UNL d   1      -1.265  -7.947  11.821 -0.23 -0.00    -0.021 A 
DOCKED: ATOM     12  C   UNL d   1      -1.394  -7.426  13.096 -0.18 +0.00    +0.000 A 
DOCKED: ATOM     13  C   UNL d   1      -2.394  -8.219  13.725 -0.13 +0.01    +0.070 A 
DOCKED: ATOM     14  C   UNL d   1      -0.327  -7.439  10.732 -0.16 +0.00    +0.052 C 
DOCKED: ATOM     15  C   UNL d   1      -3.829  -8.862  15.654 -0.13 +0.02    +0.066 A 
DOCKED: ATOM     16  C   UNL d   1      -4.139  -8.747  17.009 -0.08 -0.00    -0.021 A 
DOCKED: ATOM     17  C   UNL d   1      -5.160  -9.664  17.259 -0.07 +0.00    +0.000 A 
DOCKED: ATOM     18  C   UNL d   1      -5.402 -10.275  16.021 -0.10 +0.03    +0.070 A 
DOCKED: ATOM     19  C   UNL d   1      -3.402  -7.823  17.945 -0.05 -0.00    +0.052 C 
DOCKED: ATOM     20  C   UNL d   1      -6.665 -11.943  14.600 -0.16 +0.03    +0.066 A 
DOCKED: ATOM     21  C   UNL d   1      -7.667 -12.892  14.414 -0.22 -0.01    -0.025 A 
DOCKED: ATOM     22  C   UNL d   1      -7.621 -13.252  13.086 -0.30 -0.01    -0.021 A 
DOCKED: ATOM     23  C   UNL d   1      -6.577 -12.520  12.513 -0.26 +0.03    +0.066 A 
DOCKED: ATOM     24  C   UNL d   1      -8.617 -13.430  15.452 -0.17 +0.02    +0.051 C 
DOCKED: ATOM     25  N   UNL d   1      -4.288 -11.104  11.233 -0.13 -0.10    -0.248 N 
DOCKED: ATOM     26  N   UNL d   1      -2.863  -9.178  12.886 -0.10 -0.07    -0.248 N 
DOCKED: ATOM     27  N   UNL d   1      -4.534  -9.830  15.076 -0.10 -0.11    -0.248 N 
DOCKED: ATOM     28  N   UNL d   1      -5.970 -11.759  13.447 -0.12 -0.13    -0.248 N 
DOCKED: ATOM     29 FE   UNL d   1      -4.428 -10.477  13.171 -0.04 +0.00    +0.000 Fe
DOCKED: ATOM     30  O   UNL d   1      -3.177 -11.358  12.885 -0.10 +0.00    +0.000 OA
DOCKED: ATOM     31  O   UNL d   1      -3.971 -11.544  14.232 -0.08 +0.00    +0.000 OA
DOCKED: ENDROOT
DOCKED: BRANCH   6  32
DOCKED: ATOM     32  C   UNL d   1      -5.145 -13.168   8.261 -0.24 +0.03    +0.052 C 
DOCKED: BRANCH  32  33
DOCKED: ATOM     33  C   UNL d   1      -5.962 -14.293   8.890 -0.22 +0.10    +0.115 C 
DOCKED: BRANCH  33  34
DOCKED: ATOM     34  C   UNL d   1      -6.420 -15.309   7.874 -0.22 +0.21    +0.139 C 
DOCKED: ATOM     35  O   UNL d   1      -6.141 -15.152   6.696 -0.38 -1.18    -0.650 OA
DOCKED: BRANCH  34  36
DOCKED: ATOM     36  O   UNL d   1      -7.159 -16.379   8.233 -0.51 -1.83    -0.776 OA
DOCKED: ATOM     37  H   UNL d   1      -6.899 -16.959   8.958 +0.02 +0.29    +0.167 HD
DOCKED: ENDBRANCH  34  36
DOCKED: ENDBRANCH  33  34
DOCKED: ENDBRANCH  32  33
DOCKED: ENDBRANCH   6  32
DOCKED: BRANCH  22  38
DOCKED: ATOM     38  C   UNL d   1      -8.493 -14.289  12.427 +0.09 +0.02    +0.052 C 
DOCKED: BRANCH  38  39
DOCKED: ATOM     39  C   UNL d   1      -7.872 -15.684  12.472 -0.16 +0.05    +0.115 C 
DOCKED: BRANCH  39  40
DOCKED: ATOM     40  C   UNL d   1      -8.562 -16.652  11.543 +0.05 +0.12    +0.139 C 
DOCKED: ATOM     41  O   UNL d   1      -9.773 -16.598  11.403 -0.45 -0.73    -0.650 OA
DOCKED: BRANCH  40  42
DOCKED: ATOM     42  O   UNL d   1      -7.858 -17.547  10.823 -0.02 -0.86    -0.776 OA
DOCKED: ATOM     43  H   UNL d   1      -7.158 -17.270  10.220 +0.02 +0.20    +0.167 HD
DOCKED: ENDBRANCH  40  42
DOCKED: ENDBRANCH  39  40
DOCKED: ENDBRANCH  38  39
DOCKED: ENDBRANCH  22  38
DOCKED: BRANCH  12  44
DOCKED: ATOM     44  C   UNL d   1      -0.565  -6.252  13.573 -0.35 +0.00    +0.004 C 
DOCKED: ATOM     45  C   UNL d   1      -0.917  -5.297  14.432 -0.36 -0.00    +0.012 C 
DOCKED: ENDBRANCH  12  44
DOCKED: BRANCH  17  46
DOCKED: ATOM     46  C   UNL d   1      -5.861 -10.037  18.537 -0.03 +0.00    +0.004 C 
DOCKED: ATOM     47  C   UNL d   1      -7.131  -9.795  18.887 -0.05 +0.00    +0.012 C 
DOCKED: ENDBRANCH  17  46
DOCKED: TORSDOF 10
DOCKED: TER
DOCKED: ENDMDL
________________________________________________________________________________


	BEGINNING GENETIC ALGORITHM DOCKING 38 of 100
Run: 38 Seed: 1501294008 1940358543 [ Run 38 of 100 GA/GALS ]
Beginning LAMARCKIAN GENETIC ALGORITHM (LGA), with a maximum of 25000000 energy evaluations.

Final-Value: -11.321


	FINAL GENETIC ALGORITHM DOCKED STATE
	_______________________________________________


Detailed state:  trans -0.958 -15.236 4.221 quatxyzw 0.696504 0.364832 0.310190 -0.534380 center 8.287 34.468 -0.670 ntor 10 104.8084 32.0820 35.5135 -29.8157 -135.2941 -38.7966 179.0793 38.2910 8.1842 31.5712
State:	 -0.958 -15.236   4.221   0.824  0.432  0.367 -115.396    104.81   32.08   35.51  -29.82 -135.29  -38.80  179.08   38.29    8.18   31.57

DOCKED: MODEL       38
DOCKED: USER    Run = 38
DOCKED: USER    DPF = D:/Protein_go_brrr/autodock/final/AncB/heme_O2/dock.dpf
DOCKED: USER  
DOCKED: USER    Estimated Free Energy of Binding    =   -7.80 kcal/mol  [=(1)+(2)+(3)-(4)]
DOCKED: USER    Estimated Inhibition Constant, Ki   =    1.91 uM (micromolar)  [Temperature = 298.15 K]
DOCKED: USER    
DOCKED: USER    (1) Final Intermolecular Energy     =  -10.78 kcal/mol
DOCKED: USER        vdW + Hbond + desolv Energy     =   -6.25 kcal/mol
DOCKED: USER        Electrostatic Energy            =   -4.53 kcal/mol
DOCKED: USER    (2) Final Total Internal Energy     =   -0.54 kcal/mol
DOCKED: USER    (3) Torsional Free Energy           =   +2.98 kcal/mol
DOCKED: USER    (4) Unbound System's Energy  [=(2)] =   -0.54 kcal/mol
DOCKED: USER    
DOCKED: USER    
DOCKED: USER    NEWDPF move heme_O2_opt.pdbqt
DOCKED: USER    NEWDPF about 8.287000 34.468000 -0.670000
DOCKED: USER    NEWDPF tran0 -0.957745 -15.236078 4.220981
DOCKED: USER    NEWDPF quaternion0 0.696504 0.364832 0.310190 -0.534380
DOCKED: USER    NEWDPF axisangle0 0.824026 0.431629 0.366983 -115.396246
DOCKED: USER    NEWDPF quat0 0.824026 0.431629 0.366983 -115.396246
DOCKED: USER    NEWDPF dihe0 104.81 32.08 35.51 -29.82 -135.29 -38.80 179.08 38.29 8.18 31.57 
DOCKED: USER  keepresnum = 1 
DOCKED: USER  
DOCKED: REMARK  10 active torsions:
DOCKED: REMARK  status: ('A' for Active; 'I' for Inactive)
DOCKED: REMARK    1  A    between atoms: C_6  and  C_10 
DOCKED: REMARK    2  A    between atoms: C_10  and  C_11 
DOCKED: REMARK    3  A    between atoms: C_11  and  C_12 
DOCKED: REMARK    4  A    between atoms: C_12  and  O_14 
DOCKED: REMARK    5  A    between atoms: C_17  and  C_20 
DOCKED: REMARK    6  A    between atoms: C_24  and  C_27 
DOCKED: REMARK    7  A    between atoms: C_31  and  C_34 
DOCKED: REMARK    8  A    between atoms: C_34  and  C_35 
DOCKED: REMARK    9  A    between atoms: C_35  and  C_36 
DOCKED: REMARK   10  A    between atoms: C_36  and  O_38 
DOCKED: USER                              x       y       z     vdW  Elec       q    Type
DOCKED: USER                           _______ _______ _______ _____ _____    ______ ____
DOCKED: ROOT
DOCKED: ATOM      1  C   UNL d   1      -2.521 -16.490   4.916 -0.06 +0.04    +0.064 A 
DOCKED: ATOM      2  C   UNL d   1       0.680 -16.980   1.442 -0.06 +0.01    +0.064 A 
DOCKED: ATOM      3  C   UNL d   1       2.529 -12.651   2.408 -0.23 +0.01    +0.064 C 
DOCKED: ATOM      4  C   UNL d   1      -0.449 -12.337   6.294 -0.15 +0.01    +0.064 A 
DOCKED: ATOM      5  C   UNL d   1      -1.800 -16.977   3.893 -0.05 +0.03    +0.066 A 
DOCKED: ATOM      6  C   UNL d   1      -2.036 -18.216   3.289 -0.03 -0.01    -0.021 A 
DOCKED: ATOM      7  C   UNL d   1      -1.082 -18.378   2.312 -0.03 -0.01    -0.025 A 
DOCKED: ATOM      8  C   UNL d   1      -0.320 -17.212   2.313 -0.05 +0.02    +0.066 A 
DOCKED: ATOM      9  C   UNL d   1      -0.919 -19.616   1.458 -0.02 +0.02    +0.051 C 
DOCKED: ATOM     10  C   UNL d   1       1.499 -15.768   1.379 -0.10 +0.01    +0.066 A 
DOCKED: ATOM     11  C   UNL d   1       2.414 -15.510   0.352 -0.15 -0.00    -0.021 A 
DOCKED: ATOM     12  C   UNL d   1       2.944 -14.258   0.604 -0.13 +0.00    +0.000 A 
DOCKED: ATOM     13  C   UNL d   1       2.318 -13.819   1.803 -0.15 +0.01    +0.070 A 
DOCKED: ATOM     14  C   UNL d   1       2.748 -16.408  -0.833 -0.18 +0.00    +0.052 C 
DOCKED: ATOM     15  C   UNL d   1       1.941 -12.184   3.641 -0.19 +0.01    +0.066 A 
DOCKED: ATOM     16  C   UNL d   1       2.326 -11.022   4.310 -0.23 -0.00    -0.021 A 
DOCKED: ATOM     17  C   UNL d   1       1.491 -10.912   5.422 -0.26 +0.00    +0.000 A 
DOCKED: ATOM     18  C   UNL d   1       0.647 -12.029   5.346 -0.16 +0.01    +0.070 A 
DOCKED: ATOM     19  C   UNL d   1       3.479 -10.159   3.863 -0.29 +0.00    +0.052 C 
DOCKED: ATOM     20  C   UNL d   1      -1.249 -13.421   6.276 -0.07 +0.02    +0.066 A 
DOCKED: ATOM     21  C   UNL d   1      -2.277 -13.649   7.186 -0.10 -0.01    -0.025 A 
DOCKED: ATOM     22  C   UNL d   1      -2.896 -14.814   6.792 -0.08 -0.01    -0.021 A 
DOCKED: ATOM     23  C   UNL d   1      -2.208 -15.266   5.662 -0.06 +0.03    +0.066 A 
DOCKED: ATOM     24  C   UNL d   1      -2.648 -12.799   8.374 -0.12 +0.02    +0.051 C 
DOCKED: ATOM     25  N   UNL d   1      -0.722 -16.378   3.330 -0.05 -0.10    -0.248 N 
DOCKED: ATOM     26  N   UNL d   1       1.443 -14.746   2.270 -0.08 -0.06    -0.248 N 
DOCKED: ATOM     27  N   UNL d   1       0.984 -12.829   4.302 -0.12 -0.07    -0.248 N 
DOCKED: ATOM     28  N   UNL d   1      -1.179 -14.440   5.378 -0.02 -0.09    -0.248 N 
DOCKED: ATOM     29 FE   UNL d   1       0.124 -14.590   3.837 -0.04 +0.00    +0.000 Fe
DOCKED: ATOM     30  O   UNL d   1       1.025 -15.821   4.146 -0.06 +0.00    +0.000 OA
DOCKED: ATOM     31  O   UNL d   1       0.961 -14.623   5.167 -0.08 +0.00    +0.000 OA
DOCKED: ENDROOT
DOCKED: BRANCH   6  32
DOCKED: ATOM     32  C   UNL d   1      -3.030 -19.270   3.703 -0.01 +0.03    +0.052 C 
DOCKED: BRANCH  32  33
DOCKED: ATOM     33  C   UNL d   1      -4.373 -19.128   2.993 -0.08 +0.11    +0.115 C 
DOCKED: BRANCH  33  34
DOCKED: ATOM     34  C   UNL d   1      -4.424 -17.917   2.094 -0.13 +0.21    +0.139 C 
DOCKED: ATOM     35  O   UNL d   1      -3.815 -17.926   1.036 -0.60 -0.89    -0.650 OA
DOCKED: BRANCH  34  36
DOCKED: ATOM     36  O   UNL d   1      -5.106 -16.808   2.446 -0.13 -1.68    -0.776 OA
DOCKED: ATOM     37  H   UNL d   1      -4.661 -16.008   2.747 +0.03 +0.28    +0.167 HD
DOCKED: ENDBRANCH  34  36
DOCKED: ENDBRANCH  33  34
DOCKED: ENDBRANCH  32  33
DOCKED: ENDBRANCH   6  32
DOCKED: BRANCH  22  38
DOCKED: ATOM     38  C   UNL d   1      -4.042 -15.483   7.505 -0.06 +0.04    +0.052 C 
DOCKED: BRANCH  38  39
DOCKED: ATOM     39  C   UNL d   1      -5.155 -15.906   6.548 -0.09 +0.16    +0.115 C 
DOCKED: BRANCH  39  40
DOCKED: ATOM     40  C   UNL d   1      -6.528 -15.726   7.145 -0.11 +0.27    +0.139 C 
DOCKED: ATOM     41  O   UNL d   1      -7.237 -14.806   6.768 -0.23 -1.41    -0.650 OA
DOCKED: BRANCH  40  42
DOCKED: ATOM     42  O   UNL d   1      -7.011 -16.594   8.055 -0.51 -1.79    -0.776 OA
DOCKED: ATOM     43  H   UNL d   1      -6.436 -17.017   8.704 +0.02 +0.23    +0.167 HD
DOCKED: ENDBRANCH  40  42
DOCKED: ENDBRANCH  39  40
DOCKED: ENDBRANCH  38  39
DOCKED: ENDBRANCH  22  38
DOCKED: BRANCH  12  44
DOCKED: ATOM     44  C   UNL d   1       3.976 -13.625  -0.306 -0.18 +0.00    +0.004 C 
DOCKED: ATOM     45  C   UNL d   1       4.955 -12.784   0.026 -0.36 -0.00    +0.012 C 
DOCKED: ENDBRANCH  12  44
DOCKED: BRANCH  17  46
DOCKED: ATOM     46  C   UNL d   1       1.464  -9.907   6.542 -0.22 +0.00    +0.004 C 
DOCKED: ATOM     47  C   UNL d   1       2.500  -9.307   7.142 -0.20 +0.00    +0.012 C 
DOCKED: ENDBRANCH  17  46
DOCKED: TORSDOF 10
DOCKED: TER
DOCKED: ENDMDL
________________________________________________________________________________


	BEGINNING GENETIC ALGORITHM DOCKING 39 of 100
Run: 39 Seed: 1805442033 570223627 [ Run 39 of 100 GA/GALS ]
Beginning LAMARCKIAN GENETIC ALGORITHM (LGA), with a maximum of 25000000 energy evaluations.

Final-Value: -12.148


	FINAL GENETIC ALGORITHM DOCKED STATE
	_______________________________________________


Detailed state:  trans -7.638 -1.552 -12.667 quatxyzw -0.482543 -0.229126 -0.760502 -0.369174 center 8.287 34.468 -0.670 ntor 10 -147.6725 -31.7957 -67.6953 107.1456 -130.1081 120.5738 -174.7958 -38.5908 174.7456 180.0000
State:	 -7.638  -1.552 -12.667  -0.519 -0.247 -0.818 -136.671   -147.67  -31.80  -67.70  107.15 -130.11  120.57 -174.80  -38.59  174.75  180.00

DOCKED: MODEL       39
DOCKED: USER    Run = 39
DOCKED: USER    DPF = D:/Protein_go_brrr/autodock/final/AncB/heme_O2/dock.dpf
DOCKED: USER  
DOCKED: USER    Estimated Free Energy of Binding    =   -8.58 kcal/mol  [=(1)+(2)+(3)-(4)]
DOCKED: USER    Estimated Inhibition Constant, Ki   =  511.76 nM (nanomolar)  [Temperature = 298.15 K]
DOCKED: USER    
DOCKED: USER    (1) Final Intermolecular Energy     =  -11.57 kcal/mol
DOCKED: USER        vdW + Hbond + desolv Energy     =   -7.14 kcal/mol
DOCKED: USER        Electrostatic Energy            =   -4.43 kcal/mol
DOCKED: USER    (2) Final Total Internal Energy     =   -0.58 kcal/mol
DOCKED: USER    (3) Torsional Free Energy           =   +2.98 kcal/mol
DOCKED: USER    (4) Unbound System's Energy  [=(2)] =   -0.58 kcal/mol
DOCKED: USER    
DOCKED: USER    
DOCKED: USER    NEWDPF move heme_O2_opt.pdbqt
DOCKED: USER    NEWDPF about 8.287000 34.468000 -0.670000
DOCKED: USER    NEWDPF tran0 -7.638107 -1.551786 -12.667298
DOCKED: USER    NEWDPF quaternion0 -0.482543 -0.229126 -0.760502 -0.369174
DOCKED: USER    NEWDPF axisangle0 -0.519220 -0.246542 -0.818308 -136.670589
DOCKED: USER    NEWDPF quat0 -0.519220 -0.246542 -0.818308 -136.670589
DOCKED: USER    NEWDPF dihe0 -147.67 -31.80 -67.70 107.15 -130.11 120.57 -174.80 -38.59 174.75 180.00 
DOCKED: USER  keepresnum = 1 
DOCKED: USER  
DOCKED: REMARK  10 active torsions:
DOCKED: REMARK  status: ('A' for Active; 'I' for Inactive)
DOCKED: REMARK    1  A    between atoms: C_6  and  C_10 
DOCKED: REMARK    2  A    between atoms: C_10  and  C_11 
DOCKED: REMARK    3  A    between atoms: C_11  and  C_12 
DOCKED: REMARK    4  A    between atoms: C_12  and  O_14 
DOCKED: REMARK    5  A    between atoms: C_17  and  C_20 
DOCKED: REMARK    6  A    between atoms: C_24  and  C_27 
DOCKED: REMARK    7  A    between atoms: C_31  and  C_34 
DOCKED: REMARK    8  A    between atoms: C_34  and  C_35 
DOCKED: REMARK    9  A    between atoms: C_35  and  C_36 
DOCKED: REMARK   10  A    between atoms: C_36  and  O_38 
DOCKED: USER                              x       y       z     vdW  Elec       q    Type
DOCKED: USER                           _______ _______ _______ _____ _____    ______ ____
DOCKED: ROOT
DOCKED: ATOM      1  C   UNL d   1      -7.129  -1.854 -14.704 -0.05 +0.07    +0.064 A 
DOCKED: ATOM      2  C   UNL d   1      -7.478   2.056 -12.030 -0.09 +0.04    +0.064 A 
DOCKED: ATOM      3  C   UNL d   1      -8.800  -0.556  -8.220 -0.19 +0.02    +0.064 C 
DOCKED: ATOM      4  C   UNL d   1      -7.983  -4.628 -10.830 -0.26 +0.03    +0.064 A 
DOCKED: ATOM      5  C   UNL d   1      -7.114  -0.577 -14.287 -0.04 +0.06    +0.066 A 
DOCKED: ATOM      6  C   UNL d   1      -6.802   0.510 -15.108 -0.03 -0.02    -0.021 A 
DOCKED: ATOM      7  C   UNL d   1      -6.860   1.639 -14.324 -0.06 -0.02    -0.025 A 
DOCKED: ATOM      8  C   UNL d   1      -7.254   1.215 -13.058 -0.05 +0.05    +0.066 A 
DOCKED: ATOM      9  C   UNL d   1      -6.518   3.037 -14.792 -0.08 +0.06    +0.051 C 
DOCKED: ATOM     10  C   UNL d   1      -7.914   1.673 -10.687 -0.09 +0.03    +0.066 A 
DOCKED: ATOM     11  C   UNL d   1      -8.289   2.598  -9.706 -0.15 -0.01    -0.021 A 
DOCKED: ATOM     12  C   UNL d   1      -8.691   1.863  -8.606 -0.21 +0.00    +0.000 A 
DOCKED: ATOM     13  C   UNL d   1      -8.523   0.502  -8.982 -0.13 +0.02    +0.070 A 
DOCKED: ATOM     14  C   UNL d   1      -8.290   4.117  -9.824 -0.19 +0.02    +0.052 C 
DOCKED: ATOM     15  C   UNL d   1      -8.611  -1.948  -8.550 -0.16 +0.02    +0.066 A 
DOCKED: ATOM     16  C   UNL d   1      -8.766  -3.002  -7.650 -0.27 -0.01    -0.021 A 
DOCKED: ATOM     17  C   UNL d   1      -8.537  -4.173  -8.372 -0.34 +0.00    +0.000 A 
DOCKED: ATOM     18  C   UNL d   1      -8.258  -3.740  -9.676 -0.20 +0.03    +0.070 A 
DOCKED: ATOM     19  C   UNL d   1      -9.061  -2.797  -6.185 -0.43 +0.01    +0.052 C 
DOCKED: ATOM     20  C   UNL d   1      -7.669  -4.246 -12.083 -0.18 +0.04    +0.066 A 
DOCKED: ATOM     21  C   UNL d   1      -7.438  -5.129 -13.134 -0.21 -0.02    -0.025 A 
DOCKED: ATOM     22  C   UNL d   1      -7.220  -4.356 -14.252 -0.13 -0.02    -0.021 A 
DOCKED: ATOM     23  C   UNL d   1      -7.309  -3.023 -13.836 -0.09 +0.07    +0.066 A 
DOCKED: ATOM     24  C   UNL d   1      -7.422  -6.634 -13.073 -0.32 +0.03    +0.051 C 
DOCKED: ATOM     25  N   UNL d   1      -7.347  -0.158 -13.020 -0.02 -0.19    -0.248 N 
DOCKED: ATOM     26  N   UNL d   1      -8.045   0.395 -10.248 -0.03 -0.10    -0.248 N 
DOCKED: ATOM     27  N   UNL d   1      -8.233  -2.385  -9.748 -0.07 -0.10    -0.248 N 
DOCKED: ATOM     28  N   UNL d   1      -7.537  -2.961 -12.508 -0.07 -0.20    -0.248 N 
DOCKED: ATOM     29 FE   UNL d   1      -7.789  -1.297 -11.384 -0.02 +0.00    +0.000 Fe
DOCKED: ATOM     30  O   UNL d   1      -6.396  -0.607 -11.310 -0.13 +0.00    +0.000 OA
DOCKED: ATOM     31  O   UNL d   1      -6.564  -2.085 -10.792 -0.19 +0.00    +0.000 OA
DOCKED: ENDROOT
DOCKED: BRANCH   6  32
DOCKED: ATOM     32  C   UNL d   1      -6.331   0.482 -16.539 -0.01 +0.04    +0.052 C 
DOCKED: BRANCH  32  33
DOCKED: ATOM     33  C   UNL d   1      -4.826   0.692 -16.672 -0.03 +0.11    +0.115 C 
DOCKED: BRANCH  33  34
DOCKED: ATOM     34  C   UNL d   1      -4.141   0.809 -15.334 -0.09 +0.20    +0.139 C 
DOCKED: ATOM     35  O   UNL d   1      -3.901  -0.199 -14.689 +0.27 -1.47    -0.650 OA
DOCKED: BRANCH  34  36
DOCKED: ATOM     36  O   UNL d   1      -3.810   2.010 -14.815 -0.51 -1.61    -0.776 OA
DOCKED: ATOM     37  H   UNL d   1      -3.029   2.130 -14.263 +0.02 +0.36    +0.167 HD
DOCKED: ENDBRANCH  34  36
DOCKED: ENDBRANCH  33  34
DOCKED: ENDBRANCH  32  33
DOCKED: ENDBRANCH   6  32
DOCKED: BRANCH  22  38
DOCKED: ATOM     38  C   UNL d   1      -6.881  -4.874 -15.626 -0.12 +0.05    +0.052 C 
DOCKED: BRANCH  38  39
DOCKED: ATOM     39  C   UNL d   1      -5.416  -5.287 -15.747 -0.07 +0.15    +0.115 C 
DOCKED: BRANCH  39  40
DOCKED: ATOM     40  C   UNL d   1      -5.238  -6.548 -16.555 -0.12 +0.21    +0.139 C 
DOCKED: ATOM     41  O   UNL d   1      -5.168  -7.627 -15.988 -0.50 -1.09    -0.650 OA
DOCKED: BRANCH  40  42
DOCKED: ATOM     42  O   UNL d   1      -5.207  -6.513 -17.902 -0.03 -1.49    -0.776 OA
DOCKED: ATOM     43  H   UNL d   1      -5.679  -5.836 -18.400 +0.02 +0.20    +0.167 HD
DOCKED: ENDBRANCH  40  42
DOCKED: ENDBRANCH  39  40
DOCKED: ENDBRANCH  38  39
DOCKED: ENDBRANCH  22  38
DOCKED: BRANCH  12  44
DOCKED: ATOM     44  C   UNL d   1      -9.180   2.524  -7.334 -0.28 +0.00    +0.004 C 
DOCKED: ATOM     45  C   UNL d   1     -10.426   2.574  -6.865 -0.22 +0.00    +0.012 C 
DOCKED: ENDBRANCH  12  44
DOCKED: BRANCH  17  46
DOCKED: ATOM     46  C   UNL d   1      -8.503  -5.613  -7.934 -0.47 +0.00    +0.004 C 
DOCKED: ATOM     47  C   UNL d   1      -9.461  -6.541  -8.063 -0.51 +0.00    +0.012 C 
DOCKED: ENDBRANCH  17  46
DOCKED: TORSDOF 10
DOCKED: TER
DOCKED: ENDMDL
________________________________________________________________________________


	BEGINNING GENETIC ALGORITHM DOCKING 40 of 100
Run: 40 Seed: 847020480 206025105 [ Run 40 of 100 GA/GALS ]
Beginning LAMARCKIAN GENETIC ALGORITHM (LGA), with a maximum of 25000000 energy evaluations.

Final-Value: -12.396


	FINAL GENETIC ALGORITHM DOCKED STATE
	_______________________________________________


Detailed state:  trans -0.284 -16.157 3.084 quatxyzw -0.665770 0.383777 0.342005 -0.540831 center 8.287 34.468 -0.670 ntor 10 76.1306 71.1885 -31.8013 -104.1552 -136.6394 -73.2127 -64.9902 178.5574 -169.3888 175.1465
State:	 -0.284 -16.157   3.084  -0.792  0.456  0.407 -114.520     76.13   71.19  -31.80 -104.16 -136.64  -73.21  -64.99  178.56 -169.39  175.15

DOCKED: MODEL       40
DOCKED: USER    Run = 40
DOCKED: USER    DPF = D:/Protein_go_brrr/autodock/final/AncB/heme_O2/dock.dpf
DOCKED: USER  
DOCKED: USER    Estimated Free Energy of Binding    =   -7.87 kcal/mol  [=(1)+(2)+(3)-(4)]
DOCKED: USER    Estimated Inhibition Constant, Ki   =    1.72 uM (micromolar)  [Temperature = 298.15 K]
DOCKED: USER    
DOCKED: USER    (1) Final Intermolecular Energy     =  -10.85 kcal/mol
DOCKED: USER        vdW + Hbond + desolv Energy     =   -6.83 kcal/mol
DOCKED: USER        Electrostatic Energy            =   -4.02 kcal/mol
DOCKED: USER    (2) Final Total Internal Energy     =   -1.55 kcal/mol
DOCKED: USER    (3) Torsional Free Energy           =   +2.98 kcal/mol
DOCKED: USER    (4) Unbound System's Energy  [=(2)] =   -1.55 kcal/mol
DOCKED: USER    
DOCKED: USER    
DOCKED: USER    NEWDPF move heme_O2_opt.pdbqt
DOCKED: USER    NEWDPF about 8.287000 34.468000 -0.670000
DOCKED: USER    NEWDPF tran0 -0.283994 -16.157114 3.083623
DOCKED: USER    NEWDPF quaternion0 -0.665770 0.383777 0.342005 -0.540831
DOCKED: USER    NEWDPF axisangle0 -0.791517 0.456263 0.406601 -114.519569
DOCKED: USER    NEWDPF quat0 -0.791517 0.456263 0.406601 -114.519569
DOCKED: USER    NEWDPF dihe0 76.13 71.19 -31.80 -104.16 -136.64 -73.21 -64.99 178.56 -169.39 175.15 
DOCKED: USER  keepresnum = 1 
DOCKED: USER  
DOCKED: REMARK  10 active torsions:
DOCKED: REMARK  status: ('A' for Active; 'I' for Inactive)
DOCKED: REMARK    1  A    between atoms: C_6  and  C_10 
DOCKED: REMARK    2  A    between atoms: C_10  and  C_11 
DOCKED: REMARK    3  A    between atoms: C_11  and  C_12 
DOCKED: REMARK    4  A    between atoms: C_12  and  O_14 
DOCKED: REMARK    5  A    between atoms: C_17  and  C_20 
DOCKED: REMARK    6  A    between atoms: C_24  and  C_27 
DOCKED: REMARK    7  A    between atoms: C_31  and  C_34 
DOCKED: REMARK    8  A    between atoms: C_34  and  C_35 
DOCKED: REMARK    9  A    between atoms: C_35  and  C_36 
DOCKED: REMARK   10  A    between atoms: C_36  and  O_38 
DOCKED: USER                              x       y       z     vdW  Elec       q    Type
DOCKED: USER                           _______ _______ _______ _____ _____    ______ ____
DOCKED: ROOT
DOCKED: ATOM      1  C   UNL d   1      -1.664 -16.752   4.581 -0.04 +0.03    +0.064 A 
DOCKED: ATOM      2  C   UNL d   1       1.143 -12.947   4.135 -0.14 +0.02    +0.064 A 
DOCKED: ATOM      3  C   UNL d   1       2.893 -14.609  -0.021 -0.16 +0.01    +0.064 C 
DOCKED: ATOM      4  C   UNL d   1      -0.339 -18.295   0.187 -0.07 +0.02    +0.064 A 
DOCKED: ATOM      5  C   UNL d   1      -1.044 -15.580   4.798 -0.03 +0.03    +0.066 A 
DOCKED: ATOM      6  C   UNL d   1      -1.255 -14.780   5.924 -0.06 -0.01    -0.021 A 
DOCKED: ATOM      7  C   UNL d   1      -0.476 -13.657   5.775 -0.07 -0.01    -0.025 A 
DOCKED: ATOM      8  C   UNL d   1       0.227 -13.825   4.585 -0.04 +0.03    +0.066 A 
DOCKED: ATOM      9  C   UNL d   1      -0.453 -12.486   6.732 -0.18 +0.01    +0.051 C 
DOCKED: ATOM     10  C   UNL d   1       1.928 -13.080   2.906 -0.18 +0.01    +0.066 A 
DOCKED: ATOM     11  C   UNL d   1       2.981 -12.222   2.569 -0.20 -0.00    -0.021 A 
DOCKED: ATOM     12  C   UNL d   1       3.510 -12.696   1.383 -0.22 +0.00    +0.000 A 
DOCKED: ATOM     13  C   UNL d   1       2.724 -13.834   1.050 -0.09 +0.01    +0.070 A 
DOCKED: ATOM     14  C   UNL d   1       3.480 -11.018   3.360 -0.24 -0.00    +0.052 C 
DOCKED: ATOM     15  C   UNL d   1       2.097 -15.748  -0.412 -0.17 +0.01    +0.066 A 
DOCKED: ATOM     16  C   UNL d   1       2.221 -16.419  -1.628 -0.24 +0.00    -0.021 A 
DOCKED: ATOM     17  C   UNL d   1       1.309 -17.473  -1.592 -0.23 -0.00    +0.000 A 
DOCKED: ATOM     18  C   UNL d   1       0.690 -17.367  -0.339 -0.13 +0.01    +0.070 A 
DOCKED: ATOM     19  C   UNL d   1       3.150 -15.966  -2.727 -0.32 -0.01    +0.052 C 
DOCKED: ATOM     20  C   UNL d   1      -0.984 -18.197   1.366 -0.04 +0.02    +0.066 A 
DOCKED: ATOM     21  C   UNL d   1      -1.931 -19.112   1.816 -0.03 -0.01    -0.025 A 
DOCKED: ATOM     22  C   UNL d   1      -2.300 -18.704   3.078 -0.02 -0.01    -0.021 A 
DOCKED: ATOM     23  C   UNL d   1      -1.574 -17.539   3.345 -0.04 +0.03    +0.066 A 
DOCKED: ATOM     24  C   UNL d   1      -2.460 -20.314   1.077 -0.03 +0.02    +0.051 C 
DOCKED: ATOM     25  N   UNL d   1      -0.173 -14.979   3.951 +0.06 -0.12    -0.248 N 
DOCKED: ATOM     26  N   UNL d   1       1.761 -14.057   1.980 -0.12 -0.05    -0.248 N 
DOCKED: ATOM     27  N   UNL d   1       1.127 -16.270   0.332 -0.09 -0.04    -0.248 N 
DOCKED: ATOM     28  N   UNL d   1      -0.809 -17.209   2.284 -0.03 -0.09    -0.248 N 
DOCKED: ATOM     29 FE   UNL d   1       0.467 -15.646   2.130 -0.03 +0.00    +0.000 Fe
DOCKED: ATOM     30  O   UNL d   1      -0.418 -14.368   2.056 -0.58 +0.00    +0.000 OA
DOCKED: ATOM     31  O   UNL d   1      -0.594 -15.503   0.979 -0.37 +0.00    +0.000 OA
DOCKED: ENDROOT
DOCKED: BRANCH   6  32
DOCKED: ATOM     32  C   UNL d   1      -2.253 -14.992   7.033 -0.06 +0.02    +0.052 C 
DOCKED: BRANCH  32  33
DOCKED: ATOM     33  C   UNL d   1      -3.630 -14.422   6.708 -0.11 +0.07    +0.115 C 
DOCKED: BRANCH  33  34
DOCKED: ATOM     34  C   UNL d   1      -4.674 -15.499   6.543 -0.10 +0.15    +0.139 C 
DOCKED: ATOM     35  O   UNL d   1      -5.081 -16.100   7.524 +0.01 -0.67    -0.650 OA
DOCKED: BRANCH  34  36
DOCKED: ATOM     36  O   UNL d   1      -5.151 -15.835   5.327 -0.33 -1.55    -0.776 OA
DOCKED: ATOM     37  H   UNL d   1      -4.644 -16.376   4.710 +0.03 +0.27    +0.167 HD
DOCKED: ENDBRANCH  34  36
DOCKED: ENDBRANCH  33  34
DOCKED: ENDBRANCH  32  33
DOCKED: ENDBRANCH   6  32
DOCKED: BRANCH  22  38
DOCKED: ATOM     38  C   UNL d   1      -3.339 -19.364   3.946 -0.01 +0.03    +0.052 C 
DOCKED: BRANCH  38  39
DOCKED: ATOM     39  C   UNL d   1      -4.757 -18.916   3.599 -0.08 +0.13    +0.115 C 
DOCKED: BRANCH  39  40
DOCKED: ATOM     40  C   UNL d   1      -4.782 -17.871   2.511 -0.10 +0.23    +0.139 C 
DOCKED: ATOM     41  O   UNL d   1      -4.512 -18.186   1.363 -0.41 -1.14    -0.650 OA
DOCKED: BRANCH  40  42
DOCKED: ATOM     42  O   UNL d   1      -5.146 -16.601   2.774 -0.18 -1.73    -0.776 OA
DOCKED: ATOM     43  H   UNL d   1      -4.564 -15.997   3.249 +0.03 +0.27    +0.167 HD
DOCKED: ENDBRANCH  40  42
DOCKED: ENDBRANCH  39  40
DOCKED: ENDBRANCH  38  39
DOCKED: ENDBRANCH  22  38
DOCKED: BRANCH  12  44
DOCKED: ATOM     44  C   UNL d   1       4.685 -12.026   0.702 -0.40 -0.00    +0.004 C 
DOCKED: ATOM     45  C   UNL d   1       5.682 -12.603   0.032 -0.38 -0.00    +0.012 C 
DOCKED: ENDBRANCH  12  44
DOCKED: BRANCH  17  46
DOCKED: ATOM     46  C   UNL d   1       0.945 -18.502  -2.630 -0.28 -0.00    +0.004 C 
DOCKED: ATOM     47  C   UNL d   1      -0.203 -18.624  -3.309 -0.31 -0.00    +0.012 C 
DOCKED: ENDBRANCH  17  46
DOCKED: TORSDOF 10
DOCKED: TER
DOCKED: ENDMDL
________________________________________________________________________________


	BEGINNING GENETIC ALGORITHM DOCKING 41 of 100
Run: 41 Seed: 1469798695 1155650879 [ Run 41 of 100 GA/GALS ]
Beginning LAMARCKIAN GENETIC ALGORITHM (LGA), with a maximum of 25000000 energy evaluations.

Final-Value: -20.141


	FINAL GENETIC ALGORITHM DOCKED STATE
	_______________________________________________


Detailed state:  trans 0.217 -1.560 -8.678 quatxyzw -0.277404 -0.311460 -0.225974 -0.880327 center 8.287 34.468 -0.670 ntor 10 -95.7939 73.4265 27.2352 8.7566 -76.5939 86.2111 -28.3831 28.0416 -147.7008 -180.0000
State:	  0.217  -1.560  -8.678  -0.585 -0.657 -0.476 -56.636    -95.79   73.43   27.24    8.76  -76.59   86.21  -28.38   28.04 -147.70 -180.00

DOCKED: MODEL       41
DOCKED: USER    Run = 41
DOCKED: USER    DPF = D:/Protein_go_brrr/autodock/final/AncB/heme_O2/dock.dpf
DOCKED: USER  
DOCKED: USER    Estimated Free Energy of Binding    =  -15.62 kcal/mol  [=(1)+(2)+(3)-(4)]
DOCKED: USER    Estimated Inhibition Constant, Ki   =    3.58 pM (picomolar)  [Temperature = 298.15 K]
DOCKED: USER    
DOCKED: USER    (1) Final Intermolecular Energy     =  -18.60 kcal/mol
DOCKED: USER        vdW + Hbond + desolv Energy     =  -15.59 kcal/mol
DOCKED: USER        Electrostatic Energy            =   -3.01 kcal/mol
DOCKED: USER    (2) Final Total Internal Energy     =   -1.54 kcal/mol
DOCKED: USER    (3) Torsional Free Energy           =   +2.98 kcal/mol
DOCKED: USER    (4) Unbound System's Energy  [=(2)] =   -1.54 kcal/mol
DOCKED: USER    
DOCKED: USER    
DOCKED: USER    NEWDPF move heme_O2_opt.pdbqt
DOCKED: USER    NEWDPF about 8.287000 34.468000 -0.670000
DOCKED: USER    NEWDPF tran0 0.217031 -1.559715 -8.678214
DOCKED: USER    NEWDPF quaternion0 -0.277404 -0.311460 -0.225974 -0.880327
DOCKED: USER    NEWDPF axisangle0 -0.584787 -0.656580 -0.476369 -56.636300
DOCKED: USER    NEWDPF quat0 -0.584787 -0.656580 -0.476369 -56.636300
DOCKED: USER    NEWDPF dihe0 -95.79 73.43 27.24 8.76 -76.59 86.21 -28.38 28.04 -147.70 -180.00 
DOCKED: USER  keepresnum = 1 
DOCKED: USER  
DOCKED: REMARK  10 active torsions:
DOCKED: REMARK  status: ('A' for Active; 'I' for Inactive)
DOCKED: REMARK    1  A    between atoms: C_6  and  C_10 
DOCKED: REMARK    2  A    between atoms: C_10  and  C_11 
DOCKED: REMARK    3  A    between atoms: C_11  and  C_12 
DOCKED: REMARK    4  A    between atoms: C_12  and  O_14 
DOCKED: REMARK    5  A    between atoms: C_17  and  C_20 
DOCKED: REMARK    6  A    between atoms: C_24  and  C_27 
DOCKED: REMARK    7  A    between atoms: C_31  and  C_34 
DOCKED: REMARK    8  A    between atoms: C_34  and  C_35 
DOCKED: REMARK    9  A    between atoms: C_35  and  C_36 
DOCKED: REMARK   10  A    between atoms: C_36  and  O_38 
DOCKED: USER                              x       y       z     vdW  Elec       q    Type
DOCKED: USER                           _______ _______ _______ _____ _____    ______ ____
DOCKED: ROOT
DOCKED: ATOM      1  C   UNL d   1      -0.417  -1.194 -10.669 -0.23 +0.04    +0.064 A 
DOCKED: ATOM      2  C   UNL d   1      -2.714  -1.155  -6.512 -0.38 +0.02    +0.064 A 
DOCKED: ATOM      3  C   UNL d   1       1.300  -2.389  -4.177 -0.40 +0.01    +0.064 C 
DOCKED: ATOM      4  C   UNL d   1       3.782  -1.966  -8.387 -0.42 +0.02    +0.064 A 
DOCKED: ATOM      5  C   UNL d   1      -1.369  -1.081  -9.729 -0.30 +0.04    +0.066 A 
DOCKED: ATOM      6  C   UNL d   1      -2.702  -0.758  -9.999 -0.32 -0.02    -0.021 A 
DOCKED: ATOM      7  C   UNL d   1      -3.359  -0.704  -8.792 -0.33 -0.01    -0.025 A 
DOCKED: ATOM      8  C   UNL d   1      -2.420  -1.043  -7.822 -0.36 +0.03    +0.066 A 
DOCKED: ATOM      9  C   UNL d   1      -4.809  -0.312  -8.612 -0.36 +0.02    +0.051 C 
DOCKED: ATOM     10  C   UNL d   1      -1.778  -1.530  -5.451 -0.41 +0.02    +0.066 A 
DOCKED: ATOM     11  C   UNL d   1      -2.172  -1.791  -4.134 -0.49 -0.00    -0.021 A 
DOCKED: ATOM     12  C   UNL d   1      -1.031  -2.166  -3.449 -0.43 +0.00    +0.000 A 
DOCKED: ATOM     13  C   UNL d   1       0.020  -2.099  -4.406 -0.40 +0.01    +0.070 A 
DOCKED: ATOM     14  C   UNL d   1      -3.582  -1.713  -3.560 -0.58 +0.01    +0.052 C 
DOCKED: ATOM     15  C   UNL d   1       2.399  -2.300  -5.108 -0.39 +0.01    +0.066 A 
DOCKED: ATOM     16  C   UNL d   1       3.741  -2.460  -4.765 -0.51 -0.00    -0.021 A 
DOCKED: ATOM     17  C   UNL d   1       4.468  -2.342  -5.949 -0.51 +0.00    +0.000 A 
DOCKED: ATOM     18  C   UNL d   1       3.502  -2.119  -6.940 -0.42 +0.02    +0.070 A 
DOCKED: ATOM     19  C   UNL d   1       4.210  -2.652  -3.344 -0.44 +0.00    +0.052 C 
DOCKED: ATOM     20  C   UNL d   1       2.884  -1.708  -9.358 -0.43 +0.02    +0.066 A 
DOCKED: ATOM     21  C   UNL d   1       3.206  -1.592 -10.707 -0.47 -0.01    -0.025 A 
DOCKED: ATOM     22  C   UNL d   1       2.018  -1.399 -11.376 -0.24 -0.01    -0.021 A 
DOCKED: ATOM     23  C   UNL d   1       1.013  -1.387 -10.404 -0.17 +0.03    +0.066 A 
DOCKED: ATOM     24  C   UNL d   1       4.578  -1.658 -11.327 -0.39 +0.01    +0.051 C 
DOCKED: ATOM     25  N   UNL d   1      -1.179  -1.211  -8.393 -0.22 -0.12    -0.248 N 
DOCKED: ATOM     26  N   UNL d   1      -0.443  -1.707  -5.620 -0.25 -0.06    -0.248 N 
DOCKED: ATOM     27  N   UNL d   1       2.260  -2.022  -6.401 -0.24 -0.07    -0.248 N 
DOCKED: ATOM     28  N   UNL d   1       1.549  -1.530  -9.174 -0.02 -0.14    -0.248 N 
DOCKED: ATOM     29 FE   UNL d   1       0.563  -1.618  -7.409 -0.09 +0.00    +0.000 Fe
DOCKED: ATOM     30  O   UNL d   1       0.013  -0.186  -7.146 -0.32 +0.00    +0.000 OA
DOCKED: ATOM     31  O   UNL d   1       1.562  -0.405  -7.331 -1.07 +0.00    +0.000 OA
DOCKED: ENDROOT
DOCKED: BRANCH   6  32
DOCKED: ATOM     32  C   UNL d   1      -3.309  -0.378 -11.325 -0.26 +0.07    +0.052 C 
DOCKED: BRANCH  32  33
DOCKED: ATOM     33  C   UNL d   1      -2.742   0.923 -11.885 -0.24 +0.13    +0.115 C 
DOCKED: BRANCH  33  34
DOCKED: ATOM     34  C   UNL d   1      -2.734   0.945 -13.393 -0.19 +0.21    +0.139 C 
DOCKED: ATOM     35  O   UNL d   1      -3.163   1.923 -13.985 -0.35 -1.33    -0.650 OA
DOCKED: BRANCH  34  36
DOCKED: ATOM     36  O   UNL d   1      -2.289  -0.108 -14.110 -0.01 -1.59    -0.776 OA
DOCKED: ATOM     37  H   UNL d   1      -1.384  -0.156 -14.439 +0.03 +0.25    +0.167 HD
DOCKED: ENDBRANCH  34  36
DOCKED: ENDBRANCH  33  34
DOCKED: ENDBRANCH  32  33
DOCKED: ENDBRANCH   6  32
DOCKED: BRANCH  22  38
DOCKED: ATOM     38  C   UNL d   1       1.871  -1.176 -12.859 -0.30 +0.02    +0.052 C 
DOCKED: BRANCH  38  39
DOCKED: ATOM     39  C   UNL d   1       2.220   0.253 -13.269 -0.28 +0.05    +0.115 C 
DOCKED: BRANCH  39  40
DOCKED: ATOM     40  C   UNL d   1       1.503   0.684 -14.524 -0.17 +0.08    +0.139 C 
DOCKED: ATOM     41  O   UNL d   1       2.135   1.174 -15.446 +0.06 -0.32    -0.650 OA
DOCKED: BRANCH  40  42
DOCKED: ATOM     42  O   UNL d   1       0.177   0.491 -14.669 +0.07 -0.63    -0.776 OA
DOCKED: ATOM     43  H   UNL d   1      -0.467   1.052 -14.220 +0.05 +0.16    +0.167 HD
DOCKED: ENDBRANCH  40  42
DOCKED: ENDBRANCH  39  40
DOCKED: ENDBRANCH  38  39
DOCKED: ENDBRANCH  22  38
DOCKED: BRANCH  12  44
DOCKED: ATOM     44  C   UNL d   1      -1.060  -2.538  -1.982 -0.49 +0.00    +0.004 C 
DOCKED: ATOM     45  C   UNL d   1      -0.053  -2.511  -1.110 -0.60 +0.00    +0.012 C 
DOCKED: ENDBRANCH  12  44
DOCKED: BRANCH  17  46
DOCKED: ATOM     46  C   UNL d   1       5.952  -2.364  -6.205 -0.66 +0.00    +0.004 C 
DOCKED: ATOM     47  C   UNL d   1       6.942  -2.546  -5.321 -0.65 +0.00    +0.012 C 
DOCKED: ENDBRANCH  17  46
DOCKED: TORSDOF 10
DOCKED: TER
DOCKED: ENDMDL
________________________________________________________________________________


	BEGINNING GENETIC ALGORITHM DOCKING 42 of 100
Run: 42 Seed: 1456130035 1819751001 [ Run 42 of 100 GA/GALS ]
Beginning LAMARCKIAN GENETIC ALGORITHM (LGA), with a maximum of 25000000 energy evaluations.

Final-Value: -20.612


	FINAL GENETIC ALGORITHM DOCKED STATE
	_______________________________________________


Detailed state:  trans 0.265 -1.666 -8.883 quatxyzw -0.287428 -0.277422 -0.225188 -0.888658 center 8.287 34.468 -0.670 ntor 10 31.4557 -179.9946 27.7350 -4.8114 -127.9115 -159.1130 5.9301 78.0877 -164.6461 149.8352
State:	  0.265  -1.666  -8.883  -0.627 -0.605 -0.491 -54.590     31.46 -179.99   27.73   -4.81 -127.91 -159.11    5.93   78.09 -164.65  149.84

DOCKED: MODEL       42
DOCKED: USER    Run = 42
DOCKED: USER    DPF = D:/Protein_go_brrr/autodock/final/AncB/heme_O2/dock.dpf
DOCKED: USER  
DOCKED: USER    Estimated Free Energy of Binding    =  -15.57 kcal/mol  [=(1)+(2)+(3)-(4)]
DOCKED: USER    Estimated Inhibition Constant, Ki   =    3.85 pM (picomolar)  [Temperature = 298.15 K]
DOCKED: USER    
DOCKED: USER    (1) Final Intermolecular Energy     =  -18.56 kcal/mol
DOCKED: USER        vdW + Hbond + desolv Energy     =  -15.62 kcal/mol
DOCKED: USER        Electrostatic Energy            =   -2.94 kcal/mol
DOCKED: USER    (2) Final Total Internal Energy     =   -2.06 kcal/mol
DOCKED: USER    (3) Torsional Free Energy           =   +2.98 kcal/mol
DOCKED: USER    (4) Unbound System's Energy  [=(2)] =   -2.06 kcal/mol
DOCKED: USER    
DOCKED: USER    
DOCKED: USER    NEWDPF move heme_O2_opt.pdbqt
DOCKED: USER    NEWDPF about 8.287000 34.468000 -0.670000
DOCKED: USER    NEWDPF tran0 0.264923 -1.666466 -8.883342
DOCKED: USER    NEWDPF quaternion0 -0.287428 -0.277422 -0.225188 -0.888658
DOCKED: USER    NEWDPF axisangle0 -0.626791 -0.604970 -0.491064 -54.589906
DOCKED: USER    NEWDPF quat0 -0.626791 -0.604970 -0.491064 -54.589906
DOCKED: USER    NEWDPF dihe0 31.46 -179.99 27.73 -4.81 -127.91 -159.11 5.93 78.09 -164.65 149.84 
DOCKED: USER  keepresnum = 1 
DOCKED: USER  
DOCKED: REMARK  10 active torsions:
DOCKED: REMARK  status: ('A' for Active; 'I' for Inactive)
DOCKED: REMARK    1  A    between atoms: C_6  and  C_10 
DOCKED: REMARK    2  A    between atoms: C_10  and  C_11 
DOCKED: REMARK    3  A    between atoms: C_11  and  C_12 
DOCKED: REMARK    4  A    between atoms: C_12  and  O_14 
DOCKED: REMARK    5  A    between atoms: C_17  and  C_20 
DOCKED: REMARK    6  A    between atoms: C_24  and  C_27 
DOCKED: REMARK    7  A    between atoms: C_31  and  C_34 
DOCKED: REMARK    8  A    between atoms: C_34  and  C_35 
DOCKED: REMARK    9  A    between atoms: C_35  and  C_36 
DOCKED: REMARK   10  A    between atoms: C_36  and  O_38 
DOCKED: USER                              x       y       z     vdW  Elec       q    Type
DOCKED: USER                           _______ _______ _______ _____ _____    ______ ____
DOCKED: ROOT
DOCKED: ATOM      1  C   UNL d   1      -0.500  -1.283 -10.824 -0.29 +0.05    +0.064 A 
DOCKED: ATOM      2  C   UNL d   1      -2.499  -1.209  -6.517 -0.41 +0.02    +0.064 A 
DOCKED: ATOM      3  C   UNL d   1       1.644  -2.529  -4.470 -0.43 +0.01    +0.064 C 
DOCKED: ATOM      4  C   UNL d   1       3.833  -2.144  -8.843 -0.42 +0.02    +0.064 A 
DOCKED: ATOM      5  C   UNL d   1      -1.381  -1.154  -9.820 -0.31 +0.04    +0.066 A 
DOCKED: ATOM      6  C   UNL d   1      -2.723  -0.803  -9.996 -0.32 -0.02    -0.021 A 
DOCKED: ATOM      7  C   UNL d   1      -3.292  -0.739  -8.745 -0.33 -0.01    -0.025 A 
DOCKED: ATOM      8  C   UNL d   1      -2.294  -1.100  -7.844 -0.35 +0.03    +0.066 A 
DOCKED: ATOM      9  C   UNL d   1      -4.718  -0.319  -8.464 -0.37 +0.02    +0.051 C 
DOCKED: ATOM     10  C   UNL d   1      -1.498  -1.605  -5.525 -0.40 +0.02    +0.066 A 
DOCKED: ATOM     11  C   UNL d   1      -1.804  -1.862  -4.184 -0.47 -0.00    -0.021 A 
DOCKED: ATOM     12  C   UNL d   1      -0.626  -2.261  -3.581 -0.44 +0.00    +0.000 A 
DOCKED: ATOM     13  C   UNL d   1       0.357  -2.213  -4.608 -0.40 +0.01    +0.070 A 
DOCKED: ATOM     14  C   UNL d   1      -3.168  -1.757  -3.512 -0.62 +0.01    +0.052 C 
DOCKED: ATOM     15  C   UNL d   1       2.676  -2.460  -5.476 -0.41 +0.01    +0.066 A 
DOCKED: ATOM     16  C   UNL d   1       4.036  -2.646  -5.227 -0.51 -0.00    -0.021 A 
DOCKED: ATOM     17  C   UNL d   1       4.680  -2.540  -6.460 -0.52 +0.00    +0.000 A 
DOCKED: ATOM     18  C   UNL d   1       3.651  -2.296  -7.380 -0.43 +0.02    +0.070 A 
DOCKED: ATOM     19  C   UNL d   1       4.598  -2.852  -3.843 -0.33 +0.00    +0.052 C 
DOCKED: ATOM     20  C   UNL d   1       2.875  -1.866  -9.748 -0.45 +0.02    +0.066 A 
DOCKED: ATOM     21  C   UNL d   1       3.103  -1.753 -11.117 -0.45 -0.01    -0.025 A 
DOCKED: ATOM     22  C   UNL d   1       1.875  -1.535 -11.700 +0.04 -0.01    -0.021 A 
DOCKED: ATOM     23  C   UNL d   1       0.942  -1.505 -10.660 -0.16 +0.03    +0.066 A 
DOCKED: ATOM     24  C   UNL d   1       4.427  -1.845 -11.831 -0.47 +0.01    +0.051 C 
DOCKED: ATOM     25  N   UNL d   1      -1.101  -1.291  -8.500 -0.03 -0.12    -0.248 N 
DOCKED: ATOM     26  N   UNL d   1      -0.182  -1.808  -5.787 -0.25 -0.07    -0.248 N 
DOCKED: ATOM     27  N   UNL d   1       2.452  -2.175  -6.755 -0.23 -0.08    -0.248 N 
DOCKED: ATOM     28  N   UNL d   1       1.560  -1.662  -9.471 -0.16 -0.13    -0.248 N 
DOCKED: ATOM     29 FE   UNL d   1       0.698  -1.735  -7.641 -0.09 +0.00    +0.000 Fe
DOCKED: ATOM     30  O   UNL d   1       0.196  -0.293  -7.339 -0.79 +0.00    +0.000 OA
DOCKED: ATOM     31  O   UNL d   1       1.723  -0.542  -7.633 -1.06 +0.00    +0.000 OA
DOCKED: ENDROOT
DOCKED: BRANCH   6  32
DOCKED: ATOM     32  C   UNL d   1      -3.413  -0.408 -11.275 -0.26 +0.06    +0.052 C 
DOCKED: BRANCH  32  33
DOCKED: ATOM     33  C   UNL d   1      -3.171   1.050 -11.653 -0.19 +0.13    +0.115 C 
DOCKED: BRANCH  33  34
DOCKED: ATOM     34  C   UNL d   1      -3.938   1.459 -12.886 -0.11 +0.21    +0.139 C 
DOCKED: ATOM     35  O   UNL d   1      -5.117   1.763 -12.791 -0.04 -0.86    -0.650 OA
DOCKED: BRANCH  34  36
DOCKED: ATOM     36  O   UNL d   1      -3.358   1.472 -14.104 -0.30 -1.33    -0.776 OA
DOCKED: ATOM     37  H   UNL d   1      -2.660   0.851 -14.344 +0.03 +0.26    +0.167 HD
DOCKED: ENDBRANCH  34  36
DOCKED: ENDBRANCH  33  34
DOCKED: ENDBRANCH  32  33
DOCKED: ENDBRANCH   6  32
DOCKED: BRANCH  22  38
DOCKED: ATOM     38  C   UNL d   1       1.629  -1.305 -13.169 -0.16 +0.03    +0.052 C 
DOCKED: BRANCH  38  39
DOCKED: ATOM     39  C   UNL d   1       1.254   0.143 -13.476 -0.21 +0.07    +0.115 C 
DOCKED: BRANCH  39  40
DOCKED: ATOM     40  C   UNL d   1      -0.224   0.315 -13.726 -0.16 +0.13    +0.139 C 
DOCKED: ATOM     41  O   UNL d   1      -0.921  -0.665 -13.933 -0.11 -0.93    -0.650 OA
DOCKED: BRANCH  40  42
DOCKED: ATOM     42  O   UNL d   1      -0.802   1.531 -13.675 +0.04 -0.83    -0.776 OA
DOCKED: ATOM     43  H   UNL d   1      -1.752   1.643 -13.795 +0.04 +0.23    +0.167 HD
DOCKED: ENDBRANCH  40  42
DOCKED: ENDBRANCH  39  40
DOCKED: ENDBRANCH  38  39
DOCKED: ENDBRANCH  22  38
DOCKED: BRANCH  12  44
DOCKED: ATOM     44  C   UNL d   1      -0.560  -2.637  -2.115 -0.42 +0.00    +0.004 C 
DOCKED: ATOM     45  C   UNL d   1       0.505  -2.623  -1.313 -0.62 +0.00    +0.012 C 
DOCKED: ENDBRANCH  12  44
DOCKED: BRANCH  17  46
DOCKED: ATOM     46  C   UNL d   1       6.141  -2.591  -6.819 -0.60 +0.00    +0.004 C 
DOCKED: ATOM     47  C   UNL d   1       7.198  -2.547  -5.997 -0.68 +0.00    +0.012 C 
DOCKED: ENDBRANCH  17  46
DOCKED: TORSDOF 10
DOCKED: TER
DOCKED: ENDMDL
________________________________________________________________________________


	BEGINNING GENETIC ALGORITHM DOCKING 43 of 100
Run: 43 Seed: 1430887986 1853728619 [ Run 43 of 100 GA/GALS ]
Beginning LAMARCKIAN GENETIC ALGORITHM (LGA), with a maximum of 25000000 energy evaluations.

Final-Value: -11.582


	FINAL GENETIC ALGORITHM DOCKED STATE
	_______________________________________________


Detailed state:  trans -9.450 -19.071 10.429 quatxyzw -0.224365 -0.739037 0.000657 -0.635203 center 8.287 34.468 -0.670 ntor 10 -99.1860 -50.3409 53.2369 -102.6828 56.1769 133.7423 -129.6188 -91.9611 169.4779 118.0552
State:	 -9.450 -19.071  10.429  -0.290 -0.957  0.001 -101.130    -99.19  -50.34   53.24 -102.68   56.18  133.74 -129.62  -91.96  169.48  118.06

DOCKED: MODEL       43
DOCKED: USER    Run = 43
DOCKED: USER    DPF = D:/Protein_go_brrr/autodock/final/AncB/heme_O2/dock.dpf
DOCKED: USER  
DOCKED: USER    Estimated Free Energy of Binding    =   -7.54 kcal/mol  [=(1)+(2)+(3)-(4)]
DOCKED: USER    Estimated Inhibition Constant, Ki   =    2.97 uM (micromolar)  [Temperature = 298.15 K]
DOCKED: USER    
DOCKED: USER    (1) Final Intermolecular Energy     =  -10.52 kcal/mol
DOCKED: USER        vdW + Hbond + desolv Energy     =   -5.29 kcal/mol
DOCKED: USER        Electrostatic Energy            =   -5.23 kcal/mol
DOCKED: USER    (2) Final Total Internal Energy     =   -1.06 kcal/mol
DOCKED: USER    (3) Torsional Free Energy           =   +2.98 kcal/mol
DOCKED: USER    (4) Unbound System's Energy  [=(2)] =   -1.06 kcal/mol
DOCKED: USER    
DOCKED: USER    
DOCKED: USER    NEWDPF move heme_O2_opt.pdbqt
DOCKED: USER    NEWDPF about 8.287000 34.468000 -0.670000
DOCKED: USER    NEWDPF tran0 -9.450130 -19.070793 10.429325
DOCKED: USER    NEWDPF quaternion0 -0.224365 -0.739037 0.000657 -0.635203
DOCKED: USER    NEWDPF axisangle0 -0.290499 -0.956875 0.000851 -101.129847
DOCKED: USER    NEWDPF quat0 -0.290499 -0.956875 0.000851 -101.129847
DOCKED: USER    NEWDPF dihe0 -99.19 -50.34 53.24 -102.68 56.18 133.74 -129.62 -91.96 169.48 118.06 
DOCKED: USER  keepresnum = 1 
DOCKED: USER  
DOCKED: REMARK  10 active torsions:
DOCKED: REMARK  status: ('A' for Active; 'I' for Inactive)
DOCKED: REMARK    1  A    between atoms: C_6  and  C_10 
DOCKED: REMARK    2  A    between atoms: C_10  and  C_11 
DOCKED: REMARK    3  A    between atoms: C_11  and  C_12 
DOCKED: REMARK    4  A    between atoms: C_12  and  O_14 
DOCKED: REMARK    5  A    between atoms: C_17  and  C_20 
DOCKED: REMARK    6  A    between atoms: C_24  and  C_27 
DOCKED: REMARK    7  A    between atoms: C_31  and  C_34 
DOCKED: REMARK    8  A    between atoms: C_34  and  C_35 
DOCKED: REMARK    9  A    between atoms: C_35  and  C_36 
DOCKED: REMARK   10  A    between atoms: C_36  and  O_38 
DOCKED: USER                              x       y       z     vdW  Elec       q    Type
DOCKED: USER                           _______ _______ _______ _____ _____    ______ ____
DOCKED: ROOT
DOCKED: ATOM      1  C   UNL d   1      -8.327 -19.378   8.656 -0.03 +0.09    +0.064 A 
DOCKED: ATOM      2  C   UNL d   1     -12.819 -20.387   9.824 -0.04 +0.03    +0.064 A 
DOCKED: ATOM      3  C   UNL d   1     -12.171 -18.598  14.237 -0.09 +0.02    +0.064 C 
DOCKED: ATOM      4  C   UNL d   1      -7.691 -17.121  12.892 -0.08 +0.03    +0.064 A 
DOCKED: ATOM      5  C   UNL d   1      -9.602 -19.797   8.613 +0.02 +0.09    +0.066 A 
DOCKED: ATOM      6  C   UNL d   1     -10.188 -20.409   7.501 -0.05 -0.02    -0.021 A 
DOCKED: ATOM      7  C   UNL d   1     -11.501 -20.662   7.823 -0.05 -0.02    -0.025 A 
DOCKED: ATOM      8  C   UNL d   1     -11.668 -20.242   9.140 -0.07 +0.05    +0.066 A 
DOCKED: ATOM      9  C   UNL d   1     -12.525 -21.252   6.878 -0.03 +0.03    +0.051 C 
DOCKED: ATOM     10  C   UNL d   1     -13.047 -19.987  11.213 -0.04 +0.03    +0.066 A 
DOCKED: ATOM     11  C   UNL d   1     -14.208 -20.309  11.925 -0.02 -0.01    -0.021 A 
DOCKED: ATOM     12  C   UNL d   1     -14.033 -19.817  13.206 -0.04 +0.00    +0.000 A 
DOCKED: ATOM     13  C   UNL d   1     -12.752 -19.199  13.198 -0.07 +0.02    +0.070 A 
DOCKED: ATOM     14  C   UNL d   1     -15.421 -21.077  11.414 -0.01 +0.01    +0.052 C 
DOCKED: ATOM     15  C   UNL d   1     -10.892 -17.930  14.260 -0.09 +0.02    +0.066 A 
DOCKED: ATOM     16  C   UNL d   1     -10.413 -17.179  15.332 -0.09 -0.00    -0.021 A 
DOCKED: ATOM     17  C   UNL d   1      -9.137 -16.746  14.971 -0.09 +0.00    +0.000 A 
DOCKED: ATOM     18  C   UNL d   1      -8.930 -17.276  13.690 -0.09 +0.03    +0.070 A 
DOCKED: ATOM     19  C   UNL d   1     -11.228 -16.897  16.569 -0.08 +0.01    +0.052 C 
DOCKED: ATOM     20  C   UNL d   1      -7.475 -17.579  11.643 -0.09 +0.05    +0.066 A 
DOCKED: ATOM     21  C   UNL d   1      -6.280 -17.418  10.948 -0.06 -0.02    -0.025 A 
DOCKED: ATOM     22  C   UNL d   1      -6.434 -18.078   9.750 -0.06 -0.02    -0.021 A 
DOCKED: ATOM     23  C   UNL d   1      -7.729 -18.604   9.751 -0.06 +0.08    +0.066 A 
DOCKED: ATOM     24  C   UNL d   1      -5.054 -16.668  11.403 -0.02 +0.02    +0.051 C 
DOCKED: ATOM     25  N   UNL d   1     -10.516 -19.650   9.604 -0.07 -0.29    -0.248 N 
DOCKED: ATOM     26  N   UNL d   1     -12.161 -19.303  11.980 -0.06 -0.12    -0.248 N 
DOCKED: ATOM     27  N   UNL d   1     -10.034 -17.927  13.244 -0.08 -0.12    -0.248 N 
DOCKED: ATOM     28  N   UNL d   1      -8.374 -18.260  10.884 -0.09 -0.27    -0.248 N 
DOCKED: ATOM     29 FE   UNL d   1     -10.254 -18.776  11.431 -0.02 +0.00    +0.000 Fe
DOCKED: ATOM     30  O   UNL d   1     -11.212 -17.989  10.490 -0.71 +0.00    +0.000 OA
DOCKED: ATOM     31  O   UNL d   1     -10.187 -17.205  11.394 -0.97 +0.00    +0.000 OA
DOCKED: ENDROOT
DOCKED: BRANCH   6  32
DOCKED: ATOM     32  C   UNL d   1      -9.580 -20.624   6.139 -0.03 +0.05    +0.052 C 
DOCKED: BRANCH  32  33
DOCKED: ATOM     33  C   UNL d   1     -10.158 -19.692   5.079 -0.06 +0.13    +0.115 C 
DOCKED: BRANCH  33  34
DOCKED: ATOM     34  C   UNL d   1     -10.196 -18.255   5.536 +0.00 +0.27    +0.139 C 
DOCKED: ATOM     35  O   UNL d   1     -11.216 -17.807   6.036 -0.31 -1.29    -0.650 OA
DOCKED: BRANCH  34  36
DOCKED: ATOM     36  O   UNL d   1      -9.134 -17.438   5.379 -0.24 -2.28    -0.776 OA
DOCKED: ATOM     37  H   UNL d   1      -8.518 -17.257   6.099 +0.02 +0.53    +0.167 HD
DOCKED: ENDBRANCH  34  36
DOCKED: ENDBRANCH  33  34
DOCKED: ENDBRANCH  32  33
DOCKED: ENDBRANCH   6  32
DOCKED: BRANCH  22  38
DOCKED: ATOM     38  C   UNL d   1      -5.412 -18.141   8.644 -0.03 +0.04    +0.052 C 
DOCKED: BRANCH  38  39
DOCKED: ATOM     39  C   UNL d   1      -6.044 -18.016   7.260 -0.06 +0.15    +0.115 C 
DOCKED: BRANCH  39  40
DOCKED: ATOM     40  C   UNL d   1      -6.205 -16.581   6.826 -0.08 +0.26    +0.139 C 
DOCKED: ATOM     41  O   UNL d   1      -7.159 -15.931   7.222 -0.53 -1.63    -0.650 OA
DOCKED: BRANCH  40  42
DOCKED: ATOM     42  O   UNL d   1      -5.283 -15.982   6.048 -0.49 -1.35    -0.776 OA
DOCKED: ATOM     43  H   UNL d   1      -4.340 -16.042   6.244 +0.04 +0.17    +0.167 HD
DOCKED: ENDBRANCH  40  42
DOCKED: ENDBRANCH  39  40
DOCKED: ENDBRANCH  38  39
DOCKED: ENDBRANCH  22  38
DOCKED: BRANCH  12  44
DOCKED: ATOM     44  C   UNL d   1     -15.086 -19.981  14.281 -0.01 +0.00    +0.004 C 
DOCKED: ATOM     45  C   UNL d   1     -15.581 -19.047  15.092 -0.02 +0.00    +0.012 C 
DOCKED: ENDBRANCH  12  44
DOCKED: BRANCH  17  46
DOCKED: ATOM     46  C   UNL d   1      -8.155 -15.858  15.688 -0.06 +0.00    +0.004 C 
DOCKED: ATOM     47  C   UNL d   1      -7.785 -14.610  15.374 -0.10 +0.00    +0.012 C 
DOCKED: ENDBRANCH  17  46
DOCKED: TORSDOF 10
DOCKED: TER
DOCKED: ENDMDL
________________________________________________________________________________


	BEGINNING GENETIC ALGORITHM DOCKING 44 of 100
Run: 44 Seed: 2119383778 2006704716 [ Run 44 of 100 GA/GALS ]
Beginning LAMARCKIAN GENETIC ALGORITHM (LGA), with a maximum of 25000000 energy evaluations.

Final-Value: -11.465


	FINAL GENETIC ALGORITHM DOCKED STATE
	_______________________________________________


Detailed state:  trans -7.164 -1.361 -12.381 quatxyzw 0.039061 -0.271407 0.686963 0.672974 center 8.287 34.468 -0.670 ntor 10 76.4714 135.8636 -100.4596 -110.5989 -104.1632 -51.0002 -59.1143 132.8422 28.8494 -175.5990
State:	 -7.164  -1.361 -12.381   0.053 -0.367  0.929 95.406     76.47  135.86 -100.46 -110.60 -104.16  -51.00  -59.11  132.84   28.85 -175.60

DOCKED: MODEL       44
DOCKED: USER    Run = 44
DOCKED: USER    DPF = D:/Protein_go_brrr/autodock/final/AncB/heme_O2/dock.dpf
DOCKED: USER  
DOCKED: USER    Estimated Free Energy of Binding    =   -7.79 kcal/mol  [=(1)+(2)+(3)-(4)]
DOCKED: USER    Estimated Inhibition Constant, Ki   =    1.96 uM (micromolar)  [Temperature = 298.15 K]
DOCKED: USER    
DOCKED: USER    (1) Final Intermolecular Energy     =  -10.77 kcal/mol
DOCKED: USER        vdW + Hbond + desolv Energy     =   -8.06 kcal/mol
DOCKED: USER        Electrostatic Energy            =   -2.70 kcal/mol
DOCKED: USER    (2) Final Total Internal Energy     =   -0.70 kcal/mol
DOCKED: USER    (3) Torsional Free Energy           =   +2.98 kcal/mol
DOCKED: USER    (4) Unbound System's Energy  [=(2)] =   -0.70 kcal/mol
DOCKED: USER    
DOCKED: USER    
DOCKED: USER    NEWDPF move heme_O2_opt.pdbqt
DOCKED: USER    NEWDPF about 8.287000 34.468000 -0.670000
DOCKED: USER    NEWDPF tran0 -7.163895 -1.360770 -12.381214
DOCKED: USER    NEWDPF quaternion0 0.039061 -0.271407 0.686963 0.672974
DOCKED: USER    NEWDPF axisangle0 0.052809 -0.366932 0.928748 95.405961
DOCKED: USER    NEWDPF quat0 0.052809 -0.366932 0.928748 95.405961
DOCKED: USER    NEWDPF dihe0 76.47 135.86 -100.46 -110.60 -104.16 -51.00 -59.11 132.84 28.85 -175.60 
DOCKED: USER  keepresnum = 1 
DOCKED: USER  
DOCKED: REMARK  10 active torsions:
DOCKED: REMARK  status: ('A' for Active; 'I' for Inactive)
DOCKED: REMARK    1  A    between atoms: C_6  and  C_10 
DOCKED: REMARK    2  A    between atoms: C_10  and  C_11 
DOCKED: REMARK    3  A    between atoms: C_11  and  C_12 
DOCKED: REMARK    4  A    between atoms: C_12  and  O_14 
DOCKED: REMARK    5  A    between atoms: C_17  and  C_20 
DOCKED: REMARK    6  A    between atoms: C_24  and  C_27 
DOCKED: REMARK    7  A    between atoms: C_31  and  C_34 
DOCKED: REMARK    8  A    between atoms: C_34  and  C_35 
DOCKED: REMARK    9  A    between atoms: C_35  and  C_36 
DOCKED: REMARK   10  A    between atoms: C_36  and  O_38 
DOCKED: USER                              x       y       z     vdW  Elec       q    Type
DOCKED: USER                           _______ _______ _______ _____ _____    ______ ____
DOCKED: ROOT
DOCKED: ATOM      1  C   UNL d   1      -6.785   0.696 -12.734 -0.06 +0.05    +0.064 A 
DOCKED: ATOM      2  C   UNL d   1      -7.802  -1.747  -8.791 -0.18 +0.02    +0.064 A 
DOCKED: ATOM      3  C   UNL d   1      -8.121  -5.836 -11.296 -0.26 +0.03    +0.064 C 
DOCKED: ATOM      4  C   UNL d   1      -6.605  -3.415 -15.284 -0.08 +0.08    +0.064 A 
DOCKED: ATOM      5  C   UNL d   1      -7.034   0.365 -11.457 -0.07 +0.04    +0.066 A 
DOCKED: ATOM      6  C   UNL d   1      -7.062   1.281 -10.402 -0.15 -0.01    -0.021 A 
DOCKED: ATOM      7  C   UNL d   1      -7.314   0.569  -9.253 -0.19 -0.01    -0.025 A 
DOCKED: ATOM      8  C   UNL d   1      -7.480  -0.757  -9.645 -0.12 +0.03    +0.066 A 
DOCKED: ATOM      9  C   UNL d   1      -7.356   1.158  -7.860 -0.24 +0.01    +0.051 C 
DOCKED: ATOM     10  C   UNL d   1      -8.012  -3.152  -9.146 -0.20 +0.03    +0.066 A 
DOCKED: ATOM     11  C   UNL d   1      -8.505  -4.107  -8.250 -0.33 -0.01    -0.021 A 
DOCKED: ATOM     12  C   UNL d   1      -8.621  -5.288  -8.958 -0.40 +0.00    +0.000 A 
DOCKED: ATOM     13  C   UNL d   1      -8.171  -4.983 -10.273 -0.30 +0.03    +0.070 A 
DOCKED: ATOM     14  C   UNL d   1      -8.875  -3.895  -6.787 -0.45 +0.01    +0.052 C 
DOCKED: ATOM     15  C   UNL d   1      -7.639  -5.576 -12.631 -0.25 +0.04    +0.066 A 
DOCKED: ATOM     16  C   UNL d   1      -7.459  -6.552 -13.610 -0.25 -0.01    -0.021 A 
DOCKED: ATOM     17  C   UNL d   1      -7.026  -5.885 -14.757 -0.17 +0.00    +0.000 A 
DOCKED: ATOM     18  C   UNL d   1      -6.976  -4.534 -14.386 -0.13 +0.07    +0.070 A 
DOCKED: ATOM     19  C   UNL d   1      -7.660  -8.024 -13.352 -0.28 +0.02    +0.052 C 
DOCKED: ATOM     20  C   UNL d   1      -6.505  -2.114 -14.950 -0.04 +0.09    +0.066 A 
DOCKED: ATOM     21  C   UNL d   1      -6.168  -1.102 -15.844 -0.05 -0.03    -0.025 A 
DOCKED: ATOM     22  C   UNL d   1      -6.241   0.079 -15.142 -0.05 -0.02    -0.021 A 
DOCKED: ATOM     23  C   UNL d   1      -6.604  -0.258 -13.834 -0.06 +0.07    +0.066 A 
DOCKED: ATOM     24  C   UNL d   1      -5.792  -1.256 -17.295 -0.03 +0.04    +0.051 C 
DOCKED: ATOM     25  N   UNL d   1      -7.243  -0.892 -10.993 -0.04 -0.15    -0.248 N 
DOCKED: ATOM     26  N   UNL d   1      -7.798  -3.682 -10.377 -0.13 -0.13    -0.248 N 
DOCKED: ATOM     27  N   UNL d   1      -7.279  -4.374 -13.072 -0.11 -0.21    -0.248 N 
DOCKED: ATOM     28  N   UNL d   1      -6.719  -1.597 -13.711 -0.06 -0.30    -0.248 N 
DOCKED: ATOM     29 FE   UNL d   1      -7.254  -2.634 -12.058 -0.03 +0.00    +0.000 Fe
DOCKED: ATOM     30  O   UNL d   1      -6.063  -2.513 -11.064 -0.20 +0.00    +0.000 OA
DOCKED: ATOM     31  O   UNL d   1      -5.829  -3.139 -12.490 -0.28 +0.00    +0.000 OA
DOCKED: ENDROOT
DOCKED: BRANCH   6  32
DOCKED: ATOM     32  C   UNL d   1      -6.730   2.750 -10.446 -0.11 +0.03    +0.052 C 
DOCKED: BRANCH  32  33
DOCKED: ATOM     33  C   UNL d   1      -7.944   3.640 -10.197 -0.17 +0.05    +0.115 C 
DOCKED: BRANCH  33  34
DOCKED: ATOM     34  C   UNL d   1      -7.784   4.502  -8.970 -0.26 +0.05    +0.139 C 
DOCKED: ATOM     35  O   UNL d   1      -7.543   5.692  -9.096 -0.05 -0.26    -0.650 OA
DOCKED: BRANCH  34  36
DOCKED: ATOM     36  O   UNL d   1      -7.872   3.982  -7.728 -0.01 -0.20    -0.776 OA
DOCKED: ATOM     37  H   UNL d   1      -7.153   3.474  -7.335 -0.47 +0.02    +0.167 HD
DOCKED: ENDBRANCH  34  36
DOCKED: ENDBRANCH  33  34
DOCKED: ENDBRANCH  32  33
DOCKED: ENDBRANCH   6  32
DOCKED: BRANCH  22  38
DOCKED: ATOM     38  C   UNL d   1      -5.915   1.446 -15.686 -0.05 +0.05    +0.052 C 
DOCKED: BRANCH  38  39
DOCKED: ATOM     39  C   UNL d   1      -4.414   1.660 -15.864 -0.06 +0.15    +0.115 C 
DOCKED: BRANCH  39  40
DOCKED: ATOM     40  C   UNL d   1      -3.626   1.256 -14.643 -0.11 +0.23    +0.139 C 
DOCKED: ATOM     41  O   UNL d   1      -3.159   0.131 -14.567 -0.23 -1.28    -0.650 OA
DOCKED: BRANCH  40  42
DOCKED: ATOM     42  O   UNL d   1      -3.382   2.134 -13.650 -0.27 -1.64    -0.776 OA
DOCKED: ATOM     43  H   UNL d   1      -3.441   1.876 -12.723 +0.04 +0.27    +0.167 HD
DOCKED: ENDBRANCH  40  42
DOCKED: ENDBRANCH  39  40
DOCKED: ENDBRANCH  38  39
DOCKED: ENDBRANCH  22  38
DOCKED: BRANCH  12  44
DOCKED: ATOM     44  C   UNL d   1      -9.135  -6.562  -8.320 -0.38 +0.00    +0.004 C 
DOCKED: ATOM     45  C   UNL d   1     -10.392  -6.869  -8.004 -0.42 +0.00    +0.012 C 
DOCKED: ENDBRANCH  12  44
DOCKED: BRANCH  17  46
DOCKED: ATOM     46  C   UNL d   1      -6.614  -6.407 -16.107 -0.17 +0.00    +0.004 C 
DOCKED: ATOM     47  C   UNL d   1      -5.419  -6.311 -16.704 -0.17 +0.02    +0.012 C 
DOCKED: ENDBRANCH  17  46
DOCKED: TORSDOF 10
DOCKED: TER
DOCKED: ENDMDL
________________________________________________________________________________


	BEGINNING GENETIC ALGORITHM DOCKING 45 of 100
Run: 45 Seed: 1184522523 1378888255 [ Run 45 of 100 GA/GALS ]
Beginning LAMARCKIAN GENETIC ALGORITHM (LGA), with a maximum of 25000000 energy evaluations.

Final-Value: -13.061


	FINAL GENETIC ALGORITHM DOCKED STATE
	_______________________________________________


Detailed state:  trans -2.048 -13.370 7.911 quatxyzw -0.639506 -0.054078 0.246137 -0.726309 center 8.287 34.468 -0.670 ntor 10 -144.2961 38.2774 114.2446 -94.3803 66.4669 58.7588 -76.4030 29.9191 -157.5782 -170.9651
State:	 -2.048 -13.370   7.911  -0.930 -0.079  0.358 -86.844   -144.30   38.28  114.24  -94.38   66.47   58.76  -76.40   29.92 -157.58 -170.97

DOCKED: MODEL       45
DOCKED: USER    Run = 45
DOCKED: USER    DPF = D:/Protein_go_brrr/autodock/final/AncB/heme_O2/dock.dpf
DOCKED: USER  
DOCKED: USER    Estimated Free Energy of Binding    =   -8.11 kcal/mol  [=(1)+(2)+(3)-(4)]
DOCKED: USER    Estimated Inhibition Constant, Ki   =    1.13 uM (micromolar)  [Temperature = 298.15 K]
DOCKED: USER    
DOCKED: USER    (1) Final Intermolecular Energy     =  -11.09 kcal/mol
DOCKED: USER        vdW + Hbond + desolv Energy     =   -5.84 kcal/mol
DOCKED: USER        Electrostatic Energy            =   -5.25 kcal/mol
DOCKED: USER    (2) Final Total Internal Energy     =   -1.97 kcal/mol
DOCKED: USER    (3) Torsional Free Energy           =   +2.98 kcal/mol
DOCKED: USER    (4) Unbound System's Energy  [=(2)] =   -1.97 kcal/mol
DOCKED: USER    
DOCKED: USER    
DOCKED: USER    NEWDPF move heme_O2_opt.pdbqt
DOCKED: USER    NEWDPF about 8.287000 34.468000 -0.670000
DOCKED: USER    NEWDPF tran0 -2.047903 -13.370295 7.911210
DOCKED: USER    NEWDPF quaternion0 -0.639506 -0.054078 0.246137 -0.726309
DOCKED: USER    NEWDPF axisangle0 -0.930368 -0.078674 0.358086 -86.844309
DOCKED: USER    NEWDPF quat0 -0.930368 -0.078674 0.358086 -86.844309
DOCKED: USER    NEWDPF dihe0 -144.30 38.28 114.24 -94.38 66.47 58.76 -76.40 29.92 -157.58 -170.97 
DOCKED: USER  keepresnum = 1 
DOCKED: USER  
DOCKED: REMARK  10 active torsions:
DOCKED: REMARK  status: ('A' for Active; 'I' for Inactive)
DOCKED: REMARK    1  A    between atoms: C_6  and  C_10 
DOCKED: REMARK    2  A    between atoms: C_10  and  C_11 
DOCKED: REMARK    3  A    between atoms: C_11  and  C_12 
DOCKED: REMARK    4  A    between atoms: C_12  and  O_14 
DOCKED: REMARK    5  A    between atoms: C_17  and  C_20 
DOCKED: REMARK    6  A    between atoms: C_24  and  C_27 
DOCKED: REMARK    7  A    between atoms: C_31  and  C_34 
DOCKED: REMARK    8  A    between atoms: C_34  and  C_35 
DOCKED: REMARK    9  A    between atoms: C_35  and  C_36 
DOCKED: REMARK   10  A    between atoms: C_36  and  O_38 
DOCKED: USER                              x       y       z     vdW  Elec       q    Type
DOCKED: USER                           _______ _______ _______ _____ _____    ______ ____
DOCKED: ROOT
DOCKED: ATOM      1  C   UNL d   1      -3.539 -14.853   7.637 -0.05 +0.04    +0.064 A 
DOCKED: ATOM      2  C   UNL d   1      -3.185 -11.173  10.618 -0.15 +0.02    +0.064 A 
DOCKED: ATOM      3  C   UNL d   1       1.110 -10.002   8.809 +0.05 +0.01    +0.064 C 
DOCKED: ATOM      4  C   UNL d   1       0.543 -13.498   5.414 -0.10 +0.02    +0.064 A 
DOCKED: ATOM      5  C   UNL d   1      -3.794 -13.947   8.594 -0.06 +0.03    +0.066 A 
DOCKED: ATOM      6  C   UNL d   1      -4.945 -13.949   9.387 -0.13 -0.01    -0.021 A 
DOCKED: ATOM      7  C   UNL d   1      -4.864 -12.858  10.221 -0.16 -0.01    -0.025 A 
DOCKED: ATOM      8  C   UNL d   1      -3.643 -12.248   9.948 -0.11 +0.02    +0.066 A 
DOCKED: ATOM      9  C   UNL d   1      -5.938 -12.435  11.199 -0.26 +0.03    +0.051 C 
DOCKED: ATOM     10  C   UNL d   1      -1.904 -10.504  10.392 -0.16 +0.01    +0.066 A 
DOCKED: ATOM     11  C   UNL d   1      -1.405  -9.495  11.224 -0.20 -0.00    -0.021 A 
DOCKED: ATOM     12  C   UNL d   1      -0.159  -9.156  10.729 -0.16 +0.00    +0.000 A 
DOCKED: ATOM     13  C   UNL d   1       0.031  -9.988   9.591 +0.04 +0.01    +0.070 A 
DOCKED: ATOM     14  C   UNL d   1      -2.078  -8.898  12.455 -0.19 +0.01    +0.052 C 
DOCKED: ATOM     15  C   UNL d   1       1.327 -10.803   7.629 -0.12 +0.01    +0.066 A 
DOCKED: ATOM     16  C   UNL d   1       2.407 -10.655   6.760 -0.13 -0.00    -0.021 A 
DOCKED: ATOM     17  C   UNL d   1       2.266 -11.640   5.783 -0.12 +0.00    +0.000 A 
DOCKED: ATOM     18  C   UNL d   1       1.096 -12.327   6.135 -0.12 +0.01    +0.070 A 
DOCKED: ATOM     19  C   UNL d   1       3.436  -9.562   6.906 -0.15 +0.01    +0.052 C 
DOCKED: ATOM     20  C   UNL d   1      -0.600 -14.152   5.700 -0.05 +0.02    +0.066 A 
DOCKED: ATOM     21  C   UNL d   1      -1.061 -15.261   4.995 -0.04 -0.01    -0.025 A 
DOCKED: ATOM     22  C   UNL d   1      -2.209 -15.677   5.631 -0.06 -0.01    -0.021 A 
DOCKED: ATOM     23  C   UNL d   1      -2.416 -14.793   6.694 -0.06 +0.03    +0.066 A 
DOCKED: ATOM     24  C   UNL d   1      -0.439 -15.889   3.774 -0.09 +0.02    +0.051 C 
DOCKED: ATOM     25  N   UNL d   1      -3.015 -12.881   8.901 -0.04 -0.08    -0.248 N 
DOCKED: ATOM     26  N   UNL d   1      -1.037 -10.802   9.391 -0.09 -0.05    -0.248 N 
DOCKED: ATOM     27  N   UNL d   1       0.499 -11.758   7.214 -0.09 -0.04    -0.248 N 
DOCKED: ATOM     28  N   UNL d   1      -1.461 -13.841   6.705 -0.06 -0.07    -0.248 N 
DOCKED: ATOM     29 FE   UNL d   1      -1.248 -12.331   8.036 -0.03 +0.00    +0.000 Fe
DOCKED: ATOM     30  O   UNL d   1      -2.417 -11.341   7.762 -0.35 +0.00    +0.000 OA
DOCKED: ATOM     31  O   UNL d   1      -1.398 -11.685   6.611 -0.33 +0.00    +0.000 OA
DOCKED: ENDROOT
DOCKED: BRANCH   6  32
DOCKED: ATOM     32  C   UNL d   1      -6.142 -14.857   9.275 -0.21 +0.05    +0.052 C 
DOCKED: BRANCH  32  33
DOCKED: ATOM     33  C   UNL d   1      -7.026 -14.528   8.076 -0.02 +0.16    +0.115 C 
DOCKED: BRANCH  33  34
DOCKED: ATOM     34  C   UNL d   1      -6.802 -15.470   6.920 -0.03 +0.31    +0.139 C 
DOCKED: ATOM     35  O   UNL d   1      -5.892 -15.257   6.135 -0.38 -1.40    -0.650 OA
DOCKED: BRANCH  34  36
DOCKED: ATOM     36  O   UNL d   1      -7.606 -16.535   6.714 -0.19 -2.37    -0.776 OA
DOCKED: ATOM     37  H   UNL d   1      -7.267 -17.373   6.379 +0.02 +0.42    +0.167 HD
DOCKED: ENDBRANCH  34  36
DOCKED: ENDBRANCH  33  34
DOCKED: ENDBRANCH  32  33
DOCKED: ENDBRANCH   6  32
DOCKED: BRANCH  22  38
DOCKED: ATOM     38  C   UNL d   1      -3.087 -16.822   5.197 -0.06 +0.04    +0.052 C 
DOCKED: BRANCH  38  39
DOCKED: ATOM     39  C   UNL d   1      -3.827 -16.527   3.894 -0.16 +0.12    +0.115 C 
DOCKED: BRANCH  39  40
DOCKED: ATOM     40  C   UNL d   1      -5.143 -17.257   3.800 +0.03 +0.28    +0.139 C 
DOCKED: ATOM     41  O   UNL d   1      -5.637 -17.477   2.706 -0.38 -1.62    -0.650 OA
DOCKED: BRANCH  40  42
DOCKED: ATOM     42  O   UNL d   1      -5.763 -17.719   4.903 +0.04 -1.57    -0.776 OA
DOCKED: ATOM     43  H   UNL d   1      -5.798 -17.201   5.717 +0.02 +0.34    +0.167 HD
DOCKED: ENDBRANCH  40  42
DOCKED: ENDBRANCH  39  40
DOCKED: ENDBRANCH  38  39
DOCKED: ENDBRANCH  22  38
DOCKED: BRANCH  12  44
DOCKED: ATOM     44  C   UNL d   1       0.702  -8.093  11.379 -0.21 +0.00    +0.004 C 
DOCKED: ATOM     45  C   UNL d   1       0.499  -6.776  11.401 -0.34 +0.00    +0.012 C 
DOCKED: ENDBRANCH  12  44
DOCKED: BRANCH  17  46
DOCKED: ATOM     46  C   UNL d   1       3.084 -11.939   4.555 -0.13 +0.00    +0.004 C 
DOCKED: ATOM     47  C   UNL d   1       2.814 -11.623   3.282 -0.25 +0.00    +0.012 C 
DOCKED: ENDBRANCH  17  46
DOCKED: TORSDOF 10
DOCKED: TER
DOCKED: ENDMDL
________________________________________________________________________________


	BEGINNING GENETIC ALGORITHM DOCKING 46 of 100
Run: 46 Seed: 654450810 95666183 [ Run 46 of 100 GA/GALS ]
Beginning LAMARCKIAN GENETIC ALGORITHM (LGA), with a maximum of 25000000 energy evaluations.

Final-Value: -12.401


	FINAL GENETIC ALGORITHM DOCKED STATE
	_______________________________________________


Detailed state:  trans -7.892 -0.849 -11.668 quatxyzw -0.449410 -0.293451 -0.743414 -0.399064 center 8.287 34.468 -0.670 ntor 10 -0.7958 -102.2448 -44.7841 165.4389 31.4200 22.4557 -120.0027 -64.9258 158.7778 34.2900
State:	 -7.892  -0.849 -11.668  -0.490 -0.320 -0.811 -132.961     -0.80 -102.24  -44.78  165.44   31.42   22.46 -120.00  -64.93  158.78   34.29

DOCKED: MODEL       46
DOCKED: USER    Run = 46
DOCKED: USER    DPF = D:/Protein_go_brrr/autodock/final/AncB/heme_O2/dock.dpf
DOCKED: USER  
DOCKED: USER    Estimated Free Energy of Binding    =   -7.72 kcal/mol  [=(1)+(2)+(3)-(4)]
DOCKED: USER    Estimated Inhibition Constant, Ki   =    2.20 uM (micromolar)  [Temperature = 298.15 K]
DOCKED: USER    
DOCKED: USER    (1) Final Intermolecular Energy     =  -10.70 kcal/mol
DOCKED: USER        vdW + Hbond + desolv Energy     =   -7.24 kcal/mol
DOCKED: USER        Electrostatic Energy            =   -3.46 kcal/mol
DOCKED: USER    (2) Final Total Internal Energy     =   -1.70 kcal/mol
DOCKED: USER    (3) Torsional Free Energy           =   +2.98 kcal/mol
DOCKED: USER    (4) Unbound System's Energy  [=(2)] =   -1.70 kcal/mol
DOCKED: USER    
DOCKED: USER    
DOCKED: USER    NEWDPF move heme_O2_opt.pdbqt
DOCKED: USER    NEWDPF about 8.287000 34.468000 -0.670000
DOCKED: USER    NEWDPF tran0 -7.891653 -0.848792 -11.668358
DOCKED: USER    NEWDPF quaternion0 -0.449410 -0.293451 -0.743414 -0.399064
DOCKED: USER    NEWDPF axisangle0 -0.490128 -0.320039 -0.810771 -132.960602
DOCKED: USER    NEWDPF quat0 -0.490128 -0.320039 -0.810771 -132.960602
DOCKED: USER    NEWDPF dihe0 -0.80 -102.24 -44.78 165.44 31.42 22.46 -120.00 -64.93 158.78 34.29 
DOCKED: USER  keepresnum = 1 
DOCKED: USER  
DOCKED: REMARK  10 active torsions:
DOCKED: REMARK  status: ('A' for Active; 'I' for Inactive)
DOCKED: REMARK    1  A    between atoms: C_6  and  C_10 
DOCKED: REMARK    2  A    between atoms: C_10  and  C_11 
DOCKED: REMARK    3  A    between atoms: C_11  and  C_12 
DOCKED: REMARK    4  A    between atoms: C_12  and  O_14 
DOCKED: REMARK    5  A    between atoms: C_17  and  C_20 
DOCKED: REMARK    6  A    between atoms: C_24  and  C_27 
DOCKED: REMARK    7  A    between atoms: C_31  and  C_34 
DOCKED: REMARK    8  A    between atoms: C_34  and  C_35 
DOCKED: REMARK    9  A    between atoms: C_35  and  C_36 
DOCKED: REMARK   10  A    between atoms: C_36  and  O_38 
DOCKED: USER                              x       y       z     vdW  Elec       q    Type
DOCKED: USER                           _______ _______ _______ _____ _____    ______ ____
DOCKED: ROOT
DOCKED: ATOM      1  C   UNL d   1      -7.204  -1.175 -13.648 -0.06 +0.06    +0.064 A 
DOCKED: ATOM      2  C   UNL d   1      -8.258   2.774 -11.228 -0.08 +0.03    +0.064 A 
DOCKED: ATOM      3  C   UNL d   1      -9.489   0.190  -7.368 -0.27 +0.01    +0.064 C 
DOCKED: ATOM      4  C   UNL d   1      -7.953  -3.853  -9.685 -0.22 +0.03    +0.064 A 
DOCKED: ATOM      5  C   UNL d   1      -7.389   0.110 -13.304 -0.03 +0.05    +0.066 A 
DOCKED: ATOM      6  C   UNL d   1      -7.166   1.190 -14.164 -0.04 -0.02    -0.021 A 
DOCKED: ATOM      7  C   UNL d   1      -7.429   2.336 -13.450 -0.07 -0.02    -0.025 A 
DOCKED: ATOM      8  C   UNL d   1      -7.852   1.922 -12.190 -0.06 +0.04    +0.066 A 
DOCKED: ATOM      9  C   UNL d   1      -7.245   3.743 -13.974 -0.09 +0.05    +0.051 C 
DOCKED: ATOM     10  C   UNL d   1      -8.734   2.398  -9.896 -0.09 +0.02    +0.066 A 
DOCKED: ATOM     11  C   UNL d   1      -9.298   3.309  -8.995 -0.13 -0.01    -0.021 A 
DOCKED: ATOM     12  C   UNL d   1      -9.675   2.580  -7.883 -0.20 +0.00    +0.000 A 
DOCKED: ATOM     13  C   UNL d   1      -9.301   1.238  -8.169 -0.18 +0.01    +0.070 A 
DOCKED: ATOM     14  C   UNL d   1      -9.493   4.807  -9.199 -0.12 +0.02    +0.052 C 
DOCKED: ATOM     15  C   UNL d   1      -9.093  -1.178  -7.606 -0.19 +0.02    +0.066 A 
DOCKED: ATOM     16  C   UNL d   1      -9.170  -2.199  -6.659 -0.32 -0.00    -0.021 A 
DOCKED: ATOM     17  C   UNL d   1      -8.736  -3.361  -7.297 -0.34 +0.00    +0.000 A 
DOCKED: ATOM     18  C   UNL d   1      -8.425  -2.957  -8.603 -0.20 +0.02    +0.070 A 
DOCKED: ATOM     19  C   UNL d   1      -9.593  -1.966  -5.230 -0.29 +0.01    +0.052 C 
DOCKED: ATOM     20  C   UNL d   1      -7.605  -3.491 -10.935 -0.16 +0.04    +0.066 A 
DOCKED: ATOM     21  C   UNL d   1      -7.184  -4.383 -11.917 -0.25 -0.02    -0.025 A 
DOCKED: ATOM     22  C   UNL d   1      -6.992  -3.641 -13.061 -0.16 -0.02    -0.021 A 
DOCKED: ATOM     23  C   UNL d   1      -7.287  -2.316 -12.728 -0.10 +0.06    +0.066 A 
DOCKED: ATOM     24  C   UNL d   1      -6.972  -5.867 -11.770 -0.41 +0.03    +0.051 C 
DOCKED: ATOM     25  N   UNL d   1      -7.764   0.554 -12.080 -0.01 -0.15    -0.248 N 
DOCKED: ATOM     26  N   UNL d   1      -8.725   1.137  -9.394 -0.05 -0.08    -0.248 N 
DOCKED: ATOM     27  N   UNL d   1      -8.576  -1.616  -8.750 -0.08 -0.08    -0.248 N 
DOCKED: ATOM     28  N   UNL d   1      -7.616  -2.222 -11.423 -0.05 -0.16    -0.248 N 
DOCKED: ATOM     29 FE   UNL d   1      -8.166  -0.556 -10.414 -0.02 +0.00    +0.000 Fe
DOCKED: ATOM     30  O   UNL d   1      -6.886   0.321 -10.290 -0.15 +0.00    +0.000 OA
DOCKED: ATOM     31  O   UNL d   1      -6.892  -1.140  -9.701 -0.20 +0.00    +0.000 OA
DOCKED: ENDROOT
DOCKED: BRANCH   6  32
DOCKED: ATOM     32  C   UNL d   1      -6.596   1.158 -15.558 -0.03 +0.04    +0.052 C 
DOCKED: BRANCH  32  33
DOCKED: ATOM     33  C   UNL d   1      -5.278   1.918 -15.677 -0.06 +0.14    +0.115 C 
DOCKED: BRANCH  33  34
DOCKED: ATOM     34  C   UNL d   1      -4.224   1.392 -14.734 -0.10 +0.22    +0.139 C 
DOCKED: ATOM     35  O   UNL d   1      -3.748   2.132 -13.888 -0.42 -1.45    -0.650 OA
DOCKED: BRANCH  34  36
DOCKED: ATOM     36  O   UNL d   1      -3.771   0.124 -14.822 -0.11 -1.45    -0.776 OA
DOCKED: ATOM     37  H   UNL d   1      -4.106  -0.493 -15.482 +0.01 +0.33    +0.167 HD
DOCKED: ENDBRANCH  34  36
DOCKED: ENDBRANCH  33  34
DOCKED: ENDBRANCH  32  33
DOCKED: ENDBRANCH   6  32
DOCKED: BRANCH  22  38
DOCKED: ATOM     38  C   UNL d   1      -6.491  -4.173 -14.379 -0.15 +0.06    +0.052 C 
DOCKED: BRANCH  38  39
DOCKED: ATOM     39  C   UNL d   1      -7.282  -3.627 -15.565 -0.07 +0.10    +0.115 C 
DOCKED: BRANCH  39  40
DOCKED: ATOM     40  C   UNL d   1      -6.448  -2.740 -16.455 -0.06 +0.14    +0.139 C 
DOCKED: ATOM     41  O   UNL d   1      -6.864  -2.424 -17.558 +0.02 -0.46    -0.650 OA
DOCKED: BRANCH  40  42
DOCKED: ATOM     42  O   UNL d   1      -5.268  -2.244 -16.034 -0.23 -1.41    -0.776 OA
DOCKED: ATOM     43  H   UNL d   1      -5.189  -1.343 -15.699 +0.00 +0.31    +0.167 HD
DOCKED: ENDBRANCH  40  42
DOCKED: ENDBRANCH  39  40
DOCKED: ENDBRANCH  38  39
DOCKED: ENDBRANCH  22  38
DOCKED: BRANCH  12  44
DOCKED: ATOM     44  C   UNL d   1     -10.337   3.227  -6.685 -0.17 +0.00    +0.004 C 
DOCKED: ATOM     45  C   UNL d   1     -11.443   2.838  -6.051 -0.24 -0.00    +0.012 C 
DOCKED: ENDBRANCH  12  44
DOCKED: BRANCH  17  46
DOCKED: ATOM     46  C   UNL d   1      -8.542  -4.760  -6.777 -0.53 +0.00    +0.004 C 
DOCKED: ATOM     47  C   UNL d   1      -8.501  -5.904  -7.472 -0.48 +0.00    +0.012 C 
DOCKED: ENDBRANCH  17  46
DOCKED: TORSDOF 10
DOCKED: TER
DOCKED: ENDMDL
________________________________________________________________________________


	BEGINNING GENETIC ALGORITHM DOCKING 47 of 100
Run: 47 Seed: 1588077895 1757223990 [ Run 47 of 100 GA/GALS ]
Beginning LAMARCKIAN GENETIC ALGORITHM (LGA), with a maximum of 25000000 energy evaluations.

Final-Value: -10.907


	FINAL GENETIC ALGORITHM DOCKED STATE
	_______________________________________________


Detailed state:  trans 17.037 1.096 -10.578 quatxyzw 0.578440 -0.552019 -0.355960 -0.483709 center 8.287 34.468 -0.670 ntor 10 -7.6962 -179.9285 84.8542 -116.1954 158.9254 137.4890 -61.1032 -47.5268 5.0649 20.7634
State:	 17.037   1.096 -10.578   0.661 -0.631 -0.407 -122.144     -7.70 -179.93   84.85 -116.20  158.93  137.49  -61.10  -47.53    5.06   20.76

DOCKED: MODEL       47
DOCKED: USER    Run = 47
DOCKED: USER    DPF = D:/Protein_go_brrr/autodock/final/AncB/heme_O2/dock.dpf
DOCKED: USER  
DOCKED: USER    Estimated Free Energy of Binding    =   -7.20 kcal/mol  [=(1)+(2)+(3)-(4)]
DOCKED: USER    Estimated Inhibition Constant, Ki   =    5.23 uM (micromolar)  [Temperature = 298.15 K]
DOCKED: USER    
DOCKED: USER    (1) Final Intermolecular Energy     =  -10.19 kcal/mol
DOCKED: USER        vdW + Hbond + desolv Energy     =   -8.66 kcal/mol
DOCKED: USER        Electrostatic Energy            =   -1.53 kcal/mol
DOCKED: USER    (2) Final Total Internal Energy     =   -0.72 kcal/mol
DOCKED: USER    (3) Torsional Free Energy           =   +2.98 kcal/mol
DOCKED: USER    (4) Unbound System's Energy  [=(2)] =   -0.72 kcal/mol
DOCKED: USER    
DOCKED: USER    
DOCKED: USER    NEWDPF move heme_O2_opt.pdbqt
DOCKED: USER    NEWDPF about 8.287000 34.468000 -0.670000
DOCKED: USER    NEWDPF tran0 17.036603 1.095756 -10.578138
DOCKED: USER    NEWDPF quaternion0 0.578440 -0.552019 -0.355960 -0.483709
DOCKED: USER    NEWDPF axisangle0 0.660902 -0.630713 -0.406706 -122.144128
DOCKED: USER    NEWDPF quat0 0.660902 -0.630713 -0.406706 -122.144128
DOCKED: USER    NEWDPF dihe0 -7.70 -179.93 84.85 -116.20 158.93 137.49 -61.10 -47.53 5.06 20.76 
DOCKED: USER  keepresnum = 1 
DOCKED: USER  
DOCKED: REMARK  10 active torsions:
DOCKED: REMARK  status: ('A' for Active; 'I' for Inactive)
DOCKED: REMARK    1  A    between atoms: C_6  and  C_10 
DOCKED: REMARK    2  A    between atoms: C_10  and  C_11 
DOCKED: REMARK    3  A    between atoms: C_11  and  C_12 
DOCKED: REMARK    4  A    between atoms: C_12  and  O_14 
DOCKED: REMARK    5  A    between atoms: C_17  and  C_20 
DOCKED: REMARK    6  A    between atoms: C_24  and  C_27 
DOCKED: REMARK    7  A    between atoms: C_31  and  C_34 
DOCKED: REMARK    8  A    between atoms: C_34  and  C_35 
DOCKED: REMARK    9  A    between atoms: C_35  and  C_36 
DOCKED: REMARK   10  A    between atoms: C_36  and  O_38 
DOCKED: USER                              x       y       z     vdW  Elec       q    Type
DOCKED: USER                           _______ _______ _______ _____ _____    ______ ____
DOCKED: ROOT
DOCKED: ATOM      1  C   UNL d   1      17.360   3.114 -10.010 +0.08 +0.06    +0.064 A 
DOCKED: ATOM      2  C   UNL d   1      14.817   1.130 -13.497 -0.24 +0.02    +0.064 A 
DOCKED: ATOM      3  C   UNL d   1      16.194  -3.265 -12.126 -0.08 +0.02    +0.064 C 
DOCKED: ATOM      4  C   UNL d   1      18.429  -1.265  -8.244 -0.20 +0.02    +0.064 A 
DOCKED: ATOM      5  C   UNL d   1      16.554   2.933 -11.070 -0.17 +0.05    +0.066 A 
DOCKED: ATOM      6  C   UNL d   1      15.957   3.974 -11.786 -0.26 -0.01    -0.021 A 
DOCKED: ATOM      7  C   UNL d   1      15.186   3.399 -12.769 -0.22 -0.01    -0.025 A 
DOCKED: ATOM      8  C   UNL d   1      15.372   2.024 -12.656 -0.21 +0.02    +0.066 A 
DOCKED: ATOM      9  C   UNL d   1      14.303   4.161 -13.732 -0.31 +0.02    +0.051 C 
DOCKED: ATOM     10  C   UNL d   1      14.993  -0.322 -13.443 -0.19 +0.02    +0.066 A 
DOCKED: ATOM     11  C   UNL d   1      14.529  -1.191 -14.437 -0.17 -0.01    -0.021 A 
DOCKED: ATOM     12  C   UNL d   1      14.932  -2.461 -14.069 -0.15 +0.00    +0.000 A 
DOCKED: ATOM     13  C   UNL d   1      15.624  -2.293 -12.838 +0.01 +0.03    +0.070 A 
DOCKED: ATOM     14  C   UNL d   1      13.757  -0.821 -15.699 -0.17 +0.01    +0.052 C 
DOCKED: ATOM     15  C   UNL d   1      16.873  -3.141 -10.859 -0.16 +0.02    +0.066 A 
DOCKED: ATOM     16  C   UNL d   1      17.304  -4.218 -10.084 -0.15 -0.01    -0.021 A 
DOCKED: ATOM     17  C   UNL d   1      17.943  -3.672  -8.971 -0.15 +0.00    +0.000 A 
DOCKED: ATOM     18  C   UNL d   1      17.855  -2.284  -9.154 -0.17 +0.02    +0.070 A 
DOCKED: ATOM     19  C   UNL d   1      17.021  -5.655 -10.443 -0.14 +0.03    +0.052 C 
DOCKED: ATOM     20  C   UNL d   1      18.326   0.072  -8.367 -0.22 +0.02    +0.066 A 
DOCKED: ATOM     21  C   UNL d   1      18.903   0.984  -7.487 -0.22 -0.01    -0.025 A 
DOCKED: ATOM     22  C   UNL d   1      18.632   2.236  -7.989 -0.21 -0.02    -0.021 A 
DOCKED: ATOM     23  C   UNL d   1      17.880   2.043  -9.153 -0.18 +0.05    +0.066 A 
DOCKED: ATOM     24  C   UNL d   1      19.671   0.675  -6.228 -0.18 +0.02    +0.051 C 
DOCKED: ATOM     25  N   UNL d   1      16.163   1.735 -11.569 -0.13 -0.11    -0.248 N 
DOCKED: ATOM     26  N   UNL d   1      15.653  -0.989 -12.462 -0.13 -0.08    -0.248 N 
DOCKED: ATOM     27  N   UNL d   1      17.137  -1.981 -10.266 -0.12 -0.08    -0.248 N 
DOCKED: ATOM     28  N   UNL d   1      17.658   0.727  -9.354 -0.15 -0.11    -0.248 N 
DOCKED: ATOM     29 FE   UNL d   1      16.663  -0.127 -10.895 -0.04 +0.00    +0.000 Fe
DOCKED: ATOM     30  O   UNL d   1      15.162   0.231 -10.695 -0.50 +0.00    +0.000 OA
DOCKED: ATOM     31  O   UNL d   1      15.935  -0.554  -9.569 -0.54 +0.00    +0.000 OA
DOCKED: ENDROOT
DOCKED: BRANCH   6  32
DOCKED: ATOM     32  C   UNL d   1      15.996   5.448 -11.477 -0.40 +0.04    +0.052 C 
DOCKED: BRANCH  32  33
DOCKED: ATOM     33  C   UNL d   1      17.187   6.156 -12.116 -0.27 +0.07    +0.115 C 
DOCKED: BRANCH  33  34
DOCKED: ATOM     34  C   UNL d   1      16.765   7.197 -13.123 -0.28 +0.06    +0.139 C 
DOCKED: ATOM     35  O   UNL d   1      15.584   7.486 -13.233 -0.67 -0.37    -0.650 OA
DOCKED: BRANCH  34  36
DOCKED: ATOM     36  O   UNL d   1      17.662   7.799 -13.931 +0.03 -0.27    -0.776 OA
DOCKED: ATOM     37  H   UNL d   1      18.612   7.668 -13.827 +0.04 +0.06    +0.167 HD
DOCKED: ENDBRANCH  34  36
DOCKED: ENDBRANCH  33  34
DOCKED: ENDBRANCH  32  33
DOCKED: ENDBRANCH   6  32
DOCKED: BRANCH  22  38
DOCKED: ATOM     38  C   UNL d   1      19.020   3.543  -7.348 -0.15 +0.06    +0.052 C 
DOCKED: BRANCH  38  39
DOCKED: ATOM     39  C   UNL d   1      19.870   4.414  -8.270 -0.11 +0.09    +0.115 C 
DOCKED: BRANCH  39  40
DOCKED: ATOM     40  C   UNL d   1      19.368   5.835  -8.345 -0.04 +0.15    +0.139 C 
DOCKED: ATOM     41  O   UNL d   1      18.397   6.099  -9.036 -0.02 -1.03    -0.650 OA
DOCKED: BRANCH  40  42
DOCKED: ATOM     42  O   UNL d   1      19.943   6.815  -7.622 +0.01 -0.42    -0.776 OA
DOCKED: ATOM     43  H   UNL d   1      19.602   7.717  -7.634 -0.45 +0.04    +0.167 HD
DOCKED: ENDBRANCH  40  42
DOCKED: ENDBRANCH  39  40
DOCKED: ENDBRANCH  38  39
DOCKED: ENDBRANCH  22  38
DOCKED: BRANCH  12  44
DOCKED: ATOM     44  C   UNL d   1      14.617  -3.680 -14.911 -0.15 +0.00    +0.004 C 
DOCKED: ATOM     45  C   UNL d   1      13.643  -4.570 -14.731 -0.20 +0.00    +0.012 C 
DOCKED: ENDBRANCH  12  44
DOCKED: BRANCH  17  46
DOCKED: ATOM     46  C   UNL d   1      18.557  -4.328  -7.763 -0.15 +0.00    +0.004 C 
DOCKED: ATOM     47  C   UNL d   1      18.264  -4.127  -6.472 -0.16 +0.00    +0.012 C 
DOCKED: ENDBRANCH  17  46
DOCKED: TORSDOF 10
DOCKED: TER
DOCKED: ENDMDL
________________________________________________________________________________


	BEGINNING GENETIC ALGORITHM DOCKING 48 of 100
Run: 48 Seed: 944921396 1795537517 [ Run 48 of 100 GA/GALS ]
Beginning LAMARCKIAN GENETIC ALGORITHM (LGA), with a maximum of 25000000 energy evaluations.

Final-Value: -20.135


	FINAL GENETIC ALGORITHM DOCKED STATE
	_______________________________________________


Detailed state:  trans 0.301 -1.616 -8.903 quatxyzw 0.282626 0.275997 0.237875 0.887335 center 8.287 34.468 -0.670 ntor 10 17.2623 -127.9812 35.3581 -11.5149 -180.0000 25.7055 8.2124 79.2071 -140.8643 -180.0000
State:	  0.301  -1.616  -8.903   0.613  0.599  0.516 54.919     17.26 -127.98   35.36  -11.51 -180.00   25.71    8.21   79.21 -140.86 -180.00

DOCKED: MODEL       48
DOCKED: USER    Run = 48
DOCKED: USER    DPF = D:/Protein_go_brrr/autodock/final/AncB/heme_O2/dock.dpf
DOCKED: USER  
DOCKED: USER    Estimated Free Energy of Binding    =  -15.54 kcal/mol  [=(1)+(2)+(3)-(4)]
DOCKED: USER    Estimated Inhibition Constant, Ki   =    4.06 pM (picomolar)  [Temperature = 298.15 K]
DOCKED: USER    
DOCKED: USER    (1) Final Intermolecular Energy     =  -18.52 kcal/mol
DOCKED: USER        vdW + Hbond + desolv Energy     =  -15.77 kcal/mol
DOCKED: USER        Electrostatic Energy            =   -2.76 kcal/mol
DOCKED: USER    (2) Final Total Internal Energy     =   -1.61 kcal/mol
DOCKED: USER    (3) Torsional Free Energy           =   +2.98 kcal/mol
DOCKED: USER    (4) Unbound System's Energy  [=(2)] =   -1.61 kcal/mol
DOCKED: USER    
DOCKED: USER    
DOCKED: USER    NEWDPF move heme_O2_opt.pdbqt
DOCKED: USER    NEWDPF about 8.287000 34.468000 -0.670000
DOCKED: USER    NEWDPF tran0 0.301196 -1.615767 -8.902631
DOCKED: USER    NEWDPF quaternion0 0.282626 0.275997 0.237875 0.887335
DOCKED: USER    NEWDPF axisangle0 0.612906 0.598530 0.515857 54.919423
DOCKED: USER    NEWDPF quat0 0.612906 0.598530 0.515857 54.919423
DOCKED: USER    NEWDPF dihe0 17.26 -127.98 35.36 -11.51 -180.00 25.71 8.21 79.21 -140.86 -180.00 
DOCKED: USER  keepresnum = 1 
DOCKED: USER  
DOCKED: REMARK  10 active torsions:
DOCKED: REMARK  status: ('A' for Active; 'I' for Inactive)
DOCKED: REMARK    1  A    between atoms: C_6  and  C_10 
DOCKED: REMARK    2  A    between atoms: C_10  and  C_11 
DOCKED: REMARK    3  A    between atoms: C_11  and  C_12 
DOCKED: REMARK    4  A    between atoms: C_12  and  O_14 
DOCKED: REMARK    5  A    between atoms: C_17  and  C_20 
DOCKED: REMARK    6  A    between atoms: C_24  and  C_27 
DOCKED: REMARK    7  A    between atoms: C_31  and  C_34 
DOCKED: REMARK    8  A    between atoms: C_34  and  C_35 
DOCKED: REMARK    9  A    between atoms: C_35  and  C_36 
DOCKED: REMARK   10  A    between atoms: C_36  and  O_38 
DOCKED: USER                              x       y       z     vdW  Elec       q    Type
DOCKED: USER                           _______ _______ _______ _____ _____    ______ ____
DOCKED: ROOT
DOCKED: ATOM      1  C   UNL d   1      -0.440  -1.187 -10.843 -0.23 +0.04    +0.064 A 
DOCKED: ATOM      2  C   UNL d   1      -2.471  -1.136  -6.550 -0.41 +0.02    +0.064 A 
DOCKED: ATOM      3  C   UNL d   1       1.627  -2.575  -4.493 -0.40 +0.01    +0.064 C 
DOCKED: ATOM      4  C   UNL d   1       3.858  -2.170  -8.843 -0.42 +0.02    +0.064 A 
DOCKED: ATOM      5  C   UNL d   1      -1.326  -1.054  -9.843 -0.30 +0.04    +0.066 A 
DOCKED: ATOM      6  C   UNL d   1      -2.659  -0.672 -10.024 -0.31 -0.02    -0.021 A 
DOCKED: ATOM      7  C   UNL d   1      -3.236  -0.615  -8.777 -0.35 -0.01    -0.025 A 
DOCKED: ATOM      8  C   UNL d   1      -2.254  -1.010  -7.873 -0.36 +0.03    +0.066 A 
DOCKED: ATOM      9  C   UNL d   1      -4.655  -0.169  -8.500 -0.38 +0.02    +0.051 C 
DOCKED: ATOM     10  C   UNL d   1      -1.487  -1.568  -5.557 -0.40 +0.02    +0.066 A 
DOCKED: ATOM     11  C   UNL d   1      -1.808  -1.839  -4.222 -0.47 -0.00    -0.021 A 
DOCKED: ATOM     12  C   UNL d   1      -0.643  -2.273  -3.617 -0.44 +0.00    +0.000 A 
DOCKED: ATOM     13  C   UNL d   1       0.348  -2.229  -4.636 -0.40 +0.01    +0.070 A 
DOCKED: ATOM     14  C   UNL d   1      -3.175  -1.716  -3.559 -0.62 +0.01    +0.052 C 
DOCKED: ATOM     15  C   UNL d   1       2.669  -2.513  -5.490 -0.41 +0.01    +0.066 A 
DOCKED: ATOM     16  C   UNL d   1       4.022  -2.732  -5.234 -0.51 -0.00    -0.021 A 
DOCKED: ATOM     17  C   UNL d   1       4.678  -2.621  -6.460 -0.51 +0.00    +0.000 A 
DOCKED: ATOM     18  C   UNL d   1       3.662  -2.340  -7.384 -0.43 +0.02    +0.070 A 
DOCKED: ATOM     19  C   UNL d   1       4.569  -2.971  -3.849 -0.28 +0.00    +0.052 C 
DOCKED: ATOM     20  C   UNL d   1       2.913  -1.858  -9.751 -0.45 +0.02    +0.066 A 
DOCKED: ATOM     21  C   UNL d   1       3.154  -1.729 -11.116 -0.45 -0.01    -0.025 A 
DOCKED: ATOM     22  C   UNL d   1       1.936  -1.475 -11.705 -0.06 -0.01    -0.021 A 
DOCKED: ATOM     23  C   UNL d   1       0.995  -1.441 -10.672 -0.17 +0.03    +0.066 A 
DOCKED: ATOM     24  C   UNL d   1       4.481  -1.838 -11.822 -0.45 +0.01    +0.051 C 
DOCKED: ATOM     25  N   UNL d   1      -1.059  -1.217  -8.524 -0.20 -0.12    -0.248 N 
DOCKED: ATOM     26  N   UNL d   1      -0.173  -1.795  -5.812 -0.25 -0.07    -0.248 N 
DOCKED: ATOM     27  N   UNL d   1       2.461  -2.204  -6.767 -0.23 -0.08    -0.248 N 
DOCKED: ATOM     28  N   UNL d   1       1.600  -1.630  -9.481 -0.18 -0.13    -0.248 N 
DOCKED: ATOM     29 FE   UNL d   1       0.723  -1.712  -7.658 -0.09 +0.00    +0.000 Fe
DOCKED: ATOM     30  O   UNL d   1       0.249  -0.265  -7.338 -0.77 +0.00    +0.000 OA
DOCKED: ATOM     31  O   UNL d   1       1.773  -0.542  -7.624 -1.06 +0.00    +0.000 OA
DOCKED: ENDROOT
DOCKED: BRANCH   6  32
DOCKED: ATOM     32  C   UNL d   1      -3.331  -0.243 -11.302 -0.26 +0.06    +0.052 C 
DOCKED: BRANCH  32  33
DOCKED: ATOM     33  C   UNL d   1      -2.642   0.948 -11.962 -0.24 +0.13    +0.115 C 
DOCKED: BRANCH  33  34
DOCKED: ATOM     34  C   UNL d   1      -3.403   1.461 -13.160 -0.15 +0.22    +0.139 C 
DOCKED: ATOM     35  O   UNL d   1      -4.616   1.334 -13.204 -0.09 -0.94    -0.650 OA
DOCKED: BRANCH  34  36
DOCKED: ATOM     36  O   UNL d   1      -2.768   2.034 -14.203 -0.28 -1.53    -0.776 OA
DOCKED: ATOM     37  H   UNL d   1      -1.822   1.923 -14.349 +0.04 +0.25    +0.167 HD
DOCKED: ENDBRANCH  34  36
DOCKED: ENDBRANCH  33  34
DOCKED: ENDBRANCH  32  33
DOCKED: ENDBRANCH   6  32
DOCKED: BRANCH  22  38
DOCKED: ATOM     38  C   UNL d   1       1.707  -1.217 -13.172 -0.27 +0.03    +0.052 C 
DOCKED: BRANCH  38  39
DOCKED: ATOM     39  C   UNL d   1       2.088   0.204 -13.579 -0.27 +0.05    +0.115 C 
DOCKED: BRANCH  39  40
DOCKED: ATOM     40  C   UNL d   1       0.886   1.102 -13.733 -0.08 +0.09    +0.139 C 
DOCKED: ATOM     41  O   UNL d   1       1.041   2.304 -13.880 -0.08 -0.46    -0.650 OA
DOCKED: BRANCH  40  42
DOCKED: ATOM     42  O   UNL d   1      -0.362   0.595 -13.762 +0.06 -0.73    -0.776 OA
DOCKED: ATOM     43  H   UNL d   1      -0.966   0.782 -14.491 +0.04 +0.18    +0.167 HD
DOCKED: ENDBRANCH  40  42
DOCKED: ENDBRANCH  39  40
DOCKED: ENDBRANCH  38  39
DOCKED: ENDBRANCH  22  38
DOCKED: BRANCH  12  44
DOCKED: ATOM     44  C   UNL d   1      -0.597  -2.672  -2.157 -0.36 +0.00    +0.004 C 
DOCKED: ATOM     45  C   UNL d   1       0.427  -2.563  -1.310 -0.61 +0.00    +0.012 C 
DOCKED: ENDBRANCH  12  44
DOCKED: BRANCH  17  46
DOCKED: ATOM     46  C   UNL d   1       6.140  -2.698  -6.808 -0.56 +0.00    +0.004 C 
DOCKED: ATOM     47  C   UNL d   1       7.194  -2.566  -5.993 -0.68 +0.00    +0.012 C 
DOCKED: ENDBRANCH  17  46
DOCKED: TORSDOF 10
DOCKED: TER
DOCKED: ENDMDL
________________________________________________________________________________


	BEGINNING GENETIC ALGORITHM DOCKING 49 of 100
Run: 49 Seed: 1310529675 961661524 [ Run 49 of 100 GA/GALS ]
Beginning LAMARCKIAN GENETIC ALGORITHM (LGA), with a maximum of 25000000 energy evaluations.

Final-Value: -12.520


	FINAL GENETIC ALGORITHM DOCKED STATE
	_______________________________________________


Detailed state:  trans -7.306 -2.093 -12.746 quatxyzw -0.518072 -0.232240 -0.764249 -0.305923 center 8.287 34.468 -0.670 ntor 10 143.9884 -109.3923 -69.9828 129.5309 -17.9389 144.3454 -89.6543 55.3580 -173.6062 -165.7921
State:	 -7.306  -2.093 -12.746  -0.544 -0.244 -0.803 -144.373    143.99 -109.39  -69.98  129.53  -17.94  144.35  -89.65   55.36 -173.61 -165.79

DOCKED: MODEL       49
DOCKED: USER    Run = 49
DOCKED: USER    DPF = D:/Protein_go_brrr/autodock/final/AncB/heme_O2/dock.dpf
DOCKED: USER  
DOCKED: USER    Estimated Free Energy of Binding    =   -7.25 kcal/mol  [=(1)+(2)+(3)-(4)]
DOCKED: USER    Estimated Inhibition Constant, Ki   =    4.84 uM (micromolar)  [Temperature = 298.15 K]
DOCKED: USER    
DOCKED: USER    (1) Final Intermolecular Energy     =  -10.23 kcal/mol
DOCKED: USER        vdW + Hbond + desolv Energy     =   -6.86 kcal/mol
DOCKED: USER        Electrostatic Energy            =   -3.38 kcal/mol
DOCKED: USER    (2) Final Total Internal Energy     =   -2.29 kcal/mol
DOCKED: USER    (3) Torsional Free Energy           =   +2.98 kcal/mol
DOCKED: USER    (4) Unbound System's Energy  [=(2)] =   -2.29 kcal/mol
DOCKED: USER    
DOCKED: USER    
DOCKED: USER    NEWDPF move heme_O2_opt.pdbqt
DOCKED: USER    NEWDPF about 8.287000 34.468000 -0.670000
DOCKED: USER    NEWDPF tran0 -7.306398 -2.093448 -12.746141
DOCKED: USER    NEWDPF quaternion0 -0.518072 -0.232240 -0.764249 -0.305923
DOCKED: USER    NEWDPF axisangle0 -0.544161 -0.243935 -0.802735 -144.372622
DOCKED: USER    NEWDPF quat0 -0.544161 -0.243935 -0.802735 -144.372622
DOCKED: USER    NEWDPF dihe0 143.99 -109.39 -69.98 129.53 -17.94 144.35 -89.65 55.36 -173.61 -165.79 
DOCKED: USER  keepresnum = 1 
DOCKED: USER  
DOCKED: REMARK  10 active torsions:
DOCKED: REMARK  status: ('A' for Active; 'I' for Inactive)
DOCKED: REMARK    1  A    between atoms: C_6  and  C_10 
DOCKED: REMARK    2  A    between atoms: C_10  and  C_11 
DOCKED: REMARK    3  A    between atoms: C_11  and  C_12 
DOCKED: REMARK    4  A    between atoms: C_12  and  O_14 
DOCKED: REMARK    5  A    between atoms: C_17  and  C_20 
DOCKED: REMARK    6  A    between atoms: C_24  and  C_27 
DOCKED: REMARK    7  A    between atoms: C_31  and  C_34 
DOCKED: REMARK    8  A    between atoms: C_34  and  C_35 
DOCKED: REMARK    9  A    between atoms: C_35  and  C_36 
DOCKED: REMARK   10  A    between atoms: C_36  and  O_38 
DOCKED: USER                              x       y       z     vdW  Elec       q    Type
DOCKED: USER                           _______ _______ _______ _____ _____    ______ ____
DOCKED: ROOT
DOCKED: ATOM      1  C   UNL d   1      -6.884  -2.631 -14.754 -0.05 +0.08    +0.064 A 
DOCKED: ATOM      2  C   UNL d   1      -6.731   1.516 -12.443 -0.09 +0.05    +0.064 A 
DOCKED: ATOM      3  C   UNL d   1      -8.243  -0.581  -8.392 -0.20 +0.02    +0.064 C 
DOCKED: ATOM      4  C   UNL d   1      -7.946  -4.936 -10.631 -0.30 +0.03    +0.064 A 
DOCKED: ATOM      5  C   UNL d   1      -6.717  -1.332 -14.456 -0.06 +0.08    +0.066 A 
DOCKED: ATOM      6  C   UNL d   1      -6.305  -0.364 -15.376 -0.05 -0.02    -0.021 A 
DOCKED: ATOM      7  C   UNL d   1      -6.219   0.829 -14.698 -0.06 -0.03    -0.025 A 
DOCKED: ATOM      8  C   UNL d   1      -6.627   0.566 -13.393 -0.06 +0.06    +0.066 A 
DOCKED: ATOM      9  C   UNL d   1      -5.736   2.132 -15.296 -0.08 +0.06    +0.051 C 
DOCKED: ATOM     10  C   UNL d   1      -7.174   1.305 -11.064 -0.11 +0.04    +0.066 A 
DOCKED: ATOM     11  C   UNL d   1      -7.420   2.350 -10.167 -0.18 -0.01    -0.021 A 
DOCKED: ATOM     12  C   UNL d   1      -7.875   1.766  -8.998 -0.23 +0.00    +0.000 A 
DOCKED: ATOM     13  C   UNL d   1      -7.868   0.366  -9.251 -0.13 +0.02    +0.070 A 
DOCKED: ATOM     14  C   UNL d   1      -7.256   3.843 -10.422 -0.10 +0.03    +0.052 C 
DOCKED: ATOM     15  C   UNL d   1      -8.218  -2.009  -8.597 -0.18 +0.02    +0.066 A 
DOCKED: ATOM     16  C   UNL d   1      -8.467  -2.955  -7.602 -0.29 -0.01    -0.021 A 
DOCKED: ATOM     17  C   UNL d   1      -8.387  -4.204  -8.217 -0.31 +0.00    +0.000 A 
DOCKED: ATOM     18  C   UNL d   1      -8.093  -3.923  -9.559 -0.22 +0.03    +0.070 A 
DOCKED: ATOM     19  C   UNL d   1      -8.701  -2.588  -6.158 -0.41 +0.01    +0.052 C 
DOCKED: ATOM     20  C   UNL d   1      -7.622  -4.704 -11.918 -0.23 +0.04    +0.066 A 
DOCKED: ATOM     21  C   UNL d   1      -7.516  -5.698 -12.887 -0.26 -0.02    -0.025 A 
DOCKED: ATOM     22  C   UNL d   1      -7.240  -5.056 -14.074 -0.16 -0.02    -0.021 A 
DOCKED: ATOM     23  C   UNL d   1      -7.171  -3.691 -13.781 -0.12 +0.06    +0.066 A 
DOCKED: ATOM     24  C   UNL d   1      -7.666  -7.184 -12.690 -0.13 +0.02    +0.051 C 
DOCKED: ATOM     25  N   UNL d   1      -6.871  -0.778 -13.228 -0.04 -0.24    -0.248 N 
DOCKED: ATOM     26  N   UNL d   1      -7.436   0.094 -10.509 -0.04 -0.12    -0.248 N 
DOCKED: ATOM     27  N   UNL d   1      -7.920  -2.591  -9.755 -0.09 -0.11    -0.248 N 
DOCKED: ATOM     28  N   UNL d   1      -7.359  -3.485 -12.461 -0.09 -0.20    -0.248 N 
DOCKED: ATOM     29 FE   UNL d   1      -7.397  -1.710 -11.489 -0.02 +0.00    +0.000 Fe
DOCKED: ATOM     30  O   UNL d   1      -5.935  -1.177 -11.498 -0.19 +0.00    +0.000 OA
DOCKED: ATOM     31  O   UNL d   1      -6.253  -2.575 -10.845 -0.17 +0.00    +0.000 OA
DOCKED: ENDROOT
DOCKED: BRANCH   6  32
DOCKED: ATOM     32  C   UNL d   1      -5.876  -0.573 -16.805 -0.03 +0.05    +0.052 C 
DOCKED: BRANCH  32  33
DOCKED: ATOM     33  C   UNL d   1      -4.378  -0.829 -16.942 -0.05 +0.14    +0.115 C 
DOCKED: BRANCH  33  34
DOCKED: ATOM     34  C   UNL d   1      -4.031  -2.292 -16.816 +0.06 +0.22    +0.139 C 
DOCKED: ATOM     35  O   UNL d   1      -2.863  -2.627 -16.700 -0.02 -1.08    -0.650 OA
DOCKED: BRANCH  34  36
DOCKED: ATOM     36  O   UNL d   1      -4.983  -3.247 -16.855 -0.07 -1.04    -0.776 OA
DOCKED: ATOM     37  H   UNL d   1      -4.830  -4.105 -17.267 +0.02 +0.19    +0.167 HD
DOCKED: ENDBRANCH  34  36
DOCKED: ENDBRANCH  33  34
DOCKED: ENDBRANCH  32  33
DOCKED: ENDBRANCH   6  32
DOCKED: BRANCH  22  38
DOCKED: ATOM     38  C   UNL d   1      -6.995  -5.730 -15.400 -0.14 +0.04    +0.052 C 
DOCKED: BRANCH  38  39
DOCKED: ATOM     39  C   UNL d   1      -5.743  -6.604 -15.385 -0.24 +0.12    +0.115 C 
DOCKED: BRANCH  39  40
DOCKED: ATOM     40  C   UNL d   1      -4.781  -6.253 -16.492 -0.15 +0.21    +0.139 C 
DOCKED: ATOM     41  O   UNL d   1      -5.063  -6.524 -17.649 -0.11 -1.26    -0.650 OA
DOCKED: BRANCH  40  42
DOCKED: ATOM     42  O   UNL d   1      -3.634  -5.595 -16.235 +0.10 -1.12    -0.776 OA
DOCKED: ATOM     43  H   UNL d   1      -3.521  -4.667 -16.470 +0.04 +0.25    +0.167 HD
DOCKED: ENDBRANCH  40  42
DOCKED: ENDBRANCH  39  40
DOCKED: ENDBRANCH  38  39
DOCKED: ENDBRANCH  22  38
DOCKED: BRANCH  12  44
DOCKED: ATOM     44  C   UNL d   1      -8.257   2.588  -7.785 -0.32 +0.00    +0.004 C 
DOCKED: ATOM     45  C   UNL d   1      -9.480   2.855  -7.329 -0.25 +0.00    +0.012 C 
DOCKED: ENDBRANCH  12  44
DOCKED: BRANCH  17  46
DOCKED: ATOM     46  C   UNL d   1      -8.503  -5.594  -7.650 -0.49 +0.00    +0.004 C 
DOCKED: ATOM     47  C   UNL d   1      -9.357  -6.564  -8.003 -0.55 +0.00    +0.012 C 
DOCKED: ENDBRANCH  17  46
DOCKED: TORSDOF 10
DOCKED: TER
DOCKED: ENDMDL
________________________________________________________________________________


	BEGINNING GENETIC ALGORITHM DOCKING 50 of 100
Run: 50 Seed: 360705639 1193278391 [ Run 50 of 100 GA/GALS ]
Beginning LAMARCKIAN GENETIC ALGORITHM (LGA), with a maximum of 25000000 energy evaluations.

Final-Value: -12.478


	FINAL GENETIC ALGORITHM DOCKED STATE
	_______________________________________________


Detailed state:  trans -7.500 -1.497 -12.350 quatxyzw -0.449625 -0.269969 -0.764037 -0.375767 center 8.287 34.468 -0.670 ntor 10 -110.7612 -9.1427 -44.4923 125.8874 41.4166 -106.2946 176.0784 34.2096 179.6814 -55.2053
State:	 -7.500  -1.497 -12.350  -0.485 -0.291 -0.824 -135.857   -110.76   -9.14  -44.49  125.89   41.42 -106.29  176.08   34.21  179.68  -55.21

DOCKED: MODEL       50
DOCKED: USER    Run = 50
DOCKED: USER    DPF = D:/Protein_go_brrr/autodock/final/AncB/heme_O2/dock.dpf
DOCKED: USER  
DOCKED: USER    Estimated Free Energy of Binding    =   -8.94 kcal/mol  [=(1)+(2)+(3)-(4)]
DOCKED: USER    Estimated Inhibition Constant, Ki   =  282.06 nM (nanomolar)  [Temperature = 298.15 K]
DOCKED: USER    
DOCKED: USER    (1) Final Intermolecular Energy     =  -11.92 kcal/mol
DOCKED: USER        vdW + Hbond + desolv Energy     =   -7.82 kcal/mol
DOCKED: USER        Electrostatic Energy            =   -4.10 kcal/mol
DOCKED: USER    (2) Final Total Internal Energy     =   -0.56 kcal/mol
DOCKED: USER    (3) Torsional Free Energy           =   +2.98 kcal/mol
DOCKED: USER    (4) Unbound System's Energy  [=(2)] =   -0.56 kcal/mol
DOCKED: USER    
DOCKED: USER    
DOCKED: USER    NEWDPF move heme_O2_opt.pdbqt
DOCKED: USER    NEWDPF about 8.287000 34.468000 -0.670000
DOCKED: USER    NEWDPF tran0 -7.499984 -1.496673 -12.349571
DOCKED: USER    NEWDPF quaternion0 -0.449625 -0.269969 -0.764037 -0.375767
DOCKED: USER    NEWDPF axisangle0 -0.485182 -0.291318 -0.824459 -135.856568
DOCKED: USER    NEWDPF quat0 -0.485182 -0.291318 -0.824459 -135.856568
DOCKED: USER    NEWDPF dihe0 -110.76 -9.14 -44.49 125.89 41.42 -106.29 176.08 34.21 179.68 -55.21 
DOCKED: USER  keepresnum = 1 
DOCKED: USER  
DOCKED: REMARK  10 active torsions:
DOCKED: REMARK  status: ('A' for Active; 'I' for Inactive)
DOCKED: REMARK    1  A    between atoms: C_6  and  C_10 
DOCKED: REMARK    2  A    between atoms: C_10  and  C_11 
DOCKED: REMARK    3  A    between atoms: C_11  and  C_12 
DOCKED: REMARK    4  A    between atoms: C_12  and  O_14 
DOCKED: REMARK    5  A    between atoms: C_17  and  C_20 
DOCKED: REMARK    6  A    between atoms: C_24  and  C_27 
DOCKED: REMARK    7  A    between atoms: C_31  and  C_34 
DOCKED: REMARK    8  A    between atoms: C_34  and  C_35 
DOCKED: REMARK    9  A    between atoms: C_35  and  C_36 
DOCKED: REMARK   10  A    between atoms: C_36  and  O_38 
DOCKED: USER                              x       y       z     vdW  Elec       q    Type
DOCKED: USER                           _______ _______ _______ _____ _____    ______ ____
DOCKED: ROOT
DOCKED: ATOM      1  C   UNL d   1      -6.810  -1.821 -14.329 -0.06 +0.08    +0.064 A 
DOCKED: ATOM      2  C   UNL d   1      -7.611   2.130 -11.819 -0.09 +0.04    +0.064 A 
DOCKED: ATOM      3  C   UNL d   1      -9.079  -0.455  -8.043 -0.20 +0.02    +0.064 C 
DOCKED: ATOM      4  C   UNL d   1      -7.806  -4.538 -10.447 -0.27 +0.03    +0.064 A 
DOCKED: ATOM      5  C   UNL d   1      -6.906  -0.536 -13.954 -0.05 +0.06    +0.066 A 
DOCKED: ATOM      6  C   UNL d   1      -6.594   0.547 -14.781 -0.04 -0.02    -0.021 A 
DOCKED: ATOM      7  C   UNL d   1      -6.784   1.690 -14.041 -0.07 -0.02    -0.025 A 
DOCKED: ATOM      8  C   UNL d   1      -7.254   1.277 -12.798 -0.06 +0.05    +0.066 A 
DOCKED: ATOM      9  C   UNL d   1      -6.491   3.093 -14.526 -0.08 +0.06    +0.051 C 
DOCKED: ATOM     10  C   UNL d   1      -8.131   1.757 -10.503 -0.09 +0.03    +0.066 A 
DOCKED: ATOM     11  C   UNL d   1      -8.640   2.683  -9.585 -0.14 -0.01    -0.021 A 
DOCKED: ATOM     12  C   UNL d   1      -9.085   1.955  -8.497 -0.19 +0.00    +0.000 A 
DOCKED: ATOM     13  C   UNL d   1      -8.804   0.597  -8.814 -0.13 +0.02    +0.070 A 
DOCKED: ATOM     14  C   UNL d   1      -8.724   4.196  -9.751 -0.16 +0.02    +0.052 C 
DOCKED: ATOM     15  C   UNL d   1      -8.779  -1.841  -8.312 -0.16 +0.02    +0.066 A 
DOCKED: ATOM     16  C   UNL d   1      -8.942  -2.878  -7.394 -0.28 -0.01    -0.021 A 
DOCKED: ATOM     17  C   UNL d   1      -8.585  -4.051  -8.057 -0.34 +0.00    +0.000 A 
DOCKED: ATOM     18  C   UNL d   1      -8.227  -3.637  -9.348 -0.21 +0.03    +0.070 A 
DOCKED: ATOM     19  C   UNL d   1      -9.367  -2.651  -5.965 -0.44 +0.01    +0.052 C 
DOCKED: ATOM     20  C   UNL d   1      -7.415  -4.170 -11.683 -0.21 +0.04    +0.066 A 
DOCKED: ATOM     21  C   UNL d   1      -7.046  -5.065 -12.683 -0.26 -0.02    -0.025 A 
DOCKED: ATOM     22  C   UNL d   1      -6.785  -4.311 -13.804 -0.15 -0.02    -0.021 A 
DOCKED: ATOM     23  C   UNL d   1      -6.988  -2.976 -13.440 -0.11 +0.07    +0.066 A 
DOCKED: ATOM     24  C   UNL d   1      -6.943  -6.565 -12.572 -0.35 +0.03    +0.051 C 
DOCKED: ATOM     25  N   UNL d   1      -7.266  -0.097 -12.722 -0.02 -0.19    -0.248 N 
DOCKED: ATOM     26  N   UNL d   1      -8.220   0.486 -10.034 -0.03 -0.10    -0.248 N 
DOCKED: ATOM     27  N   UNL d   1      -8.279  -2.286  -9.461 -0.08 -0.10    -0.248 N 
DOCKED: ATOM     28  N   UNL d   1      -7.327  -2.892 -12.138 -0.08 -0.20    -0.248 N 
DOCKED: ATOM     29 FE   UNL d   1      -7.771  -1.217 -11.091 -0.02 +0.00    +0.000 Fe
DOCKED: ATOM     30  O   UNL d   1      -6.433  -0.439 -10.929 -0.14 +0.00    +0.000 OA
DOCKED: ATOM     31  O   UNL d   1      -6.552  -1.910 -10.378 -0.20 +0.00    +0.000 OA
DOCKED: ENDROOT
DOCKED: BRANCH   6  32
DOCKED: ATOM     32  C   UNL d   1      -6.008   0.509 -16.169 -0.03 +0.05    +0.052 C 
DOCKED: BRANCH  32  33
DOCKED: ATOM     33  C   UNL d   1      -4.493   0.691 -16.177 -0.05 +0.14    +0.115 C 
DOCKED: BRANCH  33  34
DOCKED: ATOM     34  C   UNL d   1      -3.945   1.014 -14.809 -0.11 +0.22    +0.139 C 
DOCKED: ATOM     35  O   UNL d   1      -3.516   2.134 -14.581 -0.51 -1.44    -0.650 OA
DOCKED: BRANCH  34  36
DOCKED: ATOM     36  O   UNL d   1      -3.891   0.083 -13.835 +0.10 -1.53    -0.776 OA
DOCKED: ATOM     37  H   UNL d   1      -4.457   0.126 -13.055 +0.03 +0.27    +0.167 HD
DOCKED: ENDBRANCH  34  36
DOCKED: ENDBRANCH  33  34
DOCKED: ENDBRANCH  32  33
DOCKED: ENDBRANCH   6  32
DOCKED: BRANCH  22  38
DOCKED: ATOM     38  C   UNL d   1      -6.305  -4.844 -15.129 -0.14 +0.06    +0.052 C 
DOCKED: BRANCH  38  39
DOCKED: ATOM     39  C   UNL d   1      -7.102  -6.063 -15.589 -0.12 +0.09    +0.115 C 
DOCKED: BRANCH  39  40
DOCKED: ATOM     40  C   UNL d   1      -6.259  -7.042 -16.368 -0.05 +0.18    +0.139 C 
DOCKED: ATOM     41  O   UNL d   1      -5.105  -7.251 -16.031 -0.55 -1.03    -0.650 OA
DOCKED: BRANCH  40  42
DOCKED: ATOM     42  O   UNL d   1      -6.774  -7.732 -17.404 -0.19 -1.19    -0.776 OA
DOCKED: ATOM     43  H   UNL d   1      -7.713  -7.691 -17.622 +0.02 +0.15    +0.167 HD
DOCKED: ENDBRANCH  40  42
DOCKED: ENDBRANCH  39  40
DOCKED: ENDBRANCH  38  39
DOCKED: ENDBRANCH  22  38
DOCKED: BRANCH  12  44
DOCKED: ATOM     44  C   UNL d   1      -9.715   2.617  -7.290 -0.23 +0.00    +0.004 C 
DOCKED: ATOM     45  C   UNL d   1     -10.852   2.290  -6.677 -0.26 +0.00    +0.012 C 
DOCKED: ENDBRANCH  12  44
DOCKED: BRANCH  17  46
DOCKED: ATOM     46  C   UNL d   1      -8.500  -5.474  -7.571 -0.50 +0.00    +0.004 C 
DOCKED: ATOM     47  C   UNL d   1      -9.180  -6.541  -8.009 -0.58 +0.00    +0.012 C 
DOCKED: ENDBRANCH  17  46
DOCKED: TORSDOF 10
DOCKED: TER
DOCKED: ENDMDL
________________________________________________________________________________


	BEGINNING GENETIC ALGORITHM DOCKING 51 of 100
Run: 51 Seed: 951548348 1401116376 [ Run 51 of 100 GA/GALS ]
Beginning LAMARCKIAN GENETIC ALGORITHM (LGA), with a maximum of 25000000 energy evaluations.

Final-Value: -10.927


	FINAL GENETIC ALGORITHM DOCKED STATE
	_______________________________________________


Detailed state:  trans 16.466 -1.782 -11.476 quatxyzw 0.108288 -0.001275 -0.754728 0.647038 center 8.287 34.468 -0.670 ntor 10 101.8797 -140.5273 -46.9401 -54.1931 -27.8387 155.0870 34.2624 64.2859 3.8289 149.0214
State:	 16.466  -1.782 -11.476   0.142 -0.002 -0.990 99.363    101.88 -140.53  -46.94  -54.19  -27.84  155.09   34.26   64.29    3.83  149.02

DOCKED: MODEL       51
DOCKED: USER    Run = 51
DOCKED: USER    DPF = D:/Protein_go_brrr/autodock/final/AncB/heme_O2/dock.dpf
DOCKED: USER  
DOCKED: USER    Estimated Free Energy of Binding    =   -5.81 kcal/mol  [=(1)+(2)+(3)-(4)]
DOCKED: USER    Estimated Inhibition Constant, Ki   =   55.32 uM (micromolar)  [Temperature = 298.15 K]
DOCKED: USER    
DOCKED: USER    (1) Final Intermolecular Energy     =   -8.79 kcal/mol
DOCKED: USER        vdW + Hbond + desolv Energy     =   -7.86 kcal/mol
DOCKED: USER        Electrostatic Energy            =   -0.93 kcal/mol
DOCKED: USER    (2) Final Total Internal Energy     =   -2.14 kcal/mol
DOCKED: USER    (3) Torsional Free Energy           =   +2.98 kcal/mol
DOCKED: USER    (4) Unbound System's Energy  [=(2)] =   -2.14 kcal/mol
DOCKED: USER    
DOCKED: USER    
DOCKED: USER    NEWDPF move heme_O2_opt.pdbqt
DOCKED: USER    NEWDPF about 8.287000 34.468000 -0.670000
DOCKED: USER    NEWDPF tran0 16.465593 -1.782327 -11.476244
DOCKED: USER    NEWDPF quaternion0 0.108288 -0.001275 -0.754728 0.647038
DOCKED: USER    NEWDPF axisangle0 0.142024 -0.001672 -0.989862 99.362699
DOCKED: USER    NEWDPF quat0 0.142024 -0.001672 -0.989862 99.362699
DOCKED: USER    NEWDPF dihe0 101.88 -140.53 -46.94 -54.19 -27.84 155.09 34.26 64.29 3.83 149.02 
DOCKED: USER  keepresnum = 1 
DOCKED: USER  
DOCKED: REMARK  10 active torsions:
DOCKED: REMARK  status: ('A' for Active; 'I' for Inactive)
DOCKED: REMARK    1  A    between atoms: C_6  and  C_10 
DOCKED: REMARK    2  A    between atoms: C_10  and  C_11 
DOCKED: REMARK    3  A    between atoms: C_11  and  C_12 
DOCKED: REMARK    4  A    between atoms: C_12  and  O_14 
DOCKED: REMARK    5  A    between atoms: C_17  and  C_20 
DOCKED: REMARK    6  A    between atoms: C_24  and  C_27 
DOCKED: REMARK    7  A    between atoms: C_31  and  C_34 
DOCKED: REMARK    8  A    between atoms: C_34  and  C_35 
DOCKED: REMARK    9  A    between atoms: C_35  and  C_36 
DOCKED: REMARK   10  A    between atoms: C_36  and  O_38 
DOCKED: USER                              x       y       z     vdW  Elec       q    Type
DOCKED: USER                           _______ _______ _______ _____ _____    ______ ____
DOCKED: ROOT
DOCKED: ATOM      1  C   UNL d   1      16.267  -3.820 -12.032 -0.13 +0.03    +0.064 A 
DOCKED: ATOM      2  C   UNL d   1      18.168  -1.702  -8.229 -0.20 +0.02    +0.064 A 
DOCKED: ATOM      3  C   UNL d   1      17.123   2.638 -10.008 -0.06 +0.06    +0.064 C 
DOCKED: ATOM      4  C   UNL d   1      14.737   0.460 -13.701 -0.23 +0.02    +0.064 A 
DOCKED: ATOM      5  C   UNL d   1      16.868  -3.598 -10.852 -0.15 +0.03    +0.066 A 
DOCKED: ATOM      6  C   UNL d   1      17.355  -4.610 -10.019 -0.13 -0.01    -0.021 A 
DOCKED: ATOM      7  C   UNL d   1      17.866  -4.000  -8.897 -0.14 -0.01    -0.025 A 
DOCKED: ATOM      8  C   UNL d   1      17.722  -2.630  -9.098 -0.18 +0.02    +0.066 A 
DOCKED: ATOM      9  C   UNL d   1      18.431  -4.728  -7.697 -0.13 +0.02    +0.051 C 
DOCKED: ATOM     10  C   UNL d   1      18.066  -0.252  -8.396 -0.23 +0.02    +0.066 A 
DOCKED: ATOM     11  C   UNL d   1      18.690   0.666  -7.544 -0.24 -0.01    -0.021 A 
DOCKED: ATOM     12  C   UNL d   1      18.415   1.923  -8.051 -0.25 +0.00    +0.000 A 
DOCKED: ATOM     13  C   UNL d   1      17.611   1.696  -9.202 -0.22 +0.05    +0.070 A 
DOCKED: ATOM     14  C   UNL d   1      19.536   0.357  -6.314 -0.19 +0.02    +0.052 C 
DOCKED: ATOM     15  C   UNL d   1      16.276   2.451 -11.162 -0.21 +0.04    +0.066 A 
DOCKED: ATOM     16  C   UNL d   1      15.663   3.486 -11.869 -0.25 -0.01    -0.021 A 
DOCKED: ATOM     17  C   UNL d   1      14.977   2.888 -12.926 -0.25 +0.00    +0.000 A 
DOCKED: ATOM     18  C   UNL d   1      15.227   1.516 -12.784 -0.22 +0.02    +0.070 A 
DOCKED: ATOM     19  C   UNL d   1      15.741   4.931 -11.444 -0.38 +0.04    +0.052 C 
DOCKED: ATOM     20  C   UNL d   1      14.923  -0.868 -13.570 -0.13 +0.02    +0.066 A 
DOCKED: ATOM     21  C   UNL d   1      14.452  -1.815 -14.476 -0.13 -0.01    -0.025 A 
DOCKED: ATOM     22  C   UNL d   1      14.902  -3.037 -14.031 -0.13 -0.01    -0.021 A 
DOCKED: ATOM     23  C   UNL d   1      15.618  -2.793 -12.855 +0.06 +0.02    +0.066 A 
DOCKED: ATOM     24  C   UNL d   1      13.613  -1.565 -15.702 -0.23 +0.01    +0.051 C 
DOCKED: ATOM     25  N   UNL d   1      17.048  -2.386 -10.272 -0.12 -0.08    -0.248 N 
DOCKED: ATOM     26  N   UNL d   1      17.399   0.370  -9.401 -0.17 -0.10    -0.248 N 
DOCKED: ATOM     27  N   UNL d   1      15.955   1.263 -11.666 -0.15 -0.10    -0.248 N 
DOCKED: ATOM     28  N   UNL d   1      15.590  -1.478 -12.554 -0.11 -0.09    -0.248 N 
DOCKED: ATOM     29 FE   UNL d   1      16.487  -0.558 -10.990 -0.05 +0.00    +0.000 Fe
DOCKED: ATOM     30  O   UNL d   1      15.705  -1.001  -9.719 -0.57 +0.00    +0.000 OA
DOCKED: ATOM     31  O   UNL d   1      14.945  -0.267 -10.888 -0.45 +0.00    +0.000 OA
DOCKED: ENDROOT
DOCKED: BRANCH   6  32
DOCKED: ATOM     32  C   UNL d   1      17.222  -6.099 -10.202 -0.12 +0.03    +0.052 C 
DOCKED: BRANCH  32  33
DOCKED: ATOM     33  C   UNL d   1      18.347  -6.695 -11.042 -0.03 +0.03    +0.115 C 
DOCKED: BRANCH  33  34
DOCKED: ATOM     34  C   UNL d   1      17.892  -7.883 -11.853 -0.02 +0.04    +0.139 C 
DOCKED: ATOM     35  O   UNL d   1      18.694  -8.475 -12.558 +0.01 -0.13    -0.650 OA
DOCKED: BRANCH  34  36
DOCKED: ATOM     36  O   UNL d   1      16.607  -8.292 -11.842 -0.01 -0.35    -0.776 OA
DOCKED: ATOM     37  H   UNL d   1      16.000  -8.091 -12.563 +0.02 +0.07    +0.167 HD
DOCKED: ENDBRANCH  34  36
DOCKED: ENDBRANCH  33  34
DOCKED: ENDBRANCH  32  33
DOCKED: ENDBRANCH   6  32
DOCKED: BRANCH  22  38
DOCKED: ATOM     38  C   UNL d   1      14.602  -4.369 -14.669 -0.14 +0.01    +0.052 C 
DOCKED: BRANCH  38  39
DOCKED: ATOM     39  C   UNL d   1      13.646  -5.215 -13.830 -0.13 +0.05    +0.115 C 
DOCKED: BRANCH  39  40
DOCKED: ATOM     40  C   UNL d   1      14.281  -6.496 -13.349 -0.15 +0.07    +0.139 C 
DOCKED: ATOM     41  O   UNL d   1      14.693  -7.309 -14.160 +0.02 -0.22    -0.650 OA
DOCKED: BRANCH  40  42
DOCKED: ATOM     42  O   UNL d   1      14.450  -6.738 -12.035 -0.13 -0.72    -0.776 OA
DOCKED: ATOM     43  H   UNL d   1      15.264  -7.128 -11.694 +0.02 +0.16    +0.167 HD
DOCKED: ENDBRANCH  40  42
DOCKED: ENDBRANCH  39  40
DOCKED: ENDBRANCH  38  39
DOCKED: ENDBRANCH  22  38
DOCKED: BRANCH  12  44
DOCKED: ATOM     44  C   UNL d   1      18.935   3.186  -7.396 -0.21 +0.00    +0.004 C 
DOCKED: ATOM     45  C   UNL d   1      19.598   4.191  -7.966 -0.15 +0.01    +0.012 C 
DOCKED: ENDBRANCH  12  44
DOCKED: BRANCH  17  46
DOCKED: ATOM     46  C   UNL d   1      14.088   3.480 -13.986 -0.34 +0.00    +0.004 C 
DOCKED: ATOM     47  C   UNL d   1      12.939   4.150 -13.826 -0.54 +0.00    +0.012 C 
DOCKED: ENDBRANCH  17  46
DOCKED: TORSDOF 10
DOCKED: TER
DOCKED: ENDMDL
________________________________________________________________________________


	BEGINNING GENETIC ALGORITHM DOCKING 52 of 100
Run: 52 Seed: 994030589 716900427 [ Run 52 of 100 GA/GALS ]
Beginning LAMARCKIAN GENETIC ALGORITHM (LGA), with a maximum of 25000000 energy evaluations.

Final-Value: -11.564


	FINAL GENETIC ALGORITHM DOCKED STATE
	_______________________________________________


Detailed state:  trans -9.033 -18.587 10.835 quatxyzw -0.221823 -0.755430 0.047353 -0.614717 center 8.287 34.468 -0.670 ntor 10 -106.2225 -15.1606 49.0180 -101.5885 22.2064 -85.1781 103.3114 106.4464 -131.0260 -170.3006
State:	 -9.033 -18.587  10.835  -0.281 -0.958  0.060 -104.137   -106.22  -15.16   49.02 -101.59   22.21  -85.18  103.31  106.45 -131.03 -170.30

DOCKED: MODEL       52
DOCKED: USER    Run = 52
DOCKED: USER    DPF = D:/Protein_go_brrr/autodock/final/AncB/heme_O2/dock.dpf
DOCKED: USER  
DOCKED: USER    Estimated Free Energy of Binding    =   -8.12 kcal/mol  [=(1)+(2)+(3)-(4)]
DOCKED: USER    Estimated Inhibition Constant, Ki   =    1.13 uM (micromolar)  [Temperature = 298.15 K]
DOCKED: USER    
DOCKED: USER    (1) Final Intermolecular Energy     =  -11.10 kcal/mol
DOCKED: USER        vdW + Hbond + desolv Energy     =   -5.51 kcal/mol
DOCKED: USER        Electrostatic Energy            =   -5.59 kcal/mol
DOCKED: USER    (2) Final Total Internal Energy     =   -0.47 kcal/mol
DOCKED: USER    (3) Torsional Free Energy           =   +2.98 kcal/mol
DOCKED: USER    (4) Unbound System's Energy  [=(2)] =   -0.47 kcal/mol
DOCKED: USER    
DOCKED: USER    
DOCKED: USER    NEWDPF move heme_O2_opt.pdbqt
DOCKED: USER    NEWDPF about 8.287000 34.468000 -0.670000
DOCKED: USER    NEWDPF tran0 -9.032693 -18.586868 10.834719
DOCKED: USER    NEWDPF quaternion0 -0.221823 -0.755430 0.047353 -0.614717
DOCKED: USER    NEWDPF axisangle0 -0.281235 -0.957759 0.060036 -104.137214
DOCKED: USER    NEWDPF quat0 -0.281235 -0.957759 0.060036 -104.137214
DOCKED: USER    NEWDPF dihe0 -106.22 -15.16 49.02 -101.59 22.21 -85.18 103.31 106.45 -131.03 -170.30 
DOCKED: USER  keepresnum = 1 
DOCKED: USER  
DOCKED: REMARK  10 active torsions:
DOCKED: REMARK  status: ('A' for Active; 'I' for Inactive)
DOCKED: REMARK    1  A    between atoms: C_6  and  C_10 
DOCKED: REMARK    2  A    between atoms: C_10  and  C_11 
DOCKED: REMARK    3  A    between atoms: C_11  and  C_12 
DOCKED: REMARK    4  A    between atoms: C_12  and  O_14 
DOCKED: REMARK    5  A    between atoms: C_17  and  C_20 
DOCKED: REMARK    6  A    between atoms: C_24  and  C_27 
DOCKED: REMARK    7  A    between atoms: C_31  and  C_34 
DOCKED: REMARK    8  A    between atoms: C_34  and  C_35 
DOCKED: REMARK    9  A    between atoms: C_35  and  C_36 
DOCKED: REMARK   10  A    between atoms: C_36  and  O_38 
DOCKED: USER                              x       y       z     vdW  Elec       q    Type
DOCKED: USER                           _______ _______ _______ _____ _____    ______ ____
DOCKED: ROOT
DOCKED: ATOM      1  C   UNL d   1      -7.833 -18.943   9.122 -0.02 +0.09    +0.064 A 
DOCKED: ATOM      2  C   UNL d   1     -12.281 -20.182  10.238 -0.05 +0.04    +0.064 A 
DOCKED: ATOM      3  C   UNL d   1     -11.903 -18.030  14.519 -0.09 +0.02    +0.064 C 
DOCKED: ATOM      4  C   UNL d   1      -7.494 -16.340  13.190 -0.09 +0.03    +0.064 A 
DOCKED: ATOM      5  C   UNL d   1      -9.074 -19.454   9.075 +0.03 +0.10    +0.066 A 
DOCKED: ATOM      6  C   UNL d   1      -9.580 -20.187   7.998 -0.06 -0.02    -0.021 A 
DOCKED: ATOM      7  C   UNL d   1     -10.882 -20.509   8.301 -0.06 -0.02    -0.025 A 
DOCKED: ATOM      8  C   UNL d   1     -11.121 -20.006   9.577 -0.08 +0.06    +0.066 A 
DOCKED: ATOM      9  C   UNL d   1     -11.832 -21.238   7.376 -0.03 +0.03    +0.051 C 
DOCKED: ATOM     10  C   UNL d   1     -12.582 -19.698  11.586 -0.06 +0.03    +0.066 A 
DOCKED: ATOM     11  C   UNL d   1     -13.740 -20.048  12.289 -0.03 -0.01    -0.021 A 
DOCKED: ATOM     12  C   UNL d   1     -13.641 -19.452  13.533 -0.06 +0.00    +0.000 A 
DOCKED: ATOM     13  C   UNL d   1     -12.406 -18.746  13.513 -0.08 +0.02    +0.070 A 
DOCKED: ATOM     14  C   UNL d   1     -14.880 -20.936  11.805 -0.01 +0.01    +0.052 C 
DOCKED: ATOM     15  C   UNL d   1     -10.675 -17.273  14.527 -0.04 +0.02    +0.066 A 
DOCKED: ATOM     16  C   UNL d   1     -10.284 -16.412  15.552 -0.08 -0.00    -0.021 A 
DOCKED: ATOM     17  C   UNL d   1      -9.030 -15.917  15.194 -0.10 +0.00    +0.000 A 
DOCKED: ATOM     18  C   UNL d   1      -8.745 -16.523  13.963 -0.09 +0.02    +0.070 A 
DOCKED: ATOM     19  C   UNL d   1     -11.157 -16.098  16.741 -0.10 +0.01    +0.052 C 
DOCKED: ATOM     20  C   UNL d   1      -7.207 -16.872  11.986 -0.09 +0.04    +0.066 A 
DOCKED: ATOM     21  C   UNL d   1      -6.003 -16.677  11.314 -0.06 -0.01    -0.025 A 
DOCKED: ATOM     22  C   UNL d   1      -6.071 -17.434  10.165 -0.06 -0.02    -0.021 A 
DOCKED: ATOM     23  C   UNL d   1      -7.327 -18.050  10.170 -0.08 +0.07    +0.066 A 
DOCKED: ATOM     24  C   UNL d   1      -4.848 -15.811  11.744 -0.03 +0.02    +0.051 C 
DOCKED: ATOM     25  N   UNL d   1     -10.028 -19.300  10.026 -0.08 -0.31    -0.248 N 
DOCKED: ATOM     26  N   UNL d   1     -11.771 -18.897  12.324 -0.07 -0.14    -0.248 N 
DOCKED: ATOM     27  N   UNL d   1      -9.786 -17.284  13.537 -0.09 -0.10    -0.248 N 
DOCKED: ATOM     28  N   UNL d   1      -8.031 -17.670  11.256 -0.09 -0.23    -0.248 N 
DOCKED: ATOM     29 FE   UNL d   1      -9.887 -18.277  11.788 -0.03 +0.00    +0.000 Fe
DOCKED: ATOM     30  O   UNL d   1     -10.866 -17.632  10.764 -0.91 +0.00    +0.000 OA
DOCKED: ATOM     31  O   UNL d   1      -9.928 -16.713  11.635 -0.62 +0.00    +0.000 OA
DOCKED: ENDROOT
DOCKED: BRANCH   6  32
DOCKED: ATOM     32  C   UNL d   1      -8.914 -20.458   6.673 -0.04 +0.05    +0.052 C 
DOCKED: BRANCH  32  33
DOCKED: ATOM     33  C   UNL d   1      -8.304 -19.206   6.050 -0.09 +0.17    +0.115 C 
DOCKED: BRANCH  33  34
DOCKED: ATOM     34  C   UNL d   1      -9.337 -18.335   5.379 -0.12 +0.29    +0.139 C 
DOCKED: ATOM     35  O   UNL d   1      -9.160 -17.965   4.230 -0.19 -1.56    -0.650 OA
DOCKED: BRANCH  34  36
DOCKED: ATOM     36  O   UNL d   1     -10.445 -17.929   6.033 -0.29 -1.88    -0.776 OA
DOCKED: ATOM     37  H   UNL d   1     -11.313 -18.306   5.850 +0.02 +0.27    +0.167 HD
DOCKED: ENDBRANCH  34  36
DOCKED: ENDBRANCH  33  34
DOCKED: ENDBRANCH  32  33
DOCKED: ENDBRANCH   6  32
DOCKED: BRANCH  22  38
DOCKED: ATOM     38  C   UNL d   1      -5.012 -17.505   9.096 -0.02 +0.04    +0.052 C 
DOCKED: BRANCH  38  39
DOCKED: ATOM     39  C   UNL d   1      -4.872 -16.192   8.328 -0.05 +0.09    +0.115 C 
DOCKED: BRANCH  39  40
DOCKED: ATOM     40  C   UNL d   1      -6.006 -15.968   7.359 -0.15 +0.21    +0.139 C 
DOCKED: ATOM     41  O   UNL d   1      -7.154 -15.914   7.771 -0.58 -1.53    -0.650 OA
DOCKED: BRANCH  40  42
DOCKED: ATOM     42  O   UNL d   1      -5.772 -15.773   6.047 -0.48 -1.73    -0.776 OA
DOCKED: ATOM     43  H   UNL d   1      -4.884 -15.595   5.713 +0.04 +0.25    +0.167 HD
DOCKED: ENDBRANCH  40  42
DOCKED: ENDBRANCH  39  40
DOCKED: ENDBRANCH  38  39
DOCKED: ENDBRANCH  22  38
DOCKED: BRANCH  12  44
DOCKED: ATOM     44  C   UNL d   1     -14.715 -19.611  14.588 -0.02 +0.00    +0.004 C 
DOCKED: ATOM     45  C   UNL d   1     -15.245 -18.668  15.366 -0.03 +0.00    +0.012 C 
DOCKED: ENDBRANCH  12  44
DOCKED: BRANCH  17  46
DOCKED: ATOM     46  C   UNL d   1      -8.136 -14.910  15.868 -0.08 +0.00    +0.004 C 
DOCKED: ATOM     47  C   UNL d   1      -7.859 -13.658  15.481 -0.13 +0.00    +0.012 C 
DOCKED: ENDBRANCH  17  46
DOCKED: TORSDOF 10
DOCKED: TER
DOCKED: ENDMDL
________________________________________________________________________________


	BEGINNING GENETIC ALGORITHM DOCKING 53 of 100
Run: 53 Seed: 47320886 1151857255 [ Run 53 of 100 GA/GALS ]
Beginning LAMARCKIAN GENETIC ALGORITHM (LGA), with a maximum of 25000000 energy evaluations.

Final-Value: -20.057


	FINAL GENETIC ALGORITHM DOCKED STATE
	_______________________________________________


Detailed state:  trans 0.238 -1.627 -8.875 quatxyzw -0.285715 -0.300544 -0.247210 -0.875744 center 8.287 34.468 -0.670 ntor 10 22.8467 -166.9178 28.5174 -55.2687 -158.2140 45.0879 -5.1481 66.6668 -165.0419 -180.0000
State:	  0.238  -1.627  -8.875  -0.592 -0.623 -0.512 -57.734     22.85 -166.92   28.52  -55.27 -158.21   45.09   -5.15   66.67 -165.04 -180.00

DOCKED: MODEL       53
DOCKED: USER    Run = 53
DOCKED: USER    DPF = D:/Protein_go_brrr/autodock/final/AncB/heme_O2/dock.dpf
DOCKED: USER  
DOCKED: USER    Estimated Free Energy of Binding    =  -15.41 kcal/mol  [=(1)+(2)+(3)-(4)]
DOCKED: USER    Estimated Inhibition Constant, Ki   =    5.06 pM (picomolar)  [Temperature = 298.15 K]
DOCKED: USER    
DOCKED: USER    (1) Final Intermolecular Energy     =  -18.39 kcal/mol
DOCKED: USER        vdW + Hbond + desolv Energy     =  -15.71 kcal/mol
DOCKED: USER        Electrostatic Energy            =   -2.69 kcal/mol
DOCKED: USER    (2) Final Total Internal Energy     =   -1.66 kcal/mol
DOCKED: USER    (3) Torsional Free Energy           =   +2.98 kcal/mol
DOCKED: USER    (4) Unbound System's Energy  [=(2)] =   -1.66 kcal/mol
DOCKED: USER    
DOCKED: USER    
DOCKED: USER    NEWDPF move heme_O2_opt.pdbqt
DOCKED: USER    NEWDPF about 8.287000 34.468000 -0.670000
DOCKED: USER    NEWDPF tran0 0.238046 -1.627048 -8.875354
DOCKED: USER    NEWDPF quaternion0 -0.285715 -0.300544 -0.247210 -0.875744
DOCKED: USER    NEWDPF axisangle0 -0.591817 -0.622534 -0.512059 -57.733698
DOCKED: USER    NEWDPF quat0 -0.591817 -0.622534 -0.512059 -57.733698
DOCKED: USER    NEWDPF dihe0 22.85 -166.92 28.52 -55.27 -158.21 45.09 -5.15 66.67 -165.04 -180.00 
DOCKED: USER  keepresnum = 1 
DOCKED: USER  
DOCKED: REMARK  10 active torsions:
DOCKED: REMARK  status: ('A' for Active; 'I' for Inactive)
DOCKED: REMARK    1  A    between atoms: C_6  and  C_10 
DOCKED: REMARK    2  A    between atoms: C_10  and  C_11 
DOCKED: REMARK    3  A    between atoms: C_11  and  C_12 
DOCKED: REMARK    4  A    between atoms: C_12  and  O_14 
DOCKED: REMARK    5  A    between atoms: C_17  and  C_20 
DOCKED: REMARK    6  A    between atoms: C_24  and  C_27 
DOCKED: REMARK    7  A    between atoms: C_31  and  C_34 
DOCKED: REMARK    8  A    between atoms: C_34  and  C_35 
DOCKED: REMARK    9  A    between atoms: C_35  and  C_36 
DOCKED: REMARK   10  A    between atoms: C_36  and  O_38 
DOCKED: USER                              x       y       z     vdW  Elec       q    Type
DOCKED: USER                           _______ _______ _______ _____ _____    ______ ____
DOCKED: ROOT
DOCKED: ATOM      1  C   UNL d   1      -0.393  -1.228 -10.861 -0.27 +0.04    +0.064 A 
DOCKED: ATOM      2  C   UNL d   1      -2.651  -1.077  -6.685 -0.39 +0.02    +0.064 A 
DOCKED: ATOM      3  C   UNL d   1       1.315  -2.516  -4.384 -0.44 +0.01    +0.064 C 
DOCKED: ATOM      4  C   UNL d   1       3.780  -2.214  -8.614 -0.43 +0.02    +0.064 A 
DOCKED: ATOM      5  C   UNL d   1      -1.331  -1.068  -9.912 -0.30 +0.04    +0.066 A 
DOCKED: ATOM      6  C   UNL d   1      -2.647  -0.677 -10.171 -0.31 -0.02    -0.021 A 
DOCKED: ATOM      7  C   UNL d   1      -3.290  -0.591  -8.958 -0.34 -0.01    -0.025 A 
DOCKED: ATOM      8  C   UNL d   1      -2.362  -0.978  -7.996 -0.36 +0.03    +0.066 A 
DOCKED: ATOM      9  C   UNL d   1      -4.718  -0.126  -8.766 -0.36 +0.02    +0.051 C 
DOCKED: ATOM     10  C   UNL d   1      -1.726  -1.500  -5.632 -0.41 +0.02    +0.066 A 
DOCKED: ATOM     11  C   UNL d   1      -2.122  -1.742  -4.312 -0.48 -0.00    -0.021 A 
DOCKED: ATOM     12  C   UNL d   1      -0.995  -2.176  -3.637 -0.44 +0.00    +0.000 A 
DOCKED: ATOM     13  C   UNL d   1       0.049  -2.161  -4.602 -0.40 +0.01    +0.070 A 
DOCKED: ATOM     14  C   UNL d   1      -3.521  -1.594  -3.726 -0.56 +0.01    +0.052 C 
DOCKED: ATOM     15  C   UNL d   1       2.409  -2.482  -5.324 -0.40 +0.01    +0.066 A 
DOCKED: ATOM     16  C   UNL d   1       3.745  -2.709  -4.992 -0.51 -0.00    -0.021 A 
DOCKED: ATOM     17  C   UNL d   1       4.467  -2.627  -6.183 -0.51 +0.00    +0.000 A 
DOCKED: ATOM     18  C   UNL d   1       3.505  -2.354  -7.165 -0.42 +0.02    +0.070 A 
DOCKED: ATOM     19  C   UNL d   1       4.214  -2.927  -3.576 -0.38 +0.00    +0.052 C 
DOCKED: ATOM     20  C   UNL d   1       2.889  -1.910  -9.577 -0.45 +0.02    +0.066 A 
DOCKED: ATOM     21  C   UNL d   1       3.205  -1.809 -10.929 -0.47 -0.01    -0.025 A 
DOCKED: ATOM     22  C   UNL d   1       2.022  -1.555 -11.588 -0.06 -0.01    -0.021 A 
DOCKED: ATOM     23  C   UNL d   1       1.028  -1.492 -10.607 -0.17 +0.03    +0.066 A 
DOCKED: ATOM     24  C   UNL d   1       4.566  -1.943 -11.561 -0.41 +0.01    +0.051 C 
DOCKED: ATOM     25  N   UNL d   1      -1.137  -1.209  -8.578 -0.22 -0.12    -0.248 N 
DOCKED: ATOM     26  N   UNL d   1      -0.403  -1.744  -5.812 -0.25 -0.07    -0.248 N 
DOCKED: ATOM     27  N   UNL d   1       2.273  -2.195  -6.616 -0.24 -0.08    -0.248 N 
DOCKED: ATOM     28  N   UNL d   1       1.566  -1.664  -9.382 -0.15 -0.13    -0.248 N 
DOCKED: ATOM     29 FE   UNL d   1       0.591  -1.704  -7.609 -0.09 +0.00    +0.000 Fe
DOCKED: ATOM     30  O   UNL d   1       0.116  -0.246  -7.341 -0.72 +0.00    +0.000 OA
DOCKED: ATOM     31  O   UNL d   1       1.651  -0.544  -7.539 -1.09 +0.00    +0.000 OA
DOCKED: ENDROOT
DOCKED: BRANCH   6  32
DOCKED: ATOM     32  C   UNL d   1      -3.245  -0.265 -11.492 -0.22 +0.07    +0.052 C 
DOCKED: BRANCH  32  33
DOCKED: ATOM     33  C   UNL d   1      -2.944   1.186 -11.852 -0.18 +0.13    +0.115 C 
DOCKED: BRANCH  33  34
DOCKED: ATOM     34  C   UNL d   1      -3.392   1.537 -13.249 -0.05 +0.23    +0.139 C 
DOCKED: ATOM     35  O   UNL d   1      -4.531   1.277 -13.601 -0.14 -0.99    -0.650 OA
DOCKED: BRANCH  34  36
DOCKED: ATOM     36  O   UNL d   1      -2.550   2.109 -14.135 -0.25 -1.49    -0.776 OA
DOCKED: ATOM     37  H   UNL d   1      -1.592   2.025 -14.057 +0.04 +0.24    +0.167 HD
DOCKED: ENDBRANCH  34  36
DOCKED: ENDBRANCH  33  34
DOCKED: ENDBRANCH  32  33
DOCKED: ENDBRANCH   6  32
DOCKED: BRANCH  22  38
DOCKED: ATOM     38  C   UNL d   1       1.875  -1.322 -13.069 -0.17 +0.03    +0.052 C 
DOCKED: BRANCH  38  39
DOCKED: ATOM     39  C   UNL d   1       2.292   0.088 -13.482 -0.29 +0.05    +0.115 C 
DOCKED: BRANCH  39  40
DOCKED: ATOM     40  C   UNL d   1       1.135   0.902 -14.005 -0.19 +0.09    +0.139 C 
DOCKED: ATOM     41  O   UNL d   1       1.344   1.981 -14.535 +0.01 -0.40    -0.650 OA
DOCKED: BRANCH  40  42
DOCKED: ATOM     42  O   UNL d   1      -0.127   0.435 -13.944 +0.06 -0.70    -0.776 OA
DOCKED: ATOM     43  H   UNL d   1      -0.837   0.830 -14.466 +0.05 +0.18    +0.167 HD
DOCKED: ENDBRANCH  40  42
DOCKED: ENDBRANCH  39  40
DOCKED: ENDBRANCH  38  39
DOCKED: ENDBRANCH  22  38
DOCKED: BRANCH  12  44
DOCKED: ATOM     44  C   UNL d   1      -1.031  -2.548  -2.169 -0.48 +0.00    +0.004 C 
DOCKED: ATOM     45  C   UNL d   1      -0.021  -2.550  -1.300 -0.60 +0.00    +0.012 C 
DOCKED: ENDBRANCH  12  44
DOCKED: BRANCH  17  46
DOCKED: ATOM     46  C   UNL d   1       5.945  -2.724  -6.450 -0.63 +0.00    +0.004 C 
DOCKED: ATOM     47  C   UNL d   1       6.922  -1.926  -6.002 -0.66 +0.00    +0.012 C 
DOCKED: ENDBRANCH  17  46
DOCKED: TORSDOF 10
DOCKED: TER
DOCKED: ENDMDL
________________________________________________________________________________


	BEGINNING GENETIC ALGORITHM DOCKING 54 of 100
Run: 54 Seed: 1451395881 2067213272 [ Run 54 of 100 GA/GALS ]
Beginning LAMARCKIAN GENETIC ALGORITHM (LGA), with a maximum of 25000000 energy evaluations.

Final-Value: -11.658


	FINAL GENETIC ALGORITHM DOCKED STATE
	_______________________________________________


Detailed state:  trans -7.587 -1.433 -11.977 quatxyzw 0.164681 -0.786182 -0.239270 -0.545479 center 8.287 34.468 -0.670 ntor 10 32.3901 106.6148 50.1810 -27.5576 -117.2309 -159.8338 129.4209 -58.7354 20.5529 12.1852
State:	 -7.587  -1.433 -11.977   0.196 -0.938 -0.285 -113.885     32.39  106.61   50.18  -27.56 -117.23 -159.83  129.42  -58.74   20.55   12.19

DOCKED: MODEL       54
DOCKED: USER    Run = 54
DOCKED: USER    DPF = D:/Protein_go_brrr/autodock/final/AncB/heme_O2/dock.dpf
DOCKED: USER  
DOCKED: USER    Estimated Free Energy of Binding    =   -6.47 kcal/mol  [=(1)+(2)+(3)-(4)]
DOCKED: USER    Estimated Inhibition Constant, Ki   =   18.14 uM (micromolar)  [Temperature = 298.15 K]
DOCKED: USER    
DOCKED: USER    (1) Final Intermolecular Energy     =   -9.45 kcal/mol
DOCKED: USER        vdW + Hbond + desolv Energy     =   -5.39 kcal/mol
DOCKED: USER        Electrostatic Energy            =   -4.06 kcal/mol
DOCKED: USER    (2) Final Total Internal Energy     =   -2.21 kcal/mol
DOCKED: USER    (3) Torsional Free Energy           =   +2.98 kcal/mol
DOCKED: USER    (4) Unbound System's Energy  [=(2)] =   -2.21 kcal/mol
DOCKED: USER    
DOCKED: USER    
DOCKED: USER    NEWDPF move heme_O2_opt.pdbqt
DOCKED: USER    NEWDPF about 8.287000 34.468000 -0.670000
DOCKED: USER    NEWDPF tran0 -7.586683 -1.433497 -11.977186
DOCKED: USER    NEWDPF quaternion0 0.164681 -0.786182 -0.239270 -0.545479
DOCKED: USER    NEWDPF axisangle0 0.196487 -0.938026 -0.285482 -113.885176
DOCKED: USER    NEWDPF quat0 0.196487 -0.938026 -0.285482 -113.885176
DOCKED: USER    NEWDPF dihe0 32.39 106.61 50.18 -27.56 -117.23 -159.83 129.42 -58.74 20.55 12.19 
DOCKED: USER  keepresnum = 1 
DOCKED: USER  
DOCKED: REMARK  10 active torsions:
DOCKED: REMARK  status: ('A' for Active; 'I' for Inactive)
DOCKED: REMARK    1  A    between atoms: C_6  and  C_10 
DOCKED: REMARK    2  A    between atoms: C_10  and  C_11 
DOCKED: REMARK    3  A    between atoms: C_11  and  C_12 
DOCKED: REMARK    4  A    between atoms: C_12  and  O_14 
DOCKED: REMARK    5  A    between atoms: C_17  and  C_20 
DOCKED: REMARK    6  A    between atoms: C_24  and  C_27 
DOCKED: REMARK    7  A    between atoms: C_31  and  C_34 
DOCKED: REMARK    8  A    between atoms: C_34  and  C_35 
DOCKED: REMARK    9  A    between atoms: C_35  and  C_36 
DOCKED: REMARK   10  A    between atoms: C_36  and  O_38 
DOCKED: USER                              x       y       z     vdW  Elec       q    Type
DOCKED: USER                           _______ _______ _______ _____ _____    ______ ____
DOCKED: ROOT
DOCKED: ATOM      1  C   UNL d   1      -6.180  -0.118 -12.867 -0.09 +0.07    +0.064 A 
DOCKED: ATOM      2  C   UNL d   1     -10.070  -2.267 -14.544 +0.00 +0.03    +0.064 A 
DOCKED: ATOM      3  C   UNL d   1     -10.817  -4.420 -10.313 -0.12 +0.03    +0.064 C 
DOCKED: ATOM      4  C   UNL d   1      -7.090  -1.841  -8.435 -0.18 +0.02    +0.064 A 
DOCKED: ATOM      5  C   UNL d   1      -7.178  -0.525 -13.668 -0.04 +0.06    +0.066 A 
DOCKED: ATOM      6  C   UNL d   1      -7.314  -0.143 -15.005 -0.02 -0.02    -0.021 A 
DOCKED: ATOM      7  C   UNL d   1      -8.464  -0.730 -15.480 +0.00 -0.01    -0.025 A 
DOCKED: ATOM      8  C   UNL d   1      -8.973  -1.494 -14.432 -0.00 +0.04    +0.066 A 
DOCKED: ATOM      9  C   UNL d   1      -9.034  -0.522 -16.866 +0.01 +0.02    +0.051 C 
DOCKED: ATOM     10  C   UNL d   1     -10.638  -3.107 -13.489 -0.01 +0.03    +0.066 A 
DOCKED: ATOM     11  C   UNL d   1     -11.680  -4.015 -13.705 -0.03 -0.01    -0.021 A 
DOCKED: ATOM     12  C   UNL d   1     -11.898  -4.659 -12.501 -0.08 +0.00    +0.000 A 
DOCKED: ATOM     13  C   UNL d   1     -10.963  -4.086 -11.595 -0.06 +0.04    +0.070 A 
DOCKED: ATOM     14  C   UNL d   1     -12.419  -4.277 -15.012 -0.02 +0.03    +0.052 C 
DOCKED: ATOM     15  C   UNL d   1      -9.908  -3.840  -9.354 -0.12 +0.02    +0.066 A 
DOCKED: ATOM     16  C   UNL d   1      -9.916  -4.118  -7.988 -0.23 -0.00    -0.021 A 
DOCKED: ATOM     17  C   UNL d   1      -8.862  -3.393  -7.431 -0.32 +0.00    +0.000 A 
DOCKED: ATOM     18  C   UNL d   1      -8.281  -2.720  -8.515 -0.20 +0.02    +0.070 A 
DOCKED: ATOM     19  C   UNL d   1     -10.951  -4.998  -7.334 -0.16 +0.01    +0.052 C 
DOCKED: ATOM     20  C   UNL d   1      -6.533  -1.146  -9.446 -0.17 +0.03    +0.066 A 
DOCKED: ATOM     21  C   UNL d   1      -5.400  -0.349  -9.313 -0.25 -0.01    -0.025 A 
DOCKED: ATOM     22  C   UNL d   1      -5.110   0.129 -10.572 -0.21 -0.02    -0.021 A 
DOCKED: ATOM     23  C   UNL d   1      -6.092  -0.383 -11.426 -0.11 +0.06    +0.066 A 
DOCKED: ATOM     24  C   UNL d   1      -4.635  -0.054  -8.049 -0.41 +0.02    +0.051 C 
DOCKED: ATOM     25  N   UNL d   1      -8.216  -1.315 -13.297 -0.01 -0.16    -0.248 N 
DOCKED: ATOM     26  N   UNL d   1     -10.204  -3.139 -12.203 -0.01 -0.12    -0.248 N 
DOCKED: ATOM     27  N   UNL d   1      -8.974  -2.943  -9.660 -0.06 -0.09    -0.248 N 
DOCKED: ATOM     28  N   UNL d   1      -6.981  -1.121 -10.729 -0.06 -0.15    -0.248 N 
DOCKED: ATOM     29 FE   UNL d   1      -8.581  -2.123 -11.458 -0.02 +0.00    +0.000 Fe
DOCKED: ATOM     30  O   UNL d   1      -9.615  -1.041 -11.885 -0.02 +0.00    +0.000 OA
DOCKED: ATOM     31  O   UNL d   1      -9.113  -1.096 -10.393 -0.06 +0.00    +0.000 OA
DOCKED: ENDROOT
DOCKED: BRANCH   6  32
DOCKED: ATOM     32  C   UNL d   1      -6.475   0.845 -15.773 -0.02 +0.04    +0.052 C 
DOCKED: BRANCH  32  33
DOCKED: ATOM     33  C   UNL d   1      -5.501   0.174 -16.736 -0.02 +0.11    +0.115 C 
DOCKED: BRANCH  33  34
DOCKED: ATOM     34  C   UNL d   1      -4.648  -0.869 -16.057 +0.07 +0.23    +0.139 C 
DOCKED: ATOM     35  O   UNL d   1      -5.019  -2.031 -16.035 -0.12 -1.25    -0.650 OA
DOCKED: BRANCH  34  36
DOCKED: ATOM     36  O   UNL d   1      -3.490  -0.541 -15.446 -0.13 -1.75    -0.776 OA
DOCKED: ATOM     37  H   UNL d   1      -3.366   0.310 -15.009 +0.02 +0.29    +0.167 HD
DOCKED: ENDBRANCH  34  36
DOCKED: ENDBRANCH  33  34
DOCKED: ENDBRANCH  32  33
DOCKED: ENDBRANCH   6  32
DOCKED: BRANCH  22  38
DOCKED: ATOM     38  C   UNL d   1      -3.989   1.075 -10.916 -0.19 +0.05    +0.052 C 
DOCKED: BRANCH  38  39
DOCKED: ATOM     39  C   UNL d   1      -2.932   0.426 -11.806 -0.24 +0.14    +0.115 C 
DOCKED: BRANCH  39  40
DOCKED: ATOM     40  C   UNL d   1      -2.774   1.138 -13.126 -0.19 +0.21    +0.139 C 
DOCKED: ATOM     41  O   UNL d   1      -3.627   1.930 -13.494 -0.26 -1.26    -0.650 OA
DOCKED: BRANCH  40  42
DOCKED: ATOM     42  O   UNL d   1      -1.679   0.955 -13.889 +0.02 -1.02    -0.776 OA
DOCKED: ATOM     43  H   UNL d   1      -1.718   0.469 -14.721 +0.03 +0.24    +0.167 HD
DOCKED: ENDBRANCH  40  42
DOCKED: ENDBRANCH  39  40
DOCKED: ENDBRANCH  38  39
DOCKED: ENDBRANCH  22  38
DOCKED: BRANCH  12  44
DOCKED: ATOM     44  C   UNL d   1     -12.957  -5.729 -12.342 -0.02 +0.01    +0.004 C 
DOCKED: ATOM     45  C   UNL d   1     -13.849  -5.859 -11.361 -0.06 +0.01    +0.012 C 
DOCKED: ENDBRANCH  12  44
DOCKED: BRANCH  17  46
DOCKED: ATOM     46  C   UNL d   1      -8.411  -3.244  -6.003 -0.54 +0.00    +0.004 C 
DOCKED: ATOM     47  C   UNL d   1      -9.163  -3.219  -4.895 -0.65 +0.00    +0.012 C 
DOCKED: ENDBRANCH  17  46
DOCKED: TORSDOF 10
DOCKED: TER
DOCKED: ENDMDL
________________________________________________________________________________


	BEGINNING GENETIC ALGORITHM DOCKING 55 of 100
Run: 55 Seed: 1879603325 537213708 [ Run 55 of 100 GA/GALS ]
Beginning LAMARCKIAN GENETIC ALGORITHM (LGA), with a maximum of 25000000 energy evaluations.

Final-Value: -18.511


	FINAL GENETIC ALGORITHM DOCKED STATE
	_______________________________________________


Detailed state:  trans 0.347 -1.581 -8.742 quatxyzw -0.284568 -0.341550 -0.244653 -0.861690 center 8.287 34.468 -0.670 ntor 10 21.0953 -139.8721 40.1974 -135.3429 -146.1209 -145.1871 -22.6503 41.5840 -166.5888 157.2956
State:	  0.347  -1.581  -8.742  -0.561 -0.673 -0.482 -60.986     21.10 -139.87   40.20 -135.34 -146.12 -145.19  -22.65   41.58 -166.59  157.30

DOCKED: MODEL       55
DOCKED: USER    Run = 55
DOCKED: USER    DPF = D:/Protein_go_brrr/autodock/final/AncB/heme_O2/dock.dpf
DOCKED: USER  
DOCKED: USER    Estimated Free Energy of Binding    =  -14.12 kcal/mol  [=(1)+(2)+(3)-(4)]
DOCKED: USER    Estimated Inhibition Constant, Ki   =   44.83 pM (picomolar)  [Temperature = 298.15 K]
DOCKED: USER    
DOCKED: USER    (1) Final Intermolecular Energy     =  -17.10 kcal/mol
DOCKED: USER        vdW + Hbond + desolv Energy     =  -14.77 kcal/mol
DOCKED: USER        Electrostatic Energy            =   -2.33 kcal/mol
DOCKED: USER    (2) Final Total Internal Energy     =   -1.41 kcal/mol
DOCKED: USER    (3) Torsional Free Energy           =   +2.98 kcal/mol
DOCKED: USER    (4) Unbound System's Energy  [=(2)] =   -1.41 kcal/mol
DOCKED: USER    
DOCKED: USER    
DOCKED: USER    NEWDPF move heme_O2_opt.pdbqt
DOCKED: USER    NEWDPF about 8.287000 34.468000 -0.670000
DOCKED: USER    NEWDPF tran0 0.347268 -1.580977 -8.742096
DOCKED: USER    NEWDPF quaternion0 -0.284568 -0.341550 -0.244653 -0.861690
DOCKED: USER    NEWDPF axisangle0 -0.560797 -0.673090 -0.482137 -60.986332
DOCKED: USER    NEWDPF quat0 -0.560797 -0.673090 -0.482137 -60.986332
DOCKED: USER    NEWDPF dihe0 21.10 -139.87 40.20 -135.34 -146.12 -145.19 -22.65 41.58 -166.59 157.30 
DOCKED: USER  keepresnum = 1 
DOCKED: USER  
DOCKED: REMARK  10 active torsions:
DOCKED: REMARK  status: ('A' for Active; 'I' for Inactive)
DOCKED: REMARK    1  A    between atoms: C_6  and  C_10 
DOCKED: REMARK    2  A    between atoms: C_10  and  C_11 
DOCKED: REMARK    3  A    between atoms: C_11  and  C_12 
DOCKED: REMARK    4  A    between atoms: C_12  and  O_14 
DOCKED: REMARK    5  A    between atoms: C_17  and  C_20 
DOCKED: REMARK    6  A    between atoms: C_24  and  C_27 
DOCKED: REMARK    7  A    between atoms: C_31  and  C_34 
DOCKED: REMARK    8  A    between atoms: C_34  and  C_35 
DOCKED: REMARK    9  A    between atoms: C_35  and  C_36 
DOCKED: REMARK   10  A    between atoms: C_36  and  O_38 
DOCKED: USER                              x       y       z     vdW  Elec       q    Type
DOCKED: USER                           _______ _______ _______ _____ _____    ______ ____
DOCKED: ROOT
DOCKED: ATOM      1  C   UNL d   1      -0.132  -1.250 -10.782 -0.24 +0.04    +0.064 A 
DOCKED: ATOM      2  C   UNL d   1      -2.718  -1.038  -6.803 -0.38 +0.02    +0.064 A 
DOCKED: ATOM      3  C   UNL d   1       1.082  -2.324  -4.156 -0.41 +0.01    +0.064 C 
DOCKED: ATOM      4  C   UNL d   1       3.869  -2.080  -8.185 -0.43 +0.02    +0.064 A 
DOCKED: ATOM      5  C   UNL d   1      -1.145  -1.085  -9.915 -0.29 +0.04    +0.066 A 
DOCKED: ATOM      6  C   UNL d   1      -2.445  -0.732 -10.289 -0.32 -0.02    -0.021 A 
DOCKED: ATOM      7  C   UNL d   1      -3.184  -0.628  -9.133 -0.33 -0.01    -0.025 A 
DOCKED: ATOM      8  C   UNL d   1      -2.327  -0.968  -8.090 -0.36 +0.03    +0.066 A 
DOCKED: ATOM      9  C   UNL d   1      -4.631  -0.191  -9.068 -0.34 +0.03    +0.051 C 
DOCKED: ATOM     10  C   UNL d   1      -1.871  -1.411  -5.669 -0.41 +0.02    +0.066 A 
DOCKED: ATOM     11  C   UNL d   1      -2.365  -1.627  -4.378 -0.50 -0.00    -0.021 A 
DOCKED: ATOM     12  C   UNL d   1      -1.288  -2.016  -3.604 -0.45 +0.00    +0.000 A 
DOCKED: ATOM     13  C   UNL d   1      -0.170  -2.003  -4.483 -0.39 +0.01    +0.070 A 
DOCKED: ATOM     14  C   UNL d   1      -3.810  -1.494  -3.909 -0.46 +0.01    +0.052 C 
DOCKED: ATOM     15  C   UNL d   1       2.246  -2.290  -5.007 -0.37 +0.01    +0.066 A 
DOCKED: ATOM     16  C   UNL d   1       3.555  -2.478  -4.564 -0.51 -0.00    -0.021 A 
DOCKED: ATOM     17  C   UNL d   1       4.368  -2.412  -5.696 -0.52 +0.00    +0.000 A 
DOCKED: ATOM     18  C   UNL d   1       3.482  -2.187  -6.759 -0.42 +0.02    +0.070 A 
DOCKED: ATOM     19  C   UNL d   1       3.915  -2.647  -3.110 -0.00 +0.00    +0.052 C 
DOCKED: ATOM     20  C   UNL d   1       3.051  -1.822  -9.224 -0.43 +0.02    +0.066 A 
DOCKED: ATOM     21  C   UNL d   1       3.471  -1.750 -10.549 -0.49 -0.01    -0.025 A 
DOCKED: ATOM     22  C   UNL d   1       2.340  -1.541 -11.306 -0.28 -0.01    -0.021 A 
DOCKED: ATOM     23  C   UNL d   1       1.269  -1.475 -10.409 -0.21 +0.03    +0.066 A 
DOCKED: ATOM     24  C   UNL d   1       4.881  -1.871 -11.067 -0.23 +0.01    +0.051 C 
DOCKED: ATOM     25  N   UNL d   1      -1.055  -1.186  -8.566 -0.21 -0.12    -0.248 N 
DOCKED: ATOM     26  N   UNL d   1      -0.533  -1.630  -5.737 -0.25 -0.07    -0.248 N 
DOCKED: ATOM     27  N   UNL d   1       2.208  -2.041  -6.313 -0.24 -0.07    -0.248 N 
DOCKED: ATOM     28  N   UNL d   1       1.712  -1.601  -9.141 -0.03 -0.13    -0.248 N 
DOCKED: ATOM     29 FE   UNL d   1       0.600  -1.616  -7.450 -0.09 +0.00    +0.000 Fe
DOCKED: ATOM     30  O   UNL d   1       0.075  -0.162  -7.262 -0.53 +0.00    +0.000 OA
DOCKED: ATOM     31  O   UNL d   1       1.626  -0.430  -7.330 -1.08 +0.00    +0.000 OA
DOCKED: ENDROOT
DOCKED: BRANCH   6  32
DOCKED: ATOM     32  C   UNL d   1      -2.944  -0.370 -11.663 -0.19 +0.07    +0.052 C 
DOCKED: BRANCH  32  33
DOCKED: ATOM     33  C   UNL d   1      -2.678   1.088 -12.025 -0.22 +0.14    +0.115 C 
DOCKED: BRANCH  33  34
DOCKED: ATOM     34  C   UNL d   1      -2.607   1.307 -13.516 -0.19 +0.21    +0.139 C 
DOCKED: ATOM     35  O   UNL d   1      -3.590   1.089 -14.206 -0.20 -1.09    -0.650 OA
DOCKED: BRANCH  34  36
DOCKED: ATOM     36  O   UNL d   1      -1.468   1.713 -14.114 +0.01 -1.03    -0.776 OA
DOCKED: ATOM     37  H   UNL d   1      -0.604   1.594 -13.702 +0.05 +0.17    +0.167 HD
DOCKED: ENDBRANCH  34  36
DOCKED: ENDBRANCH  33  34
DOCKED: ENDBRANCH  32  33
DOCKED: ENDBRANCH   6  32
DOCKED: BRANCH  22  38
DOCKED: ATOM     38  C   UNL d   1       2.306  -1.352 -12.801 -0.23 +0.02    +0.052 C 
DOCKED: BRANCH  38  39
DOCKED: ATOM     39  C   UNL d   1       2.174   0.116 -13.199 -0.28 +0.05    +0.115 C 
DOCKED: BRANCH  39  40
DOCKED: ATOM     40  C   UNL d   1       1.235   0.316 -14.362 -0.16 +0.08    +0.139 C 
DOCKED: ATOM     41  O   UNL d   1       0.693  -0.649 -14.876 +0.02 -0.47    -0.650 OA
DOCKED: BRANCH  40  42
DOCKED: ATOM     42  O   UNL d   1       0.942   1.550 -14.816 +0.08 -0.52    -0.776 OA
DOCKED: ATOM     43  H   UNL d   1       0.040   1.800 -15.052 +0.05 +0.14    +0.167 HD
DOCKED: ENDBRANCH  40  42
DOCKED: ENDBRANCH  39  40
DOCKED: ENDBRANCH  38  39
DOCKED: ENDBRANCH  22  38
DOCKED: BRANCH  12  44
DOCKED: ATOM     44  C   UNL d   1      -1.433  -2.349  -2.134 -0.49 +0.00    +0.004 C 
DOCKED: ATOM     45  C   UNL d   1      -0.567  -2.107  -1.150 -0.57 +0.00    +0.012 C 
DOCKED: ENDBRANCH  12  44
DOCKED: BRANCH  17  46
DOCKED: ATOM     46  C   UNL d   1       5.864  -2.482  -5.843 -0.66 +0.00    +0.004 C 
DOCKED: ATOM     47  C   UNL d   1       6.648  -1.791  -6.681 -0.61 +0.00    +0.012 C 
DOCKED: ENDBRANCH  17  46
DOCKED: TORSDOF 10
DOCKED: TER
DOCKED: ENDMDL
________________________________________________________________________________


	BEGINNING GENETIC ALGORITHM DOCKING 56 of 100
Run: 56 Seed: 308283942 1093115237 [ Run 56 of 100 GA/GALS ]
Beginning LAMARCKIAN GENETIC ALGORITHM (LGA), with a maximum of 25000000 energy evaluations.

Final-Value: -20.088


	FINAL GENETIC ALGORITHM DOCKED STATE
	_______________________________________________


Detailed state:  trans 0.208 -1.551 -8.672 quatxyzw 0.279110 0.313634 0.220507 0.880402 center 8.287 34.468 -0.670 ntor 10 107.4737 -147.9405 21.3167 14.1082 -179.7255 -176.7501 -33.4539 68.1246 -164.8774 -180.0000
State:	  0.208  -1.551  -8.672   0.589  0.661  0.465 56.618    107.47 -147.94   21.32   14.11 -179.73 -176.75  -33.45   68.12 -164.88 -180.00

DOCKED: MODEL       56
DOCKED: USER    Run = 56
DOCKED: USER    DPF = D:/Protein_go_brrr/autodock/final/AncB/heme_O2/dock.dpf
DOCKED: USER  
DOCKED: USER    Estimated Free Energy of Binding    =  -15.17 kcal/mol  [=(1)+(2)+(3)-(4)]
DOCKED: USER    Estimated Inhibition Constant, Ki   =    7.64 pM (picomolar)  [Temperature = 298.15 K]
DOCKED: USER    
DOCKED: USER    (1) Final Intermolecular Energy     =  -18.15 kcal/mol
DOCKED: USER        vdW + Hbond + desolv Energy     =  -15.33 kcal/mol
DOCKED: USER        Electrostatic Energy            =   -2.82 kcal/mol
DOCKED: USER    (2) Final Total Internal Energy     =   -1.94 kcal/mol
DOCKED: USER    (3) Torsional Free Energy           =   +2.98 kcal/mol
DOCKED: USER    (4) Unbound System's Energy  [=(2)] =   -1.94 kcal/mol
DOCKED: USER    
DOCKED: USER    
DOCKED: USER    NEWDPF move heme_O2_opt.pdbqt
DOCKED: USER    NEWDPF about 8.287000 34.468000 -0.670000
DOCKED: USER    NEWDPF tran0 0.208396 -1.551328 -8.672157
DOCKED: USER    NEWDPF quaternion0 0.279110 0.313634 0.220507 0.880402
DOCKED: USER    NEWDPF axisangle0 0.588556 0.661358 0.464981 56.618151
DOCKED: USER    NEWDPF quat0 0.588556 0.661358 0.464981 56.618151
DOCKED: USER    NEWDPF dihe0 107.47 -147.94 21.32 14.11 -179.73 -176.75 -33.45 68.12 -164.88 -180.00 
DOCKED: USER  keepresnum = 1 
DOCKED: USER  
DOCKED: REMARK  10 active torsions:
DOCKED: REMARK  status: ('A' for Active; 'I' for Inactive)
DOCKED: REMARK    1  A    between atoms: C_6  and  C_10 
DOCKED: REMARK    2  A    between atoms: C_10  and  C_11 
DOCKED: REMARK    3  A    between atoms: C_11  and  C_12 
DOCKED: REMARK    4  A    between atoms: C_12  and  O_14 
DOCKED: REMARK    5  A    between atoms: C_17  and  C_20 
DOCKED: REMARK    6  A    between atoms: C_24  and  C_27 
DOCKED: REMARK    7  A    between atoms: C_31  and  C_34 
DOCKED: REMARK    8  A    between atoms: C_34  and  C_35 
DOCKED: REMARK    9  A    between atoms: C_35  and  C_36 
DOCKED: REMARK   10  A    between atoms: C_36  and  O_38 
DOCKED: USER                              x       y       z     vdW  Elec       q    Type
DOCKED: USER                           _______ _______ _______ _____ _____    ______ ____
DOCKED: ROOT
DOCKED: ATOM      1  C   UNL d   1      -0.429  -1.207 -10.666 -0.26 +0.04    +0.064 A 
DOCKED: ATOM      2  C   UNL d   1      -2.727  -1.160  -6.509 -0.38 +0.02    +0.064 A 
DOCKED: ATOM      3  C   UNL d   1       1.300  -2.337  -4.165 -0.38 +0.01    +0.064 C 
DOCKED: ATOM      4  C   UNL d   1       3.777  -1.921  -8.378 -0.42 +0.02    +0.064 A 
DOCKED: ATOM      5  C   UNL d   1      -1.382  -1.096  -9.726 -0.30 +0.04    +0.066 A 
DOCKED: ATOM      6  C   UNL d   1      -2.718  -0.788  -9.999 -0.32 -0.02    -0.021 A 
DOCKED: ATOM      7  C   UNL d   1      -3.375  -0.731  -8.792 -0.33 -0.01    -0.025 A 
DOCKED: ATOM      8  C   UNL d   1      -2.433  -1.054  -7.819 -0.36 +0.03    +0.066 A 
DOCKED: ATOM      9  C   UNL d   1      -4.830  -0.353  -8.615 -0.35 +0.02    +0.051 C 
DOCKED: ATOM     10  C   UNL d   1      -1.787  -1.517  -5.446 -0.41 +0.02    +0.066 A 
DOCKED: ATOM     11  C   UNL d   1      -2.178  -1.773  -4.127 -0.49 -0.00    -0.021 A 
DOCKED: ATOM     12  C   UNL d   1      -1.034  -2.131  -3.439 -0.43 +0.00    +0.000 A 
DOCKED: ATOM     13  C   UNL d   1       0.016  -2.061  -4.396 -0.39 +0.01    +0.070 A 
DOCKED: ATOM     14  C   UNL d   1      -3.589  -1.704  -3.553 -0.58 +0.01    +0.052 C 
DOCKED: ATOM     15  C   UNL d   1       2.398  -2.244  -5.097 -0.38 +0.01    +0.066 A 
DOCKED: ATOM     16  C   UNL d   1       3.741  -2.388  -4.752 -0.51 -0.00    -0.021 A 
DOCKED: ATOM     17  C   UNL d   1       4.467  -2.272  -5.938 -0.51 +0.00    +0.000 A 
DOCKED: ATOM     18  C   UNL d   1       3.498  -2.066  -6.930 -0.42 +0.02    +0.070 A 
DOCKED: ATOM     19  C   UNL d   1       4.211  -2.566  -3.330 -0.50 +0.00    +0.052 C 
DOCKED: ATOM     20  C   UNL d   1       2.877  -1.679  -9.351 -0.42 +0.02    +0.066 A 
DOCKED: ATOM     21  C   UNL d   1       3.198  -1.569 -10.701 -0.47 -0.01    -0.025 A 
DOCKED: ATOM     22  C   UNL d   1       2.008  -1.393 -11.371 -0.24 -0.01    -0.021 A 
DOCKED: ATOM     23  C   UNL d   1       1.003  -1.383 -10.399 -0.17 +0.03    +0.066 A 
DOCKED: ATOM     24  C   UNL d   1       4.570  -1.627 -11.320 -0.40 +0.01    +0.051 C 
DOCKED: ATOM     25  N   UNL d   1      -1.191  -1.215  -8.389 -0.22 -0.12    -0.248 N 
DOCKED: ATOM     26  N   UNL d   1      -0.450  -1.682  -5.613 -0.25 -0.06    -0.248 N 
DOCKED: ATOM     27  N   UNL d   1       2.255  -1.977  -6.392 -0.24 -0.07    -0.248 N 
DOCKED: ATOM     28  N   UNL d   1       1.540  -1.512  -9.168 -0.02 -0.14    -0.248 N 
DOCKED: ATOM     29 FE   UNL d   1       0.555  -1.597  -7.402 -0.09 +0.00    +0.000 Fe
DOCKED: ATOM     30  O   UNL d   1      -0.010  -0.168  -7.150 -0.29 +0.00    +0.000 OA
DOCKED: ATOM     31  O   UNL d   1       1.542  -0.374  -7.334 -1.06 +0.00    +0.000 OA
DOCKED: ENDROOT
DOCKED: BRANCH   6  32
DOCKED: ATOM     32  C   UNL d   1      -3.329  -0.424 -11.327 -0.26 +0.07    +0.052 C 
DOCKED: BRANCH  32  33
DOCKED: ATOM     33  C   UNL d   1      -3.109   1.039 -11.700 -0.19 +0.13    +0.115 C 
DOCKED: BRANCH  33  34
DOCKED: ATOM     34  C   UNL d   1      -2.899   1.231 -13.181 -0.18 +0.21    +0.139 C 
DOCKED: ATOM     35  O   UNL d   1      -3.418   0.456 -13.969 -0.07 -1.19    -0.650 OA
DOCKED: BRANCH  34  36
DOCKED: ATOM     36  O   UNL d   1      -2.124   2.226 -13.659 -0.05 -1.35    -0.776 OA
DOCKED: ATOM     37  H   UNL d   1      -1.257   2.058 -14.045 +0.04 +0.22    +0.167 HD
DOCKED: ENDBRANCH  34  36
DOCKED: ENDBRANCH  33  34
DOCKED: ENDBRANCH  32  33
DOCKED: ENDBRANCH   6  32
DOCKED: BRANCH  22  38
DOCKED: ATOM     38  C   UNL d   1       1.859  -1.182 -12.856 -0.30 +0.02    +0.052 C 
DOCKED: BRANCH  38  39
DOCKED: ATOM     39  C   UNL d   1       2.193   0.248 -13.276 -0.28 +0.05    +0.115 C 
DOCKED: BRANCH  39  40
DOCKED: ATOM     40  C   UNL d   1       0.986   0.997 -13.783 -0.12 +0.09    +0.139 C 
DOCKED: ATOM     41  O   UNL d   1       0.100   0.395 -14.367 +0.03 -0.54    -0.650 OA
DOCKED: BRANCH  40  42
DOCKED: ATOM     42  O   UNL d   1       0.842   2.317 -13.558 +0.01 -0.60    -0.776 OA
DOCKED: ATOM     43  H   UNL d   1      -0.025   2.711 -13.405 +0.06 +0.19    +0.167 HD
DOCKED: ENDBRANCH  40  42
DOCKED: ENDBRANCH  39  40
DOCKED: ENDBRANCH  38  39
DOCKED: ENDBRANCH  22  38
DOCKED: BRANCH  12  44
DOCKED: ATOM     44  C   UNL d   1      -1.059  -2.493  -1.969 -0.49 +0.00    +0.004 C 
DOCKED: ATOM     45  C   UNL d   1      -0.032  -2.553  -1.122 -0.61 +0.00    +0.012 C 
DOCKED: ENDBRANCH  12  44
DOCKED: BRANCH  17  46
DOCKED: ATOM     46  C   UNL d   1       5.951  -2.281  -6.193 -0.66 +0.00    +0.004 C 
DOCKED: ATOM     47  C   UNL d   1       6.939  -2.543  -5.328 -0.65 +0.00    +0.012 C 
DOCKED: ENDBRANCH  17  46
DOCKED: TORSDOF 10
DOCKED: TER
DOCKED: ENDMDL
________________________________________________________________________________


	BEGINNING GENETIC ALGORITHM DOCKING 57 of 100
Run: 57 Seed: 674910707 720991 [ Run 57 of 100 GA/GALS ]
Beginning LAMARCKIAN GENETIC ALGORITHM (LGA), with a maximum of 25000000 energy evaluations.

Final-Value: -10.381


	FINAL GENETIC ALGORITHM DOCKED STATE
	_______________________________________________


Detailed state:  trans 20.186 4.839 -3.093 quatxyzw 0.189255 0.513721 -0.642098 0.536641 center 8.287 34.468 -0.670 ntor 10 142.1485 6.5154 53.3716 130.2950 180.0000 -55.5324 -93.8014 176.4575 -173.9405 175.0710
State:	 20.186   4.839  -3.093   0.224  0.609 -0.761 115.089    142.15    6.52   53.37  130.29  180.00  -55.53  -93.80  176.46 -173.94  175.07

DOCKED: MODEL       57
DOCKED: USER    Run = 57
DOCKED: USER    DPF = D:/Protein_go_brrr/autodock/final/AncB/heme_O2/dock.dpf
DOCKED: USER  
DOCKED: USER    Estimated Free Energy of Binding    =   -4.99 kcal/mol  [=(1)+(2)+(3)-(4)]
DOCKED: USER    Estimated Inhibition Constant, Ki   =  221.77 uM (micromolar)  [Temperature = 298.15 K]
DOCKED: USER    
DOCKED: USER    (1) Final Intermolecular Energy     =   -7.97 kcal/mol
DOCKED: USER        vdW + Hbond + desolv Energy     =   -6.04 kcal/mol
DOCKED: USER        Electrostatic Energy            =   -1.92 kcal/mol
DOCKED: USER    (2) Final Total Internal Energy     =   -2.41 kcal/mol
DOCKED: USER    (3) Torsional Free Energy           =   +2.98 kcal/mol
DOCKED: USER    (4) Unbound System's Energy  [=(2)] =   -2.41 kcal/mol
DOCKED: USER    
DOCKED: USER    
DOCKED: USER    NEWDPF move heme_O2_opt.pdbqt
DOCKED: USER    NEWDPF about 8.287000 34.468000 -0.670000
DOCKED: USER    NEWDPF tran0 20.186469 4.838531 -3.093254
DOCKED: USER    NEWDPF quaternion0 0.189255 0.513721 -0.642098 0.536641
DOCKED: USER    NEWDPF axisangle0 0.224287 0.608811 -0.760950 115.089430
DOCKED: USER    NEWDPF quat0 0.224287 0.608811 -0.760950 115.089430
DOCKED: USER    NEWDPF dihe0 142.15 6.52 53.37 130.29 180.00 -55.53 -93.80 176.46 -173.94 175.07 
DOCKED: USER  keepresnum = 1 
DOCKED: USER  
DOCKED: REMARK  10 active torsions:
DOCKED: REMARK  status: ('A' for Active; 'I' for Inactive)
DOCKED: REMARK    1  A    between atoms: C_6  and  C_10 
DOCKED: REMARK    2  A    between atoms: C_10  and  C_11 
DOCKED: REMARK    3  A    between atoms: C_11  and  C_12 
DOCKED: REMARK    4  A    between atoms: C_12  and  O_14 
DOCKED: REMARK    5  A    between atoms: C_17  and  C_20 
DOCKED: REMARK    6  A    between atoms: C_24  and  C_27 
DOCKED: REMARK    7  A    between atoms: C_31  and  C_34 
DOCKED: REMARK    8  A    between atoms: C_34  and  C_35 
DOCKED: REMARK    9  A    between atoms: C_35  and  C_36 
DOCKED: REMARK   10  A    between atoms: C_36  and  O_38 
DOCKED: USER                              x       y       z     vdW  Elec       q    Type
DOCKED: USER                           _______ _______ _______ _____ _____    ______ ____
DOCKED: ROOT
DOCKED: ATOM      1  C   UNL d   1      21.183   3.614  -4.510 -0.06 +0.02    +0.064 A 
DOCKED: ATOM      2  C   UNL d   1      19.173   2.677  -0.310 -0.21 +0.00    +0.064 A 
DOCKED: ATOM      3  C   UNL d   1      18.004   7.302   0.267 -0.11 +0.01    +0.064 C 
DOCKED: ATOM      4  C   UNL d   1      19.644   8.198  -4.269 -0.11 +0.02    +0.064 A 
DOCKED: ATOM      5  C   UNL d   1      20.730   2.981  -3.415 -0.07 +0.02    +0.066 A 
DOCKED: ATOM      6  C   UNL d   1      20.892   1.613  -3.179 -0.08 -0.00    -0.021 A 
DOCKED: ATOM      7  C   UNL d   1      20.272   1.333  -1.983 -0.11 -0.00    -0.025 A 
DOCKED: ATOM      8  C   UNL d   1      19.792   2.546  -1.499 -0.08 +0.01    +0.066 A 
DOCKED: ATOM      9  C   UNL d   1      20.141  -0.049  -1.380 -0.18 +0.01    +0.051 C 
DOCKED: ATOM     10  C   UNL d   1      18.668   3.926   0.261 -0.22 -0.00    +0.066 A 
DOCKED: ATOM     11  C   UNL d   1      18.182   4.033   1.569 -0.24 -0.00    -0.021 A 
DOCKED: ATOM     12  C   UNL d   1      17.856   5.363   1.761 -0.23 +0.00    +0.000 A 
DOCKED: ATOM     13  C   UNL d   1      18.157   6.004   0.527 -0.16 +0.00    +0.070 A 
DOCKED: ATOM     14  C   UNL d   1      18.059   2.918   2.602 -0.21 +0.00    +0.052 C 
DOCKED: ATOM     15  C   UNL d   1      18.263   7.983  -0.979 -0.15 +0.01    +0.066 A 
DOCKED: ATOM     16  C   UNL d   1      17.928   9.311  -1.238 -0.14 -0.00    -0.021 A 
DOCKED: ATOM     17  C   UNL d   1      18.385   9.589  -2.526 -0.20 +0.00    +0.000 A 
DOCKED: ATOM     18  C   UNL d   1      18.975   8.394  -2.961 -0.12 +0.02    +0.070 A 
DOCKED: ATOM     19  C   UNL d   1      17.160  10.171  -0.266 -0.10 +0.01    +0.052 C 
DOCKED: ATOM     20  C   UNL d   1      20.182   7.054  -4.734 -0.07 +0.02    +0.066 A 
DOCKED: ATOM     21  C   UNL d   1      20.815   6.934  -5.968 -0.07 -0.01    -0.025 A 
DOCKED: ATOM     22  C   UNL d   1      21.284   5.642  -6.042 -0.04 -0.01    -0.021 A 
DOCKED: ATOM     23  C   UNL d   1      20.902   5.013  -4.854 -0.05 +0.02    +0.066 A 
DOCKED: ATOM     24  C   UNL d   1      20.962   7.999  -7.024 -0.08 +0.01    +0.051 C 
DOCKED: ATOM     25  N   UNL d   1      20.017   3.550  -2.413 -0.08 -0.05    -0.248 N 
DOCKED: ATOM     26  N   UNL d   1      18.646   5.121  -0.381 -0.12 +0.00    -0.248 N 
DOCKED: ATOM     27  N   UNL d   1      18.825   7.409  -2.039 -0.08 -0.05    -0.248 N 
DOCKED: ATOM     28  N   UNL d   1      20.193   5.861  -4.081 -0.03 -0.08    -0.248 N 
DOCKED: ATOM     29 FE   UNL d   1      19.424   5.497  -2.244 -0.03 +0.00    +0.000 Fe
DOCKED: ATOM     30  O   UNL d   1      18.249   4.498  -2.456 -0.34 +0.00    +0.000 OA
DOCKED: ATOM     31  O   UNL d   1      18.229   5.894  -3.186 -0.31 +0.00    +0.000 OA
DOCKED: ENDROOT
DOCKED: BRANCH   6  32
DOCKED: ATOM     32  C   UNL d   1      21.484   0.580  -4.103 -0.09 +0.01    +0.052 C 
DOCKED: BRANCH  32  33
DOCKED: ATOM     33  C   UNL d   1      20.444  -0.067  -5.011 -0.13 +0.03    +0.115 C 
DOCKED: BRANCH  33  34
DOCKED: ATOM     34  C   UNL d   1      20.170   0.752  -6.248 -0.12 +0.05    +0.139 C 
DOCKED: ATOM     35  O   UNL d   1      21.049   1.463  -6.708 +0.02 -0.20    -0.650 OA
DOCKED: BRANCH  34  36
DOCKED: ATOM     36  O   UNL d   1      18.961   0.741  -6.845 +0.00 -0.34    -0.776 OA
DOCKED: ATOM     37  H   UNL d   1      18.575   1.535  -7.233 +0.05 +0.10    +0.167 HD
DOCKED: ENDBRANCH  34  36
DOCKED: ENDBRANCH  33  34
DOCKED: ENDBRANCH  32  33
DOCKED: ENDBRANCH   6  32
DOCKED: BRANCH  22  38
DOCKED: ATOM     38  C   UNL d   1      22.001   5.034  -7.220 -0.02 +0.02    +0.052 C 
DOCKED: BRANCH  38  39
DOCKED: ATOM     39  C   UNL d   1      21.038   4.538  -8.295 -0.04 +0.05    +0.115 C 
DOCKED: BRANCH  39  40
DOCKED: ATOM     40  C   UNL d   1      19.594   4.668  -7.880 -0.11 +0.14    +0.139 C 
DOCKED: ATOM     41  O   UNL d   1      18.986   5.700  -8.117 -0.34 -0.95    -0.650 OA
DOCKED: BRANCH  40  42
DOCKED: ATOM     42  O   UNL d   1      18.943   3.644  -7.295 -0.36 -0.93    -0.776 OA
DOCKED: ATOM     43  H   UNL d   1      19.408   2.850  -7.005 +0.04 +0.12    +0.167 HD
DOCKED: ENDBRANCH  40  42
DOCKED: ENDBRANCH  39  40
DOCKED: ENDBRANCH  38  39
DOCKED: ENDBRANCH  22  38
DOCKED: BRANCH  12  44
DOCKED: ATOM     44  C   UNL d   1      17.299   5.873   3.073 -0.19 +0.00    +0.004 C 
DOCKED: ATOM     45  C   UNL d   1      16.229   6.643   3.264 -0.22 +0.00    +0.012 C 
DOCKED: ENDBRANCH  12  44
DOCKED: BRANCH  17  46
DOCKED: ATOM     46  C   UNL d   1      18.263  10.828  -3.373 -0.23 +0.00    +0.004 C 
DOCKED: ATOM     47  C   UNL d   1      19.243  11.547  -3.935 -0.21 +0.00    +0.012 C 
DOCKED: ENDBRANCH  17  46
DOCKED: TORSDOF 10
DOCKED: TER
DOCKED: ENDMDL
________________________________________________________________________________


	BEGINNING GENETIC ALGORITHM DOCKING 58 of 100
Run: 58 Seed: 923123533 2107211046 [ Run 58 of 100 GA/GALS ]
Beginning LAMARCKIAN GENETIC ALGORITHM (LGA), with a maximum of 25000000 energy evaluations.

Final-Value: -10.974


	FINAL GENETIC ALGORITHM DOCKED STATE
	_______________________________________________


Detailed state:  trans 17.045 0.026 -10.452 quatxyzw 0.598720 -0.577842 -0.400587 -0.383619 center 8.287 34.468 -0.670 ntor 10 -73.9449 16.0926 72.0064 -100.8696 -63.1650 -104.0575 120.6575 -50.9169 37.8006 37.4480
State:	 17.045   0.026 -10.452   0.648 -0.626 -0.434 -134.884    -73.94   16.09   72.01 -100.87  -63.17 -104.06  120.66  -50.92   37.80   37.45

DOCKED: MODEL       58
DOCKED: USER    Run = 58
DOCKED: USER    DPF = D:/Protein_go_brrr/autodock/final/AncB/heme_O2/dock.dpf
DOCKED: USER  
DOCKED: USER    Estimated Free Energy of Binding    =   -6.21 kcal/mol  [=(1)+(2)+(3)-(4)]
DOCKED: USER    Estimated Inhibition Constant, Ki   =   28.19 uM (micromolar)  [Temperature = 298.15 K]
DOCKED: USER    
DOCKED: USER    (1) Final Intermolecular Energy     =   -9.19 kcal/mol
DOCKED: USER        vdW + Hbond + desolv Energy     =   -7.35 kcal/mol
DOCKED: USER        Electrostatic Energy            =   -1.84 kcal/mol
DOCKED: USER    (2) Final Total Internal Energy     =   -1.78 kcal/mol
DOCKED: USER    (3) Torsional Free Energy           =   +2.98 kcal/mol
DOCKED: USER    (4) Unbound System's Energy  [=(2)] =   -1.78 kcal/mol
DOCKED: USER    
DOCKED: USER    
DOCKED: USER    NEWDPF move heme_O2_opt.pdbqt
DOCKED: USER    NEWDPF about 8.287000 34.468000 -0.670000
DOCKED: USER    NEWDPF tran0 17.044929 0.026151 -10.451928
DOCKED: USER    NEWDPF quaternion0 0.598720 -0.577842 -0.400587 -0.383619
DOCKED: USER    NEWDPF axisangle0 0.648322 -0.625715 -0.433774 -134.883965
DOCKED: USER    NEWDPF quat0 0.648322 -0.625715 -0.433774 -134.883965
DOCKED: USER    NEWDPF dihe0 -73.94 16.09 72.01 -100.87 -63.17 -104.06 120.66 -50.92 37.80 37.45 
DOCKED: USER  keepresnum = 1 
DOCKED: USER  
DOCKED: REMARK  10 active torsions:
DOCKED: REMARK  status: ('A' for Active; 'I' for Inactive)
DOCKED: REMARK    1  A    between atoms: C_6  and  C_10 
DOCKED: REMARK    2  A    between atoms: C_10  and  C_11 
DOCKED: REMARK    3  A    between atoms: C_11  and  C_12 
DOCKED: REMARK    4  A    between atoms: C_12  and  O_14 
DOCKED: REMARK    5  A    between atoms: C_17  and  C_20 
DOCKED: REMARK    6  A    between atoms: C_24  and  C_27 
DOCKED: REMARK    7  A    between atoms: C_31  and  C_34 
DOCKED: REMARK    8  A    between atoms: C_34  and  C_35 
DOCKED: REMARK    9  A    between atoms: C_35  and  C_36 
DOCKED: REMARK   10  A    between atoms: C_36  and  O_38 
DOCKED: USER                              x       y       z     vdW  Elec       q    Type
DOCKED: USER                           _______ _______ _______ _____ _____    ______ ____
DOCKED: ROOT
DOCKED: ATOM      1  C   UNL d   1      17.531   1.869  -9.521 -0.19 +0.04    +0.064 A 
DOCKED: ATOM      2  C   UNL d   1      15.171   0.812 -13.505 -0.20 +0.02    +0.064 A 
DOCKED: ATOM      3  C   UNL d   1      15.887  -3.887 -12.791 -0.09 +0.02    +0.064 C 
DOCKED: ATOM      4  C   UNL d   1      17.902  -2.836  -8.444 -0.16 +0.02    +0.064 A 
DOCKED: ATOM      5  C   UNL d   1      16.829   1.965 -10.662 -0.20 +0.04    +0.066 A 
DOCKED: ATOM      6  C   UNL d   1      16.434   3.175 -11.239 -0.20 -0.01    -0.021 A 
DOCKED: ATOM      7  C   UNL d   1      15.713   2.869 -12.369 -0.20 -0.01    -0.025 A 
DOCKED: ATOM      8  C   UNL d   1      15.729   1.481 -12.478 -0.20 +0.02    +0.066 A 
DOCKED: ATOM      9  C   UNL d   1      15.031   3.882 -13.262 -0.24 +0.02    +0.051 C 
DOCKED: ATOM     10  C   UNL d   1      15.176  -0.641 -13.685 -0.17 +0.02    +0.066 A 
DOCKED: ATOM     11  C   UNL d   1      14.726  -1.273 -14.850 -0.18 -0.01    -0.021 A 
DOCKED: ATOM     12  C   UNL d   1      14.940  -2.627 -14.671 -0.15 +0.00    +0.000 A 
DOCKED: ATOM     13  C   UNL d   1      15.511  -2.748 -13.373 -0.04 +0.02    +0.070 A 
DOCKED: ATOM     14  C   UNL d   1      14.141  -0.611 -16.092 -0.14 +0.01    +0.052 C 
DOCKED: ATOM     15  C   UNL d   1      16.435  -4.055 -11.467 -0.14 +0.03    +0.066 A 
DOCKED: ATOM     16  C   UNL d   1      16.655  -5.288 -10.853 -0.15 -0.01    -0.021 A 
DOCKED: ATOM     17  C   UNL d   1      17.229  -5.013  -9.612 -0.16 +0.00    +0.000 A 
DOCKED: ATOM     18  C   UNL d   1      17.318  -3.615  -9.561 -0.17 +0.03    +0.070 A 
DOCKED: ATOM     19  C   UNL d   1      16.252  -6.600 -11.476 -0.13 +0.03    +0.052 C 
DOCKED: ATOM     20  C   UNL d   1      17.964  -1.494  -8.344 -0.20 +0.02    +0.066 A 
DOCKED: ATOM     21  C   UNL d   1      18.543  -0.817  -7.274 -0.27 -0.01    -0.025 A 
DOCKED: ATOM     22  C   UNL d   1      18.470   0.524  -7.577 -0.25 -0.01    -0.021 A 
DOCKED: ATOM     23  C   UNL d   1      17.832   0.617  -8.817 -0.24 +0.03    +0.066 A 
DOCKED: ATOM     24  C   UNL d   1      19.131  -1.419  -6.024 -0.28 +0.02    +0.051 C 
DOCKED: ATOM     25  N   UNL d   1      16.361   0.922 -11.391 -0.13 -0.10    -0.248 N 
DOCKED: ATOM     26  N   UNL d   1      15.646  -1.535 -12.779 -0.11 -0.08    -0.248 N 
DOCKED: ATOM     27  N   UNL d   1      16.763  -3.048 -10.663 -0.12 -0.09    -0.248 N 
DOCKED: ATOM     28  N   UNL d   1      17.486  -0.610  -9.259 -0.16 -0.08    -0.248 N 
DOCKED: ATOM     29 FE   UNL d   1      16.572  -1.072 -11.005 -0.05 +0.00    +0.000 Fe
DOCKED: ATOM     30  O   UNL d   1      15.108  -0.560 -10.879 -0.42 +0.00    +0.000 OA
DOCKED: ATOM     31  O   UNL d   1      15.661  -1.607  -9.840 -0.53 +0.00    +0.000 OA
DOCKED: ENDROOT
DOCKED: BRANCH   6  32
DOCKED: ATOM     32  C   UNL d   1      16.606   4.564 -10.680 -0.14 +0.06    +0.052 C 
DOCKED: BRANCH  32  33
DOCKED: ATOM     33  C   UNL d   1      17.402   5.480 -11.604 -0.24 +0.08    +0.115 C 
DOCKED: BRANCH  33  34
DOCKED: ATOM     34  C   UNL d   1      18.806   4.980 -11.840 -0.08 +0.07    +0.139 C 
DOCKED: ATOM     35  O   UNL d   1      19.336   5.160 -12.925 +0.03 -0.22    -0.650 OA
DOCKED: BRANCH  34  36
DOCKED: ATOM     36  O   UNL d   1      19.483   4.308 -10.886 +0.05 -0.41    -0.776 OA
DOCKED: ATOM     37  H   UNL d   1      19.847   4.751 -10.111 +0.03 +0.10    +0.167 HD
DOCKED: ENDBRANCH  34  36
DOCKED: ENDBRANCH  33  34
DOCKED: ENDBRANCH  32  33
DOCKED: ENDBRANCH   6  32
DOCKED: BRANCH  22  38
DOCKED: ATOM     38  C   UNL d   1      18.932   1.651  -6.689 -0.01 +0.03    +0.052 C 
DOCKED: BRANCH  38  39
DOCKED: ATOM     39  C   UNL d   1      19.637   2.757  -7.472 -0.15 +0.07    +0.115 C 
DOCKED: BRANCH  39  40
DOCKED: ATOM     40  C   UNL d   1      19.061   4.121  -7.187 +0.08 +0.18    +0.139 C 
DOCKED: ATOM     41  O   UNL d   1      18.748   4.421  -6.046 -0.10 -0.74    -0.650 OA
DOCKED: BRANCH  40  42
DOCKED: ATOM     42  O   UNL d   1      18.932   5.040  -8.164 -0.43 -1.27    -0.776 OA
DOCKED: ATOM     43  H   UNL d   1      18.942   4.791  -9.095 +0.04 +0.21    +0.167 HD
DOCKED: ENDBRANCH  40  42
DOCKED: ENDBRANCH  39  40
DOCKED: ENDBRANCH  38  39
DOCKED: ENDBRANCH  22  38
DOCKED: BRANCH  12  44
DOCKED: ATOM     44  C   UNL d   1      14.583  -3.645 -15.733 -0.10 +0.00    +0.004 C 
DOCKED: ATOM     45  C   UNL d   1      13.634  -4.580 -15.686 -0.12 +0.00    +0.012 C 
DOCKED: ENDBRANCH  12  44
DOCKED: BRANCH  17  46
DOCKED: ATOM     46  C   UNL d   1      17.631  -5.927  -8.485 -0.14 +0.00    +0.004 C 
DOCKED: ATOM     47  C   UNL d   1      17.036  -6.087  -7.296 -0.20 +0.00    +0.012 C 
DOCKED: ENDBRANCH  17  46
DOCKED: TORSDOF 10
DOCKED: TER
DOCKED: ENDMDL
________________________________________________________________________________


	BEGINNING GENETIC ALGORITHM DOCKING 59 of 100
Run: 59 Seed: 370828073 1489882312 [ Run 59 of 100 GA/GALS ]
Beginning LAMARCKIAN GENETIC ALGORITHM (LGA), with a maximum of 25000000 energy evaluations.

Final-Value: -20.583


	FINAL GENETIC ALGORITHM DOCKED STATE
	_______________________________________________


Detailed state:  trans 0.212 -1.672 -8.908 quatxyzw -0.288764 -0.298954 -0.233646 -0.879006 center 8.287 34.468 -0.670 ntor 10 60.0566 -116.2231 26.7631 -5.7994 -146.6935 -146.6949 8.1046 73.2190 178.0214 139.4552
State:	  0.212  -1.672  -8.908  -0.606 -0.627 -0.490 -56.955     60.06 -116.22   26.76   -5.80 -146.69 -146.69    8.10   73.22  178.02  139.46

DOCKED: MODEL       59
DOCKED: USER    Run = 59
DOCKED: USER    DPF = D:/Protein_go_brrr/autodock/final/AncB/heme_O2/dock.dpf
DOCKED: USER  
DOCKED: USER    Estimated Free Energy of Binding    =  -15.88 kcal/mol  [=(1)+(2)+(3)-(4)]
DOCKED: USER    Estimated Inhibition Constant, Ki   =    2.30 pM (picomolar)  [Temperature = 298.15 K]
DOCKED: USER    
DOCKED: USER    (1) Final Intermolecular Energy     =  -18.86 kcal/mol
DOCKED: USER        vdW + Hbond + desolv Energy     =  -15.54 kcal/mol
DOCKED: USER        Electrostatic Energy            =   -3.32 kcal/mol
DOCKED: USER    (2) Final Total Internal Energy     =   -1.72 kcal/mol
DOCKED: USER    (3) Torsional Free Energy           =   +2.98 kcal/mol
DOCKED: USER    (4) Unbound System's Energy  [=(2)] =   -1.72 kcal/mol
DOCKED: USER    
DOCKED: USER    
DOCKED: USER    NEWDPF move heme_O2_opt.pdbqt
DOCKED: USER    NEWDPF about 8.287000 34.468000 -0.670000
DOCKED: USER    NEWDPF tran0 0.211762 -1.672098 -8.907530
DOCKED: USER    NEWDPF quaternion0 -0.288764 -0.298954 -0.233646 -0.879006
DOCKED: USER    NEWDPF axisangle0 -0.605615 -0.626987 -0.490018 -56.954656
DOCKED: USER    NEWDPF quat0 -0.605615 -0.626987 -0.490018 -56.954656
DOCKED: USER    NEWDPF dihe0 60.06 -116.22 26.76 -5.80 -146.69 -146.69 8.10 73.22 178.02 139.46 
DOCKED: USER  keepresnum = 1 
DOCKED: USER  
DOCKED: REMARK  10 active torsions:
DOCKED: REMARK  status: ('A' for Active; 'I' for Inactive)
DOCKED: REMARK    1  A    between atoms: C_6  and  C_10 
DOCKED: REMARK    2  A    between atoms: C_10  and  C_11 
DOCKED: REMARK    3  A    between atoms: C_11  and  C_12 
DOCKED: REMARK    4  A    between atoms: C_12  and  O_14 
DOCKED: REMARK    5  A    between atoms: C_17  and  C_20 
DOCKED: REMARK    6  A    between atoms: C_24  and  C_27 
DOCKED: REMARK    7  A    between atoms: C_31  and  C_34 
DOCKED: REMARK    8  A    between atoms: C_34  and  C_35 
DOCKED: REMARK    9  A    between atoms: C_35  and  C_36 
DOCKED: REMARK   10  A    between atoms: C_36  and  O_38 
DOCKED: USER                              x       y       z     vdW  Elec       q    Type
DOCKED: USER                           _______ _______ _______ _____ _____    ______ ____
DOCKED: ROOT
DOCKED: ATOM      1  C   UNL d   1      -0.456  -1.309 -10.888 -0.29 +0.05    +0.064 A 
DOCKED: ATOM      2  C   UNL d   1      -2.658  -1.163  -6.682 -0.38 +0.02    +0.064 A 
DOCKED: ATOM      3  C   UNL d   1       1.371  -2.487  -4.422 -0.43 +0.01    +0.064 C 
DOCKED: ATOM      4  C   UNL d   1       3.770  -2.176  -8.690 -0.42 +0.02    +0.064 A 
DOCKED: ATOM      5  C   UNL d   1      -1.383  -1.160  -9.928 -0.32 +0.04    +0.066 A 
DOCKED: ATOM      6  C   UNL d   1      -2.712  -0.801 -10.173 -0.31 -0.02    -0.021 A 
DOCKED: ATOM      7  C   UNL d   1      -3.340  -0.717  -8.952 -0.32 -0.01    -0.025 A 
DOCKED: ATOM      8  C   UNL d   1      -2.390  -1.073  -7.999 -0.35 +0.03    +0.066 A 
DOCKED: ATOM      9  C   UNL d   1      -4.775  -0.283  -8.745 -0.35 +0.02    +0.051 C 
DOCKED: ATOM     10  C   UNL d   1      -1.710  -1.554  -5.638 -0.41 +0.02    +0.066 A 
DOCKED: ATOM     11  C   UNL d   1      -2.081  -1.790  -4.310 -0.48 -0.00    -0.021 A 
DOCKED: ATOM     12  C   UNL d   1      -0.936  -2.191  -3.646 -0.44 +0.00    +0.000 A 
DOCKED: ATOM     13  C   UNL d   1       0.094  -2.163  -4.626 -0.40 +0.01    +0.070 A 
DOCKED: ATOM     14  C   UNL d   1      -3.475  -1.667  -3.706 -0.57 +0.01    +0.052 C 
DOCKED: ATOM     15  C   UNL d   1       2.451  -2.438  -5.378 -0.40 +0.01    +0.066 A 
DOCKED: ATOM     16  C   UNL d   1       3.796  -2.632  -5.063 -0.51 -0.00    -0.021 A 
DOCKED: ATOM     17  C   UNL d   1       4.499  -2.547  -6.264 -0.52 +0.00    +0.000 A 
DOCKED: ATOM     18  C   UNL d   1       3.517  -2.307  -7.236 -0.42 +0.02    +0.070 A 
DOCKED: ATOM     19  C   UNL d   1       4.290  -2.824  -3.651 -0.38 +0.00    +0.052 C 
DOCKED: ATOM     20  C   UNL d   1       2.858  -1.903  -9.644 -0.45 +0.02    +0.066 A 
DOCKED: ATOM     21  C   UNL d   1       3.153  -1.809 -11.001 -0.46 -0.01    -0.025 A 
DOCKED: ATOM     22  C   UNL d   1       1.956  -1.590 -11.646 +0.03 -0.01    -0.021 A 
DOCKED: ATOM     23  C   UNL d   1       0.974  -1.539 -10.652 -0.17 +0.03    +0.066 A 
DOCKED: ATOM     24  C   UNL d   1       4.508  -1.920 -11.650 -0.44 +0.01    +0.051 C 
DOCKED: ATOM     25  N   UNL d   1      -1.168  -1.282  -8.595 -0.08 -0.12    -0.248 N 
DOCKED: ATOM     26  N   UNL d   1      -0.384  -1.770  -5.834 -0.25 -0.07    -0.248 N 
DOCKED: ATOM     27  N   UNL d   1       2.291  -2.169  -6.671 -0.23 -0.08    -0.248 N 
DOCKED: ATOM     28  N   UNL d   1       1.533  -1.685  -9.433 -0.14 -0.13    -0.248 N 
DOCKED: ATOM     29 FE   UNL d   1       0.584  -1.727  -7.645 -0.09 +0.00    +0.000 Fe
DOCKED: ATOM     30  O   UNL d   1       0.080  -0.278  -7.386 -0.71 +0.00    +0.000 OA
DOCKED: ATOM     31  O   UNL d   1       1.618  -0.543  -7.603 -1.08 +0.00    +0.000 OA
DOCKED: ENDROOT
DOCKED: BRANCH   6  32
DOCKED: ATOM     32  C   UNL d   1      -3.338  -0.418 -11.489 -0.21 +0.07    +0.052 C 
DOCKED: BRANCH  32  33
DOCKED: ATOM     33  C   UNL d   1      -3.438   1.092 -11.679 -0.16 +0.13    +0.115 C 
DOCKED: BRANCH  33  34
DOCKED: ATOM     34  C   UNL d   1      -4.191   1.465 -12.932 -0.12 +0.20    +0.139 C 
DOCKED: ATOM     35  O   UNL d   1      -5.364   1.145 -13.049 -0.03 -0.79    -0.650 OA
DOCKED: BRANCH  34  36
DOCKED: ATOM     36  O   UNL d   1      -3.590   2.123 -13.945 -0.38 -1.73    -0.776 OA
DOCKED: ATOM     37  H   UNL d   1      -2.833   1.756 -14.415 +0.03 +0.30    +0.167 HD
DOCKED: ENDBRANCH  34  36
DOCKED: ENDBRANCH  33  34
DOCKED: ENDBRANCH  32  33
DOCKED: ENDBRANCH   6  32
DOCKED: BRANCH  22  38
DOCKED: ATOM     38  C   UNL d   1       1.783  -1.377 -13.127 -0.10 +0.03    +0.052 C 
DOCKED: BRANCH  38  39
DOCKED: ATOM     39  C   UNL d   1       1.191  -0.007 -13.453 -0.22 +0.07    +0.115 C 
DOCKED: BRANCH  39  40
DOCKED: ATOM     40  C   UNL d   1      -0.239  -0.094 -13.925 -0.17 +0.14    +0.139 C 
DOCKED: ATOM     41  O   UNL d   1      -0.772  -1.186 -14.044 -0.09 -0.98    -0.650 OA
DOCKED: BRANCH  40  42
DOCKED: ATOM     42  O   UNL d   1      -0.960   1.017 -14.170 +0.05 -0.86    -0.776 OA
DOCKED: ATOM     43  H   UNL d   1      -1.724   1.253 -13.630 +0.05 +0.22    +0.167 HD
DOCKED: ENDBRANCH  40  42
DOCKED: ENDBRANCH  39  40
DOCKED: ENDBRANCH  38  39
DOCKED: ENDBRANCH  22  38
DOCKED: BRANCH  12  44
DOCKED: ATOM     44  C   UNL d   1      -0.943  -2.547  -2.175 -0.48 +0.00    +0.004 C 
DOCKED: ATOM     45  C   UNL d   1       0.085  -2.548  -1.327 -0.60 +0.00    +0.012 C 
DOCKED: ENDBRANCH  12  44
DOCKED: BRANCH  17  46
DOCKED: ATOM     46  C   UNL d   1       5.975  -2.613  -6.552 -0.65 +0.00    +0.004 C 
DOCKED: ATOM     47  C   UNL d   1       6.992  -2.548  -5.683 -0.68 +0.00    +0.012 C 
DOCKED: ENDBRANCH  17  46
DOCKED: TORSDOF 10
DOCKED: TER
DOCKED: ENDMDL
________________________________________________________________________________


	BEGINNING GENETIC ALGORITHM DOCKING 60 of 100
Run: 60 Seed: 189450204 37998825 [ Run 60 of 100 GA/GALS ]
Beginning LAMARCKIAN GENETIC ALGORITHM (LGA), with a maximum of 25000000 energy evaluations.

Final-Value: -20.599


	FINAL GENETIC ALGORITHM DOCKED STATE
	_______________________________________________


Detailed state:  trans 0.335 -1.617 -8.874 quatxyzw -0.283237 -0.306626 -0.252507 -0.872925 center 8.287 34.468 -0.670 ntor 10 107.4386 -180.0000 30.0577 -63.4201 -172.3923 26.6541 -44.2833 69.9253 -172.5897 -180.0000
State:	  0.335  -1.617  -8.874  -0.581 -0.629 -0.518 -58.399    107.44 -180.00   30.06  -63.42 -172.39   26.65  -44.28   69.93 -172.59 -180.00

DOCKED: MODEL       60
DOCKED: USER    Run = 60
DOCKED: USER    DPF = D:/Protein_go_brrr/autodock/final/AncB/heme_O2/dock.dpf
DOCKED: USER  
DOCKED: USER    Estimated Free Energy of Binding    =  -15.15 kcal/mol  [=(1)+(2)+(3)-(4)]
DOCKED: USER    Estimated Inhibition Constant, Ki   =    7.87 pM (picomolar)  [Temperature = 298.15 K]
DOCKED: USER    
DOCKED: USER    (1) Final Intermolecular Energy     =  -18.13 kcal/mol
DOCKED: USER        vdW + Hbond + desolv Energy     =  -15.62 kcal/mol
DOCKED: USER        Electrostatic Energy            =   -2.51 kcal/mol
DOCKED: USER    (2) Final Total Internal Energy     =   -2.47 kcal/mol
DOCKED: USER    (3) Torsional Free Energy           =   +2.98 kcal/mol
DOCKED: USER    (4) Unbound System's Energy  [=(2)] =   -2.47 kcal/mol
DOCKED: USER    
DOCKED: USER    
DOCKED: USER    NEWDPF move heme_O2_opt.pdbqt
DOCKED: USER    NEWDPF about 8.287000 34.468000 -0.670000
DOCKED: USER    NEWDPF tran0 0.334513 -1.616960 -8.873558
DOCKED: USER    NEWDPF quaternion0 -0.283237 -0.306626 -0.252507 -0.872925
DOCKED: USER    NEWDPF axisangle0 -0.580577 -0.628519 -0.517586 -58.399388
DOCKED: USER    NEWDPF quat0 -0.580577 -0.628519 -0.517586 -58.399388
DOCKED: USER    NEWDPF dihe0 107.44 -180.00 30.06 -63.42 -172.39 26.65 -44.28 69.93 -172.59 -180.00 
DOCKED: USER  keepresnum = 1 
DOCKED: USER  
DOCKED: REMARK  10 active torsions:
DOCKED: REMARK  status: ('A' for Active; 'I' for Inactive)
DOCKED: REMARK    1  A    between atoms: C_6  and  C_10 
DOCKED: REMARK    2  A    between atoms: C_10  and  C_11 
DOCKED: REMARK    3  A    between atoms: C_11  and  C_12 
DOCKED: REMARK    4  A    between atoms: C_12  and  O_14 
DOCKED: REMARK    5  A    between atoms: C_17  and  C_20 
DOCKED: REMARK    6  A    between atoms: C_24  and  C_27 
DOCKED: REMARK    7  A    between atoms: C_31  and  C_34 
DOCKED: REMARK    8  A    between atoms: C_34  and  C_35 
DOCKED: REMARK    9  A    between atoms: C_35  and  C_36 
DOCKED: REMARK   10  A    between atoms: C_36  and  O_38 
DOCKED: USER                              x       y       z     vdW  Elec       q    Type
DOCKED: USER                           _______ _______ _______ _____ _____    ______ ____
DOCKED: ROOT
DOCKED: ATOM      1  C   UNL d   1      -0.262  -1.208 -10.868 -0.25 +0.04    +0.064 A 
DOCKED: ATOM      2  C   UNL d   1      -2.587  -1.057  -6.729 -0.40 +0.02    +0.064 A 
DOCKED: ATOM      3  C   UNL d   1       1.332  -2.525  -4.367 -0.44 +0.01    +0.064 C 
DOCKED: ATOM      4  C   UNL d   1       3.869  -2.225  -8.556 -0.42 +0.02    +0.064 A 
DOCKED: ATOM      5  C   UNL d   1      -1.213  -1.045  -9.935 -0.29 +0.04    +0.066 A 
DOCKED: ATOM      6  C   UNL d   1      -2.524  -0.646 -10.214 -0.31 -0.02    -0.021 A 
DOCKED: ATOM      7  C   UNL d   1      -3.186  -0.560  -9.012 -0.34 -0.01    -0.025 A 
DOCKED: ATOM      8  C   UNL d   1      -2.276  -0.956  -8.036 -0.36 +0.03    +0.066 A 
DOCKED: ATOM      9  C   UNL d   1      -4.614  -0.088  -8.842 -0.36 +0.02    +0.051 C 
DOCKED: ATOM     10  C   UNL d   1      -1.682  -1.488  -5.663 -0.40 +0.02    +0.066 A 
DOCKED: ATOM     11  C   UNL d   1      -2.101  -1.732  -4.350 -0.48 -0.00    -0.021 A 
DOCKED: ATOM     12  C   UNL d   1      -0.989  -2.173  -3.658 -0.44 +0.00    +0.000 A 
DOCKED: ATOM     13  C   UNL d   1       0.072  -2.162  -4.605 -0.40 +0.01    +0.070 A 
DOCKED: ATOM     14  C   UNL d   1      -3.509  -1.577  -3.787 -0.55 +0.01    +0.052 C 
DOCKED: ATOM     15  C   UNL d   1       2.442  -2.494  -5.289 -0.40 +0.01    +0.066 A 
DOCKED: ATOM     16  C   UNL d   1       3.770  -2.730  -4.936 -0.51 -0.00    -0.021 A 
DOCKED: ATOM     17  C   UNL d   1       4.512  -2.649  -6.114 -0.51 +0.00    +0.000 A 
DOCKED: ATOM     18  C   UNL d   1       3.568  -2.368  -7.112 -0.42 +0.02    +0.070 A 
DOCKED: ATOM     19  C   UNL d   1       4.215  -2.955  -3.512 -0.33 +0.00    +0.052 C 
DOCKED: ATOM     20  C   UNL d   1       2.995  -1.913  -9.532 -0.45 +0.02    +0.066 A 
DOCKED: ATOM     21  C   UNL d   1       3.334  -1.810 -10.879 -0.49 -0.01    -0.025 A 
DOCKED: ATOM     22  C   UNL d   1       2.164  -1.547 -11.556 -0.15 -0.01    -0.021 A 
DOCKED: ATOM     23  C   UNL d   1       1.154  -1.482 -10.592 -0.19 +0.03    +0.066 A 
DOCKED: ATOM     24  C   UNL d   1       4.705  -1.950 -11.488 -0.33 +0.01    +0.051 C 
DOCKED: ATOM     25  N   UNL d   1      -1.042  -1.192  -8.598 -0.21 -0.12    -0.248 N 
DOCKED: ATOM     26  N   UNL d   1      -0.358  -1.739  -5.821 -0.25 -0.07    -0.248 N 
DOCKED: ATOM     27  N   UNL d   1       2.329  -2.203  -6.582 -0.24 -0.07    -0.248 N 
DOCKED: ATOM     28  N   UNL d   1       1.671  -1.660  -9.358 -0.17 -0.13    -0.248 N 
DOCKED: ATOM     29 FE   UNL d   1       0.666  -1.700  -7.602 -0.09 +0.00    +0.000 Fe
DOCKED: ATOM     30  O   UNL d   1       0.195  -0.240  -7.337 -0.75 +0.00    +0.000 OA
DOCKED: ATOM     31  O   UNL d   1       1.731  -0.546  -7.511 -1.09 +0.00    +0.000 OA
DOCKED: ENDROOT
DOCKED: BRANCH   6  32
DOCKED: ATOM     32  C   UNL d   1      -3.097  -0.228 -11.543 -0.22 +0.07    +0.052 C 
DOCKED: BRANCH  32  33
DOCKED: ATOM     33  C   UNL d   1      -2.941   1.266 -11.812 -0.16 +0.13    +0.115 C 
DOCKED: BRANCH  33  34
DOCKED: ATOM     34  C   UNL d   1      -2.426   1.550 -13.201 -0.17 +0.20    +0.139 C 
DOCKED: ATOM     35  O   UNL d   1      -2.789   0.852 -14.134 -0.08 -1.04    -0.650 OA
DOCKED: BRANCH  34  36
DOCKED: ATOM     36  O   UNL d   1      -1.546   2.546 -13.435 -0.06 -1.23    -0.776 OA
DOCKED: ATOM     37  H   UNL d   1      -0.622   2.372 -13.647 +0.05 +0.20    +0.167 HD
DOCKED: ENDBRANCH  34  36
DOCKED: ENDBRANCH  33  34
DOCKED: ENDBRANCH  32  33
DOCKED: ENDBRANCH   6  32
DOCKED: BRANCH  22  38
DOCKED: ATOM     38  C   UNL d   1       2.042  -1.310 -13.039 -0.21 +0.02    +0.052 C 
DOCKED: BRANCH  38  39
DOCKED: ATOM     39  C   UNL d   1       2.474   0.099 -13.440 -0.31 +0.05    +0.115 C 
DOCKED: BRANCH  39  40
DOCKED: ATOM     40  C   UNL d   1       1.317   0.946 -13.906 -0.18 +0.08    +0.139 C 
DOCKED: ATOM     41  O   UNL d   1       1.481   2.139 -14.106 -0.03 -0.39    -0.650 OA
DOCKED: BRANCH  40  42
DOCKED: ATOM     42  O   UNL d   1       0.111   0.400 -14.157 +0.07 -0.65    -0.776 OA
DOCKED: ATOM     43  H   UNL d   1      -0.622   0.928 -14.493 +0.05 +0.17    +0.167 HD
DOCKED: ENDBRANCH  40  42
DOCKED: ENDBRANCH  39  40
DOCKED: ENDBRANCH  38  39
DOCKED: ENDBRANCH  22  38
DOCKED: BRANCH  12  44
DOCKED: ATOM     44  C   UNL d   1      -1.051  -2.550  -2.192 -0.47 +0.00    +0.004 C 
DOCKED: ATOM     45  C   UNL d   1      -0.062  -2.533  -1.300 -0.60 +0.00    +0.012 C 
DOCKED: ENDBRANCH  12  44
DOCKED: BRANCH  17  46
DOCKED: ATOM     46  C   UNL d   1       5.994  -2.754  -6.358 -0.63 +0.00    +0.004 C 
DOCKED: ATOM     47  C   UNL d   1       6.953  -1.883  -6.017 -0.66 +0.00    +0.012 C 
DOCKED: ENDBRANCH  17  46
DOCKED: TORSDOF 10
DOCKED: TER
DOCKED: ENDMDL
________________________________________________________________________________


	BEGINNING GENETIC ALGORITHM DOCKING 61 of 100
Run: 61 Seed: 262506338 2143051631 [ Run 61 of 100 GA/GALS ]
Beginning LAMARCKIAN GENETIC ALGORITHM (LGA), with a maximum of 25000000 energy evaluations.

Final-Value: -20.628


	FINAL GENETIC ALGORITHM DOCKED STATE
	_______________________________________________


Detailed state:  trans 0.242 -1.542 -8.600 quatxyzw 0.281639 0.288946 0.209597 0.890650 center 8.287 34.468 -0.670 ntor 10 52.9641 -24.4455 22.2780 16.2389 172.9658 -134.4177 22.0870 48.4342 -130.8857 101.9413
State:	  0.242  -1.542  -8.600   0.619  0.635  0.461 54.090     52.96  -24.45   22.28   16.24  172.97 -134.42   22.09   48.43 -130.89  101.94

DOCKED: MODEL       61
DOCKED: USER    Run = 61
DOCKED: USER    DPF = D:/Protein_go_brrr/autodock/final/AncB/heme_O2/dock.dpf
DOCKED: USER  
DOCKED: USER    Estimated Free Energy of Binding    =  -16.26 kcal/mol  [=(1)+(2)+(3)-(4)]
DOCKED: USER    Estimated Inhibition Constant, Ki   =    1.21 pM (picomolar)  [Temperature = 298.15 K]
DOCKED: USER    
DOCKED: USER    (1) Final Intermolecular Energy     =  -19.24 kcal/mol
DOCKED: USER        vdW + Hbond + desolv Energy     =  -15.77 kcal/mol
DOCKED: USER        Electrostatic Energy            =   -3.47 kcal/mol
DOCKED: USER    (2) Final Total Internal Energy     =   -1.39 kcal/mol
DOCKED: USER    (3) Torsional Free Energy           =   +2.98 kcal/mol
DOCKED: USER    (4) Unbound System's Energy  [=(2)] =   -1.39 kcal/mol
DOCKED: USER    
DOCKED: USER    
DOCKED: USER    NEWDPF move heme_O2_opt.pdbqt
DOCKED: USER    NEWDPF about 8.287000 34.468000 -0.670000
DOCKED: USER    NEWDPF tran0 0.241521 -1.542012 -8.600412
DOCKED: USER    NEWDPF quaternion0 0.281639 0.288946 0.209597 0.890650
DOCKED: USER    NEWDPF axisangle0 0.619412 0.635482 0.460969 54.089804
DOCKED: USER    NEWDPF quat0 0.619412 0.635482 0.460969 54.089804
DOCKED: USER    NEWDPF dihe0 52.96 -24.45 22.28 16.24 172.97 -134.42 22.09 48.43 -130.89 101.94 
DOCKED: USER  keepresnum = 1 
DOCKED: USER  
DOCKED: REMARK  10 active torsions:
DOCKED: REMARK  status: ('A' for Active; 'I' for Inactive)
DOCKED: REMARK    1  A    between atoms: C_6  and  C_10 
DOCKED: REMARK    2  A    between atoms: C_10  and  C_11 
DOCKED: REMARK    3  A    between atoms: C_11  and  C_12 
DOCKED: REMARK    4  A    between atoms: C_12  and  O_14 
DOCKED: REMARK    5  A    between atoms: C_17  and  C_20 
DOCKED: REMARK    6  A    between atoms: C_24  and  C_27 
DOCKED: REMARK    7  A    between atoms: C_31  and  C_34 
DOCKED: REMARK    8  A    between atoms: C_34  and  C_35 
DOCKED: REMARK    9  A    between atoms: C_35  and  C_36 
DOCKED: REMARK   10  A    between atoms: C_36  and  O_38 
DOCKED: USER                              x       y       z     vdW  Elec       q    Type
DOCKED: USER                           _______ _______ _______ _____ _____    ______ ____
DOCKED: ROOT
DOCKED: ATOM      1  C   UNL d   1      -0.512  -1.193 -10.552 -0.25 +0.04    +0.064 A 
DOCKED: ATOM      2  C   UNL d   1      -2.569  -1.186  -6.271 -0.41 +0.02    +0.064 A 
DOCKED: ATOM      3  C   UNL d   1       1.595  -2.341  -4.167 -0.35 +0.01    +0.064 C 
DOCKED: ATOM      4  C   UNL d   1       3.824  -1.882  -8.513 -0.41 +0.02    +0.064 A 
DOCKED: ATOM      5  C   UNL d   1      -1.411  -1.095  -9.559 -0.30 +0.04    +0.066 A 
DOCKED: ATOM      6  C   UNL d   1      -2.762  -0.797  -9.754 -0.32 -0.01    -0.021 A 
DOCKED: ATOM      7  C   UNL d   1      -3.350  -0.752  -8.511 -0.34 -0.01    -0.025 A 
DOCKED: ATOM      8  C   UNL d   1      -2.351  -1.072  -7.595 -0.37 +0.02    +0.066 A 
DOCKED: ATOM      9  C   UNL d   1      -4.795  -0.387  -8.249 -0.37 +0.02    +0.051 C 
DOCKED: ATOM     10  C   UNL d   1      -1.567  -1.541  -5.265 -0.41 +0.02    +0.066 A 
DOCKED: ATOM     11  C   UNL d   1      -1.880  -1.807  -3.927 -0.47 -0.00    -0.021 A 
DOCKED: ATOM     12  C   UNL d   1      -0.695  -2.159  -3.308 -0.43 +0.00    +0.000 A 
DOCKED: ATOM     13  C   UNL d   1       0.298  -2.075  -4.323 -0.39 +0.01    +0.070 A 
DOCKED: ATOM     14  C   UNL d   1      -3.256  -1.753  -3.274 -0.63 +0.01    +0.052 C 
DOCKED: ATOM     15  C   UNL d   1       2.637  -2.234  -5.160 -0.39 +0.01    +0.066 A 
DOCKED: ATOM     16  C   UNL d   1       3.999  -2.368  -4.893 -0.51 -0.00    -0.021 A 
DOCKED: ATOM     17  C   UNL d   1       4.655  -2.240  -6.117 -0.51 +0.00    +0.000 A 
DOCKED: ATOM     18  C   UNL d   1       3.630  -2.037  -7.052 -0.42 +0.02    +0.070 A 
DOCKED: ATOM     19  C   UNL d   1       4.551  -2.549  -3.501 -0.31 +0.00    +0.052 C 
DOCKED: ATOM     20  C   UNL d   1       2.868  -1.643  -9.431 -0.42 +0.02    +0.066 A 
DOCKED: ATOM     21  C   UNL d   1       3.110  -1.524 -10.797 -0.46 -0.01    -0.025 A 
DOCKED: ATOM     22  C   UNL d   1       1.883  -1.355 -11.397 -0.23 -0.01    -0.021 A 
DOCKED: ATOM     23  C   UNL d   1       0.935  -1.358 -10.369 -0.16 +0.03    +0.066 A 
DOCKED: ATOM     24  C   UNL d   1       4.445  -1.567 -11.494 -0.45 +0.01    +0.051 C 
DOCKED: ATOM     25  N   UNL d   1      -1.143  -1.219  -8.236 -0.21 -0.12    -0.248 N 
DOCKED: ATOM     26  N   UNL d   1      -0.240  -1.694  -5.509 -0.25 -0.06    -0.248 N 
DOCKED: ATOM     27  N   UNL d   1       2.419  -1.962  -6.443 -0.24 -0.07    -0.248 N 
DOCKED: ATOM     28  N   UNL d   1       1.543  -1.489  -9.171 -0.04 -0.14    -0.248 N 
DOCKED: ATOM     29 FE   UNL d   1       0.660  -1.591  -7.353 -0.09 +0.00    +0.000 Fe
DOCKED: ATOM     30  O   UNL d   1       0.099  -0.168  -7.061 -0.21 +0.00    +0.000 OA
DOCKED: ATOM     31  O   UNL d   1       1.639  -0.360  -7.334 -1.04 +0.00    +0.000 OA
DOCKED: ENDROOT
DOCKED: BRANCH   6  32
DOCKED: ATOM     32  C   UNL d   1      -3.451  -0.431 -11.043 -0.27 +0.06    +0.052 C 
DOCKED: BRANCH  32  33
DOCKED: ATOM     33  C   UNL d   1      -2.692   0.624 -11.841 -0.25 +0.13    +0.115 C 
DOCKED: BRANCH  33  34
DOCKED: ATOM     34  C   UNL d   1      -3.570   1.327 -12.847 -0.14 +0.21    +0.139 C 
DOCKED: ATOM     35  O   UNL d   1      -4.781   1.335 -12.689 -0.04 -0.84    -0.650 OA
DOCKED: BRANCH  34  36
DOCKED: ATOM     36  O   UNL d   1      -3.050   1.927 -13.937 -0.28 -1.55    -0.776 OA
DOCKED: ATOM     37  H   UNL d   1      -2.465   1.462 -14.546 +0.03 +0.26    +0.167 HD
DOCKED: ENDBRANCH  34  36
DOCKED: ENDBRANCH  33  34
DOCKED: ENDBRANCH  32  33
DOCKED: ENDBRANCH   6  32
DOCKED: BRANCH  22  38
DOCKED: ATOM     38  C   UNL d   1       1.647  -1.137 -12.869 -0.28 +0.03    +0.052 C 
DOCKED: BRANCH  38  39
DOCKED: ATOM     39  C   UNL d   1       0.327  -0.422 -13.148 -0.19 +0.09    +0.115 C 
DOCKED: BRANCH  39  40
DOCKED: ATOM     40  C   UNL d   1      -0.472  -1.092 -14.238 -0.18 +0.17    +0.139 C 
DOCKED: ATOM     41  O   UNL d   1      -0.130  -2.187 -14.655 +0.04 -0.76    -0.650 OA
DOCKED: BRANCH  40  42
DOCKED: ATOM     42  O   UNL d   1      -1.591  -0.524 -14.730 -0.36 -1.42    -0.776 OA
DOCKED: ATOM     43  H   UNL d   1      -2.086   0.134 -14.227 +0.03 +0.28    +0.167 HD
DOCKED: ENDBRANCH  40  42
DOCKED: ENDBRANCH  39  40
DOCKED: ENDBRANCH  38  39
DOCKED: ENDBRANCH  22  38
DOCKED: BRANCH  12  44
DOCKED: ATOM     44  C   UNL d   1      -0.633  -2.529  -1.841 -0.53 +0.00    +0.004 C 
DOCKED: ATOM     45  C   UNL d   1       0.438  -2.567  -1.050 -0.63 +0.00    +0.012 C 
DOCKED: ENDBRANCH  12  44
DOCKED: BRANCH  17  46
DOCKED: ATOM     46  C   UNL d   1       6.122  -2.236  -6.457 -0.67 +0.00    +0.004 C 
DOCKED: ATOM     47  C   UNL d   1       7.157  -2.531  -5.661 -0.65 +0.00    +0.012 C 
DOCKED: ENDBRANCH  17  46
DOCKED: TORSDOF 10
DOCKED: TER
DOCKED: ENDMDL
________________________________________________________________________________


	BEGINNING GENETIC ALGORITHM DOCKING 62 of 100
Run: 62 Seed: 1763179287 1712875400 [ Run 62 of 100 GA/GALS ]
Beginning LAMARCKIAN GENETIC ALGORITHM (LGA), with a maximum of 25000000 energy evaluations.

Final-Value: -21.060


	FINAL GENETIC ALGORITHM DOCKED STATE
	_______________________________________________


Detailed state:  trans 0.259 -1.656 -8.861 quatxyzw -0.294741 -0.274815 -0.230909 -0.885599 center 8.287 34.468 -0.670 ntor 10 -125.1308 -134.1375 26.5430 -9.3847 -10.6969 -2.0099 -41.5692 -43.6828 -170.9200 49.2532
State:	  0.259  -1.656  -8.861  -0.635 -0.592 -0.497 -55.349   -125.13 -134.14   26.54   -9.38  -10.70   -2.01  -41.57  -43.68 -170.92   49.25

DOCKED: MODEL       62
DOCKED: USER    Run = 62
DOCKED: USER    DPF = D:/Protein_go_brrr/autodock/final/AncB/heme_O2/dock.dpf
DOCKED: USER  
DOCKED: USER    Estimated Free Energy of Binding    =  -15.80 kcal/mol  [=(1)+(2)+(3)-(4)]
DOCKED: USER    Estimated Inhibition Constant, Ki   =    2.63 pM (picomolar)  [Temperature = 298.15 K]
DOCKED: USER    
DOCKED: USER    (1) Final Intermolecular Energy     =  -18.78 kcal/mol
DOCKED: USER        vdW + Hbond + desolv Energy     =  -15.35 kcal/mol
DOCKED: USER        Electrostatic Energy            =   -3.43 kcal/mol
DOCKED: USER    (2) Final Total Internal Energy     =   -2.28 kcal/mol
DOCKED: USER    (3) Torsional Free Energy           =   +2.98 kcal/mol
DOCKED: USER    (4) Unbound System's Energy  [=(2)] =   -2.28 kcal/mol
DOCKED: USER    
DOCKED: USER    
DOCKED: USER    NEWDPF move heme_O2_opt.pdbqt
DOCKED: USER    NEWDPF about 8.287000 34.468000 -0.670000
DOCKED: USER    NEWDPF tran0 0.258755 -1.656058 -8.861163
DOCKED: USER    NEWDPF quaternion0 -0.294741 -0.274815 -0.230909 -0.885599
DOCKED: USER    NEWDPF axisangle0 -0.634601 -0.591698 -0.497166 -55.349334
DOCKED: USER    NEWDPF quat0 -0.634601 -0.591698 -0.497166 -55.349334
DOCKED: USER    NEWDPF dihe0 -125.13 -134.14 26.54 -9.38 -10.70 -2.01 -41.57 -43.68 -170.92 49.25 
DOCKED: USER  keepresnum = 1 
DOCKED: USER  
DOCKED: REMARK  10 active torsions:
DOCKED: REMARK  status: ('A' for Active; 'I' for Inactive)
DOCKED: REMARK    1  A    between atoms: C_6  and  C_10 
DOCKED: REMARK    2  A    between atoms: C_10  and  C_11 
DOCKED: REMARK    3  A    between atoms: C_11  and  C_12 
DOCKED: REMARK    4  A    between atoms: C_12  and  O_14 
DOCKED: REMARK    5  A    between atoms: C_17  and  C_20 
DOCKED: REMARK    6  A    between atoms: C_24  and  C_27 
DOCKED: REMARK    7  A    between atoms: C_31  and  C_34 
DOCKED: REMARK    8  A    between atoms: C_34  and  C_35 
DOCKED: REMARK    9  A    between atoms: C_35  and  C_36 
DOCKED: REMARK   10  A    between atoms: C_36  and  O_38 
DOCKED: USER                              x       y       z     vdW  Elec       q    Type
DOCKED: USER                           _______ _______ _______ _____ _____    ______ ____
DOCKED: ROOT
DOCKED: ATOM      1  C   UNL d   1      -0.505  -1.280 -10.804 -0.29 +0.05    +0.064 A 
DOCKED: ATOM      2  C   UNL d   1      -2.490  -1.127  -6.492 -0.41 +0.02    +0.064 A 
DOCKED: ATOM      3  C   UNL d   1       1.636  -2.496  -4.443 -0.43 +0.01    +0.064 C 
DOCKED: ATOM      4  C   UNL d   1       3.818  -2.195  -8.826 -0.42 +0.02    +0.064 A 
DOCKED: ATOM      5  C   UNL d   1      -1.381  -1.125  -9.798 -0.31 +0.04    +0.066 A 
DOCKED: ATOM      6  C   UNL d   1      -2.717  -0.753  -9.974 -0.32 -0.02    -0.021 A 
DOCKED: ATOM      7  C   UNL d   1      -3.281  -0.667  -8.723 -0.34 -0.01    -0.025 A 
DOCKED: ATOM      8  C   UNL d   1      -2.287  -1.035  -7.820 -0.36 +0.03    +0.066 A 
DOCKED: ATOM      9  C   UNL d   1      -4.699  -0.220  -8.442 -0.38 +0.02    +0.051 C 
DOCKED: ATOM     10  C   UNL d   1      -1.493  -1.530  -5.498 -0.40 +0.02    +0.066 A 
DOCKED: ATOM     11  C   UNL d   1      -1.799  -1.767  -4.154 -0.46 -0.00    -0.021 A 
DOCKED: ATOM     12  C   UNL d   1      -0.626  -2.180  -3.550 -0.44 +0.00    +0.000 A 
DOCKED: ATOM     13  C   UNL d   1       0.354  -2.159  -4.581 -0.40 +0.01    +0.070 A 
DOCKED: ATOM     14  C   UNL d   1      -3.159  -1.632  -3.479 -0.63 +0.01    +0.052 C 
DOCKED: ATOM     15  C   UNL d   1       2.667  -2.455  -5.452 -0.40 +0.01    +0.066 A 
DOCKED: ATOM     16  C   UNL d   1       4.023  -2.662  -5.206 -0.51 -0.00    -0.021 A 
DOCKED: ATOM     17  C   UNL d   1       4.666  -2.580  -6.441 -0.52 +0.00    +0.000 A 
DOCKED: ATOM     18  C   UNL d   1       3.639  -2.327  -7.361 -0.43 +0.02    +0.070 A 
DOCKED: ATOM     19  C   UNL d   1       4.587  -2.863  -3.821 -0.29 +0.00    +0.052 C 
DOCKED: ATOM     20  C   UNL d   1       2.862  -1.910  -9.732 -0.45 +0.02    +0.066 A 
DOCKED: ATOM     21  C   UNL d   1       3.088  -1.815 -11.102 -0.45 -0.01    -0.025 A 
DOCKED: ATOM     22  C   UNL d   1       1.863  -1.581 -11.684 +0.09 -0.01    -0.021 A 
DOCKED: ATOM     23  C   UNL d   1       0.933  -1.524 -10.641 -0.16 +0.03    +0.066 A 
DOCKED: ATOM     24  C   UNL d   1       4.408  -1.937 -11.819 -0.48 +0.01    +0.051 C 
DOCKED: ATOM     25  N   UNL d   1      -1.099  -1.253  -8.478 -0.12 -0.12    -0.248 N 
DOCKED: ATOM     26  N   UNL d   1      -0.181  -1.758  -5.762 -0.25 -0.07    -0.248 N 
DOCKED: ATOM     27  N   UNL d   1       2.444  -2.180  -6.734 -0.23 -0.08    -0.248 N 
DOCKED: ATOM     28  N   UNL d   1       1.552  -1.680  -9.453 -0.15 -0.13    -0.248 N 
DOCKED: ATOM     29 FE   UNL d   1       0.694  -1.719  -7.620 -0.09 +0.00    +0.000 Fe
DOCKED: ATOM     30  O   UNL d   1       0.218  -0.265  -7.331 -0.77 +0.00    +0.000 OA
DOCKED: ATOM     31  O   UNL d   1       1.740  -0.544  -7.626 -1.06 +0.00    +0.000 OA
DOCKED: ENDROOT
DOCKED: BRANCH   6  32
DOCKED: ATOM     32  C   UNL d   1      -3.405  -0.360 -11.256 -0.26 +0.06    +0.052 C 
DOCKED: BRANCH  32  33
DOCKED: ATOM     33  C   UNL d   1      -3.266   1.126 -11.570 -0.16 +0.13    +0.115 C 
DOCKED: BRANCH  33  34
DOCKED: ATOM     34  C   UNL d   1      -2.939   1.379 -13.021 -0.17 +0.21    +0.139 C 
DOCKED: ATOM     35  O   UNL d   1      -2.473   2.456 -13.356 +0.17 -1.32    -0.650 OA
DOCKED: BRANCH  34  36
DOCKED: ATOM     36  O   UNL d   1      -3.177   0.448 -13.968 -0.05 -1.43    -0.776 OA
DOCKED: ATOM     37  H   UNL d   1      -2.484   0.131 -14.559 +0.02 +0.31    +0.167 HD
DOCKED: ENDBRANCH  34  36
DOCKED: ENDBRANCH  33  34
DOCKED: ENDBRANCH  32  33
DOCKED: ENDBRANCH   6  32
DOCKED: BRANCH  22  38
DOCKED: ATOM     38  C   UNL d   1       1.616  -1.362 -13.154 -0.09 +0.03    +0.052 C 
DOCKED: BRANCH  38  39
DOCKED: ATOM     39  C   UNL d   1       0.222  -1.814 -13.584 -0.08 +0.11    +0.115 C 
DOCKED: BRANCH  39  40
DOCKED: ATOM     40  C   UNL d   1      -0.457  -0.811 -14.482 -0.16 +0.16    +0.139 C 
DOCKED: ATOM     41  O   UNL d   1      -1.151  -1.199 -15.408 -0.42 -1.02    -0.650 OA
DOCKED: BRANCH  40  42
DOCKED: ATOM     42  O   UNL d   1      -0.355   0.512 -14.251 +0.06 -0.74    -0.776 OA
DOCKED: ATOM     43  H   UNL d   1      -1.131   1.085 -14.243 +0.05 +0.19    +0.167 HD
DOCKED: ENDBRANCH  40  42
DOCKED: ENDBRANCH  39  40
DOCKED: ENDBRANCH  38  39
DOCKED: ENDBRANCH  22  38
DOCKED: BRANCH  12  44
DOCKED: ATOM     44  C   UNL d   1      -0.562  -2.542  -2.081 -0.52 +0.00    +0.004 C 
DOCKED: ATOM     45  C   UNL d   1       0.509  -2.558  -1.288 -0.62 +0.00    +0.012 C 
DOCKED: ENDBRANCH  12  44
DOCKED: BRANCH  17  46
DOCKED: ATOM     46  C   UNL d   1       6.125  -2.660  -6.804 -0.58 +0.00    +0.004 C 
DOCKED: ATOM     47  C   UNL d   1       7.187  -2.542  -5.996 -0.68 +0.00    +0.012 C 
DOCKED: ENDBRANCH  17  46
DOCKED: TORSDOF 10
DOCKED: TER
DOCKED: ENDMDL
________________________________________________________________________________


	BEGINNING GENETIC ALGORITHM DOCKING 63 of 100
Run: 63 Seed: 188154392 2110898169 [ Run 63 of 100 GA/GALS ]
Beginning LAMARCKIAN GENETIC ALGORITHM (LGA), with a maximum of 25000000 energy evaluations.

Final-Value: -11.997


	FINAL GENETIC ALGORITHM DOCKED STATE
	_______________________________________________


Detailed state:  trans 15.694 -0.314 -11.508 quatxyzw -0.023854 0.718189 -0.395532 -0.572005 center 8.287 34.468 -0.670 ntor 10 113.7936 155.7879 -53.3272 -90.3892 -130.6558 -50.9062 -70.0230 101.2414 172.1970 -178.1825
State:	 15.694  -0.314 -11.508  -0.029  0.876 -0.482 -110.220    113.79  155.79  -53.33  -90.39 -130.66  -50.91  -70.02  101.24  172.20 -178.18

DOCKED: MODEL       63
DOCKED: USER    Run = 63
DOCKED: USER    DPF = D:/Protein_go_brrr/autodock/final/AncB/heme_O2/dock.dpf
DOCKED: USER  
DOCKED: USER    Estimated Free Energy of Binding    =   -6.45 kcal/mol  [=(1)+(2)+(3)-(4)]
DOCKED: USER    Estimated Inhibition Constant, Ki   =   18.74 uM (micromolar)  [Temperature = 298.15 K]
DOCKED: USER    
DOCKED: USER    (1) Final Intermolecular Energy     =   -9.43 kcal/mol
DOCKED: USER        vdW + Hbond + desolv Energy     =   -7.47 kcal/mol
DOCKED: USER        Electrostatic Energy            =   -1.96 kcal/mol
DOCKED: USER    (2) Final Total Internal Energy     =   -2.57 kcal/mol
DOCKED: USER    (3) Torsional Free Energy           =   +2.98 kcal/mol
DOCKED: USER    (4) Unbound System's Energy  [=(2)] =   -2.57 kcal/mol
DOCKED: USER    
DOCKED: USER    
DOCKED: USER    NEWDPF move heme_O2_opt.pdbqt
DOCKED: USER    NEWDPF about 8.287000 34.468000 -0.670000
DOCKED: USER    NEWDPF tran0 15.693623 -0.314461 -11.507852
DOCKED: USER    NEWDPF quaternion0 -0.023854 0.718189 -0.395532 -0.572005
DOCKED: USER    NEWDPF axisangle0 -0.029081 0.875573 -0.482209 -110.219617
DOCKED: USER    NEWDPF quat0 -0.029081 0.875573 -0.482209 -110.219617
DOCKED: USER    NEWDPF dihe0 113.79 155.79 -53.33 -90.39 -130.66 -50.91 -70.02 101.24 172.20 -178.18 
DOCKED: USER  keepresnum = 1 
DOCKED: USER  
DOCKED: REMARK  10 active torsions:
DOCKED: REMARK  status: ('A' for Active; 'I' for Inactive)
DOCKED: REMARK    1  A    between atoms: C_6  and  C_10 
DOCKED: REMARK    2  A    between atoms: C_10  and  C_11 
DOCKED: REMARK    3  A    between atoms: C_11  and  C_12 
DOCKED: REMARK    4  A    between atoms: C_12  and  O_14 
DOCKED: REMARK    5  A    between atoms: C_17  and  C_20 
DOCKED: REMARK    6  A    between atoms: C_24  and  C_27 
DOCKED: REMARK    7  A    between atoms: C_31  and  C_34 
DOCKED: REMARK    8  A    between atoms: C_34  and  C_35 
DOCKED: REMARK    9  A    between atoms: C_35  and  C_36 
DOCKED: REMARK   10  A    between atoms: C_36  and  O_38 
DOCKED: USER                              x       y       z     vdW  Elec       q    Type
DOCKED: USER                           _______ _______ _______ _____ _____    ______ ____
DOCKED: ROOT
DOCKED: ATOM      1  C   UNL d   1      15.917   1.441 -10.339 -0.22 +0.03    +0.064 A 
DOCKED: ATOM      2  C   UNL d   1      17.488  -3.006  -9.780 -0.16 +0.02    +0.064 A 
DOCKED: ATOM      3  C   UNL d   1      15.311  -4.383 -13.837 -0.12 +0.02    +0.064 C 
DOCKED: ATOM      4  C   UNL d   1      14.089   0.294 -14.673 -0.25 +0.02    +0.064 A 
DOCKED: ATOM      5  C   UNL d   1      16.523   0.345  -9.857 -0.32 +0.03    +0.066 A 
DOCKED: ATOM      6  C   UNL d   1      17.253   0.313  -8.665 -0.23 -0.01    -0.021 A 
DOCKED: ATOM      7  C   UNL d   1      17.745  -0.963  -8.524 -0.26 -0.01    -0.025 A 
DOCKED: ATOM      8  C   UNL d   1      17.261  -1.689  -9.609 -0.23 +0.02    +0.066 A 
DOCKED: ATOM      9  C   UNL d   1      18.656  -1.422  -7.406 -0.26 +0.02    +0.051 C 
DOCKED: ATOM     10  C   UNL d   1      16.989  -3.826 -10.885 -0.13 +0.02    +0.066 A 
DOCKED: ATOM     11  C   UNL d   1      17.115  -5.219 -10.928 -0.11 -0.01    -0.021 A 
DOCKED: ATOM     12  C   UNL d   1      16.478  -5.636 -12.082 -0.12 +0.00    +0.000 A 
DOCKED: ATOM     13  C   UNL d   1      15.998  -4.447 -12.697 -0.10 +0.03    +0.070 A 
DOCKED: ATOM     14  C   UNL d   1      17.791  -6.116  -9.898 -0.08 +0.02    +0.052 C 
DOCKED: ATOM     15  C   UNL d   1      14.839  -3.197 -14.511 -0.12 +0.02    +0.066 A 
DOCKED: ATOM     16  C   UNL d   1      14.269  -3.185 -15.783 -0.11 -0.00    -0.021 A 
DOCKED: ATOM     17  C   UNL d   1      13.914  -1.861 -16.043 -0.17 +0.00    +0.000 A 
DOCKED: ATOM     18  C   UNL d   1      14.297  -1.157 -14.894 -0.20 +0.02    +0.070 A 
DOCKED: ATOM     19  C   UNL d   1      14.166  -4.414 -16.651 -0.05 +0.01    +0.052 C 
DOCKED: ATOM     20  C   UNL d   1      14.483   1.009 -13.601 -0.27 +0.02    +0.066 A 
DOCKED: ATOM     21  C   UNL d   1      14.244   2.371 -13.441 -0.31 -0.01    -0.025 A 
DOCKED: ATOM     22  C   UNL d   1      14.734   2.710 -12.200 -0.30 -0.01    -0.021 A 
DOCKED: ATOM     23  C   UNL d   1      15.272   1.541 -11.653 -0.24 +0.03    +0.066 A 
DOCKED: ATOM     24  C   UNL d   1      13.584   3.303 -14.424 -0.32 +0.01    +0.051 C 
DOCKED: ATOM     25  N   UNL d   1      16.564  -0.867 -10.464 -0.18 -0.08    -0.248 N 
DOCKED: ATOM     26  N   UNL d   1      16.318  -3.350 -11.965 -0.10 -0.09    -0.248 N 
DOCKED: ATOM     27  N   UNL d   1      14.924  -1.970 -14.006 -0.12 -0.08    -0.248 N 
DOCKED: ATOM     28  N   UNL d   1      15.158   0.520 -12.527 -0.18 -0.08    -0.248 N 
DOCKED: ATOM     29 FE   UNL d   1      15.733  -1.401 -12.251 -0.05 +0.00    +0.000 Fe
DOCKED: ATOM     30  O   UNL d   1      17.289  -1.395 -12.259 -0.11 +0.00    +0.000 OA
DOCKED: ATOM     31  O   UNL d   1      16.500  -0.856 -13.511 -0.12 +0.00    +0.000 OA
DOCKED: ENDROOT
DOCKED: BRANCH   6  32
DOCKED: ATOM     32  C   UNL d   1      17.593   1.470  -7.760 -0.02 +0.03    +0.052 C 
DOCKED: BRANCH  32  33
DOCKED: ATOM     33  C   UNL d   1      19.042   1.925  -7.901 -0.19 +0.07    +0.115 C 
DOCKED: BRANCH  33  34
DOCKED: ATOM     34  C   UNL d   1      19.163   3.249  -8.614 -0.12 +0.12    +0.139 C 
DOCKED: ATOM     35  O   UNL d   1      18.931   4.283  -8.009 -0.56 -1.00    -0.650 OA
DOCKED: BRANCH  34  36
DOCKED: ATOM     36  O   UNL d   1      19.496   3.317  -9.919 +0.04 -0.46    -0.776 OA
DOCKED: ATOM     37  H   UNL d   1      18.880   3.641 -10.587 +0.04 +0.11    +0.167 HD
DOCKED: ENDBRANCH  34  36
DOCKED: ENDBRANCH  33  34
DOCKED: ENDBRANCH  32  33
DOCKED: ENDBRANCH   6  32
DOCKED: BRANCH  22  38
DOCKED: ATOM     38  C   UNL d   1      14.739   4.095 -11.605 -0.38 +0.03    +0.052 C 
DOCKED: BRANCH  38  39
DOCKED: ATOM     39  C   UNL d   1      15.826   4.982 -12.207 -0.29 +0.07    +0.115 C 
DOCKED: BRANCH  39  40
DOCKED: ATOM     40  C   UNL d   1      17.185   4.714 -11.609 -0.19 +0.10    +0.139 C 
DOCKED: ATOM     41  O   UNL d   1      17.941   3.925 -12.153 +0.04 -0.31    -0.650 OA
DOCKED: BRANCH  40  42
DOCKED: ATOM     42  O   UNL d   1      17.603   5.369 -10.509 +0.01 -0.90    -0.776 OA
DOCKED: ATOM     43  H   UNL d   1      18.302   5.016  -9.946 +0.04 +0.20    +0.167 HD
DOCKED: ENDBRANCH  40  42
DOCKED: ENDBRANCH  39  40
DOCKED: ENDBRANCH  38  39
DOCKED: ENDBRANCH  22  38
DOCKED: BRANCH  12  44
DOCKED: ATOM     44  C   UNL d   1      16.397  -7.097 -12.472 -0.09 +0.00    +0.004 C 
DOCKED: ATOM     45  C   UNL d   1      15.304  -7.826 -12.695 -0.12 +0.01    +0.012 C 
DOCKED: ENDBRANCH  12  44
DOCKED: BRANCH  17  46
DOCKED: ATOM     46  C   UNL d   1      13.317  -1.221 -17.268 -0.06 +0.00    +0.004 C 
DOCKED: ATOM     47  C   UNL d   1      13.948  -0.570 -18.254 -0.07 +0.00    +0.012 C 
DOCKED: ENDBRANCH  17  46
DOCKED: TORSDOF 10
DOCKED: TER
DOCKED: ENDMDL
________________________________________________________________________________


	BEGINNING GENETIC ALGORITHM DOCKING 64 of 100
Run: 64 Seed: 1810961336 1035594670 [ Run 64 of 100 GA/GALS ]
Beginning LAMARCKIAN GENETIC ALGORITHM (LGA), with a maximum of 25000000 energy evaluations.

Final-Value: -11.197


	FINAL GENETIC ALGORITHM DOCKED STATE
	_______________________________________________


Detailed state:  trans -6.868 -1.434 -12.142 quatxyzw -0.443498 0.802047 -0.063361 0.394987 center 8.287 34.468 -0.670 ntor 10 -173.3412 70.4226 -116.5464 101.4843 -100.3010 176.4287 113.6673 87.7458 40.0502 -180.0000
State:	 -6.868  -1.434 -12.142  -0.483  0.873 -0.069 133.470   -173.34   70.42 -116.55  101.48 -100.30  176.43  113.67   87.75   40.05 -180.00

DOCKED: MODEL       64
DOCKED: USER    Run = 64
DOCKED: USER    DPF = D:/Protein_go_brrr/autodock/final/AncB/heme_O2/dock.dpf
DOCKED: USER  
DOCKED: USER    Estimated Free Energy of Binding    =   -7.62 kcal/mol  [=(1)+(2)+(3)-(4)]
DOCKED: USER    Estimated Inhibition Constant, Ki   =    2.58 uM (micromolar)  [Temperature = 298.15 K]
DOCKED: USER    
DOCKED: USER    (1) Final Intermolecular Energy     =  -10.61 kcal/mol
DOCKED: USER        vdW + Hbond + desolv Energy     =   -7.76 kcal/mol
DOCKED: USER        Electrostatic Energy            =   -2.85 kcal/mol
DOCKED: USER    (2) Final Total Internal Energy     =   -0.59 kcal/mol
DOCKED: USER    (3) Torsional Free Energy           =   +2.98 kcal/mol
DOCKED: USER    (4) Unbound System's Energy  [=(2)] =   -0.59 kcal/mol
DOCKED: USER    
DOCKED: USER    
DOCKED: USER    NEWDPF move heme_O2_opt.pdbqt
DOCKED: USER    NEWDPF about 8.287000 34.468000 -0.670000
DOCKED: USER    NEWDPF tran0 -6.867713 -1.434428 -12.142156
DOCKED: USER    NEWDPF quaternion0 -0.443498 0.802047 -0.063361 0.394987
DOCKED: USER    NEWDPF axisangle0 -0.482752 0.873037 -0.068969 133.469670
DOCKED: USER    NEWDPF quat0 -0.482752 0.873037 -0.068969 133.469670
DOCKED: USER    NEWDPF dihe0 -173.34 70.42 -116.55 101.48 -100.30 176.43 113.67 87.75 40.05 -180.00 
DOCKED: USER  keepresnum = 1 
DOCKED: USER  
DOCKED: REMARK  10 active torsions:
DOCKED: REMARK  status: ('A' for Active; 'I' for Inactive)
DOCKED: REMARK    1  A    between atoms: C_6  and  C_10 
DOCKED: REMARK    2  A    between atoms: C_10  and  C_11 
DOCKED: REMARK    3  A    between atoms: C_11  and  C_12 
DOCKED: REMARK    4  A    between atoms: C_12  and  O_14 
DOCKED: REMARK    5  A    between atoms: C_17  and  C_20 
DOCKED: REMARK    6  A    between atoms: C_24  and  C_27 
DOCKED: REMARK    7  A    between atoms: C_31  and  C_34 
DOCKED: REMARK    8  A    between atoms: C_34  and  C_35 
DOCKED: REMARK    9  A    between atoms: C_35  and  C_36 
DOCKED: REMARK   10  A    between atoms: C_36  and  O_38 
DOCKED: USER                              x       y       z     vdW  Elec       q    Type
DOCKED: USER                           _______ _______ _______ _____ _____    ______ ____
DOCKED: ROOT
DOCKED: ATOM      1  C   UNL d   1      -6.313   0.524 -12.738 -0.08 +0.06    +0.064 A 
DOCKED: ATOM      2  C   UNL d   1      -6.723  -3.561 -15.127 -0.08 +0.08    +0.064 A 
DOCKED: ATOM      3  C   UNL d   1      -7.979  -5.888 -11.114 -0.27 +0.03    +0.064 C 
DOCKED: ATOM      4  C   UNL d   1      -8.025  -1.597  -8.737 -0.17 +0.02    +0.064 A 
DOCKED: ATOM      5  C   UNL d   1      -6.324  -0.397 -13.716 -0.07 +0.08    +0.066 A 
DOCKED: ATOM      6  C   UNL d   1      -5.990  -0.130 -15.046 -0.06 -0.02    -0.021 A 
DOCKED: ATOM      7  C   UNL d   1      -6.150  -1.302 -15.747 -0.04 -0.03    -0.025 A 
DOCKED: ATOM      8  C   UNL d   1      -6.531  -2.264 -14.816 -0.03 +0.09    +0.066 A 
DOCKED: ATOM      9  C   UNL d   1      -5.967  -1.449 -17.242 -0.03 +0.04    +0.051 C 
DOCKED: ATOM     10  C   UNL d   1      -7.101  -4.620 -14.190 -0.13 +0.06    +0.066 A 
DOCKED: ATOM     11  C   UNL d   1      -7.128  -5.976 -14.532 -0.17 -0.02    -0.021 A 
DOCKED: ATOM     12  C   UNL d   1      -7.470  -6.665 -13.383 -0.29 +0.00    +0.000 A 
DOCKED: ATOM     13  C   UNL d   1      -7.649  -5.667 -12.386 -0.27 +0.04    +0.070 A 
DOCKED: ATOM     14  C   UNL d   1      -6.813  -6.592 -15.891 -0.16 +0.05    +0.052 C 
DOCKED: ATOM     15  C   UNL d   1      -8.204  -4.903 -10.083 -0.30 +0.03    +0.066 A 
DOCKED: ATOM     16  C   UNL d   1      -8.706  -5.188  -8.814 -0.39 -0.01    -0.021 A 
DOCKED: ATOM     17  C   UNL d   1      -8.729  -3.979  -8.118 -0.32 +0.00    +0.000 A 
DOCKED: ATOM     18  C   UNL d   1      -8.230  -3.035  -9.027 -0.19 +0.03    +0.070 A 
DOCKED: ATOM     19  C   UNL d   1      -9.167  -6.563  -8.401 -0.34 +0.02    +0.052 C 
DOCKED: ATOM     20  C   UNL d   1      -7.589  -0.656  -9.598 -0.12 +0.03    +0.066 A 
DOCKED: ATOM     21  C   UNL d   1      -7.399   0.681  -9.262 -0.19 -0.01    -0.025 A 
DOCKED: ATOM     22  C   UNL d   1      -6.885   1.295 -10.382 -0.16 -0.01    -0.021 A 
DOCKED: ATOM     23  C   UNL d   1      -6.798   0.309 -11.370 -0.08 +0.04    +0.066 A 
DOCKED: ATOM     24  C   UNL d   1      -7.695   1.341  -7.940 -0.31 +0.01    +0.051 C 
DOCKED: ATOM     25  N   UNL d   1      -6.702  -1.691 -13.577 -0.07 -0.31    -0.248 N 
DOCKED: ATOM     26  N   UNL d   1      -7.427  -4.425 -12.887 -0.11 -0.19    -0.248 N 
DOCKED: ATOM     27  N   UNL d   1      -7.987  -3.600 -10.237 -0.12 -0.12    -0.248 N 
DOCKED: ATOM     28  N   UNL d   1      -7.270  -0.865 -10.903 -0.04 -0.15    -0.248 N 
DOCKED: ATOM     29 FE   UNL d   1      -7.349  -2.633 -11.885 -0.03 +0.00    +0.000 Fe
DOCKED: ATOM     30  O   UNL d   1      -8.448  -2.475 -12.976 -0.06 +0.00    +0.000 OA
DOCKED: ATOM     31  O   UNL d   1      -8.817  -2.264 -11.459 -0.07 +0.00    +0.000 OA
DOCKED: ENDROOT
DOCKED: BRANCH   6  32
DOCKED: ATOM     32  C   UNL d   1      -5.665   1.205 -15.667 -0.05 +0.05    +0.052 C 
DOCKED: BRANCH  32  33
DOCKED: ATOM     33  C   UNL d   1      -4.304   1.221 -16.357 -0.05 +0.13    +0.115 C 
DOCKED: BRANCH  33  34
DOCKED: ATOM     34  C   UNL d   1      -3.161   1.119 -15.379 -0.09 +0.21    +0.139 C 
DOCKED: ATOM     35  O   UNL d   1      -2.507   0.090 -15.320 -0.44 -1.09    -0.650 OA
DOCKED: BRANCH  34  36
DOCKED: ATOM     36  O   UNL d   1      -2.859   2.133 -14.542 -0.36 -1.59    -0.776 OA
DOCKED: ATOM     37  H   UNL d   1      -2.074   2.118 -13.983 +0.03 +0.28    +0.167 HD
DOCKED: ENDBRANCH  34  36
DOCKED: ENDBRANCH  33  34
DOCKED: ENDBRANCH  32  33
DOCKED: ENDBRANCH   6  32
DOCKED: BRANCH  22  38
DOCKED: ATOM     38  C   UNL d   1      -6.560   2.761 -10.509 -0.06 +0.03    +0.052 C 
DOCKED: BRANCH  38  39
DOCKED: ATOM     39  C   UNL d   1      -7.805   3.616 -10.732 -0.16 +0.06    +0.115 C 
DOCKED: BRANCH  39  40
DOCKED: ATOM     40  C   UNL d   1      -8.086   3.856 -12.195 -0.09 +0.08    +0.139 C 
DOCKED: ATOM     41  O   UNL d   1      -7.160   4.058 -12.964 -0.04 -0.60    -0.650 OA
DOCKED: BRANCH  40  42
DOCKED: ATOM     42  O   UNL d   1      -9.341   3.801 -12.681 +0.02 -0.34    -0.776 OA
DOCKED: ATOM     43  H   UNL d   1      -9.982   4.499 -12.502 +0.01 +0.06    +0.167 HD
DOCKED: ENDBRANCH  40  42
DOCKED: ENDBRANCH  39  40
DOCKED: ENDBRANCH  38  39
DOCKED: ENDBRANCH  22  38
DOCKED: BRANCH  12  44
DOCKED: ATOM     44  C   UNL d   1      -7.592  -8.175 -13.357 -0.32 +0.00    +0.004 C 
DOCKED: ATOM     45  C   UNL d   1      -6.656  -9.077 -13.647 -0.41 +0.00    +0.012 C 
DOCKED: ENDBRANCH  12  44
DOCKED: BRANCH  17  46
DOCKED: ATOM     46  C   UNL d   1      -9.221  -3.644  -6.735 -0.44 +0.00    +0.004 C 
DOCKED: ATOM     47  C   UNL d   1      -8.516  -3.580  -5.598 -0.59 +0.00    +0.012 C 
DOCKED: ENDBRANCH  17  46
DOCKED: TORSDOF 10
DOCKED: TER
DOCKED: ENDMDL
________________________________________________________________________________


	BEGINNING GENETIC ALGORITHM DOCKING 65 of 100
Run: 65 Seed: 669141459 1840579350 [ Run 65 of 100 GA/GALS ]
Beginning LAMARCKIAN GENETIC ALGORITHM (LGA), with a maximum of 25000000 energy evaluations.

Final-Value: -20.573


	FINAL GENETIC ALGORITHM DOCKED STATE
	_______________________________________________


Detailed state:  trans 0.307 -1.612 -8.903 quatxyzw 0.285197 0.262809 0.234959 0.891285 center 8.287 34.468 -0.670 ntor 10 103.8556 -118.6407 35.8217 -59.4724 117.1464 134.0114 -38.7692 33.9061 -144.6428 178.4098
State:	  0.307  -1.612  -8.903   0.629  0.580  0.518 53.930    103.86 -118.64   35.82  -59.47  117.15  134.01  -38.77   33.91 -144.64  178.41

DOCKED: MODEL       65
DOCKED: USER    Run = 65
DOCKED: USER    DPF = D:/Protein_go_brrr/autodock/final/AncB/heme_O2/dock.dpf
DOCKED: USER  
DOCKED: USER    Estimated Free Energy of Binding    =  -15.66 kcal/mol  [=(1)+(2)+(3)-(4)]
DOCKED: USER    Estimated Inhibition Constant, Ki   =    3.31 pM (picomolar)  [Temperature = 298.15 K]
DOCKED: USER    
DOCKED: USER    (1) Final Intermolecular Energy     =  -18.64 kcal/mol
DOCKED: USER        vdW + Hbond + desolv Energy     =  -15.58 kcal/mol
DOCKED: USER        Electrostatic Energy            =   -3.06 kcal/mol
DOCKED: USER    (2) Final Total Internal Energy     =   -1.93 kcal/mol
DOCKED: USER    (3) Torsional Free Energy           =   +2.98 kcal/mol
DOCKED: USER    (4) Unbound System's Energy  [=(2)] =   -1.93 kcal/mol
DOCKED: USER    
DOCKED: USER    
DOCKED: USER    NEWDPF move heme_O2_opt.pdbqt
DOCKED: USER    NEWDPF about 8.287000 34.468000 -0.670000
DOCKED: USER    NEWDPF tran0 0.306891 -1.612331 -8.902861
DOCKED: USER    NEWDPF quaternion0 0.285197 0.262809 0.234959 0.891285
DOCKED: USER    NEWDPF axisangle0 0.628957 0.579584 0.518165 53.929655
DOCKED: USER    NEWDPF quat0 0.628957 0.579584 0.518165 53.929655
DOCKED: USER    NEWDPF dihe0 103.86 -118.64 35.82 -59.47 117.15 134.01 -38.77 33.91 -144.64 178.41 
DOCKED: USER  keepresnum = 1 
DOCKED: USER  
DOCKED: REMARK  10 active torsions:
DOCKED: REMARK  status: ('A' for Active; 'I' for Inactive)
DOCKED: REMARK    1  A    between atoms: C_6  and  C_10 
DOCKED: REMARK    2  A    between atoms: C_10  and  C_11 
DOCKED: REMARK    3  A    between atoms: C_11  and  C_12 
DOCKED: REMARK    4  A    between atoms: C_12  and  O_14 
DOCKED: REMARK    5  A    between atoms: C_17  and  C_20 
DOCKED: REMARK    6  A    between atoms: C_24  and  C_27 
DOCKED: REMARK    7  A    between atoms: C_31  and  C_34 
DOCKED: REMARK    8  A    between atoms: C_34  and  C_35 
DOCKED: REMARK    9  A    between atoms: C_35  and  C_36 
DOCKED: REMARK   10  A    between atoms: C_36  and  O_38 
DOCKED: USER                              x       y       z     vdW  Elec       q    Type
DOCKED: USER                           _______ _______ _______ _____ _____    ______ ____
DOCKED: ROOT
DOCKED: ATOM      1  C   UNL d   1      -0.488  -1.177 -10.821 -0.23 +0.05    +0.064 A 
DOCKED: ATOM      2  C   UNL d   1      -2.396  -1.133  -6.471 -0.41 +0.02    +0.064 A 
DOCKED: ATOM      3  C   UNL d   1       1.756  -2.585  -4.535 -0.39 +0.01    +0.064 C 
DOCKED: ATOM      4  C   UNL d   1       3.863  -2.173  -8.946 -0.42 +0.02    +0.064 A 
DOCKED: ATOM      5  C   UNL d   1      -1.346  -1.045  -9.795 -0.30 +0.04    +0.066 A 
DOCKED: ATOM      6  C   UNL d   1      -2.682  -0.661  -9.937 -0.32 -0.02    -0.021 A 
DOCKED: ATOM      7  C   UNL d   1      -3.224  -0.605  -8.674 -0.36 -0.01    -0.025 A 
DOCKED: ATOM      8  C   UNL d   1      -2.216  -1.005  -7.800 -0.36 +0.03    +0.066 A 
DOCKED: ATOM      9  C   UNL d   1      -4.633  -0.158  -8.356 -0.39 +0.02    +0.051 C 
DOCKED: ATOM     10  C   UNL d   1      -1.385  -1.570  -5.507 -0.40 +0.02    +0.066 A 
DOCKED: ATOM     11  C   UNL d   1      -1.669  -1.843  -4.165 -0.46 -0.00    -0.021 A 
DOCKED: ATOM     12  C   UNL d   1      -0.488  -2.280  -3.594 -0.44 +0.00    +0.000 A 
DOCKED: ATOM     13  C   UNL d   1       0.474  -2.236  -4.641 -0.40 +0.01    +0.070 A 
DOCKED: ATOM     14  C   UNL d   1      -3.016  -1.719  -3.463 -0.62 +0.01    +0.052 C 
DOCKED: ATOM     15  C   UNL d   1       2.769  -2.521  -5.561 -0.41 +0.01    +0.066 A 
DOCKED: ATOM     16  C   UNL d   1       4.128  -2.744  -5.344 -0.51 -0.00    -0.021 A 
DOCKED: ATOM     17  C   UNL d   1       4.749  -2.631  -6.588 -0.50 +0.00    +0.000 A 
DOCKED: ATOM     18  C   UNL d   1       3.708  -2.346  -7.482 -0.43 +0.02    +0.070 A 
DOCKED: ATOM     19  C   UNL d   1       4.714  -2.987  -3.976 -0.52 +0.01    +0.052 C 
DOCKED: ATOM     20  C   UNL d   1       2.893  -1.857  -9.826 -0.45 +0.02    +0.066 A 
DOCKED: ATOM     21  C   UNL d   1       3.096  -1.725 -11.197 -0.44 -0.01    -0.025 A 
DOCKED: ATOM     22  C   UNL d   1       1.862  -1.468 -11.750 -0.01 -0.01    -0.021 A 
DOCKED: ATOM     23  C   UNL d   1       0.951  -1.435 -10.690 -0.16 +0.03    +0.066 A 
DOCKED: ATOM     24  C   UNL d   1       4.402  -1.835 -11.940 -0.48 +0.01    +0.051 C 
DOCKED: ATOM     25  N   UNL d   1      -1.042  -1.212  -8.485 -0.21 -0.12    -0.248 N 
DOCKED: ATOM     26  N   UNL d   1      -0.079  -1.798  -5.800 -0.25 -0.07    -0.248 N 
DOCKED: ATOM     27  N   UNL d   1       2.525  -2.209  -6.830 -0.22 -0.08    -0.248 N 
DOCKED: ATOM     28  N   UNL d   1       1.589  -1.627  -9.518 -0.18 -0.13    -0.248 N 
DOCKED: ATOM     29 FE   UNL d   1       0.764  -1.712  -7.671 -0.09 +0.00    +0.000 Fe
DOCKED: ATOM     30  O   UNL d   1       0.302  -0.265  -7.334 -0.80 +0.00    +0.000 OA
DOCKED: ATOM     31  O   UNL d   1       1.817  -0.545  -7.664 -1.05 +0.00    +0.000 OA
DOCKED: ENDROOT
DOCKED: BRANCH   6  32
DOCKED: ATOM     32  C   UNL d   1      -3.389  -0.227 -11.195 -0.27 +0.06    +0.052 C 
DOCKED: BRANCH  32  33
DOCKED: ATOM     33  C   UNL d   1      -2.772   1.020 -11.822 -0.22 +0.13    +0.115 C 
DOCKED: BRANCH  33  34
DOCKED: ATOM     34  C   UNL d   1      -2.696   0.929 -13.326 -0.19 +0.21    +0.139 C 
DOCKED: ATOM     35  O   UNL d   1      -2.496  -0.152 -13.856 +0.09 -1.42    -0.650 OA
DOCKED: BRANCH  34  36
DOCKED: ATOM     36  O   UNL d   1      -2.815   2.025 -14.103 -0.28 -1.54    -0.776 OA
DOCKED: ATOM     37  H   UNL d   1      -2.053   2.437 -14.527 +0.03 +0.32    +0.167 HD
DOCKED: ENDBRANCH  34  36
DOCKED: ENDBRANCH  33  34
DOCKED: ENDBRANCH  32  33
DOCKED: ENDBRANCH   6  32
DOCKED: BRANCH  22  38
DOCKED: ATOM     38  C   UNL d   1       1.591  -1.206 -13.209 -0.27 +0.03    +0.052 C 
DOCKED: BRANCH  38  39
DOCKED: ATOM     39  C   UNL d   1       1.927   0.227 -13.615 -0.25 +0.06    +0.115 C 
DOCKED: BRANCH  39  40
DOCKED: ATOM     40  C   UNL d   1       1.016   0.748 -14.699 -0.14 +0.09    +0.139 C 
DOCKED: ATOM     41  O   UNL d   1       1.233   0.458 -15.864 +0.05 -0.37    -0.650 OA
DOCKED: BRANCH  40  42
DOCKED: ATOM     42  O   UNL d   1      -0.068   1.489 -14.400 +0.06 -0.68    -0.776 OA
DOCKED: ATOM     43  H   UNL d   1      -0.961   1.177 -14.590 +0.04 +0.18    +0.167 HD
DOCKED: ENDBRANCH  40  42
DOCKED: ENDBRANCH  39  40
DOCKED: ENDBRANCH  38  39
DOCKED: ENDBRANCH  22  38
DOCKED: BRANCH  12  44
DOCKED: ATOM     44  C   UNL d   1      -0.401  -2.683  -2.136 -0.42 +0.00    +0.004 C 
DOCKED: ATOM     45  C   UNL d   1       0.644  -2.570  -1.317 -0.62 +0.00    +0.012 C 
DOCKED: ENDBRANCH  12  44
DOCKED: BRANCH  17  46
DOCKED: ATOM     46  C   UNL d   1       6.201  -2.710  -6.978 -0.47 +0.00    +0.004 C 
DOCKED: ATOM     47  C   UNL d   1       7.192  -1.868  -6.656 -0.53 +0.00    +0.012 C 
DOCKED: ENDBRANCH  17  46
DOCKED: TORSDOF 10
DOCKED: TER
DOCKED: ENDMDL
________________________________________________________________________________


	BEGINNING GENETIC ALGORITHM DOCKING 66 of 100
Run: 66 Seed: 1276560062 787409235 [ Run 66 of 100 GA/GALS ]
Beginning LAMARCKIAN GENETIC ALGORITHM (LGA), with a maximum of 25000000 energy evaluations.

Final-Value: -20.667


	FINAL GENETIC ALGORITHM DOCKED STATE
	_______________________________________________


Detailed state:  trans 0.213 -1.672 -8.879 quatxyzw -0.290702 -0.295219 -0.232638 -0.879896 center 8.287 34.468 -0.670 ntor 10 62.0701 50.1760 25.3513 -43.8586 -143.0585 -180.0000 8.4170 63.4879 179.8862 122.9723
State:	  0.213  -1.672  -8.879  -0.612 -0.621 -0.490 -56.740     62.07   50.18   25.35  -43.86 -143.06 -180.00    8.42   63.49  179.89  122.97

DOCKED: MODEL       66
DOCKED: USER    Run = 66
DOCKED: USER    DPF = D:/Protein_go_brrr/autodock/final/AncB/heme_O2/dock.dpf
DOCKED: USER  
DOCKED: USER    Estimated Free Energy of Binding    =  -16.08 kcal/mol  [=(1)+(2)+(3)-(4)]
DOCKED: USER    Estimated Inhibition Constant, Ki   =    1.64 pM (picomolar)  [Temperature = 298.15 K]
DOCKED: USER    
DOCKED: USER    (1) Final Intermolecular Energy     =  -19.06 kcal/mol
DOCKED: USER        vdW + Hbond + desolv Energy     =  -15.63 kcal/mol
DOCKED: USER        Electrostatic Energy            =   -3.43 kcal/mol
DOCKED: USER    (2) Final Total Internal Energy     =   -1.60 kcal/mol
DOCKED: USER    (3) Torsional Free Energy           =   +2.98 kcal/mol
DOCKED: USER    (4) Unbound System's Energy  [=(2)] =   -1.60 kcal/mol
DOCKED: USER    
DOCKED: USER    
DOCKED: USER    NEWDPF move heme_O2_opt.pdbqt
DOCKED: USER    NEWDPF about 8.287000 34.468000 -0.670000
DOCKED: USER    NEWDPF tran0 0.212699 -1.672241 -8.879496
DOCKED: USER    NEWDPF quaternion0 -0.290702 -0.295219 -0.232638 -0.879896
DOCKED: USER    NEWDPF axisangle0 -0.611791 -0.621298 -0.489593 -56.740313
DOCKED: USER    NEWDPF quat0 -0.611791 -0.621298 -0.489593 -56.740313
DOCKED: USER    NEWDPF dihe0 62.07 50.18 25.35 -43.86 -143.06 -180.00 8.42 63.49 179.89 122.97 
DOCKED: USER  keepresnum = 1 
DOCKED: USER  
DOCKED: REMARK  10 active torsions:
DOCKED: REMARK  status: ('A' for Active; 'I' for Inactive)
DOCKED: REMARK    1  A    between atoms: C_6  and  C_10 
DOCKED: REMARK    2  A    between atoms: C_10  and  C_11 
DOCKED: REMARK    3  A    between atoms: C_11  and  C_12 
DOCKED: REMARK    4  A    between atoms: C_12  and  O_14 
DOCKED: REMARK    5  A    between atoms: C_17  and  C_20 
DOCKED: REMARK    6  A    between atoms: C_24  and  C_27 
DOCKED: REMARK    7  A    between atoms: C_31  and  C_34 
DOCKED: REMARK    8  A    between atoms: C_34  and  C_35 
DOCKED: REMARK    9  A    between atoms: C_35  and  C_36 
DOCKED: REMARK   10  A    between atoms: C_36  and  O_38 
DOCKED: USER                              x       y       z     vdW  Elec       q    Type
DOCKED: USER                           _______ _______ _______ _____ _____    ______ ____
DOCKED: ROOT
DOCKED: ATOM      1  C   UNL d   1      -0.472  -1.312 -10.855 -0.29 +0.05    +0.064 A 
DOCKED: ATOM      2  C   UNL d   1      -2.638  -1.156  -6.630 -0.39 +0.02    +0.064 A 
DOCKED: ATOM      3  C   UNL d   1       1.410  -2.481  -4.403 -0.43 +0.01    +0.064 C 
DOCKED: ATOM      4  C   UNL d   1       3.772  -2.180  -8.692 -0.42 +0.02    +0.064 A 
DOCKED: ATOM      5  C   UNL d   1      -1.391  -1.160  -9.887 -0.32 +0.04    +0.066 A 
DOCKED: ATOM      6  C   UNL d   1      -2.721  -0.800 -10.121 -0.31 -0.02    -0.021 A 
DOCKED: ATOM      7  C   UNL d   1      -3.338  -0.713  -8.895 -0.33 -0.01    -0.025 A 
DOCKED: ATOM      8  C   UNL d   1      -2.380  -1.068  -7.950 -0.35 +0.03    +0.066 A 
DOCKED: ATOM      9  C   UNL d   1      -4.771  -0.277  -8.676 -0.36 +0.02    +0.051 C 
DOCKED: ATOM     10  C   UNL d   1      -1.680  -1.546  -5.594 -0.41 +0.02    +0.066 A 
DOCKED: ATOM     11  C   UNL d   1      -2.041  -1.780  -4.262 -0.48 -0.00    -0.021 A 
DOCKED: ATOM     12  C   UNL d   1      -0.891  -2.180  -3.608 -0.44 +0.00    +0.000 A 
DOCKED: ATOM     13  C   UNL d   1       0.132  -2.155  -4.597 -0.40 +0.01    +0.070 A 
DOCKED: ATOM     14  C   UNL d   1      -3.429  -1.654  -3.647 -0.59 +0.01    +0.052 C 
DOCKED: ATOM     15  C   UNL d   1       2.481  -2.435  -5.368 -0.40 +0.01    +0.066 A 
DOCKED: ATOM     16  C   UNL d   1       3.828  -2.630  -5.064 -0.51 -0.00    -0.021 A 
DOCKED: ATOM     17  C   UNL d   1       4.521  -2.547  -6.271 -0.52 +0.00    +0.000 A 
DOCKED: ATOM     18  C   UNL d   1       3.532  -2.308  -7.235 -0.42 +0.02    +0.070 A 
DOCKED: ATOM     19  C   UNL d   1       4.334  -2.819  -3.656 -0.33 +0.00    +0.052 C 
DOCKED: ATOM     20  C   UNL d   1       2.853  -1.907  -9.638 -0.45 +0.02    +0.066 A 
DOCKED: ATOM     21  C   UNL d   1       3.136  -1.816 -10.998 -0.46 -0.01    -0.025 A 
DOCKED: ATOM     22  C   UNL d   1       1.934  -1.596 -11.633 +0.04 -0.01    -0.021 A 
DOCKED: ATOM     23  C   UNL d   1       0.960  -1.543 -10.630 -0.16 +0.03    +0.066 A 
DOCKED: ATOM     24  C   UNL d   1       4.485  -1.930 -11.658 -0.45 +0.01    +0.051 C 
DOCKED: ATOM     25  N   UNL d   1      -1.164  -1.280  -8.556 -0.09 -0.12    -0.248 N 
DOCKED: ATOM     26  N   UNL d   1      -0.357  -1.764  -5.801 -0.25 -0.07    -0.248 N 
DOCKED: ATOM     27  N   UNL d   1       2.310  -2.168  -6.660 -0.24 -0.08    -0.248 N 
DOCKED: ATOM     28  N   UNL d   1       1.529  -1.687  -9.416 -0.14 -0.13    -0.248 N 
DOCKED: ATOM     29 FE   UNL d   1       0.596  -1.725  -7.620 -0.09 +0.00    +0.000 Fe
DOCKED: ATOM     30  O   UNL d   1       0.096  -0.275  -7.359 -0.72 +0.00    +0.000 OA
DOCKED: ATOM     31  O   UNL d   1       1.631  -0.542  -7.589 -1.08 +0.00    +0.000 OA
DOCKED: ENDROOT
DOCKED: BRANCH   6  32
DOCKED: ATOM     32  C   UNL d   1      -3.357  -0.419 -11.432 -0.23 +0.07    +0.052 C 
DOCKED: BRANCH  32  33
DOCKED: ATOM     33  C   UNL d   1      -3.416   1.091 -11.645 -0.16 +0.13    +0.115 C 
DOCKED: BRANCH  33  34
DOCKED: ATOM     34  C   UNL d   1      -4.186   1.467 -12.886 -0.11 +0.20    +0.139 C 
DOCKED: ATOM     35  O   UNL d   1      -5.384   1.241 -12.945 -0.03 -0.77    -0.650 OA
DOCKED: BRANCH  34  36
DOCKED: ATOM     36  O   UNL d   1      -3.574   2.026 -13.951 -0.37 -1.67    -0.776 OA
DOCKED: ATOM     37  H   UNL d   1      -2.889   1.563 -14.447 +0.03 +0.28    +0.167 HD
DOCKED: ENDBRANCH  34  36
DOCKED: ENDBRANCH  33  34
DOCKED: ENDBRANCH  32  33
DOCKED: ENDBRANCH   6  32
DOCKED: BRANCH  22  38
DOCKED: ATOM     38  C   UNL d   1       1.747  -1.386 -13.113 -0.08 +0.03    +0.052 C 
DOCKED: BRANCH  38  39
DOCKED: ATOM     39  C   UNL d   1       0.807  -0.223 -13.422 -0.21 +0.08    +0.115 C 
DOCKED: BRANCH  39  40
DOCKED: ATOM     40  C   UNL d   1      -0.432  -0.664 -14.161 -0.17 +0.16    +0.139 C 
DOCKED: ATOM     41  O   UNL d   1      -0.359  -1.567 -14.980 -0.08 -0.78    -0.650 OA
DOCKED: BRANCH  40  42
DOCKED: ATOM     42  O   UNL d   1      -1.632  -0.113 -13.898 -0.09 -1.27    -0.776 OA
DOCKED: ATOM     43  H   UNL d   1      -1.764   0.842 -13.915 +0.04 +0.22    +0.167 HD
DOCKED: ENDBRANCH  40  42
DOCKED: ENDBRANCH  39  40
DOCKED: ENDBRANCH  38  39
DOCKED: ENDBRANCH  22  38
DOCKED: BRANCH  12  44
DOCKED: ATOM     44  C   UNL d   1      -0.885  -2.535  -2.136 -0.49 +0.00    +0.004 C 
DOCKED: ATOM     45  C   UNL d   1       0.155  -2.559  -1.303 -0.61 +0.00    +0.012 C 
DOCKED: ENDBRANCH  12  44
DOCKED: BRANCH  17  46
DOCKED: ATOM     46  C   UNL d   1       5.995  -2.616  -6.572 -0.65 +0.00    +0.004 C 
DOCKED: ATOM     47  C   UNL d   1       6.990  -1.927  -5.998 -0.66 +0.00    +0.012 C 
DOCKED: ENDBRANCH  17  46
DOCKED: TORSDOF 10
DOCKED: TER
DOCKED: ENDMDL
________________________________________________________________________________


	BEGINNING GENETIC ALGORITHM DOCKING 67 of 100
Run: 67 Seed: 2094812405 619127287 [ Run 67 of 100 GA/GALS ]
Beginning LAMARCKIAN GENETIC ALGORITHM (LGA), with a maximum of 25000000 energy evaluations.

Final-Value: -13.069


	FINAL GENETIC ALGORITHM DOCKED STATE
	_______________________________________________


Detailed state:  trans -5.091 -16.625 7.973 quatxyzw -0.472715 -0.376290 0.400807 -0.688694 center 8.287 34.468 -0.670 ntor 10 40.1894 64.7829 70.2215 97.0289 45.6570 -51.0348 -171.0396 144.6317 -170.1172 -163.6433
State:	 -5.091 -16.625   7.973  -0.652 -0.519  0.553 -92.946     40.19   64.78   70.22   97.03   45.66  -51.03 -171.04  144.63 -170.12 -163.64

DOCKED: MODEL       67
DOCKED: USER    Run = 67
DOCKED: USER    DPF = D:/Protein_go_brrr/autodock/final/AncB/heme_O2/dock.dpf
DOCKED: USER  
DOCKED: USER    Estimated Free Energy of Binding    =   -8.45 kcal/mol  [=(1)+(2)+(3)-(4)]
DOCKED: USER    Estimated Inhibition Constant, Ki   =  644.17 nM (nanomolar)  [Temperature = 298.15 K]
DOCKED: USER    
DOCKED: USER    (1) Final Intermolecular Energy     =  -11.43 kcal/mol
DOCKED: USER        vdW + Hbond + desolv Energy     =   -5.90 kcal/mol
DOCKED: USER        Electrostatic Energy            =   -5.53 kcal/mol
DOCKED: USER    (2) Final Total Internal Energy     =   -1.64 kcal/mol
DOCKED: USER    (3) Torsional Free Energy           =   +2.98 kcal/mol
DOCKED: USER    (4) Unbound System's Energy  [=(2)] =   -1.64 kcal/mol
DOCKED: USER    
DOCKED: USER    
DOCKED: USER    NEWDPF move heme_O2_opt.pdbqt
DOCKED: USER    NEWDPF about 8.287000 34.468000 -0.670000
DOCKED: USER    NEWDPF tran0 -5.090625 -16.625427 7.972730
DOCKED: USER    NEWDPF quaternion0 -0.472715 -0.376290 0.400807 -0.688694
DOCKED: USER    NEWDPF axisangle0 -0.651974 -0.518983 0.552798 -92.946289
DOCKED: USER    NEWDPF quat0 -0.651974 -0.518983 0.552798 -92.946289
DOCKED: USER    NEWDPF dihe0 40.19 64.78 70.22 97.03 45.66 -51.03 -171.04 144.63 -170.12 -163.64 
DOCKED: USER  keepresnum = 1 
DOCKED: USER  
DOCKED: REMARK  10 active torsions:
DOCKED: REMARK  status: ('A' for Active; 'I' for Inactive)
DOCKED: REMARK    1  A    between atoms: C_6  and  C_10 
DOCKED: REMARK    2  A    between atoms: C_10  and  C_11 
DOCKED: REMARK    3  A    between atoms: C_11  and  C_12 
DOCKED: REMARK    4  A    between atoms: C_12  and  O_14 
DOCKED: REMARK    5  A    between atoms: C_17  and  C_20 
DOCKED: REMARK    6  A    between atoms: C_24  and  C_27 
DOCKED: REMARK    7  A    between atoms: C_31  and  C_34 
DOCKED: REMARK    8  A    between atoms: C_34  and  C_35 
DOCKED: REMARK    9  A    between atoms: C_35  and  C_36 
DOCKED: REMARK   10  A    between atoms: C_36  and  O_38 
DOCKED: USER                              x       y       z     vdW  Elec       q    Type
DOCKED: USER                           _______ _______ _______ _____ _____    ______ ____
DOCKED: ROOT
DOCKED: ATOM      1  C   UNL d   1      -5.231 -18.463   6.923 -0.01 +0.06    +0.064 A 
DOCKED: ATOM      2  C   UNL d   1      -7.557 -16.733  10.685 -0.03 +0.07    +0.064 A 
DOCKED: ATOM      3  C   UNL d   1      -4.963 -12.690  10.545 -0.19 +0.03    +0.064 C 
DOCKED: ATOM      4  C   UNL d   1      -2.892 -14.258   6.384 -0.08 +0.03    +0.064 A 
DOCKED: ATOM      5  C   UNL d   1      -6.076 -18.322   7.956 -0.04 +0.07    +0.066 A 
DOCKED: ATOM      6  C   UNL d   1      -6.995 -19.297   8.355 -0.04 -0.02    -0.021 A 
DOCKED: ATOM      7  C   UNL d   1      -7.699 -18.780   9.418 -0.05 -0.03    -0.025 A 
DOCKED: ATOM      8  C   UNL d   1      -7.158 -17.522   9.669 -0.05 +0.09    +0.066 A 
DOCKED: ATOM      9  C   UNL d   1      -8.848 -19.474  10.114 -0.08 +0.05    +0.051 C 
DOCKED: ATOM     10  C   UNL d   1      -7.012 -15.415  11.012 -0.06 +0.04    +0.066 A 
DOCKED: ATOM     11  C   UNL d   1      -7.347 -14.710  12.173 -0.20 -0.01    -0.021 A 
DOCKED: ATOM     12  C   UNL d   1      -6.596 -13.549  12.160 -0.23 +0.00    +0.000 A 
DOCKED: ATOM     13  C   UNL d   1      -5.837 -13.607  10.959 -0.18 +0.04    +0.070 A 
DOCKED: ATOM     14  C   UNL d   1      -8.323 -15.138  13.263 -0.19 +0.02    +0.052 C 
DOCKED: ATOM     15  C   UNL d   1      -4.201 -12.695   9.320 -0.13 +0.03    +0.066 A 
DOCKED: ATOM     16  C   UNL d   1      -3.427 -11.627   8.866 -0.21 -0.01    -0.021 A 
DOCKED: ATOM     17  C   UNL d   1      -2.827 -12.051   7.680 -0.24 +0.00    +0.000 A 
DOCKED: ATOM     18  C   UNL d   1      -3.285 -13.364   7.498 -0.12 +0.03    +0.070 A 
DOCKED: ATOM     19  C   UNL d   1      -3.373 -10.293   9.568 -0.31 +0.01    +0.052 C 
DOCKED: ATOM     20  C   UNL d   1      -3.346 -15.506   6.156 -0.07 +0.04    +0.066 A 
DOCKED: ATOM     21  C   UNL d   1      -2.925 -16.308   5.098 -0.07 -0.02    -0.025 A 
DOCKED: ATOM     22  C   UNL d   1      -3.560 -17.520   5.251 -0.04 -0.02    -0.021 A 
DOCKED: ATOM     23  C   UNL d   1      -4.362 -17.406   6.391 -0.03 +0.06    +0.066 A 
DOCKED: ATOM     24  C   UNL d   1      -1.968 -15.936   3.996 -0.07 +0.03    +0.051 C 
DOCKED: ATOM     25  N   UNL d   1      -6.203 -17.214   8.727 -0.06 -0.30    -0.248 N 
DOCKED: ATOM     26  N   UNL d   1      -6.099 -14.743  10.264 -0.12 -0.16    -0.248 N 
DOCKED: ATOM     27  N   UNL d   1      -4.176 -13.711   8.462 -0.04 -0.13    -0.248 N 
DOCKED: ATOM     28  N   UNL d   1      -4.263 -16.165   6.912 -0.02 -0.22    -0.248 N 
DOCKED: ATOM     29 FE   UNL d   1      -5.173 -15.457   8.575 -0.02 +0.00    +0.000 Fe
DOCKED: ATOM     30  O   UNL d   1      -6.684 -15.332   8.224 -0.51 +0.00    +0.000 OA
DOCKED: ATOM     31  O   UNL d   1      -5.617 -14.548   7.371 -0.24 +0.00    +0.000 OA
DOCKED: ENDROOT
DOCKED: BRANCH   6  32
DOCKED: ATOM     32  C   UNL d   1      -7.298 -20.610   7.682 -0.01 +0.04    +0.052 C 
DOCKED: BRANCH  32  33
DOCKED: ATOM     33  C   UNL d   1      -8.346 -20.483   6.581 -0.02 +0.11    +0.115 C 
DOCKED: BRANCH  33  34
DOCKED: ATOM     34  C   UNL d   1      -8.722 -19.048   6.307 -0.02 +0.24    +0.139 C 
DOCKED: ATOM     35  O   UNL d   1      -9.795 -18.620   6.701 -0.26 -1.68    -0.650 OA
DOCKED: BRANCH  34  36
DOCKED: ATOM     36  O   UNL d   1      -7.909 -18.229   5.609 +0.04 -1.72    -0.776 OA
DOCKED: ATOM     37  H   UNL d   1      -7.427 -18.529   4.830 +0.02 +0.34    +0.167 HD
DOCKED: ENDBRANCH  34  36
DOCKED: ENDBRANCH  33  34
DOCKED: ENDBRANCH  32  33
DOCKED: ENDBRANCH   6  32
DOCKED: BRANCH  22  38
DOCKED: ATOM     38  C   UNL d   1      -3.448 -18.695   4.315 -0.02 +0.04    +0.052 C 
DOCKED: BRANCH  38  39
DOCKED: ATOM     39  C   UNL d   1      -3.955 -18.371   2.911 -0.11 +0.12    +0.115 C 
DOCKED: BRANCH  39  40
DOCKED: ATOM     40  C   UNL d   1      -5.151 -17.452   2.928 -0.12 +0.27    +0.139 C 
DOCKED: ATOM     41  O   UNL d   1      -4.990 -16.246   2.831 -0.11 -1.34    -0.650 OA
DOCKED: BRANCH  40  42
DOCKED: ATOM     42  O   UNL d   1      -6.404 -17.942   2.997 -0.24 -2.13    -0.776 OA
DOCKED: ATOM     43  H   UNL d   1      -6.727 -18.391   3.788 +0.02 +0.38    +0.167 HD
DOCKED: ENDBRANCH  40  42
DOCKED: ENDBRANCH  39  40
DOCKED: ENDBRANCH  38  39
DOCKED: ENDBRANCH  22  38
DOCKED: BRANCH  12  44
DOCKED: ATOM     44  C   UNL d   1      -6.682 -12.523  13.271 -0.28 +0.00    +0.004 C 
DOCKED: ATOM     45  C   UNL d   1      -7.141 -11.275  13.199 -0.38 +0.01    +0.012 C 
DOCKED: ENDBRANCH  12  44
DOCKED: BRANCH  17  46
DOCKED: ATOM     46  C   UNL d   1      -1.936 -11.324   6.708 -0.35 +0.00    +0.004 C 
DOCKED: ATOM     47  C   UNL d   1      -0.599 -11.246   6.710 -0.30 +0.00    +0.012 C 
DOCKED: ENDBRANCH  17  46
DOCKED: TORSDOF 10
DOCKED: TER
DOCKED: ENDMDL
________________________________________________________________________________


	BEGINNING GENETIC ALGORITHM DOCKING 68 of 100
Run: 68 Seed: 737706913 668260322 [ Run 68 of 100 GA/GALS ]
Beginning LAMARCKIAN GENETIC ALGORITHM (LGA), with a maximum of 25000000 energy evaluations.

Final-Value: -11.942


	FINAL GENETIC ALGORITHM DOCKED STATE
	_______________________________________________


Detailed state:  trans -10.189 -19.287 10.390 quatxyzw -0.319353 -0.681370 -0.082132 -0.653455 center 8.287 34.468 -0.670 ntor 10 -51.8789 97.7458 52.6700 -104.4527 173.5735 -56.7559 117.6005 128.8001 -124.4356 -171.1510
State:	-10.189 -19.287  10.390  -0.422 -0.900 -0.109 -98.395    -51.88   97.75   52.67 -104.45  173.57  -56.76  117.60  128.80 -124.44 -171.15

DOCKED: MODEL       68
DOCKED: USER    Run = 68
DOCKED: USER    DPF = D:/Protein_go_brrr/autodock/final/AncB/heme_O2/dock.dpf
DOCKED: USER  
DOCKED: USER    Estimated Free Energy of Binding    =   -7.28 kcal/mol  [=(1)+(2)+(3)-(4)]
DOCKED: USER    Estimated Inhibition Constant, Ki   =    4.62 uM (micromolar)  [Temperature = 298.15 K]
DOCKED: USER    
DOCKED: USER    (1) Final Intermolecular Energy     =  -10.26 kcal/mol
DOCKED: USER        vdW + Hbond + desolv Energy     =   -5.14 kcal/mol
DOCKED: USER        Electrostatic Energy            =   -5.12 kcal/mol
DOCKED: USER    (2) Final Total Internal Energy     =   -1.68 kcal/mol
DOCKED: USER    (3) Torsional Free Energy           =   +2.98 kcal/mol
DOCKED: USER    (4) Unbound System's Energy  [=(2)] =   -1.68 kcal/mol
DOCKED: USER    
DOCKED: USER    
DOCKED: USER    NEWDPF move heme_O2_opt.pdbqt
DOCKED: USER    NEWDPF about 8.287000 34.468000 -0.670000
DOCKED: USER    NEWDPF tran0 -10.188565 -19.287216 10.389801
DOCKED: USER    NEWDPF quaternion0 -0.319353 -0.681370 -0.082132 -0.653455
DOCKED: USER    NEWDPF axisangle0 -0.421886 -0.900133 -0.108501 -98.394849
DOCKED: USER    NEWDPF quat0 -0.421886 -0.900133 -0.108501 -98.394849
DOCKED: USER    NEWDPF dihe0 -51.88 97.75 52.67 -104.45 173.57 -56.76 117.60 128.80 -124.44 -171.15 
DOCKED: USER  keepresnum = 1 
DOCKED: USER  
DOCKED: REMARK  10 active torsions:
DOCKED: REMARK  status: ('A' for Active; 'I' for Inactive)
DOCKED: REMARK    1  A    between atoms: C_6  and  C_10 
DOCKED: REMARK    2  A    between atoms: C_10  and  C_11 
DOCKED: REMARK    3  A    between atoms: C_11  and  C_12 
DOCKED: REMARK    4  A    between atoms: C_12  and  O_14 
DOCKED: REMARK    5  A    between atoms: C_17  and  C_20 
DOCKED: REMARK    6  A    between atoms: C_24  and  C_27 
DOCKED: REMARK    7  A    between atoms: C_31  and  C_34 
DOCKED: REMARK    8  A    between atoms: C_34  and  C_35 
DOCKED: REMARK    9  A    between atoms: C_35  and  C_36 
DOCKED: REMARK   10  A    between atoms: C_36  and  O_38 
DOCKED: USER                              x       y       z     vdW  Elec       q    Type
DOCKED: USER                           _______ _______ _______ _____ _____    ______ ____
DOCKED: ROOT
DOCKED: ATOM      1  C   UNL d   1      -9.300 -19.853   8.549 -0.02 +0.08    +0.064 A 
DOCKED: ATOM      2  C   UNL d   1     -13.818 -19.639   9.998 -0.07 +0.03    +0.064 A 
DOCKED: ATOM      3  C   UNL d   1     -12.445 -18.171  14.363 -0.08 +0.02    +0.064 C 
DOCKED: ATOM      4  C   UNL d   1      -7.822 -17.927  12.738 -0.05 +0.03    +0.064 A 
DOCKED: ATOM      5  C   UNL d   1     -10.641 -19.913   8.586 -0.07 +0.08    +0.066 A 
DOCKED: ATOM      6  C   UNL d   1     -11.436 -20.324   7.513 -0.07 -0.02    -0.021 A 
DOCKED: ATOM      7  C   UNL d   1     -12.747 -20.222   7.917 -0.08 -0.02    -0.025 A 
DOCKED: ATOM      8  C   UNL d   1     -12.714 -19.796   9.243 -0.09 +0.04    +0.066 A 
DOCKED: ATOM      9  C   UNL d   1     -13.948 -20.497   7.039 -0.06 +0.02    +0.051 C 
DOCKED: ATOM     10  C   UNL d   1     -13.845 -19.218  11.400 -0.08 +0.03    +0.066 A 
DOCKED: ATOM     11  C   UNL d   1     -15.004 -19.229  12.184 -0.05 -0.01    -0.021 A 
DOCKED: ATOM     12  C   UNL d   1     -14.625 -18.826  13.451 -0.07 +0.00    +0.000 A 
DOCKED: ATOM     13  C   UNL d   1     -13.227 -18.574  13.363 -0.07 +0.02    +0.070 A 
DOCKED: ATOM     14  C   UNL d   1     -16.408 -19.634  11.751 -0.02 +0.01    +0.052 C 
DOCKED: ATOM     15  C   UNL d   1     -11.034 -17.871  14.306 -0.07 +0.02    +0.066 A 
DOCKED: ATOM     16  C   UNL d   1     -10.305 -17.296  15.346 -0.09 -0.00    -0.021 A 
DOCKED: ATOM     17  C   UNL d   1      -8.984 -17.216  14.905 -0.07 +0.00    +0.000 A 
DOCKED: ATOM     18  C   UNL d   1      -9.006 -17.758  13.613 -0.08 +0.03    +0.070 A 
DOCKED: ATOM     19  C   UNL d   1     -10.938 -16.828  16.633 -0.07 +0.01    +0.052 C 
DOCKED: ATOM     20  C   UNL d   1      -7.815 -18.402  11.477 -0.07 +0.05    +0.066 A 
DOCKED: ATOM     21  C   UNL d   1      -6.665 -18.556  10.708 -0.04 -0.02    -0.025 A 
DOCKED: ATOM     22  C   UNL d   1      -7.063 -19.129   9.521 -0.05 -0.02    -0.021 A 
DOCKED: ATOM     23  C   UNL d   1      -8.450 -19.288   9.603 -0.06 +0.08    +0.066 A 
DOCKED: ATOM     24  C   UNL d   1      -5.257 -18.172  11.085 -0.01 +0.02    +0.051 C 
DOCKED: ATOM     25  N   UNL d   1     -11.419 -19.543   9.633 -0.08 -0.25    -0.248 N 
DOCKED: ATOM     26  N   UNL d   1     -12.762 -18.811  12.110 -0.08 -0.12    -0.248 N 
DOCKED: ATOM     27  N   UNL d   1     -10.270 -18.081  13.237 -0.08 -0.12    -0.248 N 
DOCKED: ATOM     28  N   UNL d   1      -8.908 -18.804  10.776 -0.08 -0.27    -0.248 N 
DOCKED: ATOM     29 FE   UNL d   1     -10.820 -18.806  11.441 -0.03 +0.00    +0.000 Fe
DOCKED: ATOM     30  O   UNL d   1     -11.587 -17.773  10.563 -0.72 +0.00    +0.000 OA
DOCKED: ATOM     31  O   UNL d   1     -10.336 -17.310  11.402 -1.00 +0.00    +0.000 OA
DOCKED: ENDROOT
DOCKED: BRANCH   6  32
DOCKED: ATOM     32  C   UNL d   1     -10.993 -20.670   6.115 -0.04 +0.04    +0.052 C 
DOCKED: BRANCH  32  33
DOCKED: ATOM     33  C   UNL d   1      -9.916 -19.729   5.585 -0.06 +0.14    +0.115 C 
DOCKED: BRANCH  33  34
DOCKED: ATOM     34  C   UNL d   1     -10.414 -18.313   5.431 -0.11 +0.25    +0.139 C 
DOCKED: ATOM     35  O   UNL d   1     -11.379 -17.939   6.078 -0.34 -1.21    -0.650 OA
DOCKED: BRANCH  34  36
DOCKED: ATOM     36  O   UNL d   1      -9.832 -17.454   4.569 -0.43 -1.87    -0.776 OA
DOCKED: ATOM     37  H   UNL d   1      -8.881 -17.297   4.567 +0.12 +0.63    +0.167 HD
DOCKED: ENDBRANCH  34  36
DOCKED: ENDBRANCH  33  34
DOCKED: ENDBRANCH  32  33
DOCKED: ENDBRANCH   6  32
DOCKED: BRANCH  22  38
DOCKED: ATOM     38  C   UNL d   1      -6.165 -19.443   8.352 -0.02 +0.04    +0.052 C 
DOCKED: BRANCH  38  39
DOCKED: ATOM     39  C   UNL d   1      -5.655 -18.184   7.656 -0.04 +0.12    +0.115 C 
DOCKED: BRANCH  39  40
DOCKED: ATOM     40  C   UNL d   1      -6.770 -17.242   7.277 +0.01 +0.27    +0.139 C 
DOCKED: ATOM     41  O   UNL d   1      -7.156 -16.406   8.078 -0.57 -1.58    -0.650 OA
DOCKED: BRANCH  40  42
DOCKED: ATOM     42  O   UNL d   1      -7.318 -17.271   6.046 -0.00 -2.14    -0.776 OA
DOCKED: ATOM     43  H   UNL d   1      -8.159 -17.712   5.879 +0.02 +0.45    +0.167 HD
DOCKED: ENDBRANCH  40  42
DOCKED: ENDBRANCH  39  40
DOCKED: ENDBRANCH  38  39
DOCKED: ENDBRANCH  22  38
DOCKED: BRANCH  12  44
DOCKED: ATOM     44  C   UNL d   1     -15.616 -18.721  14.592 -0.04 +0.00    +0.004 C 
DOCKED: ATOM     45  C   UNL d   1     -15.783 -17.708  15.440 -0.05 +0.00    +0.012 C 
DOCKED: ENDBRANCH  12  44
DOCKED: BRANCH  17  46
DOCKED: ATOM     46  C   UNL d   1      -7.758 -16.637  15.559 -0.04 +0.00    +0.004 C 
DOCKED: ATOM     47  C   UNL d   1      -7.067 -15.546  15.204 -0.05 +0.00    +0.012 C 
DOCKED: ENDBRANCH  17  46
DOCKED: TORSDOF 10
DOCKED: TER
DOCKED: ENDMDL
________________________________________________________________________________


	BEGINNING GENETIC ALGORITHM DOCKING 69 of 100
Run: 69 Seed: 392295643 932042722 [ Run 69 of 100 GA/GALS ]
Beginning LAMARCKIAN GENETIC ALGORITHM (LGA), with a maximum of 25000000 energy evaluations.

Final-Value: -11.181


	FINAL GENETIC ALGORITHM DOCKED STATE
	_______________________________________________


Detailed state:  trans 3.858 2.127 -17.522 quatxyzw -0.913108 0.365915 0.047077 0.173562 center 8.287 34.468 -0.670 ntor 10 92.6680 -116.8937 -40.8534 -115.0115 -108.5399 178.6767 96.3539 53.7234 15.7436 132.8718
State:	  3.858   2.127 -17.522  -0.927  0.372  0.048 160.010     92.67 -116.89  -40.85 -115.01 -108.54  178.68   96.35   53.72   15.74  132.87

DOCKED: MODEL       69
DOCKED: USER    Run = 69
DOCKED: USER    DPF = D:/Protein_go_brrr/autodock/final/AncB/heme_O2/dock.dpf
DOCKED: USER  
DOCKED: USER    Estimated Free Energy of Binding    =   -5.93 kcal/mol  [=(1)+(2)+(3)-(4)]
DOCKED: USER    Estimated Inhibition Constant, Ki   =   45.00 uM (micromolar)  [Temperature = 298.15 K]
DOCKED: USER    
DOCKED: USER    (1) Final Intermolecular Energy     =   -8.91 kcal/mol
DOCKED: USER        vdW + Hbond + desolv Energy     =   -6.21 kcal/mol
DOCKED: USER        Electrostatic Energy            =   -2.71 kcal/mol
DOCKED: USER    (2) Final Total Internal Energy     =   -2.27 kcal/mol
DOCKED: USER    (3) Torsional Free Energy           =   +2.98 kcal/mol
DOCKED: USER    (4) Unbound System's Energy  [=(2)] =   -2.27 kcal/mol
DOCKED: USER    
DOCKED: USER    
DOCKED: USER    NEWDPF move heme_O2_opt.pdbqt
DOCKED: USER    NEWDPF about 8.287000 34.468000 -0.670000
DOCKED: USER    NEWDPF tran0 3.857844 2.126582 -17.522428
DOCKED: USER    NEWDPF quaternion0 -0.913108 0.365915 0.047077 0.173562
DOCKED: USER    NEWDPF axisangle0 -0.927180 0.371554 0.047803 160.010068
DOCKED: USER    NEWDPF quat0 -0.927180 0.371554 0.047803 160.010068
DOCKED: USER    NEWDPF dihe0 92.67 -116.89 -40.85 -115.01 -108.54 178.68 96.35 53.72 15.74 132.87 
DOCKED: USER  keepresnum = 1 
DOCKED: USER  
DOCKED: REMARK  10 active torsions:
DOCKED: REMARK  status: ('A' for Active; 'I' for Inactive)
DOCKED: REMARK    1  A    between atoms: C_6  and  C_10 
DOCKED: REMARK    2  A    between atoms: C_10  and  C_11 
DOCKED: REMARK    3  A    between atoms: C_11  and  C_12 
DOCKED: REMARK    4  A    between atoms: C_12  and  O_14 
DOCKED: REMARK    5  A    between atoms: C_17  and  C_20 
DOCKED: REMARK    6  A    between atoms: C_24  and  C_27 
DOCKED: REMARK    7  A    between atoms: C_31  and  C_34 
DOCKED: REMARK    8  A    between atoms: C_34  and  C_35 
DOCKED: REMARK    9  A    between atoms: C_35  and  C_36 
DOCKED: REMARK   10  A    between atoms: C_36  and  O_38 
DOCKED: USER                              x       y       z     vdW  Elec       q    Type
DOCKED: USER                           _______ _______ _______ _____ _____    ______ ____
DOCKED: ROOT
DOCKED: ATOM      1  C   UNL d   1       2.275   3.228 -16.639 -0.16 +0.03    +0.064 A 
DOCKED: ATOM      2  C   UNL d   1       4.118   3.209 -21.017 -0.06 +0.03    +0.064 A 
DOCKED: ATOM      3  C   UNL d   1       7.359  -0.101 -19.737 -0.14 +0.02    +0.064 C 
DOCKED: ATOM      4  C   UNL d   1       5.165  -0.439 -15.362 +0.04 +0.01    +0.064 A 
DOCKED: ATOM      5  C   UNL d   1       2.511   3.492 -17.935 -0.12 +0.03    +0.066 A 
DOCKED: ATOM      6  C   UNL d   1       1.794   4.428 -18.686 -0.08 -0.01    -0.021 A 
DOCKED: ATOM      7  C   UNL d   1       2.298   4.392 -19.965 -0.06 -0.01    -0.025 A 
DOCKED: ATOM      8  C   UNL d   1       3.341   3.470 -19.948 -0.08 +0.03    +0.066 A 
DOCKED: ATOM      9  C   UNL d   1       1.762   5.195 -21.130 -0.02 +0.02    +0.051 C 
DOCKED: ATOM     10  C   UNL d   1       5.240   2.270 -21.053 +0.01 +0.03    +0.066 A 
DOCKED: ATOM     11  C   UNL d   1       6.115   2.158 -22.139 -0.05 -0.01    -0.021 A 
DOCKED: ATOM     12  C   UNL d   1       7.068   1.221 -21.782 -0.06 +0.00    +0.000 A 
DOCKED: ATOM     13  C   UNL d   1       6.704   0.797 -20.474 -0.08 +0.03    +0.070 A 
DOCKED: ATOM     14  C   UNL d   1       6.061   2.932 -23.451 -0.02 +0.02    +0.052 C 
DOCKED: ATOM     15  C   UNL d   1       7.004  -0.583 -18.424 -0.17 +0.02    +0.066 A 
DOCKED: ATOM     16  C   UNL d   1       7.637  -1.642 -17.774 -0.16 -0.00    -0.021 A 
DOCKED: ATOM     17  C   UNL d   1       7.027  -1.758 -16.524 -0.25 +0.00    +0.000 A 
DOCKED: ATOM     18  C   UNL d   1       6.057  -0.746 -16.506 -0.23 +0.01    +0.070 A 
DOCKED: ATOM     19  C   UNL d   1       8.716  -2.476 -18.417 -0.10 +0.01    +0.052 C 
DOCKED: ATOM     20  C   UNL d   1       4.196   0.495 -15.326 -0.27 +0.02    +0.066 A 
DOCKED: ATOM     21  C   UNL d   1       3.399   0.750 -14.214 -0.34 -0.01    -0.025 A 
DOCKED: ATOM     22  C   UNL d   1       2.588   1.810 -14.550 -0.23 -0.01    -0.021 A 
DOCKED: ATOM     23  C   UNL d   1       2.908   2.153 -15.868 -0.18 +0.03    +0.066 A 
DOCKED: ATOM     24  C   UNL d   1       3.408   0.017 -12.898 -0.44 +0.01    +0.051 C 
DOCKED: ATOM     25  N   UNL d   1       3.429   2.868 -18.714 -0.06 -0.12    -0.248 N 
DOCKED: ATOM     26  N   UNL d   1       5.589   1.436 -20.040 +0.01 -0.12    -0.248 N 
DOCKED: ATOM     27  N   UNL d   1       6.007  -0.093 -17.694 -0.13 -0.10    -0.248 N 
DOCKED: ATOM     28  N   UNL d   1       3.855   1.321 -16.350 -0.08 -0.11    -0.248 N 
DOCKED: ATOM     29 FE   UNL d   1       4.717   1.376 -18.181 -0.05 +0.00    +0.000 Fe
DOCKED: ATOM     30  O   UNL d   1       3.621   0.929 -19.191 -0.10 +0.00    +0.000 OA
DOCKED: ATOM     31  O   UNL d   1       4.042  -0.035 -18.019 -0.18 +0.00    +0.000 OA
DOCKED: ENDROOT
DOCKED: BRANCH   6  32
DOCKED: ATOM     32  C   UNL d   1       0.591   5.228 -18.259 -0.06 +0.03    +0.052 C 
DOCKED: BRANCH  32  33
DOCKED: ATOM     33  C   UNL d   1       0.943   6.654 -17.847 -0.11 +0.08    +0.115 C 
DOCKED: BRANCH  33  34
DOCKED: ATOM     34  C   UNL d   1       1.356   6.748 -16.399 -0.22 +0.11    +0.139 C 
DOCKED: ATOM     35  O   UNL d   1       2.541   6.810 -16.112 +0.04 -0.58    -0.650 OA
DOCKED: BRANCH  34  36
DOCKED: ATOM     36  O   UNL d   1       0.444   6.738 -15.405 +0.08 -0.63    -0.776 OA
DOCKED: ATOM     37  H   UNL d   1       0.180   5.923 -14.962 +0.08 +0.16    +0.167 HD
DOCKED: ENDBRANCH  34  36
DOCKED: ENDBRANCH  33  34
DOCKED: ENDBRANCH  32  33
DOCKED: ENDBRANCH   6  32
DOCKED: BRANCH  22  38
DOCKED: ATOM     38  C   UNL d   1       1.521   2.414 -13.673 -0.03 +0.03    +0.052 C 
DOCKED: BRANCH  38  39
DOCKED: ATOM     39  C   UNL d   1       0.156   2.448 -14.356 -0.20 +0.11    +0.115 C 
DOCKED: BRANCH  39  40
DOCKED: ATOM     40  C   UNL d   1      -0.466   3.822 -14.334 -0.22 +0.19    +0.139 C 
DOCKED: ATOM     41  O   UNL d   1      -0.318   4.538 -13.357 -0.84 -0.93    -0.650 OA
DOCKED: BRANCH  40  42
DOCKED: ATOM     42  O   UNL d   1      -1.141   4.297 -15.398 -0.12 -1.36    -0.776 OA
DOCKED: ATOM     43  H   UNL d   1      -0.820   5.053 -15.904 +0.04 +0.22    +0.167 HD
DOCKED: ENDBRANCH  40  42
DOCKED: ENDBRANCH  39  40
DOCKED: ENDBRANCH  38  39
DOCKED: ENDBRANCH  22  38
DOCKED: BRANCH  12  44
DOCKED: ATOM     44  C   UNL d   1       8.201   0.834 -22.709 -0.03 +0.00    +0.004 C 
DOCKED: ATOM     45  C   UNL d   1       9.492   0.692 -22.409 -0.04 +0.00    +0.012 C 
DOCKED: ENDBRANCH  12  44
DOCKED: BRANCH  17  46
DOCKED: ATOM     46  C   UNL d   1       7.238  -2.748 -15.410 -0.31 +0.00    +0.004 C 
DOCKED: ATOM     47  C   UNL d   1       6.342  -3.571 -14.851 -0.42 +0.00    +0.012 C 
DOCKED: ENDBRANCH  17  46
DOCKED: TORSDOF 10
DOCKED: TER
DOCKED: ENDMDL
________________________________________________________________________________


	BEGINNING GENETIC ALGORITHM DOCKING 70 of 100
Run: 70 Seed: 380948914 641761640 [ Run 70 of 100 GA/GALS ]
Beginning LAMARCKIAN GENETIC ALGORITHM (LGA), with a maximum of 25000000 energy evaluations.

Final-Value: -19.748


	FINAL GENETIC ALGORITHM DOCKED STATE
	_______________________________________________


Detailed state:  trans 0.241 -1.573 -8.682 quatxyzw -0.278662 -0.311382 -0.230036 -0.878904 center 8.287 34.468 -0.670 ntor 10 -106.1647 94.6699 31.7091 5.1744 -99.9213 51.7862 -23.4666 21.5714 -130.0377 -179.0159
State:	  0.241  -1.573  -8.682  -0.584 -0.653 -0.482 -56.979   -106.16   94.67   31.71    5.17  -99.92   51.79  -23.47   21.57 -130.04 -179.02

DOCKED: MODEL       70
DOCKED: USER    Run = 70
DOCKED: USER    DPF = D:/Protein_go_brrr/autodock/final/AncB/heme_O2/dock.dpf
DOCKED: USER  
DOCKED: USER    Estimated Free Energy of Binding    =  -15.33 kcal/mol  [=(1)+(2)+(3)-(4)]
DOCKED: USER    Estimated Inhibition Constant, Ki   =    5.75 pM (picomolar)  [Temperature = 298.15 K]
DOCKED: USER    
DOCKED: USER    (1) Final Intermolecular Energy     =  -18.32 kcal/mol
DOCKED: USER        vdW + Hbond + desolv Energy     =  -15.38 kcal/mol
DOCKED: USER        Electrostatic Energy            =   -2.94 kcal/mol
DOCKED: USER    (2) Final Total Internal Energy     =   -1.43 kcal/mol
DOCKED: USER    (3) Torsional Free Energy           =   +2.98 kcal/mol
DOCKED: USER    (4) Unbound System's Energy  [=(2)] =   -1.43 kcal/mol
DOCKED: USER    
DOCKED: USER    
DOCKED: USER    NEWDPF move heme_O2_opt.pdbqt
DOCKED: USER    NEWDPF about 8.287000 34.468000 -0.670000
DOCKED: USER    NEWDPF tran0 0.241015 -1.572840 -8.681677
DOCKED: USER    NEWDPF quaternion0 -0.278662 -0.311382 -0.230036 -0.878904
DOCKED: USER    NEWDPF axisangle0 -0.584199 -0.652794 -0.482257 -56.979120
DOCKED: USER    NEWDPF quat0 -0.584199 -0.652794 -0.482257 -56.979120
DOCKED: USER    NEWDPF dihe0 -106.16 94.67 31.71 5.17 -99.92 51.79 -23.47 21.57 -130.04 -179.02 
DOCKED: USER  keepresnum = 1 
DOCKED: USER  
DOCKED: REMARK  10 active torsions:
DOCKED: REMARK  status: ('A' for Active; 'I' for Inactive)
DOCKED: REMARK    1  A    between atoms: C_6  and  C_10 
DOCKED: REMARK    2  A    between atoms: C_10  and  C_11 
DOCKED: REMARK    3  A    between atoms: C_11  and  C_12 
DOCKED: REMARK    4  A    between atoms: C_12  and  O_14 
DOCKED: REMARK    5  A    between atoms: C_17  and  C_20 
DOCKED: REMARK    6  A    between atoms: C_24  and  C_27 
DOCKED: REMARK    7  A    between atoms: C_31  and  C_34 
DOCKED: REMARK    8  A    between atoms: C_34  and  C_35 
DOCKED: REMARK    9  A    between atoms: C_35  and  C_36 
DOCKED: REMARK   10  A    between atoms: C_36  and  O_38 
DOCKED: USER                              x       y       z     vdW  Elec       q    Type
DOCKED: USER                           _______ _______ _______ _____ _____    ______ ____
DOCKED: ROOT
DOCKED: ATOM      1  C   UNL d   1      -0.385  -1.203 -10.674 -0.25 +0.04    +0.064 A 
DOCKED: ATOM      2  C   UNL d   1      -2.692  -1.142  -6.523 -0.39 +0.02    +0.064 A 
DOCKED: ATOM      3  C   UNL d   1       1.306  -2.410  -4.177 -0.40 +0.01    +0.064 C 
DOCKED: ATOM      4  C   UNL d   1       3.802  -2.010  -8.382 -0.42 +0.02    +0.064 A 
DOCKED: ATOM      5  C   UNL d   1      -1.338  -1.081  -9.736 -0.30 +0.04    +0.066 A 
DOCKED: ATOM      6  C   UNL d   1      -2.668  -0.746 -10.010 -0.32 -0.02    -0.021 A 
DOCKED: ATOM      7  C   UNL d   1      -3.327  -0.686  -8.804 -0.33 -0.01    -0.025 A 
DOCKED: ATOM      8  C   UNL d   1      -2.393  -1.033  -7.832 -0.36 +0.03    +0.066 A 
DOCKED: ATOM      9  C   UNL d   1      -4.774  -0.282  -8.628 -0.36 +0.02    +0.051 C 
DOCKED: ATOM     10  C   UNL d   1      -1.762  -1.524  -5.460 -0.41 +0.02    +0.066 A 
DOCKED: ATOM     11  C   UNL d   1      -2.161  -1.781  -4.144 -0.49 -0.00    -0.021 A 
DOCKED: ATOM     12  C   UNL d   1      -1.025  -2.166  -3.456 -0.43 +0.00    +0.000 A 
DOCKED: ATOM     13  C   UNL d   1       0.029  -2.108  -4.410 -0.40 +0.01    +0.070 A 
DOCKED: ATOM     14  C   UNL d   1      -3.571  -1.691  -3.573 -0.58 +0.01    +0.052 C 
DOCKED: ATOM     15  C   UNL d   1       2.408  -2.331  -5.106 -0.39 +0.01    +0.066 A 
DOCKED: ATOM     16  C   UNL d   1       3.748  -2.501  -4.759 -0.52 -0.00    -0.021 A 
DOCKED: ATOM     17  C   UNL d   1       4.479  -2.391  -5.942 -0.51 +0.00    +0.000 A 
DOCKED: ATOM     18  C   UNL d   1       3.517  -2.160  -6.935 -0.42 +0.02    +0.070 A 
DOCKED: ATOM     19  C   UNL d   1       4.211  -2.698  -3.337 -0.41 +0.00    +0.052 C 
DOCKED: ATOM     20  C   UNL d   1       2.909  -1.745  -9.355 -0.43 +0.02    +0.066 A 
DOCKED: ATOM     21  C   UNL d   1       3.235  -1.632 -10.704 -0.47 -0.01    -0.025 A 
DOCKED: ATOM     22  C   UNL d   1       2.050  -1.429 -11.375 -0.23 -0.01    -0.021 A 
DOCKED: ATOM     23  C   UNL d   1       1.043  -1.407 -10.405 -0.17 +0.03    +0.066 A 
DOCKED: ATOM     24  C   UNL d   1       4.607  -1.710 -11.320 -0.38 +0.01    +0.051 C 
DOCKED: ATOM     25  N   UNL d   1      -1.153  -1.212  -8.400 -0.22 -0.12    -0.248 N 
DOCKED: ATOM     26  N   UNL d   1      -0.428  -1.713  -5.625 -0.25 -0.06    -0.248 N 
DOCKED: ATOM     27  N   UNL d   1       2.274  -2.052  -6.399 -0.24 -0.07    -0.248 N 
DOCKED: ATOM     28  N   UNL d   1       1.575  -1.555  -9.174 -0.02 -0.14    -0.248 N 
DOCKED: ATOM     29 FE   UNL d   1       0.583  -1.633  -7.411 -0.09 +0.00    +0.000 Fe
DOCKED: ATOM     30  O   UNL d   1       0.045  -0.196  -7.151 -0.36 +0.00    +0.000 OA
DOCKED: ATOM     31  O   UNL d   1       1.592  -0.429  -7.332 -1.08 +0.00    +0.000 OA
DOCKED: ENDROOT
DOCKED: BRANCH   6  32
DOCKED: ATOM     32  C   UNL d   1      -3.268  -0.362 -11.338 -0.26 +0.07    +0.052 C 
DOCKED: BRANCH  32  33
DOCKED: ATOM     33  C   UNL d   1      -2.424   0.657 -12.097 -0.25 +0.14    +0.115 C 
DOCKED: BRANCH  33  34
DOCKED: ATOM     34  C   UNL d   1      -2.640   0.586 -13.588 -0.13 +0.23    +0.139 C 
DOCKED: ATOM     35  O   UNL d   1      -3.239   1.485 -14.155 -0.32 -1.12    -0.650 OA
DOCKED: BRANCH  34  36
DOCKED: ATOM     36  O   UNL d   1      -2.208  -0.468 -14.311 +0.17 -1.84    -0.776 OA
DOCKED: ATOM     37  H   UNL d   1      -1.437  -0.410 -14.888 +0.03 +0.27    +0.167 HD
DOCKED: ENDBRANCH  34  36
DOCKED: ENDBRANCH  33  34
DOCKED: ENDBRANCH  32  33
DOCKED: ENDBRANCH   6  32
DOCKED: BRANCH  22  38
DOCKED: ATOM     38  C   UNL d   1       1.908  -1.205 -12.858 -0.30 +0.02    +0.052 C 
DOCKED: BRANCH  38  39
DOCKED: ATOM     39  C   UNL d   1       2.294   0.214 -13.272 -0.29 +0.05    +0.115 C 
DOCKED: BRANCH  39  40
DOCKED: ATOM     40  C   UNL d   1       1.711   0.603 -14.607 -0.17 +0.07    +0.139 C 
DOCKED: ATOM     41  O   UNL d   1       2.159   1.567 -15.207 +0.05 -0.32    -0.650 OA
DOCKED: BRANCH  40  42
DOCKED: ATOM     42  O   UNL d   1       0.733  -0.126 -15.179 +0.07 -0.53    -0.776 OA
DOCKED: ATOM     43  H   UNL d   1      -0.196   0.123 -15.098 +0.04 +0.15    +0.167 HD
DOCKED: ENDBRANCH  40  42
DOCKED: ENDBRANCH  39  40
DOCKED: ENDBRANCH  38  39
DOCKED: ENDBRANCH  22  38
DOCKED: BRANCH  12  44
DOCKED: ATOM     44  C   UNL d   1      -1.061  -2.538  -1.988 -0.49 +0.00    +0.004 C 
DOCKED: ATOM     45  C   UNL d   1      -0.077  -2.441  -1.095 -0.60 +0.00    +0.012 C 
DOCKED: ENDBRANCH  12  44
DOCKED: BRANCH  17  46
DOCKED: ATOM     46  C   UNL d   1       5.962  -2.426  -6.194 -0.67 +0.00    +0.004 C 
DOCKED: ATOM     47  C   UNL d   1       6.952  -2.550  -5.300 -0.63 +0.00    +0.012 C 
DOCKED: ENDBRANCH  17  46
DOCKED: TORSDOF 10
DOCKED: TER
DOCKED: ENDMDL
________________________________________________________________________________


	BEGINNING GENETIC ALGORITHM DOCKING 71 of 100
Run: 71 Seed: 2019255345 201522694 [ Run 71 of 100 GA/GALS ]
Beginning LAMARCKIAN GENETIC ALGORITHM (LGA), with a maximum of 25000000 energy evaluations.

Final-Value: -13.061


	FINAL GENETIC ALGORITHM DOCKED STATE
	_______________________________________________


Detailed state:  trans 0.061 -15.779 2.956 quatxyzw 0.653645 -0.368268 -0.324577 0.576001 center 8.287 34.468 -0.670 ntor 10 74.8875 -106.6740 -0.1760 -123.3587 -130.0641 73.5114 -86.9622 95.5415 -178.3072 -152.8081
State:	  0.061 -15.779   2.956   0.800 -0.451 -0.397 109.660     74.89 -106.67   -0.18 -123.36 -130.06   73.51  -86.96   95.54 -178.31 -152.81

DOCKED: MODEL       71
DOCKED: USER    Run = 71
DOCKED: USER    DPF = D:/Protein_go_brrr/autodock/final/AncB/heme_O2/dock.dpf
DOCKED: USER  
DOCKED: USER    Estimated Free Energy of Binding    =   -8.57 kcal/mol  [=(1)+(2)+(3)-(4)]
DOCKED: USER    Estimated Inhibition Constant, Ki   =  526.61 nM (nanomolar)  [Temperature = 298.15 K]
DOCKED: USER    
DOCKED: USER    (1) Final Intermolecular Energy     =  -11.55 kcal/mol
DOCKED: USER        vdW + Hbond + desolv Energy     =   -7.51 kcal/mol
DOCKED: USER        Electrostatic Energy            =   -4.04 kcal/mol
DOCKED: USER    (2) Final Total Internal Energy     =   -1.51 kcal/mol
DOCKED: USER    (3) Torsional Free Energy           =   +2.98 kcal/mol
DOCKED: USER    (4) Unbound System's Energy  [=(2)] =   -1.51 kcal/mol
DOCKED: USER    
DOCKED: USER    
DOCKED: USER    NEWDPF move heme_O2_opt.pdbqt
DOCKED: USER    NEWDPF about 8.287000 34.468000 -0.670000
DOCKED: USER    NEWDPF tran0 0.060793 -15.778552 2.956029
DOCKED: USER    NEWDPF quaternion0 0.653645 -0.368268 -0.324577 0.576001
DOCKED: USER    NEWDPF axisangle0 0.799615 -0.450509 -0.397060 109.660473
DOCKED: USER    NEWDPF quat0 0.799615 -0.450509 -0.397060 109.660473
DOCKED: USER    NEWDPF dihe0 74.89 -106.67 -0.18 -123.36 -130.06 73.51 -86.96 95.54 -178.31 -152.81 
DOCKED: USER  keepresnum = 1 
DOCKED: USER  
DOCKED: REMARK  10 active torsions:
DOCKED: REMARK  status: ('A' for Active; 'I' for Inactive)
DOCKED: REMARK    1  A    between atoms: C_6  and  C_10 
DOCKED: REMARK    2  A    between atoms: C_10  and  C_11 
DOCKED: REMARK    3  A    between atoms: C_11  and  C_12 
DOCKED: REMARK    4  A    between atoms: C_12  and  O_14 
DOCKED: REMARK    5  A    between atoms: C_17  and  C_20 
DOCKED: REMARK    6  A    between atoms: C_24  and  C_27 
DOCKED: REMARK    7  A    between atoms: C_31  and  C_34 
DOCKED: REMARK    8  A    between atoms: C_34  and  C_35 
DOCKED: REMARK    9  A    between atoms: C_35  and  C_36 
DOCKED: REMARK   10  A    between atoms: C_36  and  O_38 
DOCKED: USER                              x       y       z     vdW  Elec       q    Type
DOCKED: USER                           _______ _______ _______ _____ _____    ______ ____
DOCKED: ROOT
DOCKED: ATOM      1  C   UNL d   1      -1.423 -16.410   4.334 -0.06 +0.03    +0.064 A 
DOCKED: ATOM      2  C   UNL d   1       1.518 -12.681   4.272 -0.15 +0.01    +0.064 A 
DOCKED: ATOM      3  C   UNL d   1       3.461 -14.165   0.135 -0.17 +0.01    +0.064 C 
DOCKED: ATOM      4  C   UNL d   1       0.115 -17.747  -0.058 -0.11 +0.01    +0.064 A 
DOCKED: ATOM      5  C   UNL d   1      -0.783 -15.274   4.654 -0.01 +0.03    +0.066 A 
DOCKED: ATOM      6  C   UNL d   1      -1.036 -14.532   5.811 -0.06 -0.01    -0.021 A 
DOCKED: ATOM      7  C   UNL d   1      -0.216 -13.429   5.773 -0.08 -0.01    -0.025 A 
DOCKED: ATOM      8  C   UNL d   1       0.551 -13.553   4.617 -0.07 +0.02    +0.066 A 
DOCKED: ATOM      9  C   UNL d   1      -0.216 -12.314   6.796 -0.18 +0.01    +0.051 C 
DOCKED: ATOM     10  C   UNL d   1       2.370 -12.771   3.086 -0.16 +0.01    +0.066 A 
DOCKED: ATOM     11  C   UNL d   1       3.467 -11.932   2.860 -0.17 -0.00    -0.021 A 
DOCKED: ATOM     12  C   UNL d   1       4.051 -12.355   1.681 -0.22 -0.00    +0.000 A 
DOCKED: ATOM     13  C   UNL d   1       3.253 -13.446   1.238 -0.14 +0.01    +0.070 A 
DOCKED: ATOM     14  C   UNL d   1       3.953 -10.791   3.747 -0.23 -0.00    +0.052 C 
DOCKED: ATOM     15  C   UNL d   1       2.657 -15.253  -0.367 -0.17 +0.01    +0.066 A 
DOCKED: ATOM     16  C   UNL d   1       2.833 -15.858  -1.611 -0.26 +0.00    -0.021 A 
DOCKED: ATOM     17  C   UNL d   1       1.889 -16.882  -1.688 -0.24 -0.00    +0.000 A 
DOCKED: ATOM     18  C   UNL d   1       1.200 -16.825  -0.469 -0.16 +0.01    +0.070 A 
DOCKED: ATOM     19  C   UNL d   1       3.839 -15.375  -2.626 -0.37 -0.00    +0.052 C 
DOCKED: ATOM     20  C   UNL d   1      -0.596 -17.694   1.085 -0.07 +0.02    +0.066 A 
DOCKED: ATOM     21  C   UNL d   1      -1.595 -18.601   1.426 -0.05 -0.01    -0.025 A 
DOCKED: ATOM     22  C   UNL d   1      -2.026 -18.252   2.686 -0.04 -0.01    -0.021 A 
DOCKED: ATOM     23  C   UNL d   1      -1.283 -17.129   3.062 -0.06 +0.03    +0.066 A 
DOCKED: ATOM     24  C   UNL d   1      -2.115 -19.742   0.589 -0.05 +0.02    +0.051 C 
DOCKED: ATOM     25  N   UNL d   1       0.155 -14.655   3.896 -0.04 -0.11    -0.248 N 
DOCKED: ATOM     26  N   UNL d   1       2.229 -13.689   2.096 -0.10 -0.04    -0.248 N 
DOCKED: ATOM     27  N   UNL d   1       1.629 -15.784   0.289 -0.10 -0.03    -0.248 N 
DOCKED: ATOM     28  N   UNL d   1      -0.447 -16.766   2.068 -0.04 -0.08    -0.248 N 
DOCKED: ATOM     29 FE   UNL d   1       0.882 -15.240   2.079 -0.03 +0.00    +0.000 Fe
DOCKED: ATOM     30  O   UNL d   1       0.042 -13.931   2.028 -0.64 +0.00    +0.000 OA
DOCKED: ATOM     31  O   UNL d   1      -0.104 -14.998   0.878 -0.41 +0.00    +0.000 OA
DOCKED: ENDROOT
DOCKED: BRANCH   6  32
DOCKED: ATOM     32  C   UNL d   1      -2.104 -14.773   6.846 -0.07 +0.02    +0.052 C 
DOCKED: BRANCH  32  33
DOCKED: ATOM     33  C   UNL d   1      -3.373 -13.965   6.588 -0.12 +0.06    +0.115 C 
DOCKED: BRANCH  33  34
DOCKED: ATOM     34  C   UNL d   1      -4.369 -14.715   5.738 -0.15 +0.14    +0.139 C 
DOCKED: ATOM     35  O   UNL d   1      -5.070 -15.575   6.248 -0.33 -0.93    -0.650 OA
DOCKED: BRANCH  34  36
DOCKED: ATOM     36  O   UNL d   1      -4.484 -14.478   4.415 +0.10 -0.81    -0.776 OA
DOCKED: ATOM     37  H   UNL d   1      -3.833 -14.799   3.780 -0.32 +0.11    +0.167 HD
DOCKED: ENDBRANCH  34  36
DOCKED: ENDBRANCH  33  34
DOCKED: ENDBRANCH  32  33
DOCKED: ENDBRANCH   6  32
DOCKED: BRANCH  22  38
DOCKED: ATOM     38  C   UNL d   1      -3.135 -18.925   3.453 -0.03 +0.03    +0.052 C 
DOCKED: BRANCH  38  39
DOCKED: ATOM     39  C   UNL d   1      -4.414 -19.059   2.630 -0.10 +0.12    +0.115 C 
DOCKED: BRANCH  39  40
DOCKED: ATOM     40  C   UNL d   1      -5.278 -17.825   2.702 -0.06 +0.27    +0.139 C 
DOCKED: ATOM     41  O   UNL d   1      -6.492 -17.937   2.748 -0.37 -1.84    -0.650 OA
DOCKED: BRANCH  40  42
DOCKED: ATOM     42  O   UNL d   1      -4.731 -16.596   2.768 -0.10 -1.41    -0.776 OA
DOCKED: ATOM     43  H   UNL d   1      -4.703 -16.099   3.594 +0.03 +0.30    +0.167 HD
DOCKED: ENDBRANCH  40  42
DOCKED: ENDBRANCH  39  40
DOCKED: ENDBRANCH  38  39
DOCKED: ENDBRANCH  22  38
DOCKED: BRANCH  12  44
DOCKED: ATOM     44  C   UNL d   1       5.284 -11.687   1.109 -0.40 -0.00    +0.004 C 
DOCKED: ATOM     45  C   UNL d   1       5.987 -12.047   0.036 -0.38 -0.00    +0.012 C 
DOCKED: ENDBRANCH  12  44
DOCKED: BRANCH  17  46
DOCKED: ATOM     46  C   UNL d   1       1.558 -17.838  -2.803 -0.28 -0.00    +0.004 C 
DOCKED: ATOM     47  C   UNL d   1       0.355 -18.126  -3.317 -0.28 -0.00    +0.012 C 
DOCKED: ENDBRANCH  17  46
DOCKED: TORSDOF 10
DOCKED: TER
DOCKED: ENDMDL
________________________________________________________________________________


	BEGINNING GENETIC ALGORITHM DOCKING 72 of 100
Run: 72 Seed: 958171958 1606994499 [ Run 72 of 100 GA/GALS ]
Beginning LAMARCKIAN GENETIC ALGORITHM (LGA), with a maximum of 25000000 energy evaluations.

Final-Value: -20.009


	FINAL GENETIC ALGORITHM DOCKED STATE
	_______________________________________________


Detailed state:  trans 0.362 -1.623 -8.859 quatxyzw -0.282342 -0.310630 -0.251373 -0.872126 center 8.287 34.468 -0.670 ntor 10 -77.0367 -46.4372 28.2303 -104.0244 -114.8972 -53.1583 4.3043 -8.9882 -119.8694 57.2919
State:	  0.362  -1.623  -8.859  -0.577 -0.635 -0.514 -58.587    -77.04  -46.44   28.23 -104.02 -114.90  -53.16    4.30   -8.99 -119.87   57.29

DOCKED: MODEL       72
DOCKED: USER    Run = 72
DOCKED: USER    DPF = D:/Protein_go_brrr/autodock/final/AncB/heme_O2/dock.dpf
DOCKED: USER  
DOCKED: USER    Estimated Free Energy of Binding    =  -15.77 kcal/mol  [=(1)+(2)+(3)-(4)]
DOCKED: USER    Estimated Inhibition Constant, Ki   =    2.73 pM (picomolar)  [Temperature = 298.15 K]
DOCKED: USER    
DOCKED: USER    (1) Final Intermolecular Energy     =  -18.76 kcal/mol
DOCKED: USER        vdW + Hbond + desolv Energy     =  -15.84 kcal/mol
DOCKED: USER        Electrostatic Energy            =   -2.91 kcal/mol
DOCKED: USER    (2) Final Total Internal Energy     =   -1.25 kcal/mol
DOCKED: USER    (3) Torsional Free Energy           =   +2.98 kcal/mol
DOCKED: USER    (4) Unbound System's Energy  [=(2)] =   -1.25 kcal/mol
DOCKED: USER    
DOCKED: USER    
DOCKED: USER    NEWDPF move heme_O2_opt.pdbqt
DOCKED: USER    NEWDPF about 8.287000 34.468000 -0.670000
DOCKED: USER    NEWDPF tran0 0.361658 -1.622759 -8.858579
DOCKED: USER    NEWDPF quaternion0 -0.282342 -0.310630 -0.251373 -0.872126
DOCKED: USER    NEWDPF axisangle0 -0.577055 -0.634869 -0.513760 -58.586805
DOCKED: USER    NEWDPF quat0 -0.577055 -0.634869 -0.513760 -58.586805
DOCKED: USER    NEWDPF dihe0 -77.04 -46.44 28.23 -104.02 -114.90 -53.16 4.30 -8.99 -119.87 57.29 
DOCKED: USER  keepresnum = 1 
DOCKED: USER  
DOCKED: REMARK  10 active torsions:
DOCKED: REMARK  status: ('A' for Active; 'I' for Inactive)
DOCKED: REMARK    1  A    between atoms: C_6  and  C_10 
DOCKED: REMARK    2  A    between atoms: C_10  and  C_11 
DOCKED: REMARK    3  A    between atoms: C_11  and  C_12 
DOCKED: REMARK    4  A    between atoms: C_12  and  O_14 
DOCKED: REMARK    5  A    between atoms: C_17  and  C_20 
DOCKED: REMARK    6  A    between atoms: C_24  and  C_27 
DOCKED: REMARK    7  A    between atoms: C_31  and  C_34 
DOCKED: REMARK    8  A    between atoms: C_34  and  C_35 
DOCKED: REMARK    9  A    between atoms: C_35  and  C_36 
DOCKED: REMARK   10  A    between atoms: C_36  and  O_38 
DOCKED: USER                              x       y       z     vdW  Elec       q    Type
DOCKED: USER                           _______ _______ _______ _____ _____    ______ ____
DOCKED: ROOT
DOCKED: ATOM      1  C   UNL d   1      -0.222  -1.220 -10.858 -0.25 +0.04    +0.064 A 
DOCKED: ATOM      2  C   UNL d   1      -2.578  -1.072  -6.737 -0.40 +0.02    +0.064 A 
DOCKED: ATOM      3  C   UNL d   1       1.330  -2.519  -4.344 -0.44 +0.01    +0.064 C 
DOCKED: ATOM      4  C   UNL d   1       3.896  -2.215  -8.514 -0.42 +0.02    +0.064 A 
DOCKED: ATOM      5  C   UNL d   1      -1.181  -1.060  -9.932 -0.29 +0.04    +0.066 A 
DOCKED: ATOM      6  C   UNL d   1      -2.491  -0.667 -10.222 -0.31 -0.02    -0.021 A 
DOCKED: ATOM      7  C   UNL d   1      -3.162  -0.582  -9.025 -0.34 -0.01    -0.025 A 
DOCKED: ATOM      8  C   UNL d   1      -2.258  -0.972  -8.041 -0.36 +0.03    +0.066 A 
DOCKED: ATOM      9  C   UNL d   1      -4.593  -0.116  -8.866 -0.36 +0.02    +0.051 C 
DOCKED: ATOM     10  C   UNL d   1      -1.679  -1.497  -5.663 -0.40 +0.02    +0.066 A 
DOCKED: ATOM     11  C   UNL d   1      -2.107  -1.741  -4.353 -0.48 -0.00    -0.021 A 
DOCKED: ATOM     12  C   UNL d   1      -0.997  -2.177  -3.652 -0.44 +0.00    +0.000 A 
DOCKED: ATOM     13  C   UNL d   1       0.070  -2.162  -4.592 -0.40 +0.01    +0.070 A 
DOCKED: ATOM     14  C   UNL d   1      -3.519  -1.591  -3.800 -0.55 +0.01    +0.052 C 
DOCKED: ATOM     15  C   UNL d   1       2.446  -2.485  -5.258 -0.40 +0.01    +0.066 A 
DOCKED: ATOM     16  C   UNL d   1       3.773  -2.715  -4.894 -0.51 -0.00    -0.021 A 
DOCKED: ATOM     17  C   UNL d   1       4.523  -2.632  -6.067 -0.51 +0.00    +0.000 A 
DOCKED: ATOM     18  C   UNL d   1       3.585  -2.357  -7.072 -0.42 +0.02    +0.070 A 
DOCKED: ATOM     19  C   UNL d   1       4.208  -2.935  -3.467 -0.32 +0.00    +0.052 C 
DOCKED: ATOM     20  C   UNL d   1       3.028  -1.908  -9.498 -0.45 +0.02    +0.066 A 
DOCKED: ATOM     21  C   UNL d   1       3.376  -1.805 -10.842 -0.49 -0.01    -0.025 A 
DOCKED: ATOM     22  C   UNL d   1       2.210  -1.549 -11.528 -0.18 -0.01    -0.021 A 
DOCKED: ATOM     23  C   UNL d   1       1.193  -1.487 -10.571 -0.19 +0.03    +0.066 A 
DOCKED: ATOM     24  C   UNL d   1       4.752  -1.941 -11.440 -0.30 +0.01    +0.051 C 
DOCKED: ATOM     25  N   UNL d   1      -1.019  -1.203  -8.594 -0.21 -0.12    -0.248 N 
DOCKED: ATOM     26  N   UNL d   1      -0.353  -1.743  -5.811 -0.25 -0.07    -0.248 N 
DOCKED: ATOM     27  N   UNL d   1       2.342  -2.196  -6.552 -0.24 -0.07    -0.248 N 
DOCKED: ATOM     28  N   UNL d   1       1.701  -1.661  -9.334 -0.17 -0.13    -0.248 N 
DOCKED: ATOM     29 FE   UNL d   1       0.684  -1.702  -7.584 -0.09 +0.00    +0.000 Fe
DOCKED: ATOM     30  O   UNL d   1       0.205  -0.244  -7.325 -0.74 +0.00    +0.000 OA
DOCKED: ATOM     31  O   UNL d   1       1.743  -0.543  -7.487 -1.09 +0.00    +0.000 OA
DOCKED: ENDROOT
DOCKED: BRANCH   6  32
DOCKED: ATOM     32  C   UNL d   1      -3.057  -0.253 -11.555 -0.22 +0.07    +0.052 C 
DOCKED: BRANCH  32  33
DOCKED: ATOM     33  C   UNL d   1      -2.059   0.529 -12.405 -0.22 +0.14    +0.115 C 
DOCKED: BRANCH  33  34
DOCKED: ATOM     34  C   UNL d   1      -2.652   0.982 -13.716 -0.17 +0.22    +0.139 C 
DOCKED: ATOM     35  O   UNL d   1      -3.140   2.097 -13.805 -0.32 -1.37    -0.650 OA
DOCKED: BRANCH  34  36
DOCKED: ATOM     36  O   UNL d   1      -2.680   0.169 -14.793 -0.32 -1.41    -0.776 OA
DOCKED: ATOM     37  H   UNL d   1      -1.895   0.003 -15.328 +0.02 +0.25    +0.167 HD
DOCKED: ENDBRANCH  34  36
DOCKED: ENDBRANCH  33  34
DOCKED: ENDBRANCH  32  33
DOCKED: ENDBRANCH   6  32
DOCKED: BRANCH  22  38
DOCKED: ATOM     38  C   UNL d   1       2.098  -1.314 -13.012 -0.21 +0.02    +0.052 C 
DOCKED: BRANCH  38  39
DOCKED: ATOM     39  C   UNL d   1       0.684  -1.556 -13.534 -0.03 +0.09    +0.115 C 
DOCKED: BRANCH  39  40
DOCKED: ATOM     40  C   UNL d   1       0.508  -1.091 -14.958 -0.15 +0.11    +0.139 C 
DOCKED: ATOM     41  O   UNL d   1       0.704  -1.869 -15.878 -0.00 -0.45    -0.650 OA
DOCKED: BRANCH  40  42
DOCKED: ATOM     42  O   UNL d   1       0.086   0.158 -15.235 +0.07 -0.63    -0.776 OA
DOCKED: ATOM     43  H   UNL d   1      -0.641   0.565 -14.749 +0.04 +0.17    +0.167 HD
DOCKED: ENDBRANCH  40  42
DOCKED: ENDBRANCH  39  40
DOCKED: ENDBRANCH  38  39
DOCKED: ENDBRANCH  22  38
DOCKED: BRANCH  12  44
DOCKED: ATOM     44  C   UNL d   1      -1.069  -2.551  -2.186 -0.47 +0.00    +0.004 C 
DOCKED: ATOM     45  C   UNL d   1      -0.079  -2.560  -1.294 -0.59 +0.00    +0.012 C 
DOCKED: ENDBRANCH  12  44
DOCKED: BRANCH  17  46
DOCKED: ATOM     46  C   UNL d   1       6.008  -2.731  -6.300 -0.64 +0.00    +0.004 C 
DOCKED: ATOM     47  C   UNL d   1       6.854  -1.761  -6.669 -0.62 +0.00    +0.012 C 
DOCKED: ENDBRANCH  17  46
DOCKED: TORSDOF 10
DOCKED: TER
DOCKED: ENDMDL
________________________________________________________________________________


	BEGINNING GENETIC ALGORITHM DOCKING 73 of 100
Run: 73 Seed: 1786626804 1355872377 [ Run 73 of 100 GA/GALS ]
Beginning LAMARCKIAN GENETIC ALGORITHM (LGA), with a maximum of 25000000 energy evaluations.

Final-Value: -11.176


	FINAL GENETIC ALGORITHM DOCKED STATE
	_______________________________________________


Detailed state:  trans -10.600 -19.169 10.088 quatxyzw 0.309941 0.652358 0.180409 0.667697 center 8.287 34.468 -0.670 ntor 10 -13.4853 -76.4807 53.8833 -103.4086 72.8126 151.4991 -71.9365 -102.0887 170.4644 127.0057
State:	-10.600 -19.169  10.088   0.416  0.876  0.242 96.221    -13.49  -76.48   53.88 -103.41   72.81  151.50  -71.94 -102.09  170.46  127.01

DOCKED: MODEL       73
DOCKED: USER    Run = 73
DOCKED: USER    DPF = D:/Protein_go_brrr/autodock/final/AncB/heme_O2/dock.dpf
DOCKED: USER  
DOCKED: USER    Estimated Free Energy of Binding    =   -7.79 kcal/mol  [=(1)+(2)+(3)-(4)]
DOCKED: USER    Estimated Inhibition Constant, Ki   =    1.96 uM (micromolar)  [Temperature = 298.15 K]
DOCKED: USER    
DOCKED: USER    (1) Final Intermolecular Energy     =  -10.77 kcal/mol
DOCKED: USER        vdW + Hbond + desolv Energy     =   -5.38 kcal/mol
DOCKED: USER        Electrostatic Energy            =   -5.39 kcal/mol
DOCKED: USER    (2) Final Total Internal Energy     =   -0.41 kcal/mol
DOCKED: USER    (3) Torsional Free Energy           =   +2.98 kcal/mol
DOCKED: USER    (4) Unbound System's Energy  [=(2)] =   -0.41 kcal/mol
DOCKED: USER    
DOCKED: USER    
DOCKED: USER    NEWDPF move heme_O2_opt.pdbqt
DOCKED: USER    NEWDPF about 8.287000 34.468000 -0.670000
DOCKED: USER    NEWDPF tran0 -10.600181 -19.168947 10.087905
DOCKED: USER    NEWDPF quaternion0 0.309941 0.652358 0.180409 0.667697
DOCKED: USER    NEWDPF axisangle0 0.416344 0.876314 0.242344 96.220889
DOCKED: USER    NEWDPF quat0 0.416344 0.876314 0.242344 96.220889
DOCKED: USER    NEWDPF dihe0 -13.49 -76.48 53.88 -103.41 72.81 151.50 -71.94 -102.09 170.46 127.01 
DOCKED: USER  keepresnum = 1 
DOCKED: USER  
DOCKED: REMARK  10 active torsions:
DOCKED: REMARK  status: ('A' for Active; 'I' for Inactive)
DOCKED: REMARK    1  A    between atoms: C_6  and  C_10 
DOCKED: REMARK    2  A    between atoms: C_10  and  C_11 
DOCKED: REMARK    3  A    between atoms: C_11  and  C_12 
DOCKED: REMARK    4  A    between atoms: C_12  and  O_14 
DOCKED: REMARK    5  A    between atoms: C_17  and  C_20 
DOCKED: REMARK    6  A    between atoms: C_24  and  C_27 
DOCKED: REMARK    7  A    between atoms: C_31  and  C_34 
DOCKED: REMARK    8  A    between atoms: C_34  and  C_35 
DOCKED: REMARK    9  A    between atoms: C_35  and  C_36 
DOCKED: REMARK   10  A    between atoms: C_36  and  O_38 
DOCKED: USER                              x       y       z     vdW  Elec       q    Type
DOCKED: USER                           _______ _______ _______ _____ _____    ______ ____
DOCKED: ROOT
DOCKED: ATOM      1  C   UNL d   1      -9.761 -19.547   8.177 +0.34 +0.11    +0.064 A 
DOCKED: ATOM      2  C   UNL d   1     -14.237 -18.974   9.658 -0.12 +0.03    +0.064 A 
DOCKED: ATOM      3  C   UNL d   1     -12.760 -18.410  14.197 -0.08 +0.02    +0.064 C 
DOCKED: ATOM      4  C   UNL d   1      -8.118 -18.522  12.614 -0.04 +0.03    +0.064 A 
DOCKED: ATOM      5  C   UNL d   1     -11.099 -19.435   8.209 +0.02 +0.10    +0.066 A 
DOCKED: ATOM      6  C   UNL d   1     -11.922 -19.563   7.087 -0.12 -0.02    -0.021 A 
DOCKED: ATOM      7  C   UNL d   1     -13.215 -19.354   7.507 -0.13 -0.02    -0.025 A 
DOCKED: ATOM      8  C   UNL d   1     -13.150 -19.152   8.883 -0.13 +0.05    +0.066 A 
DOCKED: ATOM      9  C   UNL d   1     -14.426 -19.326   6.601 -0.07 +0.03    +0.051 C 
DOCKED: ATOM     10  C   UNL d   1     -14.233 -18.780  11.109 -0.11 +0.03    +0.066 A 
DOCKED: ATOM     11  C   UNL d   1     -15.397 -18.763  11.886 -0.07 -0.01    -0.021 A 
DOCKED: ATOM     12  C   UNL d   1     -14.991 -18.620  13.200 -0.07 +0.00    +0.000 A 
DOCKED: ATOM     13  C   UNL d   1     -13.572 -18.543  13.148 -0.07 +0.02    +0.070 A 
DOCKED: ATOM     14  C   UNL d   1     -16.834 -18.905  11.398 -0.03 +0.01    +0.052 C 
DOCKED: ATOM     15  C   UNL d   1     -11.322 -18.294  14.183 -0.08 +0.02    +0.066 A 
DOCKED: ATOM     16  C   UNL d   1     -10.543 -17.992  15.299 -0.07 -0.00    -0.021 A 
DOCKED: ATOM     17  C   UNL d   1      -9.215 -18.017  14.872 -0.05 +0.00    +0.000 A 
DOCKED: ATOM     18  C   UNL d   1      -9.285 -18.339  13.509 -0.06 +0.03    +0.070 A 
DOCKED: ATOM     19  C   UNL d   1     -11.131 -17.655  16.647 -0.05 +0.01    +0.052 C 
DOCKED: ATOM     20  C   UNL d   1      -8.151 -18.788  11.294 -0.06 +0.05    +0.066 A 
DOCKED: ATOM     21  C   UNL d   1      -7.017 -18.968  10.506 -0.04 -0.02    -0.025 A 
DOCKED: ATOM     22  C   UNL d   1      -7.466 -19.287   9.244 -0.05 -0.02    -0.021 A 
DOCKED: ATOM     23  C   UNL d   1      -8.863 -19.273   9.305 -0.01 +0.10    +0.066 A 
DOCKED: ATOM     24  C   UNL d   1      -5.579 -18.837  10.934 -0.01 +0.02    +0.051 C 
DOCKED: ATOM     25  N   UNL d   1     -11.840 -19.137   9.304 -0.11 -0.28    -0.248 N 
DOCKED: ATOM     26  N   UNL d   1     -13.119 -18.637  11.871 -0.09 -0.12    -0.248 N 
DOCKED: ATOM     27  N   UNL d   1     -10.574 -18.430  13.092 -0.07 -0.12    -0.248 N 
DOCKED: ATOM     28  N   UNL d   1      -9.275 -18.926  10.542 -0.07 -0.30    -0.248 N 
DOCKED: ATOM     29 FE   UNL d   1     -11.182 -18.782  11.204 -0.03 +0.00    +0.000 Fe
DOCKED: ATOM     30  O   UNL d   1     -11.792 -17.531  10.506 -0.65 +0.00    +0.000 OA
DOCKED: ATOM     31  O   UNL d   1     -10.506 -17.376  11.403 -1.00 +0.00    +0.000 OA
DOCKED: ENDROOT
DOCKED: BRANCH   6  32
DOCKED: ATOM     32  C   UNL d   1     -11.504 -19.737   5.650 -0.08 +0.05    +0.052 C 
DOCKED: BRANCH  32  33
DOCKED: ATOM     33  C   UNL d   1     -11.689 -18.470   4.821 -0.13 +0.13    +0.115 C 
DOCKED: BRANCH  33  34
DOCKED: ATOM     34  C   UNL d   1     -10.380 -17.785   4.517 -0.14 +0.25    +0.139 C 
DOCKED: ATOM     35  O   UNL d   1      -9.839 -17.109   5.377 -0.56 -1.77    -0.650 OA
DOCKED: BRANCH  34  36
DOCKED: ATOM     36  O   UNL d   1      -9.803 -17.879   3.301 -0.11 -1.48    -0.776 OA
DOCKED: ATOM     37  H   UNL d   1     -10.093 -18.524   2.646 +0.03 +0.24    +0.167 HD
DOCKED: ENDBRANCH  34  36
DOCKED: ENDBRANCH  33  34
DOCKED: ENDBRANCH  32  33
DOCKED: ENDBRANCH   6  32
DOCKED: BRANCH  22  38
DOCKED: ATOM     38  C   UNL d   1      -6.597 -19.528   8.037 -0.03 +0.05    +0.052 C 
DOCKED: BRANCH  38  39
DOCKED: ATOM     39  C   UNL d   1      -7.067 -18.741   6.816 -0.08 +0.17    +0.115 C 
DOCKED: BRANCH  39  40
DOCKED: ATOM     40  C   UNL d   1      -6.691 -17.282   6.890 -0.08 +0.28    +0.139 C 
DOCKED: ATOM     41  O   UNL d   1      -7.160 -16.580   7.771 -0.56 -1.63    -0.650 OA
DOCKED: BRANCH  40  42
DOCKED: ATOM     42  O   UNL d   1      -5.804 -16.747   6.029 -0.39 -1.61    -0.776 OA
DOCKED: ATOM     43  H   UNL d   1      -4.859 -16.929   6.100 +0.03 +0.21    +0.167 HD
DOCKED: ENDBRANCH  40  42
DOCKED: ENDBRANCH  39  40
DOCKED: ENDBRANCH  38  39
DOCKED: ENDBRANCH  22  38
DOCKED: BRANCH  12  44
DOCKED: ATOM     44  C   UNL d   1     -15.980 -18.568  14.346 -0.04 +0.00    +0.004 C 
DOCKED: ATOM     45  C   UNL d   1     -16.042 -17.676  15.334 -0.04 +0.00    +0.012 C 
DOCKED: ENDBRANCH  12  44
DOCKED: BRANCH  17  46
DOCKED: ATOM     46  C   UNL d   1      -7.935 -17.716  15.605 -0.02 +0.00    +0.004 C 
DOCKED: ATOM     47  C   UNL d   1      -7.111 -16.673  15.439 -0.02 +0.00    +0.012 C 
DOCKED: ENDBRANCH  17  46
DOCKED: TORSDOF 10
DOCKED: TER
DOCKED: ENDMDL
________________________________________________________________________________


	BEGINNING GENETIC ALGORITHM DOCKING 74 of 100
Run: 74 Seed: 364574423 1962374306 [ Run 74 of 100 GA/GALS ]
Beginning LAMARCKIAN GENETIC ALGORITHM (LGA), with a maximum of 25000000 energy evaluations.

Final-Value: -20.506


	FINAL GENETIC ALGORITHM DOCKED STATE
	_______________________________________________


Detailed state:  trans 0.214 -1.673 -8.879 quatxyzw 0.289731 0.261824 0.217391 0.894564 center 8.287 34.468 -0.670 ntor 10 1.6916 -159.4431 33.0090 -52.4646 -142.4401 -158.7590 8.4667 68.2162 180.0000 137.2845
State:	  0.214  -1.673  -8.879   0.648  0.586  0.486 53.095      1.69 -159.44   33.01  -52.46 -142.44 -158.76    8.47   68.22  180.00  137.28

DOCKED: MODEL       74
DOCKED: USER    Run = 74
DOCKED: USER    DPF = D:/Protein_go_brrr/autodock/final/AncB/heme_O2/dock.dpf
DOCKED: USER  
DOCKED: USER    Estimated Free Energy of Binding    =  -15.81 kcal/mol  [=(1)+(2)+(3)-(4)]
DOCKED: USER    Estimated Inhibition Constant, Ki   =    2.58 pM (picomolar)  [Temperature = 298.15 K]
DOCKED: USER    
DOCKED: USER    (1) Final Intermolecular Energy     =  -18.79 kcal/mol
DOCKED: USER        vdW + Hbond + desolv Energy     =  -15.56 kcal/mol
DOCKED: USER        Electrostatic Energy            =   -3.23 kcal/mol
DOCKED: USER    (2) Final Total Internal Energy     =   -1.71 kcal/mol
DOCKED: USER    (3) Torsional Free Energy           =   +2.98 kcal/mol
DOCKED: USER    (4) Unbound System's Energy  [=(2)] =   -1.71 kcal/mol
DOCKED: USER    
DOCKED: USER    
DOCKED: USER    NEWDPF move heme_O2_opt.pdbqt
DOCKED: USER    NEWDPF about 8.287000 34.468000 -0.670000
DOCKED: USER    NEWDPF tran0 0.214089 -1.673297 -8.879371
DOCKED: USER    NEWDPF quaternion0 0.289731 0.261824 0.217391 0.894564
DOCKED: USER    NEWDPF axisangle0 0.648256 0.585816 0.486399 53.094939
DOCKED: USER    NEWDPF quat0 0.648256 0.585816 0.486399 53.094939
DOCKED: USER    NEWDPF dihe0 1.69 -159.44 33.01 -52.46 -142.44 -158.76 8.47 68.22 180.00 137.28 
DOCKED: USER  keepresnum = 1 
DOCKED: USER  
DOCKED: REMARK  10 active torsions:
DOCKED: REMARK  status: ('A' for Active; 'I' for Inactive)
DOCKED: REMARK    1  A    between atoms: C_6  and  C_10 
DOCKED: REMARK    2  A    between atoms: C_10  and  C_11 
DOCKED: REMARK    3  A    between atoms: C_11  and  C_12 
DOCKED: REMARK    4  A    between atoms: C_12  and  O_14 
DOCKED: REMARK    5  A    between atoms: C_17  and  C_20 
DOCKED: REMARK    6  A    between atoms: C_24  and  C_27 
DOCKED: REMARK    7  A    between atoms: C_31  and  C_34 
DOCKED: REMARK    8  A    between atoms: C_34  and  C_35 
DOCKED: REMARK    9  A    between atoms: C_35  and  C_36 
DOCKED: REMARK   10  A    between atoms: C_36  and  O_38 
DOCKED: USER                              x       y       z     vdW  Elec       q    Type
DOCKED: USER                           _______ _______ _______ _____ _____    ______ ____
DOCKED: ROOT
DOCKED: ATOM      1  C   UNL d   1      -0.623  -1.291 -10.790 -0.29 +0.05    +0.064 A 
DOCKED: ATOM      2  C   UNL d   1      -2.464  -1.238  -6.412 -0.41 +0.02    +0.064 A 
DOCKED: ATOM      3  C   UNL d   1       1.759  -2.536  -4.521 -0.44 +0.01    +0.064 C 
DOCKED: ATOM      4  C   UNL d   1       3.784  -2.129  -8.971 -0.43 +0.02    +0.064 A 
DOCKED: ATOM      5  C   UNL d   1      -1.468  -1.169  -9.754 -0.31 +0.04    +0.066 A 
DOCKED: ATOM      6  C   UNL d   1      -2.818  -0.827  -9.880 -0.32 -0.02    -0.021 A 
DOCKED: ATOM      7  C   UNL d   1      -3.341  -0.769  -8.610 -0.34 -0.01    -0.025 A 
DOCKED: ATOM      8  C   UNL d   1      -2.309  -1.125  -7.746 -0.36 +0.03    +0.066 A 
DOCKED: ATOM      9  C   UNL d   1      -4.759  -0.358  -8.276 -0.38 +0.02    +0.051 C 
DOCKED: ATOM     10  C   UNL d   1      -1.426  -1.629  -5.458 -0.40 +0.02    +0.066 A 
DOCKED: ATOM     11  C   UNL d   1      -1.681  -1.891  -4.108 -0.47 -0.00    -0.021 A 
DOCKED: ATOM     12  C   UNL d   1      -0.479  -2.284  -3.549 -0.44 +0.00    +0.000 A 
DOCKED: ATOM     13  C   UNL d   1       0.465  -2.227  -4.612 -0.40 +0.01    +0.070 A 
DOCKED: ATOM     14  C   UNL d   1      -3.020  -1.796  -3.386 -0.62 +0.01    +0.052 C 
DOCKED: ATOM     15  C   UNL d   1       2.753  -2.458  -5.564 -0.41 +0.01    +0.066 A 
DOCKED: ATOM     16  C   UNL d   1       4.122  -2.636  -5.365 -0.51 -0.00    -0.021 A 
DOCKED: ATOM     17  C   UNL d   1       4.720  -2.524  -6.620 -0.52 +0.00    +0.000 A 
DOCKED: ATOM     18  C   UNL d   1       3.657  -2.284  -7.502 -0.43 +0.02    +0.070 A 
DOCKED: ATOM     19  C   UNL d   1       4.736  -2.841  -4.003 -0.58 +0.01    +0.052 C 
DOCKED: ATOM     20  C   UNL d   1       2.792  -1.855  -9.840 -0.45 +0.02    +0.066 A 
DOCKED: ATOM     21  C   UNL d   1       2.969  -1.738 -11.215 -0.42 -0.01    -0.025 A 
DOCKED: ATOM     22  C   UNL d   1       1.720  -1.526 -11.753 +0.14 -0.01    -0.021 A 
DOCKED: ATOM     23  C   UNL d   1       0.825  -1.504 -10.679 -0.16 +0.03    +0.066 A 
DOCKED: ATOM     24  C   UNL d   1       4.267  -1.820 -11.978 -0.53 +0.01    +0.051 C 
DOCKED: ATOM     25  N   UNL d   1      -1.139  -1.307  -8.446 -0.03 -0.12    -0.248 N 
DOCKED: ATOM     26  N   UNL d   1      -0.119  -1.823  -5.769 -0.25 -0.07    -0.248 N 
DOCKED: ATOM     27  N   UNL d   1       2.481  -2.172  -6.834 -0.22 -0.08    -0.248 N 
DOCKED: ATOM     28  N   UNL d   1       1.486  -1.659  -9.514 -0.13 -0.13    -0.248 N 
DOCKED: ATOM     29 FE   UNL d   1       0.692  -1.741  -7.654 -0.09 +0.00    +0.000 Fe
DOCKED: ATOM     30  O   UNL d   1       0.193  -0.303  -7.331 -0.79 +0.00    +0.000 OA
DOCKED: ATOM     31  O   UNL d   1       1.710  -0.542  -7.680 -1.05 +0.00    +0.000 OA
DOCKED: ENDROOT
DOCKED: BRANCH   6  32
DOCKED: ATOM     32  C   UNL d   1      -3.557  -0.434 -11.133 -0.26 +0.06    +0.052 C 
DOCKED: BRANCH  32  33
DOCKED: ATOM     33  C   UNL d   1      -3.651   1.078 -11.315 -0.15 +0.12    +0.115 C 
DOCKED: BRANCH  33  34
DOCKED: ATOM     34  C   UNL d   1      -4.519   1.463 -12.488 -0.10 +0.18    +0.139 C 
DOCKED: ATOM     35  O   UNL d   1      -5.717   1.232 -12.453 -0.01 -0.67    -0.650 OA
DOCKED: BRANCH  34  36
DOCKED: ATOM     36  O   UNL d   1      -3.996   2.034 -13.592 -0.29 -1.56    -0.776 OA
DOCKED: ATOM     37  H   UNL d   1      -3.050   2.193 -13.686 +0.03 +0.36    +0.167 HD
DOCKED: ENDBRANCH  34  36
DOCKED: ENDBRANCH  33  34
DOCKED: ENDBRANCH  32  33
DOCKED: ENDBRANCH   6  32
DOCKED: BRANCH  22  38
DOCKED: ATOM     38  C   UNL d   1       1.419  -1.295 -13.211 -0.17 +0.03    +0.052 C 
DOCKED: BRANCH  38  39
DOCKED: ATOM     39  C   UNL d   1       0.735   0.048 -13.458 -0.20 +0.08    +0.115 C 
DOCKED: BRANCH  39  40
DOCKED: ATOM     40  C   UNL d   1      -0.687  -0.108 -13.935 -0.16 +0.16    +0.139 C 
DOCKED: ATOM     41  O   UNL d   1      -1.079  -1.195 -14.328 -0.19 -1.15    -0.650 OA
DOCKED: BRANCH  40  42
DOCKED: ATOM     42  O   UNL d   1      -1.553   0.923 -13.889 +0.02 -0.99    -0.776 OA
DOCKED: ATOM     43  H   UNL d   1      -2.507   0.780 -13.867 +0.04 +0.26    +0.167 HD
DOCKED: ENDBRANCH  40  42
DOCKED: ENDBRANCH  39  40
DOCKED: ENDBRANCH  38  39
DOCKED: ENDBRANCH  22  38
DOCKED: BRANCH  12  44
DOCKED: ATOM     44  C   UNL d   1      -0.357  -2.662  -2.088 -0.46 +0.00    +0.004 C 
DOCKED: ATOM     45  C   UNL d   1       0.713  -2.552  -1.300 -0.62 +0.00    +0.012 C 
DOCKED: ENDBRANCH  12  44
DOCKED: BRANCH  17  46
DOCKED: ATOM     46  C   UNL d   1       6.168  -2.565  -7.032 -0.52 +0.00    +0.004 C 
DOCKED: ATOM     47  C   UNL d   1       7.165  -1.763  -6.637 -0.52 +0.00    +0.012 C 
DOCKED: ENDBRANCH  17  46
DOCKED: TORSDOF 10
DOCKED: TER
DOCKED: ENDMDL
________________________________________________________________________________


	BEGINNING GENETIC ALGORITHM DOCKING 75 of 100
Run: 75 Seed: 1330598427 1586054948 [ Run 75 of 100 GA/GALS ]
Beginning LAMARCKIAN GENETIC ALGORITHM (LGA), with a maximum of 25000000 energy evaluations.

Final-Value: -11.816


	FINAL GENETIC ALGORITHM DOCKED STATE
	_______________________________________________


Detailed state:  trans -4.766 -10.742 12.179 quatxyzw -0.697246 -0.157125 -0.667086 0.210133 center 8.287 34.468 -0.670 ntor 10 58.9089 -61.2511 -27.1242 119.3872 140.3468 115.1538 -44.8515 -48.1438 -114.0755 159.8533
State:	 -4.766 -10.742  12.179  -0.713 -0.161 -0.682 155.740     58.91  -61.25  -27.12  119.39  140.35  115.15  -44.85  -48.14 -114.08  159.85

DOCKED: MODEL       75
DOCKED: USER    Run = 75
DOCKED: USER    DPF = D:/Protein_go_brrr/autodock/final/AncB/heme_O2/dock.dpf
DOCKED: USER  
DOCKED: USER    Estimated Free Energy of Binding    =   -8.34 kcal/mol  [=(1)+(2)+(3)-(4)]
DOCKED: USER    Estimated Inhibition Constant, Ki   =  776.32 nM (nanomolar)  [Temperature = 298.15 K]
DOCKED: USER    
DOCKED: USER    (1) Final Intermolecular Energy     =  -11.32 kcal/mol
DOCKED: USER        vdW + Hbond + desolv Energy     =   -8.80 kcal/mol
DOCKED: USER        Electrostatic Energy            =   -2.51 kcal/mol
DOCKED: USER    (2) Final Total Internal Energy     =   -0.50 kcal/mol
DOCKED: USER    (3) Torsional Free Energy           =   +2.98 kcal/mol
DOCKED: USER    (4) Unbound System's Energy  [=(2)] =   -0.50 kcal/mol
DOCKED: USER    
DOCKED: USER    
DOCKED: USER    NEWDPF move heme_O2_opt.pdbqt
DOCKED: USER    NEWDPF about 8.287000 34.468000 -0.670000
DOCKED: USER    NEWDPF tran0 -4.765697 -10.741967 12.178697
DOCKED: USER    NEWDPF quaternion0 -0.697246 -0.157125 -0.667086 0.210133
DOCKED: USER    NEWDPF axisangle0 -0.713169 -0.160714 -0.682320 155.739681
DOCKED: USER    NEWDPF quat0 -0.713169 -0.160714 -0.682320 155.739681
DOCKED: USER    NEWDPF dihe0 58.91 -61.25 -27.12 119.39 140.35 115.15 -44.85 -48.14 -114.08 159.85 
DOCKED: USER  keepresnum = 1 
DOCKED: USER  
DOCKED: REMARK  10 active torsions:
DOCKED: REMARK  status: ('A' for Active; 'I' for Inactive)
DOCKED: REMARK    1  A    between atoms: C_6  and  C_10 
DOCKED: REMARK    2  A    between atoms: C_10  and  C_11 
DOCKED: REMARK    3  A    between atoms: C_11  and  C_12 
DOCKED: REMARK    4  A    between atoms: C_12  and  O_14 
DOCKED: REMARK    5  A    between atoms: C_17  and  C_20 
DOCKED: REMARK    6  A    between atoms: C_24  and  C_27 
DOCKED: REMARK    7  A    between atoms: C_31  and  C_34 
DOCKED: REMARK    8  A    between atoms: C_34  and  C_35 
DOCKED: REMARK    9  A    between atoms: C_35  and  C_36 
DOCKED: REMARK   10  A    between atoms: C_36  and  O_38 
DOCKED: USER                              x       y       z     vdW  Elec       q    Type
DOCKED: USER                           _______ _______ _______ _____ _____    ______ ____
DOCKED: ROOT
DOCKED: ATOM      1  C   UNL d   1      -5.713 -12.128  10.883 -0.22 +0.03    +0.064 A 
DOCKED: ATOM      2  C   UNL d   1      -1.781  -9.499  10.447 -0.24 +0.01    +0.064 A 
DOCKED: ATOM      3  C   UNL d   1      -2.481  -7.567  14.791 -0.21 +0.01    +0.064 C 
DOCKED: ATOM      4  C   UNL d   1      -6.264 -10.620  15.450 -0.14 +0.04    +0.064 A 
DOCKED: ATOM      5  C   UNL d   1      -4.586 -11.572  10.410 -0.21 +0.03    +0.066 A 
DOCKED: ATOM      6  C   UNL d   1      -4.043 -11.850   9.152 -0.20 -0.01    -0.021 A 
DOCKED: ATOM      7  C   UNL d   1      -2.881 -11.122   9.043 -0.24 -0.01    -0.025 A 
DOCKED: ATOM      8  C   UNL d   1      -2.772 -10.383  10.217 -0.23 +0.02    +0.066 A 
DOCKED: ATOM      9  C   UNL d   1      -1.931 -11.181   7.866 -0.30 +0.01    +0.051 C 
DOCKED: ATOM     10  C   UNL d   1      -1.626  -8.678  11.649 -0.24 +0.01    +0.066 A 
DOCKED: ATOM     11  C   UNL d   1      -0.674  -7.660  11.767 -0.24 -0.00    -0.021 A 
DOCKED: ATOM     12  C   UNL d   1      -0.872  -7.079  13.007 -0.25 +0.00    +0.000 A 
DOCKED: ATOM     13  C   UNL d   1      -1.949  -7.800  13.592 -0.14 +0.01    +0.070 A 
DOCKED: ATOM     14  C   UNL d   1       0.362  -7.240  10.731 -0.23 +0.00    +0.052 C 
DOCKED: ATOM     15  C   UNL d   1      -3.548  -8.297  15.434 -0.15 +0.01    +0.066 A 
DOCKED: ATOM     16  C   UNL d   1      -3.949  -8.110  16.756 -0.12 -0.00    -0.021 A 
DOCKED: ATOM     17  C   UNL d   1      -5.026  -8.970  16.967 -0.12 +0.00    +0.000 A 
DOCKED: ATOM     18  C   UNL d   1      -5.205  -9.625  15.740 -0.10 +0.04    +0.070 A 
DOCKED: ATOM     19  C   UNL d   1      -3.241  -7.177  17.706 -0.07 -0.00    +0.052 C 
DOCKED: ATOM     20  C   UNL d   1      -6.437 -11.298  14.299 -0.20 +0.04    +0.066 A 
DOCKED: ATOM     21  C   UNL d   1      -7.465 -12.211  14.078 -0.28 -0.01    -0.025 A 
DOCKED: ATOM     22  C   UNL d   1      -7.340 -12.631  12.773 -0.32 -0.01    -0.021 A 
DOCKED: ATOM     23  C   UNL d   1      -6.225 -11.969  12.249 -0.26 +0.04    +0.066 A 
DOCKED: ATOM     24  C   UNL d   1      -8.511 -12.663  15.064 -0.24 +0.02    +0.051 C 
DOCKED: ATOM     25  N   UNL d   1      -3.787 -10.710  11.086 -0.14 -0.09    -0.248 N 
DOCKED: ATOM     26  N   UNL d   1      -2.399  -8.775  12.761 -0.12 -0.06    -0.248 N 
DOCKED: ATOM     27  N   UNL d   1      -4.252  -9.259  14.845 -0.11 -0.11    -0.248 N 
DOCKED: ATOM     28  N   UNL d   1      -5.653 -11.195  13.193 -0.13 -0.15    -0.248 N 
DOCKED: ATOM     29 FE   UNL d   1      -4.038  -9.993  12.981 -0.05 +0.00    +0.000 Fe
DOCKED: ATOM     30  O   UNL d   1      -2.811 -10.937  12.824 -0.11 +0.00    +0.000 OA
DOCKED: ATOM     31  O   UNL d   1      -3.708 -11.031  14.116 -0.10 +0.00    +0.000 OA
DOCKED: ENDROOT
DOCKED: BRANCH   6  32
DOCKED: ATOM     32  C   UNL d   1      -4.520 -12.864   8.145 -0.21 +0.03    +0.052 C 
DOCKED: BRANCH  32  33
DOCKED: ATOM     33  C   UNL d   1      -5.184 -14.075   8.792 -0.15 +0.08    +0.115 C 
DOCKED: BRANCH  33  34
DOCKED: ATOM     34  C   UNL d   1      -6.491 -14.436   8.131 -0.26 +0.16    +0.139 C 
DOCKED: ATOM     35  O   UNL d   1      -6.991 -13.670   7.323 -0.09 -0.82    -0.650 OA
DOCKED: BRANCH  34  36
DOCKED: ATOM     36  O   UNL d   1      -7.140 -15.580   8.434 -0.43 -1.49    -0.776 OA
DOCKED: ATOM     37  H   UNL d   1      -7.433 -15.779   9.331 -0.04 +0.30    +0.167 HD
DOCKED: ENDBRANCH  34  36
DOCKED: ENDBRANCH  33  34
DOCKED: ENDBRANCH  32  33
DOCKED: ENDBRANCH   6  32
DOCKED: BRANCH  22  38
DOCKED: ATOM     38  C   UNL d   1      -8.208 -13.659  12.094 +0.01 +0.03    +0.052 C 
DOCKED: BRANCH  38  39
DOCKED: ATOM     39  C   UNL d   1      -7.563 -15.043  12.073 -0.16 +0.05    +0.115 C 
DOCKED: BRANCH  39  40
DOCKED: ATOM     40  C   UNL d   1      -8.500 -16.122  12.553 -0.15 +0.07    +0.139 C 
DOCKED: ATOM     41  O   UNL d   1      -8.406 -16.543  13.695 +0.01 -0.24    -0.650 OA
DOCKED: BRANCH  40  42
DOCKED: ATOM     42  O   UNL d   1      -9.478 -16.598  11.758 -0.20 -0.69    -0.776 OA
DOCKED: ATOM     43  H   UNL d   1     -10.159 -16.020  11.393 -0.49 +0.14    +0.167 HD
DOCKED: ENDBRANCH  40  42
DOCKED: ENDBRANCH  39  40
DOCKED: ENDBRANCH  38  39
DOCKED: ENDBRANCH  22  38
DOCKED: BRANCH  12  44
DOCKED: ATOM     44  C   UNL d   1      -0.027  -5.922  13.496 -0.37 +0.00    +0.004 C 
DOCKED: ATOM     45  C   UNL d   1      -0.390  -4.926  14.304 -0.37 -0.00    +0.012 C 
DOCKED: ENDBRANCH  12  44
DOCKED: BRANCH  17  46
DOCKED: ATOM     46  C   UNL d   1      -5.834  -9.257  18.204 -0.06 +0.00    +0.004 C 
DOCKED: ATOM     47  C   UNL d   1      -7.121  -8.969  18.439 -0.11 +0.00    +0.012 C 
DOCKED: ENDBRANCH  17  46
DOCKED: TORSDOF 10
DOCKED: TER
DOCKED: ENDMDL
________________________________________________________________________________


	BEGINNING GENETIC ALGORITHM DOCKING 76 of 100
Run: 76 Seed: 686796841 477322015 [ Run 76 of 100 GA/GALS ]
Beginning LAMARCKIAN GENETIC ALGORITHM (LGA), with a maximum of 25000000 energy evaluations.

Final-Value: -12.278


	FINAL GENETIC ALGORITHM DOCKED STATE
	_______________________________________________


Detailed state:  trans 15.642 -0.343 -11.596 quatxyzw -0.029314 0.712250 -0.413880 -0.566166 center 8.287 34.468 -0.670 ntor 10 -11.3832 -159.4873 -40.9301 -90.5439 -124.0484 -59.4080 -11.2908 83.8051 -178.2285 165.5149
State:	 15.642  -0.343 -11.596  -0.036  0.864 -0.502 -111.033    -11.38 -159.49  -40.93  -90.54 -124.05  -59.41  -11.29   83.81 -178.23  165.51

DOCKED: MODEL       76
DOCKED: USER    Run = 76
DOCKED: USER    DPF = D:/Protein_go_brrr/autodock/final/AncB/heme_O2/dock.dpf
DOCKED: USER  
DOCKED: USER    Estimated Free Energy of Binding    =   -7.11 kcal/mol  [=(1)+(2)+(3)-(4)]
DOCKED: USER    Estimated Inhibition Constant, Ki   =    6.12 uM (micromolar)  [Temperature = 298.15 K]
DOCKED: USER    
DOCKED: USER    (1) Final Intermolecular Energy     =  -10.10 kcal/mol
DOCKED: USER        vdW + Hbond + desolv Energy     =   -7.67 kcal/mol
DOCKED: USER        Electrostatic Energy            =   -2.43 kcal/mol
DOCKED: USER    (2) Final Total Internal Energy     =   -2.18 kcal/mol
DOCKED: USER    (3) Torsional Free Energy           =   +2.98 kcal/mol
DOCKED: USER    (4) Unbound System's Energy  [=(2)] =   -2.18 kcal/mol
DOCKED: USER    
DOCKED: USER    
DOCKED: USER    NEWDPF move heme_O2_opt.pdbqt
DOCKED: USER    NEWDPF about 8.287000 34.468000 -0.670000
DOCKED: USER    NEWDPF tran0 15.642409 -0.342976 -11.595900
DOCKED: USER    NEWDPF quaternion0 -0.029314 0.712250 -0.413880 -0.566166
DOCKED: USER    NEWDPF axisangle0 -0.035563 0.864075 -0.502105 -111.033332
DOCKED: USER    NEWDPF quat0 -0.035563 0.864075 -0.502105 -111.033332
DOCKED: USER    NEWDPF dihe0 -11.38 -159.49 -40.93 -90.54 -124.05 -59.41 -11.29 83.81 -178.23 165.51 
DOCKED: USER  keepresnum = 1 
DOCKED: USER  
DOCKED: REMARK  10 active torsions:
DOCKED: REMARK  status: ('A' for Active; 'I' for Inactive)
DOCKED: REMARK    1  A    between atoms: C_6  and  C_10 
DOCKED: REMARK    2  A    between atoms: C_10  and  C_11 
DOCKED: REMARK    3  A    between atoms: C_11  and  C_12 
DOCKED: REMARK    4  A    between atoms: C_12  and  O_14 
DOCKED: REMARK    5  A    between atoms: C_17  and  C_20 
DOCKED: REMARK    6  A    between atoms: C_24  and  C_27 
DOCKED: REMARK    7  A    between atoms: C_31  and  C_34 
DOCKED: REMARK    8  A    between atoms: C_34  and  C_35 
DOCKED: REMARK    9  A    between atoms: C_35  and  C_36 
DOCKED: REMARK   10  A    between atoms: C_36  and  O_38 
DOCKED: USER                              x       y       z     vdW  Elec       q    Type
DOCKED: USER                           _______ _______ _______ _____ _____    ______ ____
DOCKED: ROOT
DOCKED: ATOM      1  C   UNL d   1      15.903   1.451 -10.495 -0.24 +0.03    +0.064 A 
DOCKED: ATOM      2  C   UNL d   1      17.399  -2.999  -9.776 -0.17 +0.02    +0.064 A 
DOCKED: ATOM      3  C   UNL d   1      15.177  -4.489 -13.769 -0.12 +0.02    +0.064 C 
DOCKED: ATOM      4  C   UNL d   1      14.032   0.175 -14.774 -0.24 +0.02    +0.064 A 
DOCKED: ATOM      5  C   UNL d   1      16.492   0.363  -9.975 -0.33 +0.03    +0.066 A 
DOCKED: ATOM      6  C   UNL d   1      17.228   0.364  -8.786 -0.24 -0.01    -0.021 A 
DOCKED: ATOM      7  C   UNL d   1      17.698  -0.915  -8.599 -0.26 -0.01    -0.025 A 
DOCKED: ATOM      8  C   UNL d   1      17.196  -1.673  -9.654 -0.23 +0.02    +0.066 A 
DOCKED: ATOM      9  C   UNL d   1      18.607  -1.347  -7.469 -0.26 +0.02    +0.051 C 
DOCKED: ATOM     10  C   UNL d   1      16.879  -3.851 -10.847 -0.14 +0.03    +0.066 A 
DOCKED: ATOM     11  C   UNL d   1      16.981  -5.246 -10.839 -0.13 -0.01    -0.021 A 
DOCKED: ATOM     12  C   UNL d   1      16.331  -5.696 -11.973 -0.13 +0.00    +0.000 A 
DOCKED: ATOM     13  C   UNL d   1      15.869  -4.522 -12.630 -0.10 +0.03    +0.070 A 
DOCKED: ATOM     14  C   UNL d   1      17.647  -6.116  -9.779 -0.10 +0.02    +0.052 C 
DOCKED: ATOM     15  C   UNL d   1      14.722  -3.321 -14.484 -0.11 +0.02    +0.066 A 
DOCKED: ATOM     16  C   UNL d   1      14.145  -3.346 -15.754 -0.12 -0.00    -0.021 A 
DOCKED: ATOM     17  C   UNL d   1      13.811  -2.027 -16.062 -0.17 +0.00    +0.000 A 
DOCKED: ATOM     18  C   UNL d   1      14.213  -1.287 -14.941 -0.19 +0.02    +0.070 A 
DOCKED: ATOM     19  C   UNL d   1      14.017  -4.605 -16.574 -0.05 +0.01    +0.052 C 
DOCKED: ATOM     20  C   UNL d   1      14.444   0.922 -13.732 -0.27 +0.02    +0.066 A 
DOCKED: ATOM     21  C   UNL d   1      14.229   2.293 -13.622 -0.30 -0.01    -0.025 A 
DOCKED: ATOM     22  C   UNL d   1      14.731   2.670 -12.396 -0.29 -0.01    -0.021 A 
DOCKED: ATOM     23  C   UNL d   1      15.252   1.513 -11.809 -0.25 +0.03    +0.066 A 
DOCKED: ATOM     24  C   UNL d   1      13.581   3.199 -14.637 -0.28 +0.02    +0.051 C 
DOCKED: ATOM     25  N   UNL d   1      16.508  -0.871 -10.536 -0.18 -0.08    -0.248 N 
DOCKED: ATOM     26  N   UNL d   1      16.211  -3.404 -11.941 -0.08 -0.10    -0.248 N 
DOCKED: ATOM     27  N   UNL d   1      14.831  -2.077 -14.026 -0.11 -0.08    -0.248 N 
DOCKED: ATOM     28  N   UNL d   1      15.116   0.461 -12.643 -0.18 -0.08    -0.248 N 
DOCKED: ATOM     29 FE   UNL d   1      15.659  -1.458 -12.298 -0.05 +0.00    +0.000 Fe
DOCKED: ATOM     30  O   UNL d   1      17.215  -1.479 -12.313 -0.11 +0.00    +0.000 OA
DOCKED: ATOM     31  O   UNL d   1      16.428  -0.974 -13.581 -0.12 +0.00    +0.000 OA
DOCKED: ENDROOT
DOCKED: BRANCH   6  32
DOCKED: ATOM     32  C   UNL d   1      17.593   1.547  -7.927 -0.17 +0.04    +0.052 C 
DOCKED: BRANCH  32  33
DOCKED: ATOM     33  C   UNL d   1      18.969   2.116  -8.258 -0.18 +0.07    +0.115 C 
DOCKED: BRANCH  33  34
DOCKED: ATOM     34  C   UNL d   1      19.194   3.473  -7.638 -0.14 +0.14    +0.139 C 
DOCKED: ATOM     35  O   UNL d   1      19.597   3.553  -6.489 -0.05 -0.47    -0.650 OA
DOCKED: BRANCH  34  36
DOCKED: ATOM     36  O   UNL d   1      18.932   4.609  -8.318 -0.47 -1.20    -0.776 OA
DOCKED: ATOM     37  H   UNL d   1      18.745   4.606  -9.264 +0.04 +0.22    +0.167 HD
DOCKED: ENDBRANCH  34  36
DOCKED: ENDBRANCH  33  34
DOCKED: ENDBRANCH  32  33
DOCKED: ENDBRANCH   6  32
DOCKED: BRANCH  22  38
DOCKED: ATOM     38  C   UNL d   1      14.764   4.075 -11.855 -0.39 +0.03    +0.052 C 
DOCKED: BRANCH  38  39
DOCKED: ATOM     39  C   UNL d   1      16.072   4.793 -12.177 -0.26 +0.07    +0.115 C 
DOCKED: BRANCH  39  40
DOCKED: ATOM     40  C   UNL d   1      17.055   4.742 -11.034 -0.20 +0.13    +0.139 C 
DOCKED: ATOM     41  O   UNL d   1      17.790   3.776 -10.909 +0.02 -0.49    -0.650 OA
DOCKED: BRANCH  40  42
DOCKED: ATOM     42  O   UNL d   1      17.173   5.770 -10.172 +0.06 -1.20    -0.776 OA
DOCKED: ATOM     43  H   UNL d   1      17.980   5.911  -9.661 +0.03 +0.26    +0.167 HD
DOCKED: ENDBRANCH  40  42
DOCKED: ENDBRANCH  39  40
DOCKED: ENDBRANCH  38  39
DOCKED: ENDBRANCH  22  38
DOCKED: BRANCH  12  44
DOCKED: ATOM     44  C   UNL d   1      16.222  -7.169 -12.307 -0.11 +0.00    +0.004 C 
DOCKED: ATOM     45  C   UNL d   1      15.146  -7.838 -12.718 -0.12 +0.01    +0.012 C 
DOCKED: ENDBRANCH  12  44
DOCKED: BRANCH  17  46
DOCKED: ATOM     46  C   UNL d   1      13.219  -1.423 -17.307 -0.07 +0.00    +0.004 C 
DOCKED: ATOM     47  C   UNL d   1      13.856  -0.818 -18.318 -0.08 +0.00    +0.012 C 
DOCKED: ENDBRANCH  17  46
DOCKED: TORSDOF 10
DOCKED: TER
DOCKED: ENDMDL
________________________________________________________________________________


	BEGINNING GENETIC ALGORITHM DOCKING 77 of 100
Run: 77 Seed: 1473070483 905678645 [ Run 77 of 100 GA/GALS ]
Beginning LAMARCKIAN GENETIC ALGORITHM (LGA), with a maximum of 25000000 energy evaluations.

Final-Value: -13.349


	FINAL GENETIC ALGORITHM DOCKED STATE
	_______________________________________________


Detailed state:  trans -1.001 0.038 -12.536 quatxyzw 0.509860 -0.412150 0.707517 -0.263810 center 8.287 34.468 -0.670 ntor 10 39.4040 -127.4373 -76.2372 -120.5057 -19.4846 10.2611 -125.1557 129.1373 159.0776 -170.2872
State:	 -1.001   0.038 -12.536   0.529 -0.427  0.734 -149.408     39.40 -127.44  -76.24 -120.51  -19.48   10.26 -125.16  129.14  159.08 -170.29

DOCKED: MODEL       77
DOCKED: USER    Run = 77
DOCKED: USER    DPF = D:/Protein_go_brrr/autodock/final/AncB/heme_O2/dock.dpf
DOCKED: USER  
DOCKED: USER    Estimated Free Energy of Binding    =   -8.94 kcal/mol  [=(1)+(2)+(3)-(4)]
DOCKED: USER    Estimated Inhibition Constant, Ki   =  282.19 nM (nanomolar)  [Temperature = 298.15 K]
DOCKED: USER    
DOCKED: USER    (1) Final Intermolecular Energy     =  -11.92 kcal/mol
DOCKED: USER        vdW + Hbond + desolv Energy     =   -8.64 kcal/mol
DOCKED: USER        Electrostatic Energy            =   -3.27 kcal/mol
DOCKED: USER    (2) Final Total Internal Energy     =   -1.43 kcal/mol
DOCKED: USER    (3) Torsional Free Energy           =   +2.98 kcal/mol
DOCKED: USER    (4) Unbound System's Energy  [=(2)] =   -1.43 kcal/mol
DOCKED: USER    
DOCKED: USER    
DOCKED: USER    NEWDPF move heme_O2_opt.pdbqt
DOCKED: USER    NEWDPF about 8.287000 34.468000 -0.670000
DOCKED: USER    NEWDPF tran0 -1.000888 0.037977 -12.535733
DOCKED: USER    NEWDPF quaternion0 0.509860 -0.412150 0.707517 -0.263810
DOCKED: USER    NEWDPF axisangle0 0.528585 -0.427286 0.733501 -149.407501
DOCKED: USER    NEWDPF quat0 0.528585 -0.427286 0.733501 -149.407501
DOCKED: USER    NEWDPF dihe0 39.40 -127.44 -76.24 -120.51 -19.48 10.26 -125.16 129.14 159.08 -170.29 
DOCKED: USER  keepresnum = 1 
DOCKED: USER  
DOCKED: REMARK  10 active torsions:
DOCKED: REMARK  status: ('A' for Active; 'I' for Inactive)
DOCKED: REMARK    1  A    between atoms: C_6  and  C_10 
DOCKED: REMARK    2  A    between atoms: C_10  and  C_11 
DOCKED: REMARK    3  A    between atoms: C_11  and  C_12 
DOCKED: REMARK    4  A    between atoms: C_12  and  O_14 
DOCKED: REMARK    5  A    between atoms: C_17  and  C_20 
DOCKED: REMARK    6  A    between atoms: C_24  and  C_27 
DOCKED: REMARK    7  A    between atoms: C_31  and  C_34 
DOCKED: REMARK    8  A    between atoms: C_34  and  C_35 
DOCKED: REMARK    9  A    between atoms: C_35  and  C_36 
DOCKED: REMARK   10  A    between atoms: C_36  and  O_38 
DOCKED: USER                              x       y       z     vdW  Elec       q    Type
DOCKED: USER                           _______ _______ _______ _____ _____    ______ ____
DOCKED: ROOT
DOCKED: ATOM      1  C   UNL d   1      -1.244   0.494 -14.593 -0.12 +0.08    +0.064 A 
DOCKED: ATOM      2  C   UNL d   1       2.388  -1.299 -12.113 -0.27 +0.02    +0.064 A 
DOCKED: ATOM      3  C   UNL d   1      -0.132  -1.000  -8.031 +0.31 +0.04    +0.064 C 
DOCKED: ATOM      4  C   UNL d   1      -4.042   0.398 -10.643 -0.23 +0.05    +0.064 A 
DOCKED: ATOM      5  C   UNL d   1      -0.052  -0.020 -14.252 -0.15 +0.06    +0.066 A 
DOCKED: ATOM      6  C   UNL d   1       0.991  -0.246 -15.155 -0.12 -0.01    -0.021 A 
DOCKED: ATOM      7  C   UNL d   1       2.028  -0.805 -14.446 -0.18 -0.01    -0.025 A 
DOCKED: ATOM      8  C   UNL d   1       1.607  -0.861 -13.119 -0.23 +0.03    +0.066 A 
DOCKED: ATOM      9  C   UNL d   1       3.332  -1.279 -15.048 -0.20 +0.02    +0.051 C 
DOCKED: ATOM     10  C   UNL d   1       2.010  -1.360 -10.700 -0.33 +0.03    +0.066 A 
DOCKED: ATOM     11  C   UNL d   1       2.912  -1.668  -9.675 -0.46 -0.01    -0.021 A 
DOCKED: ATOM     12  C   UNL d   1       2.209  -1.570  -8.489 -0.28 +0.00    +0.000 A 
DOCKED: ATOM     13  C   UNL d   1       0.885  -1.211  -8.866 +0.36 +0.05    +0.070 A 
DOCKED: ATOM     14  C   UNL d   1       4.389  -2.015  -9.820 -0.46 +0.01    +0.052 C 
DOCKED: ATOM     15  C   UNL d   1      -1.494  -0.670  -8.375 -0.35 +0.03    +0.066 A 
DOCKED: ATOM     16  C   UNL d   1      -2.550  -0.624  -7.465 -0.44 -0.01    -0.021 A 
DOCKED: ATOM     17  C   UNL d   1      -3.676  -0.228  -8.187 -0.41 +0.00    +0.000 A 
DOCKED: ATOM     18  C   UNL d   1      -3.215  -0.058  -9.501 -0.30 +0.04    +0.070 A 
DOCKED: ATOM     19  C   UNL d   1      -2.404  -1.011  -6.015 -0.47 +0.01    +0.052 C 
DOCKED: ATOM     20  C   UNL d   1      -3.643   0.530 -11.923 -0.21 +0.08    +0.066 A 
DOCKED: ATOM     21  C   UNL d   1      -4.463   0.982 -12.953 -0.16 -0.04    -0.025 A 
DOCKED: ATOM     22  C   UNL d   1      -3.675   1.041 -14.081 -0.14 -0.04    -0.021 A 
DOCKED: ATOM     23  C   UNL d   1      -2.403   0.605 -13.699 -0.14 +0.10    +0.066 A 
DOCKED: ATOM     24  C   UNL d   1      -5.925   1.335 -12.867 -0.13 +0.05    +0.051 C 
DOCKED: ATOM     25  N   UNL d   1       0.303  -0.438 -13.012 -0.13 -0.19    -0.248 N 
DOCKED: ATOM     26  N   UNL d   1       0.772  -1.090 -10.213 +0.20 -0.13    -0.248 N 
DOCKED: ATOM     27  N   UNL d   1      -1.907  -0.403  -9.611 -0.21 -0.15    -0.248 N 
DOCKED: ATOM     28  N   UNL d   1      -2.400   0.252 -12.397 -0.15 -0.34    -0.248 N 
DOCKED: ATOM     29 FE   UNL d   1      -0.827  -0.414 -11.311 -0.07 +0.00    +0.000 Fe
DOCKED: ATOM     30  O   UNL d   1      -0.511  -1.845 -11.836 -0.39 +0.00    +0.000 OA
DOCKED: ATOM     31  O   UNL d   1      -1.941  -1.523 -11.258 -0.53 +0.00    +0.000 OA
DOCKED: ENDROOT
DOCKED: BRANCH   6  32
DOCKED: ATOM     32  C   UNL d   1       0.969  -0.072 -16.652 -0.06 +0.03    +0.052 C 
DOCKED: BRANCH  32  33
DOCKED: ATOM     33  C   UNL d   1       1.194  -1.380 -17.403 -0.06 +0.06    +0.115 C 
DOCKED: BRANCH  33  34
DOCKED: ATOM     34  C   UNL d   1       0.252  -2.470 -16.955 -0.12 +0.09    +0.139 C 
DOCKED: ATOM     35  O   UNL d   1       0.428  -3.615 -17.339 +0.00 -0.38    -0.650 OA
DOCKED: BRANCH  34  36
DOCKED: ATOM     36  O   UNL d   1      -0.803  -2.204 -16.158 -0.06 -0.92    -0.776 OA
DOCKED: ATOM     37  H   UNL d   1      -1.340  -1.411 -16.269 +0.02 +0.22    +0.167 HD
DOCKED: ENDBRANCH  34  36
DOCKED: ENDBRANCH  33  34
DOCKED: ENDBRANCH  32  33
DOCKED: ENDBRANCH   6  32
DOCKED: BRANCH  22  38
DOCKED: ATOM     38  C   UNL d   1      -4.142   1.435 -15.458 -0.09 +0.07    +0.052 C 
DOCKED: BRANCH  38  39
DOCKED: ATOM     39  C   UNL d   1      -5.090   0.405 -16.068 -0.05 +0.13    +0.115 C 
DOCKED: BRANCH  39  40
DOCKED: ATOM     40  C   UNL d   1      -4.522  -0.993 -16.033 +0.16 +0.24    +0.139 C 
DOCKED: ATOM     41  O   UNL d   1      -5.275  -1.953 -16.038 -0.22 -1.13    -0.650 OA
DOCKED: BRANCH  40  42
DOCKED: ATOM     42  O   UNL d   1      -3.192  -1.204 -16.046 -0.14 -1.76    -0.776 OA
DOCKED: ATOM     43  H   UNL d   1      -2.777  -1.766 -16.711 +0.01 +0.27    +0.167 HD
DOCKED: ENDBRANCH  40  42
DOCKED: ENDBRANCH  39  40
DOCKED: ENDBRANCH  38  39
DOCKED: ENDBRANCH  22  38
DOCKED: BRANCH  12  44
DOCKED: ATOM     44  C   UNL d   1       2.859  -1.827  -7.145 -0.51 +0.00    +0.004 C 
DOCKED: ATOM     45  C   UNL d   1       3.317  -0.930  -6.273 -0.52 +0.00    +0.012 C 
DOCKED: ENDBRANCH  12  44
DOCKED: BRANCH  17  46
DOCKED: ATOM     46  C   UNL d   1      -5.111  -0.060  -7.766 -0.30 +0.00    +0.004 C 
DOCKED: ATOM     47  C   UNL d   1      -6.206  -0.590  -8.325 -0.30 +0.00    +0.012 C 
DOCKED: ENDBRANCH  17  46
DOCKED: TORSDOF 10
DOCKED: TER
DOCKED: ENDMDL
________________________________________________________________________________


	BEGINNING GENETIC ALGORITHM DOCKING 78 of 100
Run: 78 Seed: 1255417689 1255617138 [ Run 78 of 100 GA/GALS ]
Beginning LAMARCKIAN GENETIC ALGORITHM (LGA), with a maximum of 25000000 energy evaluations.

Final-Value: -12.615


	FINAL GENETIC ALGORITHM DOCKED STATE
	_______________________________________________


Detailed state:  trans -7.346 -1.582 -12.423 quatxyzw 0.452948 0.258352 0.772221 0.362997 center 8.287 34.468 -0.670 ntor 10 -40.0943 -26.4080 -39.8187 117.1158 -86.9254 -117.4002 136.9782 41.0988 -160.0698 -53.4737
State:	 -7.346  -1.582 -12.423   0.486  0.277  0.829 137.431    -40.09  -26.41  -39.82  117.12  -86.93 -117.40  136.98   41.10 -160.07  -53.47

DOCKED: MODEL       78
DOCKED: USER    Run = 78
DOCKED: USER    DPF = D:/Protein_go_brrr/autodock/final/AncB/heme_O2/dock.dpf
DOCKED: USER  
DOCKED: USER    Estimated Free Energy of Binding    =   -8.99 kcal/mol  [=(1)+(2)+(3)-(4)]
DOCKED: USER    Estimated Inhibition Constant, Ki   =  256.28 nM (nanomolar)  [Temperature = 298.15 K]
DOCKED: USER    
DOCKED: USER    (1) Final Intermolecular Energy     =  -11.98 kcal/mol
DOCKED: USER        vdW + Hbond + desolv Energy     =   -8.15 kcal/mol
DOCKED: USER        Electrostatic Energy            =   -3.83 kcal/mol
DOCKED: USER    (2) Final Total Internal Energy     =   -0.64 kcal/mol
DOCKED: USER    (3) Torsional Free Energy           =   +2.98 kcal/mol
DOCKED: USER    (4) Unbound System's Energy  [=(2)] =   -0.64 kcal/mol
DOCKED: USER    
DOCKED: USER    
DOCKED: USER    NEWDPF move heme_O2_opt.pdbqt
DOCKED: USER    NEWDPF about 8.287000 34.468000 -0.670000
DOCKED: USER    NEWDPF tran0 -7.345626 -1.582342 -12.422927
DOCKED: USER    NEWDPF quaternion0 0.452948 0.258352 0.772221 0.362997
DOCKED: USER    NEWDPF axisangle0 0.486105 0.277264 0.828750 137.431223
DOCKED: USER    NEWDPF quat0 0.486105 0.277264 0.828750 137.431223
DOCKED: USER    NEWDPF dihe0 -40.09 -26.41 -39.82 117.12 -86.93 -117.40 136.98 41.10 -160.07 -53.47 
DOCKED: USER  keepresnum = 1 
DOCKED: USER  
DOCKED: REMARK  10 active torsions:
DOCKED: REMARK  status: ('A' for Active; 'I' for Inactive)
DOCKED: REMARK    1  A    between atoms: C_6  and  C_10 
DOCKED: REMARK    2  A    between atoms: C_10  and  C_11 
DOCKED: REMARK    3  A    between atoms: C_11  and  C_12 
DOCKED: REMARK    4  A    between atoms: C_12  and  O_14 
DOCKED: REMARK    5  A    between atoms: C_17  and  C_20 
DOCKED: REMARK    6  A    between atoms: C_24  and  C_27 
DOCKED: REMARK    7  A    between atoms: C_31  and  C_34 
DOCKED: REMARK    8  A    between atoms: C_34  and  C_35 
DOCKED: REMARK    9  A    between atoms: C_35  and  C_36 
DOCKED: REMARK   10  A    between atoms: C_36  and  O_38 
DOCKED: USER                              x       y       z     vdW  Elec       q    Type
DOCKED: USER                           _______ _______ _______ _____ _____    ______ ____
DOCKED: ROOT
DOCKED: ATOM      1  C   UNL d   1      -6.667  -1.917 -14.405 -0.05 +0.08    +0.064 A 
DOCKED: ATOM      2  C   UNL d   1      -7.319   2.042 -11.862 -0.10 +0.04    +0.064 A 
DOCKED: ATOM      3  C   UNL d   1      -8.886  -0.517  -8.108 -0.19 +0.02    +0.064 C 
DOCKED: ATOM      4  C   UNL d   1      -7.768  -4.625 -10.545 -0.27 +0.03    +0.064 A 
DOCKED: ATOM      5  C   UNL d   1      -6.715  -0.632 -14.019 -0.06 +0.07    +0.066 A 
DOCKED: ATOM      6  C   UNL d   1      -6.362   0.445 -14.837 -0.05 -0.02    -0.021 A 
DOCKED: ATOM      7  C   UNL d   1      -6.509   1.589 -14.088 -0.08 -0.02    -0.025 A 
DOCKED: ATOM      8  C   UNL d   1      -6.994   1.183 -12.848 -0.06 +0.05    +0.066 A 
DOCKED: ATOM      9  C   UNL d   1      -6.162   2.984 -14.561 +0.03 +0.07    +0.051 C 
DOCKED: ATOM     10  C   UNL d   1      -7.854   1.677 -10.550 -0.10 +0.03    +0.066 A 
DOCKED: ATOM     11  C   UNL d   1      -8.328   2.614  -9.625 -0.16 -0.01    -0.021 A 
DOCKED: ATOM     12  C   UNL d   1      -8.801   1.895  -8.543 -0.21 +0.00    +0.000 A 
DOCKED: ATOM     13  C   UNL d   1      -8.572   0.530  -8.871 -0.13 +0.02    +0.070 A 
DOCKED: ATOM     14  C   UNL d   1      -8.354   4.131  -9.779 -0.19 +0.02    +0.052 C 
DOCKED: ATOM     15  C   UNL d   1      -8.639  -1.911  -8.389 -0.17 +0.02    +0.066 A 
DOCKED: ATOM     16  C   UNL d   1      -8.842  -2.948  -7.479 -0.28 -0.01    -0.021 A 
DOCKED: ATOM     17  C   UNL d   1      -8.529  -4.129  -8.151 -0.34 +0.00    +0.000 A 
DOCKED: ATOM     18  C   UNL d   1      -8.155  -3.718  -9.439 -0.21 +0.03    +0.070 A 
DOCKED: ATOM     19  C   UNL d   1      -9.259  -2.718  -6.048 -0.44 +0.01    +0.052 C 
DOCKED: ATOM     20  C   UNL d   1      -7.362  -4.262 -11.778 -0.22 +0.05    +0.066 A 
DOCKED: ATOM     21  C   UNL d   1      -7.027  -5.163 -12.785 -0.26 -0.02    -0.025 A 
DOCKED: ATOM     22  C   UNL d   1      -6.737  -4.410 -13.900 -0.15 -0.02    -0.021 A 
DOCKED: ATOM     23  C   UNL d   1      -6.889  -3.071 -13.526 -0.10 +0.08    +0.066 A 
DOCKED: ATOM     24  C   UNL d   1      -6.981  -6.666 -12.687 -0.35 +0.03    +0.051 C 
DOCKED: ATOM     25  N   UNL d   1      -7.058  -0.190 -12.784 -0.03 -0.20    -0.248 N 
DOCKED: ATOM     26  N   UNL d   1      -7.991   0.407 -10.092 -0.04 -0.10    -0.248 N 
DOCKED: ATOM     27  N   UNL d   1      -8.156  -2.365  -9.542 -0.08 -0.10    -0.248 N 
DOCKED: ATOM     28  N   UNL d   1      -7.226  -2.985 -12.222 -0.09 -0.21    -0.248 N 
DOCKED: ATOM     29 FE   UNL d   1      -7.606  -1.303 -11.162 -0.02 +0.00    +0.000 Fe
DOCKED: ATOM     30  O   UNL d   1      -6.240  -0.577 -10.994 -0.15 +0.00    +0.000 OA
DOCKED: ATOM     31  O   UNL d   1      -6.415  -2.047 -10.455 -0.18 +0.00    +0.000 OA
DOCKED: ENDROOT
DOCKED: BRANCH   6  32
DOCKED: ATOM     32  C   UNL d   1      -5.777   0.396 -16.225 -0.03 +0.05    +0.052 C 
DOCKED: BRANCH  32  33
DOCKED: ATOM     33  C   UNL d   1      -4.296   0.028 -16.231 -0.05 +0.15    +0.115 C 
DOCKED: BRANCH  33  34
DOCKED: ATOM     34  C   UNL d   1      -3.511   0.782 -15.187 -0.10 +0.21    +0.139 C 
DOCKED: ATOM     35  O   UNL d   1      -2.887   0.165 -14.339 -0.22 -1.25    -0.650 OA
DOCKED: BRANCH  34  36
DOCKED: ATOM     36  O   UNL d   1      -3.505   2.131 -15.150 -0.48 -1.53    -0.776 OA
DOCKED: ATOM     37  H   UNL d   1      -3.468   2.664 -15.952 +0.01 +0.31    +0.167 HD
DOCKED: ENDBRANCH  34  36
DOCKED: ENDBRANCH  33  34
DOCKED: ENDBRANCH  32  33
DOCKED: ENDBRANCH   6  32
DOCKED: BRANCH  22  38
DOCKED: ATOM     38  C   UNL d   1      -6.277  -4.950 -15.230 -0.15 +0.06    +0.052 C 
DOCKED: BRANCH  38  39
DOCKED: ATOM     39  C   UNL d   1      -7.145  -6.107 -15.720 -0.11 +0.09    +0.115 C 
DOCKED: BRANCH  39  40
DOCKED: ATOM     40  C   UNL d   1      -6.333  -7.204 -16.362 -0.06 +0.18    +0.139 C 
DOCKED: ATOM     41  O   UNL d   1      -5.172  -7.373 -16.029 -0.54 -1.05    -0.650 OA
DOCKED: BRANCH  40  42
DOCKED: ATOM     42  O   UNL d   1      -6.884  -8.039 -17.265 -0.15 -1.12    -0.776 OA
DOCKED: ATOM     43  H   UNL d   1      -7.835  -8.199 -17.290 +0.03 +0.14    +0.167 HD
DOCKED: ENDBRANCH  40  42
DOCKED: ENDBRANCH  39  40
DOCKED: ENDBRANCH  38  39
DOCKED: ENDBRANCH  22  38
DOCKED: BRANCH  12  44
DOCKED: ATOM     44  C   UNL d   1      -9.407   2.571  -7.331 -0.27 +0.00    +0.004 C 
DOCKED: ATOM     45  C   UNL d   1     -10.512   2.229  -6.669 -0.27 +0.00    +0.012 C 
DOCKED: ENDBRANCH  12  44
DOCKED: BRANCH  17  46
DOCKED: ATOM     46  C   UNL d   1      -8.498  -5.558  -7.678 -0.49 +0.00    +0.004 C 
DOCKED: ATOM     47  C   UNL d   1      -9.324  -6.559  -8.009 -0.56 +0.00    +0.012 C 
DOCKED: ENDBRANCH  17  46
DOCKED: TORSDOF 10
DOCKED: TER
DOCKED: ENDMDL
________________________________________________________________________________


	BEGINNING GENETIC ALGORITHM DOCKING 79 of 100
Run: 79 Seed: 833859918 1164195266 [ Run 79 of 100 GA/GALS ]
Beginning LAMARCKIAN GENETIC ALGORITHM (LGA), with a maximum of 25000000 energy evaluations.

Final-Value: -12.804


	FINAL GENETIC ALGORITHM DOCKED STATE
	_______________________________________________


Detailed state:  trans -9.533 -19.090 10.406 quatxyzw -0.228375 -0.764989 -0.023200 -0.601746 center 8.287 34.468 -0.670 ntor 10 -97.0718 121.0953 50.1094 -101.0421 67.0671 -42.0854 -136.7608 108.7705 169.0031 -178.8237
State:	 -9.533 -19.090  10.406  -0.286 -0.958 -0.029 -106.010    -97.07  121.10   50.11 -101.04   67.07  -42.09 -136.76  108.77  169.00 -178.82

DOCKED: MODEL       79
DOCKED: USER    Run = 79
DOCKED: USER    DPF = D:/Protein_go_brrr/autodock/final/AncB/heme_O2/dock.dpf
DOCKED: USER  
DOCKED: USER    Estimated Free Energy of Binding    =   -7.57 kcal/mol  [=(1)+(2)+(3)-(4)]
DOCKED: USER    Estimated Inhibition Constant, Ki   =    2.83 uM (micromolar)  [Temperature = 298.15 K]
DOCKED: USER    
DOCKED: USER    (1) Final Intermolecular Energy     =  -10.55 kcal/mol
DOCKED: USER        vdW + Hbond + desolv Energy     =   -5.06 kcal/mol
DOCKED: USER        Electrostatic Energy            =   -5.50 kcal/mol
DOCKED: USER    (2) Final Total Internal Energy     =   -2.25 kcal/mol
DOCKED: USER    (3) Torsional Free Energy           =   +2.98 kcal/mol
DOCKED: USER    (4) Unbound System's Energy  [=(2)] =   -2.25 kcal/mol
DOCKED: USER    
DOCKED: USER    
DOCKED: USER    NEWDPF move heme_O2_opt.pdbqt
DOCKED: USER    NEWDPF about 8.287000 34.468000 -0.670000
DOCKED: USER    NEWDPF tran0 -9.532623 -19.089737 10.405907
DOCKED: USER    NEWDPF quaternion0 -0.228375 -0.764989 -0.023200 -0.601746
DOCKED: USER    NEWDPF axisangle0 -0.285938 -0.957808 -0.029048 -106.009959
DOCKED: USER    NEWDPF quat0 -0.285938 -0.957808 -0.029048 -106.009959
DOCKED: USER    NEWDPF dihe0 -97.07 121.10 50.11 -101.04 67.07 -42.09 -136.76 108.77 169.00 -178.82 
DOCKED: USER  keepresnum = 1 
DOCKED: USER  
DOCKED: REMARK  10 active torsions:
DOCKED: REMARK  status: ('A' for Active; 'I' for Inactive)
DOCKED: REMARK    1  A    between atoms: C_6  and  C_10 
DOCKED: REMARK    2  A    between atoms: C_10  and  C_11 
DOCKED: REMARK    3  A    between atoms: C_11  and  C_12 
DOCKED: REMARK    4  A    between atoms: C_12  and  O_14 
DOCKED: REMARK    5  A    between atoms: C_17  and  C_20 
DOCKED: REMARK    6  A    between atoms: C_24  and  C_27 
DOCKED: REMARK    7  A    between atoms: C_31  and  C_34 
DOCKED: REMARK    8  A    between atoms: C_34  and  C_35 
DOCKED: REMARK    9  A    between atoms: C_35  and  C_36 
DOCKED: REMARK   10  A    between atoms: C_36  and  O_38 
DOCKED: USER                              x       y       z     vdW  Elec       q    Type
DOCKED: USER                           _______ _______ _______ _____ _____    ______ ____
DOCKED: ROOT
DOCKED: ATOM      1  C   UNL d   1      -8.257 -19.401   8.740 -0.03 +0.09    +0.064 A 
DOCKED: ATOM      2  C   UNL d   1     -12.861 -20.312   9.469 -0.05 +0.03    +0.064 A 
DOCKED: ATOM      3  C   UNL d   1     -12.585 -18.602  13.951 -0.10 +0.02    +0.064 C 
DOCKED: ATOM      4  C   UNL d   1      -7.964 -17.220  13.053 -0.08 +0.03    +0.064 A 
DOCKED: ATOM      5  C   UNL d   1      -9.532 -19.786   8.572 +0.03 +0.09    +0.066 A 
DOCKED: ATOM      6  C   UNL d   1     -10.026 -20.368   7.401 -0.05 -0.02    -0.021 A 
DOCKED: ATOM      7  C   UNL d   1     -11.369 -20.592   7.595 -0.05 -0.02    -0.025 A 
DOCKED: ATOM      8  C   UNL d   1     -11.648 -20.186   8.897 -0.07 +0.05    +0.066 A 
DOCKED: ATOM      9  C   UNL d   1     -12.314 -21.142   6.550 -0.03 +0.03    +0.051 C 
DOCKED: ATOM     10  C   UNL d   1     -13.208 -19.926  10.837 -0.05 +0.03    +0.066 A 
DOCKED: ATOM     11  C   UNL d   1     -14.437 -20.228  11.433 -0.03 -0.01    -0.021 A 
DOCKED: ATOM     12  C   UNL d   1     -14.371 -19.759  12.732 -0.04 +0.00    +0.000 A 
DOCKED: ATOM     13  C   UNL d   1     -13.080 -19.173  12.854 -0.07 +0.02    +0.070 A 
DOCKED: ATOM     14  C   UNL d   1     -15.616 -20.958  10.799 -0.01 +0.01    +0.052 C 
DOCKED: ATOM     15  C   UNL d   1     -11.298 -17.967  14.104 -0.08 +0.02    +0.066 A 
DOCKED: ATOM     16  C   UNL d   1     -10.903 -17.243  15.229 -0.09 -0.00    -0.021 A 
DOCKED: ATOM     17  C   UNL d   1      -9.589 -16.838  14.995 -0.09 +0.00    +0.000 A 
DOCKED: ATOM     18  C   UNL d   1      -9.276 -17.354  13.729 -0.10 +0.03    +0.070 A 
DOCKED: ATOM     19  C   UNL d   1     -11.823 -16.958  16.389 -0.09 +0.01    +0.052 C 
DOCKED: ATOM     20  C   UNL d   1      -7.645 -17.665  11.822 -0.09 +0.04    +0.066 A 
DOCKED: ATOM     21  C   UNL d   1      -6.386 -17.524  11.244 -0.05 -0.02    -0.025 A 
DOCKED: ATOM     22  C   UNL d   1      -6.443 -18.164  10.026 -0.05 -0.02    -0.021 A 
DOCKED: ATOM     23  C   UNL d   1      -7.745 -18.657   9.898 -0.07 +0.08    +0.066 A 
DOCKED: ATOM     24  C   UNL d   1      -5.191 -16.813  11.823 -0.02 +0.02    +0.051 C 
DOCKED: ATOM     25  N   UNL d   1     -10.530 -19.630   9.475 -0.07 -0.30    -0.248 N 
DOCKED: ATOM     26  N   UNL d   1     -12.381 -19.275  11.694 -0.06 -0.13    -0.248 N 
DOCKED: ATOM     27  N   UNL d   1     -10.349 -17.972  13.173 -0.09 -0.12    -0.248 N 
DOCKED: ATOM     28  N   UNL d   1      -8.485 -18.313  10.972 -0.08 -0.27    -0.248 N 
DOCKED: ATOM     29 FE   UNL d   1     -10.419 -18.789  11.333 -0.03 +0.00    +0.000 Fe
DOCKED: ATOM     30  O   UNL d   1     -11.266 -17.965  10.320 -0.62 +0.00    +0.000 OA
DOCKED: ATOM     31  O   UNL d   1     -10.312 -17.220  11.329 -0.97 +0.00    +0.000 OA
DOCKED: ENDROOT
DOCKED: BRANCH   6  32
DOCKED: ATOM     32  C   UNL d   1      -9.299 -20.579   6.098 -0.03 +0.05    +0.052 C 
DOCKED: BRANCH  32  33
DOCKED: ATOM     33  C   UNL d   1      -9.761 -19.625   5.000 -0.06 +0.14    +0.115 C 
DOCKED: BRANCH  33  34
DOCKED: ATOM     34  C   UNL d   1      -9.983 -18.224   5.512 -0.00 +0.28    +0.139 C 
DOCKED: ATOM     35  O   UNL d   1     -11.046 -17.934   6.037 -0.40 -1.33    -0.650 OA
DOCKED: BRANCH  34  36
DOCKED: ATOM     36  O   UNL d   1      -9.040 -17.268   5.378 -0.12 -2.46    -0.776 OA
DOCKED: ATOM     37  H   UNL d   1      -8.424 -17.055   6.089 +0.02 +0.55    +0.167 HD
DOCKED: ENDBRANCH  34  36
DOCKED: ENDBRANCH  33  34
DOCKED: ENDBRANCH  32  33
DOCKED: ENDBRANCH   6  32
DOCKED: BRANCH  22  38
DOCKED: ATOM     38  C   UNL d   1      -5.324 -18.237   9.019 -0.02 +0.04    +0.052 C 
DOCKED: BRANCH  38  39
DOCKED: ATOM     39  C   UNL d   1      -5.156 -16.933   8.241 -0.04 +0.10    +0.115 C 
DOCKED: BRANCH  39  40
DOCKED: ATOM     40  C   UNL d   1      -6.266 -16.708   7.246 -0.12 +0.24    +0.139 C 
DOCKED: ATOM     41  O   UNL d   1      -7.160 -15.918   7.504 -0.57 -1.56    -0.650 OA
DOCKED: BRANCH  40  42
DOCKED: ATOM     42  O   UNL d   1      -6.264 -17.326   6.049 -0.22 -1.62    -0.776 OA
DOCKED: ATOM     43  H   UNL d   1      -7.005 -17.873   5.762 +0.02 +0.37    +0.167 HD
DOCKED: ENDBRANCH  40  42
DOCKED: ENDBRANCH  39  40
DOCKED: ENDBRANCH  38  39
DOCKED: ENDBRANCH  22  38
DOCKED: BRANCH  12  44
DOCKED: ATOM     44  C   UNL d   1     -15.523 -19.912  13.702 -0.02 +0.00    +0.004 C 
DOCKED: ATOM     45  C   UNL d   1     -16.032 -18.992  14.521 -0.02 +0.00    +0.012 C 
DOCKED: ENDBRANCH  12  44
DOCKED: BRANCH  17  46
DOCKED: ATOM     46  C   UNL d   1      -8.657 -15.985  15.814 -0.07 +0.00    +0.004 C 
DOCKED: ATOM     47  C   UNL d   1      -8.253 -14.731  15.571 -0.11 +0.00    +0.012 C 
DOCKED: ENDBRANCH  17  46
DOCKED: TORSDOF 10
DOCKED: TER
DOCKED: ENDMDL
________________________________________________________________________________


	BEGINNING GENETIC ALGORITHM DOCKING 80 of 100
Run: 80 Seed: 1970280773 791503207 [ Run 80 of 100 GA/GALS ]
Beginning LAMARCKIAN GENETIC ALGORITHM (LGA), with a maximum of 25000000 energy evaluations.

Final-Value: -20.719


	FINAL GENETIC ALGORITHM DOCKED STATE
	_______________________________________________


Detailed state:  trans 0.209 -1.675 -8.884 quatxyzw 0.287272 0.263675 0.216743 0.894971 center 8.287 34.468 -0.670 ntor 10 86.5460 46.0245 33.2765 -42.0368 -137.3267 170.5517 -1.2825 62.3087 176.5102 125.0898
State:	  0.209  -1.675  -8.884   0.644  0.591  0.486 52.991     86.55   46.02   33.28  -42.04 -137.33  170.55   -1.28   62.31  176.51  125.09

DOCKED: MODEL       80
DOCKED: USER    Run = 80
DOCKED: USER    DPF = D:/Protein_go_brrr/autodock/final/AncB/heme_O2/dock.dpf
DOCKED: USER  
DOCKED: USER    Estimated Free Energy of Binding    =  -16.18 kcal/mol  [=(1)+(2)+(3)-(4)]
DOCKED: USER    Estimated Inhibition Constant, Ki   =    1.38 pM (picomolar)  [Temperature = 298.15 K]
DOCKED: USER    
DOCKED: USER    (1) Final Intermolecular Energy     =  -19.16 kcal/mol
DOCKED: USER        vdW + Hbond + desolv Energy     =  -15.64 kcal/mol
DOCKED: USER        Electrostatic Energy            =   -3.52 kcal/mol
DOCKED: USER    (2) Final Total Internal Energy     =   -1.55 kcal/mol
DOCKED: USER    (3) Torsional Free Energy           =   +2.98 kcal/mol
DOCKED: USER    (4) Unbound System's Energy  [=(2)] =   -1.55 kcal/mol
DOCKED: USER    
DOCKED: USER    
DOCKED: USER    NEWDPF move heme_O2_opt.pdbqt
DOCKED: USER    NEWDPF about 8.287000 34.468000 -0.670000
DOCKED: USER    NEWDPF tran0 0.209161 -1.675193 -8.883951
DOCKED: USER    NEWDPF quaternion0 0.287272 0.263675 0.216743 0.894971
DOCKED: USER    NEWDPF axisangle0 0.643928 0.591033 0.485836 52.990675
DOCKED: USER    NEWDPF quat0 0.643928 0.591033 0.485836 52.990675
DOCKED: USER    NEWDPF dihe0 86.55 46.02 33.28 -42.04 -137.33 170.55 -1.28 62.31 176.51 125.09 
DOCKED: USER  keepresnum = 1 
DOCKED: USER  
DOCKED: REMARK  10 active torsions:
DOCKED: REMARK  status: ('A' for Active; 'I' for Inactive)
DOCKED: REMARK    1  A    between atoms: C_6  and  C_10 
DOCKED: REMARK    2  A    between atoms: C_10  and  C_11 
DOCKED: REMARK    3  A    between atoms: C_11  and  C_12 
DOCKED: REMARK    4  A    between atoms: C_12  and  O_14 
DOCKED: REMARK    5  A    between atoms: C_17  and  C_20 
DOCKED: REMARK    6  A    between atoms: C_24  and  C_27 
DOCKED: REMARK    7  A    between atoms: C_31  and  C_34 
DOCKED: REMARK    8  A    between atoms: C_34  and  C_35 
DOCKED: REMARK    9  A    between atoms: C_35  and  C_36 
DOCKED: REMARK   10  A    between atoms: C_36  and  O_38 
DOCKED: USER                              x       y       z     vdW  Elec       q    Type
DOCKED: USER                           _______ _______ _______ _____ _____    ______ ____
DOCKED: ROOT
DOCKED: ATOM      1  C   UNL d   1      -0.622  -1.290 -10.797 -0.29 +0.05    +0.064 A 
DOCKED: ATOM      2  C   UNL d   1      -2.480  -1.258  -6.426 -0.40 +0.02    +0.064 A 
DOCKED: ATOM      3  C   UNL d   1       1.740  -2.547  -4.523 -0.44 +0.01    +0.064 C 
DOCKED: ATOM      4  C   UNL d   1       3.781  -2.117  -8.963 -0.43 +0.02    +0.064 A 
DOCKED: ATOM      5  C   UNL d   1      -1.472  -1.174  -9.763 -0.32 +0.04    +0.066 A 
DOCKED: ATOM      6  C   UNL d   1      -2.822  -0.836  -9.893 -0.31 -0.02    -0.021 A 
DOCKED: ATOM      7  C   UNL d   1      -3.350  -0.785  -8.625 -0.33 -0.01    -0.025 A 
DOCKED: ATOM      8  C   UNL d   1      -2.320  -1.140  -7.758 -0.36 +0.03    +0.066 A 
DOCKED: ATOM      9  C   UNL d   1      -4.771  -0.381  -8.294 -0.37 +0.02    +0.051 C 
DOCKED: ATOM     10  C   UNL d   1      -1.444  -1.649  -5.469 -0.40 +0.02    +0.066 A 
DOCKED: ATOM     11  C   UNL d   1      -1.703  -1.916  -4.120 -0.47 -0.00    -0.021 A 
DOCKED: ATOM     12  C   UNL d   1      -0.501  -2.307  -3.558 -0.44 +0.00    +0.000 A 
DOCKED: ATOM     13  C   UNL d   1       0.446  -2.243  -4.617 -0.40 +0.01    +0.070 A 
DOCKED: ATOM     14  C   UNL d   1      -3.045  -1.829  -3.404 -0.62 +0.01    +0.052 C 
DOCKED: ATOM     15  C   UNL d   1       2.739  -2.462  -5.561 -0.41 +0.01    +0.066 A 
DOCKED: ATOM     16  C   UNL d   1       4.107  -2.636  -5.359 -0.51 -0.00    -0.021 A 
DOCKED: ATOM     17  C   UNL d   1       4.710  -2.517  -6.611 -0.52 +0.00    +0.000 A 
DOCKED: ATOM     18  C   UNL d   1       3.649  -2.278  -7.496 -0.43 +0.02    +0.070 A 
DOCKED: ATOM     19  C   UNL d   1       4.717  -2.843  -3.995 -0.58 +0.01    +0.052 C 
DOCKED: ATOM     20  C   UNL d   1       2.791  -1.844  -9.835 -0.45 +0.02    +0.066 A 
DOCKED: ATOM     21  C   UNL d   1       2.974  -1.722 -11.210 -0.42 -0.01    -0.025 A 
DOCKED: ATOM     22  C   UNL d   1       1.725  -1.513 -11.751 +0.11 -0.01    -0.021 A 
DOCKED: ATOM     23  C   UNL d   1       0.826  -1.497 -10.681 -0.16 +0.03    +0.066 A 
DOCKED: ATOM     24  C   UNL d   1       4.274  -1.796 -11.967 -0.53 +0.01    +0.051 C 
DOCKED: ATOM     25  N   UNL d   1      -1.147  -1.316  -8.454 -0.01 -0.12    -0.248 N 
DOCKED: ATOM     26  N   UNL d   1      -0.135  -1.837  -5.775 -0.25 -0.07    -0.248 N 
DOCKED: ATOM     27  N   UNL d   1       2.470  -2.173  -6.831 -0.22 -0.08    -0.248 N 
DOCKED: ATOM     28  N   UNL d   1       1.484  -1.654  -9.514 -0.13 -0.13    -0.248 N 
DOCKED: ATOM     29 FE   UNL d   1       0.683  -1.745  -7.657 -0.09 +0.00    +0.000 Fe
DOCKED: ATOM     30  O   UNL d   1       0.177  -0.310  -7.331 -0.79 +0.00    +0.000 OA
DOCKED: ATOM     31  O   UNL d   1       1.696  -0.543  -7.675 -1.06 +0.00    +0.000 OA
DOCKED: ENDROOT
DOCKED: BRANCH   6  32
DOCKED: ATOM     32  C   UNL d   1      -3.558  -0.442 -11.147 -0.26 +0.06    +0.052 C 
DOCKED: BRANCH  32  33
DOCKED: ATOM     33  C   UNL d   1      -3.731   1.068 -11.282 -0.15 +0.12    +0.115 C 
DOCKED: BRANCH  33  34
DOCKED: ATOM     34  C   UNL d   1      -4.393   1.457 -12.580 -0.10 +0.19    +0.139 C 
DOCKED: ATOM     35  O   UNL d   1      -5.581   1.228 -12.744 -0.02 -0.72    -0.650 OA
DOCKED: BRANCH  34  36
DOCKED: ATOM     36  O   UNL d   1      -3.695   2.031 -13.582 -0.27 -1.59    -0.776 OA
DOCKED: ATOM     37  H   UNL d   1      -3.226   1.508 -14.243 +0.03 +0.29    +0.167 HD
DOCKED: ENDBRANCH  34  36
DOCKED: ENDBRANCH  33  34
DOCKED: ENDBRANCH  32  33
DOCKED: ENDBRANCH   6  32
DOCKED: BRANCH  22  38
DOCKED: ATOM     38  C   UNL d   1       1.429  -1.277 -13.210 -0.19 +0.03    +0.052 C 
DOCKED: BRANCH  38  39
DOCKED: ATOM     39  C   UNL d   1       0.488  -0.094 -13.429 -0.20 +0.09    +0.115 C 
DOCKED: BRANCH  39  40
DOCKED: ATOM     40  C   UNL d   1      -0.800  -0.499 -14.102 -0.14 +0.18    +0.139 C 
DOCKED: ATOM     41  O   UNL d   1      -0.771  -1.251 -15.063 -0.21 -0.92    -0.650 OA
DOCKED: BRANCH  40  42
DOCKED: ATOM     42  O   UNL d   1      -1.991  -0.085 -13.630 -0.02 -1.37    -0.776 OA
DOCKED: ATOM     43  H   UNL d   1      -2.156   0.841 -13.416 +0.05 +0.24    +0.167 HD
DOCKED: ENDBRANCH  40  42
DOCKED: ENDBRANCH  39  40
DOCKED: ENDBRANCH  38  39
DOCKED: ENDBRANCH  22  38
DOCKED: BRANCH  12  44
DOCKED: ATOM     44  C   UNL d   1      -0.384  -2.689  -2.098 -0.43 +0.00    +0.004 C 
DOCKED: ATOM     45  C   UNL d   1       0.681  -2.574  -1.305 -0.62 +0.00    +0.012 C 
DOCKED: ENDBRANCH  12  44
DOCKED: BRANCH  17  46
DOCKED: ATOM     46  C   UNL d   1       6.159  -2.551  -7.018 -0.53 +0.00    +0.004 C 
DOCKED: ATOM     47  C   UNL d   1       7.186  -1.880  -6.481 -0.56 +0.00    +0.012 C 
DOCKED: ENDBRANCH  17  46
DOCKED: TORSDOF 10
DOCKED: TER
DOCKED: ENDMDL
________________________________________________________________________________


	BEGINNING GENETIC ALGORITHM DOCKING 81 of 100
Run: 81 Seed: 1424265485 1287604209 [ Run 81 of 100 GA/GALS ]
Beginning LAMARCKIAN GENETIC ALGORITHM (LGA), with a maximum of 25000000 energy evaluations.

Final-Value: -11.314


	FINAL GENETIC ALGORITHM DOCKED STATE
	_______________________________________________


Detailed state:  trans 18.123 0.516 -9.635 quatxyzw -0.474118 0.619399 0.148800 0.607796 center 8.287 34.468 -0.670 ntor 10 123.5098 -119.7580 3.2040 -126.7125 -108.7165 34.9755 -36.2516 -41.2372 -177.6200 48.0651
State:	 18.123   0.516  -9.635  -0.597  0.780  0.187 105.139    123.51 -119.76    3.20 -126.71 -108.72   34.98  -36.25  -41.24 -177.62   48.07

DOCKED: MODEL       81
DOCKED: USER    Run = 81
DOCKED: USER    DPF = D:/Protein_go_brrr/autodock/final/AncB/heme_O2/dock.dpf
DOCKED: USER  
DOCKED: USER    Estimated Free Energy of Binding    =   -6.52 kcal/mol  [=(1)+(2)+(3)-(4)]
DOCKED: USER    Estimated Inhibition Constant, Ki   =   16.63 uM (micromolar)  [Temperature = 298.15 K]
DOCKED: USER    
DOCKED: USER    (1) Final Intermolecular Energy     =   -9.50 kcal/mol
DOCKED: USER        vdW + Hbond + desolv Energy     =   -7.74 kcal/mol
DOCKED: USER        Electrostatic Energy            =   -1.76 kcal/mol
DOCKED: USER    (2) Final Total Internal Energy     =   -1.81 kcal/mol
DOCKED: USER    (3) Torsional Free Energy           =   +2.98 kcal/mol
DOCKED: USER    (4) Unbound System's Energy  [=(2)] =   -1.81 kcal/mol
DOCKED: USER    
DOCKED: USER    
DOCKED: USER    NEWDPF move heme_O2_opt.pdbqt
DOCKED: USER    NEWDPF about 8.287000 34.468000 -0.670000
DOCKED: USER    NEWDPF tran0 18.122614 0.516368 -9.635322
DOCKED: USER    NEWDPF quaternion0 -0.474118 0.619399 0.148800 0.607796
DOCKED: USER    NEWDPF axisangle0 -0.597055 0.780008 0.187383 105.139443
DOCKED: USER    NEWDPF quat0 -0.597055 0.780008 0.187383 105.139443
DOCKED: USER    NEWDPF dihe0 123.51 -119.76 3.20 -126.71 -108.72 34.98 -36.25 -41.24 -177.62 48.07 
DOCKED: USER  keepresnum = 1 
DOCKED: USER  
DOCKED: REMARK  10 active torsions:
DOCKED: REMARK  status: ('A' for Active; 'I' for Inactive)
DOCKED: REMARK    1  A    between atoms: C_6  and  C_10 
DOCKED: REMARK    2  A    between atoms: C_10  and  C_11 
DOCKED: REMARK    3  A    between atoms: C_11  and  C_12 
DOCKED: REMARK    4  A    between atoms: C_12  and  O_14 
DOCKED: REMARK    5  A    between atoms: C_17  and  C_20 
DOCKED: REMARK    6  A    between atoms: C_24  and  C_27 
DOCKED: REMARK    7  A    between atoms: C_31  and  C_34 
DOCKED: REMARK    8  A    between atoms: C_34  and  C_35 
DOCKED: REMARK    9  A    between atoms: C_35  and  C_36 
DOCKED: REMARK   10  A    between atoms: C_36  and  O_38 
DOCKED: USER                              x       y       z     vdW  Elec       q    Type
DOCKED: USER                           _______ _______ _______ _____ _____    ______ ____
DOCKED: ROOT
DOCKED: ATOM      1  C   UNL d   1      18.241   2.571 -10.148 -0.12 +0.04    +0.064 A 
DOCKED: ATOM      2  C   UNL d   1      16.256  -1.165 -12.307 -0.16 +0.02    +0.064 A 
DOCKED: ATOM      3  C   UNL d   1      17.761  -4.101  -8.813 -0.17 +0.02    +0.064 C 
DOCKED: ATOM      4  C   UNL d   1      19.394  -0.190  -6.342 -0.19 +0.02    +0.064 A 
DOCKED: ATOM      5  C   UNL d   1      17.577   1.795 -11.020 -0.11 +0.03    +0.066 A 
DOCKED: ATOM      6  C   UNL d   1      16.997   2.264 -12.202 -0.10 -0.01    -0.021 A 
DOCKED: ATOM      7  C   UNL d   1      16.385   1.191 -12.806 -0.12 -0.01    -0.025 A 
DOCKED: ATOM      8  C   UNL d   1      16.649   0.087 -12.001 -0.14 +0.02    +0.066 A 
DOCKED: ATOM      9  C   UNL d   1      15.568   1.264 -14.078 -0.15 +0.01    +0.051 C 
DOCKED: ATOM     10  C   UNL d   1      16.523  -2.366 -11.514 -0.15 +0.02    +0.066 A 
DOCKED: ATOM     11  C   UNL d   1      16.236  -3.661 -11.959 -0.13 -0.01    -0.021 A 
DOCKED: ATOM     12  C   UNL d   1      16.679  -4.523 -10.973 -0.16 +0.00    +0.000 A 
DOCKED: ATOM     13  C   UNL d   1      17.212  -3.685  -9.954 -0.16 +0.03    +0.070 A 
DOCKED: ATOM     14  C   UNL d   1      15.591  -4.061 -13.281 -0.13 +0.02    +0.052 C 
DOCKED: ATOM     15  C   UNL d   1      18.279  -3.284  -7.742 -0.16 +0.02    +0.066 A 
DOCKED: ATOM     16  C   UNL d   1      18.690  -3.774  -6.502 -0.14 -0.01    -0.021 A 
DOCKED: ATOM     17  C   UNL d   1      19.159  -2.677  -5.780 -0.23 +0.00    +0.000 A 
DOCKED: ATOM     18  C   UNL d   1      18.999  -1.586  -6.646 -0.22 +0.02    +0.070 A 
DOCKED: ATOM     19  C   UNL d   1      18.548  -5.221  -6.101 -0.15 +0.01    +0.052 C 
DOCKED: ATOM     20  C   UNL d   1      19.215   0.887  -7.132 -0.18 +0.03    +0.066 A 
DOCKED: ATOM     21  C   UNL d   1      19.624   2.175  -6.799 -0.16 -0.01    -0.025 A 
DOCKED: ATOM     22  C   UNL d   1      19.328   2.970  -7.883 -0.16 -0.02    -0.021 A 
DOCKED: ATOM     23  C   UNL d   1      18.731   2.138  -8.834 -0.16 +0.04    +0.066 A 
DOCKED: ATOM     24  C   UNL d   1      20.262   2.625  -5.510 -0.12 +0.02    +0.051 C 
DOCKED: ATOM     25  N   UNL d   1      17.327   0.471 -10.868 -0.08 -0.09    -0.248 N 
DOCKED: ATOM     26  N   UNL d   1      17.109  -2.374 -10.290 -0.12 -0.08    -0.248 N 
DOCKED: ATOM     27  N   UNL d   1      18.395  -1.961  -7.802 -0.14 -0.08    -0.248 N 
DOCKED: ATOM     28  N   UNL d   1      18.623   0.881  -8.355 -0.13 -0.11    -0.248 N 
DOCKED: ATOM     29 FE   UNL d   1      17.872  -0.736  -9.313 -0.04 +0.00    +0.000 Fe
DOCKED: ATOM     30  O   UNL d   1      16.337  -0.504  -9.420 -0.48 +0.00    +0.000 OA
DOCKED: ATOM     31  O   UNL d   1      17.026  -0.528  -8.004 -0.36 +0.00    +0.000 OA
DOCKED: ENDROOT
DOCKED: BRANCH   6  32
DOCKED: ATOM     32  C   UNL d   1      16.900   3.690 -12.680 -0.11 +0.02    +0.052 C 
DOCKED: BRANCH  32  33
DOCKED: ATOM     33  C   UNL d   1      15.590   4.361 -12.281 -0.27 +0.06    +0.115 C 
DOCKED: BRANCH  33  34
DOCKED: ATOM     34  C   UNL d   1      15.780   5.805 -11.888 -0.32 +0.09    +0.139 C 
DOCKED: ATOM     35  O   UNL d   1      15.516   6.688 -12.689 -0.35 -0.35    -0.650 OA
DOCKED: BRANCH  34  36
DOCKED: ATOM     36  O   UNL d   1      16.264   6.147 -10.676 -0.19 -0.88    -0.776 OA
DOCKED: ATOM     37  H   UNL d   1      17.047   6.700 -10.576 -0.07 +0.17    +0.167 HD
DOCKED: ENDBRANCH  34  36
DOCKED: ENDBRANCH  33  34
DOCKED: ENDBRANCH  32  33
DOCKED: ENDBRANCH   6  32
DOCKED: BRANCH  22  38
DOCKED: ATOM     38  C   UNL d   1      19.551   4.458  -7.968 -0.07 +0.05    +0.052 C 
DOCKED: BRANCH  38  39
DOCKED: ATOM     39  C   UNL d   1      19.827   4.925  -9.396 -0.10 +0.08    +0.115 C 
DOCKED: BRANCH  39  40
DOCKED: ATOM     40  C   UNL d   1      19.098   6.201  -9.736 -0.21 +0.12    +0.139 C 
DOCKED: ATOM     41  O   UNL d   1      19.231   6.698 -10.843 -0.03 -0.39    -0.650 OA
DOCKED: BRANCH  40  42
DOCKED: ATOM     42  O   UNL d   1      18.259   6.779  -8.855 +0.00 -1.04    -0.776 OA
DOCKED: ATOM     43  H   UNL d   1      17.319   6.878  -9.043 -0.24 +0.32    +0.167 HD
DOCKED: ENDBRANCH  40  42
DOCKED: ENDBRANCH  39  40
DOCKED: ENDBRANCH  38  39
DOCKED: ENDBRANCH  22  38
DOCKED: BRANCH  12  44
DOCKED: ATOM     44  C   UNL d   1      16.547  -6.026 -11.100 -0.15 +0.00    +0.004 C 
DOCKED: ATOM     45  C   UNL d   1      16.949  -6.959 -10.238 -0.12 +0.01    +0.012 C 
DOCKED: ENDBRANCH  12  44
DOCKED: BRANCH  17  46
DOCKED: ATOM     46  C   UNL d   1      19.673  -2.569  -4.369 -0.24 +0.00    +0.004 C 
DOCKED: ATOM     47  C   UNL d   1      19.353  -1.661  -3.438 -0.26 +0.00    +0.012 C 
DOCKED: ENDBRANCH  17  46
DOCKED: TORSDOF 10
DOCKED: TER
DOCKED: ENDMDL
________________________________________________________________________________


	BEGINNING GENETIC ALGORITHM DOCKING 82 of 100
Run: 82 Seed: 1172492946 2097027752 [ Run 82 of 100 GA/GALS ]
Beginning LAMARCKIAN GENETIC ALGORITHM (LGA), with a maximum of 25000000 energy evaluations.

Final-Value: -12.331


	FINAL GENETIC ALGORITHM DOCKED STATE
	_______________________________________________


Detailed state:  trans -7.559 -1.530 -12.550 quatxyzw -0.492820 -0.233645 -0.760333 -0.352749 center 8.287 34.468 -0.670 ntor 10 135.4472 -41.4409 -87.8062 121.4311 -130.4110 153.0235 -143.0853 -28.7426 156.0658 180.0000
State:	 -7.559  -1.530 -12.550  -0.527 -0.250 -0.813 -138.689    135.45  -41.44  -87.81  121.43 -130.41  153.02 -143.09  -28.74  156.07  180.00

DOCKED: MODEL       82
DOCKED: USER    Run = 82
DOCKED: USER    DPF = D:/Protein_go_brrr/autodock/final/AncB/heme_O2/dock.dpf
DOCKED: USER  
DOCKED: USER    Estimated Free Energy of Binding    =   -8.79 kcal/mol  [=(1)+(2)+(3)-(4)]
DOCKED: USER    Estimated Inhibition Constant, Ki   =  358.23 nM (nanomolar)  [Temperature = 298.15 K]
DOCKED: USER    
DOCKED: USER    (1) Final Intermolecular Energy     =  -11.78 kcal/mol
DOCKED: USER        vdW + Hbond + desolv Energy     =   -7.52 kcal/mol
DOCKED: USER        Electrostatic Energy            =   -4.26 kcal/mol
DOCKED: USER    (2) Final Total Internal Energy     =   -0.55 kcal/mol
DOCKED: USER    (3) Torsional Free Energy           =   +2.98 kcal/mol
DOCKED: USER    (4) Unbound System's Energy  [=(2)] =   -0.55 kcal/mol
DOCKED: USER    
DOCKED: USER    
DOCKED: USER    NEWDPF move heme_O2_opt.pdbqt
DOCKED: USER    NEWDPF about 8.287000 34.468000 -0.670000
DOCKED: USER    NEWDPF tran0 -7.558758 -1.530218 -12.549703
DOCKED: USER    NEWDPF quaternion0 -0.492820 -0.233645 -0.760333 -0.352749
DOCKED: USER    NEWDPF axisangle0 -0.526676 -0.249696 -0.812566 -138.688874
DOCKED: USER    NEWDPF quat0 -0.526676 -0.249696 -0.812566 -138.688874
DOCKED: USER    NEWDPF dihe0 135.45 -41.44 -87.81 121.43 -130.41 153.02 -143.09 -28.74 156.07 180.00 
DOCKED: USER  keepresnum = 1 
DOCKED: USER  
DOCKED: REMARK  10 active torsions:
DOCKED: REMARK  status: ('A' for Active; 'I' for Inactive)
DOCKED: REMARK    1  A    between atoms: C_6  and  C_10 
DOCKED: REMARK    2  A    between atoms: C_10  and  C_11 
DOCKED: REMARK    3  A    between atoms: C_11  and  C_12 
DOCKED: REMARK    4  A    between atoms: C_12  and  O_14 
DOCKED: REMARK    5  A    between atoms: C_17  and  C_20 
DOCKED: REMARK    6  A    between atoms: C_24  and  C_27 
DOCKED: REMARK    7  A    between atoms: C_31  and  C_34 
DOCKED: REMARK    8  A    between atoms: C_34  and  C_35 
DOCKED: REMARK    9  A    between atoms: C_35  and  C_36 
DOCKED: REMARK   10  A    between atoms: C_36  and  O_38 
DOCKED: USER                              x       y       z     vdW  Elec       q    Type
DOCKED: USER                           _______ _______ _______ _____ _____    ______ ____
DOCKED: ROOT
DOCKED: ATOM      1  C   UNL d   1      -7.069  -1.907 -14.579 -0.06 +0.07    +0.064 A 
DOCKED: ATOM      2  C   UNL d   1      -7.304   2.090 -12.024 -0.10 +0.04    +0.064 A 
DOCKED: ATOM      3  C   UNL d   1      -8.672  -0.371  -8.129 -0.21 +0.02    +0.064 C 
DOCKED: ATOM      4  C   UNL d   1      -7.971  -4.540 -10.618 -0.26 +0.03    +0.064 A 
DOCKED: ATOM      5  C   UNL d   1      -7.019  -0.619 -14.201 -0.04 +0.06    +0.066 A 
DOCKED: ATOM      6  C   UNL d   1      -6.684   0.435 -15.056 -0.03 -0.02    -0.021 A 
DOCKED: ATOM      7  C   UNL d   1      -6.709   1.588 -14.306 -0.06 -0.02    -0.025 A 
DOCKED: ATOM      8  C   UNL d   1      -7.107   1.212 -13.026 -0.06 +0.05    +0.066 A 
DOCKED: ATOM      9  C   UNL d   1      -6.335   2.962 -14.818 -0.05 +0.06    +0.051 C 
DOCKED: ATOM     10  C   UNL d   1      -7.743   1.759 -10.667 -0.10 +0.03    +0.066 A 
DOCKED: ATOM     11  C   UNL d   1      -8.089   2.722  -9.714 -0.18 -0.01    -0.021 A 
DOCKED: ATOM     12  C   UNL d   1      -8.504   2.032  -8.589 -0.23 +0.00    +0.000 A 
DOCKED: ATOM     13  C   UNL d   1      -8.372   0.656  -8.924 -0.14 +0.02    +0.070 A 
DOCKED: ATOM     14  C   UNL d   1      -8.053   4.237  -9.877 -0.21 +0.02    +0.052 C 
DOCKED: ATOM     15  C   UNL d   1      -8.519  -1.777  -8.418 -0.17 +0.02    +0.066 A 
DOCKED: ATOM     16  C   UNL d   1      -8.696  -2.799  -7.486 -0.28 -0.01    -0.021 A 
DOCKED: ATOM     17  C   UNL d   1      -8.500  -3.997  -8.172 -0.33 +0.00    +0.000 A 
DOCKED: ATOM     18  C   UNL d   1      -8.217  -3.611  -9.490 -0.20 +0.03    +0.070 A 
DOCKED: ATOM     19  C   UNL d   1      -8.978  -2.542  -6.026 -0.43 +0.01    +0.052 C 
DOCKED: ATOM     20  C   UNL d   1      -7.654  -4.203 -11.883 -0.19 +0.04    +0.066 A 
DOCKED: ATOM     21  C   UNL d   1      -7.451  -5.124 -12.908 -0.23 -0.02    -0.025 A 
DOCKED: ATOM     22  C   UNL d   1      -7.219  -4.391 -14.050 -0.14 -0.02    -0.021 A 
DOCKED: ATOM     23  C   UNL d   1      -7.273  -3.045 -13.675 -0.10 +0.07    +0.066 A 
DOCKED: ATOM     24  C   UNL d   1      -7.472  -6.627 -12.801 -0.32 +0.03    +0.051 C 
DOCKED: ATOM     25  N   UNL d   1      -7.234  -0.155 -12.946 -0.02 -0.19    -0.248 N 
DOCKED: ATOM     26  N   UNL d   1      -7.904   0.499 -10.189 -0.04 -0.11    -0.248 N 
DOCKED: ATOM     27  N   UNL d   1      -8.159  -2.259  -9.604 -0.08 -0.10    -0.248 N 
DOCKED: ATOM     28  N   UNL d   1      -7.492  -2.936 -12.348 -0.07 -0.19    -0.248 N 
DOCKED: ATOM     29 FE   UNL d   1      -7.697  -1.233 -11.274 -0.02 +0.00    +0.000 Fe
DOCKED: ATOM     30  O   UNL d   1      -6.287  -0.576 -11.228 -0.14 +0.00    +0.000 OA
DOCKED: ATOM     31  O   UNL d   1      -6.488  -2.033 -10.664 -0.19 +0.00    +0.000 OA
DOCKED: ENDROOT
DOCKED: BRANCH   6  32
DOCKED: ATOM     32  C   UNL d   1      -6.222   0.351 -16.488 -0.02 +0.04    +0.052 C 
DOCKED: BRANCH  32  33
DOCKED: ATOM     33  C   UNL d   1      -4.836   0.954 -16.699 -0.03 +0.11    +0.115 C 
DOCKED: BRANCH  33  34
DOCKED: ATOM     34  C   UNL d   1      -3.927   0.734 -15.516 -0.08 +0.20    +0.139 C 
DOCKED: ATOM     35  O   UNL d   1      -3.391  -0.352 -15.361 -0.19 -1.42    -0.650 OA
DOCKED: BRANCH  34  36
DOCKED: ATOM     36  O   UNL d   1      -3.712   1.704 -14.604 -0.43 -1.46    -0.776 OA
DOCKED: ATOM     37  H   UNL d   1      -3.717   1.526 -13.657 +0.03 +0.29    +0.167 HD
DOCKED: ENDBRANCH  34  36
DOCKED: ENDBRANCH  33  34
DOCKED: ENDBRANCH  32  33
DOCKED: ENDBRANCH   6  32
DOCKED: BRANCH  22  38
DOCKED: ATOM     38  C   UNL d   1      -6.901  -4.959 -15.409 -0.13 +0.05    +0.052 C 
DOCKED: BRANCH  38  39
DOCKED: ATOM     39  C   UNL d   1      -5.448  -5.412 -15.525 -0.03 +0.14    +0.115 C 
DOCKED: BRANCH  39  40
DOCKED: ATOM     40  C   UNL d   1      -5.278  -6.561 -16.487 -0.14 +0.21    +0.139 C 
DOCKED: ATOM     41  O   UNL d   1      -5.826  -7.628 -16.260 -0.42 -1.07    -0.650 OA
DOCKED: BRANCH  40  42
DOCKED: ATOM     42  O   UNL d   1      -4.570  -6.417 -17.624 +0.05 -1.50    -0.776 OA
DOCKED: ATOM     43  H   UNL d   1      -4.613  -5.607 -18.146 +0.02 +0.22    +0.167 HD
DOCKED: ENDBRANCH  40  42
DOCKED: ENDBRANCH  39  40
DOCKED: ENDBRANCH  38  39
DOCKED: ENDBRANCH  22  38
DOCKED: BRANCH  12  44
DOCKED: ATOM     44  C   UNL d   1      -8.970   2.743  -7.336 -0.27 +0.00    +0.004 C 
DOCKED: ATOM     45  C   UNL d   1     -10.200   3.160  -7.041 -0.17 +0.00    +0.012 C 
DOCKED: ENDBRANCH  12  44
DOCKED: BRANCH  17  46
DOCKED: ATOM     46  C   UNL d   1      -8.501  -5.423  -7.691 -0.49 +0.00    +0.004 C 
DOCKED: ATOM     47  C   UNL d   1      -9.357  -6.404  -8.005 -0.55 +0.00    +0.012 C 
DOCKED: ENDBRANCH  17  46
DOCKED: TORSDOF 10
DOCKED: TER
DOCKED: ENDMDL
________________________________________________________________________________


	BEGINNING GENETIC ALGORITHM DOCKING 83 of 100
Run: 83 Seed: 770391402 1450267805 [ Run 83 of 100 GA/GALS ]
Beginning LAMARCKIAN GENETIC ALGORITHM (LGA), with a maximum of 25000000 energy evaluations.

Final-Value: -10.723


	FINAL GENETIC ALGORITHM DOCKED STATE
	_______________________________________________


Detailed state:  trans 19.633 2.890 -3.675 quatxyzw -0.252694 -0.000282 -0.681551 -0.686756 center 8.287 34.468 -0.670 ntor 10 162.5751 54.7932 -54.9035 118.1186 -128.4513 35.7580 -137.3936 -70.0350 -8.6613 -27.9798
State:	 19.633   2.890  -3.675  -0.348 -0.000 -0.938 -93.252    162.58   54.79  -54.90  118.12 -128.45   35.76 -137.39  -70.04   -8.66  -27.98

DOCKED: MODEL       83
DOCKED: USER    Run = 83
DOCKED: USER    DPF = D:/Protein_go_brrr/autodock/final/AncB/heme_O2/dock.dpf
DOCKED: USER  
DOCKED: USER    Estimated Free Energy of Binding    =   -7.19 kcal/mol  [=(1)+(2)+(3)-(4)]
DOCKED: USER    Estimated Inhibition Constant, Ki   =    5.37 uM (micromolar)  [Temperature = 298.15 K]
DOCKED: USER    
DOCKED: USER    (1) Final Intermolecular Energy     =  -10.17 kcal/mol
DOCKED: USER        vdW + Hbond + desolv Energy     =   -7.31 kcal/mol
DOCKED: USER        Electrostatic Energy            =   -2.87 kcal/mol
DOCKED: USER    (2) Final Total Internal Energy     =   -0.55 kcal/mol
DOCKED: USER    (3) Torsional Free Energy           =   +2.98 kcal/mol
DOCKED: USER    (4) Unbound System's Energy  [=(2)] =   -0.55 kcal/mol
DOCKED: USER    
DOCKED: USER    
DOCKED: USER    NEWDPF move heme_O2_opt.pdbqt
DOCKED: USER    NEWDPF about 8.287000 34.468000 -0.670000
DOCKED: USER    NEWDPF tran0 19.632697 2.889507 -3.675020
DOCKED: USER    NEWDPF quaternion0 -0.252694 -0.000282 -0.681551 -0.686756
DOCKED: USER    NEWDPF axisangle0 -0.347638 -0.000388 -0.937629 -93.252209
DOCKED: USER    NEWDPF quat0 -0.347638 -0.000388 -0.937629 -93.252209
DOCKED: USER    NEWDPF dihe0 162.58 54.79 -54.90 118.12 -128.45 35.76 -137.39 -70.04 -8.66 -27.98 
DOCKED: USER  keepresnum = 1 
DOCKED: USER  
DOCKED: REMARK  10 active torsions:
DOCKED: REMARK  status: ('A' for Active; 'I' for Inactive)
DOCKED: REMARK    1  A    between atoms: C_6  and  C_10 
DOCKED: REMARK    2  A    between atoms: C_10  and  C_11 
DOCKED: REMARK    3  A    between atoms: C_11  and  C_12 
DOCKED: REMARK    4  A    between atoms: C_12  and  O_14 
DOCKED: REMARK    5  A    between atoms: C_17  and  C_20 
DOCKED: REMARK    6  A    between atoms: C_24  and  C_27 
DOCKED: REMARK    7  A    between atoms: C_31  and  C_34 
DOCKED: REMARK    8  A    between atoms: C_34  and  C_35 
DOCKED: REMARK    9  A    between atoms: C_35  and  C_36 
DOCKED: REMARK   10  A    between atoms: C_36  and  O_38 
DOCKED: USER                              x       y       z     vdW  Elec       q    Type
DOCKED: USER                           _______ _______ _______ _____ _____    ______ ____
DOCKED: ROOT
DOCKED: ATOM      1  C   UNL d   1      19.788   4.328  -5.226 -0.13 +0.03    +0.064 A 
DOCKED: ATOM      2  C   UNL d   1      18.594   4.671  -0.642 -0.11 -0.00    +0.064 A 
DOCKED: ATOM      3  C   UNL d   1      19.124  -0.070  -0.054 -0.25 +0.01    +0.064 C 
DOCKED: ATOM      4  C   UNL d   1      20.817  -0.368  -4.649 -0.10 +0.01    +0.064 A 
DOCKED: ATOM      5  C   UNL d   1      19.422   4.808  -4.027 -0.15 +0.03    +0.066 A 
DOCKED: ATOM      6  C   UNL d   1      19.142   6.154  -3.775 -0.16 -0.01    -0.021 A 
DOCKED: ATOM      7  C   UNL d   1      18.838   6.261  -2.438 -0.17 -0.00    -0.025 A 
DOCKED: ATOM      8  C   UNL d   1      18.894   4.970  -1.921 -0.19 +0.01    +0.066 A 
DOCKED: ATOM      9  C   UNL d   1      18.543   7.560  -1.719 -0.18 +0.01    +0.051 C 
DOCKED: ATOM     10  C   UNL d   1      18.612   3.333  -0.048 -0.25 -0.00    +0.066 A 
DOCKED: ATOM     11  C   UNL d   1      18.135   3.056   1.238 -0.22 +0.00    -0.021 A 
DOCKED: ATOM     12  C   UNL d   1      18.263   1.691   1.419 -0.22 -0.00    +0.000 A 
DOCKED: ATOM     13  C   UNL d   1      18.835   1.204   0.211 -0.23 +0.00    +0.070 A 
DOCKED: ATOM     14  C   UNL d   1      17.556   4.047   2.241 -0.28 +0.00    +0.052 C 
DOCKED: ATOM     15  C   UNL d   1      19.735  -0.598  -1.250 -0.19 +0.01    +0.066 A 
DOCKED: ATOM     16  C   UNL d   1      20.163  -1.917  -1.402 -0.15 -0.00    -0.021 A 
DOCKED: ATOM     17  C   UNL d   1      20.650  -2.025  -2.704 -0.13 +0.00    +0.000 A 
DOCKED: ATOM     18  C   UNL d   1      20.479  -0.748  -3.257 -0.14 +0.01    +0.070 A 
DOCKED: ATOM     19  C   UNL d   1      20.120  -2.930  -0.286 -0.12 +0.01    +0.052 C 
DOCKED: ATOM     20  C   UNL d   1      20.706   0.858  -5.198 -0.09 +0.02    +0.066 A 
DOCKED: ATOM     21  C   UNL d   1      21.023   1.152  -6.521 -0.07 -0.01    -0.025 A 
DOCKED: ATOM     22  C   UNL d   1      20.711   2.479  -6.711 -0.08 -0.01    -0.021 A 
DOCKED: ATOM     23  C   UNL d   1      20.229   2.952  -5.486 -0.09 +0.03    +0.066 A 
DOCKED: ATOM     24  C   UNL d   1      21.599   0.214  -7.551 -0.03 +0.01    +0.051 C 
DOCKED: ATOM     25  N   UNL d   1      19.317   4.085  -2.885 -0.09 -0.06    -0.248 N 
DOCKED: ATOM     26  N   UNL d   1      19.048   2.210  -0.674 -0.15 -0.02    -0.248 N 
DOCKED: ATOM     27  N   UNL d   1      19.993   0.123  -2.337 -0.06 -0.05    -0.248 N 
DOCKED: ATOM     28  N   UNL d   1      20.271   1.975  -4.557 -0.03 -0.08    -0.248 N 
DOCKED: ATOM     29 FE   UNL d   1      19.665   2.089  -2.629 -0.05 +0.00    +0.000 Fe
DOCKED: ATOM     30  O   UNL d   1      20.694   3.004  -1.904 -0.12 +0.00    +0.000 OA
DOCKED: ATOM     31  O   UNL d   1      21.186   1.692  -2.623 -0.10 +0.00    +0.000 OA
DOCKED: ENDROOT
DOCKED: BRANCH   6  32
DOCKED: ATOM     32  C   UNL d   1      19.287   7.319  -4.720 -0.17 +0.02    +0.052 C 
DOCKED: BRANCH  32  33
DOCKED: ATOM     33  C   UNL d   1      18.181   7.372  -5.770 -0.23 +0.08    +0.115 C 
DOCKED: BRANCH  33  34
DOCKED: ATOM     34  C   UNL d   1      16.829   7.026  -5.199 -0.39 +0.14    +0.139 C 
DOCKED: ATOM     35  O   UNL d   1      16.195   7.874  -4.591 -0.14 -0.38    -0.650 OA
DOCKED: BRANCH  34  36
DOCKED: ATOM     36  O   UNL d   1      16.310   5.786  -5.319 -0.30 -1.35    -0.776 OA
DOCKED: ATOM     37  H   UNL d   1      15.580   5.482  -4.768 -0.44 +0.13    +0.167 HD
DOCKED: ENDBRANCH  34  36
DOCKED: ENDBRANCH  33  34
DOCKED: ENDBRANCH  32  33
DOCKED: ENDBRANCH   6  32
DOCKED: BRANCH  22  38
DOCKED: ATOM     38  C   UNL d   1      20.926   3.259  -7.982 -0.05 +0.02    +0.052 C 
DOCKED: BRANCH  38  39
DOCKED: ATOM     39  C   UNL d   1      19.916   2.892  -9.068 -0.08 +0.06    +0.115 C 
DOCKED: BRANCH  39  40
DOCKED: ATOM     40  C   UNL d   1      18.913   3.991  -9.317 -0.10 +0.14    +0.139 C 
DOCKED: ATOM     41  O   UNL d   1      18.039   3.835 -10.155 -0.01 -0.65    -0.650 OA
DOCKED: BRANCH  40  42
DOCKED: ATOM     42  O   UNL d   1      18.931   5.126  -8.592 -0.39 -1.16    -0.776 OA
DOCKED: ATOM     43  H   UNL d   1      19.714   5.689  -8.555 +0.04 +0.14    +0.167 HD
DOCKED: ENDBRANCH  40  42
DOCKED: ENDBRANCH  39  40
DOCKED: ENDBRANCH  38  39
DOCKED: ENDBRANCH  22  38
DOCKED: BRANCH  12  44
DOCKED: ATOM     44  C   UNL d   1      17.837   1.008   2.702 -0.24 -0.00    +0.004 C 
DOCKED: ATOM     45  C   UNL d   1      16.932   0.042   2.854 -0.32 -0.00    +0.012 C 
DOCKED: ENDBRANCH  12  44
DOCKED: BRANCH  17  46
DOCKED: ATOM     46  C   UNL d   1      21.295  -3.179  -3.425 -0.07 +0.00    +0.004 C 
DOCKED: ATOM     47  C   UNL d   1      20.804  -3.898  -4.443 -0.08 +0.00    +0.012 C 
DOCKED: ENDBRANCH  17  46
DOCKED: TORSDOF 10
DOCKED: TER
DOCKED: ENDMDL
________________________________________________________________________________


	BEGINNING GENETIC ALGORITHM DOCKING 84 of 100
Run: 84 Seed: 685067956 27752000 [ Run 84 of 100 GA/GALS ]
Beginning LAMARCKIAN GENETIC ALGORITHM (LGA), with a maximum of 25000000 energy evaluations.

Final-Value: -10.420


	FINAL GENETIC ALGORITHM DOCKED STATE
	_______________________________________________


Detailed state:  trans 19.565 3.759 -1.069 quatxyzw -0.253804 0.655094 -0.507807 0.498565 center 8.287 34.468 -0.670 ntor 10 75.0446 129.6091 59.6938 -132.3050 -164.7761 -114.6130 -64.8854 -121.2183 -162.6058 144.6909
State:	 19.565   3.759  -1.069  -0.293  0.756 -0.586 120.190     75.04  129.61   59.69 -132.31 -164.78 -114.61  -64.89 -121.22 -162.61  144.69

DOCKED: MODEL       84
DOCKED: USER    Run = 84
DOCKED: USER    DPF = D:/Protein_go_brrr/autodock/final/AncB/heme_O2/dock.dpf
DOCKED: USER  
DOCKED: USER    Estimated Free Energy of Binding    =   -6.24 kcal/mol  [=(1)+(2)+(3)-(4)]
DOCKED: USER    Estimated Inhibition Constant, Ki   =   26.72 uM (micromolar)  [Temperature = 298.15 K]
DOCKED: USER    
DOCKED: USER    (1) Final Intermolecular Energy     =   -9.22 kcal/mol
DOCKED: USER        vdW + Hbond + desolv Energy     =   -6.63 kcal/mol
DOCKED: USER        Electrostatic Energy            =   -2.59 kcal/mol
DOCKED: USER    (2) Final Total Internal Energy     =   -1.20 kcal/mol
DOCKED: USER    (3) Torsional Free Energy           =   +2.98 kcal/mol
DOCKED: USER    (4) Unbound System's Energy  [=(2)] =   -1.20 kcal/mol
DOCKED: USER    
DOCKED: USER    
DOCKED: USER    NEWDPF move heme_O2_opt.pdbqt
DOCKED: USER    NEWDPF about 8.287000 34.468000 -0.670000
DOCKED: USER    NEWDPF tran0 19.564647 3.758554 -1.069493
DOCKED: USER    NEWDPF quaternion0 -0.253804 0.655094 -0.507807 0.498565
DOCKED: USER    NEWDPF axisangle0 -0.292789 0.755716 -0.585806 120.189735
DOCKED: USER    NEWDPF quat0 -0.292789 0.755716 -0.585806 120.189735
DOCKED: USER    NEWDPF dihe0 75.04 129.61 59.69 -132.31 -164.78 -114.61 -64.89 -121.22 -162.61 144.69 
DOCKED: USER  keepresnum = 1 
DOCKED: USER  
DOCKED: REMARK  10 active torsions:
DOCKED: REMARK  status: ('A' for Active; 'I' for Inactive)
DOCKED: REMARK    1  A    between atoms: C_6  and  C_10 
DOCKED: REMARK    2  A    between atoms: C_10  and  C_11 
DOCKED: REMARK    3  A    between atoms: C_11  and  C_12 
DOCKED: REMARK    4  A    between atoms: C_12  and  O_14 
DOCKED: REMARK    5  A    between atoms: C_17  and  C_20 
DOCKED: REMARK    6  A    between atoms: C_24  and  C_27 
DOCKED: REMARK    7  A    between atoms: C_31  and  C_34 
DOCKED: REMARK    8  A    between atoms: C_34  and  C_35 
DOCKED: REMARK    9  A    between atoms: C_35  and  C_36 
DOCKED: REMARK   10  A    between atoms: C_36  and  O_38 
DOCKED: USER                              x       y       z     vdW  Elec       q    Type
DOCKED: USER                           _______ _______ _______ _____ _____    ______ ____
DOCKED: ROOT
DOCKED: ATOM      1  C   UNL d   1      20.075   4.382  -3.031 -0.11 +0.02    +0.064 A 
DOCKED: ATOM      2  C   UNL d   1      20.458   0.213  -0.789 -0.11 +0.01    +0.064 A 
DOCKED: ATOM      3  C   UNL d   1      18.614   2.099   3.228 -0.12 +0.00    +0.064 C 
DOCKED: ATOM      4  C   UNL d   1      17.773   6.270   0.786 -0.20 +0.00    +0.064 A 
DOCKED: ATOM      5  C   UNL d   1      20.328   3.094  -2.750 -0.08 +0.01    +0.066 A 
DOCKED: ATOM      6  C   UNL d   1      20.898   2.192  -3.654 -0.08 -0.01    -0.021 A 
DOCKED: ATOM      7  C   UNL d   1      20.969   0.974  -3.020 -0.10 -0.01    -0.025 A 
DOCKED: ATOM      8  C   UNL d   1      20.485   1.176  -1.730 -0.10 +0.01    +0.066 A 
DOCKED: ATOM      9  C   UNL d   1      21.455  -0.308  -3.660 -0.09 +0.01    +0.051 C 
DOCKED: ATOM     10  C   UNL d   1      19.983   0.371   0.586 -0.11 +0.00    +0.066 A 
DOCKED: ATOM     11  C   UNL d   1      20.128  -0.615   1.568 -0.07 -0.00    -0.021 A 
DOCKED: ATOM     12  C   UNL d   1      19.619  -0.083   2.739 -0.07 +0.00    +0.000 A 
DOCKED: ATOM     13  C   UNL d   1      19.171   1.222   2.393 -0.10 +0.00    +0.070 A 
DOCKED: ATOM     14  C   UNL d   1      20.752  -1.997   1.404 -0.05 +0.00    +0.052 C 
DOCKED: ATOM     15  C   UNL d   1      18.116   3.416   2.910 -0.16 +0.00    +0.066 A 
DOCKED: ATOM     16  C   UNL d   1      17.395   4.222   3.791 -0.16 -0.00    -0.021 A 
DOCKED: ATOM     17  C   UNL d   1      17.143   5.416   3.116 -0.20 +0.00    +0.000 A 
DOCKED: ATOM     18  C   UNL d   1      17.739   5.248   1.858 -0.22 +0.00    +0.070 A 
DOCKED: ATOM     19  C   UNL d   1      16.968   3.764   5.163 -0.11 +0.01    +0.052 C 
DOCKED: ATOM     20  C   UNL d   1      18.297   6.126  -0.447 -0.16 +0.00    +0.066 A 
DOCKED: ATOM     21  C   UNL d   1      18.315   7.131  -1.409 -0.19 -0.00    -0.025 A 
DOCKED: ATOM     22  C   UNL d   1      18.992   6.620  -2.494 -0.15 -0.00    -0.021 A 
DOCKED: ATOM     23  C   UNL d   1      19.347   5.310  -2.159 -0.15 +0.01    +0.066 A 
DOCKED: ATOM     24  C   UNL d   1      17.714   8.509  -1.301 -0.06 +0.01    +0.051 C 
DOCKED: ATOM     25  N   UNL d   1      20.030   2.466  -1.586 -0.07 -0.04    -0.248 N 
DOCKED: ATOM     26  N   UNL d   1      19.392   1.488   1.081 -0.08 -0.01    -0.248 N 
DOCKED: ATOM     27  N   UNL d   1      18.258   4.001   1.725 -0.14 -0.00    -0.248 N 
DOCKED: ATOM     28  N   UNL d   1      18.883   4.999  -0.931 -0.12 -0.01    -0.248 N 
DOCKED: ATOM     29 FE   UNL d   1      19.134   3.257   0.070 -0.04 +0.00    +0.000 Fe
DOCKED: ATOM     30  O   UNL d   1      18.264   2.201  -0.671 -0.33 +0.00    +0.000 OA
DOCKED: ATOM     31  O   UNL d   1      17.587   3.496  -0.081 -0.41 -0.00    +0.000 OA
DOCKED: ENDROOT
DOCKED: BRANCH   6  32
DOCKED: ATOM     32  C   UNL d   1      21.237   2.428  -5.103 -0.08 +0.01    +0.052 C 
DOCKED: BRANCH  32  33
DOCKED: ATOM     33  C   UNL d   1      20.017   2.352  -6.016 -0.09 +0.05    +0.115 C 
DOCKED: BRANCH  33  34
DOCKED: ATOM     34  C   UNL d   1      19.676   3.687  -6.631 -0.15 +0.10    +0.139 C 
DOCKED: ATOM     35  O   UNL d   1      20.566   4.386  -7.088 +0.01 -0.36    -0.650 OA
DOCKED: BRANCH  34  36
DOCKED: ATOM     36  O   UNL d   1      18.406   4.142  -6.663 -0.13 -1.33    -0.776 OA
DOCKED: ATOM     37  H   UNL d   1      17.969   4.493  -5.879 +0.07 +0.26    +0.167 HD
DOCKED: ENDBRANCH  34  36
DOCKED: ENDBRANCH  33  34
DOCKED: ENDBRANCH  32  33
DOCKED: ENDBRANCH   6  32
DOCKED: BRANCH  22  38
DOCKED: ATOM     38  C   UNL d   1      19.223   7.334  -3.801 -0.14 +0.02    +0.052 C 
DOCKED: BRANCH  38  39
DOCKED: ATOM     39  C   UNL d   1      18.478   6.680  -4.962 -0.24 +0.07    +0.115 C 
DOCKED: BRANCH  39  40
DOCKED: ATOM     40  C   UNL d   1      16.990   6.607  -4.723 -0.41 +0.12    +0.139 C 
DOCKED: ATOM     41  O   UNL d   1      16.443   7.458  -4.041 -0.10 -0.33    -0.650 OA
DOCKED: BRANCH  40  42
DOCKED: ATOM     42  O   UNL d   1      16.241   5.643  -5.293 -0.24 -1.36    -0.776 OA
DOCKED: ATOM     43  H   UNL d   1      15.602   5.131  -4.782 -0.46 +0.12    +0.167 HD
DOCKED: ENDBRANCH  40  42
DOCKED: ENDBRANCH  39  40
DOCKED: ENDBRANCH  38  39
DOCKED: ENDBRANCH  22  38
DOCKED: BRANCH  12  44
DOCKED: ATOM     44  C   UNL d   1      19.609  -0.861   4.038 -0.04 +0.00    +0.004 C 
DOCKED: ATOM     45  C   UNL d   1      18.566  -1.135   4.821 -0.05 +0.00    +0.012 C 
DOCKED: ENDBRANCH  12  44
DOCKED: BRANCH  17  46
DOCKED: ATOM     46  C   UNL d   1      16.364   6.637   3.526 -0.19 +0.00    +0.004 C 
DOCKED: ATOM     47  C   UNL d   1      15.529   7.375   2.783 -0.23 +0.00    +0.012 C 
DOCKED: ENDBRANCH  17  46
DOCKED: TORSDOF 10
DOCKED: TER
DOCKED: ENDMDL
________________________________________________________________________________


	BEGINNING GENETIC ALGORITHM DOCKING 85 of 100
Run: 85 Seed: 1805129661 1748021096 [ Run 85 of 100 GA/GALS ]
Beginning LAMARCKIAN GENETIC ALGORITHM (LGA), with a maximum of 25000000 energy evaluations.

Final-Value: -12.240


	FINAL GENETIC ALGORITHM DOCKED STATE
	_______________________________________________


Detailed state:  trans 15.472 -0.649 -11.693 quatxyzw 0.001191 0.721916 -0.424169 -0.546732 center 8.287 34.468 -0.670 ntor 10 178.7715 10.1848 -57.6610 -87.2943 86.3673 132.9361 -73.9938 5.1997 -162.2501 168.1051
State:	 15.472  -0.649 -11.693   0.001  0.862 -0.507 -113.714    178.77   10.18  -57.66  -87.29   86.37  132.94  -73.99    5.20 -162.25  168.11

DOCKED: MODEL       85
DOCKED: USER    Run = 85
DOCKED: USER    DPF = D:/Protein_go_brrr/autodock/final/AncB/heme_O2/dock.dpf
DOCKED: USER  
DOCKED: USER    Estimated Free Energy of Binding    =   -7.21 kcal/mol  [=(1)+(2)+(3)-(4)]
DOCKED: USER    Estimated Inhibition Constant, Ki   =    5.21 uM (micromolar)  [Temperature = 298.15 K]
DOCKED: USER    
DOCKED: USER    (1) Final Intermolecular Energy     =  -10.19 kcal/mol
DOCKED: USER        vdW + Hbond + desolv Energy     =   -8.02 kcal/mol
DOCKED: USER        Electrostatic Energy            =   -2.17 kcal/mol
DOCKED: USER    (2) Final Total Internal Energy     =   -2.05 kcal/mol
DOCKED: USER    (3) Torsional Free Energy           =   +2.98 kcal/mol
DOCKED: USER    (4) Unbound System's Energy  [=(2)] =   -2.05 kcal/mol
DOCKED: USER    
DOCKED: USER    
DOCKED: USER    NEWDPF move heme_O2_opt.pdbqt
DOCKED: USER    NEWDPF about 8.287000 34.468000 -0.670000
DOCKED: USER    NEWDPF tran0 15.472079 -0.649440 -11.692685
DOCKED: USER    NEWDPF quaternion0 0.001191 0.721916 -0.424169 -0.546732
DOCKED: USER    NEWDPF axisangle0 0.001422 0.862188 -0.506587 -113.713728
DOCKED: USER    NEWDPF quat0 0.001422 0.862188 -0.506587 -113.713728
DOCKED: USER    NEWDPF dihe0 178.77 10.18 -57.66 -87.29 86.37 132.94 -73.99 5.20 -162.25 168.11 
DOCKED: USER  keepresnum = 1 
DOCKED: USER  
DOCKED: REMARK  10 active torsions:
DOCKED: REMARK  status: ('A' for Active; 'I' for Inactive)
DOCKED: REMARK    1  A    between atoms: C_6  and  C_10 
DOCKED: REMARK    2  A    between atoms: C_10  and  C_11 
DOCKED: REMARK    3  A    between atoms: C_11  and  C_12 
DOCKED: REMARK    4  A    between atoms: C_12  and  O_14 
DOCKED: REMARK    5  A    between atoms: C_17  and  C_20 
DOCKED: REMARK    6  A    between atoms: C_24  and  C_27 
DOCKED: REMARK    7  A    between atoms: C_31  and  C_34 
DOCKED: REMARK    8  A    between atoms: C_34  and  C_35 
DOCKED: REMARK    9  A    between atoms: C_35  and  C_36 
DOCKED: REMARK   10  A    between atoms: C_36  and  O_38 
DOCKED: USER                              x       y       z     vdW  Elec       q    Type
DOCKED: USER                           _______ _______ _______ _____ _____    ______ ____
DOCKED: ROOT
DOCKED: ATOM      1  C   UNL d   1      15.874   1.091 -10.549 -0.30 +0.03    +0.064 A 
DOCKED: ATOM      2  C   UNL d   1      17.054  -3.473  -9.968 -0.19 +0.02    +0.064 A 
DOCKED: ATOM      3  C   UNL d   1      14.684  -4.691 -13.967 -0.14 +0.02    +0.064 C 
DOCKED: ATOM      4  C   UNL d   1      13.866   0.068 -14.834 -0.22 +0.02    +0.064 A 
DOCKED: ATOM      5  C   UNL d   1      16.390  -0.051 -10.065 -0.34 +0.02    +0.066 A 
DOCKED: ATOM      6  C   UNL d   1      17.137  -0.135  -8.887 -0.27 -0.01    -0.021 A 
DOCKED: ATOM      7  C   UNL d   1      17.516  -1.449  -8.741 -0.25 -0.01    -0.025 A 
DOCKED: ATOM      8  C   UNL d   1      16.949  -2.139  -9.808 -0.24 +0.02    +0.066 A 
DOCKED: ATOM      9  C   UNL d   1      18.405  -1.975  -7.635 -0.24 +0.02    +0.051 C 
DOCKED: ATOM     10  C   UNL d   1      16.462  -4.256 -11.054 -0.16 +0.03    +0.066 A 
DOCKED: ATOM     11  C   UNL d   1      16.464  -5.655 -11.083 -0.14 -0.01    -0.021 A 
DOCKED: ATOM     12  C   UNL d   1      15.769  -6.025 -12.220 -0.14 +0.00    +0.000 A 
DOCKED: ATOM     13  C   UNL d   1      15.385  -4.804 -12.839 -0.05 +0.03    +0.070 A 
DOCKED: ATOM     14  C   UNL d   1      17.078  -6.598 -10.056 -0.12 +0.03    +0.052 C 
DOCKED: ATOM     15  C   UNL d   1      14.306  -3.474 -14.645 -0.14 +0.02    +0.066 A 
DOCKED: ATOM     16  C   UNL d   1      13.714  -3.424 -15.907 -0.13 -0.00    -0.021 A 
DOCKED: ATOM     17  C   UNL d   1      13.472  -2.077 -16.176 -0.18 +0.00    +0.000 A 
DOCKED: ATOM     18  C   UNL d   1      13.939  -1.397 -15.041 -0.18 +0.02    +0.070 A 
DOCKED: ATOM     19  C   UNL d   1      13.485  -4.648 -16.758 -0.05 +0.01    +0.052 C 
DOCKED: ATOM     20  C   UNL d   1      14.342   0.756 -13.778 -0.28 +0.02    +0.066 A 
DOCKED: ATOM     21  C   UNL d   1      14.228   2.135 -13.629 -0.30 -0.01    -0.025 A 
DOCKED: ATOM     22  C   UNL d   1      14.771   2.441 -12.401 -0.29 -0.01    -0.021 A 
DOCKED: ATOM     23  C   UNL d   1      15.214   1.234 -11.852 -0.26 +0.03    +0.066 A 
DOCKED: ATOM     24  C   UNL d   1      13.634   3.112 -14.611 -0.27 +0.02    +0.051 C 
DOCKED: ATOM     25  N   UNL d   1      16.310  -1.267 -10.659 -0.19 -0.09    -0.248 N 
DOCKED: ATOM     26  N   UNL d   1      15.815  -3.732 -12.126 -0.00 -0.11    -0.248 N 
DOCKED: ATOM     27  N   UNL d   1      14.509  -2.254 -14.156 -0.09 -0.08    -0.248 N 
DOCKED: ATOM     28  N   UNL d   1      14.992   0.219 -12.711 -0.18 -0.08    -0.248 N 
DOCKED: ATOM     29 FE   UNL d   1      15.400  -1.743 -12.424 -0.06 +0.00    +0.000 Fe
DOCKED: ATOM     30  O   UNL d   1      16.950  -1.875 -12.461 -0.13 +0.00    +0.000 OA
DOCKED: ATOM     31  O   UNL d   1      16.187  -1.281 -13.704 -0.14 +0.00    +0.000 OA
DOCKED: ENDROOT
DOCKED: BRANCH   6  32
DOCKED: ATOM     32  C   UNL d   1      17.596   0.996  -8.003 -0.27 +0.03    +0.052 C 
DOCKED: BRANCH  32  33
DOCKED: ATOM     33  C   UNL d   1      18.812   1.728  -8.561 -0.18 +0.07    +0.115 C 
DOCKED: BRANCH  33  34
DOCKED: ATOM     34  C   UNL d   1      18.451   3.059  -9.173 -0.09 +0.14    +0.139 C 
DOCKED: ATOM     35  O   UNL d   1      17.736   3.095 -10.161 +0.01 -0.57    -0.650 OA
DOCKED: BRANCH  34  36
DOCKED: ATOM     36  O   UNL d   1      18.925   4.217  -8.667 -0.44 -1.04    -0.776 OA
DOCKED: ATOM     37  H   UNL d   1      18.710   5.071  -9.059 +0.04 +0.26    +0.167 HD
DOCKED: ENDBRANCH  34  36
DOCKED: ENDBRANCH  33  34
DOCKED: ENDBRANCH  32  33
DOCKED: ENDBRANCH   6  32
DOCKED: BRANCH  22  38
DOCKED: ATOM     38  C   UNL d   1      14.910   3.826 -11.823 -0.36 +0.03    +0.052 C 
DOCKED: BRANCH  38  39
DOCKED: ATOM     39  C   UNL d   1      16.238   4.482 -12.197 -0.22 +0.06    +0.115 C 
DOCKED: BRANCH  39  40
DOCKED: ATOM     40  C   UNL d   1      16.422   5.827 -11.541 -0.31 +0.11    +0.139 C 
DOCKED: ATOM     41  O   UNL d   1      15.911   6.818 -12.036 -0.18 -0.42    -0.650 OA
DOCKED: BRANCH  40  42
DOCKED: ATOM     42  O   UNL d   1      17.099   5.949 -10.383 -0.05 -1.05    -0.776 OA
DOCKED: ATOM     43  H   UNL d   1      17.639   5.228 -10.035 +0.04 +0.25    +0.167 HD
DOCKED: ENDBRANCH  40  42
DOCKED: ENDBRANCH  39  40
DOCKED: ENDBRANCH  38  39
DOCKED: ENDBRANCH  22  38
DOCKED: BRANCH  12  44
DOCKED: ATOM     44  C   UNL d   1      15.551  -7.477 -12.591 -0.12 +0.00    +0.004 C 
DOCKED: ATOM     45  C   UNL d   1      14.394  -8.127 -12.709 -0.14 +0.01    +0.012 C 
DOCKED: ENDBRANCH  12  44
DOCKED: BRANCH  17  46
DOCKED: ATOM     46  C   UNL d   1      12.910  -1.398 -17.396 -0.01 +0.00    +0.004 C 
DOCKED: ATOM     47  C   UNL d   1      13.577  -0.865 -18.428 -0.08 +0.00    +0.012 C 
DOCKED: ENDBRANCH  17  46
DOCKED: TORSDOF 10
DOCKED: TER
DOCKED: ENDMDL
________________________________________________________________________________


	BEGINNING GENETIC ALGORITHM DOCKING 86 of 100
Run: 86 Seed: 1256792547 2017287337 [ Run 86 of 100 GA/GALS ]
Beginning LAMARCKIAN GENETIC ALGORITHM (LGA), with a maximum of 25000000 energy evaluations.

Final-Value: -12.364


	FINAL GENETIC ALGORITHM DOCKED STATE
	_______________________________________________


Detailed state:  trans -7.386 -1.627 -12.539 quatxyzw 0.479060 0.235537 0.769972 0.349524 center 8.287 34.468 -0.670 ntor 10 61.1268 -74.7175 -91.5077 114.9031 45.4266 145.2250 -135.5755 6.9119 151.8328 -150.9503
State:	 -7.386  -1.627 -12.539   0.511  0.251  0.822 139.084     61.13  -74.72  -91.51  114.90   45.43  145.22 -135.58    6.91  151.83 -150.95

DOCKED: MODEL       86
DOCKED: USER    Run = 86
DOCKED: USER    DPF = D:/Protein_go_brrr/autodock/final/AncB/heme_O2/dock.dpf
DOCKED: USER  
DOCKED: USER    Estimated Free Energy of Binding    =   -9.01 kcal/mol  [=(1)+(2)+(3)-(4)]
DOCKED: USER    Estimated Inhibition Constant, Ki   =  249.38 nM (nanomolar)  [Temperature = 298.15 K]
DOCKED: USER    
DOCKED: USER    (1) Final Intermolecular Energy     =  -11.99 kcal/mol
DOCKED: USER        vdW + Hbond + desolv Energy     =   -7.55 kcal/mol
DOCKED: USER        Electrostatic Energy            =   -4.44 kcal/mol
DOCKED: USER    (2) Final Total Internal Energy     =   -0.37 kcal/mol
DOCKED: USER    (3) Torsional Free Energy           =   +2.98 kcal/mol
DOCKED: USER    (4) Unbound System's Energy  [=(2)] =   -0.37 kcal/mol
DOCKED: USER    
DOCKED: USER    
DOCKED: USER    NEWDPF move heme_O2_opt.pdbqt
DOCKED: USER    NEWDPF about 8.287000 34.468000 -0.670000
DOCKED: USER    NEWDPF tran0 -7.385764 -1.626669 -12.538962
DOCKED: USER    NEWDPF quaternion0 0.479060 0.235537 0.769972 0.349524
DOCKED: USER    NEWDPF axisangle0 0.511310 0.251393 0.821805 139.083610
DOCKED: USER    NEWDPF quat0 0.511310 0.251393 0.821805 139.083610
DOCKED: USER    NEWDPF dihe0 61.13 -74.72 -91.51 114.90 45.43 145.22 -135.58 6.91 151.83 -150.95 
DOCKED: USER  keepresnum = 1 
DOCKED: USER  
DOCKED: REMARK  10 active torsions:
DOCKED: REMARK  status: ('A' for Active; 'I' for Inactive)
DOCKED: REMARK    1  A    between atoms: C_6  and  C_10 
DOCKED: REMARK    2  A    between atoms: C_10  and  C_11 
DOCKED: REMARK    3  A    between atoms: C_11  and  C_12 
DOCKED: REMARK    4  A    between atoms: C_12  and  O_14 
DOCKED: REMARK    5  A    between atoms: C_17  and  C_20 
DOCKED: REMARK    6  A    between atoms: C_24  and  C_27 
DOCKED: REMARK    7  A    between atoms: C_31  and  C_34 
DOCKED: REMARK    8  A    between atoms: C_34  and  C_35 
DOCKED: REMARK    9  A    between atoms: C_35  and  C_36 
DOCKED: REMARK   10  A    between atoms: C_36  and  O_38 
DOCKED: USER                              x       y       z     vdW  Elec       q    Type
DOCKED: USER                           _______ _______ _______ _____ _____    ______ ____
DOCKED: ROOT
DOCKED: ATOM      1  C   UNL d   1      -6.830  -1.988 -14.554 -0.05 +0.08    +0.064 A 
DOCKED: ATOM      2  C   UNL d   1      -7.137   1.989 -11.975 -0.10 +0.04    +0.064 A 
DOCKED: ATOM      3  C   UNL d   1      -8.642  -0.499  -8.148 -0.20 +0.02    +0.064 C 
DOCKED: ATOM      4  C   UNL d   1      -7.872  -4.650 -10.647 -0.28 +0.03    +0.064 A 
DOCKED: ATOM      5  C   UNL d   1      -6.789  -0.704 -14.164 -0.05 +0.07    +0.066 A 
DOCKED: ATOM      6  C   UNL d   1      -6.422   0.356 -14.998 -0.04 -0.02    -0.021 A 
DOCKED: ATOM      7  C   UNL d   1      -6.468   1.503 -14.241 -0.07 -0.02    -0.025 A 
DOCKED: ATOM      8  C   UNL d   1      -6.910   1.118 -12.978 -0.06 +0.05    +0.066 A 
DOCKED: ATOM      9  C   UNL d   1      -6.073   2.879 -14.729 -0.02 +0.07    +0.051 C 
DOCKED: ATOM     10  C   UNL d   1      -7.621   1.647 -10.637 -0.11 +0.03    +0.066 A 
DOCKED: ATOM     11  C   UNL d   1      -7.996   2.604  -9.687 -0.18 -0.01    -0.021 A 
DOCKED: ATOM     12  C   UNL d   1      -8.450   1.907  -8.583 -0.23 +0.00    +0.000 A 
DOCKED: ATOM     13  C   UNL d   1      -8.312   0.533  -8.925 -0.14 +0.02    +0.070 A 
DOCKED: ATOM     14  C   UNL d   1      -7.950   4.121  -9.837 -0.22 +0.02    +0.052 C 
DOCKED: ATOM     15  C   UNL d   1      -8.484  -1.903  -8.443 -0.17 +0.02    +0.066 A 
DOCKED: ATOM     16  C   UNL d   1      -8.695  -2.932  -7.526 -0.29 -0.01    -0.021 A 
DOCKED: ATOM     17  C   UNL d   1      -8.480  -4.125  -8.216 -0.34 +0.00    +0.000 A 
DOCKED: ATOM     18  C   UNL d   1      -8.152  -3.729  -9.520 -0.21 +0.03    +0.070 A 
DOCKED: ATOM     19  C   UNL d   1      -9.024  -2.686  -6.075 -0.44 +0.01    +0.052 C 
DOCKED: ATOM     20  C   UNL d   1      -7.512  -4.305 -11.898 -0.21 +0.04    +0.066 A 
DOCKED: ATOM     21  C   UNL d   1      -7.278  -5.217 -12.923 -0.24 -0.02    -0.025 A 
DOCKED: ATOM     22  C   UNL d   1      -7.006  -4.476 -14.050 -0.15 -0.02    -0.021 A 
DOCKED: ATOM     23  C   UNL d   1      -7.067  -3.133 -13.666 -0.10 +0.07    +0.066 A 
DOCKED: ATOM     24  C   UNL d   1      -7.308  -6.721 -12.830 -0.32 +0.03    +0.051 C 
DOCKED: ATOM     25  N   UNL d   1      -7.044  -0.250 -12.913 -0.03 -0.21    -0.248 N 
DOCKED: ATOM     26  N   UNL d   1      -7.802   0.384 -10.174 -0.04 -0.11    -0.248 N 
DOCKED: ATOM     27  N   UNL d   1      -8.086  -2.377  -9.620 -0.09 -0.10    -0.248 N 
DOCKED: ATOM     28  N   UNL d   1      -7.331  -3.034 -12.347 -0.08 -0.20    -0.248 N 
DOCKED: ATOM     29 FE   UNL d   1      -7.565  -1.339 -11.266 -0.02 +0.00    +0.000 Fe
DOCKED: ATOM     30  O   UNL d   1      -6.155  -0.688 -11.168 -0.15 +0.00    +0.000 OA
DOCKED: ATOM     31  O   UNL d   1      -6.380  -2.149 -10.623 -0.19 +0.00    +0.000 OA
DOCKED: ENDROOT
DOCKED: BRANCH   6  32
DOCKED: ATOM     32  C   UNL d   1      -5.913   0.282 -16.415 -0.03 +0.05    +0.052 C 
DOCKED: BRANCH  32  33
DOCKED: ATOM     33  C   UNL d   1      -4.564   0.972 -16.596 -0.04 +0.12    +0.115 C 
DOCKED: BRANCH  33  34
DOCKED: ATOM     34  C   UNL d   1      -3.611   0.680 -15.464 -0.08 +0.21    +0.139 C 
DOCKED: ATOM     35  O   UNL d   1      -3.383   1.542 -14.630 -0.36 -1.13    -0.650 OA
DOCKED: BRANCH  34  36
DOCKED: ATOM     36  O   UNL d   1      -2.980  -0.508 -15.364 -0.28 -1.81    -0.776 OA
DOCKED: ATOM     37  H   UNL d   1      -2.375  -0.824 -16.045 +0.01 +0.30    +0.167 HD
DOCKED: ENDBRANCH  34  36
DOCKED: ENDBRANCH  33  34
DOCKED: ENDBRANCH  32  33
DOCKED: ENDBRANCH   6  32
DOCKED: BRANCH  22  38
DOCKED: ATOM     38  C   UNL d   1      -6.645  -5.034 -15.403 -0.15 +0.05    +0.052 C 
DOCKED: BRANCH  38  39
DOCKED: ATOM     39  C   UNL d   1      -5.542  -6.087 -15.322 -0.13 +0.13    +0.115 C 
DOCKED: BRANCH  39  40
DOCKED: ATOM     40  C   UNL d   1      -5.083  -6.546 -16.683 -0.08 +0.23    +0.139 C 
DOCKED: ATOM     41  O   UNL d   1      -5.822  -7.228 -17.375 -0.19 -1.45    -0.650 OA
DOCKED: BRANCH  40  42
DOCKED: ATOM     42  O   UNL d   1      -3.885  -6.174 -17.176 +0.05 -1.26    -0.776 OA
DOCKED: ATOM     43  H   UNL d   1      -3.720  -5.271 -17.472 +0.03 +0.21    +0.167 HD
DOCKED: ENDBRANCH  40  42
DOCKED: ENDBRANCH  39  40
DOCKED: ENDBRANCH  38  39
DOCKED: ENDBRANCH  22  38
DOCKED: BRANCH  12  44
DOCKED: ATOM     44  C   UNL d   1      -8.955   2.609  -7.340 -0.28 +0.00    +0.004 C 
DOCKED: ATOM     45  C   UNL d   1     -10.177   3.088  -7.110 -0.18 +0.00    +0.012 C 
DOCKED: ENDBRANCH  12  44
DOCKED: BRANCH  17  46
DOCKED: ATOM     46  C   UNL d   1      -8.501  -5.555  -7.746 -0.49 +0.00    +0.004 C 
DOCKED: ATOM     47  C   UNL d   1      -9.417  -6.498  -8.003 -0.54 +0.00    +0.012 C 
DOCKED: ENDBRANCH  17  46
DOCKED: TORSDOF 10
DOCKED: TER
DOCKED: ENDMDL
________________________________________________________________________________


	BEGINNING GENETIC ALGORITHM DOCKING 87 of 100
Run: 87 Seed: 1248803891 2107003794 [ Run 87 of 100 GA/GALS ]
Beginning LAMARCKIAN GENETIC ALGORITHM (LGA), with a maximum of 25000000 energy evaluations.

Final-Value: -20.086


	FINAL GENETIC ALGORITHM DOCKED STATE
	_______________________________________________


Detailed state:  trans 0.210 -1.532 -8.664 quatxyzw -0.275456 -0.307449 -0.216656 -0.884680 center 8.287 34.468 -0.670 ntor 10 57.2611 100.1089 25.5418 16.2228 -159.6260 -71.7746 13.8476 -38.5487 -150.4708 38.3985
State:	  0.210  -1.532  -8.664  -0.591 -0.659 -0.465 -55.576     57.26  100.11   25.54   16.22 -159.63  -71.77   13.85  -38.55 -150.47   38.40

DOCKED: MODEL       87
DOCKED: USER    Run = 87
DOCKED: USER    DPF = D:/Protein_go_brrr/autodock/final/AncB/heme_O2/dock.dpf
DOCKED: USER  
DOCKED: USER    Estimated Free Energy of Binding    =  -15.56 kcal/mol  [=(1)+(2)+(3)-(4)]
DOCKED: USER    Estimated Inhibition Constant, Ki   =    3.90 pM (picomolar)  [Temperature = 298.15 K]
DOCKED: USER    
DOCKED: USER    (1) Final Intermolecular Energy     =  -18.55 kcal/mol
DOCKED: USER        vdW + Hbond + desolv Energy     =  -15.36 kcal/mol
DOCKED: USER        Electrostatic Energy            =   -3.19 kcal/mol
DOCKED: USER    (2) Final Total Internal Energy     =   -1.54 kcal/mol
DOCKED: USER    (3) Torsional Free Energy           =   +2.98 kcal/mol
DOCKED: USER    (4) Unbound System's Energy  [=(2)] =   -1.54 kcal/mol
DOCKED: USER    
DOCKED: USER    
DOCKED: USER    NEWDPF move heme_O2_opt.pdbqt
DOCKED: USER    NEWDPF about 8.287000 34.468000 -0.670000
DOCKED: USER    NEWDPF tran0 0.209506 -1.532296 -8.664007
DOCKED: USER    NEWDPF quaternion0 -0.275456 -0.307449 -0.216656 -0.884680
DOCKED: USER    NEWDPF axisangle0 -0.590856 -0.659481 -0.464730 -55.575588
DOCKED: USER    NEWDPF quat0 -0.590856 -0.659481 -0.464730 -55.575588
DOCKED: USER    NEWDPF dihe0 57.26 100.11 25.54 16.22 -159.63 -71.77 13.85 -38.55 -150.47 38.40 
DOCKED: USER  keepresnum = 1 
DOCKED: USER  
DOCKED: REMARK  10 active torsions:
DOCKED: REMARK  status: ('A' for Active; 'I' for Inactive)
DOCKED: REMARK    1  A    between atoms: C_6  and  C_10 
DOCKED: REMARK    2  A    between atoms: C_10  and  C_11 
DOCKED: REMARK    3  A    between atoms: C_11  and  C_12 
DOCKED: REMARK    4  A    between atoms: C_12  and  O_14 
DOCKED: REMARK    5  A    between atoms: C_17  and  C_20 
DOCKED: REMARK    6  A    between atoms: C_24  and  C_27 
DOCKED: REMARK    7  A    between atoms: C_31  and  C_34 
DOCKED: REMARK    8  A    between atoms: C_34  and  C_35 
DOCKED: REMARK    9  A    between atoms: C_35  and  C_36 
DOCKED: REMARK   10  A    between atoms: C_36  and  O_38 
DOCKED: USER                              x       y       z     vdW  Elec       q    Type
DOCKED: USER                           _______ _______ _______ _____ _____    ______ ____
DOCKED: ROOT
DOCKED: ATOM      1  C   UNL d   1      -0.459  -1.175 -10.645 -0.21 +0.04    +0.064 A 
DOCKED: ATOM      2  C   UNL d   1      -2.698  -1.183  -6.456 -0.39 +0.02    +0.064 A 
DOCKED: ATOM      3  C   UNL d   1       1.370  -2.351  -4.180 -0.38 +0.01    +0.064 C 
DOCKED: ATOM      4  C   UNL d   1       3.785  -1.877  -8.424 -0.41 +0.02    +0.064 A 
DOCKED: ATOM      5  C   UNL d   1      -1.399  -1.080  -9.691 -0.30 +0.04    +0.066 A 
DOCKED: ATOM      6  C   UNL d   1      -2.741  -0.779  -9.942 -0.32 -0.02    -0.021 A 
DOCKED: ATOM      7  C   UNL d   1      -3.382  -0.738  -8.726 -0.33 -0.01    -0.025 A 
DOCKED: ATOM      8  C   UNL d   1      -2.423  -1.063  -7.769 -0.36 +0.03    +0.066 A 
DOCKED: ATOM      9  C   UNL d   1      -4.836  -0.372  -8.525 -0.36 +0.02    +0.051 C 
DOCKED: ATOM     10  C   UNL d   1      -1.740  -1.542  -5.409 -0.41 +0.02    +0.066 A 
DOCKED: ATOM     11  C   UNL d   1      -2.111  -1.813  -4.087 -0.49 -0.00    -0.021 A 
DOCKED: ATOM     12  C   UNL d   1      -0.954  -2.169  -3.419 -0.43 +0.00    +0.000 A 
DOCKED: ATOM     13  C   UNL d   1       0.082  -2.082  -4.390 -0.39 +0.01    +0.070 A 
DOCKED: ATOM     14  C   UNL d   1      -3.514  -1.760  -3.493 -0.60 +0.01    +0.052 C 
DOCKED: ATOM     15  C   UNL d   1       2.454  -2.241  -5.126 -0.38 +0.01    +0.066 A 
DOCKED: ATOM     16  C   UNL d   1       3.804  -2.378  -4.802 -0.51 -0.00    -0.021 A 
DOCKED: ATOM     17  C   UNL d   1       4.512  -2.246  -5.996 -0.51 +0.00    +0.000 A 
DOCKED: ATOM     18  C   UNL d   1       3.528  -2.038  -6.973 -0.42 +0.02    +0.070 A 
DOCKED: ATOM     19  C   UNL d   1       4.295  -2.565  -3.389 -0.44 +0.00    +0.052 C 
DOCKED: ATOM     20  C   UNL d   1       2.869  -1.633  -9.381 -0.42 +0.02    +0.066 A 
DOCKED: ATOM     21  C   UNL d   1       3.170  -1.509 -10.735 -0.46 -0.01    -0.025 A 
DOCKED: ATOM     22  C   UNL d   1       1.969  -1.336 -11.386 -0.27 -0.01    -0.021 A 
DOCKED: ATOM     23  C   UNL d   1       0.978  -1.342 -10.400 -0.17 +0.03    +0.066 A 
DOCKED: ATOM     24  C   UNL d   1       4.534  -1.551 -11.374 -0.42 +0.01    +0.051 C 
DOCKED: ATOM     25  N   UNL d   1      -1.189  -1.209  -8.358 -0.22 -0.12    -0.248 N 
DOCKED: ATOM     26  N   UNL d   1      -0.405  -1.696  -5.597 -0.25 -0.06    -0.248 N 
DOCKED: ATOM     27  N   UNL d   1       2.292  -1.963  -6.417 -0.24 -0.07    -0.248 N 
DOCKED: ATOM     28  N   UNL d   1       1.534  -1.478  -9.178 -0.04 -0.14    -0.248 N 
DOCKED: ATOM     29 FE   UNL d   1       0.574  -1.586  -7.400 -0.09 +0.00    +0.000 Fe
DOCKED: ATOM     30  O   UNL d   1       0.003  -0.165  -7.127 -0.26 +0.00    +0.000 OA
DOCKED: ATOM     31  O   UNL d   1       1.553  -0.357  -7.334 -1.04 +0.00    +0.000 OA
DOCKED: ENDROOT
DOCKED: BRANCH   6  32
DOCKED: ATOM     32  C   UNL d   1      -3.373  -0.408 -11.259 -0.26 +0.06    +0.052 C 
DOCKED: BRANCH  32  33
DOCKED: ATOM     33  C   UNL d   1      -2.887   0.937 -11.791 -0.23 +0.13    +0.115 C 
DOCKED: BRANCH  33  34
DOCKED: ATOM     34  C   UNL d   1      -3.718   1.431 -12.949 -0.12 +0.21    +0.139 C 
DOCKED: ATOM     35  O   UNL d   1      -4.935   1.445 -12.856 -0.05 -0.84    -0.650 OA
DOCKED: BRANCH  34  36
DOCKED: ATOM     36  O   UNL d   1      -3.146   1.835 -14.103 -0.32 -1.54    -0.776 OA
DOCKED: ATOM     37  H   UNL d   1      -2.574   1.256 -14.619 +0.03 +0.26    +0.167 HD
DOCKED: ENDBRANCH  34  36
DOCKED: ENDBRANCH  33  34
DOCKED: ENDBRANCH  32  33
DOCKED: ENDBRANCH   6  32
DOCKED: BRANCH  22  38
DOCKED: ATOM     38  C   UNL d   1       1.797  -1.112 -12.867 -0.29 +0.03    +0.052 C 
DOCKED: BRANCH  38  39
DOCKED: ATOM     39  C   UNL d   1       0.592  -1.860 -13.432 +0.13 +0.09    +0.115 C 
DOCKED: BRANCH  39  40
DOCKED: ATOM     40  C   UNL d   1      -0.163  -1.047 -14.455 -0.17 +0.15    +0.139 C 
DOCKED: ATOM     41  O   UNL d   1       0.319  -0.868 -15.562 +0.01 -0.51    -0.650 OA
DOCKED: BRANCH  40  42
DOCKED: ATOM     42  O   UNL d   1      -1.387  -0.555 -14.186 -0.17 -1.34    -0.776 OA
DOCKED: ATOM     43  H   UNL d   1      -1.520   0.375 -13.965 +0.04 +0.23    +0.167 HD
DOCKED: ENDBRANCH  40  42
DOCKED: ENDBRANCH  39  40
DOCKED: ENDBRANCH  38  39
DOCKED: ENDBRANCH  22  38
DOCKED: BRANCH  12  44
DOCKED: ATOM     44  C   UNL d   1      -0.956  -2.545  -1.952 -0.50 +0.00    +0.004 C 
DOCKED: ATOM     45  C   UNL d   1       0.070  -2.530  -1.102 -0.61 +0.00    +0.012 C 
DOCKED: ENDBRANCH  12  44
DOCKED: BRANCH  17  46
DOCKED: ATOM     46  C   UNL d   1       5.991  -2.241  -6.273 -0.66 +0.00    +0.004 C 
DOCKED: ATOM     47  C   UNL d   1       6.992  -2.541  -5.434 -0.65 +0.00    +0.012 C 
DOCKED: ENDBRANCH  17  46
DOCKED: TORSDOF 10
DOCKED: TER
DOCKED: ENDMDL
________________________________________________________________________________


	BEGINNING GENETIC ALGORITHM DOCKING 88 of 100
Run: 88 Seed: 349329085 2131216337 [ Run 88 of 100 GA/GALS ]
Beginning LAMARCKIAN GENETIC ALGORITHM (LGA), with a maximum of 25000000 energy evaluations.

Final-Value: -20.157


	FINAL GENETIC ALGORITHM DOCKED STATE
	_______________________________________________


Detailed state:  trans 0.258 -1.543 -8.580 quatxyzw 0.285173 0.284333 0.209456 0.891044 center 8.287 34.468 -0.670 ntor 10 11.2058 -179.9175 18.3111 14.4302 162.4927 18.3133 18.9251 67.7864 -122.5717 166.7179
State:	  0.258  -1.543  -8.580   0.628  0.626  0.461 53.991     11.21 -179.92   18.31   14.43  162.49   18.31   18.93   67.79 -122.57  166.72

DOCKED: MODEL       88
DOCKED: USER    Run = 88
DOCKED: USER    DPF = D:/Protein_go_brrr/autodock/final/AncB/heme_O2/dock.dpf
DOCKED: USER  
DOCKED: USER    Estimated Free Energy of Binding    =  -15.17 kcal/mol  [=(1)+(2)+(3)-(4)]
DOCKED: USER    Estimated Inhibition Constant, Ki   =    7.54 pM (picomolar)  [Temperature = 298.15 K]
DOCKED: USER    
DOCKED: USER    (1) Final Intermolecular Energy     =  -18.16 kcal/mol
DOCKED: USER        vdW + Hbond + desolv Energy     =  -15.31 kcal/mol
DOCKED: USER        Electrostatic Energy            =   -2.84 kcal/mol
DOCKED: USER    (2) Final Total Internal Energy     =   -2.00 kcal/mol
DOCKED: USER    (3) Torsional Free Energy           =   +2.98 kcal/mol
DOCKED: USER    (4) Unbound System's Energy  [=(2)] =   -2.00 kcal/mol
DOCKED: USER    
DOCKED: USER    
DOCKED: USER    NEWDPF move heme_O2_opt.pdbqt
DOCKED: USER    NEWDPF about 8.287000 34.468000 -0.670000
DOCKED: USER    NEWDPF tran0 0.258404 -1.542642 -8.579854
DOCKED: USER    NEWDPF quaternion0 0.285173 0.284333 0.209456 0.891044
DOCKED: USER    NEWDPF axisangle0 0.628249 0.626398 0.461442 53.990624
DOCKED: USER    NEWDPF quat0 0.628249 0.626398 0.461442 53.990624
DOCKED: USER    NEWDPF dihe0 11.21 -179.92 18.31 14.43 162.49 18.31 18.93 67.79 -122.57 166.72 
DOCKED: USER  keepresnum = 1 
DOCKED: USER  
DOCKED: REMARK  10 active torsions:
DOCKED: REMARK  status: ('A' for Active; 'I' for Inactive)
DOCKED: REMARK    1  A    between atoms: C_6  and  C_10 
DOCKED: REMARK    2  A    between atoms: C_10  and  C_11 
DOCKED: REMARK    3  A    between atoms: C_11  and  C_12 
DOCKED: REMARK    4  A    between atoms: C_12  and  O_14 
DOCKED: REMARK    5  A    between atoms: C_17  and  C_20 
DOCKED: REMARK    6  A    between atoms: C_24  and  C_27 
DOCKED: REMARK    7  A    between atoms: C_31  and  C_34 
DOCKED: REMARK    8  A    between atoms: C_34  and  C_35 
DOCKED: REMARK    9  A    between atoms: C_35  and  C_36 
DOCKED: REMARK   10  A    between atoms: C_36  and  O_38 
DOCKED: USER                              x       y       z     vdW  Elec       q    Type
DOCKED: USER                           _______ _______ _______ _____ _____    ______ ____
DOCKED: ROOT
DOCKED: ATOM      1  C   UNL d   1      -0.513  -1.198 -10.526 -0.26 +0.04    +0.064 A 
DOCKED: ATOM      2  C   UNL d   1      -2.527  -1.165  -6.224 -0.41 +0.02    +0.064 A 
DOCKED: ATOM      3  C   UNL d   1       1.653  -2.329  -4.157 -0.33 +0.01    +0.064 C 
DOCKED: ATOM      4  C   UNL d   1       3.841  -1.898  -8.527 -0.41 +0.02    +0.064 A 
DOCKED: ATOM      5  C   UNL d   1      -1.401  -1.093  -9.524 -0.30 +0.04    +0.066 A 
DOCKED: ATOM      6  C   UNL d   1      -2.754  -0.789  -9.706 -0.32 -0.01    -0.021 A 
DOCKED: ATOM      7  C   UNL d   1      -3.329  -0.737  -8.458 -0.35 -0.01    -0.025 A 
DOCKED: ATOM      8  C   UNL d   1      -2.322  -1.057  -7.551 -0.37 +0.02    +0.066 A 
DOCKED: ATOM      9  C   UNL d   1      -4.769  -0.364  -8.183 -0.38 +0.02    +0.051 C 
DOCKED: ATOM     10  C   UNL d   1      -1.516  -1.520  -5.227 -0.40 +0.02    +0.066 A 
DOCKED: ATOM     11  C   UNL d   1      -1.817  -1.779  -3.885 -0.46 -0.00    -0.021 A 
DOCKED: ATOM     12  C   UNL d   1      -0.627  -2.134  -3.276 -0.43 +0.00    +0.000 A 
DOCKED: ATOM     13  C   UNL d   1       0.356  -2.058  -4.301 -0.38 +0.01    +0.070 A 
DOCKED: ATOM     14  C   UNL d   1      -3.186  -1.716  -3.218 -0.64 +0.01    +0.052 C 
DOCKED: ATOM     15  C   UNL d   1       2.685  -2.231  -5.160 -0.39 +0.01    +0.066 A 
DOCKED: ATOM     16  C   UNL d   1       4.050  -2.369  -4.907 -0.52 -0.00    -0.021 A 
DOCKED: ATOM     17  C   UNL d   1       4.694  -2.249  -6.138 -0.52 +0.00    +0.000 A 
DOCKED: ATOM     18  C   UNL d   1       3.660  -2.046  -7.063 -0.42 +0.02    +0.070 A 
DOCKED: ATOM     19  C   UNL d   1       4.615  -2.547  -3.520 -0.28 +0.00    +0.052 C 
DOCKED: ATOM     20  C   UNL d   1       2.876  -1.658  -9.436 -0.42 +0.02    +0.066 A 
DOCKED: ATOM     21  C   UNL d   1       3.105  -1.546 -10.805 -0.46 -0.01    -0.025 A 
DOCKED: ATOM     22  C   UNL d   1       1.872  -1.374 -11.393 -0.21 -0.01    -0.021 A 
DOCKED: ATOM     23  C   UNL d   1       0.935  -1.369 -10.356 -0.16 +0.03    +0.066 A 
DOCKED: ATOM     24  C   UNL d   1       4.433  -1.598 -11.515 -0.46 +0.01    +0.051 C 
DOCKED: ATOM     25  N   UNL d   1      -1.121  -1.212  -8.203 -0.22 -0.12    -0.248 N 
DOCKED: ATOM     26  N   UNL d   1      -0.193  -1.679  -5.484 -0.25 -0.06    -0.248 N 
DOCKED: ATOM     27  N   UNL d   1       2.455  -1.962  -6.442 -0.24 -0.07    -0.248 N 
DOCKED: ATOM     28  N   UNL d   1       1.554  -1.497  -9.164 -0.03 -0.14    -0.248 N 
DOCKED: ATOM     29 FE   UNL d   1       0.690  -1.588  -7.336 -0.09 +0.00    +0.000 Fe
DOCKED: ATOM     30  O   UNL d   1       0.138  -0.162  -7.045 -0.21 +0.00    +0.000 OA
DOCKED: ATOM     31  O   UNL d   1       1.674  -0.361  -7.332 -1.03 +0.00    +0.000 OA
DOCKED: ENDROOT
DOCKED: BRANCH   6  32
DOCKED: ATOM     32  C   UNL d   1      -3.454  -0.427 -10.990 -0.27 +0.06    +0.052 C 
DOCKED: BRANCH  32  33
DOCKED: ATOM     33  C   UNL d   1      -2.608   0.465 -11.894 -0.25 +0.14    +0.115 C 
DOCKED: BRANCH  33  34
DOCKED: ATOM     34  C   UNL d   1      -3.429   1.147 -12.961 -0.16 +0.21    +0.139 C 
DOCKED: ATOM     35  O   UNL d   1      -4.647   1.120 -12.893 -0.04 -0.88    -0.650 OA
DOCKED: BRANCH  34  36
DOCKED: ATOM     36  O   UNL d   1      -2.846   1.766 -14.008 -0.23 -1.43    -0.776 OA
DOCKED: ATOM     37  H   UNL d   1      -1.909   1.661 -14.206 +0.04 +0.24    +0.167 HD
DOCKED: ENDBRANCH  34  36
DOCKED: ENDBRANCH  33  34
DOCKED: ENDBRANCH  32  33
DOCKED: ENDBRANCH   6  32
DOCKED: BRANCH  22  38
DOCKED: ATOM     38  C   UNL d   1       1.623  -1.162 -12.864 -0.28 +0.03    +0.052 C 
DOCKED: BRANCH  38  39
DOCKED: ATOM     39  C   UNL d   1       1.606   0.317 -13.244 -0.12 +0.06    +0.115 C 
DOCKED: BRANCH  39  40
DOCKED: ATOM     40  C   UNL d   1       0.243   0.781 -13.694 -0.11 +0.11    +0.139 C 
DOCKED: ATOM     41  O   UNL d   1      -0.010   1.974 -13.729 -0.06 -0.60    -0.650 OA
DOCKED: BRANCH  40  42
DOCKED: ATOM     42  O   UNL d   1      -0.689  -0.098 -14.111 +0.00 -0.89    -0.776 OA
DOCKED: ATOM     43  H   UNL d   1      -1.548   0.194 -14.438 +0.04 +0.24    +0.167 HD
DOCKED: ENDBRANCH  40  42
DOCKED: ENDBRANCH  39  40
DOCKED: ENDBRANCH  38  39
DOCKED: ENDBRANCH  22  38
DOCKED: BRANCH  12  44
DOCKED: ATOM     44  C   UNL d   1      -0.553  -2.497  -1.808 -0.54 +0.00    +0.004 C 
DOCKED: ATOM     45  C   UNL d   1       0.534  -2.607  -1.046 -0.63 +0.00    +0.012 C 
DOCKED: ENDBRANCH  12  44
DOCKED: BRANCH  17  46
DOCKED: ATOM     46  C   UNL d   1       6.157  -2.252  -6.492 -0.67 +0.00    +0.004 C 
DOCKED: ATOM     47  C   UNL d   1       7.201  -2.517  -5.697 -0.65 +0.00    +0.012 C 
DOCKED: ENDBRANCH  17  46
DOCKED: TORSDOF 10
DOCKED: TER
DOCKED: ENDMDL
________________________________________________________________________________


	BEGINNING GENETIC ALGORITHM DOCKING 89 of 100
Run: 89 Seed: 555456075 1640648525 [ Run 89 of 100 GA/GALS ]
Beginning LAMARCKIAN GENETIC ALGORITHM (LGA), with a maximum of 25000000 energy evaluations.

Final-Value: -12.624


	FINAL GENETIC ALGORITHM DOCKED STATE
	_______________________________________________


Detailed state:  trans -7.293 -1.634 -11.981 quatxyzw 0.002650 -0.616588 0.529361 -0.582743 center 8.287 34.468 -0.670 ntor 10 -4.7723 98.3488 -18.6927 97.8078 -162.6509 -15.7968 36.0874 150.3070 147.5931 7.1156
State:	 -7.293  -1.634 -11.981   0.003 -0.759  0.651 -108.713     -4.77   98.35  -18.69   97.81 -162.65  -15.80   36.09  150.31  147.59    7.12

DOCKED: MODEL       89
DOCKED: USER    Run = 89
DOCKED: USER    DPF = D:/Protein_go_brrr/autodock/final/AncB/heme_O2/dock.dpf
DOCKED: USER  
DOCKED: USER    Estimated Free Energy of Binding    =   -9.05 kcal/mol  [=(1)+(2)+(3)-(4)]
DOCKED: USER    Estimated Inhibition Constant, Ki   =  233.64 nM (nanomolar)  [Temperature = 298.15 K]
DOCKED: USER    
DOCKED: USER    (1) Final Intermolecular Energy     =  -12.03 kcal/mol
DOCKED: USER        vdW + Hbond + desolv Energy     =   -8.03 kcal/mol
DOCKED: USER        Electrostatic Energy            =   -4.00 kcal/mol
DOCKED: USER    (2) Final Total Internal Energy     =   -0.59 kcal/mol
DOCKED: USER    (3) Torsional Free Energy           =   +2.98 kcal/mol
DOCKED: USER    (4) Unbound System's Energy  [=(2)] =   -0.59 kcal/mol
DOCKED: USER    
DOCKED: USER    
DOCKED: USER    NEWDPF move heme_O2_opt.pdbqt
DOCKED: USER    NEWDPF about 8.287000 34.468000 -0.670000
DOCKED: USER    NEWDPF tran0 -7.292554 -1.634252 -11.981041
DOCKED: USER    NEWDPF quaternion0 0.002650 -0.616588 0.529361 -0.582743
DOCKED: USER    NEWDPF axisangle0 0.003261 -0.758731 0.651396 -108.712657
DOCKED: USER    NEWDPF quat0 0.003261 -0.758731 0.651396 -108.712657
DOCKED: USER    NEWDPF dihe0 -4.77 98.35 -18.69 97.81 -162.65 -15.80 36.09 150.31 147.59 7.12 
DOCKED: USER  keepresnum = 1 
DOCKED: USER  
DOCKED: REMARK  10 active torsions:
DOCKED: REMARK  status: ('A' for Active; 'I' for Inactive)
DOCKED: REMARK    1  A    between atoms: C_6  and  C_10 
DOCKED: REMARK    2  A    between atoms: C_10  and  C_11 
DOCKED: REMARK    3  A    between atoms: C_11  and  C_12 
DOCKED: REMARK    4  A    between atoms: C_12  and  O_14 
DOCKED: REMARK    5  A    between atoms: C_17  and  C_20 
DOCKED: REMARK    6  A    between atoms: C_24  and  C_27 
DOCKED: REMARK    7  A    between atoms: C_31  and  C_34 
DOCKED: REMARK    8  A    between atoms: C_34  and  C_35 
DOCKED: REMARK    9  A    between atoms: C_35  and  C_36 
DOCKED: REMARK   10  A    between atoms: C_36  and  O_38 
DOCKED: USER                              x       y       z     vdW  Elec       q    Type
DOCKED: USER                           _______ _______ _______ _____ _____    ______ ____
DOCKED: ROOT
DOCKED: ATOM      1  C   UNL d   1      -6.493  -1.993 -13.913 -0.05 +0.09    +0.064 A 
DOCKED: ATOM      2  C   UNL d   1      -7.832  -4.901 -10.405 -0.30 +0.03    +0.064 A 
DOCKED: ATOM      3  C   UNL d   1      -8.999  -1.160  -7.624 -0.23 +0.02    +0.064 C 
DOCKED: ATOM      4  C   UNL d   1      -8.075   1.832 -11.400 -0.06 +0.03    +0.064 A 
DOCKED: ATOM      5  C   UNL d   1      -6.764  -3.089 -13.187 -0.12 +0.08    +0.066 A 
DOCKED: ATOM      6  C   UNL d   1      -6.540  -4.396 -13.629 -0.15 -0.02    -0.021 A 
DOCKED: ATOM      7  C   UNL d   1      -6.968  -5.240 -12.631 -0.28 -0.02    -0.025 A 
DOCKED: ATOM      8  C   UNL d   1      -7.396  -4.425 -11.587 -0.24 +0.04    +0.066 A 
DOCKED: ATOM      9  C   UNL d   1      -6.979  -6.751 -12.720 -0.32 +0.03    +0.051 C 
DOCKED: ATOM     10  C   UNL d   1      -8.273  -4.096  -9.266 -0.24 +0.03    +0.066 A 
DOCKED: ATOM     11  C   UNL d   1      -8.560  -4.635  -8.007 -0.38 -0.01    -0.021 A 
DOCKED: ATOM     12  C   UNL d   1      -8.881  -3.570  -7.186 -0.36 +0.00    +0.000 A 
DOCKED: ATOM     13  C   UNL d   1      -8.782  -2.416  -8.012 -0.20 +0.02    +0.070 A 
DOCKED: ATOM     14  C   UNL d   1      -8.504  -6.102  -7.597 -0.35 +0.02    +0.052 C 
DOCKED: ATOM     15  C   UNL d   1      -8.943   0.031  -8.437 -0.15 +0.02    +0.066 A 
DOCKED: ATOM     16  C   UNL d   1      -9.342   1.298  -8.012 -0.21 -0.00    -0.021 A 
DOCKED: ATOM     17  C   UNL d   1      -9.088   2.167  -9.073 -0.14 +0.00    +0.000 A 
DOCKED: ATOM     18  C   UNL d   1      -8.545   1.355 -10.078 -0.07 +0.03    +0.070 A 
DOCKED: ATOM     19  C   UNL d   1      -9.973   1.553  -6.667 -0.22 +0.00    +0.052 C 
DOCKED: ATOM     20  C   UNL d   1      -7.589   1.074 -12.402 -0.04 +0.04    +0.066 A 
DOCKED: ATOM     21  C   UNL d   1      -7.145   1.582 -13.620 -0.06 -0.02    -0.025 A 
DOCKED: ATOM     22  C   UNL d   1      -6.665   0.510 -14.338 -0.05 -0.02    -0.021 A 
DOCKED: ATOM     23  C   UNL d   1      -6.852  -0.620 -13.536 -0.06 +0.06    +0.066 A 
DOCKED: ATOM     24  C   UNL d   1      -7.180   3.018 -14.076 -0.09 +0.05    +0.051 C 
DOCKED: ATOM     25  N   UNL d   1      -7.332  -3.101 -11.955 -0.09 -0.19    -0.248 N 
DOCKED: ATOM     26  N   UNL d   1      -8.416  -2.746  -9.277 -0.09 -0.09    -0.248 N 
DOCKED: ATOM     27  N   UNL d   1      -8.534   0.050  -9.702 -0.03 -0.09    -0.248 N 
DOCKED: ATOM     28  N   UNL d   1      -7.455  -0.279 -12.379 -0.02 -0.17    -0.248 N 
DOCKED: ATOM     29 FE   UNL d   1      -7.933  -1.501 -10.838 -0.02 +0.00    +0.000 Fe
DOCKED: ATOM     30  O   UNL d   1      -9.105  -2.394 -11.338 -0.06 +0.00    +0.000 OA
DOCKED: ATOM     31  O   UNL d   1      -9.264  -0.827 -11.335 -0.04 +0.00    +0.000 OA
DOCKED: ENDROOT
DOCKED: BRANCH   6  32
DOCKED: ATOM     32  C   UNL d   1      -6.071  -4.842 -14.989 -0.07 +0.06    +0.052 C 
DOCKED: BRANCH  32  33
DOCKED: ATOM     33  C   UNL d   1      -6.968  -5.913 -15.603 -0.12 +0.10    +0.115 C 
DOCKED: BRANCH  33  34
DOCKED: ATOM     34  C   UNL d   1      -6.194  -6.900 -16.442 -0.04 +0.18    +0.139 C 
DOCKED: ATOM     35  O   UNL d   1      -5.158  -7.379 -16.008 -0.53 -1.05    -0.650 OA
DOCKED: BRANCH  34  36
DOCKED: ATOM     36  O   UNL d   1      -6.605  -7.247 -17.679 -0.22 -1.16    -0.776 OA
DOCKED: ATOM     37  H   UNL d   1      -7.438  -6.929 -18.048 +0.02 +0.16    +0.167 HD
DOCKED: ENDBRANCH  34  36
DOCKED: ENDBRANCH  33  34
DOCKED: ENDBRANCH  32  33
DOCKED: ENDBRANCH   6  32
DOCKED: BRANCH  22  38
DOCKED: ATOM     38  C   UNL d   1      -6.120   0.566 -15.742 -0.04 +0.05    +0.052 C 
DOCKED: BRANCH  38  39
DOCKED: ATOM     39  C   UNL d   1      -4.608   0.352 -15.787 -0.06 +0.15    +0.115 C 
DOCKED: BRANCH  39  40
DOCKED: ATOM     40  C   UNL d   1      -3.917   0.857 -14.546 -0.12 +0.22    +0.139 C 
DOCKED: ATOM     41  O   UNL d   1      -3.148   0.128 -13.941 -0.10 -1.30    -0.650 OA
DOCKED: BRANCH  40  42
DOCKED: ATOM     42  O   UNL d   1      -4.092   2.123 -14.118 -0.46 -1.69    -0.776 OA
DOCKED: ATOM     43  H   UNL d   1      -4.689   2.331 -13.389 +0.02 +0.33    +0.167 HD
DOCKED: ENDBRANCH  40  42
DOCKED: ENDBRANCH  39  40
DOCKED: ENDBRANCH  38  39
DOCKED: ENDBRANCH  22  38
DOCKED: BRANCH  12  44
DOCKED: ATOM     44  C   UNL d   1      -9.246  -3.760  -5.728 -0.57 +0.00    +0.004 C 
DOCKED: ATOM     45  C   UNL d   1      -9.166  -2.868  -4.741 -0.62 +0.00    +0.012 C 
DOCKED: ENDBRANCH  12  44
DOCKED: BRANCH  17  46
DOCKED: ATOM     46  C   UNL d   1      -9.361   3.639  -9.231 -0.14 +0.00    +0.004 C 
DOCKED: ATOM     47  C   UNL d   1      -8.557   4.668  -8.932 -0.25 +0.00    +0.012 C 
DOCKED: ENDBRANCH  17  46
DOCKED: TORSDOF 10
DOCKED: TER
DOCKED: ENDMDL
________________________________________________________________________________


	BEGINNING GENETIC ALGORITHM DOCKING 90 of 100
Run: 90 Seed: 559898403 1933877085 [ Run 90 of 100 GA/GALS ]
Beginning LAMARCKIAN GENETIC ALGORITHM (LGA), with a maximum of 25000000 energy evaluations.

Final-Value: -11.260


	FINAL GENETIC ALGORITHM DOCKED STATE
	_______________________________________________


Detailed state:  trans -10.279 -19.368 10.427 quatxyzw 0.316538 0.725250 0.107567 0.601868 center 8.287 34.468 -0.670 ntor 10 -93.9705 -12.3117 52.3448 -101.6778 146.3619 -119.4370 131.4269 -132.7566 -131.0856 139.7120
State:	-10.279 -19.368  10.427   0.396  0.908  0.135 105.992    -93.97  -12.31   52.34 -101.68  146.36 -119.44  131.43 -132.76 -131.09  139.71

DOCKED: MODEL       90
DOCKED: USER    Run = 90
DOCKED: USER    DPF = D:/Protein_go_brrr/autodock/final/AncB/heme_O2/dock.dpf
DOCKED: USER  
DOCKED: USER    Estimated Free Energy of Binding    =   -6.63 kcal/mol  [=(1)+(2)+(3)-(4)]
DOCKED: USER    Estimated Inhibition Constant, Ki   =   13.90 uM (micromolar)  [Temperature = 298.15 K]
DOCKED: USER    
DOCKED: USER    (1) Final Intermolecular Energy     =   -9.61 kcal/mol
DOCKED: USER        vdW + Hbond + desolv Energy     =   -4.92 kcal/mol
DOCKED: USER        Electrostatic Energy            =   -4.69 kcal/mol
DOCKED: USER    (2) Final Total Internal Energy     =   -1.65 kcal/mol
DOCKED: USER    (3) Torsional Free Energy           =   +2.98 kcal/mol
DOCKED: USER    (4) Unbound System's Energy  [=(2)] =   -1.65 kcal/mol
DOCKED: USER    
DOCKED: USER    
DOCKED: USER    NEWDPF move heme_O2_opt.pdbqt
DOCKED: USER    NEWDPF about 8.287000 34.468000 -0.670000
DOCKED: USER    NEWDPF tran0 -10.279443 -19.367799 10.426652
DOCKED: USER    NEWDPF quaternion0 0.316538 0.725250 0.107567 0.601868
DOCKED: USER    NEWDPF axisangle0 0.396369 0.908157 0.134696 105.992412
DOCKED: USER    NEWDPF quat0 0.396369 0.908157 0.134696 105.992412
DOCKED: USER    NEWDPF dihe0 -93.97 -12.31 52.34 -101.68 146.36 -119.44 131.43 -132.76 -131.09 139.71 
DOCKED: USER  keepresnum = 1 
DOCKED: USER  
DOCKED: REMARK  10 active torsions:
DOCKED: REMARK  status: ('A' for Active; 'I' for Inactive)
DOCKED: REMARK    1  A    between atoms: C_6  and  C_10 
DOCKED: REMARK    2  A    between atoms: C_10  and  C_11 
DOCKED: REMARK    3  A    between atoms: C_11  and  C_12 
DOCKED: REMARK    4  A    between atoms: C_12  and  O_14 
DOCKED: REMARK    5  A    between atoms: C_17  and  C_20 
DOCKED: REMARK    6  A    between atoms: C_24  and  C_27 
DOCKED: REMARK    7  A    between atoms: C_31  and  C_34 
DOCKED: REMARK    8  A    between atoms: C_34  and  C_35 
DOCKED: REMARK    9  A    between atoms: C_35  and  C_36 
DOCKED: REMARK   10  A    between atoms: C_36  and  O_38 
DOCKED: USER                              x       y       z     vdW  Elec       q    Type
DOCKED: USER                           _______ _______ _______ _____ _____    ______ ____
DOCKED: ROOT
DOCKED: ATOM      1  C   UNL d   1      -9.141 -19.946   8.733 -0.06 +0.08    +0.064 A 
DOCKED: ATOM      2  C   UNL d   1     -13.818 -19.686   9.517 -0.08 +0.03    +0.064 A 
DOCKED: ATOM      3  C   UNL d   1     -13.073 -18.220  14.033 -0.07 +0.02    +0.064 C 
DOCKED: ATOM      4  C   UNL d   1      -8.263 -18.025  13.089 -0.05 +0.03    +0.064 A 
DOCKED: ATOM      5  C   UNL d   1     -10.474 -19.993   8.577 -0.08 +0.08    +0.066 A 
DOCKED: ATOM      6  C   UNL d   1     -11.110 -20.400   7.401 -0.06 -0.02    -0.021 A 
DOCKED: ATOM      7  C   UNL d   1     -12.464 -20.284   7.613 -0.07 -0.02    -0.025 A 
DOCKED: ATOM      8  C   UNL d   1     -12.618 -19.855   8.928 -0.09 +0.05    +0.066 A 
DOCKED: ATOM      9  C   UNL d   1     -13.529 -20.550   6.571 -0.05 +0.02    +0.051 C 
DOCKED: ATOM     10  C   UNL d   1     -14.042 -19.261  10.899 -0.08 +0.03    +0.066 A 
DOCKED: ATOM     11  C   UNL d   1     -15.302 -19.259  11.509 -0.05 -0.01    -0.021 A 
DOCKED: ATOM     12  C   UNL d   1     -15.105 -18.856  12.817 -0.07 +0.00    +0.000 A 
DOCKED: ATOM     13  C   UNL d   1     -13.707 -18.618  12.930 -0.09 +0.02    +0.070 A 
DOCKED: ATOM     14  C   UNL d   1     -16.633 -19.651  10.878 -0.02 +0.01    +0.052 C 
DOCKED: ATOM     15  C   UNL d   1     -11.666 -17.934  14.179 -0.06 +0.02    +0.066 A 
DOCKED: ATOM     16  C   UNL d   1     -11.089 -17.363  15.313 -0.10 -0.00    -0.021 A 
DOCKED: ATOM     17  C   UNL d   1      -9.717 -17.297  15.066 -0.08 +0.00    +0.000 A 
DOCKED: ATOM     18  C   UNL d   1      -9.558 -17.841  13.784 -0.08 +0.03    +0.070 A 
DOCKED: ATOM     19  C   UNL d   1     -11.895 -16.886  16.494 -0.09 +0.01    +0.052 C 
DOCKED: ATOM     20  C   UNL d   1      -8.078 -18.503  11.843 -0.06 +0.04    +0.066 A 
DOCKED: ATOM     21  C   UNL d   1      -6.831 -18.670  11.248 -0.03 -0.01    -0.025 A 
DOCKED: ATOM     22  C   UNL d   1      -7.060 -19.242  10.017 -0.04 -0.02    -0.021 A 
DOCKED: ATOM     23  C   UNL d   1      -8.446 -19.387   9.899 -0.06 +0.07    +0.066 A 
DOCKED: ATOM     24  C   UNL d   1      -5.489 -18.298  11.823 -0.00 +0.02    +0.051 C 
DOCKED: ATOM     25  N   UNL d   1     -11.391 -19.614   9.501 -0.08 -0.26    -0.248 N 
DOCKED: ATOM     26  N   UNL d   1     -13.069 -18.862  11.758 -0.08 -0.12    -0.248 N 
DOCKED: ATOM     27  N   UNL d   1     -10.758 -18.153  13.231 -0.07 -0.12    -0.248 N 
DOCKED: ATOM     28  N   UNL d   1      -9.063 -18.896  10.993 -0.07 -0.24    -0.248 N 
DOCKED: ATOM     29 FE   UNL d   1     -11.051 -18.878  11.375 -0.03 +0.00    +0.000 Fe
DOCKED: ATOM     30  O   UNL d   1     -11.673 -17.840  10.396 -0.62 +0.00    +0.000 OA
DOCKED: ATOM     31  O   UNL d   1     -10.551 -17.387  11.405 -0.98 +0.00    +0.000 OA
DOCKED: ENDROOT
DOCKED: BRANCH   6  32
DOCKED: ATOM     32  C   UNL d   1     -10.474 -20.753   6.082 -0.03 +0.04    +0.052 C 
DOCKED: BRANCH  32  33
DOCKED: ATOM     33  C   UNL d   1      -9.432 -19.733   5.634 -0.06 +0.14    +0.115 C 
DOCKED: BRANCH  33  34
DOCKED: ATOM     34  C   UNL d   1      -9.958 -18.319   5.675 +0.11 +0.29    +0.139 C 
DOCKED: ATOM     35  O   UNL d   1     -11.128 -18.118   5.959 -0.38 -1.20    -0.650 OA
DOCKED: BRANCH  34  36
DOCKED: ATOM     36  O   UNL d   1      -9.168 -17.267   5.377 -0.28 -2.41    -0.776 OA
DOCKED: ATOM     37  H   UNL d   1      -8.691 -16.777   6.057 +0.02 +0.58    +0.167 HD
DOCKED: ENDBRANCH  34  36
DOCKED: ENDBRANCH  33  34
DOCKED: ENDBRANCH  32  33
DOCKED: ENDBRANCH   6  32
DOCKED: BRANCH  22  38
DOCKED: ATOM     38  C   UNL d   1      -6.007 -19.568   8.990 -0.01 +0.03    +0.052 C 
DOCKED: BRANCH  38  39
DOCKED: ATOM     39  C   UNL d   1      -6.208 -18.800   7.685 -0.04 +0.12    +0.115 C 
DOCKED: BRANCH  39  40
DOCKED: ATOM     40  C   UNL d   1      -6.495 -17.337   7.916 -0.10 +0.22    +0.139 C 
DOCKED: ATOM     41  O   UNL d   1      -6.107 -16.798   8.940 -0.13 -0.75    -0.650 OA
DOCKED: BRANCH  40  42
DOCKED: ATOM     42  O   UNL d   1      -7.129 -16.597   6.986 -0.42 -2.00    -0.776 OA
DOCKED: ATOM     43  H   UNL d   1      -7.297 -16.937   6.099 +0.02 +0.51    +0.167 HD
DOCKED: ENDBRANCH  40  42
DOCKED: ENDBRANCH  39  40
DOCKED: ENDBRANCH  38  39
DOCKED: ENDBRANCH  22  38
DOCKED: BRANCH  12  44
DOCKED: ATOM     44  C   UNL d   1     -16.249 -18.739  13.803 -0.03 +0.00    +0.004 C 
DOCKED: ATOM     45  C   UNL d   1     -16.524 -17.724  14.621 -0.04 +0.00    +0.012 C 
DOCKED: ENDBRANCH  12  44
DOCKED: BRANCH  17  46
DOCKED: ATOM     46  C   UNL d   1      -8.592 -16.728  15.889 -0.05 +0.00    +0.004 C 
DOCKED: ATOM     47  C   UNL d   1      -7.880 -15.617  15.662 -0.06 +0.00    +0.012 C 
DOCKED: ENDBRANCH  17  46
DOCKED: TORSDOF 10
DOCKED: TER
DOCKED: ENDMDL
________________________________________________________________________________


	BEGINNING GENETIC ALGORITHM DOCKING 91 of 100
Run: 91 Seed: 542517465 349566844 [ Run 91 of 100 GA/GALS ]
Beginning LAMARCKIAN GENETIC ALGORITHM (LGA), with a maximum of 25000000 energy evaluations.

Final-Value: -13.925


	FINAL GENETIC ALGORITHM DOCKED STATE
	_______________________________________________


Detailed state:  trans -1.331 0.150 -12.812 quatxyzw 0.539378 -0.413124 0.681250 -0.272579 center 8.287 34.468 -0.670 ntor 10 64.9689 108.8792 -45.3476 -120.8970 60.3407 -28.3823 173.1513 109.3710 -153.2914 -171.8843
State:	 -1.331   0.150 -12.812   0.561 -0.429  0.708 -148.364     64.97  108.88  -45.35 -120.90   60.34  -28.38  173.15  109.37 -153.29 -171.88

DOCKED: MODEL       91
DOCKED: USER    Run = 91
DOCKED: USER    DPF = D:/Protein_go_brrr/autodock/final/AncB/heme_O2/dock.dpf
DOCKED: USER  
DOCKED: USER    Estimated Free Energy of Binding    =   -8.72 kcal/mol  [=(1)+(2)+(3)-(4)]
DOCKED: USER    Estimated Inhibition Constant, Ki   =  404.77 nM (nanomolar)  [Temperature = 298.15 K]
DOCKED: USER    
DOCKED: USER    (1) Final Intermolecular Energy     =  -11.70 kcal/mol
DOCKED: USER        vdW + Hbond + desolv Energy     =   -8.51 kcal/mol
DOCKED: USER        Electrostatic Energy            =   -3.19 kcal/mol
DOCKED: USER    (2) Final Total Internal Energy     =   -2.22 kcal/mol
DOCKED: USER    (3) Torsional Free Energy           =   +2.98 kcal/mol
DOCKED: USER    (4) Unbound System's Energy  [=(2)] =   -2.22 kcal/mol
DOCKED: USER    
DOCKED: USER    
DOCKED: USER    NEWDPF move heme_O2_opt.pdbqt
DOCKED: USER    NEWDPF about 8.287000 34.468000 -0.670000
DOCKED: USER    NEWDPF tran0 -1.330709 0.149594 -12.812141
DOCKED: USER    NEWDPF quaternion0 0.539378 -0.413124 0.681250 -0.272579
DOCKED: USER    NEWDPF axisangle0 0.560606 -0.429383 0.708061 -148.364410
DOCKED: USER    NEWDPF quat0 0.560606 -0.429383 0.708061 -148.364410
DOCKED: USER    NEWDPF dihe0 64.97 108.88 -45.35 -120.90 60.34 -28.38 173.15 109.37 -153.29 -171.88 
DOCKED: USER  keepresnum = 1 
DOCKED: USER  
DOCKED: REMARK  10 active torsions:
DOCKED: REMARK  status: ('A' for Active; 'I' for Inactive)
DOCKED: REMARK    1  A    between atoms: C_6  and  C_10 
DOCKED: REMARK    2  A    between atoms: C_10  and  C_11 
DOCKED: REMARK    3  A    between atoms: C_11  and  C_12 
DOCKED: REMARK    4  A    between atoms: C_12  and  O_14 
DOCKED: REMARK    5  A    between atoms: C_17  and  C_20 
DOCKED: REMARK    6  A    between atoms: C_24  and  C_27 
DOCKED: REMARK    7  A    between atoms: C_31  and  C_34 
DOCKED: REMARK    8  A    between atoms: C_34  and  C_35 
DOCKED: REMARK    9  A    between atoms: C_35  and  C_36 
DOCKED: REMARK   10  A    between atoms: C_36  and  O_38 
DOCKED: USER                              x       y       z     vdW  Elec       q    Type
DOCKED: USER                           _______ _______ _______ _____ _____    ______ ____
DOCKED: ROOT
DOCKED: ATOM      1  C   UNL d   1      -1.726   0.667 -14.831 -0.11 +0.09    +0.064 A 
DOCKED: ATOM      2  C   UNL d   1       2.075  -1.206 -12.685 -0.27 +0.03    +0.064 A 
DOCKED: ATOM      3  C   UNL d   1      -0.130  -1.024  -8.418 +0.35 +0.04    +0.064 C 
DOCKED: ATOM      4  C   UNL d   1      -4.219   0.459 -10.686 -0.22 +0.05    +0.064 A 
DOCKED: ATOM      5  C   UNL d   1      -0.513   0.141 -14.596 -0.13 +0.07    +0.066 A 
DOCKED: ATOM      6  C   UNL d   1       0.458  -0.060 -15.581 -0.09 -0.02    -0.021 A 
DOCKED: ATOM      7  C   UNL d   1       1.542  -0.642 -14.969 -0.14 -0.01    -0.025 A 
DOCKED: ATOM      8  C   UNL d   1       1.223  -0.737 -13.617 -0.21 +0.04    +0.066 A 
DOCKED: ATOM      9  C   UNL d   1       2.796  -1.100 -15.681 -0.16 +0.02    +0.051 C 
DOCKED: ATOM     10  C   UNL d   1       1.804  -1.308 -11.250 -0.24 +0.03    +0.066 A 
DOCKED: ATOM     11  C   UNL d   1       2.779  -1.648 -10.306 -0.46 -0.01    -0.021 A 
DOCKED: ATOM     12  C   UNL d   1       2.168  -1.584  -9.068 -0.29 +0.00    +0.000 A 
DOCKED: ATOM     13  C   UNL d   1       0.821  -1.211  -9.334 +0.01 +0.04    +0.070 A 
DOCKED: ATOM     14  C   UNL d   1       4.240  -1.994 -10.571 -0.56 +0.01    +0.052 C 
DOCKED: ATOM     15  C   UNL d   1      -1.512  -0.681  -8.649 -0.34 +0.03    +0.066 A 
DOCKED: ATOM     16  C   UNL d   1      -2.497  -0.660  -7.661 -0.43 -0.01    -0.021 A 
DOCKED: ATOM     17  C   UNL d   1      -3.672  -0.241  -8.285 -0.41 +0.00    +0.000 A 
DOCKED: ATOM     18  C   UNL d   1      -3.311  -0.033  -9.623 -0.29 +0.04    +0.070 A 
DOCKED: ATOM     19  C   UNL d   1      -2.244  -1.090  -6.238 -0.47 +0.02    +0.052 C 
DOCKED: ATOM     20  C   UNL d   1      -3.917   0.628 -11.988 -0.20 +0.08    +0.066 A 
DOCKED: ATOM     21  C   UNL d   1      -4.811   1.112 -12.940 -0.15 -0.03    -0.025 A 
DOCKED: ATOM     22  C   UNL d   1      -4.110   1.203 -14.121 -0.13 -0.03    -0.021 A 
DOCKED: ATOM     23  C   UNL d   1      -2.814   0.753 -13.850 -0.15 +0.11    +0.066 A 
DOCKED: ATOM     24  C   UNL d   1      -6.261   1.465 -12.733 -0.12 +0.05    +0.051 C 
DOCKED: ATOM     25  N   UNL d   1      -0.068  -0.314 -13.399 -0.14 -0.23    -0.248 N 
DOCKED: ATOM     26  N   UNL d   1       0.607  -1.050 -10.664 +0.27 -0.14    -0.248 N 
DOCKED: ATOM     27  N   UNL d   1      -2.016  -0.377  -9.842 -0.20 -0.16    -0.248 N 
DOCKED: ATOM     28  N   UNL d   1      -2.714   0.362 -12.562 -0.14 -0.36    -0.248 N 
DOCKED: ATOM     29 FE   UNL d   1      -1.067  -0.339 -11.618 -0.06 +0.00    +0.000 Fe
DOCKED: ATOM     30  O   UNL d   1      -0.798  -1.755 -12.207 -0.36 +0.00    +0.000 OA
DOCKED: ATOM     31  O   UNL d   1      -2.178  -1.447 -11.513 -0.55 +0.00    +0.000 OA
DOCKED: ENDROOT
DOCKED: BRANCH   6  32
DOCKED: ATOM     32  C   UNL d   1       0.324   0.159 -17.066 -0.03 +0.03    +0.052 C 
DOCKED: BRANCH  32  33
DOCKED: ATOM     33  C   UNL d   1      -0.606  -0.851 -17.732 -0.03 +0.08    +0.115 C 
DOCKED: BRANCH  33  34
DOCKED: ATOM     34  C   UNL d   1      -1.007  -1.966 -16.798 -0.11 +0.14    +0.139 C 
DOCKED: ATOM     35  O   UNL d   1      -0.334  -2.983 -16.748 -0.02 -0.54    -0.650 OA
DOCKED: BRANCH  34  36
DOCKED: ATOM     36  O   UNL d   1      -2.115  -1.878 -16.033 -0.04 -1.66    -0.776 OA
DOCKED: ATOM     37  H   UNL d   1      -2.999  -1.846 -16.416 +0.02 +0.35    +0.167 HD
DOCKED: ENDBRANCH  34  36
DOCKED: ENDBRANCH  33  34
DOCKED: ENDBRANCH  32  33
DOCKED: ENDBRANCH   6  32
DOCKED: BRANCH  22  38
DOCKED: ATOM     38  C   UNL d   1      -4.677   1.639 -15.448 -0.07 +0.07    +0.052 C 
DOCKED: BRANCH  38  39
DOCKED: ATOM     39  C   UNL d   1      -5.642   0.611 -16.033 -0.03 +0.12    +0.115 C 
DOCKED: BRANCH  39  40
DOCKED: ATOM     40  C   UNL d   1      -4.935  -0.625 -16.533 -0.04 +0.17    +0.139 C 
DOCKED: ATOM     41  O   UNL d   1      -5.156  -1.704 -16.007 -0.16 -1.15    -0.650 OA
DOCKED: BRANCH  40  42
DOCKED: ATOM     42  O   UNL d   1      -4.099  -0.569 -17.588 +0.02 -0.72    -0.776 OA
DOCKED: ATOM     43  H   UNL d   1      -3.149  -0.702 -17.486 +0.01 +0.17    +0.167 HD
DOCKED: ENDBRANCH  40  42
DOCKED: ENDBRANCH  39  40
DOCKED: ENDBRANCH  38  39
DOCKED: ENDBRANCH  22  38
DOCKED: BRANCH  12  44
DOCKED: ATOM     44  C   UNL d   1       2.916  -1.882  -7.785 -0.52 +0.00    +0.004 C 
DOCKED: ATOM     45  C   UNL d   1       2.959  -1.148  -6.673 -0.51 +0.00    +0.012 C 
DOCKED: ENDBRANCH  12  44
DOCKED: BRANCH  17  46
DOCKED: ATOM     46  C   UNL d   1      -5.071  -0.082  -7.752 -0.30 +0.00    +0.004 C 
DOCKED: ATOM     47  C   UNL d   1      -6.208  -0.588  -8.246 -0.30 +0.00    +0.012 C 
DOCKED: ENDBRANCH  17  46
DOCKED: TORSDOF 10
DOCKED: TER
DOCKED: ENDMDL
________________________________________________________________________________


	BEGINNING GENETIC ALGORITHM DOCKING 92 of 100
Run: 92 Seed: 1500571729 1649941180 [ Run 92 of 100 GA/GALS ]
Beginning LAMARCKIAN GENETIC ALGORITHM (LGA), with a maximum of 25000000 energy evaluations.

Final-Value: -20.897


	FINAL GENETIC ALGORITHM DOCKED STATE
	_______________________________________________


Detailed state:  trans 0.189 -1.618 -8.858 quatxyzw -0.288081 -0.289086 -0.245587 -0.879276 center 8.287 34.468 -0.670 ntor 10 -109.1140 -130.6698 28.6360 -43.3994 -89.7550 152.3321 -38.3276 43.2516 -143.4303 176.0219
State:	  0.189  -1.618  -8.858  -0.605 -0.607 -0.516 -56.890   -109.11 -130.67   28.64  -43.40  -89.75  152.33  -38.33   43.25 -143.43  176.02

DOCKED: MODEL       92
DOCKED: USER    Run = 92
DOCKED: USER    DPF = D:/Protein_go_brrr/autodock/final/AncB/heme_O2/dock.dpf
DOCKED: USER  
DOCKED: USER    Estimated Free Energy of Binding    =  -15.63 kcal/mol  [=(1)+(2)+(3)-(4)]
DOCKED: USER    Estimated Inhibition Constant, Ki   =    3.50 pM (picomolar)  [Temperature = 298.15 K]
DOCKED: USER    
DOCKED: USER    (1) Final Intermolecular Energy     =  -18.61 kcal/mol
DOCKED: USER        vdW + Hbond + desolv Energy     =  -15.81 kcal/mol
DOCKED: USER        Electrostatic Energy            =   -2.80 kcal/mol
DOCKED: USER    (2) Final Total Internal Energy     =   -2.29 kcal/mol
DOCKED: USER    (3) Torsional Free Energy           =   +2.98 kcal/mol
DOCKED: USER    (4) Unbound System's Energy  [=(2)] =   -2.29 kcal/mol
DOCKED: USER    
DOCKED: USER    
DOCKED: USER    NEWDPF move heme_O2_opt.pdbqt
DOCKED: USER    NEWDPF about 8.287000 34.468000 -0.670000
DOCKED: USER    NEWDPF tran0 0.189443 -1.617888 -8.857504
DOCKED: USER    NEWDPF quaternion0 -0.288081 -0.289086 -0.245587 -0.879276
DOCKED: USER    NEWDPF axisangle0 -0.604814 -0.606924 -0.515600 -56.889734
DOCKED: USER    NEWDPF quat0 -0.604814 -0.606924 -0.515600 -56.889734
DOCKED: USER    NEWDPF dihe0 -109.11 -130.67 28.64 -43.40 -89.75 152.33 -38.33 43.25 -143.43 176.02 
DOCKED: USER  keepresnum = 1 
DOCKED: USER  
DOCKED: REMARK  10 active torsions:
DOCKED: REMARK  status: ('A' for Active; 'I' for Inactive)
DOCKED: REMARK    1  A    between atoms: C_6  and  C_10 
DOCKED: REMARK    2  A    between atoms: C_10  and  C_11 
DOCKED: REMARK    3  A    between atoms: C_11  and  C_12 
DOCKED: REMARK    4  A    between atoms: C_12  and  O_14 
DOCKED: REMARK    5  A    between atoms: C_17  and  C_20 
DOCKED: REMARK    6  A    between atoms: C_24  and  C_27 
DOCKED: REMARK    7  A    between atoms: C_31  and  C_34 
DOCKED: REMARK    8  A    between atoms: C_34  and  C_35 
DOCKED: REMARK    9  A    between atoms: C_35  and  C_36 
DOCKED: REMARK   10  A    between atoms: C_36  and  O_38 
DOCKED: USER                              x       y       z     vdW  Elec       q    Type
DOCKED: USER                           _______ _______ _______ _____ _____    ______ ____
DOCKED: ROOT
DOCKED: ATOM      1  C   UNL d   1      -0.489  -1.211 -10.826 -0.28 +0.05    +0.064 A 
DOCKED: ATOM      2  C   UNL d   1      -2.644  -1.064  -6.596 -0.39 +0.02    +0.064 A 
DOCKED: ATOM      3  C   UNL d   1       1.372  -2.522  -4.396 -0.44 +0.01    +0.064 C 
DOCKED: ATOM      4  C   UNL d   1       3.735  -2.217  -8.684 -0.43 +0.02    +0.064 A 
DOCKED: ATOM      5  C   UNL d   1      -1.402  -1.050  -9.855 -0.30 +0.04    +0.066 A 
DOCKED: ATOM      6  C   UNL d   1      -2.723  -0.654 -10.080 -0.31 -0.02    -0.021 A 
DOCKED: ATOM      7  C   UNL d   1      -3.336  -0.570  -8.852 -0.34 -0.01    -0.025 A 
DOCKED: ATOM      8  C   UNL d   1      -2.386  -0.963  -7.914 -0.36 +0.03    +0.066 A 
DOCKED: ATOM      9  C   UNL d   1      -4.757  -0.101  -8.624 -0.37 +0.02    +0.051 C 
DOCKED: ATOM     10  C   UNL d   1      -1.695  -1.493  -5.567 -0.40 +0.02    +0.066 A 
DOCKED: ATOM     11  C   UNL d   1      -2.059  -1.737  -4.238 -0.48 -0.00    -0.021 A 
DOCKED: ATOM     12  C   UNL d   1      -0.918  -2.176  -3.592 -0.43 +0.00    +0.000 A 
DOCKED: ATOM     13  C   UNL d   1       0.103  -2.162  -4.582 -0.40 +0.01    +0.070 A 
DOCKED: ATOM     14  C   UNL d   1      -3.443  -1.585  -3.618 -0.59 +0.01    +0.052 C 
DOCKED: ATOM     15  C   UNL d   1       2.443  -2.489  -5.362 -0.40 +0.01    +0.066 A 
DOCKED: ATOM     16  C   UNL d   1       3.786  -2.722  -5.063 -0.51 -0.00    -0.021 A 
DOCKED: ATOM     17  C   UNL d   1       4.479  -2.639  -6.271 -0.51 +0.00    +0.000 A 
DOCKED: ATOM     18  C   UNL d   1       3.494  -2.361  -7.229 -0.42 +0.02    +0.070 A 
DOCKED: ATOM     19  C   UNL d   1       4.289  -2.945  -3.659 -0.32 +0.00    +0.052 C 
DOCKED: ATOM     20  C   UNL d   1       2.821  -1.908  -9.624 -0.44 +0.02    +0.066 A 
DOCKED: ATOM     21  C   UNL d   1       3.105  -1.804 -10.984 -0.46 -0.01    -0.025 A 
DOCKED: ATOM     22  C   UNL d   1       1.908  -1.545 -11.612 -0.00 -0.01    -0.021 A 
DOCKED: ATOM     23  C   UNL d   1       0.937  -1.481 -10.608 -0.16 +0.03    +0.066 A 
DOCKED: ATOM     24  C   UNL d   1       4.450  -1.942 -11.648 -0.46 +0.01    +0.051 C 
DOCKED: ATOM     25  N   UNL d   1      -1.176  -1.196  -8.526 -0.22 -0.12    -0.248 N 
DOCKED: ATOM     26  N   UNL d   1      -0.377  -1.741  -5.780 -0.25 -0.07    -0.248 N 
DOCKED: ATOM     27  N   UNL d   1       2.277  -2.199  -6.649 -0.23 -0.08    -0.248 N 
DOCKED: ATOM     28  N   UNL d   1       1.505  -1.658  -9.397 -0.12 -0.13    -0.248 N 
DOCKED: ATOM     29 FE   UNL d   1       0.573  -1.699  -7.600 -0.09 +0.00    +0.000 Fe
DOCKED: ATOM     30  O   UNL d   1       0.110  -0.241  -7.317 -0.69 +0.00    +0.000 OA
DOCKED: ATOM     31  O   UNL d   1       1.638  -0.543  -7.553 -1.09 +0.00    +0.000 OA
DOCKED: ENDROOT
DOCKED: BRANCH   6  32
DOCKED: ATOM     32  C   UNL d   1      -3.352  -0.238 -11.385 -0.25 +0.07    +0.052 C 
DOCKED: BRANCH  32  33
DOCKED: ATOM     33  C   UNL d   1      -2.667   0.972 -12.013 -0.23 +0.14    +0.115 C 
DOCKED: BRANCH  33  34
DOCKED: ATOM     34  C   UNL d   1      -2.525   0.841 -13.509 -0.19 +0.21    +0.139 C 
DOCKED: ATOM     35  O   UNL d   1      -3.059   1.660 -14.240 -0.31 -1.18    -0.650 OA
DOCKED: BRANCH  34  36
DOCKED: ATOM     36  O   UNL d   1      -1.841  -0.181 -14.064 -0.13 -1.42    -0.776 OA
DOCKED: ATOM     37  H   UNL d   1      -0.986  -0.052 -14.490 +0.04 +0.21    +0.167 HD
DOCKED: ENDBRANCH  34  36
DOCKED: ENDBRANCH  33  34
DOCKED: ENDBRANCH  32  33
DOCKED: ENDBRANCH   6  32
DOCKED: BRANCH  22  38
DOCKED: ATOM     38  C   UNL d   1       1.725  -1.308 -13.089 -0.17 +0.03    +0.052 C 
DOCKED: BRANCH  38  39
DOCKED: ATOM     39  C   UNL d   1       2.044   0.130 -13.492 -0.27 +0.05    +0.115 C 
DOCKED: BRANCH  39  40
DOCKED: ATOM     40  C   UNL d   1       1.049   0.687 -14.479 -0.15 +0.09    +0.139 C 
DOCKED: ATOM     41  O   UNL d   1       0.940   0.178 -15.583 +0.05 -0.41    -0.650 OA
DOCKED: BRANCH  40  42
DOCKED: ATOM     42  O   UNL d   1       0.237   1.710 -14.147 +0.03 -0.64    -0.776 OA
DOCKED: ATOM     43  H   UNL d   1      -0.718   1.658 -14.272 +0.05 +0.18    +0.167 HD
DOCKED: ENDBRANCH  40  42
DOCKED: ENDBRANCH  39  40
DOCKED: ENDBRANCH  38  39
DOCKED: ENDBRANCH  22  38
DOCKED: BRANCH  12  44
DOCKED: ATOM     44  C   UNL d   1      -0.920  -2.552  -2.125 -0.48 +0.00    +0.004 C 
DOCKED: ATOM     45  C   UNL d   1       0.110  -2.557  -1.280 -0.61 +0.00    +0.012 C 
DOCKED: ENDBRANCH  12  44
DOCKED: BRANCH  17  46
DOCKED: ATOM     46  C   UNL d   1       5.950  -2.740  -6.575 -0.61 +0.00    +0.004 C 
DOCKED: ATOM     47  C   UNL d   1       6.964  -2.092  -5.987 -0.67 +0.00    +0.012 C 
DOCKED: ENDBRANCH  17  46
DOCKED: TORSDOF 10
DOCKED: TER
DOCKED: ENDMDL
________________________________________________________________________________


	BEGINNING GENETIC ALGORITHM DOCKING 93 of 100
Run: 93 Seed: 1628150154 635979641 [ Run 93 of 100 GA/GALS ]
Beginning LAMARCKIAN GENETIC ALGORITHM (LGA), with a maximum of 25000000 energy evaluations.

Final-Value: -13.052


	FINAL GENETIC ALGORITHM DOCKED STATE
	_______________________________________________


Detailed state:  trans -4.898 -11.077 12.319 quatxyzw -0.684102 -0.185137 -0.670021 0.220908 center 8.287 34.468 -0.670 ntor 10 -87.0590 -84.5127 -6.3461 118.4684 51.4187 113.3029 20.6982 35.0739 -19.0501 170.7544
State:	 -4.898 -11.077  12.319  -0.701 -0.190 -0.687 154.475    -87.06  -84.51   -6.35  118.47   51.42  113.30   20.70   35.07  -19.05  170.75

DOCKED: MODEL       93
DOCKED: USER    Run = 93
DOCKED: USER    DPF = D:/Protein_go_brrr/autodock/final/AncB/heme_O2/dock.dpf
DOCKED: USER  
DOCKED: USER    Estimated Free Energy of Binding    =   -8.57 kcal/mol  [=(1)+(2)+(3)-(4)]
DOCKED: USER    Estimated Inhibition Constant, Ki   =  522.67 nM (nanomolar)  [Temperature = 298.15 K]
DOCKED: USER    
DOCKED: USER    (1) Final Intermolecular Energy     =  -11.55 kcal/mol
DOCKED: USER        vdW + Hbond + desolv Energy     =   -7.99 kcal/mol
DOCKED: USER        Electrostatic Energy            =   -3.56 kcal/mol
DOCKED: USER    (2) Final Total Internal Energy     =   -1.50 kcal/mol
DOCKED: USER    (3) Torsional Free Energy           =   +2.98 kcal/mol
DOCKED: USER    (4) Unbound System's Energy  [=(2)] =   -1.50 kcal/mol
DOCKED: USER    
DOCKED: USER    
DOCKED: USER    NEWDPF move heme_O2_opt.pdbqt
DOCKED: USER    NEWDPF about 8.287000 34.468000 -0.670000
DOCKED: USER    NEWDPF tran0 -4.897891 -11.076659 12.318565
DOCKED: USER    NEWDPF quaternion0 -0.684102 -0.185137 -0.670021 0.220908
DOCKED: USER    NEWDPF axisangle0 -0.701432 -0.189826 -0.686993 154.475207
DOCKED: USER    NEWDPF quat0 -0.701432 -0.189826 -0.686993 154.475207
DOCKED: USER    NEWDPF dihe0 -87.06 -84.51 -6.35 118.47 51.42 113.30 20.70 35.07 -19.05 170.75 
DOCKED: USER  keepresnum = 1 
DOCKED: USER  
DOCKED: REMARK  10 active torsions:
DOCKED: REMARK  status: ('A' for Active; 'I' for Inactive)
DOCKED: REMARK    1  A    between atoms: C_6  and  C_10 
DOCKED: REMARK    2  A    between atoms: C_10  and  C_11 
DOCKED: REMARK    3  A    between atoms: C_11  and  C_12 
DOCKED: REMARK    4  A    between atoms: C_12  and  O_14 
DOCKED: REMARK    5  A    between atoms: C_17  and  C_20 
DOCKED: REMARK    6  A    between atoms: C_24  and  C_27 
DOCKED: REMARK    7  A    between atoms: C_31  and  C_34 
DOCKED: REMARK    8  A    between atoms: C_34  and  C_35 
DOCKED: REMARK    9  A    between atoms: C_35  and  C_36 
DOCKED: REMARK   10  A    between atoms: C_36  and  O_38 
DOCKED: USER                              x       y       z     vdW  Elec       q    Type
DOCKED: USER                           _______ _______ _______ _____ _____    ______ ____
DOCKED: ROOT
DOCKED: ATOM      1  C   UNL d   1      -5.785 -12.563  11.092 -0.22 +0.03    +0.064 A 
DOCKED: ATOM      2  C   UNL d   1      -1.928  -9.844  10.556 -0.22 +0.01    +0.064 A 
DOCKED: ATOM      3  C   UNL d   1      -2.745  -7.691  14.774 -0.20 +0.01    +0.064 C 
DOCKED: ATOM      4  C   UNL d   1      -6.445 -10.815  15.559 -0.14 +0.04    +0.064 A 
DOCKED: ATOM      5  C   UNL d   1      -4.668 -12.000  10.603 -0.18 +0.03    +0.066 A 
DOCKED: ATOM      6  C   UNL d   1      -4.100 -12.332   9.370 -0.17 -0.01    -0.021 A 
DOCKED: ATOM      7  C   UNL d   1      -2.959 -11.577   9.233 -0.18 -0.01    -0.025 A 
DOCKED: ATOM      8  C   UNL d   1      -2.888 -10.769  10.364 -0.19 +0.02    +0.066 A 
DOCKED: ATOM      9  C   UNL d   1      -1.991 -11.673   8.074 -0.24 +0.01    +0.051 C 
DOCKED: ATOM     10  C   UNL d   1      -1.814  -8.952  11.710 -0.22 +0.01    +0.066 A 
DOCKED: ATOM     11  C   UNL d   1      -0.894  -7.900  11.782 -0.27 -0.00    -0.021 A 
DOCKED: ATOM     12  C   UNL d   1      -1.126  -7.256  12.984 -0.26 +0.00    +0.000 A 
DOCKED: ATOM     13  C   UNL d   1      -2.190  -7.975  13.596 -0.12 +0.01    +0.070 A 
DOCKED: ATOM     14  C   UNL d   1       0.144  -7.509  10.737 -0.19 +0.00    +0.052 C 
DOCKED: ATOM     15  C   UNL d   1      -3.799  -8.415  15.443 -0.15 +0.02    +0.066 A 
DOCKED: ATOM     16  C   UNL d   1      -4.224  -8.165  16.748 -0.13 -0.00    -0.021 A 
DOCKED: ATOM     17  C   UNL d   1      -5.278  -9.045  16.994 -0.12 +0.00    +0.000 A 
DOCKED: ATOM     18  C   UNL d   1      -5.420  -9.773  15.805 -0.08 +0.04    +0.070 A 
DOCKED: ATOM     19  C   UNL d   1      -3.558  -7.159  17.652 -0.08 -0.00    +0.052 C 
DOCKED: ATOM     20  C   UNL d   1      -6.582 -11.562  14.446 -0.19 +0.04    +0.066 A 
DOCKED: ATOM     21  C   UNL d   1      -7.579 -12.517  14.265 -0.25 -0.01    -0.025 A 
DOCKED: ATOM     22  C   UNL d   1      -7.423 -13.006  12.988 -0.30 -0.01    -0.021 A 
DOCKED: ATOM     23  C   UNL d   1      -6.321 -12.342  12.441 -0.24 +0.03    +0.066 A 
DOCKED: ATOM     24  C   UNL d   1      -8.625 -12.944  15.262 -0.20 +0.02    +0.051 C 
DOCKED: ATOM     25  N   UNL d   1      -3.905 -11.077  11.238 -0.11 -0.09    -0.248 N 
DOCKED: ATOM     26  N   UNL d   1      -2.599  -9.008  12.816 -0.09 -0.07    -0.248 N 
DOCKED: ATOM     27  N   UNL d   1      -4.466  -9.430  14.902 -0.11 -0.12    -0.248 N 
DOCKED: ATOM     28  N   UNL d   1      -5.785 -11.498  13.347 -0.13 -0.14    -0.248 N 
DOCKED: ATOM     29 FE   UNL d   1      -4.204 -10.261  13.086 -0.05 +0.00    +0.000 Fe
DOCKED: ATOM     30  O   UNL d   1      -2.947 -11.175  12.998 -0.09 +0.00    +0.000 OA
DOCKED: ATOM     31  O   UNL d   1      -3.859 -11.223  14.282 -0.09 +0.00    +0.000 OA
DOCKED: ENDROOT
DOCKED: BRANCH   6  32
DOCKED: ATOM     32  C   UNL d   1      -4.533 -13.416   8.416 -0.16 +0.03    +0.052 C 
DOCKED: BRANCH  32  33
DOCKED: ATOM     33  C   UNL d   1      -5.920 -13.171   7.831 -0.29 +0.09    +0.115 C 
DOCKED: BRANCH  33  34
DOCKED: ATOM     34  C   UNL d   1      -6.530 -14.423   7.252 -0.27 +0.20    +0.139 C 
DOCKED: ATOM     35  O   UNL d   1      -6.487 -14.613   6.047 -0.11 -1.48    -0.650 OA
DOCKED: BRANCH  34  36
DOCKED: ATOM     36  O   UNL d   1      -7.149 -15.331   8.034 -0.44 -1.51    -0.776 OA
DOCKED: ATOM     37  H   UNL d   1      -6.667 -16.042   8.472 +0.03 +0.28    +0.167 HD
DOCKED: ENDBRANCH  34  36
DOCKED: ENDBRANCH  33  34
DOCKED: ENDBRANCH  32  33
DOCKED: ENDBRANCH   6  32
DOCKED: BRANCH  22  38
DOCKED: ATOM     38  C   UNL d   1      -8.250 -14.097  12.358 -0.07 +0.02    +0.052 C 
DOCKED: BRANCH  38  39
DOCKED: ATOM     39  C   UNL d   1      -7.700 -15.490  12.654 -0.17 +0.05    +0.115 C 
DOCKED: BRANCH  39  40
DOCKED: ATOM     40  C   UNL d   1      -7.911 -16.449  11.510 -0.01 +0.11    +0.139 C 
DOCKED: ATOM     41  O   UNL d   1      -8.811 -17.272  11.567 -0.22 -0.63    -0.650 OA
DOCKED: BRANCH  40  42
DOCKED: ATOM     42  O   UNL d   1      -7.155 -16.382  10.397 -0.04 -0.82    -0.776 OA
DOCKED: ATOM     43  H   UNL d   1      -7.347 -15.751   9.693 -0.06 +0.24    +0.167 HD
DOCKED: ENDBRANCH  40  42
DOCKED: ENDBRANCH  39  40
DOCKED: ENDBRANCH  38  39
DOCKED: ENDBRANCH  22  38
DOCKED: BRANCH  12  44
DOCKED: ATOM     44  C   UNL d   1      -0.323  -6.047  13.416 -0.38 +0.00    +0.004 C 
DOCKED: ATOM     45  C   UNL d   1      -0.565  -5.225  14.436 -0.39 -0.00    +0.012 C 
DOCKED: ENDBRANCH  12  44
DOCKED: BRANCH  17  46
DOCKED: ATOM     46  C   UNL d   1      -6.095  -9.286  18.236 -0.07 +0.00    +0.004 C 
DOCKED: ATOM     47  C   UNL d   1      -7.388  -9.008  18.443 -0.12 +0.00    +0.012 C 
DOCKED: ENDBRANCH  17  46
DOCKED: TORSDOF 10
DOCKED: TER
DOCKED: ENDMDL
________________________________________________________________________________


	BEGINNING GENETIC ALGORITHM DOCKING 94 of 100
Run: 94 Seed: 417120792 2027238151 [ Run 94 of 100 GA/GALS ]
Beginning LAMARCKIAN GENETIC ALGORITHM (LGA), with a maximum of 25000000 energy evaluations.

Final-Value: -13.105


	FINAL GENETIC ALGORITHM DOCKED STATE
	_______________________________________________


Detailed state:  trans -3.955 -11.831 11.131 quatxyzw -0.461636 -0.344209 0.268183 -0.772328 center 8.287 34.468 -0.670 ntor 10 95.8713 -129.5752 60.1121 15.8224 -15.0791 130.0423 32.2942 70.6884 -22.6776 163.1344
State:	 -3.955 -11.831  11.131  -0.727 -0.542  0.422 -78.873     95.87 -129.58   60.11   15.82  -15.08  130.04   32.29   70.69  -22.68  163.13

DOCKED: MODEL       94
DOCKED: USER    Run = 94
DOCKED: USER    DPF = D:/Protein_go_brrr/autodock/final/AncB/heme_O2/dock.dpf
DOCKED: USER  
DOCKED: USER    Estimated Free Energy of Binding    =   -8.02 kcal/mol  [=(1)+(2)+(3)-(4)]
DOCKED: USER    Estimated Inhibition Constant, Ki   =    1.32 uM (micromolar)  [Temperature = 298.15 K]
DOCKED: USER    
DOCKED: USER    (1) Final Intermolecular Energy     =  -11.00 kcal/mol
DOCKED: USER        vdW + Hbond + desolv Energy     =   -7.52 kcal/mol
DOCKED: USER        Electrostatic Energy            =   -3.48 kcal/mol
DOCKED: USER    (2) Final Total Internal Energy     =   -2.10 kcal/mol
DOCKED: USER    (3) Torsional Free Energy           =   +2.98 kcal/mol
DOCKED: USER    (4) Unbound System's Energy  [=(2)] =   -2.10 kcal/mol
DOCKED: USER    
DOCKED: USER    
DOCKED: USER    NEWDPF move heme_O2_opt.pdbqt
DOCKED: USER    NEWDPF about 8.287000 34.468000 -0.670000
DOCKED: USER    NEWDPF tran0 -3.954526 -11.830850 11.131338
DOCKED: USER    NEWDPF quaternion0 -0.461636 -0.344209 0.268183 -0.772328
DOCKED: USER    NEWDPF axisangle0 -0.726730 -0.541870 0.422186 -78.873242
DOCKED: USER    NEWDPF quat0 -0.726730 -0.541870 0.422186 -78.873242
DOCKED: USER    NEWDPF dihe0 95.87 -129.58 60.11 15.82 -15.08 130.04 32.29 70.69 -22.68 163.13 
DOCKED: USER  keepresnum = 1 
DOCKED: USER  
DOCKED: REMARK  10 active torsions:
DOCKED: REMARK  status: ('A' for Active; 'I' for Inactive)
DOCKED: REMARK    1  A    between atoms: C_6  and  C_10 
DOCKED: REMARK    2  A    between atoms: C_10  and  C_11 
DOCKED: REMARK    3  A    between atoms: C_11  and  C_12 
DOCKED: REMARK    4  A    between atoms: C_12  and  O_14 
DOCKED: REMARK    5  A    between atoms: C_17  and  C_20 
DOCKED: REMARK    6  A    between atoms: C_24  and  C_27 
DOCKED: REMARK    7  A    between atoms: C_31  and  C_34 
DOCKED: REMARK    8  A    between atoms: C_34  and  C_35 
DOCKED: REMARK    9  A    between atoms: C_35  and  C_36 
DOCKED: REMARK   10  A    between atoms: C_36  and  O_38 
DOCKED: USER                              x       y       z     vdW  Elec       q    Type
DOCKED: USER                           _______ _______ _______ _____ _____    ______ ____
DOCKED: ROOT
DOCKED: ATOM      1  C   UNL d   1      -4.547 -13.364   9.790 -0.10 +0.03    +0.064 A 
DOCKED: ATOM      2  C   UNL d   1      -6.445 -11.717  13.821 -0.21 +0.04    +0.064 A 
DOCKED: ATOM      3  C   UNL d   1      -2.862  -8.555  14.325 -0.16 +0.01    +0.064 C 
DOCKED: ATOM      4  C   UNL d   1      -1.153  -9.914   9.932 -0.14 +0.01    +0.064 A 
DOCKED: ATOM      5  C   UNL d   1      -5.357 -13.173  10.844 -0.16 +0.03    +0.066 A 
DOCKED: ATOM      6  C   UNL d   1      -6.515 -13.917  11.087 -0.23 -0.01    -0.021 A 
DOCKED: ATOM      7  C   UNL d   1      -7.089 -13.412  12.230 -0.29 -0.01    -0.025 A 
DOCKED: ATOM      8  C   UNL d   1      -6.239 -12.405  12.681 -0.22 +0.03    +0.066 A 
DOCKED: ATOM      9  C   UNL d   1      -8.404 -13.877  12.816 -0.27 +0.02    +0.051 C 
DOCKED: ATOM     10  C   UNL d   1      -5.578 -10.667  14.356 -0.10 +0.04    +0.066 A 
DOCKED: ATOM     11  C   UNL d   1      -5.751 -10.099  15.624 -0.12 -0.01    -0.021 A 
DOCKED: ATOM     12  C   UNL d   1      -4.716  -9.198  15.795 -0.14 +0.00    +0.000 A 
DOCKED: ATOM     13  C   UNL d   1      -3.962  -9.259  14.591 -0.10 +0.03    +0.070 A 
DOCKED: ATOM     14  C   UNL d   1      -6.840 -10.423  16.640 -0.14 +0.02    +0.052 C 
DOCKED: ATOM     15  C   UNL d   1      -2.090  -8.563  13.106 -0.15 +0.01    +0.066 A 
DOCKED: ATOM     16  C   UNL d   1      -1.044  -7.683  12.826 -0.23 -0.00    -0.021 A 
DOCKED: ATOM     17  C   UNL d   1      -0.542  -8.051  11.578 -0.28 +0.00    +0.000 A 
DOCKED: ATOM     18  C   UNL d   1      -1.328  -9.143  11.185 -0.21 +0.01    +0.070 A 
DOCKED: ATOM     19  C   UNL d   1      -0.658  -6.548  13.741 -0.29 +0.00    +0.052 C 
DOCKED: ATOM     20  C   UNL d   1      -1.916 -10.939   9.504 -0.17 +0.01    +0.066 A 
DOCKED: ATOM     21  C   UNL d   1      -1.692 -11.638   8.321 -0.19 -0.01    -0.025 A 
DOCKED: ATOM     22  C   UNL d   1      -2.633 -12.642   8.278 -0.13 -0.01    -0.021 A 
DOCKED: ATOM     23  C   UNL d   1      -3.411 -12.506   9.432 -0.10 +0.02    +0.066 A 
DOCKED: ATOM     24  C   UNL d   1      -0.635 -11.360   7.284 -0.25 +0.01    +0.051 C 
DOCKED: ATOM     25  N   UNL d   1      -5.207 -12.215  11.792 -0.10 -0.11    -0.248 N 
DOCKED: ATOM     26  N   UNL d   1      -4.496 -10.152  13.719 -0.09 -0.13    -0.248 N 
DOCKED: ATOM     27  N   UNL d   1      -2.310  -9.392  12.089 -0.13 -0.06    -0.248 N 
DOCKED: ATOM     28  N   UNL d   1      -3.001 -11.442  10.151 -0.07 -0.07    -0.248 N 
DOCKED: ATOM     29 FE   UNL d   1      -3.741 -10.799  11.922 -0.04 +0.00    +0.000 Fe
DOCKED: ATOM     30  O   UNL d   1      -5.152 -10.216  11.618 -0.30 +0.00    +0.000 OA
DOCKED: ATOM     31  O   UNL d   1      -3.887  -9.619  10.894 -0.34 +0.00    +0.000 OA
DOCKED: ENDROOT
DOCKED: BRANCH   6  32
DOCKED: ATOM     32  C   UNL d   1      -7.136 -14.970  10.207 +0.36 +0.04    +0.052 C 
DOCKED: BRANCH  32  33
DOCKED: ATOM     33  C   UNL d   1      -6.215 -16.163   9.970 -0.13 +0.10    +0.115 C 
DOCKED: BRANCH  33  34
DOCKED: ATOM     34  C   UNL d   1      -6.451 -16.815   8.630 -0.11 +0.20    +0.139 C 
DOCKED: ATOM     35  O   UNL d   1      -5.980 -17.919   8.405 -0.01 -0.69    -0.650 OA
DOCKED: BRANCH  34  36
DOCKED: ATOM     36  O   UNL d   1      -7.150 -16.193   7.659 -0.52 -1.88    -0.776 OA
DOCKED: ATOM     37  H   UNL d   1      -6.716 -15.695   6.956 +0.03 +0.37    +0.167 HD
DOCKED: ENDBRANCH  34  36
DOCKED: ENDBRANCH  33  34
DOCKED: ENDBRANCH  32  33
DOCKED: ENDBRANCH   6  32
DOCKED: BRANCH  22  38
DOCKED: ATOM     38  C   UNL d   1      -2.809 -13.633   7.156 -0.13 +0.02    +0.052 C 
DOCKED: BRANCH  38  39
DOCKED: ATOM     39  C   UNL d   1      -3.870 -13.191   6.151 -0.20 +0.06    +0.115 C 
DOCKED: BRANCH  39  40
DOCKED: ATOM     40  C   UNL d   1      -5.108 -14.050   6.204 -0.20 +0.15    +0.139 C 
DOCKED: ATOM     41  O   UNL d   1      -5.153 -15.088   5.564 -0.34 -1.10    -0.650 OA
DOCKED: BRANCH  40  42
DOCKED: ATOM     42  O   UNL d   1      -6.152 -13.719   6.989 +0.01 -0.90    -0.776 OA
DOCKED: ATOM     43  H   UNL d   1      -6.523 -14.342   7.625 +0.05 +0.22    +0.167 HD
DOCKED: ENDBRANCH  40  42
DOCKED: ENDBRANCH  39  40
DOCKED: ENDBRANCH  38  39
DOCKED: ENDBRANCH  22  38
DOCKED: BRANCH  12  44
DOCKED: ATOM     44  C   UNL d   1      -4.560  -8.385  17.063 -0.13 +0.00    +0.004 C 
DOCKED: ATOM     45  C   UNL d   1      -4.483  -7.060  17.182 -0.17 -0.00    +0.012 C 
DOCKED: ENDBRANCH  12  44
DOCKED: BRANCH  17  46
DOCKED: ATOM     46  C   UNL d   1       0.542  -7.441  10.730 -0.24 +0.00    +0.004 C 
DOCKED: ATOM     47  C   UNL d   1       1.407  -6.474  11.061 -0.30 +0.00    +0.012 C 
DOCKED: ENDBRANCH  17  46
DOCKED: TORSDOF 10
DOCKED: TER
DOCKED: ENDMDL
________________________________________________________________________________


	BEGINNING GENETIC ALGORITHM DOCKING 95 of 100
Run: 95 Seed: 194074036 2127353731 [ Run 95 of 100 GA/GALS ]
Beginning LAMARCKIAN GENETIC ALGORITHM (LGA), with a maximum of 25000000 energy evaluations.

Final-Value: -11.386


	FINAL GENETIC ALGORITHM DOCKED STATE
	_______________________________________________


Detailed state:  trans -6.875 -16.082 11.921 quatxyzw -0.529384 -0.294971 0.389692 -0.693459 center 8.287 34.468 -0.670 ntor 10 99.9572 -5.9858 96.7373 -21.1048 -110.2757 158.3141 -124.6354 -116.4615 171.4476 153.4871
State:	 -6.875 -16.082  11.921  -0.735 -0.409  0.541 -92.191     99.96   -5.99   96.74  -21.10 -110.28  158.31 -124.64 -116.46  171.45  153.49

DOCKED: MODEL       95
DOCKED: USER    Run = 95
DOCKED: USER    DPF = D:/Protein_go_brrr/autodock/final/AncB/heme_O2/dock.dpf
DOCKED: USER  
DOCKED: USER    Estimated Free Energy of Binding    =   -7.75 kcal/mol  [=(1)+(2)+(3)-(4)]
DOCKED: USER    Estimated Inhibition Constant, Ki   =    2.07 uM (micromolar)  [Temperature = 298.15 K]
DOCKED: USER    
DOCKED: USER    (1) Final Intermolecular Energy     =  -10.74 kcal/mol
DOCKED: USER        vdW + Hbond + desolv Energy     =   -6.16 kcal/mol
DOCKED: USER        Electrostatic Energy            =   -4.58 kcal/mol
DOCKED: USER    (2) Final Total Internal Energy     =   -0.65 kcal/mol
DOCKED: USER    (3) Torsional Free Energy           =   +2.98 kcal/mol
DOCKED: USER    (4) Unbound System's Energy  [=(2)] =   -0.65 kcal/mol
DOCKED: USER    
DOCKED: USER    
DOCKED: USER    NEWDPF move heme_O2_opt.pdbqt
DOCKED: USER    NEWDPF about 8.287000 34.468000 -0.670000
DOCKED: USER    NEWDPF tran0 -6.875002 -16.081851 11.921339
DOCKED: USER    NEWDPF quaternion0 -0.529384 -0.294971 0.389692 -0.693459
DOCKED: USER    NEWDPF axisangle0 -0.734749 -0.409400 0.540866 -92.190939
DOCKED: USER    NEWDPF quat0 -0.734749 -0.409400 0.540866 -92.190939
DOCKED: USER    NEWDPF dihe0 99.96 -5.99 96.74 -21.10 -110.28 158.31 -124.64 -116.46 171.45 153.49 
DOCKED: USER  keepresnum = 1 
DOCKED: USER  
DOCKED: REMARK  10 active torsions:
DOCKED: REMARK  status: ('A' for Active; 'I' for Inactive)
DOCKED: REMARK    1  A    between atoms: C_6  and  C_10 
DOCKED: REMARK    2  A    between atoms: C_10  and  C_11 
DOCKED: REMARK    3  A    between atoms: C_11  and  C_12 
DOCKED: REMARK    4  A    between atoms: C_12  and  O_14 
DOCKED: REMARK    5  A    between atoms: C_17  and  C_20 
DOCKED: REMARK    6  A    between atoms: C_24  and  C_27 
DOCKED: REMARK    7  A    between atoms: C_31  and  C_34 
DOCKED: REMARK    8  A    between atoms: C_34  and  C_35 
DOCKED: REMARK    9  A    between atoms: C_35  and  C_36 
DOCKED: REMARK   10  A    between atoms: C_36  and  O_38 
DOCKED: USER                              x       y       z     vdW  Elec       q    Type
DOCKED: USER                           _______ _______ _______ _____ _____    ______ ____
DOCKED: ROOT
DOCKED: ATOM      1  C   UNL d   1      -7.332 -17.998  11.135 -0.08 +0.05    +0.064 A 
DOCKED: ATOM      2  C   UNL d   1      -9.142 -15.497  14.744 -0.04 +0.02    +0.064 A 
DOCKED: ATOM      3  C   UNL d   1      -6.045 -11.913  13.934 -0.18 +0.03    +0.064 C 
DOCKED: ATOM      4  C   UNL d   1      -4.493 -14.269   9.921 -0.06 +0.03    +0.064 A 
DOCKED: ATOM      5  C   UNL d   1      -8.078 -17.610  12.182 -0.10 +0.04    +0.066 A 
DOCKED: ATOM      6  C   UNL d   1      -9.089 -18.387  12.753 -0.09 -0.01    -0.021 A 
DOCKED: ATOM      7  C   UNL d   1      -9.643 -17.646  13.771 -0.10 -0.01    -0.025 A 
DOCKED: ATOM      8  C   UNL d   1      -8.923 -16.456  13.824 -0.08 +0.02    +0.066 A 
DOCKED: ATOM      9  C   UNL d   1     -10.825 -18.077  14.611 -0.09 +0.01    +0.051 C 
DOCKED: ATOM     10  C   UNL d   1      -8.404 -14.239  14.864 -0.14 +0.02    +0.066 A 
DOCKED: ATOM     11  C   UNL d   1      -8.562 -13.353  15.936 -0.13 -0.01    -0.021 A 
DOCKED: ATOM     12  C   UNL d   1      -7.664 -12.322  15.730 -0.14 +0.00    +0.000 A 
DOCKED: ATOM     13  C   UNL d   1      -7.004 -12.638  14.510 -0.15 +0.03    +0.070 A 
DOCKED: ATOM     14  C   UNL d   1      -9.509 -13.498  17.121 -0.09 +0.01    +0.052 C 
DOCKED: ATOM     15  C   UNL d   1      -5.376 -12.179  12.684 -0.15 +0.03    +0.066 A 
DOCKED: ATOM     16  C   UNL d   1      -4.499 -11.298  12.052 -0.19 -0.01    -0.021 A 
DOCKED: ATOM     17  C   UNL d   1      -4.044 -11.948  10.905 -0.15 +0.00    +0.000 A 
DOCKED: ATOM     18  C   UNL d   1      -4.685 -13.195  10.924 -0.10 +0.03    +0.070 A 
DOCKED: ATOM     19  C   UNL d   1      -4.219  -9.908  12.566 -0.07 +0.03    +0.052 C 
DOCKED: ATOM     20  C   UNL d   1      -5.124 -15.459   9.885 -0.06 +0.04    +0.066 A 
DOCKED: ATOM     21  C   UNL d   1      -4.888 -16.439   8.925 -0.04 -0.02    -0.025 A 
DOCKED: ATOM     22  C   UNL d   1      -5.668 -17.519   9.271 -0.05 -0.02    -0.021 A 
DOCKED: ATOM     23  C   UNL d   1      -6.368 -17.150  10.424 -0.08 +0.05    +0.066 A 
DOCKED: ATOM     24  C   UNL d   1      -3.968 -16.347   7.736 -0.03 +0.03    +0.051 C 
DOCKED: ATOM     25  N   UNL d   1      -8.002 -16.407  12.803 -0.09 -0.12    -0.248 N 
DOCKED: ATOM     26  N   UNL d   1      -7.463 -13.803  13.988 -0.10 -0.09    -0.248 N 
DOCKED: ATOM     27  N   UNL d   1      -5.547 -13.288  11.969 -0.07 -0.10    -0.248 N 
DOCKED: ATOM     28  N   UNL d   1      -6.068 -15.881  10.768 -0.06 -0.16    -0.248 N 
DOCKED: ATOM     29 FE   UNL d   1      -6.759 -14.847  12.365 -0.03 +0.00    +0.000 Fe
DOCKED: ATOM     30  O   UNL d   1      -8.260 -14.554  12.077 -0.28 +0.00    +0.000 OA
DOCKED: ATOM     31  O   UNL d   1      -7.158 -14.043  11.074 -0.34 +0.00    +0.000 OA
DOCKED: ENDROOT
DOCKED: BRANCH   6  32
DOCKED: ATOM     32  C   UNL d   1      -9.611 -19.718  12.278 -0.04 +0.03    +0.052 C 
DOCKED: BRANCH  32  33
DOCKED: ATOM     33  C   UNL d   1     -10.968 -19.611  11.589 -0.08 +0.07    +0.115 C 
DOCKED: BRANCH  33  34
DOCKED: ATOM     34  C   UNL d   1     -10.969 -18.592  10.476 -0.08 +0.18    +0.139 C 
DOCKED: ATOM     35  O   UNL d   1     -10.839 -18.962   9.320 +0.06 -1.14    -0.650 OA
DOCKED: BRANCH  34  36
DOCKED: ATOM     36  O   UNL d   1     -11.084 -17.272  10.730 -0.72 -1.32    -0.776 OA
DOCKED: ATOM     37  H   UNL d   1     -10.319 -16.685  10.737 -0.47 +0.33    +0.167 HD
DOCKED: ENDBRANCH  34  36
DOCKED: ENDBRANCH  33  34
DOCKED: ENDBRANCH  32  33
DOCKED: ENDBRANCH   6  32
DOCKED: BRANCH  22  38
DOCKED: ATOM     38  C   UNL d   1      -5.779 -18.806   8.495 -0.02 +0.04    +0.052 C 
DOCKED: BRANCH  38  39
DOCKED: ATOM     39  C   UNL d   1      -7.089 -18.906   7.716 -0.06 +0.15    +0.115 C 
DOCKED: BRANCH  39  40
DOCKED: ATOM     40  C   UNL d   1      -7.223 -17.824   6.674 -0.08 +0.29    +0.139 C 
DOCKED: ATOM     41  O   UNL d   1      -7.159 -16.651   7.005 -0.45 -1.68    -0.650 OA
DOCKED: BRANCH  40  42
DOCKED: ATOM     42  O   UNL d   1      -7.361 -18.129   5.369 +0.09 -1.75    -0.776 OA
DOCKED: ATOM     43  H   UNL d   1      -7.333 -19.042   5.058 +0.02 +0.26    +0.167 HD
DOCKED: ENDBRANCH  40  42
DOCKED: ENDBRANCH  39  40
DOCKED: ENDBRANCH  38  39
DOCKED: ENDBRANCH  22  38
DOCKED: BRANCH  12  44
DOCKED: ATOM     44  C   UNL d   1      -7.535 -11.163  16.696 -0.14 +0.00    +0.004 C 
DOCKED: ATOM     45  C   UNL d   1      -8.228 -10.025  16.707 -0.26 +0.01    +0.012 C 
DOCKED: ENDBRANCH  12  44
DOCKED: BRANCH  17  46
DOCKED: ATOM     46  C   UNL d   1      -3.132 -11.483   9.802 -0.20 +0.00    +0.004 C 
DOCKED: ATOM     47  C   UNL d   1      -2.928 -10.233   9.367 -0.37 +0.00    +0.012 C 
DOCKED: ENDBRANCH  17  46
DOCKED: TORSDOF 10
DOCKED: TER
DOCKED: ENDMDL
________________________________________________________________________________


	BEGINNING GENETIC ALGORITHM DOCKING 96 of 100
Run: 96 Seed: 1811991174 1630158044 [ Run 96 of 100 GA/GALS ]
Beginning LAMARCKIAN GENETIC ALGORITHM (LGA), with a maximum of 25000000 energy evaluations.

Final-Value: -20.248


	FINAL GENETIC ALGORITHM DOCKED STATE
	_______________________________________________


Detailed state:  trans 0.220 -1.552 -8.670 quatxyzw -0.280215 -0.313688 -0.221175 -0.879864 center 8.287 34.468 -0.670 ntor 10 29.4695 172.8051 20.6616 14.1778 -132.5098 23.2113 -16.8451 72.8855 178.2374 169.0786
State:	  0.220  -1.552  -8.670  -0.590 -0.660 -0.465 -56.748     29.47  172.81   20.66   14.18 -132.51   23.21  -16.85   72.89  178.24  169.08

DOCKED: MODEL       96
DOCKED: USER    Run = 96
DOCKED: USER    DPF = D:/Protein_go_brrr/autodock/final/AncB/heme_O2/dock.dpf
DOCKED: USER  
DOCKED: USER    Estimated Free Energy of Binding    =  -15.15 kcal/mol  [=(1)+(2)+(3)-(4)]
DOCKED: USER    Estimated Inhibition Constant, Ki   =    7.78 pM (picomolar)  [Temperature = 298.15 K]
DOCKED: USER    
DOCKED: USER    (1) Final Intermolecular Energy     =  -18.14 kcal/mol
DOCKED: USER        vdW + Hbond + desolv Energy     =  -15.37 kcal/mol
DOCKED: USER        Electrostatic Energy            =   -2.77 kcal/mol
DOCKED: USER    (2) Final Total Internal Energy     =   -2.11 kcal/mol
DOCKED: USER    (3) Torsional Free Energy           =   +2.98 kcal/mol
DOCKED: USER    (4) Unbound System's Energy  [=(2)] =   -2.11 kcal/mol
DOCKED: USER    
DOCKED: USER    
DOCKED: USER    NEWDPF move heme_O2_opt.pdbqt
DOCKED: USER    NEWDPF about 8.287000 34.468000 -0.670000
DOCKED: USER    NEWDPF tran0 0.220263 -1.551500 -8.669923
DOCKED: USER    NEWDPF quaternion0 -0.280215 -0.313688 -0.221175 -0.879864
DOCKED: USER    NEWDPF axisangle0 -0.589647 -0.660083 -0.465410 -56.748045
DOCKED: USER    NEWDPF quat0 -0.589647 -0.660083 -0.465410 -56.748045
DOCKED: USER    NEWDPF dihe0 29.47 172.81 20.66 14.18 -132.51 23.21 -16.85 72.89 178.24 169.08 
DOCKED: USER  keepresnum = 1 
DOCKED: USER  
DOCKED: REMARK  10 active torsions:
DOCKED: REMARK  status: ('A' for Active; 'I' for Inactive)
DOCKED: REMARK    1  A    between atoms: C_6  and  C_10 
DOCKED: REMARK    2  A    between atoms: C_10  and  C_11 
DOCKED: REMARK    3  A    between atoms: C_11  and  C_12 
DOCKED: REMARK    4  A    between atoms: C_12  and  O_14 
DOCKED: REMARK    5  A    between atoms: C_17  and  C_20 
DOCKED: REMARK    6  A    between atoms: C_24  and  C_27 
DOCKED: REMARK    7  A    between atoms: C_31  and  C_34 
DOCKED: REMARK    8  A    between atoms: C_34  and  C_35 
DOCKED: REMARK    9  A    between atoms: C_35  and  C_36 
DOCKED: REMARK   10  A    between atoms: C_36  and  O_38 
DOCKED: USER                              x       y       z     vdW  Elec       q    Type
DOCKED: USER                           _______ _______ _______ _____ _____    ______ ____
DOCKED: ROOT
DOCKED: ATOM      1  C   UNL d   1      -0.416  -1.209 -10.664 -0.27 +0.04    +0.064 A 
DOCKED: ATOM      2  C   UNL d   1      -2.715  -1.150  -6.508 -0.38 +0.02    +0.064 A 
DOCKED: ATOM      3  C   UNL d   1       1.309  -2.331  -4.161 -0.38 +0.01    +0.064 C 
DOCKED: ATOM      4  C   UNL d   1       3.788  -1.928  -8.374 -0.42 +0.02    +0.064 A 
DOCKED: ATOM      5  C   UNL d   1      -1.369  -1.095  -9.725 -0.30 +0.04    +0.066 A 
DOCKED: ATOM      6  C   UNL d   1      -2.704  -0.784  -9.999 -0.32 -0.02    -0.021 A 
DOCKED: ATOM      7  C   UNL d   1      -3.362  -0.724  -8.792 -0.33 -0.01    -0.025 A 
DOCKED: ATOM      8  C   UNL d   1      -2.421  -1.047  -7.819 -0.36 +0.03    +0.066 A 
DOCKED: ATOM      9  C   UNL d   1      -4.815  -0.342  -8.617 -0.36 +0.02    +0.051 C 
DOCKED: ATOM     10  C   UNL d   1      -1.776  -1.507  -5.444 -0.41 +0.02    +0.066 A 
DOCKED: ATOM     11  C   UNL d   1      -2.168  -1.759  -4.125 -0.49 -0.00    -0.021 A 
DOCKED: ATOM     12  C   UNL d   1      -1.025  -2.119  -3.436 -0.43 +0.00    +0.000 A 
DOCKED: ATOM     13  C   UNL d   1       0.026  -2.053  -4.393 -0.39 +0.01    +0.070 A 
DOCKED: ATOM     14  C   UNL d   1      -3.579  -1.687  -3.552 -0.58 +0.01    +0.052 C 
DOCKED: ATOM     15  C   UNL d   1       2.407  -2.242  -5.093 -0.38 +0.01    +0.066 A 
DOCKED: ATOM     16  C   UNL d   1       3.750  -2.388  -4.747 -0.51 -0.00    -0.021 A 
DOCKED: ATOM     17  C   UNL d   1       4.476  -2.276  -5.933 -0.51 +0.00    +0.000 A 
DOCKED: ATOM     18  C   UNL d   1       3.509  -2.070  -6.926 -0.42 +0.02    +0.070 A 
DOCKED: ATOM     19  C   UNL d   1       4.219  -2.564  -3.325 -0.49 +0.00    +0.052 C 
DOCKED: ATOM     20  C   UNL d   1       2.889  -1.686  -9.348 -0.42 +0.02    +0.066 A 
DOCKED: ATOM     21  C   UNL d   1       3.210  -1.580 -10.698 -0.47 -0.01    -0.025 A 
DOCKED: ATOM     22  C   UNL d   1       2.021  -1.402 -11.369 -0.24 -0.01    -0.021 A 
DOCKED: ATOM     23  C   UNL d   1       1.016  -1.388 -10.397 -0.17 +0.03    +0.066 A 
DOCKED: ATOM     24  C   UNL d   1       4.583  -1.641 -11.317 -0.39 +0.01    +0.051 C 
DOCKED: ATOM     25  N   UNL d   1      -1.179  -1.211  -8.388 -0.22 -0.12    -0.248 N 
DOCKED: ATOM     26  N   UNL d   1      -0.439  -1.675  -5.611 -0.25 -0.06    -0.248 N 
DOCKED: ATOM     27  N   UNL d   1       2.266  -1.977  -6.388 -0.24 -0.07    -0.248 N 
DOCKED: ATOM     28  N   UNL d   1       1.552  -1.516  -9.166 -0.02 -0.14    -0.248 N 
DOCKED: ATOM     29 FE   UNL d   1       0.566  -1.595  -7.400 -0.09 +0.00    +0.000 Fe
DOCKED: ATOM     30  O   UNL d   1       0.005  -0.165  -7.151 -0.30 +0.00    +0.000 OA
DOCKED: ATOM     31  O   UNL d   1       1.555  -0.374  -7.333 -1.05 +0.00    +0.000 OA
DOCKED: ENDROOT
DOCKED: BRANCH   6  32
DOCKED: ATOM     32  C   UNL d   1      -3.314  -0.422 -11.328 -0.26 +0.07    +0.052 C 
DOCKED: BRANCH  32  33
DOCKED: ATOM     33  C   UNL d   1      -3.459   1.085 -11.522 -0.16 +0.12    +0.115 C 
DOCKED: BRANCH  33  34
DOCKED: ATOM     34  C   UNL d   1      -3.624   1.465 -12.973 -0.13 +0.21    +0.139 C 
DOCKED: ATOM     35  O   UNL d   1      -4.700   1.292 -13.523 -0.11 -0.95    -0.650 OA
DOCKED: BRANCH  34  36
DOCKED: ATOM     36  O   UNL d   1      -2.598   1.968 -13.689 -0.16 -1.40    -0.776 OA
DOCKED: ATOM     37  H   UNL d   1      -1.681   1.736 -13.501 +0.05 +0.23    +0.167 HD
DOCKED: ENDBRANCH  34  36
DOCKED: ENDBRANCH  33  34
DOCKED: ENDBRANCH  32  33
DOCKED: ENDBRANCH   6  32
DOCKED: BRANCH  22  38
DOCKED: ATOM     38  C   UNL d   1       1.872  -1.193 -12.853 -0.30 +0.02    +0.052 C 
DOCKED: BRANCH  38  39
DOCKED: ATOM     39  C   UNL d   1       1.948   0.281 -13.244 -0.22 +0.05    +0.115 C 
DOCKED: BRANCH  39  40
DOCKED: ATOM     40  C   UNL d   1       0.610   0.835 -13.665 -0.10 +0.10    +0.139 C 
DOCKED: ATOM     41  O   UNL d   1       0.464   2.040 -13.790 -0.05 -0.53    -0.650 OA
DOCKED: BRANCH  40  42
DOCKED: ATOM     42  O   UNL d   1      -0.420   0.018 -13.958 +0.04 -0.79    -0.776 OA
DOCKED: ATOM     43  H   UNL d   1      -1.296   0.364 -14.167 +0.04 +0.22    +0.167 HD
DOCKED: ENDBRANCH  40  42
DOCKED: ENDBRANCH  39  40
DOCKED: ENDBRANCH  38  39
DOCKED: ENDBRANCH  22  38
DOCKED: BRANCH  12  44
DOCKED: ATOM     44  C   UNL d   1      -1.051  -2.478  -1.965 -0.50 +0.00    +0.004 C 
DOCKED: ATOM     45  C   UNL d   1      -0.023  -2.550  -1.121 -0.61 +0.00    +0.012 C 
DOCKED: ENDBRANCH  12  44
DOCKED: BRANCH  17  46
DOCKED: ATOM     46  C   UNL d   1       5.960  -2.289  -6.188 -0.66 +0.00    +0.004 C 
DOCKED: ATOM     47  C   UNL d   1       6.947  -2.552  -5.322 -0.64 +0.00    +0.012 C 
DOCKED: ENDBRANCH  17  46
DOCKED: TORSDOF 10
DOCKED: TER
DOCKED: ENDMDL
________________________________________________________________________________


	BEGINNING GENETIC ALGORITHM DOCKING 97 of 100
Run: 97 Seed: 830025520 465319120 [ Run 97 of 100 GA/GALS ]
Beginning LAMARCKIAN GENETIC ALGORITHM (LGA), with a maximum of 25000000 energy evaluations.

Final-Value: -12.518


	FINAL GENETIC ALGORITHM DOCKED STATE
	_______________________________________________


Detailed state:  trans -3.554 -11.496 10.976 quatxyzw -0.428033 -0.380293 0.259384 -0.777744 center 8.287 34.468 -0.670 ntor 10 63.1405 55.3071 80.0096 12.2784 -176.4818 -50.9295 -19.4488 -19.8159 -123.8641 -5.1058
State:	 -3.554 -11.496  10.976  -0.681 -0.605  0.413 -77.891     63.14   55.31   80.01   12.28 -176.48  -50.93  -19.45  -19.82 -123.86   -5.11

DOCKED: MODEL       97
DOCKED: USER    Run = 97
DOCKED: USER    DPF = D:/Protein_go_brrr/autodock/final/AncB/heme_O2/dock.dpf
DOCKED: USER  
DOCKED: USER    Estimated Free Energy of Binding    =   -8.10 kcal/mol  [=(1)+(2)+(3)-(4)]
DOCKED: USER    Estimated Inhibition Constant, Ki   =    1.16 uM (micromolar)  [Temperature = 298.15 K]
DOCKED: USER    
DOCKED: USER    (1) Final Intermolecular Energy     =  -11.08 kcal/mol
DOCKED: USER        vdW + Hbond + desolv Energy     =   -7.92 kcal/mol
DOCKED: USER        Electrostatic Energy            =   -3.16 kcal/mol
DOCKED: USER    (2) Final Total Internal Energy     =   -1.44 kcal/mol
DOCKED: USER    (3) Torsional Free Energy           =   +2.98 kcal/mol
DOCKED: USER    (4) Unbound System's Energy  [=(2)] =   -1.44 kcal/mol
DOCKED: USER    
DOCKED: USER    
DOCKED: USER    NEWDPF move heme_O2_opt.pdbqt
DOCKED: USER    NEWDPF about 8.287000 34.468000 -0.670000
DOCKED: USER    NEWDPF tran0 -3.554151 -11.495670 10.975776
DOCKED: USER    NEWDPF quaternion0 -0.428033 -0.380293 0.259384 -0.777744
DOCKED: USER    NEWDPF axisangle0 -0.680950 -0.605002 0.412649 -77.891112
DOCKED: USER    NEWDPF quat0 -0.680950 -0.605002 0.412649 -77.891112
DOCKED: USER    NEWDPF dihe0 63.14 55.31 80.01 12.28 -176.48 -50.93 -19.45 -19.82 -123.86 -5.11 
DOCKED: USER  keepresnum = 1 
DOCKED: USER  
DOCKED: REMARK  10 active torsions:
DOCKED: REMARK  status: ('A' for Active; 'I' for Inactive)
DOCKED: REMARK    1  A    between atoms: C_6  and  C_10 
DOCKED: REMARK    2  A    between atoms: C_10  and  C_11 
DOCKED: REMARK    3  A    between atoms: C_11  and  C_12 
DOCKED: REMARK    4  A    between atoms: C_12  and  O_14 
DOCKED: REMARK    5  A    between atoms: C_17  and  C_20 
DOCKED: REMARK    6  A    between atoms: C_24  and  C_27 
DOCKED: REMARK    7  A    between atoms: C_31  and  C_34 
DOCKED: REMARK    8  A    between atoms: C_34  and  C_35 
DOCKED: REMARK    9  A    between atoms: C_35  and  C_36 
DOCKED: REMARK   10  A    between atoms: C_36  and  O_38 
DOCKED: USER                              x       y       z     vdW  Elec       q    Type
DOCKED: USER                           _______ _______ _______ _____ _____    ______ ____
DOCKED: ROOT
DOCKED: ATOM      1  C   UNL d   1      -4.028 -12.933   9.490 -0.10 +0.03    +0.064 A 
DOCKED: ATOM      2  C   UNL d   1      -6.154 -11.701  13.554 -0.20 +0.04    +0.064 A 
DOCKED: ATOM      3  C   UNL d   1      -2.728  -8.457  14.470 -0.17 +0.01    +0.064 C 
DOCKED: ATOM      4  C   UNL d   1      -0.789  -9.380  10.060 +0.03 +0.01    +0.064 A 
DOCKED: ATOM      5  C   UNL d   1      -4.887 -12.861  10.520 -0.14 +0.03    +0.066 A 
DOCKED: ATOM      6  C   UNL d   1      -6.022 -13.667  10.650 -0.22 -0.01    -0.021 A 
DOCKED: ATOM      7  C   UNL d   1      -6.662 -13.281  11.804 -0.26 -0.01    -0.025 A 
DOCKED: ATOM      8  C   UNL d   1      -5.874 -12.284  12.373 -0.20 +0.03    +0.066 A 
DOCKED: ATOM      9  C   UNL d   1      -7.979 -13.843  12.293 -0.24 +0.03    +0.051 C 
DOCKED: ATOM     10  C   UNL d   1      -5.354 -10.666  14.211 -0.11 +0.04    +0.066 A 
DOCKED: ATOM     11  C   UNL d   1      -5.601 -10.213  15.511 -0.12 -0.01    -0.021 A 
DOCKED: ATOM     12  C   UNL d   1      -4.613  -9.290  15.801 -0.14 +0.00    +0.000 A 
DOCKED: ATOM     13  C   UNL d   1      -3.808  -9.222  14.629 -0.13 +0.03    +0.070 A 
DOCKED: ATOM     14  C   UNL d   1      -6.716 -10.661  16.449 -0.14 +0.02    +0.052 C 
DOCKED: ATOM     15  C   UNL d   1      -1.908  -8.334  13.289 -0.16 +0.01    +0.066 A 
DOCKED: ATOM     16  C   UNL d   1      -0.890  -7.395  13.128 -0.23 -0.00    -0.021 A 
DOCKED: ATOM     17  C   UNL d   1      -0.323  -7.638  11.877 -0.28 +0.00    +0.000 A 
DOCKED: ATOM     18  C   UNL d   1      -1.047  -8.723  11.363 -0.23 +0.01    +0.070 A 
DOCKED: ATOM     19  C   UNL d   1      -0.589  -6.325  14.148 -0.29 +0.00    +0.052 C 
DOCKED: ATOM     20  C   UNL d   1      -1.491 -10.394   9.517 -0.17 +0.01    +0.066 A 
DOCKED: ATOM     21  C   UNL d   1      -1.190 -10.984   8.292 -0.20 -0.01    -0.025 A 
DOCKED: ATOM     22  C   UNL d   1      -2.085 -12.016   8.126 -0.18 -0.01    -0.021 A 
DOCKED: ATOM     23  C   UNL d   1      -2.915 -12.007   9.252 -0.13 +0.02    +0.066 A 
DOCKED: ATOM     24  C   UNL d   1      -0.104 -10.581   7.328 -0.15 +0.01    +0.051 C 
DOCKED: ATOM     25  N   UNL d   1      -4.816 -11.980  11.547 -0.10 -0.10    -0.248 N 
DOCKED: ATOM     26  N   UNL d   1      -4.269 -10.059  13.666 -0.10 -0.12    -0.248 N 
DOCKED: ATOM     27  N   UNL d   1      -2.053  -9.084  12.200 -0.13 -0.06    -0.248 N 
DOCKED: ATOM     28  N   UNL d   1      -2.578 -10.991  10.073 -0.09 -0.06    -0.248 N 
DOCKED: ATOM     29 FE   UNL d   1      -3.416 -10.526  11.856 -0.04 +0.00    +0.000 Fe
DOCKED: ATOM     30  O   UNL d   1      -4.836  -9.974  11.539 -0.33 +0.00    +0.000 OA
DOCKED: ATOM     31  O   UNL d   1      -3.569  -9.270  10.922 -0.34 +0.00    +0.000 OA
DOCKED: ENDROOT
DOCKED: BRANCH   6  32
DOCKED: ATOM     32  C   UNL d   1      -6.562 -14.667   9.661 -0.15 +0.04    +0.052 C 
DOCKED: BRANCH  32  33
DOCKED: ATOM     33  C   UNL d   1      -6.467 -14.183   8.217 -0.27 +0.12    +0.115 C 
DOCKED: BRANCH  33  34
DOCKED: ATOM     34  C   UNL d   1      -6.503 -15.320   7.226 -0.18 +0.25    +0.139 C 
DOCKED: ATOM     35  O   UNL d   1      -7.156 -16.320   7.478 -0.56 -1.61    -0.650 OA
DOCKED: BRANCH  34  36
DOCKED: ATOM     36  O   UNL d   1      -5.804 -15.270   6.073 -0.42 -1.65    -0.776 OA
DOCKED: ATOM     37  H   UNL d   1      -4.840 -15.228   6.061 +0.05 +0.22    +0.167 HD
DOCKED: ENDBRANCH  34  36
DOCKED: ENDBRANCH  33  34
DOCKED: ENDBRANCH  32  33
DOCKED: ENDBRANCH   6  32
DOCKED: BRANCH  22  38
DOCKED: ATOM     38  C   UNL d   1      -2.175 -12.916   6.921 -0.18 +0.02    +0.052 C 
DOCKED: BRANCH  38  39
DOCKED: ATOM     39  C   UNL d   1      -1.430 -14.234   7.123 -0.07 +0.03    +0.115 C 
DOCKED: BRANCH  39  40
DOCKED: ATOM     40  C   UNL d   1      -1.909 -15.316   6.187 -0.06 +0.06    +0.139 C 
DOCKED: ATOM     41  O   UNL d   1      -1.336 -15.495   5.124 +0.01 -0.26    -0.650 OA
DOCKED: BRANCH  40  42
DOCKED: ATOM     42  O   UNL d   1      -2.930 -16.126   6.525 +0.05 -0.44    -0.776 OA
DOCKED: ATOM     43  H   UNL d   1      -3.801 -15.775   6.745 +0.04 +0.12    +0.167 HD
DOCKED: ENDBRANCH  40  42
DOCKED: ENDBRANCH  39  40
DOCKED: ENDBRANCH  38  39
DOCKED: ENDBRANCH  22  38
DOCKED: BRANCH  12  44
DOCKED: ATOM     44  C   UNL d   1      -4.542  -8.580  17.136 -0.12 +0.00    +0.004 C 
DOCKED: ATOM     45  C   UNL d   1      -4.881  -7.321  17.414 -0.16 -0.00    +0.012 C 
DOCKED: ENDBRANCH  12  44
DOCKED: BRANCH  17  46
DOCKED: ATOM     46  C   UNL d   1       0.768  -6.919  11.130 -0.31 +0.00    +0.004 C 
DOCKED: ATOM     47  C   UNL d   1       1.535  -5.907  11.555 -0.32 +0.00    +0.012 C 
DOCKED: ENDBRANCH  17  46
DOCKED: TORSDOF 10
DOCKED: TER
DOCKED: ENDMDL
________________________________________________________________________________


	BEGINNING GENETIC ALGORITHM DOCKING 98 of 100
Run: 98 Seed: 112561586 1532873277 [ Run 98 of 100 GA/GALS ]
Beginning LAMARCKIAN GENETIC ALGORITHM (LGA), with a maximum of 25000000 energy evaluations.

Final-Value: -10.816


	FINAL GENETIC ALGORITHM DOCKED STATE
	_______________________________________________


Detailed state:  trans -2.599 -15.359 5.782 quatxyzw 0.608128 0.294673 0.669912 -0.307516 center 8.287 34.468 -0.670 ntor 10 26.6137 108.2492 -122.3091 56.2089 -137.9817 -173.8504 100.9790 85.0520 16.8104 -5.6811
State:	 -2.599 -15.359   5.782   0.639  0.310  0.704 -144.181     26.61  108.25 -122.31   56.21 -137.98 -173.85  100.98   85.05   16.81   -5.68

DOCKED: MODEL       98
DOCKED: USER    Run = 98
DOCKED: USER    DPF = D:/Protein_go_brrr/autodock/final/AncB/heme_O2/dock.dpf
DOCKED: USER  
DOCKED: USER    Estimated Free Energy of Binding    =   -7.20 kcal/mol  [=(1)+(2)+(3)-(4)]
DOCKED: USER    Estimated Inhibition Constant, Ki   =    5.25 uM (micromolar)  [Temperature = 298.15 K]
DOCKED: USER    
DOCKED: USER    (1) Final Intermolecular Energy     =  -10.19 kcal/mol
DOCKED: USER        vdW + Hbond + desolv Energy     =   -5.57 kcal/mol
DOCKED: USER        Electrostatic Energy            =   -4.61 kcal/mol
DOCKED: USER    (2) Final Total Internal Energy     =   -0.63 kcal/mol
DOCKED: USER    (3) Torsional Free Energy           =   +2.98 kcal/mol
DOCKED: USER    (4) Unbound System's Energy  [=(2)] =   -0.63 kcal/mol
DOCKED: USER    
DOCKED: USER    
DOCKED: USER    NEWDPF move heme_O2_opt.pdbqt
DOCKED: USER    NEWDPF about 8.287000 34.468000 -0.670000
DOCKED: USER    NEWDPF tran0 -2.599225 -15.359296 5.781838
DOCKED: USER    NEWDPF quaternion0 0.608128 0.294673 0.669912 -0.307516
DOCKED: USER    NEWDPF axisangle0 0.639097 0.309679 0.704027 -144.180863
DOCKED: USER    NEWDPF quat0 0.639097 0.309679 0.704027 -144.180863
DOCKED: USER    NEWDPF dihe0 26.61 108.25 -122.31 56.21 -137.98 -173.85 100.98 85.05 16.81 -5.68 
DOCKED: USER  keepresnum = 1 
DOCKED: USER  
DOCKED: REMARK  10 active torsions:
DOCKED: REMARK  status: ('A' for Active; 'I' for Inactive)
DOCKED: REMARK    1  A    between atoms: C_6  and  C_10 
DOCKED: REMARK    2  A    between atoms: C_10  and  C_11 
DOCKED: REMARK    3  A    between atoms: C_11  and  C_12 
DOCKED: REMARK    4  A    between atoms: C_12  and  O_14 
DOCKED: REMARK    5  A    between atoms: C_17  and  C_20 
DOCKED: REMARK    6  A    between atoms: C_24  and  C_27 
DOCKED: REMARK    7  A    between atoms: C_31  and  C_34 
DOCKED: REMARK    8  A    between atoms: C_34  and  C_35 
DOCKED: REMARK    9  A    between atoms: C_35  and  C_36 
DOCKED: REMARK   10  A    between atoms: C_36  and  O_38 
DOCKED: USER                              x       y       z     vdW  Elec       q    Type
DOCKED: USER                           _______ _______ _______ _____ _____    ______ ____
DOCKED: ROOT
DOCKED: ATOM      1  C   UNL d   1      -3.295 -17.200   4.991 -0.04 +0.05    +0.064 A 
DOCKED: ATOM      2  C   UNL d   1       0.460 -14.480   3.960 -0.07 +0.02    +0.064 A 
DOCKED: ATOM      3  C   UNL d   1      -0.852 -11.254   7.272 -0.27 +0.01    +0.064 C 
DOCKED: ATOM      4  C   UNL d   1      -4.454 -14.276   8.671 -0.07 +0.04    +0.064 A 
DOCKED: ATOM      5  C   UNL d   1      -2.166 -16.725   4.441 -0.06 +0.04    +0.066 A 
DOCKED: ATOM      6  C   UNL d   1      -1.469 -17.360   3.409 -0.05 -0.01    -0.021 A 
DOCKED: ATOM      7  C   UNL d   1      -0.359 -16.595   3.139 -0.07 -0.01    -0.025 A 
DOCKED: ATOM      8  C   UNL d   1      -0.433 -15.489   3.981 -0.03 +0.03    +0.066 A 
DOCKED: ATOM      9  C   UNL d   1       0.717 -16.955   2.138 -0.05 +0.01    +0.051 C 
DOCKED: ATOM     10  C   UNL d   1       0.422 -13.284   4.802 -0.06 +0.02    +0.066 A 
DOCKED: ATOM     11  C   UNL d   1       1.279 -12.192   4.626 -0.19 -0.00    -0.021 A 
DOCKED: ATOM     12  C   UNL d   1       0.904 -11.243   5.560 -0.27 +0.00    +0.000 A 
DOCKED: ATOM     13  C   UNL d   1      -0.176 -11.829   6.277 -0.18 +0.01    +0.070 A 
DOCKED: ATOM     14  C   UNL d   1       2.390 -12.048   3.592 -0.21 +0.01    +0.052 C 
DOCKED: ATOM     15  C   UNL d   1      -1.927 -11.826   8.045 -0.19 +0.02    +0.066 A 
DOCKED: ATOM     16  C   UNL d   1      -2.484 -11.238   9.181 -0.20 -0.01    -0.021 A 
DOCKED: ATOM     17  C   UNL d   1      -3.513 -12.083   9.598 -0.15 +0.00    +0.000 A 
DOCKED: ATOM     18  C   UNL d   1      -3.508 -13.136   8.672 -0.09 +0.03    +0.070 A 
DOCKED: ATOM     19  C   UNL d   1      -1.954  -9.965   9.791 -0.29 +0.01    +0.052 C 
DOCKED: ATOM     20  C   UNL d   1      -4.449 -15.325   7.825 -0.05 +0.05    +0.066 A 
DOCKED: ATOM     21  C   UNL d   1      -5.378 -16.361   7.862 -0.09 -0.03    -0.025 A 
DOCKED: ATOM     22  C   UNL d   1      -5.080 -17.190   6.804 -0.05 -0.02    -0.021 A 
DOCKED: ATOM     23  C   UNL d   1      -3.965 -16.635   6.168 -0.04 +0.06    +0.066 A 
DOCKED: ATOM     24  C   UNL d   1      -6.491 -16.554   8.860 -0.14 +0.07    +0.051 C 
DOCKED: ATOM     25  N   UNL d   1      -1.511 -15.602   4.828 -0.03 -0.11    -0.248 N 
DOCKED: ATOM     26  N   UNL d   1      -0.460 -13.072   5.812 -0.06 -0.07    -0.248 N 
DOCKED: ATOM     27  N   UNL d   1      -2.491 -13.002   7.782 -0.06 -0.08    -0.248 N 
DOCKED: ATOM     28  N   UNL d   1      -3.557 -15.526   6.819 -0.02 -0.16    -0.248 N 
DOCKED: ATOM     29 FE   UNL d   1      -2.021 -14.306   6.322 -0.03 +0.00    +0.000 Fe
DOCKED: ATOM     30  O   UNL d   1      -0.718 -15.110   6.604 -0.05 +0.00    +0.000 OA
DOCKED: ATOM     31  O   UNL d   1      -1.743 -14.848   7.772 -0.04 +0.00    +0.000 OA
DOCKED: ENDROOT
DOCKED: BRANCH   6  32
DOCKED: ATOM     32  C   UNL d   1      -1.758 -18.704   2.792 -0.03 +0.02    +0.052 C 
DOCKED: BRANCH  32  33
DOCKED: ATOM     33  C   UNL d   1      -2.489 -18.598   1.457 -0.09 +0.07    +0.115 C 
DOCKED: BRANCH  33  34
DOCKED: ATOM     34  C   UNL d   1      -3.974 -18.389   1.629 -0.04 +0.17    +0.139 C 
DOCKED: ATOM     35  O   UNL d   1      -4.388 -17.318   2.043 -0.31 -1.04    -0.650 OA
DOCKED: BRANCH  34  36
DOCKED: ATOM     36  O   UNL d   1      -4.858 -19.372   1.363 -0.47 -1.13    -0.776 OA
DOCKED: ATOM     37  H   UNL d   1      -4.620 -20.305   1.426 +0.02 +0.15    +0.167 HD
DOCKED: ENDBRANCH  34  36
DOCKED: ENDBRANCH  33  34
DOCKED: ENDBRANCH  32  33
DOCKED: ENDBRANCH   6  32
DOCKED: BRANCH  22  38
DOCKED: ATOM     38  C   UNL d   1      -5.791 -18.475   6.467 -0.05 +0.06    +0.052 C 
DOCKED: BRANCH  38  39
DOCKED: ATOM     39  C   UNL d   1      -6.869 -18.282   5.403 +0.08 +0.22    +0.115 C 
DOCKED: BRANCH  39  40
DOCKED: ATOM     40  C   UNL d   1      -8.242 -18.097   6.001 -0.05 +0.32    +0.139 C 
DOCKED: ATOM     41  O   UNL d   1      -8.510 -18.615   7.073 +0.03 -1.45    -0.650 OA
DOCKED: BRANCH  40  42
DOCKED: ATOM     42  O   UNL d   1      -9.166 -17.326   5.397 -0.26 -2.36    -0.776 OA
DOCKED: ATOM     43  H   UNL d   1      -9.956 -17.706   4.995 +0.03 +0.37    +0.167 HD
DOCKED: ENDBRANCH  40  42
DOCKED: ENDBRANCH  39  40
DOCKED: ENDBRANCH  38  39
DOCKED: ENDBRANCH  22  38
DOCKED: BRANCH  12  44
DOCKED: ATOM     44  C   UNL d   1       1.605  -9.905   5.672 -0.34 +0.00    +0.004 C 
DOCKED: ATOM     45  C   UNL d   1       1.822  -9.012   4.708 -0.34 +0.00    +0.012 C 
DOCKED: ENDBRANCH  12  44
DOCKED: BRANCH  17  46
DOCKED: ATOM     46  C   UNL d   1      -4.429 -12.009  10.790 -0.21 +0.00    +0.004 C 
DOCKED: ATOM     47  C   UNL d   1      -5.153 -10.966  11.216 -0.32 +0.01    +0.012 C 
DOCKED: ENDBRANCH  17  46
DOCKED: TORSDOF 10
DOCKED: TER
DOCKED: ENDMDL
________________________________________________________________________________


	BEGINNING GENETIC ALGORITHM DOCKING 99 of 100
Run: 99 Seed: 243100307 570876200 [ Run 99 of 100 GA/GALS ]
Beginning LAMARCKIAN GENETIC ALGORITHM (LGA), with a maximum of 25000000 energy evaluations.

Final-Value: -14.327


	FINAL GENETIC ALGORITHM DOCKED STATE
	_______________________________________________


Detailed state:  trans 0.114 -0.195 -11.468 quatxyzw -0.359658 0.439913 -0.786605 0.241610 center 8.287 34.468 -0.670 ntor 10 -38.0940 22.1731 60.9195 -89.3265 -104.4302 148.1993 -20.6611 132.2001 4.5162 34.7201
State:	  0.114  -0.195 -11.468  -0.371  0.453 -0.811 152.037    -38.09   22.17   60.92  -89.33 -104.43  148.20  -20.66  132.20    4.52   34.72

DOCKED: MODEL       99
DOCKED: USER    Run = 99
DOCKED: USER    DPF = D:/Protein_go_brrr/autodock/final/AncB/heme_O2/dock.dpf
DOCKED: USER  
DOCKED: USER    Estimated Free Energy of Binding    =  -10.68 kcal/mol  [=(1)+(2)+(3)-(4)]
DOCKED: USER    Estimated Inhibition Constant, Ki   =   14.83 nM (nanomolar)  [Temperature = 298.15 K]
DOCKED: USER    
DOCKED: USER    (1) Final Intermolecular Energy     =  -13.66 kcal/mol
DOCKED: USER        vdW + Hbond + desolv Energy     =  -11.56 kcal/mol
DOCKED: USER        Electrostatic Energy            =   -2.10 kcal/mol
DOCKED: USER    (2) Final Total Internal Energy     =   -0.66 kcal/mol
DOCKED: USER    (3) Torsional Free Energy           =   +2.98 kcal/mol
DOCKED: USER    (4) Unbound System's Energy  [=(2)] =   -0.66 kcal/mol
DOCKED: USER    
DOCKED: USER    
DOCKED: USER    NEWDPF move heme_O2_opt.pdbqt
DOCKED: USER    NEWDPF about 8.287000 34.468000 -0.670000
DOCKED: USER    NEWDPF tran0 0.114148 -0.194779 -11.468425
DOCKED: USER    NEWDPF quaternion0 -0.359658 0.439913 -0.786605 0.241610
DOCKED: USER    NEWDPF axisangle0 -0.370638 0.453344 -0.810621 152.036804
DOCKED: USER    NEWDPF quat0 -0.370638 0.453344 -0.810621 152.036804
DOCKED: USER    NEWDPF dihe0 -38.09 22.17 60.92 -89.33 -104.43 148.20 -20.66 132.20 4.52 34.72 
DOCKED: USER  keepresnum = 1 
DOCKED: USER  
DOCKED: REMARK  10 active torsions:
DOCKED: REMARK  status: ('A' for Active; 'I' for Inactive)
DOCKED: REMARK    1  A    between atoms: C_6  and  C_10 
DOCKED: REMARK    2  A    between atoms: C_10  and  C_11 
DOCKED: REMARK    3  A    between atoms: C_11  and  C_12 
DOCKED: REMARK    4  A    between atoms: C_12  and  O_14 
DOCKED: REMARK    5  A    between atoms: C_17  and  C_20 
DOCKED: REMARK    6  A    between atoms: C_24  and  C_27 
DOCKED: REMARK    7  A    between atoms: C_31  and  C_34 
DOCKED: REMARK    8  A    between atoms: C_34  and  C_35 
DOCKED: REMARK    9  A    between atoms: C_35  and  C_36 
DOCKED: REMARK   10  A    between atoms: C_36  and  O_38 
DOCKED: USER                              x       y       z     vdW  Elec       q    Type
DOCKED: USER                           _______ _______ _______ _____ _____    ______ ____
DOCKED: ROOT
DOCKED: ATOM      1  C   UNL d   1       0.580   0.080 -13.519 -0.18 +0.05    +0.064 A 
DOCKED: ATOM      2  C   UNL d   1       3.055  -1.702  -9.878 -0.43 +0.02    +0.064 A 
DOCKED: ATOM      3  C   UNL d   1      -0.593  -0.858  -6.866 -0.22 +0.02    +0.064 C 
DOCKED: ATOM      4  C   UNL d   1      -3.325   0.537 -10.694 -0.26 +0.06    +0.064 A 
DOCKED: ATOM      5  C   UNL d   1       1.550  -0.475 -12.775 -0.22 +0.03    +0.066 A 
DOCKED: ATOM      6  C   UNL d   1       2.801  -0.851 -13.274 -0.32 -0.01    -0.021 A 
DOCKED: ATOM      7  C   UNL d   1       3.503  -1.407 -12.230 -0.45 -0.01    -0.025 A 
DOCKED: ATOM      8  C   UNL d   1       2.679  -1.311 -11.111 -0.39 +0.02    +0.066 A 
DOCKED: ATOM      9  C   UNL d   1       4.882  -2.019 -12.342 -0.24 +0.01    +0.051 C 
DOCKED: ATOM     10  C   UNL d   1       2.245  -1.605  -8.664 -0.25 +0.03    +0.066 A 
DOCKED: ATOM     11  C   UNL d   1       2.742  -1.872  -7.383 -0.41 -0.01    -0.021 A 
DOCKED: ATOM     12  C   UNL d   1       1.710  -1.618  -6.499 -0.33 +0.00    +0.000 A 
DOCKED: ATOM     13  C   UNL d   1       0.613  -1.211  -7.309 +0.11 +0.04    +0.070 A 
DOCKED: ATOM     14  C   UNL d   1       4.150  -2.326  -7.017 -0.52 +0.01    +0.052 C 
DOCKED: ATOM     15  C   UNL d   1      -1.739  -0.475  -7.655 -0.38 +0.02    +0.066 A 
DOCKED: ATOM     16  C   UNL d   1      -3.020  -0.275  -7.142 -0.43 -0.01    -0.021 A 
DOCKED: ATOM     17  C   UNL d   1      -3.817   0.122  -8.216 -0.42 +0.00    +0.000 A 
DOCKED: ATOM     18  C   UNL d   1      -2.949   0.138  -9.317 -0.33 +0.04    +0.070 A 
DOCKED: ATOM     19  C   UNL d   1      -3.379  -0.533  -5.700 -0.32 +0.01    +0.052 C 
DOCKED: ATOM     20  C   UNL d   1      -2.529   0.522 -11.781 -0.24 +0.08    +0.066 A 
DOCKED: ATOM     21  C   UNL d   1      -2.934   0.926 -13.050 -0.20 -0.04    -0.025 A 
DOCKED: ATOM     22  C   UNL d   1      -1.827   0.829 -13.862 -0.19 -0.03    -0.021 A 
DOCKED: ATOM     23  C   UNL d   1      -0.787   0.349 -13.060 -0.07 +0.07    +0.066 A 
DOCKED: ATOM     24  C   UNL d   1      -4.309   1.380 -13.467 -0.16 +0.08    +0.051 C 
DOCKED: ATOM     25  N   UNL d   1       1.452  -0.796 -11.462 +0.08 -0.12    -0.248 N 
DOCKED: ATOM     26  N   UNL d   1       0.946  -1.211  -8.625 -0.03 -0.17    -0.248 N 
DOCKED: ATOM     27  N   UNL d   1      -1.711  -0.300  -8.973 -0.23 -0.12    -0.248 N 
DOCKED: ATOM     28  N   UNL d   1      -1.231   0.121 -11.806 +0.03 -0.24    -0.248 N 
DOCKED: ATOM     29 FE   UNL d   1      -0.153  -0.540 -10.226 -0.08 +0.00    +0.000 Fe
DOCKED: ATOM     30  O   UNL d   1       0.182  -2.031 -10.520 -0.36 +0.00    +0.000 OA
DOCKED: ATOM     31  O   UNL d   1      -1.322  -1.565 -10.461 -0.43 +0.00    +0.000 OA
DOCKED: ENDROOT
DOCKED: BRANCH   6  32
DOCKED: ATOM     32  C   UNL d   1       3.272  -0.818 -14.705 -0.25 +0.02    +0.052 C 
DOCKED: BRANCH  32  33
DOCKED: ATOM     33  C   UNL d   1       3.895   0.519 -15.092 -0.28 +0.03    +0.115 C 
DOCKED: BRANCH  33  34
DOCKED: ATOM     34  C   UNL d   1       4.831   0.398 -16.269 -0.17 +0.05    +0.139 C 
DOCKED: ATOM     35  O   UNL d   1       4.474   0.791 -17.368 -0.45 -0.38    -0.650 OA
DOCKED: BRANCH  34  36
DOCKED: ATOM     36  O   UNL d   1       6.052  -0.163 -16.142 +0.00 -0.16    -0.776 OA
DOCKED: ATOM     37  H   UNL d   1       6.596  -0.030 -15.357 -0.32 -0.01    +0.167 HD
DOCKED: ENDBRANCH  34  36
DOCKED: ENDBRANCH  33  34
DOCKED: ENDBRANCH  32  33
DOCKED: ENDBRANCH   6  32
DOCKED: BRANCH  22  38
DOCKED: ATOM     38  C   UNL d   1      -1.793   1.120 -15.341 -0.11 +0.06    +0.052 C 
DOCKED: BRANCH  38  39
DOCKED: ATOM     39  C   UNL d   1      -0.559   1.922 -15.748 -0.07 +0.11    +0.115 C 
DOCKED: BRANCH  39  40
DOCKED: ATOM     40  C   UNL d   1      -0.338   3.126 -14.866 -0.18 +0.16    +0.139 C 
DOCKED: ATOM     41  O   UNL d   1      -1.132   4.052 -14.895 -0.17 -1.27    -0.650 OA
DOCKED: BRANCH  40  42
DOCKED: ATOM     42  O   UNL d   1       0.697   3.177 -14.006 -0.30 -0.69    -0.776 OA
DOCKED: ATOM     43  H   UNL d   1       1.500   2.663 -14.151 +0.07 +0.11    +0.167 HD
DOCKED: ENDBRANCH  40  42
DOCKED: ENDBRANCH  39  40
DOCKED: ENDBRANCH  38  39
DOCKED: ENDBRANCH  22  38
DOCKED: BRANCH  12  44
DOCKED: ATOM     44  C   UNL d   1       1.872  -1.788  -5.003 -0.41 +0.00    +0.004 C 
DOCKED: ATOM     45  C   UNL d   1       1.148  -2.547  -4.182 -0.49 +0.00    +0.012 C 
DOCKED: ENDBRANCH  12  44
DOCKED: BRANCH  17  46
DOCKED: ATOM     46  C   UNL d   1      -5.290   0.422  -8.296 -0.27 +0.00    +0.004 C 
DOCKED: ATOM     47  C   UNL d   1      -6.282  -0.394  -8.675 -0.31 +0.00    +0.012 C 
DOCKED: ENDBRANCH  17  46
DOCKED: TORSDOF 10
DOCKED: TER
DOCKED: ENDMDL
________________________________________________________________________________


	BEGINNING GENETIC ALGORITHM DOCKING 100 of 100
Run: 100 Seed: 778168408 1223982828 [ Run 100 of 100 GA/GALS ]
Beginning LAMARCKIAN GENETIC ALGORITHM (LGA), with a maximum of 25000000 energy evaluations.

Final-Value: -10.903


	FINAL GENETIC ALGORITHM DOCKED STATE
	_______________________________________________


Detailed state:  trans -0.756 -13.947 5.620 quatxyzw -0.689703 -0.385021 0.145056 0.595842 center 8.287 34.468 -0.670 ntor 10 -16.8324 -97.2528 45.9983 28.7716 -90.7261 -165.0192 -112.2581 60.3803 2.2860 5.4631
State:	 -0.756 -13.947   5.620  -0.859 -0.479  0.181 106.855    -16.83  -97.25   46.00   28.77  -90.73 -165.02 -112.26   60.38    2.29    5.46

DOCKED: MODEL      100
DOCKED: USER    Run = 100
DOCKED: USER    DPF = D:/Protein_go_brrr/autodock/final/AncB/heme_O2/dock.dpf
DOCKED: USER  
DOCKED: USER    Estimated Free Energy of Binding    =   -7.26 kcal/mol  [=(1)+(2)+(3)-(4)]
DOCKED: USER    Estimated Inhibition Constant, Ki   =    4.78 uM (micromolar)  [Temperature = 298.15 K]
DOCKED: USER    
DOCKED: USER    (1) Final Intermolecular Energy     =  -10.24 kcal/mol
DOCKED: USER        vdW + Hbond + desolv Energy     =   -7.28 kcal/mol
DOCKED: USER        Electrostatic Energy            =   -2.97 kcal/mol
DOCKED: USER    (2) Final Total Internal Energy     =   -0.66 kcal/mol
DOCKED: USER    (3) Torsional Free Energy           =   +2.98 kcal/mol
DOCKED: USER    (4) Unbound System's Energy  [=(2)] =   -0.66 kcal/mol
DOCKED: USER    
DOCKED: USER    
DOCKED: USER    NEWDPF move heme_O2_opt.pdbqt
DOCKED: USER    NEWDPF about 8.287000 34.468000 -0.670000
DOCKED: USER    NEWDPF tran0 -0.755554 -13.946819 5.619675
DOCKED: USER    NEWDPF quaternion0 -0.689703 -0.385021 0.145056 0.595842
DOCKED: USER    NEWDPF axisangle0 -0.858799 -0.479417 0.180620 106.854677
DOCKED: USER    NEWDPF quat0 -0.858799 -0.479417 0.180620 106.854677
DOCKED: USER    NEWDPF dihe0 -16.83 -97.25 46.00 28.77 -90.73 -165.02 -112.26 60.38 2.29 5.46 
DOCKED: USER  keepresnum = 1 
DOCKED: USER  
DOCKED: REMARK  10 active torsions:
DOCKED: REMARK  status: ('A' for Active; 'I' for Inactive)
DOCKED: REMARK    1  A    between atoms: C_6  and  C_10 
DOCKED: REMARK    2  A    between atoms: C_10  and  C_11 
DOCKED: REMARK    3  A    between atoms: C_11  and  C_12 
DOCKED: REMARK    4  A    between atoms: C_12  and  O_14 
DOCKED: REMARK    5  A    between atoms: C_17  and  C_20 
DOCKED: REMARK    6  A    between atoms: C_24  and  C_27 
DOCKED: REMARK    7  A    between atoms: C_31  and  C_34 
DOCKED: REMARK    8  A    between atoms: C_34  and  C_35 
DOCKED: REMARK    9  A    between atoms: C_35  and  C_36 
DOCKED: REMARK   10  A    between atoms: C_36  and  O_38 
DOCKED: USER                              x       y       z     vdW  Elec       q    Type
DOCKED: USER                           _______ _______ _______ _____ _____    ______ ____
DOCKED: ROOT
DOCKED: ATOM      1  C   UNL d   1      -1.776 -13.866   7.478 -0.07 +0.02    +0.064 A 
DOCKED: ATOM      2  C   UNL d   1      -1.959 -16.924   3.848 -0.06 +0.03    +0.064 A 
DOCKED: ATOM      3  C   UNL d   1       1.283 -14.356   1.401 -0.26 +0.02    +0.064 C 
DOCKED: ATOM      4  C   UNL d   1       1.835 -11.465   5.325 -0.16 +0.01    +0.064 A 
DOCKED: ATOM      5  C   UNL d   1      -2.089 -14.908   6.691 -0.06 +0.03    +0.066 A 
DOCKED: ATOM      6  C   UNL d   1      -3.025 -15.890   7.028 -0.03 -0.01    -0.021 A 
DOCKED: ATOM      7  C   UNL d   1      -3.047 -16.800   5.997 -0.03 -0.02    -0.025 A 
DOCKED: ATOM      8  C   UNL d   1      -2.159 -16.322   5.036 -0.05 +0.03    +0.066 A 
DOCKED: ATOM      9  C   UNL d   1      -3.869 -18.070   5.980 -0.01 +0.04    +0.051 C 
DOCKED: ATOM     10  C   UNL d   1      -1.059 -16.458   2.792 -0.09 +0.03    +0.066 A 
DOCKED: ATOM     11  C   UNL d   1      -1.011 -17.028   1.515 -0.12 -0.01    -0.021 A 
DOCKED: ATOM     12  C   UNL d   1      -0.095 -16.290   0.789 -0.21 +0.00    +0.000 A 
DOCKED: ATOM     13  C   UNL d   1       0.384 -15.297   1.688 -0.19 +0.02    +0.070 A 
DOCKED: ATOM     14  C   UNL d   1      -1.825 -18.210   1.001 -0.11 +0.03    +0.052 C 
DOCKED: ATOM     15  C   UNL d   1       1.820 -13.355   2.292 -0.21 +0.01    +0.066 A 
DOCKED: ATOM     16  C   UNL d   1       2.878 -12.503   1.978 -0.22 -0.00    -0.021 A 
DOCKED: ATOM     17  C   UNL d   1       3.054 -11.670   3.083 -0.22 +0.00    +0.000 A 
DOCKED: ATOM     18  C   UNL d   1       2.075 -12.081   3.999 -0.17 +0.01    +0.070 A 
DOCKED: ATOM     19  C   UNL d   1       3.654 -12.596   0.688 -0.14 +0.01    +0.052 C 
DOCKED: ATOM     20  C   UNL d   1       0.935 -11.861   6.245 -0.16 +0.01    +0.066 A 
DOCKED: ATOM     21  C   UNL d   1       0.742 -11.230   7.471 -0.15 -0.00    -0.025 A 
DOCKED: ATOM     22  C   UNL d   1      -0.302 -11.884   8.086 -0.13 -0.00    -0.021 A 
DOCKED: ATOM     23  C   UNL d   1      -0.697 -12.906   7.218 -0.11 +0.02    +0.066 A 
DOCKED: ATOM     24  C   UNL d   1       1.517 -10.064   8.028 -0.07 +0.01    +0.051 C 
DOCKED: ATOM     25  N   UNL d   1      -1.521 -15.192   5.493 -0.05 -0.10    -0.248 N 
DOCKED: ATOM     26  N   UNL d   1      -0.204 -15.410   2.906 -0.08 -0.11    -0.248 N 
DOCKED: ATOM     27  N   UNL d   1       1.386 -13.153   3.532 -0.12 -0.06    -0.248 N 
DOCKED: ATOM     28  N   UNL d   1       0.087 -12.916   6.120 -0.09 -0.06    -0.248 N 
DOCKED: ATOM     29 FE   UNL d   1      -0.055 -14.153   4.523 -0.04 +0.00    +0.000 Fe
DOCKED: ATOM     30  O   UNL d   1       0.395 -15.557   5.020 -0.07 +0.00    +0.000 OA
DOCKED: ATOM     31  O   UNL d   1       1.382 -14.335   5.135 -0.07 +0.00    +0.000 OA
DOCKED: ENDROOT
DOCKED: BRANCH   6  32
DOCKED: ATOM     32  C   UNL d   1      -3.771 -16.047   8.328 -0.02 +0.03    +0.052 C 
DOCKED: BRANCH  32  33
DOCKED: ATOM     33  C   UNL d   1      -5.054 -15.223   8.377 -0.09 +0.09    +0.115 C 
DOCKED: BRANCH  33  34
DOCKED: ATOM     34  C   UNL d   1      -6.078 -15.692   7.375 -0.17 +0.21    +0.139 C 
DOCKED: ATOM     35  O   UNL d   1      -7.157 -16.109   7.764 -0.57 -1.56    -0.650 OA
DOCKED: BRANCH  34  36
DOCKED: ATOM     36  O   UNL d   1      -5.819 -15.690   6.051 -0.47 -1.75    -0.776 OA
DOCKED: ATOM     37  H   UNL d   1      -5.089 -15.185   5.674 +0.04 +0.27    +0.167 HD
DOCKED: ENDBRANCH  34  36
DOCKED: ENDBRANCH  33  34
DOCKED: ENDBRANCH  32  33
DOCKED: ENDBRANCH   6  32
DOCKED: BRANCH  22  38
DOCKED: ATOM     38  C   UNL d   1      -0.841 -11.580   9.460 -0.11 +0.01    +0.052 C 
DOCKED: BRANCH  38  39
DOCKED: ATOM     39  C   UNL d   1      -2.204 -10.893   9.411 -0.21 +0.03    +0.115 C 
DOCKED: BRANCH  39  40
DOCKED: ATOM     40  C   UNL d   1      -2.193  -9.542  10.081 -0.30 +0.03    +0.139 C 
DOCKED: ATOM     41  O   UNL d   1      -1.318  -9.272  10.887 -0.01 -0.12    -0.650 OA
DOCKED: BRANCH  40  42
DOCKED: ATOM     42  O   UNL d   1      -3.106  -8.602   9.766 +0.02 -0.14    -0.776 OA
DOCKED: ATOM     43  H   UNL d   1      -2.924  -7.924   9.104 -0.48 -0.01    +0.167 HD
DOCKED: ENDBRANCH  40  42
DOCKED: ENDBRANCH  39  40
DOCKED: ENDBRANCH  38  39
DOCKED: ENDBRANCH  22  38
DOCKED: BRANCH  12  44
DOCKED: ATOM     44  C   UNL d   1       0.225 -16.605  -0.658 -0.31 +0.00    +0.004 C 
DOCKED: ATOM     45  C   UNL d   1       1.419 -16.607  -1.250 -0.28 -0.00    +0.012 C 
DOCKED: ENDBRANCH  12  44
DOCKED: BRANCH  17  46
DOCKED: ATOM     46  C   UNL d   1       4.072 -10.596   3.358 -0.30 -0.00    +0.004 C 
DOCKED: ATOM     47  C   UNL d   1       4.803  -9.901   2.476 -0.49 -0.00    +0.012 C 
DOCKED: ENDBRANCH  17  46
DOCKED: TORSDOF 10
DOCKED: TER
DOCKED: ENDMDL
________________________________________________________________________________

DPF> analysis                             # perform a ranked cluster analysis


		CLUSTER ANALYSIS OF CONFORMATIONS
		_________________________________

Number of conformations = 100

RMSD cluster analysis will be performed using the ligand atoms only (47 / 47 total atoms).

Outputting structurally similar clusters, ranked in order of increasing energy.


________________________________________________________________________________

Number of distinct conformational clusters found = 27,  out of 100 runs,
Using an rmsd-tolerance of 2.0 A


	CLUSTERING HISTOGRAM
	____________________

________________________________________________________________________________
     |           |     |           |     |                                    
Clus | Lowest    | Run | Mean      | Num | Histogram                          
-ter | Binding   |     | Binding   | in  |                                    
Rank | Energy    |     | Energy    | Clus|    5    10   15   20   25   30   35
_____|___________|_____|___________|_____|____:____|____:____|____:____|____:___
   1 |    -16.34 |  25 |    -15.66 |  37 |#####################################
   2 |    -10.68 |  99 |    -10.68 |   1 |#
   3 |     -9.17 |  24 |     -8.56 |  11 |###########
   4 |     -8.94 |  77 |     -8.48 |   4 |####
   5 |     -8.58 |  37 |     -8.26 |   7 |#######
   6 |     -8.57 |  71 |     -8.22 |   2 |##
   7 |     -8.45 |  67 |     -8.45 |   1 |#
   8 |     -8.12 |  52 |     -7.45 |   8 |########
   9 |     -8.11 |  45 |     -7.23 |   2 |##
  10 |     -8.10 |  97 |     -7.83 |   2 |##
  11 |     -7.97 |  36 |     -7.89 |   2 |##
  12 |     -7.82 |  27 |     -7.00 |   6 |######
  13 |     -7.79 |  44 |     -7.71 |   2 |##
  14 |     -7.79 |  33 |     -7.77 |   2 |##
  15 |     -7.48 |  34 |     -7.48 |   1 |#
  16 |     -7.26 | 100 |     -7.26 |   1 |#
  17 |     -7.20 |  98 |     -7.20 |   1 |#
  18 |     -7.19 |  83 |     -7.19 |   1 |#
  19 |     -7.11 |  31 |     -7.11 |   1 |#
  20 |     -6.52 |  81 |     -6.52 |   1 |#
  21 |     -6.47 |  54 |     -6.47 |   1 |#
  22 |     -6.24 |  84 |     -6.24 |   1 |#
  23 |     -6.06 |  26 |     -6.06 |   1 |#
  24 |     -5.93 |  69 |     -5.93 |   1 |#
  25 |     -5.81 |  51 |     -5.81 |   1 |#
  26 |     -5.68 |  21 |     -5.68 |   1 |#
  27 |     -4.99 |  57 |     -4.99 |   1 |#
_____|___________|_____|___________|_____|______________________________________


Number of multi-member conformational clusters found = 12, out of 100 runs.

	RMSD TABLE
	__________

_____________________________________________________________________
     |      |      |           |         |                 |
Rank | Sub- | Run  | Binding   | Cluster | Reference       | Grep
     | Rank |      | Energy    | RMSD    | RMSD            | Pattern
_____|______|______|___________|_________|_________________|___________
   1      1     25      -16.34      0.00     35.80           RANKING
   1      2      1      -16.29      0.93     35.77           RANKING
   1      3     61      -16.26      0.99     35.76           RANKING
   1      4     22      -16.25      0.96     35.78           RANKING
   1      5      2      -16.18      1.02     35.92           RANKING
   1      6     80      -16.18      0.97     35.84           RANKING
   1      7     23      -16.11      0.41     35.73           RANKING
   1      8     19      -16.11      0.93     35.78           RANKING
   1      9     66      -16.08      0.89     35.85           RANKING
   1     10      7      -16.06      0.48     35.74           RANKING
   1     11      8      -16.00      0.92     35.77           RANKING
   1     12      6      -16.00      1.00     35.69           RANKING
   1     13     11      -15.90      0.95     35.73           RANKING
   1     14     59      -15.88      0.85     35.81           RANKING
   1     15     74      -15.81      0.97     35.78           RANKING
   1     16     62      -15.80      0.96     35.89           RANKING
   1     17     72      -15.77      1.03     35.97           RANKING
   1     18     16      -15.71      1.02     35.70           RANKING
   1     19     12      -15.71      0.94     35.73           RANKING
   1     20     65      -15.66      0.87     35.74           RANKING
   1     21     92      -15.63      0.96     35.80           RANKING
   1     22     41      -15.62      0.93     35.72           RANKING
   1     23     28      -15.58      1.03     35.70           RANKING
   1     24     42      -15.57      0.88     35.76           RANKING
   1     25     87      -15.56      0.95     35.78           RANKING
   1     26     48      -15.54      0.95     35.69           RANKING
   1     27     53      -15.41      0.88     35.69           RANKING
   1     28     70      -15.33      0.98     35.80           RANKING
   1     29     17      -15.33      1.21     36.05           RANKING
   1     30      4      -15.25      1.10     35.52           RANKING
   1     31     88      -15.17      0.98     35.60           RANKING
   1     32     56      -15.17      1.09     35.54           RANKING
   1     33     96      -15.15      1.01     35.59           RANKING
   1     34     60      -15.15      1.01     35.64           RANKING
   1     35     15      -15.10      0.62     35.82           RANKING
   1     36     32      -14.64      0.96     35.74           RANKING
   1     37     55      -14.12      1.08     35.65           RANKING
   2      1     99      -10.68      0.00     35.74           RANKING
   3      1     24       -9.17      0.00     39.20           RANKING
   3      2     89       -9.05      0.50     39.10           RANKING
   3      3     86       -9.01      1.40     39.05           RANKING
   3      4     35       -9.00      0.99     38.94           RANKING
   3      5     78       -8.99      1.00     39.10           RANKING
   3      6     50       -8.94      0.94     39.05           RANKING
   3      7     82       -8.79      1.21     38.97           RANKING
   3      8     39       -8.58      1.12     39.06           RANKING
   3      9     46       -7.72      1.78     38.02           RANKING
   3     10     30       -7.66      1.97     38.86           RANKING
   3     11     49       -7.25      1.91     39.61           RANKING
   4      1     77       -8.94      0.00     36.78           RANKING
   4      2     91       -8.72      0.72     36.81           RANKING
   4      3     14       -8.36      0.60     36.72           RANKING
   4      4     18       -7.88      1.68     37.26           RANKING
   5      1     37       -8.58      0.00     46.66           RANKING
   5      2     93       -8.57      0.66     46.26           RANKING
   5      3     20       -8.39      1.30     45.79           RANKING
   5      4     29       -8.35      1.55     46.48           RANKING
   5      5     75       -8.34      0.99     46.07           RANKING
   5      6     94       -8.02      1.62     46.08           RANKING
   5      7      3       -7.55      1.46     45.66           RANKING
   6      1     71       -8.57      0.00     48.04           RANKING
   6      2     40       -7.87      0.77     48.52           RANKING
   7      1     67       -8.45      0.00     50.02           RANKING
   8      1     52       -8.12      0.00     53.57           RANKING
   8      2     73       -7.79      1.78     54.34           RANKING
   8      3     10       -7.58      1.26     54.21           RANKING
   8      4     79       -7.57      1.13     54.13           RANKING
   8      5     43       -7.54      0.95     54.04           RANKING
   8      6     68       -7.28      1.45     54.31           RANKING
   8      7     13       -7.14      1.27     54.15           RANKING
   8      8     90       -6.63      1.59     54.40           RANKING
   9      1     45       -8.11      0.00     46.46           RANKING
   9      2      5       -6.35      1.26     46.88           RANKING
  10      1     97       -8.10      0.00     45.73           RANKING
  10      2      9       -7.55      0.52     45.77           RANKING
  11      1     36       -7.97      0.00     47.90           RANKING
  11      2     38       -7.80      1.43     47.80           RANKING
  12      1     27       -7.82      0.00     36.09           RANKING
  12      2     85       -7.21      0.79     36.40           RANKING
  12      3     47       -7.20      2.00     34.55           RANKING
  12      4     76       -7.11      0.70     36.19           RANKING
  12      5     63       -6.45      0.84     36.25           RANKING
  12      6     58       -6.21      1.64     35.58           RANKING
  13      1     44       -7.79      0.00     38.95           RANKING
  13      2     64       -7.62      1.50     39.08           RANKING
  14      1     33       -7.79      0.00     49.84           RANKING
  14      2     95       -7.75      1.46     50.56           RANKING
  15      1     34       -7.48      0.00     45.36           RANKING
  16      1    100       -7.26      0.00     46.75           RANKING
  17      1     98       -7.20      0.00     48.38           RANKING
  18      1     83       -7.19      0.00     31.46           RANKING
  19      1     31       -7.11      0.00     35.76           RANKING
  20      1     81       -6.52      0.00     34.68           RANKING
  21      1     54       -6.47      0.00     39.26           RANKING
  22      1     84       -6.24      0.00     30.09           RANKING
  23      1     26       -6.06      0.00     34.94           RANKING
  24      1     69       -5.93      0.00     36.09           RANKING
  25      1     51       -5.81      0.00     37.28           RANKING
  26      1     21       -5.68      0.00     51.65           RANKING
  27      1     57       -4.99      0.00     29.36           RANKING
_______________________________________________________________________



	INFORMATION ENTROPY ANALYSIS FOR THIS CLUSTERING
	________________________________________________


Information entropy for this clustering = 0.53  (rmstol = 2.00 Angstrom)

_______________________________________________________________________


	STATISTICAL MECHANICAL ANALYSIS
	_______________________________


Partition function, Q =   101.81            at Temperature, T = 298.15 K
Free energy,        A ~ -2739.12 kcal/mol   at Temperature, T = 298.15 K
Internal energy,    U =   -10.66 kcal/mol   at Temperature, T = 298.15 K
Entropy,            S =     9.15 kcal/mol/K at Temperature, T = 298.15 K

_______________________________________________________________________


	LOWEST ENERGY DOCKED CONFORMATION from EACH CLUSTER
	___________________________________________________



Keeping original residue number (specified in the input PDBQ file) for outputting.

MODEL       25
USER    Run = 25
USER    Cluster Rank = 1
USER    Number of conformations in this cluster = 37
USER  
USER    RMSD from reference structure       = 35.797 A
USER  
USER    Estimated Free Energy of Binding    =  -16.34 kcal/mol  [=(1)+(2)+(3)-(4)]
USER    Estimated Inhibition Constant, Ki   =    1.05 pM (picomolar)  [Temperature = 298.15 K]
USER    
USER    (1) Final Intermolecular Energy     =  -19.32 kcal/mol
USER        vdW + Hbond + desolv Energy     =  -16.76 kcal/mol
USER        Electrostatic Energy            =   -2.57 kcal/mol
USER    (2) Final Total Internal Energy     =   -0.62 kcal/mol
USER    (3) Torsional Free Energy           =   +2.98 kcal/mol
USER    (4) Unbound System's Energy  [=(2)] =   -0.62 kcal/mol
USER    
USER    
USER  
USER    DPF = D:/Protein_go_brrr/autodock/final/AncB/heme_O2/dock.dpf
USER    NEWDPF move	heme_O2_opt.pdbqt
USER    NEWDPF about	8.287000 34.468000 -0.670000
USER    NEWDPF tran0	0.248099 -1.628593 -8.872666
USER    NEWDPF axisangle0	0.589555 0.625454 0.511109 57.795053
USER    NEWDPF quaternion0	0.284899 0.302247 0.246991 0.875485
USER    NEWDPF dihe0	-144.34 115.72 31.15 -57.67 87.66 -57.63 -15.72 -59.82 -140.87 168.27 
USER  
USER                              x       y       z    vdW   Elec        q     RMS 
ATOM      1  C   UNL d   1      -0.377  -1.230 -10.860 -0.27 +0.04    +0.064    35.797
ATOM      2  C   UNL d   1      -2.649  -1.084  -6.692 -0.39 +0.02    +0.064    35.797
ATOM      3  C   UNL d   1       1.311  -2.517  -4.378 -0.44 +0.01    +0.064    35.797
ATOM      4  C   UNL d   1       3.791  -2.209  -8.600 -0.43 +0.02    +0.064    35.797
ATOM      5  C   UNL d   1      -1.318  -1.071  -9.915 -0.30 +0.04    +0.066    35.797
ATOM      6  C   UNL d   1      -2.635  -0.683 -10.178 -0.31 -0.02    -0.021    35.797
ATOM      7  C   UNL d   1      -3.282  -0.598  -8.968 -0.34 -0.01    -0.025    35.797
ATOM      8  C   UNL d   1      -2.356  -0.985  -8.002 -0.36 +0.03    +0.066    35.797
ATOM      9  C   UNL d   1      -4.711  -0.137  -8.780 -0.36 +0.02    +0.051    35.797
ATOM     10  C   UNL d   1      -1.727  -1.506  -5.636 -0.41 +0.02    +0.066    35.797
ATOM     11  C   UNL d   1      -2.127  -1.749  -4.317 -0.48 -0.00    -0.021    35.797
ATOM     12  C   UNL d   1      -1.002  -2.181  -3.638 -0.44 +0.00    +0.000    35.797
ATOM     13  C   UNL d   1       0.046  -2.164  -4.600 -0.40 +0.01    +0.070    35.797
ATOM     14  C   UNL d   1      -3.528  -1.603  -3.736 -0.56 +0.01    +0.052    35.797
ATOM     15  C   UNL d   1       2.409  -2.481  -5.314 -0.40 +0.01    +0.066    35.797
ATOM     16  C   UNL d   1       3.743  -2.706  -4.978 -0.51 -0.00    -0.021    35.797
ATOM     17  C   UNL d   1       4.469  -2.622  -6.166 -0.51 +0.00    +0.000    35.797
ATOM     18  C   UNL d   1       3.510  -2.351  -7.152 -0.42 +0.02    +0.070    35.797
ATOM     19  C   UNL d   1       4.208  -2.923  -3.560 -0.38 +0.00    +0.052    35.797
ATOM     20  C   UNL d   1       2.902  -1.907  -9.566 -0.45 +0.02    +0.066    35.797
ATOM     21  C   UNL d   1       3.222  -1.804 -10.917 -0.47 -0.01    -0.025    35.797
ATOM     22  C   UNL d   1       2.042  -1.552 -11.579 -0.08 -0.01    -0.021    35.797
ATOM     23  C   UNL d   1       1.043  -1.492 -10.602 -0.17 +0.03    +0.066    35.797
ATOM     24  C   UNL d   1       4.586  -1.937 -11.543 -0.39 +0.01    +0.051    35.797
ATOM     25  N   UNL d   1      -1.128  -1.213  -8.580 -0.22 -0.12    -0.248    35.797
ATOM     26  N   UNL d   1      -0.403  -1.747  -5.811 -0.25 -0.07    -0.248    35.797
ATOM     27  N   UNL d   1       2.277  -2.194  -6.606 -0.24 -0.08    -0.248    35.797
ATOM     28  N   UNL d   1       1.578  -1.663  -9.375 -0.15 -0.13    -0.248    35.797
ATOM     29 FE   UNL d   1       0.597  -1.705  -7.605 -0.09 +0.00    +0.000    35.797
ATOM     30  O   UNL d   1       0.119  -0.248  -7.338 -0.72 +0.00    +0.000    35.797
ATOM     31  O   UNL d   1       1.654  -0.543  -7.531 -1.09 +0.00    +0.000    35.797
ATOM     32  C   UNL d   1      -3.229  -0.272 -11.500 -0.22 +0.07    +0.052    35.797
ATOM     33  C   UNL d   1      -2.493   0.901 -12.141 -0.25 +0.14    +0.115    35.797
ATOM     34  C   UNL d   1      -2.792   1.032 -13.614 -0.18 +0.22    +0.139    35.797
ATOM     35  O   UNL d   1      -2.467   0.136 -14.378 -0.30 -1.20    -0.650    35.797
ATOM     36  O   UNL d   1      -3.389   2.133 -14.116 -0.40 -1.74    -0.776    35.797
ATOM     37  H   UNL d   1      -4.019   2.086 -14.844 +0.01 +0.34    +0.167    35.797
ATOM     38  C   UNL d   1       1.898  -1.320 -13.061 -0.18 +0.03    +0.052    35.797
ATOM     39  C   UNL d   1       2.036   0.155 -13.434 -0.27 +0.05    +0.115    35.797
ATOM     40  C   UNL d   1       3.195   0.408 -14.366 -0.27 +0.05    +0.139    35.797
ATOM     41  O   UNL d   1       3.038   0.303 -15.571 +0.06 -0.25    -0.650    35.797
ATOM     42  O   UNL d   1       4.394   0.799 -13.893 +0.02 -0.13    -0.776    35.797
ATOM     43  H   UNL d   1       5.186   0.263 -14.020 -0.41 -0.03    +0.167    35.797
ATOM     44  C   UNL d   1      -1.043  -2.554  -2.171 -0.46 +0.00    +0.004    35.797
ATOM     45  C   UNL d   1      -0.047  -2.508  -1.287 -0.60 +0.00    +0.012    35.797
ATOM     46  C   UNL d   1       5.948  -2.717  -6.429 -0.63 +0.00    +0.004    35.797
ATOM     47  C   UNL d   1       6.918  -1.892  -6.012 -0.66 +0.00    +0.012    35.797
TER
ENDMDL
MODEL       99
USER    Run = 99
USER    Cluster Rank = 2
USER    Number of conformations in this cluster = 1
USER  
USER    RMSD from reference structure       = 35.739 A
USER  
USER    Estimated Free Energy of Binding    =  -10.68 kcal/mol  [=(1)+(2)+(3)-(4)]
USER    Estimated Inhibition Constant, Ki   =   14.83 nM (nanomolar)  [Temperature = 298.15 K]
USER    
USER    (1) Final Intermolecular Energy     =  -13.66 kcal/mol
USER        vdW + Hbond + desolv Energy     =  -11.56 kcal/mol
USER        Electrostatic Energy            =   -2.10 kcal/mol
USER    (2) Final Total Internal Energy     =   -0.66 kcal/mol
USER    (3) Torsional Free Energy           =   +2.98 kcal/mol
USER    (4) Unbound System's Energy  [=(2)] =   -0.66 kcal/mol
USER    
USER    
USER  
USER    DPF = D:/Protein_go_brrr/autodock/final/AncB/heme_O2/dock.dpf
USER    NEWDPF move	heme_O2_opt.pdbqt
USER    NEWDPF about	8.287000 34.468000 -0.670000
USER    NEWDPF tran0	0.114148 -0.194779 -11.468425
USER    NEWDPF axisangle0	-0.370638 0.453344 -0.810621 152.036804
USER    NEWDPF quaternion0	-0.359658 0.439913 -0.786605 0.241610
USER    NEWDPF dihe0	-38.09 22.17 60.92 -89.33 -104.43 148.20 -20.66 132.20 4.52 34.72 
USER  
USER                              x       y       z    vdW   Elec        q     RMS 
ATOM      1  C   UNL d   1       0.580   0.080 -13.519 -0.18 +0.05    +0.064    35.739
ATOM      2  C   UNL d   1       3.055  -1.702  -9.878 -0.43 +0.02    +0.064    35.739
ATOM      3  C   UNL d   1      -0.593  -0.858  -6.866 -0.22 +0.02    +0.064    35.739
ATOM      4  C   UNL d   1      -3.325   0.537 -10.694 -0.26 +0.06    +0.064    35.739
ATOM      5  C   UNL d   1       1.550  -0.475 -12.775 -0.22 +0.03    +0.066    35.739
ATOM      6  C   UNL d   1       2.801  -0.851 -13.274 -0.32 -0.01    -0.021    35.739
ATOM      7  C   UNL d   1       3.503  -1.407 -12.230 -0.45 -0.01    -0.025    35.739
ATOM      8  C   UNL d   1       2.679  -1.311 -11.111 -0.39 +0.02    +0.066    35.739
ATOM      9  C   UNL d   1       4.882  -2.019 -12.342 -0.24 +0.01    +0.051    35.739
ATOM     10  C   UNL d   1       2.245  -1.605  -8.664 -0.25 +0.03    +0.066    35.739
ATOM     11  C   UNL d   1       2.742  -1.872  -7.383 -0.41 -0.01    -0.021    35.739
ATOM     12  C   UNL d   1       1.710  -1.618  -6.499 -0.33 +0.00    +0.000    35.739
ATOM     13  C   UNL d   1       0.613  -1.211  -7.309 +0.11 +0.04    +0.070    35.739
ATOM     14  C   UNL d   1       4.150  -2.326  -7.017 -0.52 +0.01    +0.052    35.739
ATOM     15  C   UNL d   1      -1.739  -0.475  -7.655 -0.38 +0.02    +0.066    35.739
ATOM     16  C   UNL d   1      -3.020  -0.275  -7.142 -0.43 -0.01    -0.021    35.739
ATOM     17  C   UNL d   1      -3.817   0.122  -8.216 -0.42 +0.00    +0.000    35.739
ATOM     18  C   UNL d   1      -2.949   0.138  -9.317 -0.33 +0.04    +0.070    35.739
ATOM     19  C   UNL d   1      -3.379  -0.533  -5.700 -0.32 +0.01    +0.052    35.739
ATOM     20  C   UNL d   1      -2.529   0.522 -11.781 -0.24 +0.08    +0.066    35.739
ATOM     21  C   UNL d   1      -2.934   0.926 -13.050 -0.20 -0.04    -0.025    35.739
ATOM     22  C   UNL d   1      -1.827   0.829 -13.862 -0.19 -0.03    -0.021    35.739
ATOM     23  C   UNL d   1      -0.787   0.349 -13.060 -0.07 +0.07    +0.066    35.739
ATOM     24  C   UNL d   1      -4.309   1.380 -13.467 -0.16 +0.08    +0.051    35.739
ATOM     25  N   UNL d   1       1.452  -0.796 -11.462 +0.08 -0.12    -0.248    35.739
ATOM     26  N   UNL d   1       0.946  -1.211  -8.625 -0.03 -0.17    -0.248    35.739
ATOM     27  N   UNL d   1      -1.711  -0.300  -8.973 -0.23 -0.12    -0.248    35.739
ATOM     28  N   UNL d   1      -1.231   0.121 -11.806 +0.03 -0.24    -0.248    35.739
ATOM     29 FE   UNL d   1      -0.153  -0.540 -10.226 -0.08 +0.00    +0.000    35.739
ATOM     30  O   UNL d   1       0.182  -2.031 -10.520 -0.36 +0.00    +0.000    35.739
ATOM     31  O   UNL d   1      -1.322  -1.565 -10.461 -0.43 +0.00    +0.000    35.739
ATOM     32  C   UNL d   1       3.272  -0.818 -14.705 -0.25 +0.02    +0.052    35.739
ATOM     33  C   UNL d   1       3.895   0.519 -15.092 -0.28 +0.03    +0.115    35.739
ATOM     34  C   UNL d   1       4.831   0.398 -16.269 -0.17 +0.05    +0.139    35.739
ATOM     35  O   UNL d   1       4.474   0.791 -17.368 -0.45 -0.38    -0.650    35.739
ATOM     36  O   UNL d   1       6.052  -0.163 -16.142 +0.00 -0.16    -0.776    35.739
ATOM     37  H   UNL d   1       6.596  -0.030 -15.357 -0.32 -0.01    +0.167    35.739
ATOM     38  C   UNL d   1      -1.793   1.120 -15.341 -0.11 +0.06    +0.052    35.739
ATOM     39  C   UNL d   1      -0.559   1.922 -15.748 -0.07 +0.11    +0.115    35.739
ATOM     40  C   UNL d   1      -0.338   3.126 -14.866 -0.18 +0.16    +0.139    35.739
ATOM     41  O   UNL d   1      -1.132   4.052 -14.895 -0.17 -1.27    -0.650    35.739
ATOM     42  O   UNL d   1       0.697   3.177 -14.006 -0.30 -0.69    -0.776    35.739
ATOM     43  H   UNL d   1       1.500   2.663 -14.151 +0.07 +0.11    +0.167    35.739
ATOM     44  C   UNL d   1       1.872  -1.788  -5.003 -0.41 +0.00    +0.004    35.739
ATOM     45  C   UNL d   1       1.148  -2.547  -4.182 -0.49 +0.00    +0.012    35.739
ATOM     46  C   UNL d   1      -5.290   0.422  -8.296 -0.27 +0.00    +0.004    35.739
ATOM     47  C   UNL d   1      -6.282  -0.394  -8.675 -0.31 +0.00    +0.012    35.739
TER
ENDMDL
MODEL       24
USER    Run = 24
USER    Cluster Rank = 3
USER    Number of conformations in this cluster = 11
USER  
USER    RMSD from reference structure       = 39.195 A
USER  
USER    Estimated Free Energy of Binding    =   -9.17 kcal/mol  [=(1)+(2)+(3)-(4)]
USER    Estimated Inhibition Constant, Ki   =  189.46 nM (nanomolar)  [Temperature = 298.15 K]
USER    
USER    (1) Final Intermolecular Energy     =  -12.15 kcal/mol
USER        vdW + Hbond + desolv Energy     =   -8.12 kcal/mol
USER        Electrostatic Energy            =   -4.03 kcal/mol
USER    (2) Final Total Internal Energy     =   -0.39 kcal/mol
USER    (3) Torsional Free Energy           =   +2.98 kcal/mol
USER    (4) Unbound System's Energy  [=(2)] =   -0.39 kcal/mol
USER    
USER    
USER  
USER    DPF = D:/Protein_go_brrr/autodock/final/AncB/heme_O2/dock.dpf
USER    NEWDPF move	heme_O2_opt.pdbqt
USER    NEWDPF about	8.287000 34.468000 -0.670000
USER    NEWDPF tran0	-7.283858 -1.728109 -12.049799
USER    NEWDPF axisangle0	0.014655 0.779656 -0.626036 106.680306
USER    NEWDPF quaternion0	0.011756 0.625436 -0.502203 0.597063
USER    NEWDPF dihe0	-21.10 160.91 -27.09 94.68 175.10 -84.55 45.61 -121.73 140.80 -50.49 
USER  
USER                              x       y       z    vdW   Elec        q     RMS 
ATOM      1  C   UNL d   1      -6.493  -2.088 -13.985 -0.04 +0.09    +0.064    39.195
ATOM      2  C   UNL d   1      -8.047  -4.993 -10.564 -0.30 +0.03    +0.064    39.195
ATOM      3  C   UNL d   1      -8.994  -1.257  -7.693 -0.22 +0.02    +0.064    39.195
ATOM      4  C   UNL d   1      -7.846   1.765 -11.384 -0.07 +0.03    +0.064    39.195
ATOM      5  C   UNL d   1      -6.840  -3.183 -13.289 -0.12 +0.08    +0.066    39.195
ATOM      6  C   UNL d   1      -6.697  -4.489 -13.764 -0.15 -0.02    -0.021    39.195
ATOM      7  C   UNL d   1      -7.187  -5.330 -12.792 -0.27 -0.02    -0.025    39.195
ATOM      8  C   UNL d   1      -7.571  -4.515 -11.730 -0.23 +0.04    +0.066    39.195
ATOM      9  C   UNL d   1      -7.294  -6.833 -12.921 -0.31 +0.03    +0.051    39.195
ATOM     10  C   UNL d   1      -8.444  -4.190  -9.407 -0.25 +0.03    +0.066    39.195
ATOM     11  C   UNL d   1      -8.776  -4.742  -8.165 -0.37 -0.01    -0.021    39.195
ATOM     12  C   UNL d   1      -9.035  -3.680  -7.318 -0.34 +0.00    +0.000    39.195
ATOM     13  C   UNL d   1      -8.854  -2.514  -8.113 -0.19 +0.02    +0.070    39.195
ATOM     14  C   UNL d   1      -8.818  -6.220  -7.793 -0.31 +0.02    +0.052    39.195
ATOM     15  C   UNL d   1      -8.854  -0.052  -8.475 -0.14 +0.02    +0.066    39.195
ATOM     16  C   UNL d   1      -9.174   1.227  -8.020 -0.22 -0.00    -0.021    39.195
ATOM     17  C   UNL d   1      -8.856   2.105  -9.055 -0.16 +0.00    +0.000    39.195
ATOM     18  C   UNL d   1      -8.357   1.286 -10.078 -0.08 +0.03    +0.070    39.195
ATOM     19  C   UNL d   1      -9.799   1.488  -6.672 -0.20 +0.00    +0.052    39.195
ATOM     20  C   UNL d   1      -7.401   1.003 -12.402 -0.05 +0.04    +0.066    39.195
ATOM     21  C   UNL d   1      -6.915   1.513 -13.603 -0.07 -0.02    -0.025    39.195
ATOM     22  C   UNL d   1      -6.500   0.431 -14.346 -0.05 -0.02    -0.021    39.195
ATOM     23  C   UNL d   1      -6.766  -0.705 -13.575 -0.06 +0.07    +0.066    39.195
ATOM     24  C   UNL d   1      -6.853   2.959 -14.022 -0.08 +0.05    +0.051    39.195
ATOM     25  N   UNL d   1      -7.418  -3.189 -12.063 -0.09 -0.19    -0.248    39.195
ATOM     26  N   UNL d   1      -8.499  -2.834  -9.383 -0.09 -0.10    -0.248    39.195
ATOM     27  N   UNL d   1      -8.434  -0.026  -9.736 -0.03 -0.09    -0.248    39.195
ATOM     28  N   UNL d   1      -7.355  -0.355 -12.413 -0.02 -0.18    -0.248    39.195
ATOM     29 FE   UNL d   1      -7.924  -1.583 -10.908 -0.02 +0.00    +0.000    39.195
ATOM     30  O   UNL d   1      -9.147  -2.385 -11.440 -0.06 +0.00    +0.000    39.195
ATOM     31  O   UNL d   1      -9.204  -0.811 -11.397 -0.04 +0.00    +0.000    39.195
ATOM     32  C   UNL d   1      -6.246  -4.930 -15.133 -0.13 +0.06    +0.052    39.195
ATOM     33  C   UNL d   1      -7.112  -6.045 -15.711 -0.11 +0.09    +0.115    39.195
ATOM     34  C   UNL d   1      -6.292  -7.129 -16.367 -0.05 +0.18    +0.139    39.195
ATOM     35  O   UNL d   1      -5.132  -7.296 -16.027 -0.55 -1.04    -0.650    39.195
ATOM     36  O   UNL d   1      -6.805  -7.904 -17.345 -0.18 -1.20    -0.776    39.195
ATOM     37  H   UNL d   1      -7.755  -8.013 -17.465 +0.03 +0.15    +0.167    39.195
ATOM     38  C   UNL d   1      -5.939   0.488 -15.743 -0.04 +0.05    +0.052    39.195
ATOM     39  C   UNL d   1      -4.793   1.489 -15.870 -0.06 +0.14    +0.115    39.195
ATOM     40  C   UNL d   1      -3.665   1.199 -14.912 -0.10 +0.22    +0.139    39.195
ATOM     41  O   UNL d   1      -3.080   0.130 -14.971 -0.31 -1.21    -0.650    39.195
ATOM     42  O   UNL d   1      -3.255   2.122 -14.021 -0.36 -1.72    -0.776    39.195
ATOM     43  H   UNL d   1      -2.709   1.884 -13.263 +0.03 +0.28    +0.167    39.195
ATOM     44  C   UNL d   1      -9.424  -3.883  -5.869 -0.53 +0.00    +0.004    39.195
ATOM     45  C   UNL d   1      -9.159  -3.091  -4.831 -0.64 +0.00    +0.012    39.195
ATOM     46  C   UNL d   1      -9.032   3.596  -9.177 -0.17 +0.00    +0.004    39.195
ATOM     47  C   UNL d   1      -8.189   4.563  -8.793 -0.30 +0.00    +0.012    39.195
TER
ENDMDL
MODEL       77
USER    Run = 77
USER    Cluster Rank = 4
USER    Number of conformations in this cluster = 4
USER  
USER    RMSD from reference structure       = 36.781 A
USER  
USER    Estimated Free Energy of Binding    =   -8.94 kcal/mol  [=(1)+(2)+(3)-(4)]
USER    Estimated Inhibition Constant, Ki   =  282.19 nM (nanomolar)  [Temperature = 298.15 K]
USER    
USER    (1) Final Intermolecular Energy     =  -11.92 kcal/mol
USER        vdW + Hbond + desolv Energy     =   -8.64 kcal/mol
USER        Electrostatic Energy            =   -3.27 kcal/mol
USER    (2) Final Total Internal Energy     =   -1.43 kcal/mol
USER    (3) Torsional Free Energy           =   +2.98 kcal/mol
USER    (4) Unbound System's Energy  [=(2)] =   -1.43 kcal/mol
USER    
USER    
USER  
USER    DPF = D:/Protein_go_brrr/autodock/final/AncB/heme_O2/dock.dpf
USER    NEWDPF move	heme_O2_opt.pdbqt
USER    NEWDPF about	8.287000 34.468000 -0.670000
USER    NEWDPF tran0	-1.000888 0.037977 -12.535733
USER    NEWDPF axisangle0	0.528585 -0.427286 0.733501 -149.407501
USER    NEWDPF quaternion0	0.509860 -0.412150 0.707517 -0.263810
USER    NEWDPF dihe0	39.40 -127.44 -76.24 -120.51 -19.48 10.26 -125.16 129.14 159.08 -170.29 
USER  
USER                              x       y       z    vdW   Elec        q     RMS 
ATOM      1  C   UNL d   1      -1.244   0.494 -14.593 -0.12 +0.08    +0.064    36.781
ATOM      2  C   UNL d   1       2.388  -1.299 -12.113 -0.27 +0.02    +0.064    36.781
ATOM      3  C   UNL d   1      -0.132  -1.000  -8.031 +0.31 +0.04    +0.064    36.781
ATOM      4  C   UNL d   1      -4.042   0.398 -10.643 -0.23 +0.05    +0.064    36.781
ATOM      5  C   UNL d   1      -0.052  -0.020 -14.252 -0.15 +0.06    +0.066    36.781
ATOM      6  C   UNL d   1       0.991  -0.246 -15.155 -0.12 -0.01    -0.021    36.781
ATOM      7  C   UNL d   1       2.028  -0.805 -14.446 -0.18 -0.01    -0.025    36.781
ATOM      8  C   UNL d   1       1.607  -0.861 -13.119 -0.23 +0.03    +0.066    36.781
ATOM      9  C   UNL d   1       3.332  -1.279 -15.048 -0.20 +0.02    +0.051    36.781
ATOM     10  C   UNL d   1       2.010  -1.360 -10.700 -0.33 +0.03    +0.066    36.781
ATOM     11  C   UNL d   1       2.912  -1.668  -9.675 -0.46 -0.01    -0.021    36.781
ATOM     12  C   UNL d   1       2.209  -1.570  -8.489 -0.28 +0.00    +0.000    36.781
ATOM     13  C   UNL d   1       0.885  -1.211  -8.866 +0.36 +0.05    +0.070    36.781
ATOM     14  C   UNL d   1       4.389  -2.015  -9.820 -0.46 +0.01    +0.052    36.781
ATOM     15  C   UNL d   1      -1.494  -0.670  -8.375 -0.35 +0.03    +0.066    36.781
ATOM     16  C   UNL d   1      -2.550  -0.624  -7.465 -0.44 -0.01    -0.021    36.781
ATOM     17  C   UNL d   1      -3.676  -0.228  -8.187 -0.41 +0.00    +0.000    36.781
ATOM     18  C   UNL d   1      -3.215  -0.058  -9.501 -0.30 +0.04    +0.070    36.781
ATOM     19  C   UNL d   1      -2.404  -1.011  -6.015 -0.47 +0.01    +0.052    36.781
ATOM     20  C   UNL d   1      -3.643   0.530 -11.923 -0.21 +0.08    +0.066    36.781
ATOM     21  C   UNL d   1      -4.463   0.982 -12.953 -0.16 -0.04    -0.025    36.781
ATOM     22  C   UNL d   1      -3.675   1.041 -14.081 -0.14 -0.04    -0.021    36.781
ATOM     23  C   UNL d   1      -2.403   0.605 -13.699 -0.14 +0.10    +0.066    36.781
ATOM     24  C   UNL d   1      -5.925   1.335 -12.867 -0.13 +0.05    +0.051    36.781
ATOM     25  N   UNL d   1       0.303  -0.438 -13.012 -0.13 -0.19    -0.248    36.781
ATOM     26  N   UNL d   1       0.772  -1.090 -10.213 +0.20 -0.13    -0.248    36.781
ATOM     27  N   UNL d   1      -1.907  -0.403  -9.611 -0.21 -0.15    -0.248    36.781
ATOM     28  N   UNL d   1      -2.400   0.252 -12.397 -0.15 -0.34    -0.248    36.781
ATOM     29 FE   UNL d   1      -0.827  -0.414 -11.311 -0.07 +0.00    +0.000    36.781
ATOM     30  O   UNL d   1      -0.511  -1.845 -11.836 -0.39 +0.00    +0.000    36.781
ATOM     31  O   UNL d   1      -1.941  -1.523 -11.258 -0.53 +0.00    +0.000    36.781
ATOM     32  C   UNL d   1       0.969  -0.072 -16.652 -0.06 +0.03    +0.052    36.781
ATOM     33  C   UNL d   1       1.194  -1.380 -17.403 -0.06 +0.06    +0.115    36.781
ATOM     34  C   UNL d   1       0.252  -2.470 -16.955 -0.12 +0.09    +0.139    36.781
ATOM     35  O   UNL d   1       0.428  -3.615 -17.339 +0.00 -0.38    -0.650    36.781
ATOM     36  O   UNL d   1      -0.803  -2.204 -16.158 -0.06 -0.92    -0.776    36.781
ATOM     37  H   UNL d   1      -1.340  -1.411 -16.269 +0.02 +0.22    +0.167    36.781
ATOM     38  C   UNL d   1      -4.142   1.435 -15.458 -0.09 +0.07    +0.052    36.781
ATOM     39  C   UNL d   1      -5.090   0.405 -16.068 -0.05 +0.13    +0.115    36.781
ATOM     40  C   UNL d   1      -4.522  -0.993 -16.033 +0.16 +0.24    +0.139    36.781
ATOM     41  O   UNL d   1      -5.275  -1.953 -16.038 -0.22 -1.13    -0.650    36.781
ATOM     42  O   UNL d   1      -3.192  -1.204 -16.046 -0.14 -1.76    -0.776    36.781
ATOM     43  H   UNL d   1      -2.777  -1.766 -16.711 +0.01 +0.27    +0.167    36.781
ATOM     44  C   UNL d   1       2.859  -1.827  -7.145 -0.51 +0.00    +0.004    36.781
ATOM     45  C   UNL d   1       3.317  -0.930  -6.273 -0.52 +0.00    +0.012    36.781
ATOM     46  C   UNL d   1      -5.111  -0.060  -7.766 -0.30 +0.00    +0.004    36.781
ATOM     47  C   UNL d   1      -6.206  -0.590  -8.325 -0.30 +0.00    +0.012    36.781
TER
ENDMDL
MODEL       37
USER    Run = 37
USER    Cluster Rank = 5
USER    Number of conformations in this cluster = 7
USER  
USER    RMSD from reference structure       = 46.665 A
USER  
USER    Estimated Free Energy of Binding    =   -8.58 kcal/mol  [=(1)+(2)+(3)-(4)]
USER    Estimated Inhibition Constant, Ki   =  513.97 nM (nanomolar)  [Temperature = 298.15 K]
USER    
USER    (1) Final Intermolecular Energy     =  -11.56 kcal/mol
USER        vdW + Hbond + desolv Energy     =   -7.85 kcal/mol
USER        Electrostatic Energy            =   -3.71 kcal/mol
USER    (2) Final Total Internal Energy     =   -1.13 kcal/mol
USER    (3) Torsional Free Energy           =   +2.98 kcal/mol
USER    (4) Unbound System's Energy  [=(2)] =   -1.13 kcal/mol
USER    
USER    
USER  
USER    DPF = D:/Protein_go_brrr/autodock/final/AncB/heme_O2/dock.dpf
USER    NEWDPF move	heme_O2_opt.pdbqt
USER    NEWDPF about	8.287000 34.468000 -0.670000
USER    NEWDPF tran0	-5.180543 -11.225383 12.391227
USER    NEWDPF axisangle0	0.733169 0.168421 0.658860 -159.873678
USER    NEWDPF quaternion0	0.721890 0.165830 0.648724 -0.174734
USER    NEWDPF dihe0	-50.89 -59.42 -28.24 118.04 149.71 177.96 4.40 14.84 -102.21 167.74 
USER  
USER                              x       y       z    vdW   Elec        q     RMS 
ATOM      1  C   UNL d   1      -6.162 -12.599  11.107 -0.23 +0.03    +0.064    46.665
ATOM      2  C   UNL d   1      -2.388  -9.779  10.505 -0.26 +0.01    +0.064    46.665
ATOM      3  C   UNL d   1      -2.845  -8.059  14.969 -0.18 +0.01    +0.064    46.665
ATOM      4  C   UNL d   1      -6.436 -11.305  15.764 -0.11 +0.03    +0.064    46.665
ATOM      5  C   UNL d   1      -5.097 -11.974  10.580 -0.22 +0.03    +0.066    46.665
ATOM      6  C   UNL d   1      -4.638 -12.175   9.275 -0.22 -0.01    -0.021    46.665
ATOM      7  C   UNL d   1      -3.519 -11.392   9.113 -0.22 -0.01    -0.025    46.665
ATOM      8  C   UNL d   1      -3.355 -10.696  10.308 -0.22 +0.02    +0.066    46.665
ATOM      9  C   UNL d   1      -2.657 -11.359   7.870 -0.32 +0.01    +0.051    46.665
ATOM     10  C   UNL d   1      -2.179  -9.002  11.727 -0.17 +0.02    +0.066    46.665
ATOM     11  C   UNL d   1      -1.265  -7.947  11.821 -0.23 -0.00    -0.021    46.665
ATOM     12  C   UNL d   1      -1.394  -7.426  13.096 -0.18 +0.00    +0.000    46.665
ATOM     13  C   UNL d   1      -2.394  -8.219  13.725 -0.13 +0.01    +0.070    46.665
ATOM     14  C   UNL d   1      -0.327  -7.439  10.732 -0.16 +0.00    +0.052    46.665
ATOM     15  C   UNL d   1      -3.829  -8.862  15.654 -0.13 +0.02    +0.066    46.665
ATOM     16  C   UNL d   1      -4.139  -8.747  17.009 -0.08 -0.00    -0.021    46.665
ATOM     17  C   UNL d   1      -5.160  -9.664  17.259 -0.07 +0.00    +0.000    46.665
ATOM     18  C   UNL d   1      -5.402 -10.275  16.021 -0.10 +0.03    +0.070    46.665
ATOM     19  C   UNL d   1      -3.402  -7.823  17.945 -0.05 -0.00    +0.052    46.665
ATOM     20  C   UNL d   1      -6.665 -11.943  14.600 -0.16 +0.03    +0.066    46.665
ATOM     21  C   UNL d   1      -7.667 -12.892  14.414 -0.22 -0.01    -0.025    46.665
ATOM     22  C   UNL d   1      -7.621 -13.252  13.086 -0.30 -0.01    -0.021    46.665
ATOM     23  C   UNL d   1      -6.577 -12.520  12.513 -0.26 +0.03    +0.066    46.665
ATOM     24  C   UNL d   1      -8.617 -13.430  15.452 -0.17 +0.02    +0.051    46.665
ATOM     25  N   UNL d   1      -4.288 -11.104  11.233 -0.13 -0.10    -0.248    46.665
ATOM     26  N   UNL d   1      -2.863  -9.178  12.886 -0.10 -0.07    -0.248    46.665
ATOM     27  N   UNL d   1      -4.534  -9.830  15.076 -0.10 -0.11    -0.248    46.665
ATOM     28  N   UNL d   1      -5.970 -11.759  13.447 -0.12 -0.13    -0.248    46.665
ATOM     29 FE   UNL d   1      -4.428 -10.477  13.171 -0.04 +0.00    +0.000    46.665
ATOM     30  O   UNL d   1      -3.177 -11.358  12.885 -0.10 +0.00    +0.000    46.665
ATOM     31  O   UNL d   1      -3.971 -11.544  14.232 -0.08 +0.00    +0.000    46.665
ATOM     32  C   UNL d   1      -5.145 -13.168   8.261 -0.24 +0.03    +0.052    46.665
ATOM     33  C   UNL d   1      -5.962 -14.293   8.890 -0.22 +0.10    +0.115    46.665
ATOM     34  C   UNL d   1      -6.420 -15.309   7.874 -0.22 +0.21    +0.139    46.665
ATOM     35  O   UNL d   1      -6.141 -15.152   6.696 -0.38 -1.18    -0.650    46.665
ATOM     36  O   UNL d   1      -7.159 -16.379   8.233 -0.51 -1.83    -0.776    46.665
ATOM     37  H   UNL d   1      -6.899 -16.959   8.958 +0.02 +0.29    +0.167    46.665
ATOM     38  C   UNL d   1      -8.493 -14.289  12.427 +0.09 +0.02    +0.052    46.665
ATOM     39  C   UNL d   1      -7.872 -15.684  12.472 -0.16 +0.05    +0.115    46.665
ATOM     40  C   UNL d   1      -8.562 -16.652  11.543 +0.05 +0.12    +0.139    46.665
ATOM     41  O   UNL d   1      -9.773 -16.598  11.403 -0.45 -0.73    -0.650    46.665
ATOM     42  O   UNL d   1      -7.858 -17.547  10.823 -0.02 -0.86    -0.776    46.665
ATOM     43  H   UNL d   1      -7.158 -17.270  10.220 +0.02 +0.20    +0.167    46.665
ATOM     44  C   UNL d   1      -0.565  -6.252  13.573 -0.35 +0.00    +0.004    46.665
ATOM     45  C   UNL d   1      -0.917  -5.297  14.432 -0.36 -0.00    +0.012    46.665
ATOM     46  C   UNL d   1      -5.861 -10.037  18.537 -0.03 +0.00    +0.004    46.665
ATOM     47  C   UNL d   1      -7.131  -9.795  18.887 -0.05 +0.00    +0.012    46.665
TER
ENDMDL
MODEL       71
USER    Run = 71
USER    Cluster Rank = 6
USER    Number of conformations in this cluster = 2
USER  
USER    RMSD from reference structure       = 48.035 A
USER  
USER    Estimated Free Energy of Binding    =   -8.57 kcal/mol  [=(1)+(2)+(3)-(4)]
USER    Estimated Inhibition Constant, Ki   =  526.61 nM (nanomolar)  [Temperature = 298.15 K]
USER    
USER    (1) Final Intermolecular Energy     =  -11.55 kcal/mol
USER        vdW + Hbond + desolv Energy     =   -7.51 kcal/mol
USER        Electrostatic Energy            =   -4.04 kcal/mol
USER    (2) Final Total Internal Energy     =   -1.51 kcal/mol
USER    (3) Torsional Free Energy           =   +2.98 kcal/mol
USER    (4) Unbound System's Energy  [=(2)] =   -1.51 kcal/mol
USER    
USER    
USER  
USER    DPF = D:/Protein_go_brrr/autodock/final/AncB/heme_O2/dock.dpf
USER    NEWDPF move	heme_O2_opt.pdbqt
USER    NEWDPF about	8.287000 34.468000 -0.670000
USER    NEWDPF tran0	0.060793 -15.778552 2.956029
USER    NEWDPF axisangle0	0.799615 -0.450509 -0.397060 109.660473
USER    NEWDPF quaternion0	0.653645 -0.368268 -0.324577 0.576001
USER    NEWDPF dihe0	74.89 -106.67 -0.18 -123.36 -130.06 73.51 -86.96 95.54 -178.31 -152.81 
USER  
USER                              x       y       z    vdW   Elec        q     RMS 
ATOM      1  C   UNL d   1      -1.423 -16.410   4.334 -0.06 +0.03    +0.064    48.035
ATOM      2  C   UNL d   1       1.518 -12.681   4.272 -0.15 +0.01    +0.064    48.035
ATOM      3  C   UNL d   1       3.461 -14.165   0.135 -0.17 +0.01    +0.064    48.035
ATOM      4  C   UNL d   1       0.115 -17.747  -0.058 -0.11 +0.01    +0.064    48.035
ATOM      5  C   UNL d   1      -0.783 -15.274   4.654 -0.01 +0.03    +0.066    48.035
ATOM      6  C   UNL d   1      -1.036 -14.532   5.811 -0.06 -0.01    -0.021    48.035
ATOM      7  C   UNL d   1      -0.216 -13.429   5.773 -0.08 -0.01    -0.025    48.035
ATOM      8  C   UNL d   1       0.551 -13.553   4.617 -0.07 +0.02    +0.066    48.035
ATOM      9  C   UNL d   1      -0.216 -12.314   6.796 -0.18 +0.01    +0.051    48.035
ATOM     10  C   UNL d   1       2.370 -12.771   3.086 -0.16 +0.01    +0.066    48.035
ATOM     11  C   UNL d   1       3.467 -11.932   2.860 -0.17 -0.00    -0.021    48.035
ATOM     12  C   UNL d   1       4.051 -12.355   1.681 -0.22 -0.00    +0.000    48.035
ATOM     13  C   UNL d   1       3.253 -13.446   1.238 -0.14 +0.01    +0.070    48.035
ATOM     14  C   UNL d   1       3.953 -10.791   3.747 -0.23 -0.00    +0.052    48.035
ATOM     15  C   UNL d   1       2.657 -15.253  -0.367 -0.17 +0.01    +0.066    48.035
ATOM     16  C   UNL d   1       2.833 -15.858  -1.611 -0.26 +0.00    -0.021    48.035
ATOM     17  C   UNL d   1       1.889 -16.882  -1.688 -0.24 -0.00    +0.000    48.035
ATOM     18  C   UNL d   1       1.200 -16.825  -0.469 -0.16 +0.01    +0.070    48.035
ATOM     19  C   UNL d   1       3.839 -15.375  -2.626 -0.37 -0.00    +0.052    48.035
ATOM     20  C   UNL d   1      -0.596 -17.694   1.085 -0.07 +0.02    +0.066    48.035
ATOM     21  C   UNL d   1      -1.595 -18.601   1.426 -0.05 -0.01    -0.025    48.035
ATOM     22  C   UNL d   1      -2.026 -18.252   2.686 -0.04 -0.01    -0.021    48.035
ATOM     23  C   UNL d   1      -1.283 -17.129   3.062 -0.06 +0.03    +0.066    48.035
ATOM     24  C   UNL d   1      -2.115 -19.742   0.589 -0.05 +0.02    +0.051    48.035
ATOM     25  N   UNL d   1       0.155 -14.655   3.896 -0.04 -0.11    -0.248    48.035
ATOM     26  N   UNL d   1       2.229 -13.689   2.096 -0.10 -0.04    -0.248    48.035
ATOM     27  N   UNL d   1       1.629 -15.784   0.289 -0.10 -0.03    -0.248    48.035
ATOM     28  N   UNL d   1      -0.447 -16.766   2.068 -0.04 -0.08    -0.248    48.035
ATOM     29 FE   UNL d   1       0.882 -15.240   2.079 -0.03 +0.00    +0.000    48.035
ATOM     30  O   UNL d   1       0.042 -13.931   2.028 -0.64 +0.00    +0.000    48.035
ATOM     31  O   UNL d   1      -0.104 -14.998   0.878 -0.41 +0.00    +0.000    48.035
ATOM     32  C   UNL d   1      -2.104 -14.773   6.846 -0.07 +0.02    +0.052    48.035
ATOM     33  C   UNL d   1      -3.373 -13.965   6.588 -0.12 +0.06    +0.115    48.035
ATOM     34  C   UNL d   1      -4.369 -14.715   5.738 -0.15 +0.14    +0.139    48.035
ATOM     35  O   UNL d   1      -5.070 -15.575   6.248 -0.33 -0.93    -0.650    48.035
ATOM     36  O   UNL d   1      -4.484 -14.478   4.415 +0.10 -0.81    -0.776    48.035
ATOM     37  H   UNL d   1      -3.833 -14.799   3.780 -0.32 +0.11    +0.167    48.035
ATOM     38  C   UNL d   1      -3.135 -18.925   3.453 -0.03 +0.03    +0.052    48.035
ATOM     39  C   UNL d   1      -4.414 -19.059   2.630 -0.10 +0.12    +0.115    48.035
ATOM     40  C   UNL d   1      -5.278 -17.825   2.702 -0.06 +0.27    +0.139    48.035
ATOM     41  O   UNL d   1      -6.492 -17.937   2.748 -0.37 -1.84    -0.650    48.035
ATOM     42  O   UNL d   1      -4.731 -16.596   2.768 -0.10 -1.41    -0.776    48.035
ATOM     43  H   UNL d   1      -4.703 -16.099   3.594 +0.03 +0.30    +0.167    48.035
ATOM     44  C   UNL d   1       5.284 -11.687   1.109 -0.40 -0.00    +0.004    48.035
ATOM     45  C   UNL d   1       5.987 -12.047   0.036 -0.38 -0.00    +0.012    48.035
ATOM     46  C   UNL d   1       1.558 -17.838  -2.803 -0.28 -0.00    +0.004    48.035
ATOM     47  C   UNL d   1       0.355 -18.126  -3.317 -0.28 -0.00    +0.012    48.035
TER
ENDMDL
MODEL       67
USER    Run = 67
USER    Cluster Rank = 7
USER    Number of conformations in this cluster = 1
USER  
USER    RMSD from reference structure       = 50.022 A
USER  
USER    Estimated Free Energy of Binding    =   -8.45 kcal/mol  [=(1)+(2)+(3)-(4)]
USER    Estimated Inhibition Constant, Ki   =  644.17 nM (nanomolar)  [Temperature = 298.15 K]
USER    
USER    (1) Final Intermolecular Energy     =  -11.43 kcal/mol
USER        vdW + Hbond + desolv Energy     =   -5.90 kcal/mol
USER        Electrostatic Energy            =   -5.53 kcal/mol
USER    (2) Final Total Internal Energy     =   -1.64 kcal/mol
USER    (3) Torsional Free Energy           =   +2.98 kcal/mol
USER    (4) Unbound System's Energy  [=(2)] =   -1.64 kcal/mol
USER    
USER    
USER  
USER    DPF = D:/Protein_go_brrr/autodock/final/AncB/heme_O2/dock.dpf
USER    NEWDPF move	heme_O2_opt.pdbqt
USER    NEWDPF about	8.287000 34.468000 -0.670000
USER    NEWDPF tran0	-5.090625 -16.625427 7.972730
USER    NEWDPF axisangle0	-0.651974 -0.518983 0.552798 -92.946289
USER    NEWDPF quaternion0	-0.472715 -0.376290 0.400807 -0.688694
USER    NEWDPF dihe0	40.19 64.78 70.22 97.03 45.66 -51.03 -171.04 144.63 -170.12 -163.64 
USER  
USER                              x       y       z    vdW   Elec        q     RMS 
ATOM      1  C   UNL d   1      -5.231 -18.463   6.923 -0.01 +0.06    +0.064    50.022
ATOM      2  C   UNL d   1      -7.557 -16.733  10.685 -0.03 +0.07    +0.064    50.022
ATOM      3  C   UNL d   1      -4.963 -12.690  10.545 -0.19 +0.03    +0.064    50.022
ATOM      4  C   UNL d   1      -2.892 -14.258   6.384 -0.08 +0.03    +0.064    50.022
ATOM      5  C   UNL d   1      -6.076 -18.322   7.956 -0.04 +0.07    +0.066    50.022
ATOM      6  C   UNL d   1      -6.995 -19.297   8.355 -0.04 -0.02    -0.021    50.022
ATOM      7  C   UNL d   1      -7.699 -18.780   9.418 -0.05 -0.03    -0.025    50.022
ATOM      8  C   UNL d   1      -7.158 -17.522   9.669 -0.05 +0.09    +0.066    50.022
ATOM      9  C   UNL d   1      -8.848 -19.474  10.114 -0.08 +0.05    +0.051    50.022
ATOM     10  C   UNL d   1      -7.012 -15.415  11.012 -0.06 +0.04    +0.066    50.022
ATOM     11  C   UNL d   1      -7.347 -14.710  12.173 -0.20 -0.01    -0.021    50.022
ATOM     12  C   UNL d   1      -6.596 -13.549  12.160 -0.23 +0.00    +0.000    50.022
ATOM     13  C   UNL d   1      -5.837 -13.607  10.959 -0.18 +0.04    +0.070    50.022
ATOM     14  C   UNL d   1      -8.323 -15.138  13.263 -0.19 +0.02    +0.052    50.022
ATOM     15  C   UNL d   1      -4.201 -12.695   9.320 -0.13 +0.03    +0.066    50.022
ATOM     16  C   UNL d   1      -3.427 -11.627   8.866 -0.21 -0.01    -0.021    50.022
ATOM     17  C   UNL d   1      -2.827 -12.051   7.680 -0.24 +0.00    +0.000    50.022
ATOM     18  C   UNL d   1      -3.285 -13.364   7.498 -0.12 +0.03    +0.070    50.022
ATOM     19  C   UNL d   1      -3.373 -10.293   9.568 -0.31 +0.01    +0.052    50.022
ATOM     20  C   UNL d   1      -3.346 -15.506   6.156 -0.07 +0.04    +0.066    50.022
ATOM     21  C   UNL d   1      -2.925 -16.308   5.098 -0.07 -0.02    -0.025    50.022
ATOM     22  C   UNL d   1      -3.560 -17.520   5.251 -0.04 -0.02    -0.021    50.022
ATOM     23  C   UNL d   1      -4.362 -17.406   6.391 -0.03 +0.06    +0.066    50.022
ATOM     24  C   UNL d   1      -1.968 -15.936   3.996 -0.07 +0.03    +0.051    50.022
ATOM     25  N   UNL d   1      -6.203 -17.214   8.727 -0.06 -0.30    -0.248    50.022
ATOM     26  N   UNL d   1      -6.099 -14.743  10.264 -0.12 -0.16    -0.248    50.022
ATOM     27  N   UNL d   1      -4.176 -13.711   8.462 -0.04 -0.13    -0.248    50.022
ATOM     28  N   UNL d   1      -4.263 -16.165   6.912 -0.02 -0.22    -0.248    50.022
ATOM     29 FE   UNL d   1      -5.173 -15.457   8.575 -0.02 +0.00    +0.000    50.022
ATOM     30  O   UNL d   1      -6.684 -15.332   8.224 -0.51 +0.00    +0.000    50.022
ATOM     31  O   UNL d   1      -5.617 -14.548   7.371 -0.24 +0.00    +0.000    50.022
ATOM     32  C   UNL d   1      -7.298 -20.610   7.682 -0.01 +0.04    +0.052    50.022
ATOM     33  C   UNL d   1      -8.346 -20.483   6.581 -0.02 +0.11    +0.115    50.022
ATOM     34  C   UNL d   1      -8.722 -19.048   6.307 -0.02 +0.24    +0.139    50.022
ATOM     35  O   UNL d   1      -9.795 -18.620   6.701 -0.26 -1.68    -0.650    50.022
ATOM     36  O   UNL d   1      -7.909 -18.229   5.609 +0.04 -1.72    -0.776    50.022
ATOM     37  H   UNL d   1      -7.427 -18.529   4.830 +0.02 +0.34    +0.167    50.022
ATOM     38  C   UNL d   1      -3.448 -18.695   4.315 -0.02 +0.04    +0.052    50.022
ATOM     39  C   UNL d   1      -3.955 -18.371   2.911 -0.11 +0.12    +0.115    50.022
ATOM     40  C   UNL d   1      -5.151 -17.452   2.928 -0.12 +0.27    +0.139    50.022
ATOM     41  O   UNL d   1      -4.990 -16.246   2.831 -0.11 -1.34    -0.650    50.022
ATOM     42  O   UNL d   1      -6.404 -17.942   2.997 -0.24 -2.13    -0.776    50.022
ATOM     43  H   UNL d   1      -6.727 -18.391   3.788 +0.02 +0.38    +0.167    50.022
ATOM     44  C   UNL d   1      -6.682 -12.523  13.271 -0.28 +0.00    +0.004    50.022
ATOM     45  C   UNL d   1      -7.141 -11.275  13.199 -0.38 +0.01    +0.012    50.022
ATOM     46  C   UNL d   1      -1.936 -11.324   6.708 -0.35 +0.00    +0.004    50.022
ATOM     47  C   UNL d   1      -0.599 -11.246   6.710 -0.30 +0.00    +0.012    50.022
TER
ENDMDL
MODEL       52
USER    Run = 52
USER    Cluster Rank = 8
USER    Number of conformations in this cluster = 8
USER  
USER    RMSD from reference structure       = 53.570 A
USER  
USER    Estimated Free Energy of Binding    =   -8.12 kcal/mol  [=(1)+(2)+(3)-(4)]
USER    Estimated Inhibition Constant, Ki   =    1.13 uM (micromolar)  [Temperature = 298.15 K]
USER    
USER    (1) Final Intermolecular Energy     =  -11.10 kcal/mol
USER        vdW + Hbond + desolv Energy     =   -5.51 kcal/mol
USER        Electrostatic Energy            =   -5.59 kcal/mol
USER    (2) Final Total Internal Energy     =   -0.47 kcal/mol
USER    (3) Torsional Free Energy           =   +2.98 kcal/mol
USER    (4) Unbound System's Energy  [=(2)] =   -0.47 kcal/mol
USER    
USER    
USER  
USER    DPF = D:/Protein_go_brrr/autodock/final/AncB/heme_O2/dock.dpf
USER    NEWDPF move	heme_O2_opt.pdbqt
USER    NEWDPF about	8.287000 34.468000 -0.670000
USER    NEWDPF tran0	-9.032693 -18.586868 10.834719
USER    NEWDPF axisangle0	-0.281235 -0.957759 0.060036 -104.137214
USER    NEWDPF quaternion0	-0.221823 -0.755430 0.047353 -0.614717
USER    NEWDPF dihe0	-106.22 -15.16 49.02 -101.59 22.21 -85.18 103.31 106.45 -131.03 -170.30 
USER  
USER                              x       y       z    vdW   Elec        q     RMS 
ATOM      1  C   UNL d   1      -7.833 -18.943   9.122 -0.02 +0.09    +0.064    53.570
ATOM      2  C   UNL d   1     -12.281 -20.182  10.238 -0.05 +0.04    +0.064    53.570
ATOM      3  C   UNL d   1     -11.903 -18.030  14.519 -0.09 +0.02    +0.064    53.570
ATOM      4  C   UNL d   1      -7.494 -16.340  13.190 -0.09 +0.03    +0.064    53.570
ATOM      5  C   UNL d   1      -9.074 -19.454   9.075 +0.03 +0.10    +0.066    53.570
ATOM      6  C   UNL d   1      -9.580 -20.187   7.998 -0.06 -0.02    -0.021    53.570
ATOM      7  C   UNL d   1     -10.882 -20.509   8.301 -0.06 -0.02    -0.025    53.570
ATOM      8  C   UNL d   1     -11.121 -20.006   9.577 -0.08 +0.06    +0.066    53.570
ATOM      9  C   UNL d   1     -11.832 -21.238   7.376 -0.03 +0.03    +0.051    53.570
ATOM     10  C   UNL d   1     -12.582 -19.698  11.586 -0.06 +0.03    +0.066    53.570
ATOM     11  C   UNL d   1     -13.740 -20.048  12.289 -0.03 -0.01    -0.021    53.570
ATOM     12  C   UNL d   1     -13.641 -19.452  13.533 -0.06 +0.00    +0.000    53.570
ATOM     13  C   UNL d   1     -12.406 -18.746  13.513 -0.08 +0.02    +0.070    53.570
ATOM     14  C   UNL d   1     -14.880 -20.936  11.805 -0.01 +0.01    +0.052    53.570
ATOM     15  C   UNL d   1     -10.675 -17.273  14.527 -0.04 +0.02    +0.066    53.570
ATOM     16  C   UNL d   1     -10.284 -16.412  15.552 -0.08 -0.00    -0.021    53.570
ATOM     17  C   UNL d   1      -9.030 -15.917  15.194 -0.10 +0.00    +0.000    53.570
ATOM     18  C   UNL d   1      -8.745 -16.523  13.963 -0.09 +0.02    +0.070    53.570
ATOM     19  C   UNL d   1     -11.157 -16.098  16.741 -0.10 +0.01    +0.052    53.570
ATOM     20  C   UNL d   1      -7.207 -16.872  11.986 -0.09 +0.04    +0.066    53.570
ATOM     21  C   UNL d   1      -6.003 -16.677  11.314 -0.06 -0.01    -0.025    53.570
ATOM     22  C   UNL d   1      -6.071 -17.434  10.165 -0.06 -0.02    -0.021    53.570
ATOM     23  C   UNL d   1      -7.327 -18.050  10.170 -0.08 +0.07    +0.066    53.570
ATOM     24  C   UNL d   1      -4.848 -15.811  11.744 -0.03 +0.02    +0.051    53.570
ATOM     25  N   UNL d   1     -10.028 -19.300  10.026 -0.08 -0.31    -0.248    53.570
ATOM     26  N   UNL d   1     -11.771 -18.897  12.324 -0.07 -0.14    -0.248    53.570
ATOM     27  N   UNL d   1      -9.786 -17.284  13.537 -0.09 -0.10    -0.248    53.570
ATOM     28  N   UNL d   1      -8.031 -17.670  11.256 -0.09 -0.23    -0.248    53.570
ATOM     29 FE   UNL d   1      -9.887 -18.277  11.788 -0.03 +0.00    +0.000    53.570
ATOM     30  O   UNL d   1     -10.866 -17.632  10.764 -0.91 +0.00    +0.000    53.570
ATOM     31  O   UNL d   1      -9.928 -16.713  11.635 -0.62 +0.00    +0.000    53.570
ATOM     32  C   UNL d   1      -8.914 -20.458   6.673 -0.04 +0.05    +0.052    53.570
ATOM     33  C   UNL d   1      -8.304 -19.206   6.050 -0.09 +0.17    +0.115    53.570
ATOM     34  C   UNL d   1      -9.337 -18.335   5.379 -0.12 +0.29    +0.139    53.570
ATOM     35  O   UNL d   1      -9.160 -17.965   4.230 -0.19 -1.56    -0.650    53.570
ATOM     36  O   UNL d   1     -10.445 -17.929   6.033 -0.29 -1.88    -0.776    53.570
ATOM     37  H   UNL d   1     -11.313 -18.306   5.850 +0.02 +0.27    +0.167    53.570
ATOM     38  C   UNL d   1      -5.012 -17.505   9.096 -0.02 +0.04    +0.052    53.570
ATOM     39  C   UNL d   1      -4.872 -16.192   8.328 -0.05 +0.09    +0.115    53.570
ATOM     40  C   UNL d   1      -6.006 -15.968   7.359 -0.15 +0.21    +0.139    53.570
ATOM     41  O   UNL d   1      -7.154 -15.914   7.771 -0.58 -1.53    -0.650    53.570
ATOM     42  O   UNL d   1      -5.772 -15.773   6.047 -0.48 -1.73    -0.776    53.570
ATOM     43  H   UNL d   1      -4.884 -15.595   5.713 +0.04 +0.25    +0.167    53.570
ATOM     44  C   UNL d   1     -14.715 -19.611  14.588 -0.02 +0.00    +0.004    53.570
ATOM     45  C   UNL d   1     -15.245 -18.668  15.366 -0.03 +0.00    +0.012    53.570
ATOM     46  C   UNL d   1      -8.136 -14.910  15.868 -0.08 +0.00    +0.004    53.570
ATOM     47  C   UNL d   1      -7.859 -13.658  15.481 -0.13 +0.00    +0.012    53.570
TER
ENDMDL
MODEL       45
USER    Run = 45
USER    Cluster Rank = 9
USER    Number of conformations in this cluster = 2
USER  
USER    RMSD from reference structure       = 46.463 A
USER  
USER    Estimated Free Energy of Binding    =   -8.11 kcal/mol  [=(1)+(2)+(3)-(4)]
USER    Estimated Inhibition Constant, Ki   =    1.13 uM (micromolar)  [Temperature = 298.15 K]
USER    
USER    (1) Final Intermolecular Energy     =  -11.09 kcal/mol
USER        vdW + Hbond + desolv Energy     =   -5.84 kcal/mol
USER        Electrostatic Energy            =   -5.25 kcal/mol
USER    (2) Final Total Internal Energy     =   -1.97 kcal/mol
USER    (3) Torsional Free Energy           =   +2.98 kcal/mol
USER    (4) Unbound System's Energy  [=(2)] =   -1.97 kcal/mol
USER    
USER    
USER  
USER    DPF = D:/Protein_go_brrr/autodock/final/AncB/heme_O2/dock.dpf
USER    NEWDPF move	heme_O2_opt.pdbqt
USER    NEWDPF about	8.287000 34.468000 -0.670000
USER    NEWDPF tran0	-2.047903 -13.370295 7.911210
USER    NEWDPF axisangle0	-0.930368 -0.078674 0.358086 -86.844309
USER    NEWDPF quaternion0	-0.639506 -0.054078 0.246137 -0.726309
USER    NEWDPF dihe0	-144.30 38.28 114.24 -94.38 66.47 58.76 -76.40 29.92 -157.58 -170.97 
USER  
USER                              x       y       z    vdW   Elec        q     RMS 
ATOM      1  C   UNL d   1      -3.539 -14.853   7.637 -0.05 +0.04    +0.064    46.463
ATOM      2  C   UNL d   1      -3.185 -11.173  10.618 -0.15 +0.02    +0.064    46.463
ATOM      3  C   UNL d   1       1.110 -10.002   8.809 +0.05 +0.01    +0.064    46.463
ATOM      4  C   UNL d   1       0.543 -13.498   5.414 -0.10 +0.02    +0.064    46.463
ATOM      5  C   UNL d   1      -3.794 -13.947   8.594 -0.06 +0.03    +0.066    46.463
ATOM      6  C   UNL d   1      -4.945 -13.949   9.387 -0.13 -0.01    -0.021    46.463
ATOM      7  C   UNL d   1      -4.864 -12.858  10.221 -0.16 -0.01    -0.025    46.463
ATOM      8  C   UNL d   1      -3.643 -12.248   9.948 -0.11 +0.02    +0.066    46.463
ATOM      9  C   UNL d   1      -5.938 -12.435  11.199 -0.26 +0.03    +0.051    46.463
ATOM     10  C   UNL d   1      -1.904 -10.504  10.392 -0.16 +0.01    +0.066    46.463
ATOM     11  C   UNL d   1      -1.405  -9.495  11.224 -0.20 -0.00    -0.021    46.463
ATOM     12  C   UNL d   1      -0.159  -9.156  10.729 -0.16 +0.00    +0.000    46.463
ATOM     13  C   UNL d   1       0.031  -9.988   9.591 +0.04 +0.01    +0.070    46.463
ATOM     14  C   UNL d   1      -2.078  -8.898  12.455 -0.19 +0.01    +0.052    46.463
ATOM     15  C   UNL d   1       1.327 -10.803   7.629 -0.12 +0.01    +0.066    46.463
ATOM     16  C   UNL d   1       2.407 -10.655   6.760 -0.13 -0.00    -0.021    46.463
ATOM     17  C   UNL d   1       2.266 -11.640   5.783 -0.12 +0.00    +0.000    46.463
ATOM     18  C   UNL d   1       1.096 -12.327   6.135 -0.12 +0.01    +0.070    46.463
ATOM     19  C   UNL d   1       3.436  -9.562   6.906 -0.15 +0.01    +0.052    46.463
ATOM     20  C   UNL d   1      -0.600 -14.152   5.700 -0.05 +0.02    +0.066    46.463
ATOM     21  C   UNL d   1      -1.061 -15.261   4.995 -0.04 -0.01    -0.025    46.463
ATOM     22  C   UNL d   1      -2.209 -15.677   5.631 -0.06 -0.01    -0.021    46.463
ATOM     23  C   UNL d   1      -2.416 -14.793   6.694 -0.06 +0.03    +0.066    46.463
ATOM     24  C   UNL d   1      -0.439 -15.889   3.774 -0.09 +0.02    +0.051    46.463
ATOM     25  N   UNL d   1      -3.015 -12.881   8.901 -0.04 -0.08    -0.248    46.463
ATOM     26  N   UNL d   1      -1.037 -10.802   9.391 -0.09 -0.05    -0.248    46.463
ATOM     27  N   UNL d   1       0.499 -11.758   7.214 -0.09 -0.04    -0.248    46.463
ATOM     28  N   UNL d   1      -1.461 -13.841   6.705 -0.06 -0.07    -0.248    46.463
ATOM     29 FE   UNL d   1      -1.248 -12.331   8.036 -0.03 +0.00    +0.000    46.463
ATOM     30  O   UNL d   1      -2.417 -11.341   7.762 -0.35 +0.00    +0.000    46.463
ATOM     31  O   UNL d   1      -1.398 -11.685   6.611 -0.33 +0.00    +0.000    46.463
ATOM     32  C   UNL d   1      -6.142 -14.857   9.275 -0.21 +0.05    +0.052    46.463
ATOM     33  C   UNL d   1      -7.026 -14.528   8.076 -0.02 +0.16    +0.115    46.463
ATOM     34  C   UNL d   1      -6.802 -15.470   6.920 -0.03 +0.31    +0.139    46.463
ATOM     35  O   UNL d   1      -5.892 -15.257   6.135 -0.38 -1.40    -0.650    46.463
ATOM     36  O   UNL d   1      -7.606 -16.535   6.714 -0.19 -2.37    -0.776    46.463
ATOM     37  H   UNL d   1      -7.267 -17.373   6.379 +0.02 +0.42    +0.167    46.463
ATOM     38  C   UNL d   1      -3.087 -16.822   5.197 -0.06 +0.04    +0.052    46.463
ATOM     39  C   UNL d   1      -3.827 -16.527   3.894 -0.16 +0.12    +0.115    46.463
ATOM     40  C   UNL d   1      -5.143 -17.257   3.800 +0.03 +0.28    +0.139    46.463
ATOM     41  O   UNL d   1      -5.637 -17.477   2.706 -0.38 -1.62    -0.650    46.463
ATOM     42  O   UNL d   1      -5.763 -17.719   4.903 +0.04 -1.57    -0.776    46.463
ATOM     43  H   UNL d   1      -5.798 -17.201   5.717 +0.02 +0.34    +0.167    46.463
ATOM     44  C   UNL d   1       0.702  -8.093  11.379 -0.21 +0.00    +0.004    46.463
ATOM     45  C   UNL d   1       0.499  -6.776  11.401 -0.34 +0.00    +0.012    46.463
ATOM     46  C   UNL d   1       3.084 -11.939   4.555 -0.13 +0.00    +0.004    46.463
ATOM     47  C   UNL d   1       2.814 -11.623   3.282 -0.25 +0.00    +0.012    46.463
TER
ENDMDL
MODEL       97
USER    Run = 97
USER    Cluster Rank = 10
USER    Number of conformations in this cluster = 2
USER  
USER    RMSD from reference structure       = 45.728 A
USER  
USER    Estimated Free Energy of Binding    =   -8.10 kcal/mol  [=(1)+(2)+(3)-(4)]
USER    Estimated Inhibition Constant, Ki   =    1.16 uM (micromolar)  [Temperature = 298.15 K]
USER    
USER    (1) Final Intermolecular Energy     =  -11.08 kcal/mol
USER        vdW + Hbond + desolv Energy     =   -7.92 kcal/mol
USER        Electrostatic Energy            =   -3.16 kcal/mol
USER    (2) Final Total Internal Energy     =   -1.44 kcal/mol
USER    (3) Torsional Free Energy           =   +2.98 kcal/mol
USER    (4) Unbound System's Energy  [=(2)] =   -1.44 kcal/mol
USER    
USER    
USER  
USER    DPF = D:/Protein_go_brrr/autodock/final/AncB/heme_O2/dock.dpf
USER    NEWDPF move	heme_O2_opt.pdbqt
USER    NEWDPF about	8.287000 34.468000 -0.670000
USER    NEWDPF tran0	-3.554151 -11.495670 10.975776
USER    NEWDPF axisangle0	-0.680950 -0.605002 0.412649 -77.891112
USER    NEWDPF quaternion0	-0.428033 -0.380293 0.259384 -0.777744
USER    NEWDPF dihe0	63.14 55.31 80.01 12.28 -176.48 -50.93 -19.45 -19.82 -123.86 -5.11 
USER  
USER                              x       y       z    vdW   Elec        q     RMS 
ATOM      1  C   UNL d   1      -4.028 -12.933   9.490 -0.10 +0.03    +0.064    45.728
ATOM      2  C   UNL d   1      -6.154 -11.701  13.554 -0.20 +0.04    +0.064    45.728
ATOM      3  C   UNL d   1      -2.728  -8.457  14.470 -0.17 +0.01    +0.064    45.728
ATOM      4  C   UNL d   1      -0.789  -9.380  10.060 +0.03 +0.01    +0.064    45.728
ATOM      5  C   UNL d   1      -4.887 -12.861  10.520 -0.14 +0.03    +0.066    45.728
ATOM      6  C   UNL d   1      -6.022 -13.667  10.650 -0.22 -0.01    -0.021    45.728
ATOM      7  C   UNL d   1      -6.662 -13.281  11.804 -0.26 -0.01    -0.025    45.728
ATOM      8  C   UNL d   1      -5.874 -12.284  12.373 -0.20 +0.03    +0.066    45.728
ATOM      9  C   UNL d   1      -7.979 -13.843  12.293 -0.24 +0.03    +0.051    45.728
ATOM     10  C   UNL d   1      -5.354 -10.666  14.211 -0.11 +0.04    +0.066    45.728
ATOM     11  C   UNL d   1      -5.601 -10.213  15.511 -0.12 -0.01    -0.021    45.728
ATOM     12  C   UNL d   1      -4.613  -9.290  15.801 -0.14 +0.00    +0.000    45.728
ATOM     13  C   UNL d   1      -3.808  -9.222  14.629 -0.13 +0.03    +0.070    45.728
ATOM     14  C   UNL d   1      -6.716 -10.661  16.449 -0.14 +0.02    +0.052    45.728
ATOM     15  C   UNL d   1      -1.908  -8.334  13.289 -0.16 +0.01    +0.066    45.728
ATOM     16  C   UNL d   1      -0.890  -7.395  13.128 -0.23 -0.00    -0.021    45.728
ATOM     17  C   UNL d   1      -0.323  -7.638  11.877 -0.28 +0.00    +0.000    45.728
ATOM     18  C   UNL d   1      -1.047  -8.723  11.363 -0.23 +0.01    +0.070    45.728
ATOM     19  C   UNL d   1      -0.589  -6.325  14.148 -0.29 +0.00    +0.052    45.728
ATOM     20  C   UNL d   1      -1.491 -10.394   9.517 -0.17 +0.01    +0.066    45.728
ATOM     21  C   UNL d   1      -1.190 -10.984   8.292 -0.20 -0.01    -0.025    45.728
ATOM     22  C   UNL d   1      -2.085 -12.016   8.126 -0.18 -0.01    -0.021    45.728
ATOM     23  C   UNL d   1      -2.915 -12.007   9.252 -0.13 +0.02    +0.066    45.728
ATOM     24  C   UNL d   1      -0.104 -10.581   7.328 -0.15 +0.01    +0.051    45.728
ATOM     25  N   UNL d   1      -4.816 -11.980  11.547 -0.10 -0.10    -0.248    45.728
ATOM     26  N   UNL d   1      -4.269 -10.059  13.666 -0.10 -0.12    -0.248    45.728
ATOM     27  N   UNL d   1      -2.053  -9.084  12.200 -0.13 -0.06    -0.248    45.728
ATOM     28  N   UNL d   1      -2.578 -10.991  10.073 -0.09 -0.06    -0.248    45.728
ATOM     29 FE   UNL d   1      -3.416 -10.526  11.856 -0.04 +0.00    +0.000    45.728
ATOM     30  O   UNL d   1      -4.836  -9.974  11.539 -0.33 +0.00    +0.000    45.728
ATOM     31  O   UNL d   1      -3.569  -9.270  10.922 -0.34 +0.00    +0.000    45.728
ATOM     32  C   UNL d   1      -6.562 -14.667   9.661 -0.15 +0.04    +0.052    45.728
ATOM     33  C   UNL d   1      -6.467 -14.183   8.217 -0.27 +0.12    +0.115    45.728
ATOM     34  C   UNL d   1      -6.503 -15.320   7.226 -0.18 +0.25    +0.139    45.728
ATOM     35  O   UNL d   1      -7.156 -16.320   7.478 -0.56 -1.61    -0.650    45.728
ATOM     36  O   UNL d   1      -5.804 -15.270   6.073 -0.42 -1.65    -0.776    45.728
ATOM     37  H   UNL d   1      -4.840 -15.228   6.061 +0.05 +0.22    +0.167    45.728
ATOM     38  C   UNL d   1      -2.175 -12.916   6.921 -0.18 +0.02    +0.052    45.728
ATOM     39  C   UNL d   1      -1.430 -14.234   7.123 -0.07 +0.03    +0.115    45.728
ATOM     40  C   UNL d   1      -1.909 -15.316   6.187 -0.06 +0.06    +0.139    45.728
ATOM     41  O   UNL d   1      -1.336 -15.495   5.124 +0.01 -0.26    -0.650    45.728
ATOM     42  O   UNL d   1      -2.930 -16.126   6.525 +0.05 -0.44    -0.776    45.728
ATOM     43  H   UNL d   1      -3.801 -15.775   6.745 +0.04 +0.12    +0.167    45.728
ATOM     44  C   UNL d   1      -4.542  -8.580  17.136 -0.12 +0.00    +0.004    45.728
ATOM     45  C   UNL d   1      -4.881  -7.321  17.414 -0.16 -0.00    +0.012    45.728
ATOM     46  C   UNL d   1       0.768  -6.919  11.130 -0.31 +0.00    +0.004    45.728
ATOM     47  C   UNL d   1       1.535  -5.907  11.555 -0.32 +0.00    +0.012    45.728
TER
ENDMDL
MODEL       36
USER    Run = 36
USER    Cluster Rank = 11
USER    Number of conformations in this cluster = 2
USER  
USER    RMSD from reference structure       = 47.904 A
USER  
USER    Estimated Free Energy of Binding    =   -7.97 kcal/mol  [=(1)+(2)+(3)-(4)]
USER    Estimated Inhibition Constant, Ki   =    1.43 uM (micromolar)  [Temperature = 298.15 K]
USER    
USER    (1) Final Intermolecular Energy     =  -10.96 kcal/mol
USER        vdW + Hbond + desolv Energy     =   -6.61 kcal/mol
USER        Electrostatic Energy            =   -4.35 kcal/mol
USER    (2) Final Total Internal Energy     =   -0.06 kcal/mol
USER    (3) Torsional Free Energy           =   +2.98 kcal/mol
USER    (4) Unbound System's Energy  [=(2)] =   -0.06 kcal/mol
USER    
USER    
USER  
USER    DPF = D:/Protein_go_brrr/autodock/final/AncB/heme_O2/dock.dpf
USER    NEWDPF move	heme_O2_opt.pdbqt
USER    NEWDPF about	8.287000 34.468000 -0.670000
USER    NEWDPF tran0	-0.992551 -15.286628 4.108261
USER    NEWDPF axisangle0	-0.729123 -0.359733 -0.582212 129.116676
USER    NEWDPF quaternion0	-0.658415 -0.324847 -0.525751 0.429592
USER    NEWDPF dihe0	-41.60 1.57 -65.87 148.39 70.94 -151.40 -103.73 -66.23 -50.17 -128.33 
USER  
USER                              x       y       z    vdW   Elec        q     RMS 
ATOM      1  C   UNL d   1      -2.226 -17.005   3.944 -0.06 +0.04    +0.064    47.904
ATOM      2  C   UNL d   1       1.718 -15.657   1.666 -0.09 +0.01    +0.064    47.904
ATOM      3  C   UNL d   1       1.884 -11.566   4.182 -0.25 +0.01    +0.064    47.904
ATOM      4  C   UNL d   1      -1.900 -13.159   6.867 -0.13 +0.02    +0.064    47.904
ATOM      5  C   UNL d   1      -1.166 -16.973   3.121 -0.06 +0.03    +0.066    47.904
ATOM      6  C   UNL d   1      -0.863 -17.976   2.195 -0.04 -0.01    -0.021    47.904
ATOM      7  C   UNL d   1       0.303 -17.607   1.565 -0.04 -0.01    -0.025    47.904
ATOM      8  C   UNL d   1       0.654 -16.366   2.089 -0.07 +0.02    +0.066    47.904
ATOM      9  C   UNL d   1       1.033 -18.444   0.537 -0.04 +0.01    +0.051    47.904
ATOM     10  C   UNL d   1       2.123 -14.341   2.161 -0.12 +0.01    +0.066    47.904
ATOM     11  C   UNL d   1       3.139 -13.577   1.575 -0.16 -0.00    -0.021    47.904
ATOM     12  C   UNL d   1       3.190 -12.386   2.275 -0.21 +0.00    +0.000    47.904
ATOM     13  C   UNL d   1       2.189 -12.498   3.279 -0.18 +0.01    +0.070    47.904
ATOM     14  C   UNL d   1       4.005 -13.957   0.380 -0.21 +0.00    +0.052    47.904
ATOM     15  C   UNL d   1       0.903 -11.654   5.236 -0.22 +0.01    +0.066    47.904
ATOM     16  C   UNL d   1       0.745 -10.711   6.251 -0.22 -0.00    -0.021    47.904
ATOM     17  C   UNL d   1      -0.328 -11.144   7.029 -0.22 +0.00    +0.000    47.904
ATOM     18  C   UNL d   1      -0.751 -12.335   6.422 -0.12 +0.02    +0.070    47.904
ATOM     19  C   UNL d   1       1.657  -9.522   6.417 -0.10 +0.01    +0.052    47.904
ATOM     20  C   UNL d   1      -2.306 -14.327   6.334 -0.07 +0.03    +0.066    47.904
ATOM     21  C   UNL d   1      -3.408 -15.050   6.785 -0.08 -0.01    -0.025    47.904
ATOM     22  C   UNL d   1      -3.532 -16.135   5.947 -0.07 -0.02    -0.021    47.904
ATOM     23  C   UNL d   1      -2.487 -16.044   5.022 -0.07 +0.04    +0.066    47.904
ATOM     24  C   UNL d   1      -4.294 -14.723   7.959 -0.08 +0.03    +0.051    47.904
ATOM     25  N   UNL d   1      -0.215 -16.007   3.093 -0.06 -0.09    -0.248    47.904
ATOM     26  N   UNL d   1       1.548 -13.692   3.206 -0.10 -0.06    -0.248    47.904
ATOM     27  N   UNL d   1       0.054 -12.668   5.381 -0.07 -0.07    -0.248    47.904
ATOM     28  N   UNL d   1      -1.718 -14.968   5.289 +0.07 -0.10    -0.248    47.904
ATOM     29 FE   UNL d   1      -0.097 -14.333   4.257 -0.04 +0.00    +0.000    47.904
ATOM     30  O   UNL d   1       1.030 -15.371   4.534 -0.06 +0.00    +0.000    47.904
ATOM     31  O   UNL d   1       0.362 -14.603   5.737 -0.08 +0.00    +0.000    47.904
ATOM     32  C   UNL d   1      -1.563 -19.296   2.003 -0.02 +0.02    +0.052    47.904
ATOM     33  C   UNL d   1      -3.063 -19.216   2.271 -0.05 +0.08    +0.115    47.904
ATOM     34  C   UNL d   1      -3.808 -18.512   1.164 -0.08 +0.16    +0.139    47.904
ATOM     35  O   UNL d   1      -3.812 -17.292   1.120 -0.41 -0.97    -0.650    47.904
ATOM     36  O   UNL d   1      -4.498 -19.201   0.232 -0.43 -1.07    -0.776    47.904
ATOM     37  H   UNL d   1      -4.155 -20.011  -0.163 +0.02 +0.14    +0.167    47.904
ATOM     38  C   UNL d   1      -4.560 -17.229   6.072 -0.06 +0.06    +0.052    47.904
ATOM     39  C   UNL d   1      -5.048 -17.407   7.509 -0.03 +0.11    +0.115    47.904
ATOM     40  C   UNL d   1      -6.493 -17.013   7.680 -0.12 +0.23    +0.139    47.904
ATOM     41  O   UNL d   1      -7.093 -16.490   6.755 -0.41 -1.70    -0.650    47.904
ATOM     42  O   UNL d   1      -7.155 -17.275   8.824 -0.34 -1.52    -0.776    47.904
ATOM     43  H   UNL d   1      -6.710 -17.664   9.587 +0.02 +0.19    +0.167    47.904
ATOM     44  C   UNL d   1       4.172 -11.288   1.923 -0.36 -0.00    +0.004    47.904
ATOM     45  C   UNL d   1       3.911 -10.101   1.376 -0.59 -0.00    +0.012    47.904
ATOM     46  C   UNL d   1      -0.928 -10.578   8.288 -0.20 +0.00    +0.004    47.904
ATOM     47  C   UNL d   1      -2.220 -10.514   8.635 -0.33 +0.00    +0.012    47.904
TER
ENDMDL
MODEL       27
USER    Run = 27
USER    Cluster Rank = 12
USER    Number of conformations in this cluster = 6
USER  
USER    RMSD from reference structure       = 36.088 A
USER  
USER    Estimated Free Energy of Binding    =   -7.82 kcal/mol  [=(1)+(2)+(3)-(4)]
USER    Estimated Inhibition Constant, Ki   =    1.86 uM (micromolar)  [Temperature = 298.15 K]
USER    
USER    (1) Final Intermolecular Energy     =  -10.80 kcal/mol
USER        vdW + Hbond + desolv Energy     =   -8.98 kcal/mol
USER        Electrostatic Energy            =   -1.82 kcal/mol
USER    (2) Final Total Internal Energy     =   -0.55 kcal/mol
USER    (3) Torsional Free Energy           =   +2.98 kcal/mol
USER    (4) Unbound System's Energy  [=(2)] =   -0.55 kcal/mol
USER    
USER    
USER  
USER    DPF = D:/Protein_go_brrr/autodock/final/AncB/heme_O2/dock.dpf
USER    NEWDPF move	heme_O2_opt.pdbqt
USER    NEWDPF about	8.287000 34.468000 -0.670000
USER    NEWDPF tran0	15.616380 -0.337405 -11.612197
USER    NEWDPF axisangle0	0.026972 -0.863976 0.502809 113.415981
USER    NEWDPF quaternion0	0.022545 -0.722184 0.420290 0.548906
USER    NEWDPF dihe0	-72.51 124.06 -42.49 -60.45 -155.57 -12.87 -22.88 -47.32 -161.26 -175.59 
USER  
USER                              x       y       z    vdW   Elec        q     RMS 
ATOM      1  C   UNL d   1      15.966   1.441 -10.510 -0.25 +0.03    +0.064    36.088
ATOM      2  C   UNL d   1      17.340  -3.059  -9.860 -0.17 +0.02    +0.064    36.088
ATOM      3  C   UNL d   1      14.954  -4.453 -13.792 -0.12 +0.02    +0.064    36.088
ATOM      4  C   UNL d   1      13.929   0.251 -14.738 -0.24 +0.02    +0.064    36.088
ATOM      5  C   UNL d   1      16.536   0.331 -10.013 -0.32 +0.03    +0.066    36.088
ATOM      6  C   UNL d   1      17.306   0.301  -8.847 -0.26 -0.01    -0.021    36.088
ATOM      7  C   UNL d   1      17.741  -0.993  -8.682 -0.26 -0.01    -0.025    36.088
ATOM      8  C   UNL d   1      17.184  -1.728  -9.725 -0.23 +0.02    +0.066    36.088
ATOM      9  C   UNL d   1      18.669  -1.461  -7.582 -0.24 +0.02    +0.051    36.088
ATOM     10  C   UNL d   1      16.763  -3.887 -10.920 -0.15 +0.03    +0.066    36.088
ATOM     11  C   UNL d   1      16.820  -5.285 -10.921 -0.13 -0.01    -0.021    36.088
ATOM     12  C   UNL d   1      16.122  -5.707 -12.038 -0.14 +0.00    +0.000    36.088
ATOM     13  C   UNL d   1      15.679  -4.515 -12.675 -0.11 +0.03    +0.070    36.088
ATOM     14  C   UNL d   1      17.490  -6.182  -9.886 -0.10 +0.02    +0.052    36.088
ATOM     15  C   UNL d   1      14.516  -3.267 -14.487 -0.10 +0.02    +0.066    36.088
ATOM     16  C   UNL d   1      13.901  -3.266 -15.739 -0.13 -0.00    -0.021    36.088
ATOM     17  C   UNL d   1      13.601  -1.935 -16.030 -0.19 +0.00    +0.000    36.088
ATOM     18  C   UNL d   1      14.058  -1.215 -14.918 -0.19 +0.02    +0.070    36.088
ATOM     19  C   UNL d   1      13.708  -4.515 -16.561 -0.06 +0.01    +0.052    36.088
ATOM     20  C   UNL d   1      14.396   0.979 -13.704 -0.28 +0.02    +0.066    36.088
ATOM     21  C   UNL d   1      14.228   2.355 -13.581 -0.30 -0.01    -0.025    36.088
ATOM     22  C   UNL d   1      14.778   2.708 -12.369 -0.29 -0.01    -0.021    36.088
ATOM     23  C   UNL d   1      15.279   1.531 -11.804 -0.25 +0.03    +0.066    36.088
ATOM     24  C   UNL d   1      13.579   3.287 -14.571 -0.30 +0.01    +0.051    36.088
ATOM     25  N   UNL d   1      16.496  -0.899 -10.581 -0.18 -0.08    -0.248    36.088
ATOM     26  N   UNL d   1      16.077  -3.412 -11.990 -0.03 -0.10    -0.248    36.088
ATOM     27  N   UNL d   1      14.678  -2.030 -14.026 -0.10 -0.08    -0.248    36.088
ATOM     28  N   UNL d   1      15.085   0.490 -12.639 -0.18 -0.08    -0.248    36.088
ATOM     29 FE   UNL d   1      15.576  -1.448 -12.320 -0.06 +0.00    +0.000    36.088
ATOM     30  O   UNL d   1      17.130  -1.518 -12.382 -0.12 +0.00    +0.000    36.088
ATOM     31  O   UNL d   1      16.322  -0.980 -13.623 -0.13 +0.00    +0.000    36.088
ATOM     32  C   UNL d   1      17.734   1.467  -7.994 -0.28 +0.03    +0.052    36.088
ATOM     33  C   UNL d   1      18.894   2.250  -8.600 -0.17 +0.08    +0.115    36.088
ATOM     34  C   UNL d   1      18.932   3.682  -8.125 +0.01 +0.17    +0.139    36.088
ATOM     35  O   UNL d   1      18.931   3.920  -6.928 -0.39 -0.79    -0.650    36.088
ATOM     36  O   UNL d   1      18.939   4.712  -8.996 -0.34 -1.01    -0.776    36.088
ATOM     37  H   UNL d   1      19.713   4.925  -9.529 +0.03 +0.12    +0.167    36.088
ATOM     38  C   UNL d   1      14.872   4.108 -11.821 -0.39 +0.03    +0.052    36.088
ATOM     39  C   UNL d   1      15.936   4.942 -12.532 -0.24 +0.06    +0.115    36.088
ATOM     40  C   UNL d   1      15.421   6.296 -12.952 -0.32 +0.07    +0.139    36.088
ATOM     41  O   UNL d   1      16.073   7.296 -12.700 -0.43 -0.37    -0.650    36.088
ATOM     42  O   UNL d   1      14.275   6.419 -13.649 -0.05 -0.19    -0.776    36.088
ATOM     43  H   UNL d   1      13.565   7.001 -13.353 -0.49 +0.02    +0.167    36.088
ATOM     44  C   UNL d   1      15.957  -7.173 -12.376 -0.11 +0.00    +0.004    36.088
ATOM     45  C   UNL d   1      14.842  -7.811 -12.731 -0.13 +0.01    +0.012    36.088
ATOM     46  C   UNL d   1      12.991  -1.305 -17.254 +0.01 +0.00    +0.004    36.088
ATOM     47  C   UNL d   1      13.512  -1.210 -18.484 -0.09 +0.00    +0.012    36.088
TER
ENDMDL
MODEL       44
USER    Run = 44
USER    Cluster Rank = 13
USER    Number of conformations in this cluster = 2
USER  
USER    RMSD from reference structure       = 38.948 A
USER  
USER    Estimated Free Energy of Binding    =   -7.79 kcal/mol  [=(1)+(2)+(3)-(4)]
USER    Estimated Inhibition Constant, Ki   =    1.96 uM (micromolar)  [Temperature = 298.15 K]
USER    
USER    (1) Final Intermolecular Energy     =  -10.77 kcal/mol
USER        vdW + Hbond + desolv Energy     =   -8.06 kcal/mol
USER        Electrostatic Energy            =   -2.70 kcal/mol
USER    (2) Final Total Internal Energy     =   -0.70 kcal/mol
USER    (3) Torsional Free Energy           =   +2.98 kcal/mol
USER    (4) Unbound System's Energy  [=(2)] =   -0.70 kcal/mol
USER    
USER    
USER  
USER    DPF = D:/Protein_go_brrr/autodock/final/AncB/heme_O2/dock.dpf
USER    NEWDPF move	heme_O2_opt.pdbqt
USER    NEWDPF about	8.287000 34.468000 -0.670000
USER    NEWDPF tran0	-7.163895 -1.360770 -12.381214
USER    NEWDPF axisangle0	0.052809 -0.366932 0.928748 95.405961
USER    NEWDPF quaternion0	0.039061 -0.271407 0.686963 0.672974
USER    NEWDPF dihe0	76.47 135.86 -100.46 -110.60 -104.16 -51.00 -59.11 132.84 28.85 -175.60 
USER  
USER                              x       y       z    vdW   Elec        q     RMS 
ATOM      1  C   UNL d   1      -6.785   0.696 -12.734 -0.06 +0.05    +0.064    38.948
ATOM      2  C   UNL d   1      -7.802  -1.747  -8.791 -0.18 +0.02    +0.064    38.948
ATOM      3  C   UNL d   1      -8.121  -5.836 -11.296 -0.26 +0.03    +0.064    38.948
ATOM      4  C   UNL d   1      -6.605  -3.415 -15.284 -0.08 +0.08    +0.064    38.948
ATOM      5  C   UNL d   1      -7.034   0.365 -11.457 -0.07 +0.04    +0.066    38.948
ATOM      6  C   UNL d   1      -7.062   1.281 -10.402 -0.15 -0.01    -0.021    38.948
ATOM      7  C   UNL d   1      -7.314   0.569  -9.253 -0.19 -0.01    -0.025    38.948
ATOM      8  C   UNL d   1      -7.480  -0.757  -9.645 -0.12 +0.03    +0.066    38.948
ATOM      9  C   UNL d   1      -7.356   1.158  -7.860 -0.24 +0.01    +0.051    38.948
ATOM     10  C   UNL d   1      -8.012  -3.152  -9.146 -0.20 +0.03    +0.066    38.948
ATOM     11  C   UNL d   1      -8.505  -4.107  -8.250 -0.33 -0.01    -0.021    38.948
ATOM     12  C   UNL d   1      -8.621  -5.288  -8.958 -0.40 +0.00    +0.000    38.948
ATOM     13  C   UNL d   1      -8.171  -4.983 -10.273 -0.30 +0.03    +0.070    38.948
ATOM     14  C   UNL d   1      -8.875  -3.895  -6.787 -0.45 +0.01    +0.052    38.948
ATOM     15  C   UNL d   1      -7.639  -5.576 -12.631 -0.25 +0.04    +0.066    38.948
ATOM     16  C   UNL d   1      -7.459  -6.552 -13.610 -0.25 -0.01    -0.021    38.948
ATOM     17  C   UNL d   1      -7.026  -5.885 -14.757 -0.17 +0.00    +0.000    38.948
ATOM     18  C   UNL d   1      -6.976  -4.534 -14.386 -0.13 +0.07    +0.070    38.948
ATOM     19  C   UNL d   1      -7.660  -8.024 -13.352 -0.28 +0.02    +0.052    38.948
ATOM     20  C   UNL d   1      -6.505  -2.114 -14.950 -0.04 +0.09    +0.066    38.948
ATOM     21  C   UNL d   1      -6.168  -1.102 -15.844 -0.05 -0.03    -0.025    38.948
ATOM     22  C   UNL d   1      -6.241   0.079 -15.142 -0.05 -0.02    -0.021    38.948
ATOM     23  C   UNL d   1      -6.604  -0.258 -13.834 -0.06 +0.07    +0.066    38.948
ATOM     24  C   UNL d   1      -5.792  -1.256 -17.295 -0.03 +0.04    +0.051    38.948
ATOM     25  N   UNL d   1      -7.243  -0.892 -10.993 -0.04 -0.15    -0.248    38.948
ATOM     26  N   UNL d   1      -7.798  -3.682 -10.377 -0.13 -0.13    -0.248    38.948
ATOM     27  N   UNL d   1      -7.279  -4.374 -13.072 -0.11 -0.21    -0.248    38.948
ATOM     28  N   UNL d   1      -6.719  -1.597 -13.711 -0.06 -0.30    -0.248    38.948
ATOM     29 FE   UNL d   1      -7.254  -2.634 -12.058 -0.03 +0.00    +0.000    38.948
ATOM     30  O   UNL d   1      -6.063  -2.513 -11.064 -0.20 +0.00    +0.000    38.948
ATOM     31  O   UNL d   1      -5.829  -3.139 -12.490 -0.28 +0.00    +0.000    38.948
ATOM     32  C   UNL d   1      -6.730   2.750 -10.446 -0.11 +0.03    +0.052    38.948
ATOM     33  C   UNL d   1      -7.944   3.640 -10.197 -0.17 +0.05    +0.115    38.948
ATOM     34  C   UNL d   1      -7.784   4.502  -8.970 -0.26 +0.05    +0.139    38.948
ATOM     35  O   UNL d   1      -7.543   5.692  -9.096 -0.05 -0.26    -0.650    38.948
ATOM     36  O   UNL d   1      -7.872   3.982  -7.728 -0.01 -0.20    -0.776    38.948
ATOM     37  H   UNL d   1      -7.153   3.474  -7.335 -0.47 +0.02    +0.167    38.948
ATOM     38  C   UNL d   1      -5.915   1.446 -15.686 -0.05 +0.05    +0.052    38.948
ATOM     39  C   UNL d   1      -4.414   1.660 -15.864 -0.06 +0.15    +0.115    38.948
ATOM     40  C   UNL d   1      -3.626   1.256 -14.643 -0.11 +0.23    +0.139    38.948
ATOM     41  O   UNL d   1      -3.159   0.131 -14.567 -0.23 -1.28    -0.650    38.948
ATOM     42  O   UNL d   1      -3.382   2.134 -13.650 -0.27 -1.64    -0.776    38.948
ATOM     43  H   UNL d   1      -3.441   1.876 -12.723 +0.04 +0.27    +0.167    38.948
ATOM     44  C   UNL d   1      -9.135  -6.562  -8.320 -0.38 +0.00    +0.004    38.948
ATOM     45  C   UNL d   1     -10.392  -6.869  -8.004 -0.42 +0.00    +0.012    38.948
ATOM     46  C   UNL d   1      -6.614  -6.407 -16.107 -0.17 +0.00    +0.004    38.948
ATOM     47  C   UNL d   1      -5.419  -6.311 -16.704 -0.17 +0.02    +0.012    38.948
TER
ENDMDL
MODEL       33
USER    Run = 33
USER    Cluster Rank = 14
USER    Number of conformations in this cluster = 2
USER  
USER    RMSD from reference structure       = 49.840 A
USER  
USER    Estimated Free Energy of Binding    =   -7.79 kcal/mol  [=(1)+(2)+(3)-(4)]
USER    Estimated Inhibition Constant, Ki   =    1.96 uM (micromolar)  [Temperature = 298.15 K]
USER    
USER    (1) Final Intermolecular Energy     =  -10.77 kcal/mol
USER        vdW + Hbond + desolv Energy     =   -5.66 kcal/mol
USER        Electrostatic Energy            =   -5.11 kcal/mol
USER    (2) Final Total Internal Energy     =   -1.68 kcal/mol
USER    (3) Torsional Free Energy           =   +2.98 kcal/mol
USER    (4) Unbound System's Energy  [=(2)] =   -1.68 kcal/mol
USER    
USER    
USER  
USER    DPF = D:/Protein_go_brrr/autodock/final/AncB/heme_O2/dock.dpf
USER    NEWDPF move	heme_O2_opt.pdbqt
USER    NEWDPF about	8.287000 34.468000 -0.670000
USER    NEWDPF tran0	-6.135742 -15.532069 11.143588
USER    NEWDPF axisangle0	-0.714956 -0.247008 0.654083 -94.577635
USER    NEWDPF quaternion0	-0.525337 -0.181497 0.480609 -0.678303
USER    NEWDPF dihe0	-129.79 52.87 -51.24 90.62 49.66 -62.12 -120.38 125.96 -179.57 -156.06 
USER  
USER                              x       y       z    vdW   Elec        q     RMS 
ATOM      1  C   UNL d   1      -6.695 -17.547  10.788 -0.07 +0.05    +0.064    49.840
ATOM      2  C   UNL d   1      -7.667 -14.524  14.320 -0.12 +0.02    +0.064    49.840
ATOM      3  C   UNL d   1      -5.003 -11.102  12.248 -0.23 +0.03    +0.064    49.840
ATOM      4  C   UNL d   1      -4.385 -14.045   8.371 -0.08 +0.04    +0.064    49.840
ATOM      5  C   UNL d   1      -7.179 -17.003  11.916 -0.09 +0.04    +0.066    49.840
ATOM      6  C   UNL d   1      -7.989 -17.684  12.829 -0.07 -0.01    -0.021    49.840
ATOM      7  C   UNL d   1      -8.307 -16.797  13.830 -0.09 -0.01    -0.025    49.840
ATOM      8  C   UNL d   1      -7.642 -15.612  13.526 -0.11 +0.02    +0.066    49.840
ATOM      9  C   UNL d   1      -9.231 -17.095  14.990 -0.08 +0.01    +0.051    49.840
ATOM     10  C   UNL d   1      -6.972 -13.261  14.065 -0.14 +0.03    +0.066    49.840
ATOM     11  C   UNL d   1      -6.898 -12.222  14.999 -0.15 -0.01    -0.021    49.840
ATOM     12  C   UNL d   1      -6.119 -11.233  14.428 -0.19 +0.00    +0.000    49.840
ATOM     13  C   UNL d   1      -5.763 -11.732  13.144 -0.18 +0.04    +0.070    49.840
ATOM     14  C   UNL d   1      -7.522 -12.184  16.390 -0.10 +0.02    +0.052    49.840
ATOM     15  C   UNL d   1      -4.649 -11.557  10.925 -0.20 +0.03    +0.066    49.840
ATOM     16  C   UNL d   1      -3.987 -10.782   9.973 -0.27 -0.01    -0.021    49.840
ATOM     17  C   UNL d   1      -3.801 -11.600   8.859 -0.23 +0.00    +0.000    49.840
ATOM     18  C   UNL d   1      -4.369 -12.830   9.220 -0.13 +0.03    +0.070    49.840
ATOM     19  C   UNL d   1      -3.644  -9.330  10.189 -0.29 +0.02    +0.052    49.840
ATOM     20  C   UNL d   1      -4.959 -15.227   8.669 -0.07 +0.05    +0.066    49.840
ATOM     21  C   UNL d   1      -4.927 -16.342   7.837 -0.06 -0.02    -0.025    49.840
ATOM     22  C   UNL d   1      -5.556 -17.357   8.521 -0.05 -0.02    -0.021    49.840
ATOM     23  C   UNL d   1      -5.968 -16.817   9.743 -0.08 +0.06    +0.066    49.840
ATOM     24  C   UNL d   1      -4.328 -16.433   6.457 -0.07 +0.05    +0.051    49.840
ATOM     25  N   UNL d   1      -7.000 -15.719  12.314 -0.07 -0.12    -0.248    49.840
ATOM     26  N   UNL d   1      -6.290 -12.964  12.930 -0.10 -0.11    -0.248    49.840
ATOM     27  N   UNL d   1      -4.945 -12.763  10.447 -0.09 -0.11    -0.248    49.840
ATOM     28  N   UNL d   1      -5.642 -15.509   9.810 -0.07 -0.18    -0.248    49.840
ATOM     29 FE   UNL d   1      -5.963 -14.244  11.357 -0.03 +0.00    +0.000    49.840
ATOM     30  O   UNL d   1      -7.499 -14.000  11.408 -0.30 +0.00    +0.000    49.840
ATOM     31  O   UNL d   1      -6.696 -13.647  10.100 -0.30 +0.00    +0.000    49.840
ATOM     32  C   UNL d   1      -8.559 -19.073  12.699 -0.04 +0.02    +0.052    49.840
ATOM     33  C   UNL d   1      -9.982 -19.081  12.148 -0.09 +0.07    +0.115    49.840
ATOM     34  C   UNL d   1     -10.081 -18.406  10.803 +0.02 +0.19    +0.139    49.840
ATOM     35  O   UNL d   1     -10.512 -17.266  10.730 -0.67 -1.31    -0.650    49.840
ATOM     36  O   UNL d   1      -9.730 -19.045   9.668 +0.13 -1.31    -0.776    49.840
ATOM     37  H   UNL d   1      -9.129 -18.651   9.025 +0.03 +0.41    +0.167    49.840
ATOM     38  C   UNL d   1      -5.803 -18.749   7.997 -0.03 +0.05    +0.052    49.840
ATOM     39  C   UNL d   1      -6.532 -18.744   6.655 -0.06 +0.15    +0.115    49.840
ATOM     40  C   UNL d   1      -7.829 -17.975   6.706 +0.03 +0.32    +0.139    49.840
ATOM     41  O   UNL d   1      -7.818 -16.761   6.587 -0.03 -2.09    -0.650    49.840
ATOM     42  O   UNL d   1      -9.010 -18.610   6.831 +0.02 -1.87    -0.776    49.840
ATOM     43  H   UNL d   1      -9.182 -19.217   7.561 +0.02 +0.33    +0.167    49.840
ATOM     44  C   UNL d   1      -5.803  -9.940  15.149 +0.04 +0.00    +0.004    49.840
ATOM     45  C   UNL d   1      -4.605  -9.421  15.413 -0.17 +0.01    +0.012    49.840
ATOM     46  C   UNL d   1      -3.204 -11.309   7.508 -0.37 +0.00    +0.004    49.840
ATOM     47  C   UNL d   1      -1.912 -11.318   7.153 -0.35 +0.00    +0.012    49.840
TER
ENDMDL
MODEL       34
USER    Run = 34
USER    Cluster Rank = 15
USER    Number of conformations in this cluster = 1
USER  
USER    RMSD from reference structure       = 45.356 A
USER  
USER    Estimated Free Energy of Binding    =   -7.48 kcal/mol  [=(1)+(2)+(3)-(4)]
USER    Estimated Inhibition Constant, Ki   =    3.30 uM (micromolar)  [Temperature = 298.15 K]
USER    
USER    (1) Final Intermolecular Energy     =  -10.46 kcal/mol
USER        vdW + Hbond + desolv Energy     =   -7.23 kcal/mol
USER        Electrostatic Energy            =   -3.23 kcal/mol
USER    (2) Final Total Internal Energy     =   -0.59 kcal/mol
USER    (3) Torsional Free Energy           =   +2.98 kcal/mol
USER    (4) Unbound System's Energy  [=(2)] =   -0.59 kcal/mol
USER    
USER    
USER  
USER    DPF = D:/Protein_go_brrr/autodock/final/AncB/heme_O2/dock.dpf
USER    NEWDPF move	heme_O2_opt.pdbqt
USER    NEWDPF about	8.287000 34.468000 -0.670000
USER    NEWDPF tran0	-2.764047 -10.889017 10.403572
USER    NEWDPF axisangle0	-0.912979 -0.142729 -0.382227 126.709709
USER    NEWDPF quaternion0	-0.816022 -0.127571 -0.341635 0.448463
USER    NEWDPF dihe0	54.63 173.88 -1.95 117.65 26.72 82.04 51.17 41.84 180.00 174.31 
USER  
USER                              x       y       z    vdW   Elec        q     RMS 
ATOM      1  C   UNL d   1      -4.733 -11.676  10.359 -0.21 +0.03    +0.064    45.356
ATOM      2  C   UNL d   1      -1.112 -11.920   7.296 -0.20 +0.01    +0.064    45.356
ATOM      3  C   UNL d   1       1.626  -9.216  10.175 -0.09 +0.01    +0.064    45.356
ATOM      4  C   UNL d   1      -1.929  -9.357  13.552 -0.12 +0.01    +0.064    45.356
ATOM      5  C   UNL d   1      -3.971 -11.964   9.292 -0.17 +0.02    +0.066    45.356
ATOM      6  C   UNL d   1      -4.408 -12.719   8.199 -0.19 -0.01    -0.021    45.356
ATOM      7  C   UNL d   1      -3.347 -12.826   7.331 -0.19 -0.01    -0.025    45.356
ATOM      8  C   UNL d   1      -2.305 -12.094   7.896 -0.18 +0.02    +0.066    45.356
ATOM      9  C   UNL d   1      -3.356 -13.626   6.047 -0.13 +0.02    +0.051    45.356
ATOM     10  C   UNL d   1       0.010 -11.144   7.828 -0.15 +0.01    +0.066    45.356
ATOM     11  C   UNL d   1       1.165 -10.860   7.092 -0.16 -0.00    -0.021    45.356
ATOM     12  C   UNL d   1       1.960 -10.066   7.899 -0.11 +0.00    +0.000    45.356
ATOM     13  C   UNL d   1       1.232  -9.918   9.112 -0.00 +0.01    +0.070    45.356
ATOM     14  C   UNL d   1       1.486 -11.303   5.670 -0.22 +0.01    +0.052    45.356
ATOM     15  C   UNL d   1       0.936  -9.071  11.434 -0.09 +0.01    +0.066    45.356
ATOM     16  C   UNL d   1       1.475  -8.460  12.565 -0.06 -0.00    -0.021    45.356
ATOM     17  C   UNL d   1       0.480  -8.489  13.542 -0.08 +0.00    +0.000    45.356
ATOM     18  C   UNL d   1      -0.607  -9.122  12.924 -0.09 +0.01    +0.070    45.356
ATOM     19  C   UNL d   1       2.896  -7.957  12.630 -0.05 +0.00    +0.052    45.356
ATOM     20  C   UNL d   1      -2.978  -9.999  13.004 -0.14 +0.02    +0.066    45.356
ATOM     21  C   UNL d   1      -4.205 -10.174  13.639 -0.11 -0.01    -0.025    45.356
ATOM     22  C   UNL d   1      -5.025 -10.809  12.733 -0.14 -0.01    -0.021    45.356
ATOM     23  C   UNL d   1      -4.260 -11.015  11.581 -0.19 +0.03    +0.066    45.356
ATOM     24  C   UNL d   1      -4.574  -9.759  15.039 -0.14 +0.02    +0.051    45.356
ATOM     25  N   UNL d   1      -2.670 -11.618   9.134 -0.09 -0.07    -0.248    45.356
ATOM     26  N   UNL d   1       0.049 -10.581   9.062 -0.07 -0.04    -0.248    45.356
ATOM     27  N   UNL d   1      -0.287  -9.536  11.671 -0.06 -0.03    -0.248    45.356
ATOM     28  N   UNL d   1      -3.003 -10.562  11.767 -0.09 -0.07    -0.248    45.356
ATOM     29 FE   UNL d   1      -1.486 -10.570  10.426 -0.03 +0.00    +0.000    45.356
ATOM     30  O   UNL d   1      -1.065 -12.059  10.255 -0.07 +0.00    +0.000    45.356
ATOM     31  O   UNL d   1      -1.012 -11.391  11.681 -0.06 +0.00    +0.000    45.356
ATOM     32  C   UNL d   1      -5.727 -13.429   8.036 -0.28 +0.04    +0.052    45.356
ATOM     33  C   UNL d   1      -5.656 -14.904   8.415 -0.17 +0.11    +0.115    45.356
ATOM     34  C   UNL d   1      -6.264 -15.799   7.363 -0.17 +0.23    +0.139    45.356
ATOM     35  O   UNL d   1      -7.158 -16.571   7.671 -0.56 -1.63    -0.650    45.356
ATOM     36  O   UNL d   1      -5.822 -15.786   6.089 -0.48 -1.75    -0.776    45.356
ATOM     37  H   UNL d   1      -4.894 -15.930   5.868 +0.04 +0.25    +0.167    45.356
ATOM     38  C   UNL d   1      -6.444 -11.248  12.991 -0.31 +0.04    +0.052    45.356
ATOM     39  C   UNL d   1      -6.516 -12.605  13.687 -0.17 +0.05    +0.115    45.356
ATOM     40  C   UNL d   1      -7.617 -13.477  13.138 -0.27 +0.07    +0.139    45.356
ATOM     41  O   UNL d   1      -8.367 -14.061  13.904 -0.05 -0.26    -0.650    45.356
ATOM     42  O   UNL d   1      -7.823 -13.584  11.811 -0.10 -0.43    -0.776    45.356
ATOM     43  H   UNL d   1      -8.494 -14.176  11.451 -0.53 +0.06    +0.167    45.356
ATOM     44  C   UNL d   1       3.305  -9.544   7.439 -0.17 +0.00    +0.004    45.356
ATOM     45  C   UNL d   1       4.108  -8.685   8.065 -0.13 +0.00    +0.012    45.356
ATOM     46  C   UNL d   1       0.490  -8.036  14.977 -0.07 +0.00    +0.004    45.356
ATOM     47  C   UNL d   1      -0.163  -7.003  15.525 -0.11 +0.00    +0.012    45.356
TER
ENDMDL
MODEL      100
USER    Run = 100
USER    Cluster Rank = 16
USER    Number of conformations in this cluster = 1
USER  
USER    RMSD from reference structure       = 46.753 A
USER  
USER    Estimated Free Energy of Binding    =   -7.26 kcal/mol  [=(1)+(2)+(3)-(4)]
USER    Estimated Inhibition Constant, Ki   =    4.78 uM (micromolar)  [Temperature = 298.15 K]
USER    
USER    (1) Final Intermolecular Energy     =  -10.24 kcal/mol
USER        vdW + Hbond + desolv Energy     =   -7.28 kcal/mol
USER        Electrostatic Energy            =   -2.97 kcal/mol
USER    (2) Final Total Internal Energy     =   -0.66 kcal/mol
USER    (3) Torsional Free Energy           =   +2.98 kcal/mol
USER    (4) Unbound System's Energy  [=(2)] =   -0.66 kcal/mol
USER    
USER    
USER  
USER    DPF = D:/Protein_go_brrr/autodock/final/AncB/heme_O2/dock.dpf
USER    NEWDPF move	heme_O2_opt.pdbqt
USER    NEWDPF about	8.287000 34.468000 -0.670000
USER    NEWDPF tran0	-0.755554 -13.946819 5.619675
USER    NEWDPF axisangle0	-0.858799 -0.479417 0.180620 106.854677
USER    NEWDPF quaternion0	-0.689703 -0.385021 0.145056 0.595842
USER    NEWDPF dihe0	-16.83 -97.25 46.00 28.77 -90.73 -165.02 -112.26 60.38 2.29 5.46 
USER  
USER                              x       y       z    vdW   Elec        q     RMS 
ATOM      1  C   UNL d   1      -1.776 -13.866   7.478 -0.07 +0.02    +0.064    46.753
ATOM      2  C   UNL d   1      -1.959 -16.924   3.848 -0.06 +0.03    +0.064    46.753
ATOM      3  C   UNL d   1       1.283 -14.356   1.401 -0.26 +0.02    +0.064    46.753
ATOM      4  C   UNL d   1       1.835 -11.465   5.325 -0.16 +0.01    +0.064    46.753
ATOM      5  C   UNL d   1      -2.089 -14.908   6.691 -0.06 +0.03    +0.066    46.753
ATOM      6  C   UNL d   1      -3.025 -15.890   7.028 -0.03 -0.01    -0.021    46.753
ATOM      7  C   UNL d   1      -3.047 -16.800   5.997 -0.03 -0.02    -0.025    46.753
ATOM      8  C   UNL d   1      -2.159 -16.322   5.036 -0.05 +0.03    +0.066    46.753
ATOM      9  C   UNL d   1      -3.869 -18.070   5.980 -0.01 +0.04    +0.051    46.753
ATOM     10  C   UNL d   1      -1.059 -16.458   2.792 -0.09 +0.03    +0.066    46.753
ATOM     11  C   UNL d   1      -1.011 -17.028   1.515 -0.12 -0.01    -0.021    46.753
ATOM     12  C   UNL d   1      -0.095 -16.290   0.789 -0.21 +0.00    +0.000    46.753
ATOM     13  C   UNL d   1       0.384 -15.297   1.688 -0.19 +0.02    +0.070    46.753
ATOM     14  C   UNL d   1      -1.825 -18.210   1.001 -0.11 +0.03    +0.052    46.753
ATOM     15  C   UNL d   1       1.820 -13.355   2.292 -0.21 +0.01    +0.066    46.753
ATOM     16  C   UNL d   1       2.878 -12.503   1.978 -0.22 -0.00    -0.021    46.753
ATOM     17  C   UNL d   1       3.054 -11.670   3.083 -0.22 +0.00    +0.000    46.753
ATOM     18  C   UNL d   1       2.075 -12.081   3.999 -0.17 +0.01    +0.070    46.753
ATOM     19  C   UNL d   1       3.654 -12.596   0.688 -0.14 +0.01    +0.052    46.753
ATOM     20  C   UNL d   1       0.935 -11.861   6.245 -0.16 +0.01    +0.066    46.753
ATOM     21  C   UNL d   1       0.742 -11.230   7.471 -0.15 -0.00    -0.025    46.753
ATOM     22  C   UNL d   1      -0.302 -11.884   8.086 -0.13 -0.00    -0.021    46.753
ATOM     23  C   UNL d   1      -0.697 -12.906   7.218 -0.11 +0.02    +0.066    46.753
ATOM     24  C   UNL d   1       1.517 -10.064   8.028 -0.07 +0.01    +0.051    46.753
ATOM     25  N   UNL d   1      -1.521 -15.192   5.493 -0.05 -0.10    -0.248    46.753
ATOM     26  N   UNL d   1      -0.204 -15.410   2.906 -0.08 -0.11    -0.248    46.753
ATOM     27  N   UNL d   1       1.386 -13.153   3.532 -0.12 -0.06    -0.248    46.753
ATOM     28  N   UNL d   1       0.087 -12.916   6.120 -0.09 -0.06    -0.248    46.753
ATOM     29 FE   UNL d   1      -0.055 -14.153   4.523 -0.04 +0.00    +0.000    46.753
ATOM     30  O   UNL d   1       0.395 -15.557   5.020 -0.07 +0.00    +0.000    46.753
ATOM     31  O   UNL d   1       1.382 -14.335   5.135 -0.07 +0.00    +0.000    46.753
ATOM     32  C   UNL d   1      -3.771 -16.047   8.328 -0.02 +0.03    +0.052    46.753
ATOM     33  C   UNL d   1      -5.054 -15.223   8.377 -0.09 +0.09    +0.115    46.753
ATOM     34  C   UNL d   1      -6.078 -15.692   7.375 -0.17 +0.21    +0.139    46.753
ATOM     35  O   UNL d   1      -7.157 -16.109   7.764 -0.57 -1.56    -0.650    46.753
ATOM     36  O   UNL d   1      -5.819 -15.690   6.051 -0.47 -1.75    -0.776    46.753
ATOM     37  H   UNL d   1      -5.089 -15.185   5.674 +0.04 +0.27    +0.167    46.753
ATOM     38  C   UNL d   1      -0.841 -11.580   9.460 -0.11 +0.01    +0.052    46.753
ATOM     39  C   UNL d   1      -2.204 -10.893   9.411 -0.21 +0.03    +0.115    46.753
ATOM     40  C   UNL d   1      -2.193  -9.542  10.081 -0.30 +0.03    +0.139    46.753
ATOM     41  O   UNL d   1      -1.318  -9.272  10.887 -0.01 -0.12    -0.650    46.753
ATOM     42  O   UNL d   1      -3.106  -8.602   9.766 +0.02 -0.14    -0.776    46.753
ATOM     43  H   UNL d   1      -2.924  -7.924   9.104 -0.48 -0.01    +0.167    46.753
ATOM     44  C   UNL d   1       0.225 -16.605  -0.658 -0.31 +0.00    +0.004    46.753
ATOM     45  C   UNL d   1       1.419 -16.607  -1.250 -0.28 -0.00    +0.012    46.753
ATOM     46  C   UNL d   1       4.072 -10.596   3.358 -0.30 -0.00    +0.004    46.753
ATOM     47  C   UNL d   1       4.803  -9.901   2.476 -0.49 -0.00    +0.012    46.753
TER
ENDMDL
MODEL       98
USER    Run = 98
USER    Cluster Rank = 17
USER    Number of conformations in this cluster = 1
USER  
USER    RMSD from reference structure       = 48.380 A
USER  
USER    Estimated Free Energy of Binding    =   -7.20 kcal/mol  [=(1)+(2)+(3)-(4)]
USER    Estimated Inhibition Constant, Ki   =    5.25 uM (micromolar)  [Temperature = 298.15 K]
USER    
USER    (1) Final Intermolecular Energy     =  -10.19 kcal/mol
USER        vdW + Hbond + desolv Energy     =   -5.57 kcal/mol
USER        Electrostatic Energy            =   -4.61 kcal/mol
USER    (2) Final Total Internal Energy     =   -0.63 kcal/mol
USER    (3) Torsional Free Energy           =   +2.98 kcal/mol
USER    (4) Unbound System's Energy  [=(2)] =   -0.63 kcal/mol
USER    
USER    
USER  
USER    DPF = D:/Protein_go_brrr/autodock/final/AncB/heme_O2/dock.dpf
USER    NEWDPF move	heme_O2_opt.pdbqt
USER    NEWDPF about	8.287000 34.468000 -0.670000
USER    NEWDPF tran0	-2.599225 -15.359296 5.781838
USER    NEWDPF axisangle0	0.639097 0.309679 0.704027 -144.180863
USER    NEWDPF quaternion0	0.608128 0.294673 0.669912 -0.307516
USER    NEWDPF dihe0	26.61 108.25 -122.31 56.21 -137.98 -173.85 100.98 85.05 16.81 -5.68 
USER  
USER                              x       y       z    vdW   Elec        q     RMS 
ATOM      1  C   UNL d   1      -3.295 -17.200   4.991 -0.04 +0.05    +0.064    48.380
ATOM      2  C   UNL d   1       0.460 -14.480   3.960 -0.07 +0.02    +0.064    48.380
ATOM      3  C   UNL d   1      -0.852 -11.254   7.272 -0.27 +0.01    +0.064    48.380
ATOM      4  C   UNL d   1      -4.454 -14.276   8.671 -0.07 +0.04    +0.064    48.380
ATOM      5  C   UNL d   1      -2.166 -16.725   4.441 -0.06 +0.04    +0.066    48.380
ATOM      6  C   UNL d   1      -1.469 -17.360   3.409 -0.05 -0.01    -0.021    48.380
ATOM      7  C   UNL d   1      -0.359 -16.595   3.139 -0.07 -0.01    -0.025    48.380
ATOM      8  C   UNL d   1      -0.433 -15.489   3.981 -0.03 +0.03    +0.066    48.380
ATOM      9  C   UNL d   1       0.717 -16.955   2.138 -0.05 +0.01    +0.051    48.380
ATOM     10  C   UNL d   1       0.422 -13.284   4.802 -0.06 +0.02    +0.066    48.380
ATOM     11  C   UNL d   1       1.279 -12.192   4.626 -0.19 -0.00    -0.021    48.380
ATOM     12  C   UNL d   1       0.904 -11.243   5.560 -0.27 +0.00    +0.000    48.380
ATOM     13  C   UNL d   1      -0.176 -11.829   6.277 -0.18 +0.01    +0.070    48.380
ATOM     14  C   UNL d   1       2.390 -12.048   3.592 -0.21 +0.01    +0.052    48.380
ATOM     15  C   UNL d   1      -1.927 -11.826   8.045 -0.19 +0.02    +0.066    48.380
ATOM     16  C   UNL d   1      -2.484 -11.238   9.181 -0.20 -0.01    -0.021    48.380
ATOM     17  C   UNL d   1      -3.513 -12.083   9.598 -0.15 +0.00    +0.000    48.380
ATOM     18  C   UNL d   1      -3.508 -13.136   8.672 -0.09 +0.03    +0.070    48.380
ATOM     19  C   UNL d   1      -1.954  -9.965   9.791 -0.29 +0.01    +0.052    48.380
ATOM     20  C   UNL d   1      -4.449 -15.325   7.825 -0.05 +0.05    +0.066    48.380
ATOM     21  C   UNL d   1      -5.378 -16.361   7.862 -0.09 -0.03    -0.025    48.380
ATOM     22  C   UNL d   1      -5.080 -17.190   6.804 -0.05 -0.02    -0.021    48.380
ATOM     23  C   UNL d   1      -3.965 -16.635   6.168 -0.04 +0.06    +0.066    48.380
ATOM     24  C   UNL d   1      -6.491 -16.554   8.860 -0.14 +0.07    +0.051    48.380
ATOM     25  N   UNL d   1      -1.511 -15.602   4.828 -0.03 -0.11    -0.248    48.380
ATOM     26  N   UNL d   1      -0.460 -13.072   5.812 -0.06 -0.07    -0.248    48.380
ATOM     27  N   UNL d   1      -2.491 -13.002   7.782 -0.06 -0.08    -0.248    48.380
ATOM     28  N   UNL d   1      -3.557 -15.526   6.819 -0.02 -0.16    -0.248    48.380
ATOM     29 FE   UNL d   1      -2.021 -14.306   6.322 -0.03 +0.00    +0.000    48.380
ATOM     30  O   UNL d   1      -0.718 -15.110   6.604 -0.05 +0.00    +0.000    48.380
ATOM     31  O   UNL d   1      -1.743 -14.848   7.772 -0.04 +0.00    +0.000    48.380
ATOM     32  C   UNL d   1      -1.758 -18.704   2.792 -0.03 +0.02    +0.052    48.380
ATOM     33  C   UNL d   1      -2.489 -18.598   1.457 -0.09 +0.07    +0.115    48.380
ATOM     34  C   UNL d   1      -3.974 -18.389   1.629 -0.04 +0.17    +0.139    48.380
ATOM     35  O   UNL d   1      -4.388 -17.318   2.043 -0.31 -1.04    -0.650    48.380
ATOM     36  O   UNL d   1      -4.858 -19.372   1.363 -0.47 -1.13    -0.776    48.380
ATOM     37  H   UNL d   1      -4.620 -20.305   1.426 +0.02 +0.15    +0.167    48.380
ATOM     38  C   UNL d   1      -5.791 -18.475   6.467 -0.05 +0.06    +0.052    48.380
ATOM     39  C   UNL d   1      -6.869 -18.282   5.403 +0.08 +0.22    +0.115    48.380
ATOM     40  C   UNL d   1      -8.242 -18.097   6.001 -0.05 +0.32    +0.139    48.380
ATOM     41  O   UNL d   1      -8.510 -18.615   7.073 +0.03 -1.45    -0.650    48.380
ATOM     42  O   UNL d   1      -9.166 -17.326   5.397 -0.26 -2.36    -0.776    48.380
ATOM     43  H   UNL d   1      -9.956 -17.706   4.995 +0.03 +0.37    +0.167    48.380
ATOM     44  C   UNL d   1       1.605  -9.905   5.672 -0.34 +0.00    +0.004    48.380
ATOM     45  C   UNL d   1       1.822  -9.012   4.708 -0.34 +0.00    +0.012    48.380
ATOM     46  C   UNL d   1      -4.429 -12.009  10.790 -0.21 +0.00    +0.004    48.380
ATOM     47  C   UNL d   1      -5.153 -10.966  11.216 -0.32 +0.01    +0.012    48.380
TER
ENDMDL
MODEL       83
USER    Run = 83
USER    Cluster Rank = 18
USER    Number of conformations in this cluster = 1
USER  
USER    RMSD from reference structure       = 31.464 A
USER  
USER    Estimated Free Energy of Binding    =   -7.19 kcal/mol  [=(1)+(2)+(3)-(4)]
USER    Estimated Inhibition Constant, Ki   =    5.37 uM (micromolar)  [Temperature = 298.15 K]
USER    
USER    (1) Final Intermolecular Energy     =  -10.17 kcal/mol
USER        vdW + Hbond + desolv Energy     =   -7.31 kcal/mol
USER        Electrostatic Energy            =   -2.87 kcal/mol
USER    (2) Final Total Internal Energy     =   -0.55 kcal/mol
USER    (3) Torsional Free Energy           =   +2.98 kcal/mol
USER    (4) Unbound System's Energy  [=(2)] =   -0.55 kcal/mol
USER    
USER    
USER  
USER    DPF = D:/Protein_go_brrr/autodock/final/AncB/heme_O2/dock.dpf
USER    NEWDPF move	heme_O2_opt.pdbqt
USER    NEWDPF about	8.287000 34.468000 -0.670000
USER    NEWDPF tran0	19.632697 2.889507 -3.675020
USER    NEWDPF axisangle0	-0.347638 -0.000388 -0.937629 -93.252209
USER    NEWDPF quaternion0	-0.252694 -0.000282 -0.681551 -0.686756
USER    NEWDPF dihe0	162.58 54.79 -54.90 118.12 -128.45 35.76 -137.39 -70.04 -8.66 -27.98 
USER  
USER                              x       y       z    vdW   Elec        q     RMS 
ATOM      1  C   UNL d   1      19.788   4.328  -5.226 -0.13 +0.03    +0.064    31.464
ATOM      2  C   UNL d   1      18.594   4.671  -0.642 -0.11 -0.00    +0.064    31.464
ATOM      3  C   UNL d   1      19.124  -0.070  -0.054 -0.25 +0.01    +0.064    31.464
ATOM      4  C   UNL d   1      20.817  -0.368  -4.649 -0.10 +0.01    +0.064    31.464
ATOM      5  C   UNL d   1      19.422   4.808  -4.027 -0.15 +0.03    +0.066    31.464
ATOM      6  C   UNL d   1      19.142   6.154  -3.775 -0.16 -0.01    -0.021    31.464
ATOM      7  C   UNL d   1      18.838   6.261  -2.438 -0.17 -0.00    -0.025    31.464
ATOM      8  C   UNL d   1      18.894   4.970  -1.921 -0.19 +0.01    +0.066    31.464
ATOM      9  C   UNL d   1      18.543   7.560  -1.719 -0.18 +0.01    +0.051    31.464
ATOM     10  C   UNL d   1      18.612   3.333  -0.048 -0.25 -0.00    +0.066    31.464
ATOM     11  C   UNL d   1      18.135   3.056   1.238 -0.22 +0.00    -0.021    31.464
ATOM     12  C   UNL d   1      18.263   1.691   1.419 -0.22 -0.00    +0.000    31.464
ATOM     13  C   UNL d   1      18.835   1.204   0.211 -0.23 +0.00    +0.070    31.464
ATOM     14  C   UNL d   1      17.556   4.047   2.241 -0.28 +0.00    +0.052    31.464
ATOM     15  C   UNL d   1      19.735  -0.598  -1.250 -0.19 +0.01    +0.066    31.464
ATOM     16  C   UNL d   1      20.163  -1.917  -1.402 -0.15 -0.00    -0.021    31.464
ATOM     17  C   UNL d   1      20.650  -2.025  -2.704 -0.13 +0.00    +0.000    31.464
ATOM     18  C   UNL d   1      20.479  -0.748  -3.257 -0.14 +0.01    +0.070    31.464
ATOM     19  C   UNL d   1      20.120  -2.930  -0.286 -0.12 +0.01    +0.052    31.464
ATOM     20  C   UNL d   1      20.706   0.858  -5.198 -0.09 +0.02    +0.066    31.464
ATOM     21  C   UNL d   1      21.023   1.152  -6.521 -0.07 -0.01    -0.025    31.464
ATOM     22  C   UNL d   1      20.711   2.479  -6.711 -0.08 -0.01    -0.021    31.464
ATOM     23  C   UNL d   1      20.229   2.952  -5.486 -0.09 +0.03    +0.066    31.464
ATOM     24  C   UNL d   1      21.599   0.214  -7.551 -0.03 +0.01    +0.051    31.464
ATOM     25  N   UNL d   1      19.317   4.085  -2.885 -0.09 -0.06    -0.248    31.464
ATOM     26  N   UNL d   1      19.048   2.210  -0.674 -0.15 -0.02    -0.248    31.464
ATOM     27  N   UNL d   1      19.993   0.123  -2.337 -0.06 -0.05    -0.248    31.464
ATOM     28  N   UNL d   1      20.271   1.975  -4.557 -0.03 -0.08    -0.248    31.464
ATOM     29 FE   UNL d   1      19.665   2.089  -2.629 -0.05 +0.00    +0.000    31.464
ATOM     30  O   UNL d   1      20.694   3.004  -1.904 -0.12 +0.00    +0.000    31.464
ATOM     31  O   UNL d   1      21.186   1.692  -2.623 -0.10 +0.00    +0.000    31.464
ATOM     32  C   UNL d   1      19.287   7.319  -4.720 -0.17 +0.02    +0.052    31.464
ATOM     33  C   UNL d   1      18.181   7.372  -5.770 -0.23 +0.08    +0.115    31.464
ATOM     34  C   UNL d   1      16.829   7.026  -5.199 -0.39 +0.14    +0.139    31.464
ATOM     35  O   UNL d   1      16.195   7.874  -4.591 -0.14 -0.38    -0.650    31.464
ATOM     36  O   UNL d   1      16.310   5.786  -5.319 -0.30 -1.35    -0.776    31.464
ATOM     37  H   UNL d   1      15.580   5.482  -4.768 -0.44 +0.13    +0.167    31.464
ATOM     38  C   UNL d   1      20.926   3.259  -7.982 -0.05 +0.02    +0.052    31.464
ATOM     39  C   UNL d   1      19.916   2.892  -9.068 -0.08 +0.06    +0.115    31.464
ATOM     40  C   UNL d   1      18.913   3.991  -9.317 -0.10 +0.14    +0.139    31.464
ATOM     41  O   UNL d   1      18.039   3.835 -10.155 -0.01 -0.65    -0.650    31.464
ATOM     42  O   UNL d   1      18.931   5.126  -8.592 -0.39 -1.16    -0.776    31.464
ATOM     43  H   UNL d   1      19.714   5.689  -8.555 +0.04 +0.14    +0.167    31.464
ATOM     44  C   UNL d   1      17.837   1.008   2.702 -0.24 -0.00    +0.004    31.464
ATOM     45  C   UNL d   1      16.932   0.042   2.854 -0.32 -0.00    +0.012    31.464
ATOM     46  C   UNL d   1      21.295  -3.179  -3.425 -0.07 +0.00    +0.004    31.464
ATOM     47  C   UNL d   1      20.804  -3.898  -4.443 -0.08 +0.00    +0.012    31.464
TER
ENDMDL
MODEL       31
USER    Run = 31
USER    Cluster Rank = 19
USER    Number of conformations in this cluster = 1
USER  
USER    RMSD from reference structure       = 35.756 A
USER  
USER    Estimated Free Energy of Binding    =   -7.11 kcal/mol  [=(1)+(2)+(3)-(4)]
USER    Estimated Inhibition Constant, Ki   =    6.13 uM (micromolar)  [Temperature = 298.15 K]
USER    
USER    (1) Final Intermolecular Energy     =  -10.09 kcal/mol
USER        vdW + Hbond + desolv Energy     =   -8.10 kcal/mol
USER        Electrostatic Energy            =   -2.00 kcal/mol
USER    (2) Final Total Internal Energy     =   -1.97 kcal/mol
USER    (3) Torsional Free Energy           =   +2.98 kcal/mol
USER    (4) Unbound System's Energy  [=(2)] =   -1.97 kcal/mol
USER    
USER    
USER  
USER    DPF = D:/Protein_go_brrr/autodock/final/AncB/heme_O2/dock.dpf
USER    NEWDPF move	heme_O2_opt.pdbqt
USER    NEWDPF about	8.287000 34.468000 -0.670000
USER    NEWDPF tran0	-2.736770 -0.207228 -11.454716
USER    NEWDPF axisangle0	0.357691 0.769335 0.529321 97.836537
USER    NEWDPF quaternion0	0.269618 0.579904 0.398988 0.657135
USER    NEWDPF dihe0	150.56 -118.08 -103.34 69.12 -144.71 90.55 -86.66 84.35 174.31 -162.55 
USER  
USER                              x       y       z    vdW   Elec        q     RMS 
ATOM      1  C   UNL d   1      -1.812  -0.142 -13.363 -0.02 +0.11    +0.064    35.756
ATOM      2  C   UNL d   1      -6.112   1.176 -11.835 -0.12 +0.05    +0.064    35.756
ATOM      3  C   UNL d   1      -5.079  -0.291  -7.377 -0.06 +0.02    +0.064    35.756
ATOM      4  C   UNL d   1      -0.485  -1.211  -8.831 -0.06 +0.04    +0.064    35.756
ATOM      5  C   UNL d   1      -3.065   0.338 -13.311 -0.07 +0.12    +0.066    35.756
ATOM      6  C   UNL d   1      -3.756   0.845 -14.415 -0.14 -0.03    -0.021    35.756
ATOM      7  C   UNL d   1      -4.985   1.266 -13.965 -0.12 -0.04    -0.025    35.756
ATOM      8  C   UNL d   1      -5.030   0.961 -12.608 -0.14 +0.08    +0.066    35.756
ATOM      9  C   UNL d   1      -6.030   1.953 -14.818 -0.08 +0.06    +0.051    35.756
ATOM     10  C   UNL d   1      -6.226   0.856 -10.412 -0.17 +0.04    +0.066    35.756
ATOM     11  C   UNL d   1      -7.425   0.947  -9.696 -0.16 -0.01    -0.021    35.756
ATOM     12  C   UNL d   1      -7.152   0.511  -8.413 -0.28 +0.00    +0.000    35.756
ATOM     13  C   UNL d   1      -5.768   0.183  -8.415 -0.27 +0.02    +0.070    35.756
ATOM     14  C   UNL d   1      -8.781   1.405 -10.222 -0.08 +0.02    +0.052    35.756
ATOM     15  C   UNL d   1      -3.671  -0.603  -7.328 -0.37 +0.02    +0.066    35.756
ATOM     16  C   UNL d   1      -2.975  -0.939  -6.167 -0.43 -0.01    -0.021    35.756
ATOM     17  C   UNL d   1      -1.663  -1.205  -6.557 -0.43 +0.00    +0.000    35.756
ATOM     18  C   UNL d   1      -1.657  -1.010  -7.946 -0.33 +0.03    +0.070    35.756
ATOM     19  C   UNL d   1      -3.605  -0.923  -4.797 -0.10 +0.01    +0.052    35.756
ATOM     20  C   UNL d   1      -0.433  -0.992 -10.159 +0.12 +0.04    +0.066    35.756
ATOM     21  C   UNL d   1       0.695  -1.216 -10.944 -0.21 -0.01    -0.025    35.756
ATOM     22  C   UNL d   1       0.327  -0.943 -12.242 -0.14 -0.02    -0.021    35.756
ATOM     23  C   UNL d   1      -1.012  -0.543 -12.199 -0.21 +0.07    +0.066    35.756
ATOM     24  C   UNL d   1       2.055  -1.664 -10.477 -0.40 +0.02    +0.051    35.756
ATOM     25  N   UNL d   1      -3.823   0.449 -12.192 -0.13 -0.34    -0.248    35.756
ATOM     26  N   UNL d   1      -5.212   0.399  -9.634 -0.16 -0.14    -0.248    35.756
ATOM     27  N   UNL d   1      -2.864  -0.573  -8.385 -0.24 -0.11    -0.248    35.756
ATOM     28  N   UNL d   1      -1.457  -0.531 -10.926 -0.15 -0.21    -0.248    35.756
ATOM     29 FE   UNL d   1      -3.320  -0.069 -10.282 -0.06 +0.00    +0.000    35.756
ATOM     30  O   UNL d   1      -3.486   1.464 -10.493 -0.35 +0.00    +0.000    35.756
ATOM     31  O   UNL d   1      -2.320   0.923  -9.583 -0.45 +0.00    +0.000    35.756
ATOM     32  C   UNL d   1      -3.234   1.054 -15.813 -0.09 +0.07    +0.052    35.756
ATOM     33  C   UNL d   1      -2.887   2.510 -16.104 +0.04 +0.18    +0.115    35.756
ATOM     34  C   UNL d   1      -1.448   2.833 -15.787 -0.06 +0.19    +0.139    35.756
ATOM     35  O   UNL d   1      -0.555   2.289 -16.418 +0.04 -0.55    -0.650    35.756
ATOM     36  O   UNL d   1      -1.120   3.691 -14.799 -0.10 -1.41    -0.776    35.756
ATOM     37  H   UNL d   1      -0.293   3.614 -14.309 +0.06 +0.21    +0.167    35.756
ATOM     38  C   UNL d   1       1.235  -1.002 -13.443 -0.26 +0.03    +0.052    35.756
ATOM     39  C   UNL d   1       2.411  -0.034 -13.332 -0.31 +0.05    +0.115    35.756
ATOM     40  C   UNL d   1       2.158   1.265 -14.055 -0.26 +0.07    +0.139    35.756
ATOM     41  O   UNL d   1       2.948   1.651 -14.901 +0.02 -0.27    -0.650    35.756
ATOM     42  O   UNL d   1       1.046   1.987 -13.819 +0.03 -0.53    -0.776    35.756
ATOM     43  H   UNL d   1       0.382   2.129 -14.505 +0.06 +0.14    +0.167    35.756
ATOM     44  C   UNL d   1      -8.218   0.458  -7.338 -0.23 +0.00    +0.004    35.756
ATOM     45  C   UNL d   1      -9.235  -0.396  -7.235 -0.28 +0.00    +0.012    35.756
ATOM     46  C   UNL d   1      -0.444  -1.558  -5.748 -0.45 +0.00    +0.004    35.756
ATOM     47  C   UNL d   1      -0.244  -2.635  -4.977 -0.52 +0.00    +0.012    35.756
TER
ENDMDL
MODEL       81
USER    Run = 81
USER    Cluster Rank = 20
USER    Number of conformations in this cluster = 1
USER  
USER    RMSD from reference structure       = 34.683 A
USER  
USER    Estimated Free Energy of Binding    =   -6.52 kcal/mol  [=(1)+(2)+(3)-(4)]
USER    Estimated Inhibition Constant, Ki   =   16.63 uM (micromolar)  [Temperature = 298.15 K]
USER    
USER    (1) Final Intermolecular Energy     =   -9.50 kcal/mol
USER        vdW + Hbond + desolv Energy     =   -7.74 kcal/mol
USER        Electrostatic Energy            =   -1.76 kcal/mol
USER    (2) Final Total Internal Energy     =   -1.81 kcal/mol
USER    (3) Torsional Free Energy           =   +2.98 kcal/mol
USER    (4) Unbound System's Energy  [=(2)] =   -1.81 kcal/mol
USER    
USER    
USER  
USER    DPF = D:/Protein_go_brrr/autodock/final/AncB/heme_O2/dock.dpf
USER    NEWDPF move	heme_O2_opt.pdbqt
USER    NEWDPF about	8.287000 34.468000 -0.670000
USER    NEWDPF tran0	18.122614 0.516368 -9.635322
USER    NEWDPF axisangle0	-0.597055 0.780008 0.187383 105.139443
USER    NEWDPF quaternion0	-0.474118 0.619399 0.148800 0.607796
USER    NEWDPF dihe0	123.51 -119.76 3.20 -126.71 -108.72 34.98 -36.25 -41.24 -177.62 48.07 
USER  
USER                              x       y       z    vdW   Elec        q     RMS 
ATOM      1  C   UNL d   1      18.241   2.571 -10.148 -0.12 +0.04    +0.064    34.683
ATOM      2  C   UNL d   1      16.256  -1.165 -12.307 -0.16 +0.02    +0.064    34.683
ATOM      3  C   UNL d   1      17.761  -4.101  -8.813 -0.17 +0.02    +0.064    34.683
ATOM      4  C   UNL d   1      19.394  -0.190  -6.342 -0.19 +0.02    +0.064    34.683
ATOM      5  C   UNL d   1      17.577   1.795 -11.020 -0.11 +0.03    +0.066    34.683
ATOM      6  C   UNL d   1      16.997   2.264 -12.202 -0.10 -0.01    -0.021    34.683
ATOM      7  C   UNL d   1      16.385   1.191 -12.806 -0.12 -0.01    -0.025    34.683
ATOM      8  C   UNL d   1      16.649   0.087 -12.001 -0.14 +0.02    +0.066    34.683
ATOM      9  C   UNL d   1      15.568   1.264 -14.078 -0.15 +0.01    +0.051    34.683
ATOM     10  C   UNL d   1      16.523  -2.366 -11.514 -0.15 +0.02    +0.066    34.683
ATOM     11  C   UNL d   1      16.236  -3.661 -11.959 -0.13 -0.01    -0.021    34.683
ATOM     12  C   UNL d   1      16.679  -4.523 -10.973 -0.16 +0.00    +0.000    34.683
ATOM     13  C   UNL d   1      17.212  -3.685  -9.954 -0.16 +0.03    +0.070    34.683
ATOM     14  C   UNL d   1      15.591  -4.061 -13.281 -0.13 +0.02    +0.052    34.683
ATOM     15  C   UNL d   1      18.279  -3.284  -7.742 -0.16 +0.02    +0.066    34.683
ATOM     16  C   UNL d   1      18.690  -3.774  -6.502 -0.14 -0.01    -0.021    34.683
ATOM     17  C   UNL d   1      19.159  -2.677  -5.780 -0.23 +0.00    +0.000    34.683
ATOM     18  C   UNL d   1      18.999  -1.586  -6.646 -0.22 +0.02    +0.070    34.683
ATOM     19  C   UNL d   1      18.548  -5.221  -6.101 -0.15 +0.01    +0.052    34.683
ATOM     20  C   UNL d   1      19.215   0.887  -7.132 -0.18 +0.03    +0.066    34.683
ATOM     21  C   UNL d   1      19.624   2.175  -6.799 -0.16 -0.01    -0.025    34.683
ATOM     22  C   UNL d   1      19.328   2.970  -7.883 -0.16 -0.02    -0.021    34.683
ATOM     23  C   UNL d   1      18.731   2.138  -8.834 -0.16 +0.04    +0.066    34.683
ATOM     24  C   UNL d   1      20.262   2.625  -5.510 -0.12 +0.02    +0.051    34.683
ATOM     25  N   UNL d   1      17.327   0.471 -10.868 -0.08 -0.09    -0.248    34.683
ATOM     26  N   UNL d   1      17.109  -2.374 -10.290 -0.12 -0.08    -0.248    34.683
ATOM     27  N   UNL d   1      18.395  -1.961  -7.802 -0.14 -0.08    -0.248    34.683
ATOM     28  N   UNL d   1      18.623   0.881  -8.355 -0.13 -0.11    -0.248    34.683
ATOM     29 FE   UNL d   1      17.872  -0.736  -9.313 -0.04 +0.00    +0.000    34.683
ATOM     30  O   UNL d   1      16.337  -0.504  -9.420 -0.48 +0.00    +0.000    34.683
ATOM     31  O   UNL d   1      17.026  -0.528  -8.004 -0.36 +0.00    +0.000    34.683
ATOM     32  C   UNL d   1      16.900   3.690 -12.680 -0.11 +0.02    +0.052    34.683
ATOM     33  C   UNL d   1      15.590   4.361 -12.281 -0.27 +0.06    +0.115    34.683
ATOM     34  C   UNL d   1      15.780   5.805 -11.888 -0.32 +0.09    +0.139    34.683
ATOM     35  O   UNL d   1      15.516   6.688 -12.689 -0.35 -0.35    -0.650    34.683
ATOM     36  O   UNL d   1      16.264   6.147 -10.676 -0.19 -0.88    -0.776    34.683
ATOM     37  H   UNL d   1      17.047   6.700 -10.576 -0.07 +0.17    +0.167    34.683
ATOM     38  C   UNL d   1      19.551   4.458  -7.968 -0.07 +0.05    +0.052    34.683
ATOM     39  C   UNL d   1      19.827   4.925  -9.396 -0.10 +0.08    +0.115    34.683
ATOM     40  C   UNL d   1      19.098   6.201  -9.736 -0.21 +0.12    +0.139    34.683
ATOM     41  O   UNL d   1      19.231   6.698 -10.843 -0.03 -0.39    -0.650    34.683
ATOM     42  O   UNL d   1      18.259   6.779  -8.855 +0.00 -1.04    -0.776    34.683
ATOM     43  H   UNL d   1      17.319   6.878  -9.043 -0.24 +0.32    +0.167    34.683
ATOM     44  C   UNL d   1      16.547  -6.026 -11.100 -0.15 +0.00    +0.004    34.683
ATOM     45  C   UNL d   1      16.949  -6.959 -10.238 -0.12 +0.01    +0.012    34.683
ATOM     46  C   UNL d   1      19.673  -2.569  -4.369 -0.24 +0.00    +0.004    34.683
ATOM     47  C   UNL d   1      19.353  -1.661  -3.438 -0.26 +0.00    +0.012    34.683
TER
ENDMDL
MODEL       54
USER    Run = 54
USER    Cluster Rank = 21
USER    Number of conformations in this cluster = 1
USER  
USER    RMSD from reference structure       = 39.255 A
USER  
USER    Estimated Free Energy of Binding    =   -6.47 kcal/mol  [=(1)+(2)+(3)-(4)]
USER    Estimated Inhibition Constant, Ki   =   18.14 uM (micromolar)  [Temperature = 298.15 K]
USER    
USER    (1) Final Intermolecular Energy     =   -9.45 kcal/mol
USER        vdW + Hbond + desolv Energy     =   -5.39 kcal/mol
USER        Electrostatic Energy            =   -4.06 kcal/mol
USER    (2) Final Total Internal Energy     =   -2.21 kcal/mol
USER    (3) Torsional Free Energy           =   +2.98 kcal/mol
USER    (4) Unbound System's Energy  [=(2)] =   -2.21 kcal/mol
USER    
USER    
USER  
USER    DPF = D:/Protein_go_brrr/autodock/final/AncB/heme_O2/dock.dpf
USER    NEWDPF move	heme_O2_opt.pdbqt
USER    NEWDPF about	8.287000 34.468000 -0.670000
USER    NEWDPF tran0	-7.586683 -1.433497 -11.977186
USER    NEWDPF axisangle0	0.196487 -0.938026 -0.285482 -113.885176
USER    NEWDPF quaternion0	0.164681 -0.786182 -0.239270 -0.545479
USER    NEWDPF dihe0	32.39 106.61 50.18 -27.56 -117.23 -159.83 129.42 -58.74 20.55 12.19 
USER  
USER                              x       y       z    vdW   Elec        q     RMS 
ATOM      1  C   UNL d   1      -6.180  -0.118 -12.867 -0.09 +0.07    +0.064    39.255
ATOM      2  C   UNL d   1     -10.070  -2.267 -14.544 +0.00 +0.03    +0.064    39.255
ATOM      3  C   UNL d   1     -10.817  -4.420 -10.313 -0.12 +0.03    +0.064    39.255
ATOM      4  C   UNL d   1      -7.090  -1.841  -8.435 -0.18 +0.02    +0.064    39.255
ATOM      5  C   UNL d   1      -7.178  -0.525 -13.668 -0.04 +0.06    +0.066    39.255
ATOM      6  C   UNL d   1      -7.314  -0.143 -15.005 -0.02 -0.02    -0.021    39.255
ATOM      7  C   UNL d   1      -8.464  -0.730 -15.480 +0.00 -0.01    -0.025    39.255
ATOM      8  C   UNL d   1      -8.973  -1.494 -14.432 -0.00 +0.04    +0.066    39.255
ATOM      9  C   UNL d   1      -9.034  -0.522 -16.866 +0.01 +0.02    +0.051    39.255
ATOM     10  C   UNL d   1     -10.638  -3.107 -13.489 -0.01 +0.03    +0.066    39.255
ATOM     11  C   UNL d   1     -11.680  -4.015 -13.705 -0.03 -0.01    -0.021    39.255
ATOM     12  C   UNL d   1     -11.898  -4.659 -12.501 -0.08 +0.00    +0.000    39.255
ATOM     13  C   UNL d   1     -10.963  -4.086 -11.595 -0.06 +0.04    +0.070    39.255
ATOM     14  C   UNL d   1     -12.419  -4.277 -15.012 -0.02 +0.03    +0.052    39.255
ATOM     15  C   UNL d   1      -9.908  -3.840  -9.354 -0.12 +0.02    +0.066    39.255
ATOM     16  C   UNL d   1      -9.916  -4.118  -7.988 -0.23 -0.00    -0.021    39.255
ATOM     17  C   UNL d   1      -8.862  -3.393  -7.431 -0.32 +0.00    +0.000    39.255
ATOM     18  C   UNL d   1      -8.281  -2.720  -8.515 -0.20 +0.02    +0.070    39.255
ATOM     19  C   UNL d   1     -10.951  -4.998  -7.334 -0.16 +0.01    +0.052    39.255
ATOM     20  C   UNL d   1      -6.533  -1.146  -9.446 -0.17 +0.03    +0.066    39.255
ATOM     21  C   UNL d   1      -5.400  -0.349  -9.313 -0.25 -0.01    -0.025    39.255
ATOM     22  C   UNL d   1      -5.110   0.129 -10.572 -0.21 -0.02    -0.021    39.255
ATOM     23  C   UNL d   1      -6.092  -0.383 -11.426 -0.11 +0.06    +0.066    39.255
ATOM     24  C   UNL d   1      -4.635  -0.054  -8.049 -0.41 +0.02    +0.051    39.255
ATOM     25  N   UNL d   1      -8.216  -1.315 -13.297 -0.01 -0.16    -0.248    39.255
ATOM     26  N   UNL d   1     -10.204  -3.139 -12.203 -0.01 -0.12    -0.248    39.255
ATOM     27  N   UNL d   1      -8.974  -2.943  -9.660 -0.06 -0.09    -0.248    39.255
ATOM     28  N   UNL d   1      -6.981  -1.121 -10.729 -0.06 -0.15    -0.248    39.255
ATOM     29 FE   UNL d   1      -8.581  -2.123 -11.458 -0.02 +0.00    +0.000    39.255
ATOM     30  O   UNL d   1      -9.615  -1.041 -11.885 -0.02 +0.00    +0.000    39.255
ATOM     31  O   UNL d   1      -9.113  -1.096 -10.393 -0.06 +0.00    +0.000    39.255
ATOM     32  C   UNL d   1      -6.475   0.845 -15.773 -0.02 +0.04    +0.052    39.255
ATOM     33  C   UNL d   1      -5.501   0.174 -16.736 -0.02 +0.11    +0.115    39.255
ATOM     34  C   UNL d   1      -4.648  -0.869 -16.057 +0.07 +0.23    +0.139    39.255
ATOM     35  O   UNL d   1      -5.019  -2.031 -16.035 -0.12 -1.25    -0.650    39.255
ATOM     36  O   UNL d   1      -3.490  -0.541 -15.446 -0.13 -1.75    -0.776    39.255
ATOM     37  H   UNL d   1      -3.366   0.310 -15.009 +0.02 +0.29    +0.167    39.255
ATOM     38  C   UNL d   1      -3.989   1.075 -10.916 -0.19 +0.05    +0.052    39.255
ATOM     39  C   UNL d   1      -2.932   0.426 -11.806 -0.24 +0.14    +0.115    39.255
ATOM     40  C   UNL d   1      -2.774   1.138 -13.126 -0.19 +0.21    +0.139    39.255
ATOM     41  O   UNL d   1      -3.627   1.930 -13.494 -0.26 -1.26    -0.650    39.255
ATOM     42  O   UNL d   1      -1.679   0.955 -13.889 +0.02 -1.02    -0.776    39.255
ATOM     43  H   UNL d   1      -1.718   0.469 -14.721 +0.03 +0.24    +0.167    39.255
ATOM     44  C   UNL d   1     -12.957  -5.729 -12.342 -0.02 +0.01    +0.004    39.255
ATOM     45  C   UNL d   1     -13.849  -5.859 -11.361 -0.06 +0.01    +0.012    39.255
ATOM     46  C   UNL d   1      -8.411  -3.244  -6.003 -0.54 +0.00    +0.004    39.255
ATOM     47  C   UNL d   1      -9.163  -3.219  -4.895 -0.65 +0.00    +0.012    39.255
TER
ENDMDL
MODEL       84
USER    Run = 84
USER    Cluster Rank = 22
USER    Number of conformations in this cluster = 1
USER  
USER    RMSD from reference structure       = 30.091 A
USER  
USER    Estimated Free Energy of Binding    =   -6.24 kcal/mol  [=(1)+(2)+(3)-(4)]
USER    Estimated Inhibition Constant, Ki   =   26.72 uM (micromolar)  [Temperature = 298.15 K]
USER    
USER    (1) Final Intermolecular Energy     =   -9.22 kcal/mol
USER        vdW + Hbond + desolv Energy     =   -6.63 kcal/mol
USER        Electrostatic Energy            =   -2.59 kcal/mol
USER    (2) Final Total Internal Energy     =   -1.20 kcal/mol
USER    (3) Torsional Free Energy           =   +2.98 kcal/mol
USER    (4) Unbound System's Energy  [=(2)] =   -1.20 kcal/mol
USER    
USER    
USER  
USER    DPF = D:/Protein_go_brrr/autodock/final/AncB/heme_O2/dock.dpf
USER    NEWDPF move	heme_O2_opt.pdbqt
USER    NEWDPF about	8.287000 34.468000 -0.670000
USER    NEWDPF tran0	19.564647 3.758554 -1.069493
USER    NEWDPF axisangle0	-0.292789 0.755716 -0.585806 120.189735
USER    NEWDPF quaternion0	-0.253804 0.655094 -0.507807 0.498565
USER    NEWDPF dihe0	75.04 129.61 59.69 -132.31 -164.78 -114.61 -64.89 -121.22 -162.61 144.69 
USER  
USER                              x       y       z    vdW   Elec        q     RMS 
ATOM      1  C   UNL d   1      20.075   4.382  -3.031 -0.11 +0.02    +0.064    30.091
ATOM      2  C   UNL d   1      20.458   0.213  -0.789 -0.11 +0.01    +0.064    30.091
ATOM      3  C   UNL d   1      18.614   2.099   3.228 -0.12 +0.00    +0.064    30.091
ATOM      4  C   UNL d   1      17.773   6.270   0.786 -0.20 +0.00    +0.064    30.091
ATOM      5  C   UNL d   1      20.328   3.094  -2.750 -0.08 +0.01    +0.066    30.091
ATOM      6  C   UNL d   1      20.898   2.192  -3.654 -0.08 -0.01    -0.021    30.091
ATOM      7  C   UNL d   1      20.969   0.974  -3.020 -0.10 -0.01    -0.025    30.091
ATOM      8  C   UNL d   1      20.485   1.176  -1.730 -0.10 +0.01    +0.066    30.091
ATOM      9  C   UNL d   1      21.455  -0.308  -3.660 -0.09 +0.01    +0.051    30.091
ATOM     10  C   UNL d   1      19.983   0.371   0.586 -0.11 +0.00    +0.066    30.091
ATOM     11  C   UNL d   1      20.128  -0.615   1.568 -0.07 -0.00    -0.021    30.091
ATOM     12  C   UNL d   1      19.619  -0.083   2.739 -0.07 +0.00    +0.000    30.091
ATOM     13  C   UNL d   1      19.171   1.222   2.393 -0.10 +0.00    +0.070    30.091
ATOM     14  C   UNL d   1      20.752  -1.997   1.404 -0.05 +0.00    +0.052    30.091
ATOM     15  C   UNL d   1      18.116   3.416   2.910 -0.16 +0.00    +0.066    30.091
ATOM     16  C   UNL d   1      17.395   4.222   3.791 -0.16 -0.00    -0.021    30.091
ATOM     17  C   UNL d   1      17.143   5.416   3.116 -0.20 +0.00    +0.000    30.091
ATOM     18  C   UNL d   1      17.739   5.248   1.858 -0.22 +0.00    +0.070    30.091
ATOM     19  C   UNL d   1      16.968   3.764   5.163 -0.11 +0.01    +0.052    30.091
ATOM     20  C   UNL d   1      18.297   6.126  -0.447 -0.16 +0.00    +0.066    30.091
ATOM     21  C   UNL d   1      18.315   7.131  -1.409 -0.19 -0.00    -0.025    30.091
ATOM     22  C   UNL d   1      18.992   6.620  -2.494 -0.15 -0.00    -0.021    30.091
ATOM     23  C   UNL d   1      19.347   5.310  -2.159 -0.15 +0.01    +0.066    30.091
ATOM     24  C   UNL d   1      17.714   8.509  -1.301 -0.06 +0.01    +0.051    30.091
ATOM     25  N   UNL d   1      20.030   2.466  -1.586 -0.07 -0.04    -0.248    30.091
ATOM     26  N   UNL d   1      19.392   1.488   1.081 -0.08 -0.01    -0.248    30.091
ATOM     27  N   UNL d   1      18.258   4.001   1.725 -0.14 -0.00    -0.248    30.091
ATOM     28  N   UNL d   1      18.883   4.999  -0.931 -0.12 -0.01    -0.248    30.091
ATOM     29 FE   UNL d   1      19.134   3.257   0.070 -0.04 +0.00    +0.000    30.091
ATOM     30  O   UNL d   1      18.264   2.201  -0.671 -0.33 +0.00    +0.000    30.091
ATOM     31  O   UNL d   1      17.587   3.496  -0.081 -0.41 -0.00    +0.000    30.091
ATOM     32  C   UNL d   1      21.237   2.428  -5.103 -0.08 +0.01    +0.052    30.091
ATOM     33  C   UNL d   1      20.017   2.352  -6.016 -0.09 +0.05    +0.115    30.091
ATOM     34  C   UNL d   1      19.676   3.687  -6.631 -0.15 +0.10    +0.139    30.091
ATOM     35  O   UNL d   1      20.566   4.386  -7.088 +0.01 -0.36    -0.650    30.091
ATOM     36  O   UNL d   1      18.406   4.142  -6.663 -0.13 -1.33    -0.776    30.091
ATOM     37  H   UNL d   1      17.969   4.493  -5.879 +0.07 +0.26    +0.167    30.091
ATOM     38  C   UNL d   1      19.223   7.334  -3.801 -0.14 +0.02    +0.052    30.091
ATOM     39  C   UNL d   1      18.478   6.680  -4.962 -0.24 +0.07    +0.115    30.091
ATOM     40  C   UNL d   1      16.990   6.607  -4.723 -0.41 +0.12    +0.139    30.091
ATOM     41  O   UNL d   1      16.443   7.458  -4.041 -0.10 -0.33    -0.650    30.091
ATOM     42  O   UNL d   1      16.241   5.643  -5.293 -0.24 -1.36    -0.776    30.091
ATOM     43  H   UNL d   1      15.602   5.131  -4.782 -0.46 +0.12    +0.167    30.091
ATOM     44  C   UNL d   1      19.609  -0.861   4.038 -0.04 +0.00    +0.004    30.091
ATOM     45  C   UNL d   1      18.566  -1.135   4.821 -0.05 +0.00    +0.012    30.091
ATOM     46  C   UNL d   1      16.364   6.637   3.526 -0.19 +0.00    +0.004    30.091
ATOM     47  C   UNL d   1      15.529   7.375   2.783 -0.23 +0.00    +0.012    30.091
TER
ENDMDL
MODEL       26
USER    Run = 26
USER    Cluster Rank = 23
USER    Number of conformations in this cluster = 1
USER  
USER    RMSD from reference structure       = 34.940 A
USER  
USER    Estimated Free Energy of Binding    =   -6.06 kcal/mol  [=(1)+(2)+(3)-(4)]
USER    Estimated Inhibition Constant, Ki   =   36.22 uM (micromolar)  [Temperature = 298.15 K]
USER    
USER    (1) Final Intermolecular Energy     =   -9.04 kcal/mol
USER        vdW + Hbond + desolv Energy     =   -6.87 kcal/mol
USER        Electrostatic Energy            =   -2.17 kcal/mol
USER    (2) Final Total Internal Energy     =   -2.01 kcal/mol
USER    (3) Torsional Free Energy           =   +2.98 kcal/mol
USER    (4) Unbound System's Energy  [=(2)] =   -2.01 kcal/mol
USER    
USER    
USER  
USER    DPF = D:/Protein_go_brrr/autodock/final/AncB/heme_O2/dock.dpf
USER    NEWDPF move	heme_O2_opt.pdbqt
USER    NEWDPF about	8.287000 34.468000 -0.670000
USER    NEWDPF tran0	15.444290 2.147257 -13.884672
USER    NEWDPF axisangle0	0.643636 -0.575829 -0.504137 -165.944539
USER    NEWDPF quaternion0	0.638800 -0.571502 -0.500349 -0.122350
USER    NEWDPF dihe0	172.78 26.42 63.81 -65.56 -106.54 -83.06 85.10 -30.94 12.34 -3.00 
USER  
USER                              x       y       z    vdW   Elec        q     RMS 
ATOM      1  C   UNL d   1      15.990   3.218 -12.137 -0.18 +0.03    +0.064    34.940
ATOM      2  C   UNL d   1      14.578   4.621 -16.449 -0.15 +0.01    +0.064    34.940
ATOM      3  C   UNL d   1      14.259   0.060 -17.930 -0.08 +0.02    +0.064    34.940
ATOM      4  C   UNL d   1      15.249  -1.408 -13.355 -0.06 +0.02    +0.064    34.940
ATOM      5  C   UNL d   1      15.630   3.972 -13.189 -0.14 +0.03    +0.066    34.940
ATOM      6  C   UNL d   1      15.612   5.370 -13.180 -0.25 -0.01    -0.021    34.940
ATOM      7  C   UNL d   1      15.162   5.776 -14.415 -0.23 -0.01    -0.025    34.940
ATOM      8  C   UNL d   1      14.963   4.617 -15.159 -0.14 +0.02    +0.066    34.940
ATOM      9  C   UNL d   1      14.917   7.215 -14.816 -0.20 +0.01    +0.051    34.940
ATOM     10  C   UNL d   1      14.375   3.439 -17.288 -0.12 +0.02    +0.066    34.940
ATOM     11  C   UNL d   1      14.135   3.504 -18.665 -0.12 -0.00    -0.021    34.940
ATOM     12  C   UNL d   1      14.057   2.199 -19.113 -0.09 +0.00    +0.000    34.940
ATOM     13  C   UNL d   1      14.248   1.393 -17.957 -0.02 +0.02    +0.070    34.940
ATOM     14  C   UNL d   1      14.011   4.759 -19.521 -0.09 +0.01    +0.052    34.940
ATOM     15  C   UNL d   1      14.413  -0.792 -16.775 -0.09 +0.02    +0.066    34.940
ATOM     16  C   UNL d   1      14.251  -2.177 -16.788 -0.09 -0.00    -0.021    34.940
ATOM     17  C   UNL d   1      14.528  -2.618 -15.494 -0.14 +0.00    +0.000    34.940
ATOM     18  C   UNL d   1      14.843  -1.453 -14.780 -0.16 +0.02    +0.070    34.940
ATOM     19  C   UNL d   1      13.799  -2.941 -18.006 -0.05 +0.01    +0.052    34.940
ATOM     20  C   UNL d   1      15.516  -0.306 -12.629 -0.18 +0.02    +0.066    34.940
ATOM     21  C   UNL d   1      15.911  -0.327 -11.294 -0.28 -0.01    -0.025    34.940
ATOM     22  C   UNL d   1      16.153   0.981 -10.938 -0.29 -0.01    -0.021    34.940
ATOM     23  C   UNL d   1      15.878   1.757 -12.068 -0.20 +0.03    +0.066    34.940
ATOM     24  C   UNL d   1      16.047  -1.534 -10.402 -0.34 +0.02    +0.051    34.940
ATOM     25  N   UNL d   1      15.189   3.504 -14.382 -0.06 -0.07    -0.248    34.940
ATOM     26  N   UNL d   1      14.436   2.156 -16.850 -0.06 -0.08    -0.248    34.940
ATOM     27  N   UNL d   1      14.695  -0.348 -15.554 -0.09 -0.07    -0.248    34.940
ATOM     28  N   UNL d   1      15.448   0.975 -13.080 -0.12 -0.08    -0.248    34.940
ATOM     29 FE   UNL d   1      14.945   1.558 -14.952 -0.03 +0.00    +0.000    34.940
ATOM     30  O   UNL d   1      13.609   2.346 -14.817 -0.33 +0.00    +0.000    34.940
ATOM     31  O   UNL d   1      13.688   0.852 -14.324 -0.42 +0.00    +0.000    34.940
ATOM     32  C   UNL d   1      15.875   6.289 -12.016 -0.33 +0.03    +0.052    34.940
ATOM     33  C   UNL d   1      17.313   6.795 -11.973 -0.25 +0.07    +0.115    34.940
ATOM     34  C   UNL d   1      18.179   5.988 -11.036 -0.23 +0.11    +0.139    34.940
ATOM     35  O   UNL d   1      18.952   5.161 -11.491 +0.03 -0.35    -0.650    34.940
ATOM     36  O   UNL d   1      18.098   6.140  -9.698 -0.00 -1.08    -0.776    34.940
ATOM     37  H   UNL d   1      18.573   5.563  -9.089 +0.04 +0.27    +0.167    34.940
ATOM     38  C   UNL d   1      16.562   1.457  -9.568 -0.28 +0.03    +0.052    34.940
ATOM     39  C   UNL d   1      18.066   1.698  -9.461 -0.19 +0.07    +0.115    34.940
ATOM     40  C   UNL d   1      18.404   2.817  -8.509 -0.13 +0.14    +0.139    34.940
ATOM     41  O   UNL d   1      18.097   2.725  -7.331 -0.05 -0.76    -0.650    34.940
ATOM     42  O   UNL d   1      19.088   3.901  -8.924 -0.23 -0.82    -0.776    34.940
ATOM     43  H   UNL d   1      19.031   4.216  -9.834 +0.04 +0.14    +0.167    34.940
ATOM     44  C   UNL d   1      13.811   1.862 -20.569 -0.06 +0.00    +0.004    34.940
ATOM     45  C   UNL d   1      12.805   1.160 -21.088 -0.07 +0.00    +0.012    34.940
ATOM     46  C   UNL d   1      14.464  -3.992 -14.883 -0.16 +0.00    +0.004    34.940
ATOM     47  C   UNL d   1      13.377  -4.711 -14.571 -0.20 +0.00    +0.012    34.940
TER
ENDMDL
MODEL       69
USER    Run = 69
USER    Cluster Rank = 24
USER    Number of conformations in this cluster = 1
USER  
USER    RMSD from reference structure       = 36.085 A
USER  
USER    Estimated Free Energy of Binding    =   -5.93 kcal/mol  [=(1)+(2)+(3)-(4)]
USER    Estimated Inhibition Constant, Ki   =   45.00 uM (micromolar)  [Temperature = 298.15 K]
USER    
USER    (1) Final Intermolecular Energy     =   -8.91 kcal/mol
USER        vdW + Hbond + desolv Energy     =   -6.21 kcal/mol
USER        Electrostatic Energy            =   -2.71 kcal/mol
USER    (2) Final Total Internal Energy     =   -2.27 kcal/mol
USER    (3) Torsional Free Energy           =   +2.98 kcal/mol
USER    (4) Unbound System's Energy  [=(2)] =   -2.27 kcal/mol
USER    
USER    
USER  
USER    DPF = D:/Protein_go_brrr/autodock/final/AncB/heme_O2/dock.dpf
USER    NEWDPF move	heme_O2_opt.pdbqt
USER    NEWDPF about	8.287000 34.468000 -0.670000
USER    NEWDPF tran0	3.857844 2.126582 -17.522428
USER    NEWDPF axisangle0	-0.927180 0.371554 0.047803 160.010068
USER    NEWDPF quaternion0	-0.913108 0.365915 0.047077 0.173562
USER    NEWDPF dihe0	92.67 -116.89 -40.85 -115.01 -108.54 178.68 96.35 53.72 15.74 132.87 
USER  
USER                              x       y       z    vdW   Elec        q     RMS 
ATOM      1  C   UNL d   1       2.275   3.228 -16.639 -0.16 +0.03    +0.064    36.085
ATOM      2  C   UNL d   1       4.118   3.209 -21.017 -0.06 +0.03    +0.064    36.085
ATOM      3  C   UNL d   1       7.359  -0.101 -19.737 -0.14 +0.02    +0.064    36.085
ATOM      4  C   UNL d   1       5.165  -0.439 -15.362 +0.04 +0.01    +0.064    36.085
ATOM      5  C   UNL d   1       2.511   3.492 -17.935 -0.12 +0.03    +0.066    36.085
ATOM      6  C   UNL d   1       1.794   4.428 -18.686 -0.08 -0.01    -0.021    36.085
ATOM      7  C   UNL d   1       2.298   4.392 -19.965 -0.06 -0.01    -0.025    36.085
ATOM      8  C   UNL d   1       3.341   3.470 -19.948 -0.08 +0.03    +0.066    36.085
ATOM      9  C   UNL d   1       1.762   5.195 -21.130 -0.02 +0.02    +0.051    36.085
ATOM     10  C   UNL d   1       5.240   2.270 -21.053 +0.01 +0.03    +0.066    36.085
ATOM     11  C   UNL d   1       6.115   2.158 -22.139 -0.05 -0.01    -0.021    36.085
ATOM     12  C   UNL d   1       7.068   1.221 -21.782 -0.06 +0.00    +0.000    36.085
ATOM     13  C   UNL d   1       6.704   0.797 -20.474 -0.08 +0.03    +0.070    36.085
ATOM     14  C   UNL d   1       6.061   2.932 -23.451 -0.02 +0.02    +0.052    36.085
ATOM     15  C   UNL d   1       7.004  -0.583 -18.424 -0.17 +0.02    +0.066    36.085
ATOM     16  C   UNL d   1       7.637  -1.642 -17.774 -0.16 -0.00    -0.021    36.085
ATOM     17  C   UNL d   1       7.027  -1.758 -16.524 -0.25 +0.00    +0.000    36.085
ATOM     18  C   UNL d   1       6.057  -0.746 -16.506 -0.23 +0.01    +0.070    36.085
ATOM     19  C   UNL d   1       8.716  -2.476 -18.417 -0.10 +0.01    +0.052    36.085
ATOM     20  C   UNL d   1       4.196   0.495 -15.326 -0.27 +0.02    +0.066    36.085
ATOM     21  C   UNL d   1       3.399   0.750 -14.214 -0.34 -0.01    -0.025    36.085
ATOM     22  C   UNL d   1       2.588   1.810 -14.550 -0.23 -0.01    -0.021    36.085
ATOM     23  C   UNL d   1       2.908   2.153 -15.868 -0.18 +0.03    +0.066    36.085
ATOM     24  C   UNL d   1       3.408   0.017 -12.898 -0.44 +0.01    +0.051    36.085
ATOM     25  N   UNL d   1       3.429   2.868 -18.714 -0.06 -0.12    -0.248    36.085
ATOM     26  N   UNL d   1       5.589   1.436 -20.040 +0.01 -0.12    -0.248    36.085
ATOM     27  N   UNL d   1       6.007  -0.093 -17.694 -0.13 -0.10    -0.248    36.085
ATOM     28  N   UNL d   1       3.855   1.321 -16.350 -0.08 -0.11    -0.248    36.085
ATOM     29 FE   UNL d   1       4.717   1.376 -18.181 -0.05 +0.00    +0.000    36.085
ATOM     30  O   UNL d   1       3.621   0.929 -19.191 -0.10 +0.00    +0.000    36.085
ATOM     31  O   UNL d   1       4.042  -0.035 -18.019 -0.18 +0.00    +0.000    36.085
ATOM     32  C   UNL d   1       0.591   5.228 -18.259 -0.06 +0.03    +0.052    36.085
ATOM     33  C   UNL d   1       0.943   6.654 -17.847 -0.11 +0.08    +0.115    36.085
ATOM     34  C   UNL d   1       1.356   6.748 -16.399 -0.22 +0.11    +0.139    36.085
ATOM     35  O   UNL d   1       2.541   6.810 -16.112 +0.04 -0.58    -0.650    36.085
ATOM     36  O   UNL d   1       0.444   6.738 -15.405 +0.08 -0.63    -0.776    36.085
ATOM     37  H   UNL d   1       0.180   5.923 -14.962 +0.08 +0.16    +0.167    36.085
ATOM     38  C   UNL d   1       1.521   2.414 -13.673 -0.03 +0.03    +0.052    36.085
ATOM     39  C   UNL d   1       0.156   2.448 -14.356 -0.20 +0.11    +0.115    36.085
ATOM     40  C   UNL d   1      -0.466   3.822 -14.334 -0.22 +0.19    +0.139    36.085
ATOM     41  O   UNL d   1      -0.318   4.538 -13.357 -0.84 -0.93    -0.650    36.085
ATOM     42  O   UNL d   1      -1.141   4.297 -15.398 -0.12 -1.36    -0.776    36.085
ATOM     43  H   UNL d   1      -0.820   5.053 -15.904 +0.04 +0.22    +0.167    36.085
ATOM     44  C   UNL d   1       8.201   0.834 -22.709 -0.03 +0.00    +0.004    36.085
ATOM     45  C   UNL d   1       9.492   0.692 -22.409 -0.04 +0.00    +0.012    36.085
ATOM     46  C   UNL d   1       7.238  -2.748 -15.410 -0.31 +0.00    +0.004    36.085
ATOM     47  C   UNL d   1       6.342  -3.571 -14.851 -0.42 +0.00    +0.012    36.085
TER
ENDMDL
MODEL       51
USER    Run = 51
USER    Cluster Rank = 25
USER    Number of conformations in this cluster = 1
USER  
USER    RMSD from reference structure       = 37.281 A
USER  
USER    Estimated Free Energy of Binding    =   -5.81 kcal/mol  [=(1)+(2)+(3)-(4)]
USER    Estimated Inhibition Constant, Ki   =   55.32 uM (micromolar)  [Temperature = 298.15 K]
USER    
USER    (1) Final Intermolecular Energy     =   -8.79 kcal/mol
USER        vdW + Hbond + desolv Energy     =   -7.86 kcal/mol
USER        Electrostatic Energy            =   -0.93 kcal/mol
USER    (2) Final Total Internal Energy     =   -2.14 kcal/mol
USER    (3) Torsional Free Energy           =   +2.98 kcal/mol
USER    (4) Unbound System's Energy  [=(2)] =   -2.14 kcal/mol
USER    
USER    
USER  
USER    DPF = D:/Protein_go_brrr/autodock/final/AncB/heme_O2/dock.dpf
USER    NEWDPF move	heme_O2_opt.pdbqt
USER    NEWDPF about	8.287000 34.468000 -0.670000
USER    NEWDPF tran0	16.465593 -1.782327 -11.476244
USER    NEWDPF axisangle0	0.142024 -0.001672 -0.989862 99.362699
USER    NEWDPF quaternion0	0.108288 -0.001275 -0.754728 0.647038
USER    NEWDPF dihe0	101.88 -140.53 -46.94 -54.19 -27.84 155.09 34.26 64.29 3.83 149.02 
USER  
USER                              x       y       z    vdW   Elec        q     RMS 
ATOM      1  C   UNL d   1      16.267  -3.820 -12.032 -0.13 +0.03    +0.064    37.281
ATOM      2  C   UNL d   1      18.168  -1.702  -8.229 -0.20 +0.02    +0.064    37.281
ATOM      3  C   UNL d   1      17.123   2.638 -10.008 -0.06 +0.06    +0.064    37.281
ATOM      4  C   UNL d   1      14.737   0.460 -13.701 -0.23 +0.02    +0.064    37.281
ATOM      5  C   UNL d   1      16.868  -3.598 -10.852 -0.15 +0.03    +0.066    37.281
ATOM      6  C   UNL d   1      17.355  -4.610 -10.019 -0.13 -0.01    -0.021    37.281
ATOM      7  C   UNL d   1      17.866  -4.000  -8.897 -0.14 -0.01    -0.025    37.281
ATOM      8  C   UNL d   1      17.722  -2.630  -9.098 -0.18 +0.02    +0.066    37.281
ATOM      9  C   UNL d   1      18.431  -4.728  -7.697 -0.13 +0.02    +0.051    37.281
ATOM     10  C   UNL d   1      18.066  -0.252  -8.396 -0.23 +0.02    +0.066    37.281
ATOM     11  C   UNL d   1      18.690   0.666  -7.544 -0.24 -0.01    -0.021    37.281
ATOM     12  C   UNL d   1      18.415   1.923  -8.051 -0.25 +0.00    +0.000    37.281
ATOM     13  C   UNL d   1      17.611   1.696  -9.202 -0.22 +0.05    +0.070    37.281
ATOM     14  C   UNL d   1      19.536   0.357  -6.314 -0.19 +0.02    +0.052    37.281
ATOM     15  C   UNL d   1      16.276   2.451 -11.162 -0.21 +0.04    +0.066    37.281
ATOM     16  C   UNL d   1      15.663   3.486 -11.869 -0.25 -0.01    -0.021    37.281
ATOM     17  C   UNL d   1      14.977   2.888 -12.926 -0.25 +0.00    +0.000    37.281
ATOM     18  C   UNL d   1      15.227   1.516 -12.784 -0.22 +0.02    +0.070    37.281
ATOM     19  C   UNL d   1      15.741   4.931 -11.444 -0.38 +0.04    +0.052    37.281
ATOM     20  C   UNL d   1      14.923  -0.868 -13.570 -0.13 +0.02    +0.066    37.281
ATOM     21  C   UNL d   1      14.452  -1.815 -14.476 -0.13 -0.01    -0.025    37.281
ATOM     22  C   UNL d   1      14.902  -3.037 -14.031 -0.13 -0.01    -0.021    37.281
ATOM     23  C   UNL d   1      15.618  -2.793 -12.855 +0.06 +0.02    +0.066    37.281
ATOM     24  C   UNL d   1      13.613  -1.565 -15.702 -0.23 +0.01    +0.051    37.281
ATOM     25  N   UNL d   1      17.048  -2.386 -10.272 -0.12 -0.08    -0.248    37.281
ATOM     26  N   UNL d   1      17.399   0.370  -9.401 -0.17 -0.10    -0.248    37.281
ATOM     27  N   UNL d   1      15.955   1.263 -11.666 -0.15 -0.10    -0.248    37.281
ATOM     28  N   UNL d   1      15.590  -1.478 -12.554 -0.11 -0.09    -0.248    37.281
ATOM     29 FE   UNL d   1      16.487  -0.558 -10.990 -0.05 +0.00    +0.000    37.281
ATOM     30  O   UNL d   1      15.705  -1.001  -9.719 -0.57 +0.00    +0.000    37.281
ATOM     31  O   UNL d   1      14.945  -0.267 -10.888 -0.45 +0.00    +0.000    37.281
ATOM     32  C   UNL d   1      17.222  -6.099 -10.202 -0.12 +0.03    +0.052    37.281
ATOM     33  C   UNL d   1      18.347  -6.695 -11.042 -0.03 +0.03    +0.115    37.281
ATOM     34  C   UNL d   1      17.892  -7.883 -11.853 -0.02 +0.04    +0.139    37.281
ATOM     35  O   UNL d   1      18.694  -8.475 -12.558 +0.01 -0.13    -0.650    37.281
ATOM     36  O   UNL d   1      16.607  -8.292 -11.842 -0.01 -0.35    -0.776    37.281
ATOM     37  H   UNL d   1      16.000  -8.091 -12.563 +0.02 +0.07    +0.167    37.281
ATOM     38  C   UNL d   1      14.602  -4.369 -14.669 -0.14 +0.01    +0.052    37.281
ATOM     39  C   UNL d   1      13.646  -5.215 -13.830 -0.13 +0.05    +0.115    37.281
ATOM     40  C   UNL d   1      14.281  -6.496 -13.349 -0.15 +0.07    +0.139    37.281
ATOM     41  O   UNL d   1      14.693  -7.309 -14.160 +0.02 -0.22    -0.650    37.281
ATOM     42  O   UNL d   1      14.450  -6.738 -12.035 -0.13 -0.72    -0.776    37.281
ATOM     43  H   UNL d   1      15.264  -7.128 -11.694 +0.02 +0.16    +0.167    37.281
ATOM     44  C   UNL d   1      18.935   3.186  -7.396 -0.21 +0.00    +0.004    37.281
ATOM     45  C   UNL d   1      19.598   4.191  -7.966 -0.15 +0.01    +0.012    37.281
ATOM     46  C   UNL d   1      14.088   3.480 -13.986 -0.34 +0.00    +0.004    37.281
ATOM     47  C   UNL d   1      12.939   4.150 -13.826 -0.54 +0.00    +0.012    37.281
TER
ENDMDL
MODEL       21
USER    Run = 21
USER    Cluster Rank = 26
USER    Number of conformations in this cluster = 1
USER  
USER    RMSD from reference structure       = 51.655 A
USER  
USER    Estimated Free Energy of Binding    =   -5.68 kcal/mol  [=(1)+(2)+(3)-(4)]
USER    Estimated Inhibition Constant, Ki   =   69.06 uM (micromolar)  [Temperature = 298.15 K]
USER    
USER    (1) Final Intermolecular Energy     =   -8.66 kcal/mol
USER        vdW + Hbond + desolv Energy     =   -5.53 kcal/mol
USER        Electrostatic Energy            =   -3.13 kcal/mol
USER    (2) Final Total Internal Energy     =   -2.09 kcal/mol
USER    (3) Torsional Free Energy           =   +2.98 kcal/mol
USER    (4) Unbound System's Energy  [=(2)] =   -2.09 kcal/mol
USER    
USER    
USER  
USER    DPF = D:/Protein_go_brrr/autodock/final/AncB/heme_O2/dock.dpf
USER    NEWDPF move	heme_O2_opt.pdbqt
USER    NEWDPF about	8.287000 34.468000 -0.670000
USER    NEWDPF tran0	-8.148699 -15.940061 12.193036
USER    NEWDPF axisangle0	0.385588 0.166542 0.907516 151.163983
USER    NEWDPF quaternion0	0.373444 0.161297 0.878934 0.248994
USER    NEWDPF dihe0	-116.82 -101.74 -103.63 -105.25 42.26 126.92 76.14 33.65 -2.78 150.88 
USER  
USER                              x       y       z    vdW   Elec        q     RMS 
ATOM      1  C   UNL d   1      -7.157 -16.218  10.339 -0.08 +0.07    +0.064    51.655
ATOM      2  C   UNL d   1      -7.245 -12.604  13.419 -0.28 +0.03    +0.064    51.655
ATOM      3  C   UNL d   1     -10.273 -14.997  16.282 -0.11 +0.01    +0.064    51.655
ATOM      4  C   UNL d   1      -9.815 -18.910  13.360 -0.05 +0.03    +0.064    51.655
ATOM      5  C   UNL d   1      -6.932 -15.041  10.944 -0.03 +0.04    +0.066    51.655
ATOM      6  C   UNL d   1      -6.117 -14.034  10.418 -0.21 -0.01    -0.021    51.655
ATOM      7  C   UNL d   1      -6.108 -13.004  11.330 -0.24 -0.01    -0.025    51.655
ATOM      8  C   UNL d   1      -6.956 -13.391  12.364 -0.25 +0.03    +0.066    51.655
ATOM      9  C   UNL d   1      -5.289 -11.738  11.197 -0.26 +0.02    +0.051    51.655
ATOM     10  C   UNL d   1      -8.144 -12.945  14.522 -0.22 +0.03    +0.066    51.655
ATOM     11  C   UNL d   1      -8.537 -12.030  15.505 -0.23 -0.01    -0.021    51.655
ATOM     12  C   UNL d   1      -9.424 -12.696  16.330 -0.15 +0.00    +0.000    51.655
ATOM     13  C   UNL d   1      -9.515 -14.013  15.799 -0.08 +0.02    +0.070    51.655
ATOM     14  C   UNL d   1      -8.105 -10.574  15.636 -0.24 +0.04    +0.052    51.655
ATOM     15  C   UNL d   1     -10.366 -16.352  15.795 -0.07 +0.01    +0.066    51.655
ATOM     16  C   UNL d   1     -11.051 -17.380  16.442 -0.06 -0.00    -0.021    51.655
ATOM     17  C   UNL d   1     -10.933 -18.506  15.628 -0.04 +0.00    +0.000    51.655
ATOM     18  C   UNL d   1     -10.177 -18.074  14.529 -0.07 +0.02    +0.070    51.655
ATOM     19  C   UNL d   1     -11.702 -17.212  17.792 -0.03 +0.01    +0.052    51.655
ATOM     20  C   UNL d   1      -9.056 -18.541  12.310 -0.08 +0.04    +0.066    51.655
ATOM     21  C   UNL d   1      -8.763 -19.367  11.229 -0.06 -0.02    -0.025    51.655
ATOM     22  C   UNL d   1      -8.029 -18.608  10.346 -0.08 -0.02    -0.021    51.655
ATOM     23  C   UNL d   1      -7.885 -17.347  10.931 -0.11 +0.07    +0.066    51.655
ATOM     24  C   UNL d   1      -9.161 -20.810  11.050 -0.01 +0.03    +0.051    51.655
ATOM     25  N   UNL d   1      -7.412 -14.672  12.157 -0.15 -0.11    -0.248    51.655
ATOM     26  N   UNL d   1      -8.729 -14.156  14.701 -0.09 -0.08    -0.248    51.655
ATOM     27  N   UNL d   1      -9.778 -16.786  14.683 -0.07 -0.07    -0.248    51.655
ATOM     28  N   UNL d   1      -8.472 -17.324  12.145 -0.11 -0.17    -0.248    51.655
ATOM     29 FE   UNL d   1      -8.601 -15.754  13.416 -0.04 +0.00    +0.000    51.655
ATOM     30  O   UNL d   1      -7.163 -15.516  13.961 -0.09 +0.00    +0.000    51.655
ATOM     31  O   UNL d   1      -7.857 -16.913  14.174 -0.07 +0.00    +0.000    51.655
ATOM     32  C   UNL d   1      -5.269 -14.088   9.174 -0.17 +0.03    +0.052    51.655
ATOM     33  C   UNL d   1      -6.069 -13.835   7.900 -0.27 +0.11    +0.115    51.655
ATOM     34  C   UNL d   1      -6.292 -15.095   7.101 -0.18 +0.23    +0.139    51.655
ATOM     35  O   UNL d   1      -5.700 -15.253   6.046 -0.46 -1.32    -0.650    51.655
ATOM     36  O   UNL d   1      -7.157 -16.045   7.513 -0.53 -1.88    -0.776    51.655
ATOM     37  H   UNL d   1      -6.867 -16.935   7.744 +0.02 +0.35    +0.167    51.655
ATOM     38  C   UNL d   1      -7.447 -19.094   9.043 -0.05 +0.06    +0.052    51.655
ATOM     39  C   UNL d   1      -5.931 -19.259   9.109 -0.01 +0.08    +0.115    51.655
ATOM     40  C   UNL d   1      -5.261 -18.970   7.789 -0.00 +0.10    +0.139    51.655
ATOM     41  O   UNL d   1      -5.116 -19.867   6.974 +0.03 -0.42    -0.650    51.655
ATOM     42  O   UNL d   1      -4.863 -17.724   7.469 +0.05 -0.67    -0.776    51.655
ATOM     43  H   UNL d   1      -5.396 -17.155   6.900 +0.03 +0.21    +0.167    51.655
ATOM     44  C   UNL d   1     -10.078 -12.023  17.519 -0.12 +0.00    +0.004    51.655
ATOM     45  C   UNL d   1     -11.032 -11.093  17.510 -0.18 +0.00    +0.012    51.655
ATOM     46  C   UNL d   1     -11.409 -19.921  15.823 -0.01 +0.00    +0.004    51.655
ATOM     47  C   UNL d   1     -10.674 -21.023  16.015 -0.00 +0.00    +0.012    51.655
TER
ENDMDL
MODEL       57
USER    Run = 57
USER    Cluster Rank = 27
USER    Number of conformations in this cluster = 1
USER  
USER    RMSD from reference structure       = 29.356 A
USER  
USER    Estimated Free Energy of Binding    =   -4.99 kcal/mol  [=(1)+(2)+(3)-(4)]
USER    Estimated Inhibition Constant, Ki   =  221.77 uM (micromolar)  [Temperature = 298.15 K]
USER    
USER    (1) Final Intermolecular Energy     =   -7.97 kcal/mol
USER        vdW + Hbond + desolv Energy     =   -6.04 kcal/mol
USER        Electrostatic Energy            =   -1.92 kcal/mol
USER    (2) Final Total Internal Energy     =   -2.41 kcal/mol
USER    (3) Torsional Free Energy           =   +2.98 kcal/mol
USER    (4) Unbound System's Energy  [=(2)] =   -2.41 kcal/mol
USER    
USER    
USER  
USER    DPF = D:/Protein_go_brrr/autodock/final/AncB/heme_O2/dock.dpf
USER    NEWDPF move	heme_O2_opt.pdbqt
USER    NEWDPF about	8.287000 34.468000 -0.670000
USER    NEWDPF tran0	20.186469 4.838531 -3.093254
USER    NEWDPF axisangle0	0.224287 0.608811 -0.760950 115.089430
USER    NEWDPF quaternion0	0.189255 0.513721 -0.642098 0.536641
USER    NEWDPF dihe0	142.15 6.52 53.37 130.29 180.00 -55.53 -93.80 176.46 -173.94 175.07 
USER  
USER                              x       y       z    vdW   Elec        q     RMS 
ATOM      1  C   UNL d   1      21.183   3.614  -4.510 -0.06 +0.02    +0.064    29.356
ATOM      2  C   UNL d   1      19.173   2.677  -0.310 -0.21 +0.00    +0.064    29.356
ATOM      3  C   UNL d   1      18.004   7.302   0.267 -0.11 +0.01    +0.064    29.356
ATOM      4  C   UNL d   1      19.644   8.198  -4.269 -0.11 +0.02    +0.064    29.356
ATOM      5  C   UNL d   1      20.730   2.981  -3.415 -0.07 +0.02    +0.066    29.356
ATOM      6  C   UNL d   1      20.892   1.613  -3.179 -0.08 -0.00    -0.021    29.356
ATOM      7  C   UNL d   1      20.272   1.333  -1.983 -0.11 -0.00    -0.025    29.356
ATOM      8  C   UNL d   1      19.792   2.546  -1.499 -0.08 +0.01    +0.066    29.356
ATOM      9  C   UNL d   1      20.141  -0.049  -1.380 -0.18 +0.01    +0.051    29.356
ATOM     10  C   UNL d   1      18.668   3.926   0.261 -0.22 -0.00    +0.066    29.356
ATOM     11  C   UNL d   1      18.182   4.033   1.569 -0.24 -0.00    -0.021    29.356
ATOM     12  C   UNL d   1      17.856   5.363   1.761 -0.23 +0.00    +0.000    29.356
ATOM     13  C   UNL d   1      18.157   6.004   0.527 -0.16 +0.00    +0.070    29.356
ATOM     14  C   UNL d   1      18.059   2.918   2.602 -0.21 +0.00    +0.052    29.356
ATOM     15  C   UNL d   1      18.263   7.983  -0.979 -0.15 +0.01    +0.066    29.356
ATOM     16  C   UNL d   1      17.928   9.311  -1.238 -0.14 -0.00    -0.021    29.356
ATOM     17  C   UNL d   1      18.385   9.589  -2.526 -0.20 +0.00    +0.000    29.356
ATOM     18  C   UNL d   1      18.975   8.394  -2.961 -0.12 +0.02    +0.070    29.356
ATOM     19  C   UNL d   1      17.160  10.171  -0.266 -0.10 +0.01    +0.052    29.356
ATOM     20  C   UNL d   1      20.182   7.054  -4.734 -0.07 +0.02    +0.066    29.356
ATOM     21  C   UNL d   1      20.815   6.934  -5.968 -0.07 -0.01    -0.025    29.356
ATOM     22  C   UNL d   1      21.284   5.642  -6.042 -0.04 -0.01    -0.021    29.356
ATOM     23  C   UNL d   1      20.902   5.013  -4.854 -0.05 +0.02    +0.066    29.356
ATOM     24  C   UNL d   1      20.962   7.999  -7.024 -0.08 +0.01    +0.051    29.356
ATOM     25  N   UNL d   1      20.017   3.550  -2.413 -0.08 -0.05    -0.248    29.356
ATOM     26  N   UNL d   1      18.646   5.121  -0.381 -0.12 +0.00    -0.248    29.356
ATOM     27  N   UNL d   1      18.825   7.409  -2.039 -0.08 -0.05    -0.248    29.356
ATOM     28  N   UNL d   1      20.193   5.861  -4.081 -0.03 -0.08    -0.248    29.356
ATOM     29 FE   UNL d   1      19.424   5.497  -2.244 -0.03 +0.00    +0.000    29.356
ATOM     30  O   UNL d   1      18.249   4.498  -2.456 -0.34 +0.00    +0.000    29.356
ATOM     31  O   UNL d   1      18.229   5.894  -3.186 -0.31 +0.00    +0.000    29.356
ATOM     32  C   UNL d   1      21.484   0.580  -4.103 -0.09 +0.01    +0.052    29.356
ATOM     33  C   UNL d   1      20.444  -0.067  -5.011 -0.13 +0.03    +0.115    29.356
ATOM     34  C   UNL d   1      20.170   0.752  -6.248 -0.12 +0.05    +0.139    29.356
ATOM     35  O   UNL d   1      21.049   1.463  -6.708 +0.02 -0.20    -0.650    29.356
ATOM     36  O   UNL d   1      18.961   0.741  -6.845 +0.00 -0.34    -0.776    29.356
ATOM     37  H   UNL d   1      18.575   1.535  -7.233 +0.05 +0.10    +0.167    29.356
ATOM     38  C   UNL d   1      22.001   5.034  -7.220 -0.02 +0.02    +0.052    29.356
ATOM     39  C   UNL d   1      21.038   4.538  -8.295 -0.04 +0.05    +0.115    29.356
ATOM     40  C   UNL d   1      19.594   4.668  -7.880 -0.11 +0.14    +0.139    29.356
ATOM     41  O   UNL d   1      18.986   5.700  -8.117 -0.34 -0.95    -0.650    29.356
ATOM     42  O   UNL d   1      18.943   3.644  -7.295 -0.36 -0.93    -0.776    29.356
ATOM     43  H   UNL d   1      19.408   2.850  -7.005 +0.04 +0.12    +0.167    29.356
ATOM     44  C   UNL d   1      17.299   5.873   3.073 -0.19 +0.00    +0.004    29.356
ATOM     45  C   UNL d   1      16.229   6.643   3.264 -0.22 +0.00    +0.012    29.356
ATOM     46  C   UNL d   1      18.263  10.828  -3.373 -0.23 +0.00    +0.004    29.356
ATOM     47  C   UNL d   1      19.243  11.547  -3.935 -0.21 +0.00    +0.012    29.356
TER
ENDMDL


AVSFLD: # AVS field file
AVSFLD: #
AVSFLD: # Created by AutoDock
AVSFLD: #
AVSFLD: ndim=2           # number of dimensions in the field
AVSFLD: nspace=1         # number of physical coordinates
AVSFLD: veclen=7         # vector size
AVSFLD: dim1=47          # atoms
AVSFLD: dim2=27          # conformations
AVSFLD: data=Real       # data type (byte,integer,Real,double)
AVSFLD: field=uniform    # field coordinate layout
AVSFLD: label= x y z vdW Elec q RMS
AVSFLD: variable 1 file = D:/Protein_go_brrr/autodock/final/AncB/heme_O2/dock.dlg.pdb filetype = ascii offset = 5 stride = 12
AVSFLD: variable 2 file = D:/Protein_go_brrr/autodock/final/AncB/heme_O2/dock.dlg.pdb filetype = ascii offset = 6 stride = 12
AVSFLD: variable 3 file = D:/Protein_go_brrr/autodock/final/AncB/heme_O2/dock.dlg.pdb filetype = ascii offset = 7 stride = 12
AVSFLD: variable 4 file = D:/Protein_go_brrr/autodock/final/AncB/heme_O2/dock.dlg.pdb filetype = ascii offset = 8 stride = 12
AVSFLD: variable 5 file = D:/Protein_go_brrr/autodock/final/AncB/heme_O2/dock.dlg.pdb filetype = ascii offset = 9 stride = 12
AVSFLD: variable 6 file = D:/Protein_go_brrr/autodock/final/AncB/heme_O2/dock.dlg.pdb filetype = ascii offset = 10 stride = 12
AVSFLD: variable 7 file = D:/Protein_go_brrr/autodock/final/AncB/heme_O2/dock.dlg.pdb filetype = ascii offset = 11 stride = 12
AVSFLD: # end of file

>>> Closing the docking parameter file (DPF)...
This docking finished at:			9:23 34" p.m., 01/16/2026


________________________________________________________________________________

D:/autodockScripts/autodock4.exe: Successful Completion on "ACER"

Real= 34h 03m 30.25s,  CPU= 2m 47.50s,  System= 2m 01.45s
________________________________________________________________________________

